//mumax 3.10 [windows_amd64 go1.11.6(gc) CUDA-11.0]
//GPU info: NVIDIA GeForce RTX 3090(24575MB), CUDA Driver 12.0, cc=8.6, using cc=80 PTX
//(c) Arne Vansteenkiste, Dynamat LAB, Ghent University, Belgium
//This is free software without any warranty. See license.txt
//********************************************************************//
//  If you use mumax in any work or publication,                      //
//  we kindly ask you to cite the references in references.bib        //
//********************************************************************//
//output directory: r1;p0.5;a3.2e-07;l2.3000000000000002e-07;s0.out/
randSeed(0)
ThermSeed(0)
resolution := 2e-09
zResolution := 5e-09
a := 3.2e-07
gridSize := 320
gridDepth := 5
SetCellsize(resolution, resolution, zResolution)
SetGridsize(gridSize, gridSize, gridDepth)
SetPBC(16, 16, 0)
//resizing...
Msat = 700e3
Aex = 13e-12
alpha = 0.2
Bmax := 0.1
Bstep := Bmax / 500.0
TableAdd(B_ext)
TableAdd(m_full)
islandWidth := 8e-08
islandLength := 2.3000000000000002e-07
ellipseConstant := 5.7500000000000005e-08
hIsland := rect(islandLength-2*ellipseConstant, islandWidth)
hIsland = hIsland.add(ellipse(ellipseConstant*2, islandWidth).transl(islandLength/2-ellipseConstant, 0, 0))
hIsland = hIsland.add(ellipse(ellipseConstant*2, islandWidth).transl(-islandLength/2+ellipseConstant, 0, 0))
hIsland = hIsland.sub(rect(6.000000000000001e-09, -3.551174928060622e-09).transl(5.233844943812217e-08, -4e-08, 0))
hIsland = hIsland.add(rect(6.000000000000001e-09, 2.865765411887699e-09).transl(-2.52099477253966e-09, -4e-08, 0))
hIsland = hIsland.sub(rect(6.000000000000001e-09, -1.4622539256804431e-09).transl(-2.749124331902236e-08, -4e-08, 0))
hIsland = hIsland.sub(rect(6.000000000000001e-09, -1.0460744752003922e-09).transl(-4.7440876708088e-08, -4e-08, 0))
hIsland = hIsland.add(rect(6.000000000000001e-09, 1.059890933610488e-09).transl(-1.004041482628585e-07, -2.6630707002360083e-08, 0))
hIsland = hIsland.add(rect(6.000000000000001e-09, 1.2549611287248372e-09).transl(3.6967519322661736e-09, -4e-08, 0))
hIsland = hIsland.sub(rect(6.000000000000001e-09, -2.486268383000505e-10).transl(-6.444641348850826e-08, -3.9707039629313956e-08, 0))
hIsland = hIsland.add(rect(6.000000000000001e-09, 2.67434392585356e-09).transl(-2.4446452997826045e-09, -4e-08, 0))
hIsland = hIsland.add(rect(6.000000000000001e-09, 2.4803305906037953e-09).transl(1.0875408463373156e-07, -1.8130633662746167e-08, 0))
hIsland = hIsland.add(rect(6.000000000000001e-09, 5.841475800980348e-10).transl(9.615269541027452e-08, -2.9614029373554188e-08, 0))
hIsland = hIsland.sub(rect(6.000000000000001e-09, -1.6274742274803822e-09).transl(-6.31139067709307e-08, -3.980889882079208e-08, 0))
hIsland = hIsland.sub(rect(6.000000000000001e-09, -1.1319440757845605e-09).transl(-1.536664022863513e-08, -4e-08, 0))
hIsland = hIsland.sub(rect(6.000000000000001e-09, -2.2568552507286143e-09).transl(-1.11921134618063e-07, -1.2913487575584242e-08, 0))
hIsland = hIsland.add(rect(6.000000000000001e-09, 8.846626059797518e-10).transl(9.079533660688268e-08, -3.261170025056216e-08, 0))
hIsland = hIsland.sub(rect(6.000000000000001e-09, -1.0546969101618668e-09).transl(-4.0098541124602805e-08, -4e-08, 0))
hIsland = hIsland.sub(rect(6.000000000000001e-09, -2.9135993386396513e-09).transl(4.5799029251734775e-09, -4e-08, 0))
hIsland = hIsland.add(rect(6.000000000000001e-09, 1.0216508425364318e-09).transl(-5.273963469933662e-08, -4e-08, 0))
hIsland = hIsland.add(rect(6.000000000000001e-09, 1.201278357912921e-09).transl(4.484282392635996e-08, -4e-08, 0))
hIsland = hIsland.sub(rect(6.000000000000001e-09, -1.1920972296818286e-09).transl(-1.3581586270882317e-08, -4e-08, 0))
hIsland = hIsland.sub(rect(6.000000000000001e-09, -1.0184164421057129e-09).transl(8.865665999211546e-09, -4e-08, 0))
hIsland = hIsland.sub(rect(6.000000000000001e-09, -1.5259523273675832e-09).transl(7.235373835742209e-08, -3.8642313334669275e-08, 0))
hIsland = hIsland.sub(rect(6.000000000000001e-09, -2.848140221812765e-09).transl(-9.357126082160719e-08, -3.1150261494784414e-08, 0))
hIsland = hIsland.add(rect(6.000000000000001e-09, 3.463313171787372e-09).transl(-1.1115813261471138e-07, -1.4375863902787318e-08, 0))
hIsland = hIsland.sub(rect(6.000000000000001e-09, -6.464676177103235e-10).transl(6.852451981826804e-08, -3.9257902301823695e-08, 0))
hIsland = hIsland.add(rect(6.000000000000001e-09, 1.2418001293469675e-09).transl(-6.811124186181289e-08, -3.9312975097178255e-08, 0))
hIsland = hIsland.sub(rect(6.000000000000001e-09, -2.064818028046305e-09).transl(4.354819140142712e-08, -4e-08, 0))
hIsland = hIsland.add(rect(6.000000000000001e-09, 2.8434760896039773e-09).transl(-7.262058194347836e-08, -3.859219703379971e-08, 0))
hIsland = hIsland.add(rect(6.000000000000001e-09, 5.781656356862012e-10).transl(6.416331408549587e-08, -3.973051145286255e-08, 0))
hIsland = hIsland.sub(rect(6.000000000000001e-09, -1.0968963036117889e-09).transl(1.9153290820235213e-08, -4e-08, 0))
hIsland = hIsland.sub(rect(6.000000000000001e-09, -1.1945981811229487e-09).transl(-8.519737852697793e-08, -3.505358946317465e-08, 0))
hIsland = hIsland.add(rect(6.000000000000001e-09, 3.741172143390014e-09).transl(-1.2847379701332859e-08, -4e-08, 0))
hIsland = hIsland.sub(rect(6.000000000000001e-09, -1.3872172674493285e-09).transl(1.2704831349839618e-08, -4e-08, 0))
hIsland = hIsland.add(rect(6.000000000000001e-09, 1.1515359667141323e-09).transl(-9.45151177243046e-08, -3.060973168093189e-08, 0))
hIsland = hIsland.sub(rect(6.000000000000001e-09, -1.874011179546385e-09).transl(-2.4596959270655365e-08, -4e-08, 0))
hIsland = hIsland.add(rect(6.000000000000001e-09, 9.464501284076342e-10).transl(3.770456133793502e-08, -4e-08, 0))
hIsland = hIsland.add(rect(6.000000000000001e-09, 1.2826180250373193e-09).transl(-3.569970986865522e-08, -4e-08, 0))
hIsland = hIsland.sub(rect(6.000000000000001e-09, -2.8101965506181742e-09).transl(-1.9533033173227748e-08, -4e-08, 0))
hIsland = hIsland.sub(rect(6.000000000000001e-09, -1.5475649323642983e-09).transl(1.7213304864471954e-08, -4e-08, 0))
hIsland = hIsland.sub(rect(6.000000000000001e-09, -5.359921114814906e-10).transl(7.65642669502445e-08, -3.7737471256012886e-08, 0))
hIsland = hIsland.add(rect(6.000000000000001e-09, 9.85914996978068e-10).transl(9.521133986762387e-08, -3.0195670655125406e-08, 0))
hIsland = hIsland.sub(rect(6.000000000000001e-09, -2.5357248493755335e-09).transl(-3.937814452016439e-08, -4e-08, 0))
hIsland = hIsland.add(rect(6.000000000000001e-09, 8.187815309302881e-10).transl(5.0127060494989155e-08, -4e-08, 0))
hIsland = hIsland.sub(rect(6.000000000000001e-09, -5.711834811088529e-10).transl(7.314704267014532e-09, -4e-08, 0))
hIsland = hIsland.add(rect(6.000000000000001e-09, 1.0598786897027955e-09).transl(3.982986428912664e-08, -4e-08, 0))
hIsland = hIsland.add(rect(6.000000000000001e-09, 1.389014532652141e-09).transl(-7.019929354296682e-08, -3.901224550951417e-08, 0))
hIsland = hIsland.sub(rect(6.000000000000001e-09, -3.6313565233763564e-09).transl(3.310189928420743e-08, -4e-08, 0))
hIsland = hIsland.add(rect(6.000000000000001e-09, 9.444765048117859e-10).transl(3.6580022478098537e-08, -4e-08, 0))
hIsland = hIsland.add(rect(6.000000000000001e-09, 5.305057059505863e-09).transl(-9.015951768040182e-08, -3.292137369885444e-08, 0))
hIsland = hIsland.sub(rect(6.000000000000001e-09, -3.5732688879110602e-09).transl(8.276828430928968e-08, -3.5930712962027014e-08, 0))
hIsland = hIsland.add(rect(6.000000000000001e-09, 6.341150876313813e-10).transl(1.0123123810218881e-07, -2.5971489981617283e-08, 0))
hIsland = hIsland.add(rect(6.000000000000001e-09, 7.655763147542802e-10).transl(1.0857020512197484e-07, -1.8380022343489287e-08, 0))
hIsland = hIsland.sub(rect(6.000000000000001e-09, -1.2034961515604957e-09).transl(9.176148226771186e-08, -3.212377448183504e-08, 0))
hIsland = hIsland.sub(rect(6.000000000000001e-09, -2.0627120524184607e-09).transl(6.30683740250865e-08, -3.981199347043257e-08, 0))
hIsland = hIsland.add(rect(6.000000000000001e-09, 7.369839015906435e-10).transl(-1.771687008353479e-09, -4e-08, 0))
hIsland = hIsland.sub(rect(6.000000000000001e-09, -1.9265133985751823e-09).transl(4.370351908965315e-08, -4e-08, 0))
hIsland = hIsland.add(rect(6.000000000000001e-09, 1.3575563070993585e-09).transl(-1.0405163668683696e-07, -2.347962762426179e-08, 0))
hIsland = hIsland.add(rect(6.000000000000001e-09, 7.446473396732138e-10).transl(3.180241109200712e-08, -4e-08, 0))
hIsland = hIsland.add(rect(6.000000000000001e-09, 3.945817011822666e-10).transl(-4.0822157469845186e-08, -4e-08, 0))
hIsland = hIsland.add(rect(6.000000000000001e-09, 1.2889498479738343e-09).transl(-9.048026812318848e-08, -3.2766265390957684e-08, 0))
hIsland = hIsland.sub(rect(6.000000000000001e-09, -4.11325177465711e-09).transl(4.321807488994746e-08, -4e-08, 0))
hIsland = hIsland.sub(rect(6.000000000000001e-09, -1.1988479755669393e-09).transl(-7.374851223979724e-08, -3.836971616174889e-08, 0))
hIsland = hIsland.sub(rect(6.000000000000001e-09, -2.2050871443503657e-09).transl(-1.5955359303275016e-08, -4e-08, 0))
hIsland = hIsland.sub(rect(6.000000000000001e-09, -2.823791705468046e-09).transl(3.149555551366334e-08, -4e-08, 0))
hIsland = hIsland.add(rect(6.000000000000001e-09, 3.244635145050599e-09).transl(1.537660470885163e-08, -4e-08, 0))
hIsland = hIsland.add(rect(6.000000000000001e-09, 1.868431910858772e-09).transl(8.522607085681156e-08, -3.5042610807038645e-08, 0))
hIsland = hIsland.add(rect(6.000000000000001e-09, 8.478811283723669e-10).transl(7.78849526443099e-08, -3.7401923382314116e-08, 0))
hIsland = hIsland.sub(rect(6.000000000000001e-09, -3.808144488522562e-09).transl(-6.326647356902048e-08, -3.979834405698905e-08, 0))
hIsland = hIsland.sub(rect(6.000000000000001e-09, -8.446659918019655e-10).transl(9.158818962879664e-08, -3.221286725041691e-08, 0))
hIsland = hIsland.add(rect(6.000000000000001e-09, 8.251396329997233e-10).transl(-1.0735209060726177e-07, -1.9932821006985153e-08, 0))
hIsland = hIsland.sub(rect(6.000000000000001e-09, -9.996817369153528e-10).transl(-5.521157956075537e-08, -4e-08, 0))
hIsland = hIsland.add(rect(6.000000000000001e-09, 2.1304752388171447e-09).transl(5.0808536117743297e-08, -4e-08, 0))
hIsland = hIsland.add(rect(6.000000000000001e-09, 2.4182689434522482e-09).transl(2.2144633469153215e-09, -4e-08, 0))
hIsland = hIsland.sub(rect(6.000000000000001e-09, -2.0438622159785646e-09).transl(2.572606520786003e-08, -4e-08, 0))
hIsland = hIsland.add(rect(6.000000000000001e-09, 9.338947273414723e-10).transl(1.680132780224329e-08, -4e-08, 0))
hIsland = hIsland.add(rect(6.000000000000001e-09, 3.2728178112499934e-10).transl(1.3471305921570361e-08, -4e-08, 0))
hIsland = hIsland.add(rect(6.000000000000001e-09, 3.7373968709774253e-10).transl(-1.0032048255326706e-07, -2.669579401321086e-08, 0))
hIsland = hIsland.add(rect(6.000000000000001e-09, 2.916457951273166e-09).transl(-8.570460790596255e-08, -3.485731173009564e-08, 0))
hIsland = hIsland.add(rect(6.000000000000001e-09, 2.0988837607640646e-09).transl(1.9942630541256293e-10, -4e-08, 0))
hIsland = hIsland.sub(rect(6.000000000000001e-09, -2.9612386963669508e-09).transl(-2.255633419647967e-08, -4e-08, 0))
hIsland = hIsland.sub(rect(6.000000000000001e-09, -2.1268243990541385e-09).transl(4.138553234877682e-08, -4e-08, 0))
hIsland = hIsland.sub(rect(6.000000000000001e-09, -1.8218728724683485e-09).transl(6.532194600202853e-08, -3.962816762695815e-08, 0))
hIsland = hIsland.add(rect(6.000000000000001e-09, 1.2102221397562363e-09).transl(-7.761271415492345e-08, -3.747318019397011e-08, 0))
hIsland = hIsland.add(rect(6.000000000000001e-09, 1.3188251663361311e-09).transl(9.54472803177191e-08, -3.0052285961855924e-08, 0))
hIsland = hIsland.add(rect(6.000000000000001e-09, 1.3807896657045238e-09).transl(1.1486850095843086e-07, -2.703671463135997e-09, 0))
hIsland = hIsland.add(rect(6.000000000000001e-09, 9.225499955340604e-10).transl(-4.788713616793676e-08, -4e-08, 0))
hIsland = hIsland.sub(rect(6.000000000000001e-09, -1.7977806290984985e-09).transl(-3.893022154092372e-08, -4e-08, 0))
hIsland = hIsland.add(rect(6.000000000000001e-09, 2.1225918681029924e-09).transl(7.837062357996575e-08, -3.727207406684165e-08, 0))
hIsland = hIsland.sub(rect(6.000000000000001e-09, -4.0710893392925447e-10).transl(2.0660177331223586e-08, -4e-08, 0))
hIsland = hIsland.add(rect(6.000000000000001e-09, 3.3703206235175366e-09).transl(6.76506468837065e-08, -3.937178896001986e-08, 0))
hIsland = hIsland.add(rect(6.000000000000001e-09, 7.806363826569847e-10).transl(-5.593117557814771e-08, -4e-08, 0))
hIsland = hIsland.sub(rect(6.000000000000001e-09, -9.680448208059366e-10).transl(-1.1303135476079572e-07, -1.0377084270405539e-08, 0))
hIsland = hIsland.sub(rect(6.000000000000001e-09, -1.2102384047993613e-09).transl(5.570621564348161e-08, -4e-08, 0))
hIsland = hIsland.sub(rect(6.000000000000001e-09, -1.8974542322220237e-10).transl(-8.497326380606025e-08, -3.513883516159338e-08, 0))
hIsland = hIsland.sub(rect(6.000000000000001e-09, -3.62581386647396e-10).transl(8.604060511577391e-08, -3.472470909412058e-08, 0))
hIsland = hIsland.add(rect(6.000000000000001e-09, 2.7718668093619914e-09).transl(-8.630365664607189e-08, -3.461943893599768e-08, 0))
hIsland = hIsland.sub(rect(6.000000000000001e-09, -3.411848298971444e-09).transl(6.06855799831197e-08, -3.99385665416088e-08, 0))
hIsland = hIsland.sub(rect(6.000000000000001e-09, -4.4809671759329154e-10).transl(-8.67559177365217e-08, -3.443542398976772e-08, 0))
hIsland = hIsland.add(rect(6.000000000000001e-09, 4.4073980435000854e-10).transl(1.8314672882055076e-08, -4e-08, 0))
hIsland = hIsland.sub(rect(6.000000000000001e-09, -2.1516722302471683e-09).transl(3.283875381387396e-08, -4e-08, 0))
hIsland = hIsland.sub(rect(6.000000000000001e-09, -5.689427507202429e-10).transl(5.025023778834312e-08, -4e-08, 0))
hIsland = hIsland.sub(rect(6.000000000000001e-09, -8.972999311480454e-10).transl(4.219565960354591e-08, 4e-08, 0))
hIsland = hIsland.add(rect(6.000000000000001e-09, 9.526887961605028e-10).transl(3.728877739739268e-09, 4e-08, 0))
hIsland = hIsland.add(rect(6.000000000000001e-09, 2.4964093668793118e-09).transl(-1.264251580276828e-08, 4e-08, 0))
hIsland = hIsland.sub(rect(6.000000000000001e-09, -2.7184502751885223e-09).transl(8.703583957986757e-08, 3.431959076564402e-08, 0))
hIsland = hIsland.sub(rect(6.000000000000001e-09, -2.553035620724653e-09).transl(-1.0780413119220467e-07, 1.93754352379604e-08, 0))
hIsland = hIsland.sub(rect(6.000000000000001e-09, -7.481249394222676e-10).transl(9.062116082168607e-08, 3.269741868178119e-08, 0))
hIsland = hIsland.add(rect(6.000000000000001e-09, 3.601288595936272e-09).transl(-2.430213122146432e-08, 4e-08, 0))
hIsland = hIsland.sub(rect(6.000000000000001e-09, -2.912474739452e-10).transl(9.00037795279939e-08, 3.299587832991138e-08, 0))
hIsland = hIsland.add(rect(6.000000000000001e-09, 2.320508338635296e-09).transl(9.479756908702501e-08, 3.044335851505953e-08, 0))
hIsland = hIsland.add(rect(6.000000000000001e-09, 6.621693686467685e-10).transl(-6.199428118944012e-08, 3.9877628689292717e-08, 0))
hIsland = hIsland.sub(rect(6.000000000000001e-09, -2.0248317245252427e-11).transl(-1.1035767912297191e-07, 1.5745664868601612e-08, 0))
hIsland = hIsland.sub(rect(6.000000000000001e-09, -7.429435951132838e-10).transl(1.0067698866964236e-07, 2.6416448098767265e-08, 0))
hIsland = hIsland.add(rect(6.000000000000001e-09, 5.764995499641133e-10).transl(-1.4979223576889675e-08, 4e-08, 0))
hIsland = hIsland.add(rect(6.000000000000001e-09, 3.001595439139634e-09).transl(9.345755587382499e-08, 3.1213814405369326e-08, 0))
hIsland = hIsland.add(rect(6.000000000000001e-09, 3.8792922921564626e-10).transl(-3.050932851375097e-08, 4e-08, 0))
hIsland = hIsland.add(rect(6.000000000000001e-09, 1.864743209146608e-09).transl(-7.77909721695321e-10, 4e-08, 0))
hIsland = hIsland.sub(rect(6.000000000000001e-09, -7.65874648945645e-10).transl(-2.0440279292665166e-08, 4e-08, 0))
hIsland = hIsland.add(rect(6.000000000000001e-09, 1.4250254850190564e-09).transl(2.3046796273849387e-08, 4e-08, 0))
hIsland = hIsland.add(rect(6.000000000000001e-09, 3.652617227705292e-10).transl(6.240191863098346e-08, 3.9854381101687145e-08, 0))
hIsland = hIsland.sub(rect(6.000000000000001e-09, -8.370207089239824e-10).transl(1.356682426688256e-08, 4e-08, 0))
hIsland = hIsland.sub(rect(6.000000000000001e-09, -6.383897927440644e-10).transl(4.738359519586039e-08, 4e-08, 0))
hIsland = hIsland.sub(rect(6.000000000000001e-09, -1.6179392432525338e-09).transl(7.00112905304191e-08, 3.904163131032496e-08, 0))
hIsland = hIsland.sub(rect(6.000000000000001e-09, -8.32955079454741e-10).transl(-1.0341898945944465e-07, 2.4074956993720983e-08, 0))
hIsland = hIsland.sub(rect(6.000000000000001e-09, -1.7021732535404547e-09).transl(9.644960010799477e-09, 4e-08, 0))
hIsland = hIsland.add(rect(6.000000000000001e-09, 4.393129186689391e-10).transl(4.4920884560524435e-08, 4e-08, 0))
hIsland = hIsland.add(rect(6.000000000000001e-09, 5.423359018342427e-10).transl(6.942532087312924e-08, 3.913027538254163e-08, 0))
hIsland = hIsland.sub(rect(6.000000000000001e-09, -1.2855442693492858e-09).transl(-2.8297157336560924e-08, 4e-08, 0))
hIsland = hIsland.add(rect(6.000000000000001e-09, 2.915700384415292e-09).transl(6.52999613748961e-08, 3.963026459580508e-08, 0))
hIsland = hIsland.sub(rect(6.000000000000001e-09, -1.421904688579075e-09).transl(-9.528826191185228e-08, 3.014909701834455e-08, 0))
hIsland = hIsland.add(rect(6.000000000000001e-09, 9.742133542942156e-10).transl(1.8984041941327775e-08, 4e-08, 0))
hIsland = hIsland.add(rect(6.000000000000001e-09, 9.133745525186959e-10).transl(-1.6762748755312992e-08, 4e-08, 0))
hIsland = hIsland.add(rect(6.000000000000001e-09, 2.587862401205702e-09).transl(-5.4837118901951766e-08, 4e-08, 0))
hIsland = hIsland.sub(rect(6.000000000000001e-09, -1.3385104162461623e-09).transl(8.962374847127303e-08, 3.317549670684358e-08, 0))
hIsland = hIsland.add(rect(6.000000000000001e-09, 4.892251336306926e-09).transl(-6.322539848039182e-08, 3.980121379948527e-08, 0))
hIsland = hIsland.sub(rect(6.000000000000001e-09, -8.204053010812958e-10).transl(6.531685839639142e-08, 3.962865343492412e-08, 0))
hIsland = hIsland.add(rect(6.000000000000001e-09, 1.2281500301408214e-09).transl(-8.681394042746375e-09, 4e-08, 0))
hIsland = hIsland.add(rect(6.000000000000001e-09, 1.1033658883901245e-09).transl(3.3682452263341056e-08, 4e-08, 0))
hIsland = hIsland.add(rect(6.000000000000001e-09, 2.049899791102622e-09).transl(8.782446016410893e-08, 3.398513356829384e-08, 0))
hIsland = hIsland.sub(rect(6.000000000000001e-09, -2.3194762833068372e-09).transl(-7.700247923606613e-08, 3.7628952718248487e-08, 0))
hIsland = hIsland.add(rect(6.000000000000001e-09, 1.7813950416943226e-09).transl(-1.7811444843602195e-08, 4e-08, 0))
hIsland = hIsland.sub(rect(6.000000000000001e-09, -1.0422697694507e-09).transl(2.8146541418215738e-08, 4e-08, 0))
hIsland = hIsland.add(rect(6.000000000000001e-09, 3.9370810033409404e-09).transl(-4.198200695836634e-08, 4e-08, 0))
hIsland = hIsland.add(rect(6.000000000000001e-09, 5.693277396700639e-09).transl(1.126329687437496e-07, 1.1358654996406294e-08, 0))
hIsland = hIsland.sub(rect(6.000000000000001e-09, -2.8708148516940472e-12).transl(8.337846650430009e-08, 3.571992694364979e-08, 0))
hIsland = hIsland.sub(rect(6.000000000000001e-09, -2.6506522371084675e-09).transl(-4.374713532319482e-08, 4e-08, 0))
hIsland = hIsland.add(rect(6.000000000000001e-09, 4.834318288761489e-10).transl(-6.018026784767268e-08, 3.995652027373256e-08, 0))
hIsland = hIsland.sub(rect(6.000000000000001e-09, -2.4774583702949985e-09).transl(7.536936325354911e-08, 3.80193856474404e-08, 0))
hIsland = hIsland.sub(rect(6.000000000000001e-09, -5.258747033755961e-10).transl(5.853166999746907e-08, 3.9993561112103517e-08, 0))
hIsland = hIsland.add(rect(6.000000000000001e-09, 2.518784780351749e-09).transl(2.7296900470582327e-08, 4e-08, 0))
hIsland = hIsland.sub(rect(6.000000000000001e-09, -1.647326947507996e-09).transl(8.321084080769975e-08, 3.577845826819874e-08, 0))
hIsland = hIsland.add(rect(6.000000000000001e-09, 5.148815421192065e-10).transl(9.652219926322484e-08, 2.9378586100639784e-08, 0))
hIsland = hIsland.sub(rect(6.000000000000001e-09, -5.040544400403748e-09).transl(-1.5685006424999966e-08, 4e-08, 0))
hIsland = hIsland.sub(rect(6.000000000000001e-09, -3.0719809643281854e-09).transl(2.2872908087211657e-08, 4e-08, 0))
hIsland = hIsland.add(rect(6.000000000000001e-09, 1.2946580614546484e-09).transl(8.935859533460145e-09, 4e-08, 0))
hIsland = hIsland.add(rect(6.000000000000001e-09, 2.3826116633876515e-09).transl(-5.253253476535704e-08, 4e-08, 0))
hIsland = hIsland.sub(rect(6.000000000000001e-09, -3.5891675682696534e-10).transl(8.760438055480586e-09, 4e-08, 0))
hIsland = hIsland.sub(rect(6.000000000000001e-09, -1.4697590803401163e-09).transl(9.984532517138856e-09, 4e-08, 0))
hIsland = hIsland.add(rect(6.000000000000001e-09, 9.418839051691324e-10).transl(6.341416670887529e-08, 3.9787854104838954e-08, 0))
hIsland = hIsland.sub(rect(6.000000000000001e-09, -3.4827166393847276e-10).transl(-7.549217571165864e-08, 3.799134547175929e-08, 0))
hIsland = hIsland.sub(rect(6.000000000000001e-09, -1.4809916440672853e-09).transl(-1.4281807095855645e-08, 4e-08, 0))
hIsland = hIsland.sub(rect(6.000000000000001e-09, -6.676304297677632e-10).transl(-1.1382452823781446e-07, 8.046669732257622e-09, 0))
hIsland = hIsland.add(rect(6.000000000000001e-09, 3.072147746231867e-09).transl(1.0481865082088452e-07, 2.2725533919529618e-08, 0))
hIsland = hIsland.sub(rect(6.000000000000001e-09, -5.43099207735127e-10).transl(-6.230830796812203e-08, 3.985989937044469e-08, 0))
hIsland = hIsland.sub(rect(6.000000000000001e-09, -1.6373694772737e-10).transl(6.254393476334229e-08, 3.984580470829305e-08, 0))
hIsland = hIsland.sub(rect(6.000000000000001e-09, -3.3222239384400045e-10).transl(-9.265992902255735e-08, 3.1650487417114687e-08, 0))
hIsland = hIsland.sub(rect(6.000000000000001e-09, -1.4067227547185723e-09).transl(-9.649716329719475e-08, 2.939466925752344e-08, 0))
hIsland = hIsland.sub(rect(6.000000000000001e-09, -7.989346299463859e-10).transl(-1.844741869925205e-08, 4e-08, 0))
hIsland = hIsland.add(rect(6.000000000000001e-09, 8.486773429779731e-10).transl(-1.1274372310018369e-07, 1.1095184573060619e-08, 0))
hIsland = hIsland.add(rect(6.000000000000001e-09, 2.1160424371030544e-09).transl(1.9888303174046834e-08, 4e-08, 0))
hIsland = hIsland.sub(rect(6.000000000000001e-09, -2.7158189754990297e-09).transl(2.819289350866568e-08, 4e-08, 0))
hIsland = hIsland.sub(rect(6.000000000000001e-09, -2.208524151450331e-09).transl(-9.10854953953549e-08, 3.2467395649449945e-08, 0))
hIsland = hIsland.sub(rect(6.000000000000001e-09, -1.982929486784461e-09).transl(8.091087021778907e-08, 3.653453129606724e-08, 0))
hIsland = hIsland.add(rect(6.000000000000001e-09, 5.778342255398973e-10).transl(-1.13642749170072e-07, 8.639588749615519e-09, 0))
hIsland = hIsland.sub(rect(6.000000000000001e-09, -1.9640196919942668e-09).transl(-7.630137146640015e-08, 3.780124517436589e-08, 0))
hIsland = hIsland.add(rect(6.000000000000001e-09, 4.1817803972733465e-09).transl(4.712927456999127e-09, 4e-08, 0))
hIsland = hIsland.sub(rect(6.000000000000001e-09, -1.733480279385505e-09).transl(-5.1167355209797185e-08, 4e-08, 0))
hIsland = hIsland.sub(rect(6.000000000000001e-09, -1.4013150716201526e-09).transl(-9.939041980071773e-08, 2.7400596719297664e-08, 0))
hIsland = hIsland.add(rect(6.000000000000001e-09, 4.3276553919422694e-11).transl(-1.9596953599573226e-08, 4e-08, 0))
hIsland = hIsland.add(rect(6.000000000000001e-09, 1.8735864126953216e-09).transl(-8.169696371991818e-08, 3.628582652687538e-08, 0))
hIsland = hIsland.add(rect(6.000000000000001e-09, 2.2808683604679157e-09).transl(-8.814552889102298e-08, 3.384547335101218e-08, 0))
hIsland = hIsland.sub(rect(6.000000000000001e-09, -8.356390553923051e-10).transl(-3.0145898953506403e-09, 4e-08, 0))
hIsland = hIsland.add(rect(6.000000000000001e-09, 1.15462693772596e-09).transl(2.887554219157133e-08, 4e-08, 0))
hIsland = hIsland.sub(rect(6.000000000000001e-09, -1.7143890287981681e-09).transl(2.823821236074484e-08, 4e-08, 0))
hIsland = hIsland.add(rect(6.000000000000001e-09, 1.712141359422013e-09).transl(-9.688911296852026e-08, 2.914066762405789e-08, 0))
hIsland = hIsland.sub(rect(6.000000000000001e-09, -1.2015394403297373e-09).transl(-3.4417440991086746e-08, 4e-08, 0))
hIsland = hIsland.add(rect(6.000000000000001e-09, 2.3615404088853644e-10).transl(-3.511261166713045e-08, 4e-08, 0))
hIsland = hIsland.add(rect(6.000000000000001e-09, 4.70457962360599e-09).transl(-1.6614408565122267e-08, 4e-08, 0))
hIsland = hIsland.sub(rect(6.000000000000001e-09, -4.4252034346855246e-10).transl(4.8269069012755687e-08, 4e-08, 0))
hIsland = hIsland.sub(rect(6.000000000000001e-09, -2.347736914536476e-09).transl(-1.5045363001598358e-08, 4e-08, 0))
hIsland = hIsland.sub(rect(6.000000000000001e-09, -1.4772704992437797e-10).transl(-8.030588141777486e-08, 3.6719245810662724e-08, 0))
hIsland = hIsland.sub(rect(6.000000000000001e-09, -8.985544714722253e-10).transl(9.423907218368367e-08, 3.077025013586118e-08, 0))
hIsland = hIsland.sub(rect(6.000000000000001e-09, -1.0344630150911543e-09).transl(5.8307849318741466e-08, 3.9996052006169205e-08, 0))
hIsland = hIsland.add(rect(6.000000000000001e-09, 6.27748473620271e-10).transl(8.445563373418152e-09, 4e-08, 0))
hIsland = hIsland.add(rect(6.000000000000001e-09, 1.5155385492254116e-09).transl(-3.2252541759896756e-09, 4e-08, 0))
hIsland = hIsland.add(rect(6.000000000000001e-09, 1.7544680390869003e-09).transl(3.730809492507616e-09, 4e-08, 0))
hIsland = hIsland.add(rect(6.000000000000001e-09, 5.952834371701986e-10).transl(3.5675113970398604e-08, 4e-08, 0))
hIsland = hIsland.add(rect(6.000000000000001e-09, 1.2632616365010098e-09).transl(2.624398104720482e-08, 4e-08, 0))
hIsland = hIsland.add(rect(6.000000000000001e-09, 1.1444317206067061e-09).transl(-5.163980639542288e-08, 4e-08, 0))
hIsland = hIsland.sub(rect(6.000000000000001e-09, -1.904719428418138e-09).transl(-1.1477977029024314e-07, 3.4975406880153702e-09, 0))
hIsland = hIsland.add(rect(6.000000000000001e-09, 1.1544785302826008e-10).transl(-6.073898115677104e-08, 3.993648795849731e-08, 0))
vIsland := hIsland.rotz(pi / 2)
vIslands := Universe().Inverse()
hIslands := Universe().Inverse()
hIslands = hIslands.add(hIsland.transl(-a/2, a, 0))
hIslands = hIslands.add(hIsland.transl(-a/2, -a, 0))
hIslands = hIslands.add(hIsland.transl(a/2, a, 0))
hIslands = hIslands.add(hIsland.transl(a/2, -a, 0))
hIslands = hIslands.add(hIsland.transl(-a/2, 0, 0))
hIslands = hIslands.add(hIsland.transl(a/2, 0, 0))
vIslands = vIslands.add(vIsland.transl(-a, a/2, 0))
vIslands = vIslands.add(vIsland.transl(a, a/2, 0))
vIslands = vIslands.add(vIsland.transl(-a, -a/2, 0))
vIslands = vIslands.add(vIsland.transl(a, -a/2, 0))
vIslands = vIslands.add(vIsland.transl(0, a/2, 0))
vIslands = vIslands.add(vIsland.transl(0, -a/2, 0))
DefRegion(1, hIslands)
DefRegion(2, vIslands)
TableAdd(m_full.Region(1))
TableAdd(m_full.Region(2))
setgeom(hIslands.add(vIslands))
save(m)
r2o2 := sqrt(2) / 2
m = RandomMagSeed(4)
B_ext = vector(Bmax*r2o2, Bmax*r2o2, 0)
relax()
minimize()
for B := Bmax; B >= -Bmax; B -= Bstep {
	B_ext = vector(B*r2o2, B*r2o2, 0)
	minimize()
	tablesave()
}
//********************************************************************//
//Please cite the following references, relevant for your simulation. //
//See bibtex file in output folder for justification.                 //
//********************************************************************//
//   * Exl et al., J. Appl. Phys. 115, 17D118 (2014).
//   * Vansteenkiste et al., AIP Adv. 4, 107133 (2014).
