# t (s)	mx ()	my ()	mz ()	B_extx (T)	B_exty (T)	B_extz (T)	m_fullx (A/m)	m_fully (A/m)	m_fullz (A/m)	m_full.region1x (A/m)	m_full.region1y (A/m)	m_full.region1z (A/m)	m_full.region2x (A/m)	m_full.region2y (A/m)	m_full.region2z (A/m)
0	0.6919715	0.6919742	-7.0438894e-10	0.07071094	0.07071094	0	30811.953	30812.074	-3.2307944e-05	552423.2	416339.5	-0.0005049127	416336.9	552424.4	-0.0005731441
0	0.69189763	0.69189775	-6.1329014e-10	0.07035709	0.07035709	0	30808.662	30808.668	-2.7045357e-05	552620.1	416037.16	-0.00038209607	416036.62	552619.6	-0.00048444324
0	0.6918178	0.69181776	-2.1635965e-10	0.07000352	0.07000352	0	30805.11	30805.11	-8.626302e-06	552832.1	415713.2	-0.00021151747	415712.8	552831.7	-6.823144e-05
0	0.6917367	0.6917365	-5.9620914e-10	0.069650024	0.069650024	0	30801.494	30801.494	-2.7398004e-05	553047.25	415384.44	-0.00047762008	415384.03	553046.75	-0.00041621178
0	0.69165534	0.6916553	-5.50253e-10	0.06929648	0.06929648	0	30797.877	30797.871	-2.4088542e-05	553261.44	415056.5	-0.00033433406	415056.03	553260.9	-0.00042985808
0	0.6915728	0.69157267	-4.3475276e-10	0.06894301	0.06894301	0	30794.197	30794.19	-1.7496744e-05	553478.4	414723.88	-0.00028657206	414723.47	553477.94	-0.00030021835
0	0.6914898	0.69148976	-5.1324417e-10	0.068589404	0.068589404	0	30790.51	30790.504	-2.1891276e-05	553695.75	414390.47	-0.00033433406	414390.1	553695.2	-0.00039574236
0	0.6914057	0.6914056	-6.978819e-10	0.06823558	0.06823558	0	30786.76	30786.752	-3.1222873e-05	553915.75	414052.6	-0.00054585154	414052.25	553915.1	-0.0004503275
0	0.6913207	0.69132054	-5.6448723e-10	0.06788239	0.06788239	0	30782.973	30782.969	-2.4875217e-05	554137.4	413712.03	-0.00045715066	413711.72	554136.75	-0.00040938865
0	0.6912333	0.69123316	-6.962551e-10	0.06752857	0.06752857	0	30779.082	30779.076	-2.935113e-05	554364.9	413362.1	-0.00061408296	413361.7	554364.4	-0.00040938865
0	0.6911484	0.6911482	-4.3190593e-10	0.06717496	0.06717497	0	30775.299	30775.297	-1.977539e-05	554583.9	413024.22	-0.00030021835	413023.84	554583.25	-0.0003411572
0	0.691061	0.69106084	-4.9860327e-10	0.06682185	0.06682184	0	30771.414	30771.402	-2.2813585e-05	554808.44	412677.28	-0.0004503275	412676.94	554807.9	-0.00028657206
0	0.6909727	0.6909725	-3.1640565e-10	0.06646805	0.06646805	0	30767.477	30767.467	-1.3563368e-05	555035.6	412326.44	-0.0002456332	412326.2	555035	-0.00018422489
0	0.6908832	0.690883	-6.702269e-10	0.06611443	0.06611443	0	30763.492	30763.484	-3.076172e-05	555265.4	411971.34	-0.0005117358	411971.03	555264.8	-0.0005390284
0	0.69079334	0.6907931	-8.581182e-10	0.0657609	0.06576091	0	30759.492	30759.484	-3.773329e-05	555494.56	411616.44	-0.00066866813	411616.1	555493.94	-0.0005594978
0	0.69070244	0.6907023	-6.0678307e-10	0.06540744	0.06540744	0	30755.445	30755.436	-2.57704e-05	555725.5	411258.25	-0.0004025655	411257.9	555724.9	-0.0004503275
0	0.69061035	0.6906101	-7.426179e-10	0.065053925	0.065053925	0	30751.342	30751.332	-3.298611e-05	555959.2	410895.75	-0.0005594978	410895.38	555958.5	-0.00051855895
0	0.6905173	0.6905172	-5.5472665e-10	0.064700276	0.064700276	0	30747.203	30747.193	-2.4549696e-05	556194.1	410530.4	-0.00042303494	410530.1	556193.56	-0.0003889192
0	0.6904235	0.69042325	-3.6114167e-10	0.06434652	0.06434652	0	30743.025	30743.016	-1.5923393e-05	556430.2	410163	-0.00021834062	410162.72	556429.5	-0.0002797489
0	0.690329	0.6903288	-2.1066598e-10	0.06399329	0.06399329	0	30738.816	30738.809	-8.300782e-06	556667.06	409793.84	-0.00014328603	409793.56	556666.44	-0.0001228166
0	0.690233	0.6902327	-3.8228962e-10	0.06363954	0.06363954	0	30734.543	30734.531	-1.7279732e-05	556907.1	409419.47	-0.00030704148	409419.1	556906.56	-0.00025245635
0	0.6901361	0.6901358	-5.799415e-10	0.06328588	0.06328588	0	30730.227	30730.21	-2.4956596e-05	557148.7	409042.12	-0.00047079695	409041.84	557147.94	-0.0003411572
0	0.69003844	0.6900382	-8.7438584e-10	0.06293275	0.06293275	0	30725.88	30725.867	-3.8547092e-05	557390.7	408663.5	-0.000709607	408663.2	557390	-0.0005867904
0	0.6899396	0.6899394	-6.3525146e-10	0.06257901	0.06257901	0	30721.479	30721.469	-2.8238932e-05	557635.06	408280.72	-0.0005390284	408280.38	557634.44	-0.00038209607
0	0.68983996	0.68983966	-1.8138423e-10	0.06222535	0.06222535	0	30717.04	30717.023	-9.521485e-06	557880.56	407895.66	-0.00013646288	407895.38	557879.8	-0.00010917031
0	0.6897387	0.6897384	-4.5386725e-10	0.061871786	0.061871786	0	30712.53	30712.52	-1.961263e-05	558129.4	407505.06	-0.00038209607	407504.78	558128.75	-0.00030021835
0	0.68963677	0.6896364	-4.55494e-10	0.061518393	0.061518393	0	30707.99	30707.979	-1.953125e-05	558378.6	407113.12	-0.0003275109	407112.84	558377.94	-0.00033433406
0	0.68953407	0.68953365	-6.092232e-10	0.06116484	0.06116484	0	30703.416	30703.402	-2.6991102e-05	558628.6	406719.38	-0.0005253821	406719.12	558627.9	-0.00036844978
0	0.6894296	0.68942916	-6.1003663e-10	0.06081115	0.06081115	0	30698.762	30698.748	-2.7859158e-05	558882.56	406319.12	-0.00051855895	406318.88	558881.7	-0.00037527294
0	0.6893243	0.689324	-3.741558e-10	0.060457446	0.060457446	0	30694.088	30694.066	-1.6438802e-05	559135.4	405919.03	-0.00031386464	405918.78	559134.56	-0.00022516375
0	0.68921834	0.689218	-7.572588e-10	0.0601042	0.0601042	0	30689.357	30689.344	-3.2958986e-05	559391.8	405514.12	-0.00051855895	405513.9	559391	-0.00054585154
0	0.6891107	0.68911034	-4.1319814e-10	0.0597505	0.05975051	0	30684.564	30684.547	-1.8012153e-05	559650.1	405105.06	-0.00023881004	405104.84	559649.4	-0.00034798036
0	0.6890021	0.68900174	-7.174031e-10	0.059396803	0.05939681	0	30679.732	30679.715	-3.1792533e-05	559909.44	404693.7	-0.0006004367	404693.5	559908.75	-0.0004025655
0	0.68889207	0.6888917	-2.1961319e-10	0.059043653	0.059043653	0	30674.838	30674.82	-1.0253906e-05	560170	404279.25	-0.00025245635	404279	560169.2	-6.823144e-05
0	0.68878114	0.6887807	-6.3118455e-10	0.05868998	0.05868998	0	30669.89	30669.873	-2.7967664e-05	560434.7	403859.1	-0.0005731441	403858.9	560433.94	-0.00036162665
0	0.688669	0.68866855	-4.7176163e-10	0.058336258	0.05833627	0	30664.896	30664.88	-2.0073785e-05	560699.5	403437.28	-0.00032068777	403437.1	560698.7	-0.00031386464
0	0.68855566	0.68855524	-5.335787e-10	0.057982646	0.057982646	0	30659.854	30659.832	-2.3546007e-05	560966.06	403012.03	-0.00042303494	403011.8	560965.2	-0.00037527294
0	0.68844086	0.6884404	-2.1066598e-10	0.057629354	0.057629354	0	30654.742	30654.72	-8.626302e-06	561235.1	402582.22	-0.00014328603	402582	561234.25	-0.00016375545
0	0.68832487	0.68832433	-6.075965e-10	0.057275724	0.057275724	0	30649.574	30649.55	-2.6801215e-05	561505.9	402149.1	-0.00043668124	402148.94	561505.06	-0.00045715066
0	0.68820757	0.6882071	-6.710403e-10	0.05692201	0.05692201	0	30644.352	30644.334	-3.0381945e-05	561778.3	401712.47	-0.0005117358	401712.25	561777.44	-0.0004639738
0	0.68808955	0.688089	-5.4415267e-10	0.056568373	0.056568373	0	30639.098	30639.076	-2.4576822e-05	562051.3	401274.25	-0.00041621178	401274.1	562050.4	-0.00036844978
0	0.6879702	0.6879696	-8.8821334e-10	0.056215096	0.0562151	0	30633.785	30633.756	-3.889974e-05	562326.25	400832.16	-0.0006959607	400832.03	562325.3	-0.00056632096
0	0.6878467	0.6878462	-7.6539264e-10	0.055861473	0.055861473	0	30628.285	30628.264	-3.4884983e-05	562611.2	400374.38	-0.0006481987	400374.28	562610.2	-0.00049808953
0	0.68772423	0.6877237	-2.9281758e-10	0.05550772	0.05550772	0	30622.826	30622.805	-1.2424045e-05	562891.1	399922.9	-0.00025245635	399922.8	562890.25	-0.0001228166
0	0.68760216	0.6876016	-9.882594e-10	0.055154555	0.055154555	0	30617.396	30617.377	-4.3457032e-05	563167.25	399475.97	-0.00076419214	399475.8	563166.4	-0.0007232533
0	0.68747747	0.6874768	-6.0027605e-10	0.05480093	0.05480093	0	30611.844	30611.814	-2.6041667e-05	563450	399018.53	-0.00034798036	399018.44	563449	-0.00048444324
0	0.68735063	0.68735	-8.255829e-10	0.05444718	0.05444718	0	30606.193	30606.168	-3.6566842e-05	563736.4	398554.62	-0.00068913755	398554.5	563735.4	-0.0005117358
0	0.6872206	0.68721986	-3.4894096e-10	0.05409356	0.054093566	0	30600.402	30600.377	-1.5896267e-05	564030.1	398078.8	-0.0002933952	398078.7	564029.06	-0.00021151747
0	0.68709314	0.6870924	-5.9539573e-10	0.053740263	0.053740263	0	30594.73	30594.7	-2.7289496e-05	564313.56	397616.84	-0.0003411572	397616.78	564312.56	-0.0005526747
0	0.6869623	0.68696153	-7.8247364e-10	0.05338664	0.053386644	0	30588.902	30588.871	-3.6024307e-05	564605.1	397142.1	-0.0005594978	397142.03	564604.06	-0.0005799672
0	0.68682766	0.68682694	-3.961171e-10	0.053032923	0.053032923	0	30582.912	30582.88	-1.671007e-05	564905	396653.84	-0.00031386464	396653.78	564903.94	-0.00025245635
0	0.6866954	0.6866947	-6.303712e-10	0.052679308	0.052679308	0	30577.02	30576.988	-2.8157552e-05	565195.6	396178.03	-0.0005253821	396177.97	565194.56	-0.00047079695
0	0.68656045	0.6865597	-5.5554e-10	0.052325994	0.052325994	0	30571.012	30570.98	-2.5444879e-05	565492.3	395692.38	-0.0005390284	395692.3	565491.25	-0.0002319869
0	0.68642324	0.68642247	-8.3697027e-10	0.051972385	0.051972385	0	30564.902	30564.867	-3.7163627e-05	565792.44	395200.12	-0.0006823144	395200.12	565791.3	-0.0005322052
0	0.68628454	0.6862837	-4.961631e-10	0.05161864	0.05161864	0	30558.727	30558.688	-2.2243923e-05	566094.8	394703.38	-0.00040938865	394703.44	566093.8	-0.00032068777
0	0.68614465	0.6861439	-5.5716676e-10	0.051265452	0.051265452	0	30552.494	30552.463	-2.4468316e-05	566398.06	394204.4	-0.0005594978	394204.4	566396.94	-0.00023881004
0	0.68600285	0.68600196	-6.7754735e-10	0.050911836	0.050911836	0	30546.184	30546.14	-3.000217e-05	566704.06	393699.8	-0.00054585154	393699.84	566702.94	-0.00044350437
0	0.6858587	0.68585795	-2.8143024e-10	0.050558098	0.050558098	0	30539.77	30539.727	-1.3400608e-05	567013.94	393188.25	-0.0002797489	393188.3	567012.8	-0.00014328603
0	0.68571407	0.6857132	-7.5807216e-10	0.050204493	0.050204493	0	30533.322	30533.283	-3.342014e-05	567323	392676.66	-0.0005799672	392676.72	567321.8	-0.00048444324
0	0.68556505	0.6855641	-7.239101e-10	0.049851164	0.049851164	0	30526.688	30526.648	-3.1629774e-05	567641.6	392149.28	-0.00056632096	392149.34	567640.44	-0.0004639738
0	0.68541646	0.6854155	-8.019948e-10	0.049497556	0.049497556	0	30520.07	30520.03	-3.6621095e-05	567956.25	391626.72	-0.000709607	391626.78	567955.06	-0.00054585154
0	0.685268	0.68526703	-7.027622e-10	0.049143843	0.049143843	0	30513.46	30513.422	-3.282335e-05	568268.25	391106.97	-0.0004639738	391107.03	568267	-0.0005594978
0	0.68511635	0.6851154	-7.775933e-10	0.048790246	0.048790246	0	30506.709	30506.666	-3.4939236e-05	568585.6	390577.22	-0.0006550218	390577.34	568584.4	-0.0005117358
0	0.68496245	0.6849615	-9.467769e-10	0.04843689	0.04843689	0	30499.857	30499.812	-4.1775173e-05	568907.56	390039.7	-0.0007505459	390039.88	568906.3	-0.00066866813
0	0.6848071	0.684806	-3.0745845e-10	0.048083298	0.048083298	0	30492.936	30492.889	-1.3780382e-05	569230.56	389499.12	-0.00025927948	389499.3	569229.3	-0.00015010918
0	0.68464917	0.6846481	-7.352975e-10	0.047729567	0.047729567	0	30485.902	30485.86	-3.282335e-05	569557.2	388951.47	-0.0006004367	388951.6	569555.9	-0.0004912664
0	0.6844876	0.68448645	-3.3836697e-10	0.047376346	0.047376346	0	30478.713	30478.664	-1.5245226e-05	569891	388391.44	-0.00030704148	388391.66	569889.7	-0.00018422489
0	0.6843286	0.68432754	-6.5233247e-10	0.04702275	0.04702275	0	30471.637	30471.584	-2.8374567e-05	570214.9	387845	-0.00043668124	387845.2	570213.56	-0.00051855895
0	0.68416303	0.68416196	-8.198892e-10	0.04666901	0.04666901	0	30464.264	30464.213	-3.7109374e-05	570553.7	387274.4	-0.0006345524	387274.7	570552.3	-0.0005799672
0	0.6840001	0.68399894	-3.416205e-10	0.046315428	0.046315428	0	30457.006	30456.95	-1.5028212e-05	570882.75	386717.2	-0.00032068777	386717.4	570881.3	-0.00015010918
0	0.6838327	0.6838316	-4.2458548e-10	0.04596205	0.04596205	0	30449.555	30449.5	-1.719835e-05	571220.3	386145.34	-0.00033433406	386145.62	571218.8	-0.00020469433
0	0.68366385	0.6836627	-4.197052e-10	0.045608465	0.045608465	0	30442.037	30441.984	-1.7415365e-05	571559.1	385570.03	-0.00031386464	385570.34	571557.7	-0.0002661026
0	0.6834925	0.6834912	-7.352975e-10	0.045254763	0.045254767	0	30434.404	30434.346	-3.200955e-05	571901.8	384987.38	-0.0006481987	384987.66	571900.3	-0.00042303494
0	0.68331945	0.68331826	-9.532839e-10	0.04490118	0.04490118	0	30426.7	30426.639	-4.215495e-05	572245.25	384401.75	-0.0007437227	384402.1	572243.75	-0.0006550218
0	0.6831416	0.68314034	-5.0429694e-10	0.04454779	0.04454779	0	30418.777	30418.717	-2.2460938e-05	572597.94	383799.94	-0.00034798036	383800.3	572596.44	-0.00039574236
0	0.6829666	0.68296534	-3.4487405e-10	0.044194214	0.044194214	0	30410.986	30410.926	-1.5570746e-05	572940.2	383212.72	-0.0002661026	383213.1	572938.6	-0.00022516375
0	0.6827844	0.68278295	-5.38459e-10	0.043840483	0.043840483	0	30402.87	30402.805	-2.5282117e-05	573298.6	382599.06	-0.00049808953	382599.44	573297.1	-0.0003275109
0	0.68260515	0.6826038	-6.2793104e-10	0.0434869	0.0434869	0	30394.89	30394.83	-2.701823e-05	573645.06	382001.7	-0.00044350437	382002.12	573643.5	-0.0004503275
0	0.682421	0.68241966	-4.0831785e-10	0.043133657	0.04313366	0	30386.695	30386.63	-1.763238e-05	574001.94	381387.2	-0.00039574236	381387.6	574000.3	-0.00019104804
0	0.68223476	0.68223333	-7.9548773e-10	0.042779926	0.04277993	0	30378.396	30378.336	-3.564453e-05	574360.4	380767.84	-0.0007027838	380768.3	574358.8	-0.00048444324
0	0.68204594	0.6820445	-3.237261e-10	0.042426355	0.042426355	0	30369.99	30369.924	-1.3563368e-05	574721.9	380142.06	-0.0002933952	380142.6	574720.25	-0.00021151747
0	0.6818521	0.6818506	-4.8152227e-10	0.042072944	0.042072944	0	30361.357	30361.291	-2.0562065e-05	575092.5	379500	-0.0004025655	379500.5	575090.8	-0.00032068777
0	0.68165874	0.68165714	-4.961631e-10	0.041719373	0.04171937	0	30352.75	30352.676	-2.2840712e-05	575458.2	378863.53	-0.00042985808	378864.03	575456.5	-0.00034798036
0	0.68146485	0.68146324	-6.165437e-10	0.041365683	0.041365687	0	30344.117	30344.047	-2.8320312e-05	575822.4	378227.84	-0.0006277293	378228.47	575820.7	-0.00027292577
0	0.68126476	0.6812631	-5.9539573e-10	0.041012123	0.041012127	0	30335.203	30335.133	-2.8103299e-05	576198.4	377571.66	-0.00056632096	377572.28	576196.6	-0.00034798036
0	0.68106383	0.6810622	-6.5233247e-10	0.040658686	0.040658686	0	30326.262	30326.188	-2.89171e-05	576572.3	376916.56	-0.0005390284	376917.2	576570.56	-0.00044350437
0	0.6808608	0.6808591	-4.148249e-10	0.040305126	0.040305134	0	30317.223	30317.145	-1.7144097e-05	576948.3	376256.22	-0.00031386464	376256.88	576946.56	-0.0002933952
0	0.6806549	0.6806532	-6.1329014e-10	0.03995141	0.03995141	0	30308.049	30307.975	-2.6801215e-05	577327.3	375588.9	-0.00049808953	375589.53	577325.56	-0.00037527294
0	0.68044925	0.6804475	-6.3118455e-10	0.039597858	0.039597858	0	30298.895	30298.816	-2.875434e-05	577702.7	374925.7	-0.0005867904	374926.38	577700.8	-0.0003889192
0	0.68023574	0.6802338	-8.6055835e-10	0.03924457	0.039244566	0	30289.383	30289.305	-3.765191e-05	578093	374236.28	-0.0006959607	374237.03	578091.1	-0.0006004367
0	0.68002194	0.68002003	-5.303252e-10	0.038890846	0.03889085	0	30279.865	30279.783	-2.3491753e-05	578480	373550	-0.0003889192	373550.78	578478.1	-0.0004503275
0	0.6798088	0.6798068	-7.10896e-10	0.038537294	0.038537294	0	30270.371	30270.29	-3.1032985e-05	578862.1	372869.47	-0.0005867904	372870.22	578860.2	-0.00041621178
0	0.67958665	0.6795846	-7.141495e-10	0.03818383	0.03818383	0	30260.48	30260.395	-3.1684027e-05	579261.2	372159.16	-0.0006004367	372160	579259.25	-0.0004912664
0	0.67936486	0.67936283	-4.3109255e-10	0.037830286	0.037830282	0	30250.605	30250.514	-1.8337674e-05	579655.7	371454.12	-0.00044350437	371455.06	579653.7	-0.00017740174
0	0.67914003	0.67913795	-5.6448723e-10	0.037476562	0.037476562	0	30240.598	30240.506	-2.5282117e-05	580052.75	370742.53	-0.00038209607	370743.44	580050.75	-0.00044350437
0	0.6789126	0.6789105	-2.3100054e-10	0.03712307	0.037123065	0	30230.47	30230.379	-8.246528e-06	580452.7	370024.12	-0.00028657206	370025.06	580450.6	1.3646289e-05
0	0.6786822	0.67868006	-7.434313e-10	0.036769573	0.036769573	0	30220.209	30220.117	-3.3311633e-05	580855.5	369298.66	-0.0006072598	369299.6	580853.44	-0.0005049127
0	0.67845184	0.67844963	-9.581642e-10	0.03641605	0.036416046	0	30209.95	30209.855	-4.2426214e-05	581252.94	368578.72	-0.0007914847	368579.7	581250.9	-0.0006481987
0	0.67821485	0.67821264	-1.6592996e-10	0.03606233	0.03606233	0	30199.398	30199.299	-7.0529513e-06	581663.75	367836.03	-0.00025245635	367837.1	581661.6	-2.0469432e-05
0	0.6779731	0.6779708	-3.7090225e-10	0.035708807	0.035708807	0	30188.633	30188.533	-1.6276043e-05	582079.75	367081.56	-0.00030021835	367082.6	582077.56	-0.0002319869
0	0.6777306	0.67772824	-5.17311e-10	0.035355475	0.03535547	0	30177.834	30177.734	-2.3763021e-05	582493.25	366328.5	-0.00042303494	366329.56	582491.1	-0.00038209607
0	0.6774849	0.6774825	-9.2725566e-10	0.03500176	0.03500176	0	30166.895	30166.787	-4.079861e-05	582909.7	365568	-0.0007232533	365569.16	582907.5	-0.00066184497
0	0.677236	0.6772336	-4.7176163e-10	0.034648236	0.03464824	0	30155.814	30155.709	-2.1375869e-05	583328.8	364800.4	-0.00036162665	364801.62	583326.56	-0.00033433406
0	0.67698765	0.6769851	-5.7587457e-10	0.034294706	0.034294702	0	30144.758	30144.646	-2.6475695e-05	583743.2	364038.28	-0.00042985808	364039.47	583741.06	-0.00044350437
0	0.6767288	0.6767263	-7.987413e-10	0.033941194	0.033941194	0	30133.23	30133.12	-3.5047742e-05	584175.3	363243.78	-0.0006823144	363245	584173.06	-0.00051855895
0	0.6764737	0.6764712	-8.3615687e-10	0.03358748	0.033587486	0	30121.873	30121.756	-3.6783855e-05	584595.56	362466.44	-0.00073689956	362467.75	584593.2	-0.00049808953
0	0.6762118	0.67620915	-2.8631053e-10	0.033234026	0.033234026	0	30110.207	30110.088	-1.2912326e-05	585026	361669.16	-0.00023881004	361670.5	585023.7	-0.00021151747
0	0.6759429	0.6759403	-7.157763e-10	0.03288045	0.032880455	0	30098.24	30098.12	-3.298611e-05	585466.2	360852.56	-0.0005594978	360853.97	585463.75	-0.0005117358
0	0.67567796	0.67567515	-6.653466e-10	0.032526962	0.032526962	0	30086.436	30086.318	-2.875434e-05	585894.06	360053.66	-0.0005799672	360055.1	585891.7	-0.00038209607
0	0.67540175	0.675399	-6.83241e-10	0.03217326	0.03217326	0	30074.14	30074.016	-2.8971353e-05	586340.94	359220.03	-0.0005322052	359221.5	586338.56	-0.00047079695
0	0.67512584	0.6751229	-5.970225e-10	0.03181977	0.03181977	0	30061.852	30061.725	-2.5499132e-05	586782.8	358391.88	-0.0005049127	358393.34	586780.3	-0.00037527294
0	0.6748507	0.6748478	-4.929096e-10	0.031466372	0.031466376	0	30049.6	30049.469	-2.202691e-05	587217.94	357571.34	-0.0004639738	357573	587215.5	-0.00027292577
0	0.6745631	0.67456007	-7.206566e-10	0.031112675	0.031112675	0	30036.793	30036.664	-3.3311633e-05	587674.9	356711.8	-0.0006550218	356713.47	587672.3	-0.00044350437
0	0.67427635	0.67427325	-6.2793104e-10	0.030759197	0.030759197	0	30024.025	30023.893	-2.9188368e-05	588124.9	355860.28	-0.0004912664	355862	588122.3	-0.0004639738
0	0.6739856	0.67398244	-5.93769e-10	0.030405575	0.030405575	0	30011.08	30010.941	-2.5282117e-05	588578.44	354999.6	-0.00054585154	355001.3	588575.75	-0.0003275109
0	0.67369384	0.67369074	-5.3683225e-10	0.0300521	0.0300521	0	29998.09	29997.951	-2.311198e-05	589029	354140.7	-0.0005117358	354142.47	589026.3	-0.0002319869
0	0.67339265	0.6733894	-7.808469e-10	0.029698402	0.029698405	0	29984.68	29984.533	-3.548177e-05	589493.56	353254.3	-0.0006823144	353256.12	589490.8	-0.0005049127
0	0.67309356	0.6730903	-2.4076113e-10	0.02934499	0.02934499	0	29971.36	29971.21	-1.2369792e-05	589949.3	352379.78	-0.00018422489	352381.66	589946.6	-0.00015693232
0	0.672784	0.67278063	-7.483116e-10	0.028991323	0.028991323	0	29957.574	29957.426	-3.4179688e-05	590420.4	351475.2	-0.00061408296	351477.1	590417.6	-0.0005390284
0	0.6724735	0.67247015	-7.418045e-10	0.028637866	0.028637866	0	29943.754	29943.598	-3.3528646e-05	590888.25	350572.7	-0.00066184497	350574.7	590885.5	-0.0004503275
0	0.6721585	0.67215496	-3.643952e-10	0.028284186	0.028284186	0	29929.72	29929.568	-1.6818576e-05	591359.4	349660.44	-0.00040938865	349662.53	591356.56	-0.00013646288
0	0.67184037	0.6718367	-5.563534e-10	0.027930735	0.027930735	0	29915.553	29915.396	-2.5282117e-05	591833	348741.25	-0.0005390284	348743.38	591830.06	-0.0002797489
0	0.6715208	0.67151713	-2.0822584e-10	0.027577277	0.027577277	0	29901.33	29901.166	-1.0199653e-05	592301.94	347825.03	-0.0001705786	347827.2	592299	-0.0001705786
0	0.6711899	0.6711862	-5.140575e-10	0.02722359	0.027223593	0	29886.596	29886.428	-2.1809896e-05	592789.75	346873.9	-0.00043668124	346876.16	592786.75	-0.00030704148
0	0.670858	0.67085415	-5.7262106e-10	0.026870133	0.026870131	0	29871.814	29871.645	-2.452257e-05	593272.75	345926.2	-0.00051855895	345928.5	593269.7	-0.00031386464
0	0.67052215	0.67051834	-6.474522e-10	0.026516462	0.026516462	0	29856.861	29856.69	-2.8971353e-05	593758.44	344970.34	-0.0005049127	344972.72	593755.25	-0.0004503275
0	0.6701856	0.6701817	-5.0104343e-10	0.026162997	0.026162997	0	29841.877	29841.703	-2.170139e-05	594238.7	344018.78	-0.00049808953	344021.22	594235.56	-0.00025245635
0	0.6698366	0.66983247	-6.572128e-10	0.025809322	0.025809322	0	29826.332	29826.154	-2.9947916e-05	594738.8	343029.84	-0.00056632096	343032.3	594735.75	-0.0004503275
0	0.6694858	0.66948175	-4.685081e-10	0.025455918	0.025455918	0	29810.717	29810.531	-1.985677e-05	595234.6	342043	-0.00047079695	342045.56	595231.44	-0.00020469433
0	0.66913617	0.6691319	-4.6525458e-10	0.025102247	0.025102247	0	29795.145	29794.957	-1.953125e-05	595724.9	341063	-0.00040938865	341065.62	595721.6	-0.0002797489
0	0.66877294	0.6687687	-5.7262106e-10	0.024748778	0.024748778	0	29778.973	29778.781	-2.484809e-05	596232.75	340046.7	-0.0006004367	340049.38	596229.44	-0.0002319869
0	0.6684088	0.66840446	-2.732964e-10	0.024395123	0.024395123	0	29762.762	29762.566	-1.0850695e-05	596736.6	339032.97	-0.00031386464	339035.66	596733.3	-0.00010234716
0	0.66803986	0.66803545	-6.7348044e-10	0.024041647	0.024041649	0	29746.33	29746.133	-2.983941e-05	597243.75	338009.25	-0.0005049127	338012.06	597240.3	-0.00047762008
0	0.66767025	0.66766566	-1.4966232e-10	0.023688173	0.023688173	0	29729.871	29729.672	-5.859375e-06	597746.4	336989.06	-0.00023881004	336991.94	597743	2.7292577e-05
0	0.66729224	0.66728765	-8.0362156e-10	0.023334505	0.023334505	0	29713.04	29712.832	-3.580729e-05	598258	335948.1	-0.00077442685	335951.1	598254.5	-0.00036162665
0	0.66690266	0.6668981	-4.6525458e-10	0.022981027	0.022981027	0	29695.695	29695.484	-2.3220486e-05	598783.2	334877.5	-0.00047762008	334880.56	598779.6	-0.00027292577
0	0.6665133	0.6665086	-4.7176163e-10	0.022627382	0.022627382	0	29678.357	29678.145	-2.0073785e-05	599302.4	333813.16	-0.0004025655	333816.25	599298.8	-0.00028657206
0	0.66611874	0.6661138	-3.3511344e-10	0.022273894	0.022273894	0	29660.785	29660.566	-1.6276043e-05	599824.94	332738.06	-0.00041280023	332741.28	599821.4	-8.1877726e-05
0	0.6657188	0.6657138	-8.263963e-10	0.021920241	0.021920241	0	29642.977	29642.758	-3.7434897e-05	600350.4	331652.53	-0.000685726	331655.8	600346.75	-0.00049808953
0	0.6653132	0.6653081	-8.1012863e-10	0.021566829	0.02156683	0	29624.914	29624.691	-3.580729e-05	600879.3	330555.78	-0.0006925491	330559.16	600875.56	-0.0005049127
0	0.6649022	0.6648971	-5.465928e-10	0.021213178	0.021213178	0	29606.621	29606.39	-2.4739584e-05	601410.8	329448.88	-0.00049808953	329452.3	601407.2	-0.00027292577
0	0.66448563	0.6644804	-7.613257e-10	0.020859685	0.020859687	0	29588.068	29587.836	-3.3094617e-05	601945.75	328330.56	-0.0007027838	328334.12	601941.94	-0.00040938865
0	0.6640633	0.6640579	-6.572128e-10	0.020506062	0.020506063	0	29569.258	29569.021	-2.875434e-05	602483.94	327200.97	-0.00058337883	327204.6	602480.2	-0.00037527294
0	0.6636351	0.6636296	-5.205646e-10	0.020152563	0.020152563	0	29550.195	29549.951	-2.2352431e-05	603025.2	326060.28	-0.0004639738	326063.97	603021.25	-0.00030704148
0	0.66320074	0.66319513	-9.337627e-10	0.019798929	0.019798929	0	29530.854	29530.607	-3.9822047e-05	603569.8	324907.38	-0.00078125	324911.22	603565.94	-0.00056632096
0	0.6627617	0.662756	-5.596069e-10	0.019445423	0.019445423	0	29511.303	29511.055	-2.4414063e-05	604116.56	323745.88	-0.0005390284	323749.78	604112.56	-0.00030704148
0	0.6623153	0.6623096	-6.2142397e-10	0.019091915	0.019091915	0	29491.428	29491.172	-2.7886284e-05	604667.6	322569.78	-0.0006447871	322573.8	604663.56	-0.00025245635
0	0.6618637	0.6618579	-6.83241e-10	0.018738281	0.018738281	0	29471.318	29471.059	-3.092448e-05	605221	321384.06	-0.0006754913	321388.12	605217	-0.0003411572
0	0.6614049	0.66139895	-4.7176163e-10	0.018384786	0.018384786	0	29450.89	29450.625	-1.9748264e-05	605778.5	320184.2	-0.00038550765	320188.38	605774.4	-0.00022516375
0	0.66093946	0.66093343	-5.8563515e-10	0.018031165	0.018031165	0	29430.168	29429.898	-2.7452257e-05	606339.44	318971.62	-0.0004400928	318975.94	606335.1	-0.00047762008
0	0.6604758	0.6604698	-9.500304e-10	0.017677736	0.017677737	0	29409.52	29409.246	-4.1341147e-05	606892.6	317769.22	-0.00083242357	317773.56	606888.3	-0.0005867904
0	0.65999675	0.65999055	-5.563534e-10	0.01732412	0.01732412	0	29388.191	29387.91	-2.3980036e-05	607461.44	316529.6	-0.00045373908	316534.1	607457.06	-0.00036162665
0	0.6595083	0.65950185	-5.303252e-10	0.016970597	0.016970597	0	29366.44	29366.15	-2.3654515e-05	608037.8	315269.25	-0.0004912664	315273.84	608033.44	-0.00028657206
0	0.6590216	0.6590151	-1.0606503e-09	0.016617013	0.016617013	0	29344.766	29344.479	-4.8394097e-05	608604.56	314021.03	-0.00088700873	314025.72	608600.06	-0.0007437227
0	0.65851974	0.6585131	-7.38551e-10	0.016263481	0.016263481	0	29322.422	29322.129	-3.2769098e-05	609187	312735.9	-0.0006550218	312740.7	609182.56	-0.00044350437
0	0.65801513	0.65800834	-8.8821334e-10	0.015909884	0.015909884	0	29299.951	29299.65	-4.1232637e-05	609766.44	311449.72	-0.0007061954	311454.6	609762	-0.00066184497
0	0.65750337	0.6574966	-3.0257816e-10	0.015556337	0.015556337	0	29277.164	29276.857	-1.25868055e-05	610349.4	310150.38	-0.00025927948	310155.38	610344.8	-0.00018422489
0	0.6569914	0.65698457	-4.5874754e-10	0.015202788	0.015202788	0	29254.367	29254.059	-1.9097222e-05	610925.75	308857.2	-0.00051855895	308862.28	610921.1	-0.0001228166
0	0.6564631	0.656456	-6.084099e-10	0.014849201	0.014849201	0	29230.844	29230.527	-2.7126736e-05	611518.3	307524.7	-0.0005492631	307529.94	611513.7	-0.0003275109
0	0.65592515	0.65591794	-5.335787e-10	0.0144956615	0.0144956615	0	29206.89	29206.57	-2.3003473e-05	612117.3	306172.56	-0.0003786845	306177.88	612112.7	-0.00038209607
0	0.6553842	0.6553768	-4.5874754e-10	0.014142093	0.014142093	0	29182.8	29182.47	-1.9965279e-05	612713.2	304819.1	-0.00041962336	304824.56	612708.4	-0.00025245635
0	0.65484244	0.65483505	-6.604663e-10	0.013788639	0.013788639	0	29158.68	29158.346	-3.125e-05	613302.8	303471	-0.0006243177	303476.6	613298	-0.00043668124
0	0.6542796	0.654272	-5.8563515e-10	0.013435066	0.013435066	0	29133.617	29133.28	-2.5607638e-05	613914.75	302071	-0.0004878548	302076.7	613909.94	-0.00036162665
0	0.6537205	0.6537128	4.55494e-11	0.013081498	0.013081498	0	29108.72	29108.379	8.6805557e-07	614512.5	300690.34	-6.8231443e-06	300696.16	614507.6	6.14083e-05
0	0.65314347	0.65313566	-6.962551e-10	0.012727959	0.012727959	0	29083.025	29082.68	-3.1467014e-05	615129.94	299264.94	-0.0005322052	299270.9	615124.9	-0.0005731441
0	0.6525705	0.6525625	-3.3185993e-10	0.012374389	0.012374389	0	29057.51	29057.154	-1.4322916e-05	615732.56	297859.94	-0.00036162665	297866.03	615727.5	-0.00015010918
0	0.6519812	0.651973	-3.3511344e-10	0.012020824	0.0120208245	0	29031.271	29030.912	-1.5625e-05	616349.94	296417.44	-0.0002661026	296423.7	616344.9	-0.00031386464
0	0.6513775	0.6513692	-5.17311e-10	0.0116672525	0.0116672525	0	29004.39	29004.023	-2.4088542e-05	616978.56	294943.53	-0.0005253821	294949.9	616973.4	-0.00033433406
0	0.65077186	0.6507635	-7.060157e-10	0.011313691	0.011313692	0	28977.424	28977.053	-3.016493e-05	617601.5	293472.53	-0.00058337883	293479.06	617596.3	-0.00038209607
0	0.65015763	0.6501491	-7.9711454e-10	0.010960121	0.010960121	0	28950.072	28949.691	-3.4939236e-05	618228.1	291985.84	-0.000709607	291992.5	618222.8	-0.00048444324
0	0.6495344	0.6495258	-6.084099e-10	0.010606589	0.010606589	0	28922.326	28921.94	-2.799479e-05	618858.1	290483.34	-0.0006209061	290490.1	618852.8	-0.0003275109
0	0.6489022	0.64889324	-6.962551e-10	0.010253031	0.010253032	0	28894.17	28893.78	-2.842882e-05	619492	288964.03	-0.0007403111	288970.97	619486.6	-0.0002456332
0	0.6482681	0.6482591	-7.613257e-10	0.009899464	0.009899464	0	28865.941	28865.54	-3.3203127e-05	620119.94	287448.38	-0.00063114084	287455.44	620114.44	-0.00047762008
0	0.6476157	0.6476065	-7.743398e-10	0.009545958	0.009545958	0	28836.885	28836.48	-3.3637152e-05	620763	285891.7	-0.0005356168	285898.9	620757.5	-0.00059361354
0	0.64694965	0.64694035	-7.1252276e-10	0.009192393	0.009192393	0	28807.227	28806.816	-2.9296874e-05	621414.9	284307.2	-0.00059361354	284314.6	621409.25	-0.0004025655
0	0.6462856	0.6462762	-5.66114e-10	0.008838868	0.008838869	0	28777.664	28777.244	-2.5824653e-05	622055.5	282736.88	-0.00039915394	282744.4	622049.9	-0.00044350437
0	0.6456038	0.6455942	-6.930016e-10	0.008485299	0.008485299	0	28747.305	28746.873	-3.1901043e-05	622709.9	281127.66	-0.00060384825	281135.38	622704.25	-0.0004503275
0	0.6449129	0.64490324	-9.10988e-10	0.008131741	0.008131741	0	28716.54	28716.107	-3.949653e-05	623366.75	279503.47	-0.0008563046	279511.38	623360.94	-0.00051855895
0	0.64420813	0.6441982	-7.38551e-10	0.0077781687	0.0077781687	0	28685.154	28684.713	-3.1901043e-05	624031.75	277851.47	-0.0007437227	277859.53	624026	-0.00036844978
0	0.6435048	0.6434947	-1.1061997e-09	0.0074246004	0.0074246014	0	28653.838	28653.39	-4.969618e-05	624686.25	276212.22	-0.0009381823	276220.4	624680.4	-0.00076419214
0	0.64277494	0.6427647	-9.370162e-10	0.0070710466	0.0070710466	0	28621.338	28620.88	-4.361979e-05	625363.7	274512.8	-0.0008392467	274521.22	625357.7	-0.0005867904
0	0.6420414	0.642031	-6.83241e-10	0.0067175333	0.0067175333	0	28588.68	28588.21	-2.9730903e-05	626036.2	272813.22	-0.0005799672	272821.78	626030.2	-0.00042303494