# t (s)	mx ()	my ()	mz ()	B_extx (T)	B_exty (T)	B_extz (T)	m_fullx (A/m)	m_fully (A/m)	m_fullz (A/m)	m_full.region1x (A/m)	m_full.region1y (A/m)	m_full.region1z (A/m)	m_full.region2x (A/m)	m_full.region2y (A/m)	m_full.region2z (A/m)
0	0.6479576	0.64795595	-7.25863e-10	0.07071097	0.07071097	0	53042.04	53041.906	-6.272607e-05	628788.94	278350.47	-0.00048184648	278351.7	628787.9	-0.00059091335
0	0.64786255	0.6478619	-3.2502434e-10	0.070569366	0.070569366	0	53034.26	53034.207	-2.9881932e-05	628864.2	278143.12	-0.00025201024	278143.47	628863.5	-0.00025903946
0	0.6477648	0.6477643	-4.1206585e-10	0.07042761	0.07042761	0	53026.25	53026.21	-2.6692525e-05	628944.56	277925.9	-0.00024042759	277926.2	628944	-0.00021607592
0	0.6476655	0.6476649	-3.3264744e-10	0.07028633	0.07028633	0	53018.125	53018.074	-3.1933472e-05	629025.4	277706.03	-0.0002596671	277706.28	629024.94	-0.00028646862
0	0.64756584	0.6475653	-1.3951551e-10	0.07014479	0.07014479	0	53009.977	53009.918	-1.3318563e-05	629106.56	277485.28	-3.7772646e-05	277485.62	629106.2	-0.00019000538
0	0.647467	0.6474664	-1.7234039e-10	0.07000352	0.07000352	0	53001.867	53001.824	-1.6862097e-05	629187.94	277265.6	-0.00011339947	277265.88	629187.3	-0.00017498112
0	0.64736754	0.64736706	-2.0814771e-10	0.06986232	0.06986232	0	52993.74	52993.695	-1.402468e-05	629268.5	277045.75	-0.00018764625	277046.03	629268.06	-5.2207994e-05
0	0.6472679	0.64726716	-3.1175845e-10	0.0697207	0.0697207	0	52985.57	52985.523	-2.7143606e-05	629349.3	276825.28	-0.00020470667	276825.62	629348.9	-0.00025951132
0	0.6471674	0.6471667	-2.3271612e-11	0.06957944	0.06957944	0	52977.344	52977.29	2.829064e-06	629430.7	276603.28	8.775944e-06	276603.62	629430.1	3.960755e-05
0	0.6470675	0.6470669	-3.54062e-10	0.0694377	0.0694377	0	52969.176	52969.125	-3.9479368e-05	629512	276382.16	-0.00028008837	276382.47	629511.5	-0.00039509952
0	0.6469669	0.64696634	-4.1112302e-10	0.069296405	0.069296405	0	52960.945	52960.895	-2.924805e-05	629593.1	276160.25	-0.0002572461	276160.5	629592.6	-0.00024296276
0	0.6468663	0.64686584	-2.2585839e-10	0.06915487	0.06915487	0	52952.71	52952.664	-1.4245709e-05	629673.9	275938.7	-8.973003e-05	275938.97	629673.44	-0.00015390432
0	0.6467652	0.6467646	-3.3043918e-10	0.0690136	0.0690136	0	52944.426	52944.375	-2.3533465e-05	629755.6	275715.34	-0.0002515401	275715.6	629755.06	-0.00015093618
0	0.64666444	0.6466639	-3.8773887e-10	0.06887232	0.06887232	0	52936.176	52936.133	-2.5612424e-05	629836.94	275492.97	-0.00031725585	275493.3	629836.44	-0.00012077539
0	0.64656276	0.6465622	-3.837589e-10	0.06873079	0.06873079	0	52927.855	52927.812	-1.8864192e-05	629918.5	275269.06	-0.00014981302	275269.34	629918.06	-0.00017280798
0	0.6464614	0.64646083	-4.316351e-10	0.0685895	0.0685895	0	52919.562	52919.508	-2.5479361e-05	629999.94	275045.7	-0.00014051457	275046	629999.44	-0.00029524104
0	0.6463594	0.6463587	-3.0869604e-10	0.068447776	0.068447776	0	52911.207	52911.156	-3.023821e-05	630081.6	274821.25	-0.00023967736	274821.6	630081.1	-0.00027746547
0	0.6462579	0.6462573	-3.214694e-10	0.0683065	0.0683065	0	52902.9	52902.844	-1.4768681e-05	630162.6	274597.97	-7.5413926e-05	274598.28	630162.2	-0.00017716442
0	0.6461551	0.6461545	-6.513439e-11	0.06816496	0.06816496	0	52894.48	52894.43	-1.3887389e-05	630244.5	274372.3	-0.00015999761	274372.62	630244	-7.750864e-05
0	0.6460532	0.64605254	-3.4755514e-11	0.068023674	0.068023674	0	52886.137	52886.1	-9.857138e-06	630325.9	274148.22	-7.890285e-05	274148.5	630325.44	-8.967684e-05
0	0.64594984	0.6459492	-6.958868e-11	0.067882404	0.067882404	0	52877.676	52877.633	-1.4109413e-06	630408.2	273921.28	-5.6154084e-05	273921.56	630407.6	3.2023745e-05
0	0.6458473	0.6458468	-3.4033598e-10	0.067740865	0.067740865	0	52869.29	52869.24	-3.1141688e-05	630489.6	273696.28	-0.00030060599	273696.6	630489.06	-0.00023198835
0	0.645744	0.64574355	-3.5300024e-10	0.06759956	0.06759956	0	52860.836	52860.79	-3.1416123e-05	630571.25	273470.16	-0.00022903699	273470.47	630570.75	-0.00030825083
0	0.64564073	0.64564013	-9.812606e-11	0.06745787	0.06745787	0	52852.375	52852.332	-9.378997e-06	630653	273243.62	-8.94528e-05	273243.94	630652.56	-7.094959e-05
0	0.6455377	0.6455371	-2.878078e-10	0.067316584	0.067316584	0	52843.938	52843.887	-2.6852122e-05	630734	273018.38	-0.00019426184	273018.72	630733.5	-0.0002649711
0	0.6454333	0.6454327	-3.5014555e-10	0.067174956	0.067174956	0	52835.395	52835.35	-3.0022831e-05	630816.4	272789.94	-0.00017305842	272790.22	630815.8	-0.0003404009
0	0.64532924	0.6453286	-2.0326973e-10	0.06703376	0.06703376	0	52826.875	52826.824	-3.161351e-05	630898.4	272562.16	-0.00026452527	272562.44	630897.9	-0.00027613834
0	0.64522463	0.64522403	-2.6180405e-10	0.06689248	0.06689248	0	52818.32	52818.26	-1.9384428e-05	630980.1	272334	-0.00011891766	272334.38	630979.6	-0.00021260059
0	0.64512	0.6451194	1.4294004e-11	0.06675091	0.06675091	0	52809.758	52809.7	-7.85677e-06	631062.94	272104.75	-0.00011224471	272105.06	631062.3	-2.2124099e-05
0	0.64501595	0.64501536	6.8110725e-11	0.06660963	0.06660963	0	52801.242	52801.188	-1.844264e-06	631144.44	271877.75	-7.169263e-05	271878.06	631143.8	4.015148e-05
0	0.64490885	0.64490825	-3.311117e-10	0.066467956	0.066467956	0	52792.47	52792.418	-2.1971013e-05	631227.75	271644.3	-0.00023205497	271644.66	631227.25	-0.0001436998
0	0.64480525	0.6448046	-4.395097e-10	0.06632633	0.06632633	0	52783.98	52783.93	-3.9677525e-05	631309.06	271417.9	-0.0003364819	271418.22	631308.5	-0.00034209492
0	0.64469975	0.64469916	-3.0697525e-10	0.06618504	0.06618504	0	52775.35	52775.3	-2.9644438e-05	631391	271188.34	-0.00021786038	271188.7	631390.5	-0.00028912758
0	0.6445941	0.64459336	-1.5535029e-10	0.06604385	0.06604385	0	52766.7	52766.65	-1.7210205e-05	631473.6	270957.75	-0.00023685214	270958.1	631473.06	-5.7481906e-05
0	0.644488	0.64448744	-4.5811704e-10	0.06590254	0.06590254	0	52758.01	52757.96	-4.3417735e-05	631555.8	270727.12	-0.0003517588	270727.47	631555.2	-0.00039078417
0	0.6443817	0.644381	-3.2637468e-10	0.065760985	0.065760985	0	52749.312	52749.26	-1.685116e-05	631638.4	270495.62	-0.00014906748	270496	631637.8	-0.00013912604
0	0.6442756	0.64427507	-2.1310398e-10	0.0656197	0.0656197	0	52740.633	52740.582	-1.8829702e-05	631720.44	270265.06	-0.00016567433	270265.38	631719.94	-0.0001563568
0	0.6441685	0.64416784	-2.171686e-10	0.06547804	0.06547804	0	52731.863	52731.805	-1.6025851e-05	631803	270032.5	-0.00018494276	270032.88	631802.5	-8.91361e-05
0	0.64406246	0.6440618	-1.2657252e-10	0.06533641	0.06533641	0	52723.176	52723.125	-6.9488424e-06	631884.94	269802.2	-0.000117433745	269802.53	631884.25	-1.4074162e-06
0	0.64395446	0.6439538	-2.9852526e-10	0.06519513	0.06519513	0	52714.336	52714.29	-2.5806681e-05	631967.7	269568.16	-0.00016378115	269568.53	631967.2	-0.0002775724
0	0.6438472	0.6438465	-6.6113906e-11	0.06505393	0.06505393	0	52705.555	52705.508	3.3039075e-06	632050.56	269335.2	-7.513769e-05	269335.56	632050	0.0001316421
0	0.6437397	0.64373904	-1.8686863e-10	0.06491261	0.06491261	0	52696.758	52696.707	-1.1638969e-05	632133.06	269102.2	-4.912476e-05	269102.5	632132.44	-0.00014992835
0	0.64363205	0.64363134	-3.504443e-10	0.064771056	0.064771056	0	52687.945	52687.887	-2.8366678e-05	632215.56	268868.88	-0.00019217814	268869.22	632215.06	-0.0002929572
0	0.6435238	0.6435231	-3.401932e-10	0.06462978	0.06462978	0	52679.086	52679.04	-2.0719055e-05	632298.44	268634.6	-0.00017671152	268634.94	632297.9	-0.0001776319
0	0.64341533	0.64341474	-2.1630812e-10	0.06448806	0.06448806	0	52670.207	52670.15	-1.5916221e-05	632381	268400.12	-0.0001670059	268400.5	632380.4	-0.00010519804
0	0.6433069	0.64330626	-1.242709e-10	0.0643465	0.0643465	0	52661.332	52661.273	-2.6395938e-07	632463.94	268165.44	-5.1789084e-05	268165.8	632463.3	4.727477e-05
0	0.64319813	0.6431975	-2.2155014e-10	0.064205214	0.064205214	0	52652.43	52652.375	-1.2188364e-05	632546.7	267930.44	-0.00013516542	267930.78	632546.2	-7.32836e-05
0	0.64308894	0.64308834	-2.1730408e-10	0.06406398	0.06406398	0	52643.49	52643.438	-2.7369573e-05	632629.56	267694.62	-0.00023144986	267694.97	632629	-0.00023663268
0	0.64297986	0.64297926	-5.3384516e-11	0.063922696	0.063922696	0	52634.555	52634.508	-1.4731928e-05	632712.3	267459.12	-4.5884466e-05	267459.44	632711.75	-0.00020606532
0	0.6428694	0.6428688	-1.6805422e-10	0.06378113	0.06378113	0	52625.52	52625.46	-1.5256893e-05	632794.9	267222.03	-5.4270862e-05	267222.4	632794.25	-0.00020665705
0	0.6427592	0.6427585	-4.733038e-10	0.06363943	0.06363943	0	52616.492	52616.438	-3.0897143e-05	632878.75	266983.75	-0.00018162426	266984.1	632878.2	-0.00034678783
0	0.6426493	0.6426486	-1.3012448e-10	0.06349815	0.06349815	0	52607.49	52607.438	-1.3151186e-05	632960.9	266747.66	1.4235058e-06	266748.03	632960.3	-0.00022633898
0	0.6425397	0.6425391	-3.2207442e-10	0.063356586	0.063356586	0	52598.523	52598.47	-3.036927e-05	633043.8	266511.4	-0.00033967142	266511.78	633043.2	-0.00017971285
0	0.64242744	0.6424267	-4.3911103e-10	0.06321526	0.06321526	0	52589.336	52589.28	-3.8547056e-05	633128.6	266269.44	-0.00029597885	266269.78	633128	-0.0003632643
0	0.6423185	0.6423178	-2.963673e-10	0.06307407	0.06307407	0	52580.414	52580.355	-1.9126173e-05	633210.6	266034.9	-0.00015186194	266035.28	633210	-0.00017523955
0	0.6422069	0.6422064	-2.5040292e-10	0.062932774	0.062932774	0	52571.29	52571.24	-1.5367807e-05	633293.4	265796	-0.00012827587	265796.34	633292.9	-0.00013454891
0	0.642096	0.64209515	-6.2036994e-11	0.06279112	0.06279112	0	52562.195	52562.145	-1.1920029e-05	633376.4	265557.47	-0.0001331908	265557.84	633375.9	-7.0669055e-05
0	0.6419831	0.64198244	-5.622404e-10	0.06264953	0.06264953	0	52552.97	52552.914	-5.083609e-05	633461.06	265314.94	-0.00036224956	265315.34	633460.5	-0.0005071644
0	0.64187336	0.6418727	-3.440402e-10	0.06250824	0.06250824	0	52543.98	52543.918	-2.6851418e-05	633543.2	265079.12	-0.00030195503	265079.5	633542.6	-0.00015726587
0	0.6417605	0.64175975	-3.0829891e-10	0.062366635	0.062366635	0	52534.74	52534.68	-2.8433962e-05	633626.44	264837.88	-0.00029935155	264838.25	633625.9	-0.0001869345
0	0.64164805	0.6416473	-1.8531618e-10	0.06222535	0.06222535	0	52525.53	52525.477	-1.8031478e-05	633710.6	264596.22	-0.00022791266	264596.6	633710.1	-8.046702e-05
0	0.64153606	0.64153534	-1.14508875e-10	0.06208415	0.06208415	0	52516.367	52516.305	-2.0047237e-05	633793.8	264356.28	-0.000119443925	264356.66	633793.2	-0.00022340985
0	0.6414229	0.6414223	-3.4235356e-10	0.061942477	0.061942477	0	52507.105	52507.05	-2.8241857e-05	633877.4	264114.38	-0.00031070132	264114.78	633876.8	-0.00017229929
0	0.64131004	0.6413093	-3.5668354e-10	0.061801177	0.061801177	0	52497.863	52497.805	-3.4828194e-05	633961.06	263872.56	-0.0002359504	263872.94	633960.44	-0.0003596917
0	0.6411973	0.6411966	-3.217442e-10	0.061659623	0.061659623	0	52488.645	52488.582	-3.419963e-05	634043.94	263631.9	-0.0003491384	263632.3	634043.44	-0.00023575386
0	0.64108306	0.6410823	-2.862778e-10	0.06151831	0.06151831	0	52479.29	52479.227	-3.0956202e-05	634128.1	263387.75	-0.0002811626	263388.12	634127.5	-0.00024825954
0	0.64096934	0.64096874	-1.4711127e-10	0.06137672	0.06137672	0	52469.98	52469.926	-1.9764431e-05	634211.06	263145.66	-0.00014235028	263146.06	634210.5	-0.00019566689
0	0.64085406	0.64085335	-2.4615396e-10	0.061235435	0.061235435	0	52460.54	52460.477	-3.2048534e-05	634295.4	262899.9	-0.0002802441	262900.3	634294.75	-0.00026785943
0	0.64074045	0.64073974	-3.1624978e-10	0.061094135	0.061094135	0	52451.23	52451.18	-2.0906116e-05	634379.2	262657	-0.00016152929	262657.4	634378.56	-0.00019601332
0	0.6406267	0.640626	-3.1505382e-10	0.06095255	0.06095255	0	52441.926	52441.875	-1.6298336e-05	634462.44	262414.53	-0.00021978955	262414.9	634461.9	-5.8949416e-05
0	0.64051044	0.6405098	-1.5276704e-10	0.06081125	0.06081125	0	52432.414	52432.355	-1.7177657e-05	634546.44	262167.75	-0.00011044494	262168.16	634545.8	-0.00018333243
0	0.6403962	0.6403954	-1.8985889e-10	0.06066969	0.06066969	0	52423.05	52422.992	-5.9353247e-06	634630.75	261923.55	-4.8786016e-05	261923.92	634630.06	-5.2721665e-05
0	0.6402807	0.64027995	-3.2443623e-10	0.060528405	0.060528405	0	52413.605	52413.54	-2.599505e-05	634714.7	261677.86	-0.00020611983	261678.28	634714.1	-0.0002384552
0	0.6401652	0.64016455	-7.877857e-12	0.060386807	0.060386807	0	52404.15	52404.086	3.0554438e-06	634798.44	261432.47	-1.1440782e-05	261432.86	634797.8	6.369589e-05
0	0.640049	0.6400483	-2.0584649e-10	0.060245506	0.060245506	0	52394.645	52394.586	-1.4267103e-05	634882.7	261185.61	-9.418855e-05	261186	634882.06	-0.00014981168
0	0.6399328	0.63993204	-2.744888e-10	0.06010422	0.06010422	0	52385.12	52385.066	-2.2582457e-05	634966.56	260938.9	-0.00023721569	260939.33	634966	-0.00014899619
0	0.63981676	0.63981605	-4.4675913e-10	0.05996261	0.05996261	0	52375.617	52375.562	-4.37764e-05	635050.4	260692.58	-0.0003362445	260692.95	635049.9	-0.00041243248
0	0.6397001	0.63969934	-3.6309744e-10	0.059821296	0.059821296	0	52366.074	52366.016	-3.180772e-05	635134.4	260445.38	-0.00026200645	260445.77	635133.75	-0.0002819786
0	0.6395827	0.63958186	-3.4289446e-10	0.059679788	0.059679788	0	52356.46	52356.4	-2.547068e-05	635218.06	260197.2	-0.00027792074	260197.6	635217.44	-0.00015768636
0	0.63946515	0.63946444	-1.9385356e-10	0.05953849	0.05953849	0	52346.85	52346.79	-2.1954653e-05	635302.56	259948.4	-0.00014867651	259948.81	635301.9	-0.00022679848
0	0.63934803	0.6393473	-3.4263106e-10	0.059396796	0.059396796	0	52337.246	52337.19	-2.7339765e-05	635387.3	259699.5	-0.0001675719	259699.95	635386.6	-0.00030000086
0	0.6392308	0.63923	-1.9119895e-11	0.059255593	0.059255593	0	52327.656	52327.594	1.4836842e-06	635471.1	259451.6	-4.8515245e-05	259452.02	635470.44	7.388965e-05
0	0.63911223	0.63911146	-2.9347838e-10	0.05911429	0.05911429	0	52317.945	52317.89	-1.7515098e-05	635555.5	259201.23	-9.409948e-05	259201.69	635554.9	-0.00020544892
0	0.638994	0.6389932	-2.9596287e-10	0.058972668	0.058972668	0	52308.27	52308.207	-2.4289915e-05	635640.06	258951.03	-0.00020741357	258951.48	635639.44	-0.00020799975
0	0.6388757	0.638875	-4.6058757e-10	0.058831364	0.058831364	0	52298.598	52298.53	-4.1546195e-05	635724.1	258701.58	-0.0004891953	258702	635723.44	-0.00022134004
0	0.6387561	0.6387554	-1.5247627e-10	0.05868988	0.05868988	0	52288.805	52288.74	-1.4730234e-05	635808.7	258449.42	-0.0001013299	258449.84	635808.1	-0.00015059095
0	0.6386376	0.6386369	-3.197685e-10	0.05854817	0.05854817	0	52279.1	52279.04	-2.2454857e-05	635893.1	258199.14	-0.00031115336	258199.56	635892.56	-7.2876246e-05
0	0.63851833	0.6385176	-5.5469195e-11	0.05840688	0.05840688	0	52269.344	52269.28	-1.1670738e-06	635977.44	257947.95	-8.1029444e-05	257948.4	635976.7	6.10698e-05
0	0.63839877	0.638398	-2.0136237e-10	0.05826568	0.05826568	0	52259.543	52259.48	-2.0466978e-05	636061.7	257696.17	-0.0001770808	257696.6	636060.94	-0.00017295152
0	0.63827837	0.63827765	-2.5721436e-10	0.058124352	0.058124352	0	52249.695	52249.633	-2.4284756e-05	636146.44	257442.84	-0.00016506764	257443.3	636145.8	-0.0002502575
0	0.6381582	0.6381574	-4.0190148e-10	0.057982735	0.057982735	0	52239.85	52239.793	-3.327008e-05	636231.3	257189.77	-0.00031801622	257190.19	636230.6	-0.0002509786
0	0.6380382	0.63803744	-3.4278413e-10	0.05784144	0.05784144	0	52230.035	52229.97	-2.466568e-05	636315.4	256937.69	-0.00025812435	256938.14	636314.75	-0.00016371542
0	0.6379169	0.6379161	-3.643436e-10	0.057699878	0.057699878	0	52220.1	52220.04	-2.8885843e-05	636400.4	256682.86	-0.0002806025	256683.31	636399.7	-0.00021341175
0	0.6377961	0.6377954	-1.6845576e-10	0.057558257	0.057558257	0	52210.21	52210.15	-1.2155746e-05	636485.06	256428.97	-0.00015342025	256429.42	636484.44	-5.4470936e-05
0	0.6376744	0.6376737	-6.161542e-11	0.057416957	0.057416957	0	52200.25	52200.188	-8.9350715e-06	636569.8	256173.88	-1.1688695e-05	256174.31	636569.25	-0.00014112155
0	0.6375535	0.6375527	-1.9896229e-10	0.05727573	0.05727573	0	52190.35	52190.29	-2.2129907e-05	636654.7	255919.72	-0.00029168237	255920.19	636654.06	-8.678984e-05
0	0.6374312	0.63743037	-2.499881e-10	0.05713443	0.05713443	0	52180.336	52180.273	-2.781361e-05	636739.4	255663.81	-0.00020585336	255664.23	636738.8	-0.00026982324
0	0.6373093	0.63730854	-2.2767185e-10	0.05699281	0.05699281	0	52170.363	52170.3	-1.7542836e-05	636824.25	255408.28	-0.0001402204	255408.73	636823.6	-0.00015980237
0	0.6371866	0.63718575	-3.0217737e-10	0.056851286	0.056851286	0	52160.316	52160.25	-2.4856865e-05	636909.56	255151.19	-0.00017693498	255151.67	636908.9	-0.00024817453
0	0.637064	0.6370632	-2.3791555e-10	0.056709964	0.056709964	0	52150.28	52150.22	-1.3537797e-05	636994.4	254894.81	-0.00017337278	254895.27	636993.75	-5.8154623e-05
0	0.6369415	0.63694066	-2.1064316e-10	0.056568343	0.056568343	0	52140.25	52140.19	-2.0674288e-05	637079.06	254638.53	-0.0001675729	254638.98	637078.3	-0.00018600492
0	0.63681775	0.6368169	-6.2682054e-11	0.05642702	0.05642702	0	52130.125	52130.055	-1.1833592e-06	637164.4	254380.03	9.492986e-06	254380.52	637163.6	-2.9731145e-05
0	0.6366939	0.63669306	-2.3571076e-10	0.05628581	0.05628581	0	52119.99	52119.92	-2.2365708e-05	637249.4	254121.66	-0.00030333447	254122.11	637248.75	-7.9170495e-05
0	0.63657004	0.63656926	-2.2852517e-10	0.056144506	0.056144506	0	52109.85	52109.78	-1.8400731e-05	637334.6	253862.98	-0.00019591948	253863.47	637333.94	-0.00011877526
0	0.6364464	0.6364456	-5.0964594e-11	0.056002766	0.056002766	0	52099.727	52099.66	-6.328155e-06	637419.4	253605.14	-2.2530555e-06	253605.62	637418.6	-0.000105972926
0	0.63632244	0.63632166	-2.8421496e-10	0.055861373	0.055861373	0	52089.582	52089.516	-1.5868736e-05	637504.2	253346.73	-0.00018054787	253347.19	637503.56	-9.084395e-05
0	0.6361976	0.63619685	-5.0923227e-10	0.05572006	0.05572006	0	52079.36	52079.293	-3.9450482e-05	637589.6	253086.62	-0.00029578214	253087.11	637588.9	-0.00037891173
0	0.6360726	0.6360717	-2.6177507e-10	0.05557843	0.05557843	0	52069.12	52069.05	-2.153744e-05	637674.8	252826.22	-0.00022972401	252826.7	637674.2	-0.00013861567
0	0.635947	0.63594615	-5.280736e-10	0.055437095	0.055437095	0	52058.844	52058.773	-3.0251287e-05	637760.4	252564.88	-0.0002715128	252565.33	637759.8	-0.00024585365
0	0.6358219	0.6358211	-1.721543e-10	0.055295892	0.055295892	0	52048.605	52048.54	-9.473575e-06	637845.2	252305.02	-0.00016476824	252305.47	637844.5	2.748334e-06
0	0.6356962	0.6356952	-3.008647e-10	0.055154584	0.055154584	0	52038.316	52038.242	-2.7361035e-05	637930.44	252043.73	-0.00030584933	252044.22	637929.7	-0.0001620872
0	0.63556963	0.6355688	-2.719419e-10	0.05501284	0.05501284	0	52027.95	52027.883	-2.210917e-05	638016.25	251780.7	-0.00024041417	251781.19	638015.56	-0.0001377034
0	0.6354436	0.6354427	-2.5431116e-10	0.054871462	0.054871462	0	52017.633	52017.562	-1.9562587e-05	638101.44	251519.03	-0.00013208677	251519.52	638100.75	-0.00020247839
0	0.6353167	0.6353158	-2.3472496e-10	0.05473016	0.05473016	0	52007.246	52007.18	-2.309531e-05	638186.94	251255.94	-0.00031150467	251256.44	638186.2	-8.347816e-05
0	0.63518924	0.63518834	-5.1757004e-10	0.054588504	0.054588504	0	51996.816	51996.746	-4.0265888e-05	638272.7	250991.78	-0.00043267856	250992.27	638271.94	-0.00025596062
0	0.6350626	0.63506174	-2.4090954e-10	0.05444718	0.05444718	0	51986.45	51986.383	-1.828727e-05	638357.75	250729.36	-0.00016595298	250729.84	638357.2	-0.00014680134
0	0.63493407	0.63493323	-2.838237e-10	0.054305978	0.054305978	0	51975.92	51975.863	-2.2255374e-05	638443.75	250463.5	-0.00022601683	250463.98	638443	-0.00015460116
0	0.634807	0.63480616	-3.253862e-10	0.054164223	0.054164223	0	51965.523	51965.453	-2.5281199e-05	638529.1	250200.19	-0.00025504525	250200.69	638528.44	-0.0001773213
0	0.6346788	0.63467795	-3.2752767e-10	0.0540229	0.0540229	0	51955.035	51954.96	-2.9327963e-05	638614.7	249935.2	-0.00026405606	249935.69	638613.94	-0.00023751946
0	0.6345499	0.6345491	-5.7454718e-11	0.053881556	0.053881556	0	51944.477	51944.414	-1.9422034e-06	638700.1	249669.31	-0.000112461494	249669.83	638699.4	7.924536e-05
0	0.6344214	0.63442045	-1.3202313e-10	0.053740222	0.053740222	0	51933.957	51933.883	-9.868228e-06	638786	249403.4	-9.720436e-05	249403.9	638785.3	-7.1564995e-05
0	0.63429266	0.63429177	-3.548613e-10	0.053598575	0.053598575	0	51923.414	51923.348	-2.658861e-05	638871.5	249137.66	-0.00021372663	249138.12	638870.8	-0.00024099967
0	0.6341628	0.6341619	-1.2011199e-10	0.053457268	0.053457268	0	51912.79	51912.72	-1.6953933e-05	638957.8	248869.6	-7.539954e-05	248870.11	638957.06	-0.00021455163
0	0.6340334	0.6340325	-1.679625e-10	0.053315945	0.053315945	0	51902.2	51902.125	-1.3636617e-05	639043.25	248602.98	-0.00010552307	248603.5	639042.56	-0.00012769441
0	0.6339036	0.63390285	-3.8949596e-10	0.0531743	0.0531743	0	51891.57	51891.508	-3.4344113e-05	639128.94	248335.66	-0.000295859	248336.14	639128.25	-0.0002915042
0	0.6337736	0.63377273	-3.672358e-10	0.053032976	0.053032976	0	51880.93	51880.863	-2.7577848e-05	639214.56	248067.95	-0.00027060122	248068.48	639213.8	-0.00020104331
0	0.63364255	0.6336418	-2.513763e-10	0.052891634	0.052891634	0	51870.21	51870.137	-3.0236082e-05	639300.6	247798.55	-0.0002838843	247799.05	639299.9	-0.00023322215
0	0.633512	0.63351107	-4.0714565e-10	0.05275032	0.05275032	0	51859.51	51859.445	-2.9000128e-05	639386.3	247529.95	-0.000247233	247530.48	639385.6	-0.00024873577
0	0.6333805	0.6333795	-1.3609826e-10	0.05260866	0.05260866	0	51848.75	51848.676	-1.1277804e-05	639472.56	247259.61	-0.00015118465	247260.11	639471.9	-4.1691696e-05
0	0.6332492	0.63324827	-1.2418298e-10	0.05246734	0.05246734	0	51838.004	51837.93	-1.3789415e-05	639558.56	246989.78	-9.392553e-05	246990.33	639557.9	-0.00014190514
0	0.6331171	0.63311625	-4.653976e-10	0.052326016	0.052326016	0	51827.188	51827.117	-4.1369993e-05	639644.94	246718.53	-0.0003989511	246719.1	639644.1	-0.00030857077
0	0.63298523	0.63298434	-2.6623437e-10	0.052184362	0.052184362	0	51816.395	51816.32	-2.661049e-05	639730.5	246448.31	-0.0002438515	246448.84	639729.8	-0.00021124902
0	0.63285285	0.632852	-1.9745486e-10	0.052043013	0.052043013	0	51805.56	51805.48	-2.2091379e-05	639816.56	246176.92	-0.00021730494	246177.45	639815.8	-0.00016050837
0	0.63271976	0.63271886	-1.7271731e-10	0.051901728	0.051901728	0	51794.664	51794.586	-9.320412e-06	639903.06	245904.1	-0.00012788697	245904.64	639902.44	-3.151346e-05
0	0.63258743	0.6325865	-4.6266505e-10	0.051760413	0.051760413	0	51783.824	51783.758	-3.9538834e-05	639988.9	245632.9	-0.0003330581	245633.47	639988.2	-0.00034314676
0	0.6324545	0.63245356	-2.3830374e-10	0.05161863	0.05161863	0	51772.945	51772.875	-1.8275237e-05	640074.7	245361.06	-9.125865e-05	245361.6	640073.94	-0.00022128987
0	0.6323203	0.6323194	-1.1095948e-10	0.051477425	0.051477425	0	51761.96	51761.883	-1.2479682e-05	640161.1	245086.7	-0.00023388404	245087.23	640160.3	2.045283e-05
0	0.6321862	0.6321853	-4.3604823e-10	0.0513361	0.0513361	0	51750.977	51750.902	-4.479324e-05	640247.56	244812.5	-0.00045216386	244813.05	640246.9	-0.0003139034
0	0.63205266	0.6320517	-2.8287747e-10	0.0511944	0.0511944	0	51740.047	51739.973	-2.9878534e-05	640333.5	244539.6	-0.0002803899	244540.17	640332.75	-0.00023060164
0	0.6319175	0.63191646	5.982653e-11	0.051053077	0.051053077	0	51728.977	51728.906	5.30783e-06	640420.25	244263.62	-5.0661383e-05	244264.19	640419.44	0.00014143747
0	0.63178265	0.63178164	-2.8846975e-10	0.050911825	0.050911825	0	51717.945	51717.875	-2.5004623e-05	640506.25	243988.89	-0.0002377213	243989.45	640505.44	-0.00018991518
0	0.63164765	0.63164675	-4.2623835e-10	0.050770037	0.050770037	0	51706.9	51706.82	-3.6194884e-05	640592.6	243713.55	-0.00041198108	243714.14	640591.9	-0.00020703454
0	0.6315122	0.6315113	-3.286121e-10	0.050628714	0.050628714	0	51695.812	51695.734	-2.9524046e-05	640679	243437.53	-0.000291247	243438.12	640678.25	-0.00021368198
0	0.63137627	0.63137525	-2.730596e-10	0.0504875	0.0504875	0	51684.69	51684.605	-2.021744e-05	640765.6	243160.58	-0.00025434123	243161.17	640764.9	-9.142342e-05
0	0.6312402	0.6312393	-1.6641233e-10	0.050346155	0.050346155	0	51673.55	51673.47	-1.4870976e-05	640851.56	242884.2	-0.00015365866	242884.75	640850.8	-0.00010066918
0	0.63110316	0.6311022	-3.7079628e-11	0.050204474	0.050204474	0	51662.324	51662.25	-3.6102588e-06	640938.4	242605.42	4.0604e-05	242606.05	640937.75	-0.00010234772
0	0.630967	0.63096607	-2.4715283e-10	0.05006314	0.05006314	0	51651.18	51651.1	-1.7217299e-05	641024.94	242328.16	-0.00020028927	242328.75	641024.3	-9.416609e-05
0	0.6308293	0.6308283	-2.1680134e-10	0.049921803	0.049921803	0	51639.914	51639.836	-2.0003e-05	641111.44	242049.05	-0.00018186704	242049.62	641110.7	-0.0001602302
0	0.6306922	0.63069123	-2.9793332e-10	0.049780127	0.049780127	0	51628.68	51628.605	-2.7360325e-05	641198	241770.48	-0.00024834543	241771.08	641197.2	-0.00021957899
0	0.6305549	0.63055396	-2.4498564e-10	0.049638797	0.049638797	0	51617.445	51617.367	-6.0159086e-06	641284.56	241491.8	-6.024626e-05	241492.33	641283.75	-4.2639596e-05
0	0.63041705	0.63041615	-2.5526323e-10	0.04949756	0.04949756	0	51606.164	51606.08	-2.1649692e-05	641370.94	241212.31	-0.00025729532	241212.92	641370.2	-0.00011296412
0	0.6302762	0.6302752	-4.390335e-10	0.04935623	0.04935623	0	51594.633	51594.55	-3.4117373e-05	641458.75	240927.3	-0.00041505496	240927.86	641458	-0.00016843043
0	0.63013977	0.63013875	-8.695778e-11	0.04921455	0.04921455	0	51583.465	51583.383	-1.1427171e-05	641544.44	240650.66	-0.00013245092	240651.22	641543.7	-6.297993e-05
0	0.6300008	0.62999994	-1.5437417e-10	0.049073216	0.049073216	0	51572.086	51572.01	-1.4467565e-05	641631.1	240369.48	-0.0001180767	240370.05	641630.4	-0.00012935189
0	0.6298617	0.62986064	-7.695887e-11	0.04893189	0.04893189	0	51560.695	51560.617	-3.722294e-06	641717.75	240087.94	-5.3877746e-05	240088.5	641716.94	-9.78203e-06
0	0.6297216	0.6297207	-4.89234e-10	0.048790213	0.048790213	0	51549.23	51549.15	-4.9814524e-05	641804.75	239804.88	-0.0004444495	239805.47	641803.94	-0.0004074933
0	0.6295814	0.62958044	-2.046501e-10	0.048648853	0.048648853	0	51537.754	51537.676	-2.5474636e-05	641891.06	239522.36	-0.00018728862	239522.98	641890.2	-0.00024838618
0	0.6294415	0.6294404	-1.20662e-10	0.04850764	0.04850764	0	51526.297	51526.21	-3.6262923e-06	641978.3	239239.03	-8.714276e-05	239239.64	641977.56	2.5124838e-05
0	0.629301	0.62929994	-2.655841e-10	0.048366304	0.048366304	0	51514.8	51514.72	-1.28455285e-05	642065.06	238955.72	-0.000101784026	238956.31	642064.25	-0.00011790401
0	0.6291605	0.62915957	-1.10069294e-10	0.048224516	0.048224516	0	51503.305	51503.22	-1.3999523e-05	642151.56	238672.6	-0.00020190458	238673.19	642150.8	-3.7519418e-05
0	0.6290188	0.6290178	-1.2873097e-10	0.0480833	0.0480833	0	51491.707	51491.617	-1.296408e-05	642238.56	238387.14	-9.0128e-05	238387.78	642237.8	-0.00013158754
0	0.6288769	0.628876	-3.966331e-10	0.047941964	0.047941964	0	51480.086	51480.004	-3.237813e-05	642325.94	238101.22	-0.00032979337	238101.86	642325.1	-0.00022394702
0	0.6287341	0.6287332	-1.4783941e-11	0.04780026	0.04780026	0	51468.402	51468.316	7.99547e-06	642412.75	237814.48	7.7397264e-05	237815.1	642411.94	5.9343627e-05
0	0.6285926	0.62859154	-3.488502e-10	0.04765894	0.04765894	0	51456.812	51456.727	-2.8068996e-05	642499.44	237529.5	-0.0003000065	237530.14	642498.75	-0.00018003778
0	0.62845004	0.628449	-2.1620611e-10	0.047517724	0.047517724	0	51445.145	51445.055	-1.471726e-05	642586.75	237242.69	-0.00019947025	237243.3	642585.94	-5.22287e-05
0	0.62830687	0.6283058	-1.6680657e-10	0.047376387	0.047376387	0	51433.414	51433.336	-1.9199832e-05	642674.06	236954.9	-0.00022622569	236955.55	642673.2	-0.000102135535
0	0.62816393	0.6281629	-1.5667914e-10	0.047234587	0.047234587	0	51421.72	51421.637	-1.0913832e-05	642760.75	236668.2	-0.00016397843	236668.8	642759.9	-2.2673159e-05
0	0.6280202	0.6280192	-5.569517e-11	0.047093373	0.047093373	0	51409.957	51409.87	-5.32011e-06	642847.94	236379.73	-7.2464914e-05	236380.36	642847.1	-1.8521192e-05
0	0.62787575	0.62787473	-2.1854792e-10	0.04695201	0.04695201	0	51398.133	51398.043	-2.3786086e-05	642935.5	236089.94	-0.00027878612	236090.58	642934.6	-0.00012801056
0	0.62773216	0.6277311	-4.7734106e-10	0.046810348	0.046810348	0	51386.38	51386.29	-3.717868e-05	643022.2	235802.23	-0.00035576956	235802.86	643021.4	-0.00028007125
0	0.62758636	0.62758535	-4.1022855e-10	0.04666901	0.04666901	0	51374.445	51374.36	-3.790475e-05	643108.94	235511.39	-0.000374883	235512.02	643108.2	-0.00027337522
0	0.6274425	0.6274414	-2.4834657e-10	0.046527795	0.046527795	0	51362.664	51362.574	-1.7538245e-05	643196.3	235222.47	-0.00020485416	235223.11	643195.4	-9.509009e-05
0	0.627297	0.627296	1.2708301e-12	0.046386022	0.046386022	0	51350.754	51350.67	-1.7262304e-06	643283.7	234931.47	-8.999462e-05	234932.11	643282.9	6.047211e-05
0	0.62714994	0.62714887	-3.2258324e-10	0.046244673	0.046244673	0	51338.71	51338.62	-2.2114265e-05	643371.6	234637.66	-0.00021064148	234638.33	643370.75	-0.00016756327
0	0.6270057	0.6270047	-2.6086758e-10	0.046103455	0.046103455	0	51326.914	51326.83	-1.9626414e-05	643457.7	234349.72	-0.0001924301	234350.39	643456.94	-0.00014322666
0	0.626859	0.6268579	-2.954828e-10	0.045962088	0.045962088	0	51314.895	51314.81	-2.0315778e-05	643545.56	234056.31	-0.00017352575	234056.95	643544.8	-0.00017392068
0	0.62671256	0.6267115	-4.0622633e-10	0.045820434	0.045820434	0	51302.914	51302.82	-3.508588e-05	643632.3	233764.72	-0.00024666893	233765.36	643631.4	-0.00035338014
0	0.62656504	0.62656397	-3.2982564e-10	0.045679096	0.045679096	0	51290.836	51290.746	-3.070028e-05	643720.1	233470.23	-0.00018151259	233470.9	643719.3	-0.0003435327
0	0.6264165	0.62641543	-3.0983455e-10	0.04553775	0.04553775	0	51278.676	51278.586	-3.0148274e-05	643807.8	233174.58	-0.00028396992	233175.22	643807	-0.00023163485
0	0.6262701	0.6262691	-3.7164466e-10	0.045396097	0.045396097	0	51266.7	51266.605	-3.2827942e-05	643894.8	232882.72	-0.00018772966	232883.4	643894.06	-0.00037370354
0	0.6261223	0.6261212	-1.9024919e-10	0.04525476	0.04525476	0	51254.59	51254.5	-1.4290352e-05	643982.06	232588.45	-0.00013317452	232589.14	643981.2	-0.000111223315
0	0.62597257	0.62597144	-1.2179353e-10	0.04511351	0.04511351	0	51242.336	51242.242	-1.1757761e-05	644069.6	232291.22	-0.00021638731	232291.92	644068.9	1.530259e-05