//mumax 3.10 [windows_amd64 go1.11.6(gc) CUDA-11.0]
//GPU info: NVIDIA GeForce RTX 3090(24575MB), CUDA Driver 12.1, cc=8.6, using cc=80 PTX
//(c) Arne Vansteenkiste, Dynamat LAB, Ghent University, Belgium
//This is free software without any warranty. See license.txt
//********************************************************************//
//  If you use mumax in any work or publication,                      //
//  we kindly ask you to cite the references in references.bib        //
//********************************************************************//
//output directory: r1;p0.1;a8.000000000000001e-07;l1.8000000000000002e-07;s5.out/
randSeed(5)
ThermSeed(5)
resolution := 2e-09
zResolution := 5e-09
a := 8.000000000000001e-07
gridSize := 800
gridDepth := 5
SetCellsize(resolution, resolution, zResolution)
SetGridsize(gridSize, gridSize, gridDepth)
SetPBC(16, 16, 0)
//resizing...
Msat = 700e3
Aex = 13e-12
alpha = 0.2
Bmax := 0.1
Bstep := Bmax / 500.0
TableAdd(B_ext)
TableAdd(m_full)
islandWidth := 8e-08
islandLength := 1.8000000000000002e-07
ellipseConstant := 9.000000000000001e-09
hIsland := Universe().Inverse()
vIsland := Universe().Inverse()
vIslands := Universe().Inverse()
hIslands := Universe().Inverse()
hIsland = rect(islandLength-2*ellipseConstant, islandWidth)
hIsland = hIsland.add(ellipse(ellipseConstant*2, islandWidth).transl(islandLength/2-ellipseConstant, 0, 0))
hIsland = hIsland.add(ellipse(ellipseConstant*2, islandWidth).transl(-islandLength/2+ellipseConstant, 0, 0))
hIsland = hIsland.sub(rect(3.5289180710582706e-09, -1.1964490889747003e-10).transl(-2.2373654313426028e-08, -4e-08, 0))
hIsland = hIsland.sub(rect(9.437448822277696e-09, -2.260480002514251e-09).transl(2.0092366608908583e-08, -4e-08, 0))
hIsland = hIsland.add(rect(9.715714946110322e-09, 1.1416056509469795e-09).transl(5.542951482309569e-08, -4e-08, 0))
hIsland = hIsland.sub(rect(6.105328769479807e-09, -1.195690470118102e-09).transl(1.0375587031278793e-08, -4e-08, 0))
hIsland = hIsland.add(rect(8.546706853455102e-09, 1.5155578395778678e-09).transl(6.373415404184955e-09, -4e-08, 0))
hIsland = hIsland.add(rect(7.144626997635704e-09, 2.2305275707995564e-09).transl(-6.398102997939674e-08, -4e-08, 0))
hIsland = hIsland.add(rect(7.237683900521264e-09, 1.9953945979390984e-09).transl(3.4607515586742716e-08, -4e-08, 0))
hIsland = hIsland.add(rect(4.322167504648561e-09, 2.952462095540387e-09).transl(-3.189045988898115e-08, -4e-08, 0))
hIsland = hIsland.sub(rect(3.3774694781333727e-09, -1.0281537194518636e-10).transl(-4.3019865898580756e-08, -4e-08, 0))
hIsland = hIsland.sub(rect(5.711633259081476e-09, -1.126765429193577e-09).transl(1.1353620830773748e-08, -4e-08, 0))
hIsland = hIsland.add(rect(7.47706389203999e-09, 1.2642132911517072e-09).transl(-1.992812119769072e-08, -4e-08, 0))
hIsland = hIsland.sub(rect(9.46113133886349e-09, -2.9344092488798135e-10).transl(-6.817147277038682e-08, -4e-08, 0))
hIsland = hIsland.add(rect(9.834578532858773e-09, 1.9696325988443484e-09).transl(5.2273380737815443e-08, -4e-08, 0))
hIsland = hIsland.add(rect(8.308522588910718e-09, 1.173434766298605e-09).transl(7.876701294869516e-08, -4e-08, 0))
hIsland = hIsland.sub(rect(7.652279884954482e-09, -1.2705912966815913e-09).transl(4.066811209626936e-08, -4e-08, 0))
hIsland = hIsland.add(rect(5.95448681785327e-09, 1.3840585129088334e-10).transl(-5.387248799576901e-08, -4e-08, 0))
hIsland = hIsland.sub(rect(6.536988494955206e-09, -2.009918588971654e-09).transl(7.65350089290347e-09, -4e-08, 0))
hIsland = hIsland.sub(rect(7.324327871482744e-09, -4.473635386865032e-10).transl(8.263002378751625e-08, -3.9338486153912994e-08, 0))
hIsland = hIsland.add(rect(2.660969179659171e-09, 1.5579512675487645e-09).transl(-2.5477135621736104e-08, -4e-08, 0))
hIsland = hIsland.add(rect(3.6350104169701496e-09, 3.801495017516065e-10).transl(-7.738922407398393e-08, -4e-08, 0))
hIsland = hIsland.sub(rect(8.2968183656478e-09, -3.727253250378112e-11).transl(3.217698774899991e-08, -4e-08, 0))
hIsland = hIsland.sub(rect(6.310975347133201e-09, -9.50582596873932e-10).transl(-6.977514256792455e-08, -4e-08, 0))
hIsland = hIsland.add(rect(9.653294048085127e-09, 1.003802670877466e-09).transl(7.725336115868587e-08, -4e-08, 0))
hIsland = hIsland.add(rect(3.1176179803513197e-09, 2.319966917478515e-09).transl(7.385916807980406e-08, -4e-08, 0))
hIsland = hIsland.add(rect(8.330814473374686e-09, 2.0322268873066153e-09).transl(8.863467305327904e-08, -2.1180828680572323e-08, 0))
hIsland = hIsland.add(rect(6.138821723666646e-09, 4.665950665694739e-10).transl(1.974748298116583e-08, -4e-08, 0))
hIsland = hIsland.add(rect(4.438541865862222e-09, 2.8688061953810948e-09).transl(-4.822208036009437e-10, -4e-08, 0))
hIsland = hIsland.add(rect(5.688142241155789e-09, 4.582206032074719e-10).transl(8.441799687658568e-08, -3.700311561167351e-08, 0))
hIsland = hIsland.add(rect(9.888731168866792e-09, 1.4197352696918154e-09).transl(-7.878272894720123e-08, -4e-08, 0))
hIsland = hIsland.add(rect(3.4580816817820905e-09, 4.5093515759984296e-10).transl(5.158287179367059e-08, -4e-08, 0))
hIsland = hIsland.sub(rect(9.167670047927704e-09, -1.5916295535256318e-09).transl(-7.032017969616126e-08, -4e-08, 0))
hIsland = hIsland.add(rect(4.945548295493706e-09, 2.3817305697737074e-09).transl(-8.830842729947224e-08, -2.334365503274885e-08, 0))
hIsland = hIsland.sub(rect(8.511927946040112e-09, -1.8677984640810464e-09).transl(-3.275151398557454e-08, -4e-08, 0))
hIsland = hIsland.add(rect(4.768533297144638e-09, 9.571320238221595e-10).transl(2.477332769348373e-08, -4e-08, 0))
hIsland = hIsland.sub(rect(8.506291168072129e-09, -2.723243315650667e-09).transl(-5.453631095488745e-08, -4e-08, 0))
hIsland = hIsland.sub(rect(5.013115076253753e-09, -9.290304899252348e-10).transl(-6.833351481559211e-08, -4e-08, 0))
hIsland = hIsland.sub(rect(9.205996800544768e-09, -2.38589255774014e-09).transl(-8.863577970771304e-08, -2.1172947218831296e-08, 0))
hIsland = hIsland.sub(rect(8.62291772272674e-09, -3.9356322709973296e-09).transl(4.763851572493064e-08, -4e-08, 0))
hIsland = hIsland.sub(rect(7.744391026358203e-09, -2.410266184952975e-09).transl(-3.7832710437216886e-08, -4e-08, 0))
hIsland = hIsland.sub(rect(8.489110877547358e-09, -2.6808682651086226e-09).transl(-2.6839598925611577e-08, -4e-08, 0))
hIsland = hIsland.add(rect(7.858448772529713e-09, 2.709505697022704e-09).transl(-4.4426348966700096e-08, -4e-08, 0))
hIsland = hIsland.sub(rect(8.010924035828123e-09, -1.7649885740114616e-09).transl(3.9646207225312e-08, -4e-08, 0))
hIsland = hIsland.sub(rect(7.510385287447693e-09, -1.998313003296997e-09).transl(-3.1773846478827395e-08, -4e-08, 0))
hIsland = hIsland.sub(rect(2.0525634494607168e-09, -1.842901995249184e-09).transl(-7.418278437673346e-08, -4e-08, 0))
hIsland = hIsland.add(rect(3.692793026635314e-09, 8.67985663140633e-11).transl(-1.1913670865224863e-08, -4e-08, 0))
hIsland = hIsland.sub(rect(9.844804469063434e-09, -1.0109118306246151e-09).transl(2.8234541766518247e-08, -4e-08, 0))
hIsland = hIsland.add(rect(3.8733924454081496e-09, 7.577787484449599e-10).transl(3.2551382053224024e-08, -4e-08, 0))
hIsland = hIsland.sub(rect(4.110816067894337e-09, -2.493662968001587e-09).transl(-1.7922487376681798e-08, -4e-08, 0))
hIsland = hIsland.sub(rect(2.2584017545160047e-09, -3.296657508851797e-09).transl(-6.826990896225833e-08, -4e-08, 0))
hIsland = hIsland.add(rect(3.995640737520222e-09, 2.6952645207876384e-09).transl(5.2162729020972944e-08, -4e-08, 0))
hIsland = hIsland.sub(rect(4.865276660960972e-09, -1.5207166885200999e-09).transl(8.985715401772412e-08, -7.098353425920821e-09, 0))
hIsland = hIsland.sub(rect(5.340632398561292e-09, -1.7700340984729843e-09).transl(-3.851013426236546e-08, -4e-08, 0))
hIsland = hIsland.add(rect(6.661330918913073e-09, 5.381362326349237e-10).transl(-6.793654804728883e-09, -4e-08, 0))
hIsland = hIsland.add(rect(3.2342913625510985e-09, 2.259339053415413e-09).transl(-3.981714909598576e-08, -4e-08, 0))
hIsland = hIsland.sub(rect(4.317717636318763e-09, -3.092529117820067e-09).transl(-4.997117514181169e-08, -4e-08, 0))
hIsland = hIsland.add(rect(7.689155581464052e-09, 1.535471298316368e-09).transl(-6.527115888427072e-08, -4e-08, 0))
hIsland = hIsland.sub(rect(6.176959051810988e-09, -1.8006152365644286e-09).transl(7.9016625025609e-08, -4e-08, 0))
hIsland = hIsland.add(rect(6.999741300909675e-09, 3.4961718860780196e-10).transl(4.46138413623466e-08, -4e-08, 0))
hIsland = hIsland.add(rect(6.483521945921616e-09, 1.0507213827544403e-09).transl(-4.690599723340331e-08, -4e-08, 0))
hIsland = hIsland.add(rect(7.0087994258101765e-09, 4.238694729561176e-09).transl(7.47018742181087e-09, -4e-08, 0))
hIsland = hIsland.sub(rect(5.343781805475913e-09, -1.6454532569278136e-09).transl(-5.825256150542813e-08, -4e-08, 0))
hIsland = hIsland.sub(rect(4.914982067372179e-09, -2.0488786164638617e-09).transl(-1.747265951291603e-08, -4e-08, 0))
hIsland = hIsland.add(rect(2.834572922277917e-09, 1.4004097978174342e-09).transl(1.3295357818108637e-08, -4e-08, 0))
hIsland = hIsland.add(rect(3.990341736555598e-09, 4.466822907329862e-10).transl(3.48821927424186e-08, -4e-08, 0))
hIsland = hIsland.sub(rect(7.906193624660273e-09, -6.133282702399208e-10).transl(2.6301066605765558e-09, -4e-08, 0))
hIsland = hIsland.add(rect(5.648450443909524e-09, 1.3885207865324724e-09).transl(-6.337455673040241e-08, -4e-08, 0))
hIsland = hIsland.add(rect(2.7682605624232216e-09, 6.074502605731443e-10).transl(8.988185713535967e-08, -6.459925966874185e-09, 0))
hIsland = hIsland.sub(rect(9.650425906396888e-09, -1.2971056942379214e-09).transl(-4.257791077286714e-08, -4e-08, 0))
hIsland = hIsland.sub(rect(8.586151870420758e-09, -1.7822887993582279e-09).transl(4.744088639367663e-08, -4e-08, 0))
hIsland = hIsland.sub(rect(7.693307635732439e-09, -7.248587079612722e-10).transl(3.9555896608997664e-08, -4e-08, 0))
hIsland = hIsland.add(rect(2.663679815905855e-09, 4.0393456532188326e-10).transl(-3.556257453638755e-08, -4e-08, 0))
hIsland = hIsland.sub(rect(3.94841485690766e-09, -3.6674756693250324e-09).transl(6.781161922808302e-08, -4e-08, 0))
hIsland = hIsland.add(rect(9.429683206370861e-09, 2.040183777326871e-09).transl(-3.7821559837051056e-08, -4e-08, 0))
hIsland = hIsland.sub(rect(6.119117361579398e-09, -1.8619352313426313e-09).transl(6.650286689542843e-08, -4e-08, 0))
hIsland = hIsland.sub(rect(8.165291095405103e-09, -2.409819114238172e-09).transl(2.3321300204192132e-08, -4e-08, 0))
hIsland = hIsland.sub(rect(7.0060996856378545e-09, -4.804675759422541e-10).transl(-6.706422161828068e-08, -4e-08, 0))
hIsland = hIsland.add(rect(9.100488042551142e-09, 2.0510856274343e-09).transl(-8.464074011440774e-09, -4e-08, 0))
hIsland = hIsland.add(rect(5.25285508831314e-09, 6.754797740920064e-10).transl(-6.9123724953881874e-09, -4e-08, 0))
hIsland = hIsland.sub(rect(8.35792299202024e-09, -1.8175243004037724e-09).transl(-7.463684135918254e-10, -4e-08, 0))
hIsland = hIsland.sub(rect(9.018554804684756e-09, -4.700346857256223e-10).transl(-4.373532030765563e-08, -4e-08, 0))
hIsland = hIsland.sub(rect(6.368356378295728e-09, -1.2033419183418335e-09).transl(3.6310957959041556e-08, -4e-08, 0))
hIsland = hIsland.sub(rect(6.2086279560950465e-09, -1.895267235601378e-09).transl(-5.518948172052524e-08, -4e-08, 0))
hIsland = hIsland.sub(rect(5.044020728396882e-09, -2.088826289822156e-09).transl(-2.3978664734082154e-08, -4e-08, 0))
hIsland = hIsland.add(rect(6.800394732950509e-09, 1.0666777242343155e-09).transl(-6.438124001121021e-08, -4e-08, 0))
hIsland = hIsland.sub(rect(2.544331299509282e-09, -2.5352894732222913e-09).transl(-7.91549529201378e-08, -4e-08, 0))
hIsland = hIsland.add(rect(8.059729815931782e-09, 3.691250084907176e-10).transl(-4.741600509617029e-08, -4e-08, 0))
hIsland = hIsland.add(rect(8.182455960333993e-09, 1.122711281391703e-09).transl(4.880175562215131e-08, -4e-08, 0))
hIsland = hIsland.sub(rect(6.467260351799947e-09, -3.215582441404991e-09).transl(6.878124679440619e-08, -4e-08, 0))
hIsland = hIsland.add(rect(8.534628557381379e-09, 2.1933880786586536e-09).transl(4.6876560995659696e-08, -4e-08, 0))
hIsland = hIsland.add(rect(3.833607798058414e-09, 1.8250593914876155e-09).transl(3.1621035028487184e-08, -4e-08, 0))
hIsland = hIsland.add(rect(9.028248118500705e-09, 4.759972571859385e-10).transl(8.741921842421201e-08, -2.8036531661390322e-08, 0))
hIsland = hIsland.sub(rect(2.6668940504320697e-09, -1.800436274935257e-09).transl(-2.786503587341871e-08, -4e-08, 0))
hIsland = hIsland.sub(rect(4.018367043767075e-09, -1.2655456643270822e-09).transl(-8.795783713398459e-08, -2.5371706772155727e-08, 0))
hIsland = hIsland.add(rect(7.602886697521437e-09, 5.540139749927795e-10).transl(8.544059127452018e-08, -3.4792123170613176e-08, 0))
hIsland = hIsland.sub(rect(2.074909597657869e-09, -2.332719792063734e-09).transl(3.438650811453237e-08, -4e-08, 0))
hIsland = hIsland.sub(rect(2.2733949874422515e-09, -1.2868877492849532e-09).transl(-3.640434703391763e-08, -4e-08, 0))
hIsland = hIsland.add(rect(6.204079252348858e-09, 3.531844338983848e-10).transl(-5.28115985592232e-08, -4e-08, 0))
hIsland = hIsland.sub(rect(7.327055853676665e-09, -1.3416335344192332e-09).transl(2.6701969975686442e-08, -4e-08, 0))
hIsland = hIsland.sub(rect(3.4859885489528264e-09, -3.0252309121104403e-10).transl(2.951758441661023e-08, -4e-08, 0))
hIsland = hIsland.sub(rect(5.369393711703598e-09, -6.92995181248048e-10).transl(-5.781369327106613e-08, -4e-08, 0))
hIsland = hIsland.add(rect(4.669556460586302e-09, 1.6781184886886791e-09).transl(-2.886031738442116e-09, -4e-08, 0))
hIsland = hIsland.sub(rect(6.922550715783771e-09, -2.452377011851964e-09).transl(-1.9695210429064446e-08, -4e-08, 0))
hIsland = hIsland.add(rect(8.467738944679494e-09, 5.868990191971282e-09).transl(-6.882842440576599e-08, -4e-08, 0))
hIsland = hIsland.add(rect(2.5251139405647526e-09, 4.474292868376978e-10).transl(-4.531414147756291e-08, -4e-08, 0))
hIsland = hIsland.sub(rect(8.404148685978584e-09, -2.9772416529746573e-09).transl(-4.2943434124122946e-08, -4e-08, 0))
hIsland = hIsland.add(rect(5.923663950023036e-09, 2.3336555116535403e-09).transl(6.442096902063675e-08, -4e-08, 0))
hIsland = hIsland.add(rect(7.942136958613811e-09, 2.1930607204887365e-09).transl(5.0274521711159626e-08, -4e-08, 0))
hIsland = hIsland.sub(rect(9.545037450267856e-09, -1.312769158256616e-09).transl(7.009714443423156e-08, -4e-08, 0))
hIsland = hIsland.add(rect(7.937772102867112e-09, 1.6887948520825722e-09).transl(-1.9703450691556654e-08, -4e-08, 0))
hIsland = hIsland.sub(rect(8.607184524017594e-09, -1.2691958939084365e-09).transl(-4.820200593715706e-08, -4e-08, 0))
hIsland = hIsland.sub(rect(7.42793983420745e-09, -1.1381997924507268e-09).transl(8.32333458415253e-08, -3.874886954359447e-08, 0))
hIsland = hIsland.sub(rect(6.548595914149122e-09, -1.3307543484135471e-09).transl(3.899764132541284e-08, -4e-08, 0))
hIsland = hIsland.sub(rect(9.22736173942027e-09, -3.1715514901121972e-09).transl(-7.245144510306006e-08, -4e-08, 0))
hIsland = hIsland.sub(rect(6.375903473221359e-09, -1.1735726573578581e-09).transl(7.842782070222938e-08, -4e-08, 0))
hIsland = hIsland.add(rect(5.26255862546411e-09, 1.6125641194991132e-09).transl(2.8216600180880973e-08, -4e-08, 0))
hIsland = hIsland.sub(rect(2.4642563414974287e-09, -1.8163339484949427e-09).transl(2.856425895619253e-08, -4e-08, 0))
hIsland = hIsland.add(rect(9.557376925523915e-09, 1.4724397787874428e-09).transl(3.3320228582886454e-09, -4e-08, 0))
hIsland = hIsland.add(rect(6.293288208762316e-09, 1.6498050247122633e-09).transl(5.2207614233928467e-08, -4e-08, 0))
hIsland = hIsland.add(rect(6.746883121175471e-09, 1.7158267398018217e-10).transl(-5.556554439304402e-08, -4e-08, 0))
hIsland = hIsland.sub(rect(6.493766838689551e-09, -2.7893761362644427e-09).transl(-8.035717267759607e-09, -4e-08, 0))
hIsland = hIsland.sub(rect(4.5705001982029364e-09, -4.878316209137262e-10).transl(7.761180251796159e-08, -4e-08, 0))
hIsland = hIsland.add(rect(8.455942300974526e-09, 3.285186795848985e-10).transl(-1.1211201276048893e-08, -4e-08, 0))
hIsland = hIsland.add(rect(6.564622081922034e-09, 2.692019958138004e-09).transl(4.8986385889238885e-08, -4e-08, 0))
hIsland = hIsland.sub(rect(5.64802861967499e-09, -4.983425568102717e-10).transl(-2.2336281610338374e-08, -4e-08, 0))
hIsland = hIsland.add(rect(6.129826916352965e-09, 2.186797989068526e-09).transl(4.814762370100335e-08, -4e-08, 0))
hIsland = hIsland.add(rect(6.386165953380038e-09, 3.53265868022015e-09).transl(-5.1134374801522224e-08, -4e-08, 0))
hIsland = hIsland.add(rect(9.523953857049565e-09, 1.1320895097783957e-09).transl(-8.336851789598358e-08, -3.858999370755004e-08, 0))
hIsland = hIsland.add(rect(3.991200342627655e-09, 1.542770990951667e-09).transl(-1.3444531247360267e-08, -4e-08, 0))
hIsland = hIsland.sub(rect(3.8379866882232006e-09, -2.0239044250717304e-10).transl(5.798318822655682e-08, -4e-08, 0))
hIsland = hIsland.add(rect(8.55744383635731e-09, 2.794483694254849e-09).transl(8.767341790613099e-08, -2.683851790727958e-08, 0))
hIsland = hIsland.sub(rect(7.06693716584419e-09, -2.6910307099143397e-09).transl(-3.7026652248062525e-08, -4e-08, 0))
hIsland = hIsland.sub(rect(6.815867008614797e-09, -8.10466544827372e-10).transl(1.4318728752317687e-08, -4e-08, 0))
hIsland = hIsland.add(rect(2.098836801781559e-09, 1.5713693631139863e-09).transl(6.359936813448337e-08, -4e-08, 0))
hIsland = hIsland.add(rect(3.8486286275394955e-09, 5.659200072773929e-10).transl(3.979596053133025e-08, -4e-08, 0))
hIsland = hIsland.sub(rect(3.1431102499179354e-09, -4.69914791987706e-09).transl(6.150557439671491e-09, -4e-08, 0))
hIsland = hIsland.sub(rect(6.901980289334938e-09, -7.295002361572548e-10).transl(-4.8976865740304323e-08, -4e-08, 0))
hIsland = hIsland.add(rect(4.208035233325507e-09, 3.6012893395077676e-09).transl(-9.908890170639721e-09, -4e-08, 0))
hIsland = hIsland.add(rect(5.729003433521702e-09, 2.1446400797668994e-10).transl(8.310473826420745e-08, -3.889081311790071e-08, 0))
hIsland = hIsland.add(rect(9.133133052784953e-09, 2.3036081327932895e-09).transl(9.306504075200028e-10, -4e-08, 0))
hIsland = hIsland.sub(rect(2.3212811749701843e-09, -3.2316527105027984e-09).transl(7.228099767646616e-09, -4e-08, 0))
hIsland = hIsland.sub(rect(5.589518843853214e-09, -2.008955276014741e-09).transl(5.1500449590797744e-08, -4e-08, 0))
hIsland = hIsland.add(rect(9.27087096805569e-09, 1.7914157194750958e-09).transl(-4.677299386016427e-08, -4e-08, 0))
hIsland = hIsland.sub(rect(7.262652682562939e-09, -1.1843809772683e-10).transl(-4.773523680365658e-08, -4e-08, 0))
hIsland = hIsland.sub(rect(8.963890052953148e-09, -7.424032780102087e-10).transl(-1.7590597144269996e-08, -4e-08, 0))
hIsland = hIsland.add(rect(5.714414441820054e-09, 1.0341257647518513e-09).transl(6.858489518563682e-08, -4e-08, 0))
hIsland = hIsland.sub(rect(2.2401848079904864e-09, -5.180436632042385e-10).transl(-6.3343697282187465e-09, -4e-08, 0))
hIsland = hIsland.add(rect(8.417397284756713e-09, 5.124261512456109e-10).transl(-3.957389710212939e-08, -4e-08, 0))
hIsland = hIsland.sub(rect(7.715792283605731e-09, -1.920529056010541e-09).transl(4.4710934476561655e-09, -4e-08, 0))
hIsland = hIsland.add(rect(2.2836251927057535e-09, 2.150446474518451e-09).transl(-3.52196888038181e-08, -4e-08, 0))
hIsland = hIsland.sub(rect(7.65819253337232e-09, -1.4910247098395594e-09).transl(1.9134017528986832e-08, -4e-08, 0))
hIsland = hIsland.add(rect(8.429750221412111e-09, 1.9882857136618046e-09).transl(-8.970809319576406e-08, -1.0104748077336048e-08, 0))
hIsland = hIsland.add(rect(2.7988000942099164e-09, 2.5198392106038512e-09).transl(3.66684607817699e-08, -4e-08, 0))
hIsland = hIsland.sub(rect(2.1675890512629154e-09, -1.3157702502079577e-09).transl(-1.2224221517409664e-08, -4e-08, 0))
hIsland = hIsland.add(rect(7.523827299721807e-09, 1.6514087810801253e-10).transl(-6.65938027929173e-08, -4e-08, 0))
hIsland = hIsland.add(rect(6.8045340253321936e-09, 5.956515873162948e-10).transl(3.353282243304642e-08, -4e-08, 0))
hIsland = hIsland.sub(rect(2.6282308750288376e-09, -8.610280746935303e-10).transl(6.579593241253422e-09, -4e-08, 0))
hIsland = hIsland.add(rect(8.299214131288804e-09, 1.0555886343896878e-09).transl(8.934572555601055e-08, -1.497247841875388e-08, 0))
hIsland = hIsland.sub(rect(9.623474950494637e-09, -2.056970066123375e-09).transl(-5.3282691914460415e-08, -4e-08, 0))
hIsland = hIsland.add(rect(3.717611087267945e-09, 3.623848972970508e-09).transl(-8.199958915749265e-08, -3.9752523706818894e-08, 0))
hIsland = hIsland.add(rect(5.858051254109392e-09, 2.5697488749707122e-09).transl(-3.177285415121889e-08, -4e-08, 0))
hIsland = hIsland.sub(rect(9.170655699332592e-09, -1.8653991098616594e-10).transl(4.888490794502186e-08, -4e-08, 0))
hIsland = hIsland.sub(rect(9.141277362684198e-09, -5.583285702752828e-10).transl(-5.3581498630540784e-08, -4e-08, 0))
hIsland = hIsland.add(rect(7.130897778906466e-09, 1.911886630715664e-09).transl(-7.486406283172051e-08, -4e-08, 0))
hIsland = hIsland.add(rect(2.967813566370454e-09, 7.890464753997567e-10).transl(2.136658093789329e-09, -4e-08, 0))
hIsland = hIsland.add(rect(7.493870649129831e-09, 2.7910901571462856e-09).transl(8.012032641159358e-08, -4e-08, 0))
hIsland = hIsland.sub(rect(2.468630644397621e-09, -3.309570554022123e-09).transl(-3.8679166934541395e-09, -4e-08, 0))
hIsland = hIsland.add(rect(9.660776443941387e-09, 1.9232136380728815e-11).transl(-7.681643807537776e-08, -4e-08, 0))
hIsland = hIsland.add(rect(4.1895109308174444e-09, 9.810981170887858e-10).transl(-1.7258140426453984e-08, -4e-08, 0))
hIsland = hIsland.add(rect(8.178865661932727e-09, 2.648445731017608e-10).transl(4.1669473372880575e-08, -4e-08, 0))
hIsland = hIsland.add(rect(5.716200216059691e-09, 2.9809626998943097e-10).transl(3.4016247791438973e-09, -4e-08, 0))
hIsland = hIsland.add(rect(4.904360123496414e-09, 1.3287714717612972e-09).transl(2.8002301316394647e-08, -4e-08, 0))
hIsland = hIsland.sub(rect(4.804795677309388e-09, -1.3737631841615214e-10).transl(5.0280334349416594e-08, -4e-08, 0))
hIsland = hIsland.add(rect(6.995257246077413e-09, 1.441476659326545e-10).transl(3.241243446531543e-08, -4e-08, 0))
hIsland = hIsland.add(rect(4.2150838835500935e-09, 2.6105596816140535e-09).transl(5.926486709095298e-09, -4e-08, 0))
hIsland = hIsland.add(rect(7.524376512932383e-09, 2.1834267188471597e-09).transl(-8.485796869905586e-08, -3.6138574860258057e-08, 0))
hIsland = hIsland.sub(rect(5.584644975788445e-09, -1.5539068889424154e-10).transl(6.941299920479127e-08, -4e-08, 0))
hIsland = hIsland.sub(rect(8.842260697216196e-09, -9.235018208457532e-10).transl(3.3724418294686705e-08, -4e-08, 0))
hIsland = hIsland.add(rect(2.5333773642806303e-09, 1.8513737106584932e-09).transl(-6.825768446560368e-08, -4e-08, 0))
hIsland = hIsland.sub(rect(4.5041256489978604e-09, -2.2077342124255232e-09).transl(6.387430474561917e-08, -4e-08, 0))
hIsland = hIsland.add(rect(2.9111789466901277e-09, 1.2467358607295265e-09).transl(-5.90887795057589e-09, -4e-08, 0))
hIsland = hIsland.sub(rect(4.488847852995746e-09, -1.1852139234206673e-09).transl(5.95340127547959e-08, -4e-08, 0))
hIsland = hIsland.sub(rect(8.647432880306835e-09, -1.4582752299843124e-09).transl(8.935241208902777e-09, -4e-08, 0))
hIsland = hIsland.sub(rect(8.4161846903048e-09, -1.146412473317573e-09).transl(-8.373296739604377e-08, -3.8111179581969415e-08, 0))
hIsland = hIsland.sub(rect(4.701336959059241e-09, -1.0178035337882802e-09).transl(-8.557800044963002e-09, -4e-08, 0))
hIsland = hIsland.add(rect(7.304843897924379e-09, 2.6307076913628196e-10).transl(-9.980411350087025e-09, -4e-08, 0))
hIsland = hIsland.add(rect(3.21098729319922e-09, 1.9993705785130167e-09).transl(-2.167123514399191e-08, -4e-08, 0))
hIsland = hIsland.add(rect(5.6644476142307705e-09, 1.3617974113691058e-10).transl(-8.878013355031935e-08, -2.010811368169469e-08, 0))
hIsland = hIsland.sub(rect(5.3650269706524374e-09, -1.1848415585318974e-09).transl(7.29608624095328e-08, -4e-08, 0))
hIsland = hIsland.add(rect(7.0008814380420285e-09, 2.0151174070474555e-09).transl(6.547830315493952e-08, -4e-08, 0))
hIsland = hIsland.add(rect(2.673434240488339e-09, 2.381309258265835e-09).transl(-7.449543058381835e-08, -4e-08, 0))
hIsland = hIsland.add(rect(3.842815505215022e-09, 1.5152807744677413e-09).transl(-4.392666201956385e-08, -4e-08, 0))
hIsland = hIsland.sub(rect(7.525156382966854e-09, -4.078454096791128e-09).transl(2.0601459827952204e-08, -4e-08, 0))
hIsland = hIsland.sub(rect(3.997889432647395e-09, -1.0831210414420028e-09).transl(2.2681178255717553e-08, -4e-08, 0))
hIsland = hIsland.sub(rect(6.786802184960978e-09, -6.13173445819612e-10).transl(7.839782892120166e-10, -4e-08, 0))
hIsland = hIsland.add(rect(5.820012249482968e-09, 1.4422143429047203e-11).transl(-6.931185662567773e-08, -4e-08, 0))
hIsland = hIsland.add(rect(3.911978314884587e-09, 4.67065664000569e-10).transl(-4.140638101327421e-08, -4e-08, 0))
hIsland = hIsland.add(rect(6.392642420639059e-09, 9.446490017169986e-10).transl(-2.0896980573911447e-09, -4e-08, 0))
hIsland = hIsland.sub(rect(5.0298270255303155e-09, -1.7282418425217153e-09).transl(-8.534164768583169e-08, -3.5037925236538105e-08, 0))
hIsland = hIsland.sub(rect(2.6982943053635263e-09, -5.945781729645396e-10).transl(7.824793148943572e-08, -4e-08, 0))
hIsland = hIsland.add(rect(9.51895995480156e-09, 3.1683018258991963e-09).transl(9.690467867825518e-09, -4e-08, 0))
hIsland = hIsland.sub(rect(5.1258517587482065e-09, -1.1707838256073066e-09).transl(3.648135885031345e-08, 4e-08, 0))
hIsland = hIsland.add(rect(8.288233294765761e-09, 5.080860569224085e-10).transl(1.7127886829920595e-08, 4e-08, 0))
hIsland = hIsland.sub(rect(4.169661444729115e-09, -8.088213248314866e-10).transl(-4.874610400984984e-08, 4e-08, 0))
hIsland = hIsland.sub(rect(3.3642622437385683e-09, -1.6665471130160047e-09).transl(3.828121040173292e-08, 4e-08, 0))
hIsland = hIsland.sub(rect(7.082373517471874e-09, -1.2197621251371817e-09).transl(1.4743226135766915e-08, 4e-08, 0))
hIsland = hIsland.add(rect(8.122669190780491e-09, 1.8565999649357408e-09).transl(-6.581774227931881e-08, 4e-08, 0))
hIsland = hIsland.sub(rect(7.67180310992927e-09, -6.902875964045793e-10).transl(-7.818758923181124e-09, 4e-08, 0))
hIsland = hIsland.sub(rect(4.3937184963363384e-09, -8.468804563718801e-11).transl(-7.48411831560105e-08, 4e-08, 0))
hIsland = hIsland.add(rect(7.220879807412772e-09, 3.4883526499697164e-09).transl(3.5983746341288704e-08, 4e-08, 0))
hIsland = hIsland.add(rect(6.488938845399015e-09, 7.712133058754095e-10).transl(6.563895752727536e-08, 4e-08, 0))
hIsland = hIsland.sub(rect(6.339158794003047e-09, -5.128756504719903e-09).transl(7.391098442781326e-09, 4e-08, 0))
hIsland = hIsland.add(rect(4.623608409248778e-09, 1.7469220646234068e-09).transl(-2.5363081425790045e-08, 4e-08, 0))
hIsland = hIsland.add(rect(8.345451384341265e-09, 4.139552711984233e-09).transl(-3.5301826154088037e-08, 4e-08, 0))
hIsland = hIsland.sub(rect(3.006458959713359e-09, -2.334672169983231e-09).transl(-5.097587853472733e-08, 4e-08, 0))
hIsland = hIsland.add(rect(6.3001243514619765e-09, 2.6072566311866845e-09).transl(7.479825413922215e-08, 4e-08, 0))
hIsland = hIsland.add(rect(2.13276035255793e-09, 2.506081337868365e-09).transl(-3.3838577791988614e-08, 4e-08, 0))
hIsland = hIsland.add(rect(9.918454838613952e-09, 9.543545859792464e-10).transl(5.152712228432392e-09, 4e-08, 0))
hIsland = hIsland.sub(rect(3.5410568795669415e-09, -3.8590266260460997e-10).transl(7.896903142768205e-08, 4e-08, 0))
hIsland = hIsland.add(rect(5.83096285779747e-09, 3.0428961476049806e-10).transl(3.628969481866459e-08, 4e-08, 0))
hIsland = hIsland.sub(rect(6.634070278390379e-09, -2.7452771419337972e-09).transl(7.083077942440943e-08, 4e-08, 0))
hIsland = hIsland.add(rect(5.705141892261956e-09, 1.42791721102396e-09).transl(-4.99913780317682e-08, 4e-08, 0))
hIsland = hIsland.add(rect(2.8302093068071113e-09, 1.0351647758189493e-10).transl(4.5143340029081856e-08, 4e-08, 0))
hIsland = hIsland.sub(rect(4.161030192221689e-09, -3.0110513639859684e-09).transl(-8.254507872473363e-08, 3.940614271458177e-08, 0))
hIsland = hIsland.add(rect(3.202798260127489e-09, 4.082787258424154e-09).transl(1.774914453834263e-08, 4e-08, 0))
hIsland = hIsland.add(rect(6.088137138173547e-09, 2.659350281219853e-10).transl(-5.3777811661172944e-08, 4e-08, 0))
hIsland = hIsland.sub(rect(3.139988761037706e-09, -2.6624188518539484e-09).transl(7.971724417139744e-08, 4e-08, 0))
hIsland = hIsland.add(rect(4.691539943588725e-09, 3.6137449118748757e-09).transl(-7.70533378406161e-08, 4e-08, 0))
hIsland = hIsland.sub(rect(2.3806529370169546e-09, -3.1236919654169887e-10).transl(6.189371876918876e-08, 4e-08, 0))
hIsland = hIsland.sub(rect(9.588991879230795e-09, -1.5070963951601745e-09).transl(-7.796797731257415e-08, 4e-08, 0))
hIsland = hIsland.add(rect(8.737217229228606e-09, 1.1209138009784419e-10).transl(-7.261930371561835e-08, 4e-08, 0))
hIsland = hIsland.add(rect(6.626770217745025e-09, 3.699952442893337e-10).transl(-6.86235056899956e-08, 4e-08, 0))
hIsland = hIsland.sub(rect(5.592145121088059e-09, -1.0568586914537052e-09).transl(-1.1312172152266154e-08, 4e-08, 0))
hIsland = hIsland.add(rect(6.67851310325877e-09, 2.6493657974571077e-09).transl(3.564169257515204e-08, 4e-08, 0))
hIsland = hIsland.sub(rect(2.7969283274244896e-09, -2.0491871201171314e-10).transl(-5.2060223941504755e-08, 4e-08, 0))
hIsland = hIsland.sub(rect(4.0851786460389345e-09, -7.813988671835752e-10).transl(8.554249394501041e-08, 3.453128801594826e-08, 0))
hIsland = hIsland.sub(rect(6.425397501092626e-09, -2.508229111562516e-11).transl(-8.695743040872065e-08, 2.998238920968442e-08, 0))
hIsland = hIsland.sub(rect(3.856862509994163e-09, -2.53564892640137e-09).transl(5.081682613212134e-08, 4e-08, 0))
hIsland = hIsland.sub(rect(2.9685374104471064e-09, -3.207039946193109e-09).transl(5.033777963944021e-08, 4e-08, 0))
hIsland = hIsland.sub(rect(2.8019398853142175e-09, -1.2339995794742042e-09).transl(6.935092313226238e-08, 4e-08, 0))
hIsland = hIsland.sub(rect(6.609222124595477e-09, -1.033251327890306e-09).transl(8.882119286477522e-08, 1.9790977952986337e-08, 0))
hIsland = hIsland.sub(rect(6.004816304832957e-09, -2.462955170466281e-10).transl(-1.8682343534526396e-08, 4e-08, 0))
hIsland = hIsland.sub(rect(7.390167550441685e-09, -1.242152163616343e-09).transl(-2.322731378489278e-09, 4e-08, 0))
hIsland = hIsland.add(rect(2.709861917044801e-09, 9.746847902555933e-10).transl(4.92311863852932e-08, 4e-08, 0))
hIsland = hIsland.add(rect(7.121502839498857e-09, 1.1761233960635117e-09).transl(2.9383205294104578e-08, 4e-08, 0))
hIsland = hIsland.sub(rect(7.420444688933943e-09, -8.723969616505801e-10).transl(6.962110280719049e-09, 4e-08, 0))
hIsland = hIsland.sub(rect(3.4059558010529074e-09, -1.6084888125567522e-09).transl(-8.610497396414144e-11, 4e-08, 0))
hIsland = hIsland.add(rect(5.147187269131296e-09, 3.7743549675995185e-10).transl(-7.526534041134357e-09, 4e-08, 0))
hIsland = hIsland.sub(rect(3.2833582982091916e-09, -4.056162936265155e-09).transl(-7.151786562564295e-08, 4e-08, 0))
hIsland = hIsland.add(rect(7.043140840176666e-09, 1.8966591438194484e-09).transl(-4.102808361585346e-08, 4e-08, 0))
hIsland = hIsland.sub(rect(3.2187388461669075e-09, -2.3002882364736783e-09).transl(-4.2914100323040785e-08, 4e-08, 0))
hIsland = hIsland.add(rect(2.8976134717010186e-09, 5.91287001070024e-11).transl(5.967281459278102e-08, 4e-08, 0))
hIsland = hIsland.add(rect(5.117725830647712e-09, 2.4728298555730793e-10).transl(-1.6509632969820242e-09, 4e-08, 0))
hIsland = hIsland.sub(rect(6.4045819161250035e-09, -9.838221123962677e-10).transl(-4.8666773444905106e-08, 4e-08, 0))
hIsland = hIsland.sub(rect(9.560962654099215e-09, -2.840978846714541e-09).transl(-5.840195615552279e-08, 4e-08, 0))
hIsland = hIsland.sub(rect(8.57719547082974e-09, -3.691511754260981e-09).transl(-1.6277791979159477e-08, 4e-08, 0))
hIsland = hIsland.add(rect(4.902864020189879e-09, 3.319634821355187e-10).transl(-1.9336166914465983e-08, 4e-08, 0))
hIsland = hIsland.sub(rect(9.266650093451106e-09, -1.9425990042060335e-10).transl(4.282045996461338e-08, 4e-08, 0))
hIsland = hIsland.add(rect(8.40719436800018e-09, 5.244035692079361e-11).transl(-5.709256737725657e-08, 4e-08, 0))
hIsland = hIsland.add(rect(7.2490306591715734e-09, 1.3717482201852753e-09).transl(4.676904816115284e-08, 4e-08, 0))
hIsland = hIsland.add(rect(8.160710142704269e-09, 1.1822241770277054e-09).transl(-2.7322848268179092e-08, 4e-08, 0))
hIsland = hIsland.sub(rect(3.777805696352969e-09, -3.908499389363086e-09).transl(1.8380961067383948e-08, 4e-08, 0))
hIsland = hIsland.add(rect(7.95956878173495e-09, 1.5283329840481904e-09).transl(3.2979417684936594e-08, 4e-08, 0))
hIsland = hIsland.add(rect(2.5946952452299367e-09, 2.1458410895349062e-10).transl(1.7830049771531144e-08, 4e-08, 0))
hIsland = hIsland.add(rect(3.6453962505385946e-09, 3.352321868462389e-09).transl(-8.754809906519732e-08, 2.7441483828563773e-08, 0))
hIsland = hIsland.add(rect(5.199847293153123e-09, 5.072636233056858e-10).transl(-4.5694656412718335e-08, 4e-08, 0))
hIsland = hIsland.add(rect(5.9326159752548375e-09, 1.2874919561266903e-09).transl(4.1842679401377825e-08, 4e-08, 0))
hIsland = hIsland.sub(rect(8.903009401457108e-09, -3.9139491114201455e-09).transl(-1.7976579696039078e-08, 4e-08, 0))
hIsland = hIsland.add(rect(6.3572940359929004e-09, 1.8776078912080944e-09).transl(8.057383538926265e-08, 4e-08, 0))
hIsland = hIsland.add(rect(8.517733146773978e-09, 3.2031950785859375e-09).transl(6.174221144117737e-08, 4e-08, 0))
hIsland = hIsland.sub(rect(5.139417974008521e-09, -1.8367051482516335e-09).transl(1.5535949597197868e-09, 4e-08, 0))
hIsland = hIsland.sub(rect(3.2597720574788936e-09, -4.756373030593247e-10).transl(-5.0994482174182507e-08, 4e-08, 0))
hIsland = hIsland.sub(rect(4.8778573820344584e-09, -1.7096470541507802e-09).transl(-5.7488215767917037e-08, 4e-08, 0))
hIsland = hIsland.add(rect(9.226879062782175e-09, 2.670215812629178e-09).transl(-5.421867699155476e-08, 4e-08, 0))
hIsland = hIsland.sub(rect(8.409844269052858e-09, -1.8380477812245568e-09).transl(4.364635264350927e-08, 4e-08, 0))
hIsland = hIsland.add(rect(8.451130058729824e-09, 2.536816157455505e-10).transl(3.7177520194487946e-08, 4e-08, 0))
hIsland = hIsland.sub(rect(5.072359061457407e-09, -5.245934807101496e-11).transl(-7.776520983669295e-08, 4e-08, 0))
hIsland = hIsland.sub(rect(8.378704843747472e-09, -5.157010437703921e-12).transl(-5.205283925702292e-08, 4e-08, 0))
hIsland = hIsland.add(rect(8.502891705836114e-09, 5.156306243148198e-10).transl(3.518759242673937e-08, 4e-08, 0))
hIsland = hIsland.sub(rect(5.947132841443493e-09, -3.857635083299308e-10).transl(-1.3844888108179944e-08, 4e-08, 0))
hIsland = hIsland.add(rect(5.5445926994565616e-09, 1.8182283687550409e-09).transl(-2.5545683527309427e-08, 4e-08, 0))
hIsland = hIsland.sub(rect(3.5465227856675548e-09, -5.384294223451906e-10).transl(7.808157878455342e-08, 4e-08, 0))
hIsland = hIsland.add(rect(5.386579006098127e-09, 2.6604998159857885e-09).transl(8.880920099879438e-08, 1.9884297302604165e-08, 0))
hIsland = hIsland.add(rect(5.326348951898338e-09, 7.811752969634532e-10).transl(-7.123165428231805e-08, 4e-08, 0))
hIsland = hIsland.add(rect(7.967677586307753e-09, 1.0315642900289838e-09).transl(7.68401129027169e-08, 4e-08, 0))
hIsland = hIsland.add(rect(9.463374349575742e-09, 2.5013970405712655e-09).transl(-3.299015978154032e-08, 4e-08, 0))
hIsland = hIsland.add(rect(3.2841284704387386e-09, 4.176305278871658e-09).transl(-7.168376840069743e-08, 4e-08, 0))
hIsland = hIsland.sub(rect(5.721187072174509e-09, -4.033698030828491e-09).transl(-8.089654711225353e-09, 4e-08, 0))
hIsland = hIsland.sub(rect(4.463688059796942e-09, -1.944929339169203e-09).transl(5.905077239368033e-08, 4e-08, 0))
hIsland = hIsland.add(rect(4.075371843590702e-09, 1.0399895833351511e-09).transl(-7.51790104999119e-08, 4e-08, 0))
hIsland = hIsland.sub(rect(2.138987955602841e-09, -2.116295204947698e-09).transl(-1.6375014551352086e-08, 4e-08, 0))
hIsland = hIsland.sub(rect(5.272740617163577e-09, -2.0007428461812743e-09).transl(-4.8228935882915715e-08, 4e-08, 0))
hIsland = hIsland.sub(rect(2.600605898401777e-09, -1.4053893519939934e-09).transl(-4.17020636102624e-08, 4e-08, 0))
hIsland = hIsland.add(rect(7.413870141788218e-09, 6.96943974129817e-10).transl(-6.751595459619888e-08, 4e-08, 0))
hIsland = hIsland.sub(rect(5.410481364853504e-09, -1.0056886150612825e-09).transl(5.8797884160492995e-08, 4e-08, 0))
hIsland = hIsland.add(rect(2.623641981269395e-09, 1.1002777112700885e-09).transl(6.420229670890418e-08, 4e-08, 0))
hIsland = hIsland.add(rect(6.001109133961908e-09, 1.5188988176386884e-09).transl(-6.288837196677509e-08, 4e-08, 0))
hIsland = hIsland.add(rect(2.8862879564107963e-09, 8.753861442866027e-10).transl(5.774167075092116e-08, 4e-08, 0))
hIsland = hIsland.sub(rect(4.332628433307706e-09, -8.51259037178361e-10).transl(-8.346705579981853e-08, 3.846785046784433e-08, 0))
hIsland = hIsland.sub(rect(4.142790338042879e-09, -3.806256471062831e-10).transl(8.301755168879022e-08, 3.8981980055508906e-08, 0))
hIsland = hIsland.sub(rect(4.69181521401269e-09, -2.3501210512757665e-09).transl(-4.162469707772112e-08, 4e-08, 0))
hIsland = hIsland.add(rect(2.9216748817808054e-09, 5.076367910784265e-09).transl(-9.97254037188904e-09, 4e-08, 0))
hIsland = hIsland.sub(rect(4.741451775651776e-09, -1.8021510525473372e-09).transl(4.774673081870386e-08, 4e-08, 0))
hIsland = hIsland.sub(rect(3.402087331490325e-09, -3.822498687641738e-10).transl(-4.761597368623085e-08, 4e-08, 0))
hIsland = hIsland.add(rect(6.419286639067958e-09, 1.3453902534348645e-09).transl(5.638619667896362e-08, 4e-08, 0))
hIsland = hIsland.sub(rect(3.4375448275956324e-09, -1.3870256231992398e-09).transl(-7.28299037071271e-08, 4e-08, 0))
hIsland = hIsland.sub(rect(4.049228114380499e-09, -2.806654185284289e-09).transl(5.939254695054887e-08, 4e-08, 0))
hIsland = hIsland.add(rect(8.470487134204718e-09, 5.467298545164186e-10).transl(6.591223922749641e-08, 4e-08, 0))
hIsland = hIsland.sub(rect(6.213452311852884e-09, -4.1156801747541425e-09).transl(-5.029068077248631e-08, 4e-08, 0))
hIsland = hIsland.add(rect(5.600591195366115e-09, 6.373060061835906e-10).transl(-3.61700667970465e-08, 4e-08, 0))
hIsland = hIsland.sub(rect(2.7602676166975163e-09, -9.770332836549608e-10).transl(-4.096197951827711e-08, 4e-08, 0))
hIsland = hIsland.add(rect(2.822615850848913e-09, 9.440930482511236e-10).transl(-5.759893531802062e-08, 4e-08, 0))
hIsland = hIsland.add(rect(8.344297960764192e-09, 2.0816186054630764e-09).transl(8.320976168619221e-08, 3.8775569065461314e-08, 0))
hIsland = hIsland.add(rect(3.1821735476480433e-09, 1.2731574435411943e-09).transl(-4.652606573333107e-08, 4e-08, 0))
hIsland = hIsland.add(rect(5.7266221449783686e-09, 1.4515891317947434e-10).transl(1.5858114474145842e-08, 4e-08, 0))
hIsland = hIsland.add(rect(8.002730927043296e-09, 2.8951772896243377e-10).transl(-8.296083438317447e-08, 3.903910758992191e-08, 0))
hIsland = hIsland.sub(rect(6.554993784981893e-09, -7.192685603948629e-10).transl(4.908697600166396e-08, 4e-08, 0))
hIsland = hIsland.add(rect(7.464706832997634e-09, 1.8020247542134508e-09).transl(1.734695578745977e-08, 4e-08, 0))
hIsland = hIsland.add(rect(7.068697778553397e-09, 3.5270972540402565e-09).transl(6.100921412715963e-08, 4e-08, 0))
hIsland = hIsland.add(rect(9.513224643302486e-09, 7.229577418046907e-12).transl(2.1870354498989687e-10, 4e-08, 0))
hIsland = hIsland.add(rect(7.244724135595439e-09, 1.0788637576437859e-09).transl(1.9621127535397335e-08, 4e-08, 0))
hIsland = hIsland.sub(rect(7.97175012360272e-09, -2.335315620275043e-09).transl(4.4551935396010895e-08, 4e-08, 0))
hIsland = hIsland.sub(rect(7.670299924409402e-09, -8.736472993052307e-10).transl(7.459331221261324e-08, 4e-08, 0))
hIsland = hIsland.sub(rect(5.869893765871248e-09, -2.8222612476163826e-10).transl(-6.947013872669537e-08, 4e-08, 0))
hIsland = hIsland.add(rect(2.6619480207715872e-09, 1.1506365556474284e-09).transl(-5.4639744238533586e-08, 4e-08, 0))
hIsland = hIsland.add(rect(4.86337828656937e-09, 6.905295266080598e-11).transl(3.002425316375952e-08, 4e-08, 0))
hIsland = hIsland.add(rect(7.13890354576875e-09, 2.0117500274436228e-10).transl(-1.8814230033570668e-08, 4e-08, 0))
hIsland = hIsland.add(rect(2.5023296581546284e-09, 2.5713947447296138e-09).transl(5.120450132703344e-08, 4e-08, 0))
hIsland = hIsland.sub(rect(6.7578193556413655e-09, -2.858580934013834e-09).transl(5.265462193051833e-08, 4e-08, 0))
hIsland = hIsland.sub(rect(3.1553090195014662e-09, -2.0197803230035296e-09).transl(4.543633743938229e-08, 4e-08, 0))
hIsland = hIsland.sub(rect(6.128924195333701e-09, -3.188763632078525e-09).transl(-1.1783580139023815e-08, 4e-08, 0))
hIsland = hIsland.add(rect(2.8896018797888544e-09, 1.0009015514270972e-10).transl(-6.363257664436199e-08, 4e-08, 0))
hIsland = hIsland.sub(rect(6.054986723500065e-09, -1.1709754925582858e-09).transl(-5.989166753598736e-10, 4e-08, 0))
hIsland = hIsland.sub(rect(3.5154509364103053e-09, -1.449925804549236e-09).transl(1.9145172017066303e-08, 4e-08, 0))
hIsland = hIsland.sub(rect(2.2492598290764425e-09, -1.7728736324876786e-09).transl(8.75059317687283e-08, 2.76388889811375e-08, 0))
hIsland = hIsland.sub(rect(8.535528750217926e-09, -2.1530593212611e-09).transl(-4.483784563722356e-08, 4e-08, 0))
hIsland = hIsland.add(rect(2.3988061200592687e-09, 8.509193029983696e-10).transl(-3.8562765598277126e-11, 4e-08, 0))
hIsland = hIsland.sub(rect(9.923133753931169e-09, -1.8063017961408124e-09).transl(8.754076166003953e-08, 2.747602749749504e-08, 0))
hIsland = hIsland.sub(rect(7.027272715086931e-09, -2.0386412826660885e-09).transl(-5.290959525030751e-08, 4e-08, 0))
hIsland = hIsland.sub(rect(9.491430310711524e-09, -2.1844704503995482e-09).transl(5.8073725439713096e-08, 4e-08, 0))
hIsland = hIsland.add(rect(2.5691208974978545e-09, 9.354908488931247e-10).transl(7.376672087305633e-08, 4e-08, 0))
hIsland = hIsland.add(rect(4.589999077038146e-09, 3.255519468664474e-09).transl(6.2215743546796e-08, 4e-08, 0))
hIsland = hIsland.sub(rect(7.046290695933352e-09, -4.687034422455685e-11).transl(9.474280095862046e-09, 4e-08, 0))
hIsland = hIsland.sub(rect(5.662868088862672e-09, -1.868469394979746e-09).transl(8.829641041775945e-08, 2.3417792123996192e-08, 0))
hIsland = hIsland.add(rect(4.318194801155845e-09, 3.908565028464976e-11).transl(-5.31338171456443e-08, 4e-08, 0))
hIsland = hIsland.sub(rect(5.329915930931805e-09, -3.249680623102446e-09).transl(9.912303212527439e-09, 4e-08, 0))
hIsland = hIsland.sub(rect(2.3186951242724388e-09, -2.761899391468068e-09).transl(-7.947840604412841e-09, 4e-08, 0))
hIsland = hIsland.sub(rect(4.747028006165522e-09, -4.578137152974285e-10).transl(-7.29479781746665e-08, 4e-08, 0))
hIsland = hIsland.add(rect(8.112018384346101e-09, 5.4965469795143286e-09).transl(-1.0407027394624101e-08, 4e-08, 0))
hIsland = hIsland.add(rect(4.154459189628136e-09, 4.6276908672038224e-10).transl(-2.742257479085797e-08, 4e-08, 0))
hIsland = hIsland.add(rect(8.298800460968485e-09, 8.687937830305614e-10).transl(3.8351585638373635e-08, 4e-08, 0))
hIsland = hIsland.sub(rect(9.228111047296352e-09, -7.379731927845412e-10).transl(-4.978208186840731e-09, 4e-08, 0))
hIsland = hIsland.add(rect(4.118933786991716e-09, 1.9681545809755324e-10).transl(4.302798003198366e-08, 4e-08, 0))
hIsland = hIsland.sub(rect(4.632219780028543e-09, -9.449190975875571e-10).transl(-3.837203142009234e-09, 4e-08, 0))
hIsland = hIsland.sub(rect(2.7340542589342436e-09, -1.0851028030159342e-09).transl(-4.4839357631267053e-08, 4e-08, 0))
hIsland = hIsland.sub(rect(7.5669566442458e-09, -5.488898768505285e-10).transl(7.089358280349992e-08, 4e-08, 0))
hIsland = hIsland.sub(rect(2.2256804826806055e-09, -5.435603195673273e-10).transl(-1.5578365531782183e-08, 4e-08, 0))
hIsland = hIsland.add(rect(7.3403712229180885e-09, 4.469492041547083e-10).transl(-4.444483746977993e-08, 4e-08, 0))
hIsland = hIsland.sub(rect(8.369342847869025e-09, -1.0137569104018285e-09).transl(1.84311481007921e-08, 4e-08, 0))
hIsland = hIsland.sub(rect(4.176225027384877e-09, -2.799659057270327e-09).transl(-5.991726611110002e-08, 4e-08, 0))
hIsland = hIsland.add(rect(3.944802156735397e-09, 1.406130286752028e-09).transl(-3.5605789391173834e-08, 4e-08, 0))
hIsland = hIsland.sub(rect(6.765016529955618e-09, -5.86104544377536e-10).transl(7.536969651167074e-08, 4e-08, 0))
hIsland = hIsland.add(rect(4.3679616251665664e-09, 1.3658526418072757e-09).transl(6.608003301979138e-08, 4e-08, 0))
hIsland = hIsland.sub(rect(9.383447153293456e-09, -1.7630700147058785e-09).transl(6.202250575067724e-08, 4e-08, 0))
hIsland = hIsland.sub(rect(2.0541687280568354e-09, -3.276111217527763e-09).transl(-2.3263898488876967e-09, 4e-08, 0))
hIsland = hIsland.sub(rect(3.947311053747246e-09, -6.431033142986961e-12).transl(-1.4925143773764768e-08, 4e-08, 0))
hIsland = hIsland.add(rect(9.373334396975278e-09, 8.377465699041484e-10).transl(-6.05911082717466e-08, 4e-08, 0))
hIsland = hIsland.sub(rect(4.352292734028226e-09, -3.5230688592201447e-10).transl(-3.074478703501749e-08, 4e-08, 0))
hIsland = hIsland.add(rect(5.204914646035808e-09, 3.420823971155246e-09).transl(2.7871074172095326e-08, 4e-08, 0))
hIsland = hIsland.sub(rect(6.058403678351727e-09, -3.802876862986203e-09).transl(-3.259628753606889e-08, 4e-08, 0))
hIsland = hIsland.add(rect(2.82187279636392e-09, 2.426921401104637e-09).transl(3.85589756937043e-08, 4e-08, 0))
hIsland = hIsland.sub(rect(4.550543206227627e-09, -1.6651222203426349e-09).transl(-4.229833088837139e-08, 4e-08, 0))
hIsland = hIsland.sub(rect(2.9866600276025105e-09, -1.6600130653521484e-09).transl(6.4543121190846595e-09, 4e-08, 0))
hIsland = hIsland.sub(rect(4.2528957021036096e-09, -5.129963730779641e-09).transl(-7.877125789714388e-09, 4e-08, 0))
hIsland = hIsland.add(rect(9.502962852203298e-09, 1.5625266762914067e-09).transl(-4.025840226227037e-08, 4e-08, 0))
hIsland = hIsland.add(rect(8.126785142162643e-09, 2.309682026090527e-09).transl(5.452804931359427e-08, 4e-08, 0))
hIsland = hIsland.add(rect(4.710342634312489e-09, 1.9934747183884037e-09).transl(8.750697461018218e-08, 2.763403927881523e-08, 0))
hIsland = hIsland.sub(rect(5.879011738519585e-09, -1.391870469025652e-09).transl(-3.18866395446062e-08, 4e-08, 0))
hIsland = hIsland.sub(rect(7.030675916119523e-09, -2.7093169851442533e-10).transl(-7.443377396757782e-08, 4e-08, 0))
hIsland = hIsland.sub(rect(5.405297992203292e-09, -2.3168623497349962e-10).transl(-1.0053294287192184e-08, 4e-08, 0))
hIsland = hIsland.add(rect(6.982118051599475e-09, 4.401220979976315e-09).transl(-6.990112383470071e-08, 4e-08, 0))
hIsland = hIsland.sub(rect(7.348656133728697e-09, -2.4661961282157693e-09).transl(-5.5395263706875155e-08, 4e-08, 0))
hIsland = hIsland.sub(rect(4.498980804748756e-09, -2.3895357171699215e-10).transl(1.5970700310448522e-08, 4e-08, 0))
hIsland = hIsland.sub(rect(8.009428459376032e-09, -6.358030857385708e-10).transl(4.289360235426179e-08, 4e-08, 0))
hIsland = hIsland.add(rect(6.5574417571188576e-09, 2.1268760310352565e-09).transl(5.971880987829003e-08, 4e-08, 0))
hIsland = hIsland.add(rect(8.602560906889604e-09, 1.7100527021039148e-09).transl(-7.63585795042191e-08, 4e-08, 0))
hIsland = hIsland.add(rect(8.243833129097887e-09, 9.517920963169766e-10).transl(7.248545216909274e-08, 4e-08, 0))
hIsland = hIsland.add(rect(3.2814489141024804e-09, 8.952549744797533e-10).transl(-3.2949219700663874e-08, 4e-08, 0))
hIsland = hIsland.sub(rect(6.533417018073454e-09, -6.552933498007991e-10).transl(-6.363271695138026e-08, 4e-08, 0))
hIsland = hIsland.add(rect(3.1818525556836805e-09, 1.5512914705022924e-10).transl(7.269333953394211e-08, 4e-08, 0))
hIsland = hIsland.sub(rect(9.655485726877487e-09, -4.241607377369407e-09).transl(4.3208629000182646e-09, 4e-08, 0))
hIsland = hIsland.add(rect(6.667792681113348e-09, 1.8770513716544997e-09).transl(4.105987080831923e-08, 4e-08, 0))
hIsland = hIsland.sub(rect(6.622555225962864e-09, -1.724078461644695e-10).transl(9.129656342757202e-09, 4e-08, 0))
hIsland = hIsland.add(rect(4.001211128090187e-09, 2.123542910442316e-09).transl(5.397630558478988e-08, 4e-08, 0))
hIsland = hIsland.add(rect(4.9941218277473235e-09, 1.0522584107729438e-09).transl(-8.183782962882169e-08, 3.982629976968189e-08, 0))
hIsland = hIsland.add(rect(3.0476660580267945e-09, 1.4842716424619699e-09).transl(-5.514338683273819e-08, 4e-08, 0))
hIsland = hIsland.sub(rect(8.584278218235988e-09, -8.202432935758156e-10).transl(2.0227104097387725e-08, 4e-08, 0))
hIsland = hIsland.add(rect(4.318622617592913e-09, 2.2287735662501073e-09).transl(-6.833714290913925e-08, 4e-08, 0))
hIsland = hIsland.add(rect(6.635845385010179e-09, 1.379347636516093e-09).transl(3.2288808075640675e-08, 4e-08, 0))
hIsland = hIsland.sub(rect(6.7324485045028455e-09, -3.9799989417251687e-10).transl(6.159322892987642e-08, 4e-08, 0))
hIsland = hIsland.sub(rect(8.270789780656326e-09, -2.652091473871524e-09).transl(-5.4497236441600135e-08, 4e-08, 0))
vIsland = hIsland.rotz(pi / 2)
hIslands = hIslands.add(hIsland.transl(-a/2, a, 0))
hIsland = rect(islandLength-2*ellipseConstant, islandWidth)
hIsland = hIsland.add(ellipse(ellipseConstant*2, islandWidth).transl(islandLength/2-ellipseConstant, 0, 0))
hIsland = hIsland.add(ellipse(ellipseConstant*2, islandWidth).transl(-islandLength/2+ellipseConstant, 0, 0))
hIsland = hIsland.sub(rect(3.814239090209948e-09, -1.902837828614376e-09).transl(2.0341274961731225e-08, -4e-08, 0))
hIsland = hIsland.sub(rect(6.475737732720783e-09, -2.7157469637038633e-09).transl(5.4156229503914256e-08, -4e-08, 0))
hIsland = hIsland.add(rect(9.83324998364484e-09, 2.666034494263309e-09).transl(6.49379111376807e-08, -4e-08, 0))
hIsland = hIsland.sub(rect(5.098704131033947e-09, -9.552231631544979e-11).transl(-8.040593274533555e-08, -4e-08, 0))
hIsland = hIsland.sub(rect(5.877559014948942e-09, -3.29433134336709e-10).transl(1.3976769129742885e-08, -4e-08, 0))
hIsland = hIsland.add(rect(7.348673081537278e-09, 2.456428222265059e-10).transl(3.9806233792694597e-08, -4e-08, 0))
hIsland = hIsland.sub(rect(8.473060258720888e-09, -4.380173345640543e-09).transl(-2.5315418111719073e-08, -4e-08, 0))
hIsland = hIsland.sub(rect(4.179209462734589e-09, -5.108931594999033e-09).transl(5.0263305296520664e-08, -4e-08, 0))
hIsland = hIsland.add(rect(5.382197153877921e-09, 1.1092189991370119e-09).transl(-3.5324394324438705e-08, -4e-08, 0))
hIsland = hIsland.add(rect(3.594832603656987e-09, 7.083678479525752e-10).transl(-3.2668056824459006e-08, -4e-08, 0))
hIsland = hIsland.add(rect(3.9914427272260126e-09, 1.03533214747382e-09).transl(-6.108335353349182e-08, -4e-08, 0))
hIsland = hIsland.add(rect(2.348913225007138e-09, 9.715172757394165e-10).transl(5.339906850212679e-08, -4e-08, 0))
hIsland = hIsland.add(rect(5.35252572620546e-09, 7.017604503643346e-10).transl(4.6727447683755567e-08, -4e-08, 0))
hIsland = hIsland.add(rect(2.7804435991902095e-09, 1.8910072271295058e-09).transl(8.495729930704649e-08, -3.592578968282819e-08, 0))
hIsland = hIsland.sub(rect(2.9629789034702407e-09, -1.1309849589246882e-10).transl(6.114091361403603e-08, -4e-08, 0))
hIsland = hIsland.sub(rect(6.163708980238955e-09, -4.280447338597759e-09).transl(6.91694759918942e-08, -4e-08, 0))
hIsland = hIsland.sub(rect(4.840062030260106e-09, -3.1587020459125925e-10).transl(7.537880924541649e-08, -4e-08, 0))
hIsland = hIsland.sub(rect(4.529456904665398e-09, -1.435247097990448e-09).transl(-3.2233441299528856e-09, -4e-08, 0))
hIsland = hIsland.sub(rect(5.100280950675324e-09, -5.653430199757671e-10).transl(-3.491370135976932e-09, -4e-08, 0))
hIsland = hIsland.sub(rect(6.78032384001196e-09, -1.3264042791051096e-09).transl(-7.43728663959903e-08, -4e-08, 0))
hIsland = hIsland.sub(rect(6.6125557564692464e-09, -2.0571264388077557e-10).transl(-7.457136797702977e-08, -4e-08, 0))
hIsland = hIsland.sub(rect(5.5262097028052656e-09, -2.296852360529898e-09).transl(7.977985935265736e-08, -4e-08, 0))
hIsland = hIsland.add(rect(4.117995487290765e-09, 1.506472750880255e-09).transl(-6.1012580853291915e-09, -4e-08, 0))
hIsland = hIsland.sub(rect(6.018852543001366e-09, -1.728366106603074e-09).transl(4.350415930990925e-08, -4e-08, 0))
hIsland = hIsland.add(rect(9.024884732828713e-09, 1.411929883863377e-10).transl(7.187614134971524e-09, -4e-08, 0))
hIsland = hIsland.sub(rect(9.094400071897962e-09, -2.0412705951498833e-09).transl(7.354044354059308e-08, -4e-08, 0))
hIsland = hIsland.sub(rect(8.719044616576262e-09, -7.995118470345442e-10).transl(8.597153054954538e-08, -3.3343371524057834e-08, 0))
hIsland = hIsland.add(rect(7.337517168903014e-09, 8.6748681421074e-10).transl(-5.3912861659293176e-08, -4e-08, 0))
hIsland = hIsland.add(rect(6.863180620204896e-09, 8.934091790309012e-10).transl(-7.224303113303791e-08, -4e-08, 0))
hIsland = hIsland.add(rect(9.15599829999856e-09, 3.1164460402859006e-09).transl(1.5634866619312253e-08, -4e-08, 0))
hIsland = hIsland.sub(rect(9.280956152695819e-09, -4.266891434335746e-09).transl(-3.764940589622452e-08, -4e-08, 0))
hIsland = hIsland.add(rect(8.782314371198269e-09, 7.777298926661402e-10).transl(-1.3437807661235588e-08, -4e-08, 0))
hIsland = hIsland.sub(rect(7.321540171072085e-09, -1.6313431805514027e-09).transl(-8.082930188642575e-08, -4e-08, 0))
hIsland = hIsland.add(rect(5.988823490375e-09, 2.587738136008933e-09).transl(3.689516521350641e-08, -4e-08, 0))
hIsland = hIsland.sub(rect(6.570084885924034e-09, -1.4157450953286285e-09).transl(-2.2558011817122106e-08, -4e-08, 0))
hIsland = hIsland.add(rect(2.9732124848221464e-09, 2.1852345462221624e-09).transl(4.552836467783831e-08, -4e-08, 0))
hIsland = hIsland.sub(rect(3.968888907267777e-09, -3.388693538578436e-10).transl(2.5130806694378565e-08, -4e-08, 0))
hIsland = hIsland.sub(rect(8.408422036938924e-09, -1.6193392223321756e-10).transl(1.0280073454122193e-08, -4e-08, 0))
hIsland = hIsland.sub(rect(4.227930035994221e-09, -4.979410630503474e-10).transl(3.4882784236417714e-08, -4e-08, 0))
hIsland = hIsland.add(rect(5.003923026344624e-09, 1.323020469097773e-09).transl(-3.316795145895035e-08, -4e-08, 0))
hIsland = hIsland.add(rect(9.218867748124133e-09, 3.5506723372281926e-10).transl(-5.482240194165175e-08, -4e-08, 0))
hIsland = hIsland.sub(rect(4.392639368285337e-09, -1.611359190112843e-09).transl(-7.0022686148878366e-09, -4e-08, 0))
hIsland = hIsland.sub(rect(2.940155468110324e-09, -5.493807169920175e-10).transl(-4.354343822301403e-08, -4e-08, 0))
hIsland = hIsland.sub(rect(7.1715517122867066e-09, -2.5067874538446507e-10).transl(1.006788090022145e-08, -4e-08, 0))
hIsland = hIsland.sub(rect(5.082553882028432e-09, -2.5305935426916065e-09).transl(-2.3501548287356982e-08, -4e-08, 0))
hIsland = hIsland.sub(rect(7.66953284016035e-09, -1.0833210542445095e-09).transl(-8.458725637738856e-08, -3.668527250038306e-08, 0))
hIsland = hIsland.add(rect(9.67249175690499e-09, 1.4334549961194155e-09).transl(3.7746518265456525e-08, -4e-08, 0))
hIsland = hIsland.sub(rect(3.782242174888812e-09, -6.541912390847741e-09).transl(-1.8250414982927433e-08, -4e-08, 0))
hIsland = hIsland.add(rect(5.751418588125866e-09, 4.1828805877849484e-10).transl(-1.717226919385851e-08, -4e-08, 0))
hIsland = hIsland.add(rect(3.2454244821914875e-09, 3.435196604773721e-09).transl(2.8589447316962375e-09, -4e-08, 0))
hIsland = hIsland.sub(rect(7.67057469617212e-09, -3.9536636154552135e-09).transl(-1.1179120993160288e-08, -4e-08, 0))
hIsland = hIsland.sub(rect(6.254049808730431e-09, -4.276380917366915e-10).transl(-1.9110964880168658e-08, -4e-08, 0))
hIsland = hIsland.add(rect(5.027729972325771e-09, 3.2502661974886542e-09).transl(-3.088781463012089e-08, -4e-08, 0))
hIsland = hIsland.sub(rect(6.7778547793117e-09, -1.7786751306801473e-09).transl(-1.801916873147465e-08, -4e-08, 0))
hIsland = hIsland.sub(rect(5.155827806597688e-09, -6.947401100133261e-10).transl(-6.11214605340322e-08, -4e-08, 0))
hIsland = hIsland.sub(rect(5.941276432632409e-09, -3.15177498475537e-09).transl(-2.1599755655844634e-08, -4e-08, 0))
hIsland = hIsland.sub(rect(8.369447393258106e-09, -9.574714725197315e-10).transl(8.28694904620321e-08, -3.912752317581572e-08, 0))
hIsland = hIsland.sub(rect(8.05017716804647e-09, -1.7376193372951124e-09).transl(5.395908997610771e-08, -4e-08, 0))
hIsland = hIsland.sub(rect(3.358657266155586e-09, -1.865823457187212e-09).transl(5.67161739358383e-08, -4e-08, 0))
hIsland = hIsland.sub(rect(5.524154291252613e-09, -2.4996794954526247e-09).transl(3.482590056172618e-08, -4e-08, 0))
hIsland = hIsland.add(rect(7.687671299442156e-09, 1.391676329450681e-09).transl(7.324488865529331e-08, -4e-08, 0))
hIsland = hIsland.sub(rect(5.033666303682614e-09, -2.34929920900941e-09).transl(-4.908632364270779e-08, -4e-08, 0))
hIsland = hIsland.add(rect(7.495111106933742e-09, 1.5276026453975183e-09).transl(-7.648844007795836e-08, -4e-08, 0))
hIsland = hIsland.sub(rect(6.331376086717155e-09, -5.489984882619958e-10).transl(-5.603818053061364e-08, -4e-08, 0))
hIsland = hIsland.add(rect(3.240565209198241e-09, 2.931344586650244e-10).transl(-1.864862979071672e-10, -4e-08, 0))
hIsland = hIsland.add(rect(3.107833437447682e-09, 8.636345572865839e-10).transl(2.7484410853085515e-08, -4e-08, 0))
hIsland = hIsland.sub(rect(5.544711375564599e-09, -8.607552337897051e-10).transl(-5.547430738678898e-08, -4e-08, 0))
hIsland = hIsland.sub(rect(9.921798705276653e-09, -8.471369245986463e-10).transl(-2.104127985033082e-08, -4e-08, 0))
hIsland = hIsland.add(rect(3.5431056429818403e-09, 3.814179473330854e-09).transl(-7.481688522784348e-08, -4e-08, 0))
hIsland = hIsland.add(rect(6.3596160739675115e-09, 4.152567176960208e-09).transl(-1.4333781608081592e-08, -4e-08, 0))
hIsland = hIsland.add(rect(5.3159760263357855e-09, 1.020404586450131e-09).transl(-3.034131342697289e-08, -4e-08, 0))
hIsland = hIsland.add(rect(9.753854686039948e-09, 2.413138800620288e-09).transl(8.052414713765253e-08, -4e-08, 0))
hIsland = hIsland.sub(rect(6.099424940428562e-09, -3.01430627607746e-09).transl(2.5769982707191063e-08, -4e-08, 0))
hIsland = hIsland.sub(rect(4.847116052813793e-09, -6.89374528422095e-10).transl(-4.2984334951006596e-08, -4e-08, 0))
hIsland = hIsland.sub(rect(2.251185645766289e-09, -2.539219315571483e-09).transl(7.859115454695463e-08, -4e-08, 0))
hIsland = hIsland.add(rect(3.732176233646542e-09, 3.0258483237882016e-09).transl(-6.183262828342122e-08, -4e-08, 0))
hIsland = hIsland.add(rect(8.892510385102767e-09, 3.6617143980891726e-09).transl(3.4572021629003064e-08, -4e-08, 0))
hIsland = hIsland.add(rect(8.287428750736289e-09, 6.963656548539756e-10).transl(2.6136584416236944e-08, -4e-08, 0))
hIsland = hIsland.add(rect(2.567348349966935e-09, 6.39762339291116e-10).transl(2.7721277639361194e-08, -4e-08, 0))
hIsland = hIsland.sub(rect(3.198123585180927e-09, -7.087175924331133e-10).transl(6.961553696524973e-08, -4e-08, 0))
hIsland = hIsland.add(rect(9.068724578106847e-09, 5.651838534228939e-10).transl(8.431221254235649e-08, -3.7192657731346856e-08, 0))
hIsland = hIsland.add(rect(9.473999568365042e-09, 5.980335622513606e-10).transl(-3.964178205983508e-08, -4e-08, 0))
hIsland = hIsland.sub(rect(8.967876872699114e-09, -1.61311093149181e-10).transl(7.833874330233334e-08, -4e-08, 0))
hIsland = hIsland.sub(rect(8.878671139401576e-09, -3.5630591411918558e-09).transl(-8.051130567334046e-08, -4e-08, 0))
hIsland = hIsland.sub(rect(8.506930555909464e-09, -1.3299285674795586e-10).transl(6.843919103251227e-09, -4e-08, 0))
hIsland = hIsland.sub(rect(6.378378141088236e-09, -1.3614476994754688e-10).transl(3.207722603055396e-08, -4e-08, 0))
hIsland = hIsland.sub(rect(5.010249379505402e-09, -3.346217352781515e-10).transl(6.851537595361308e-08, -4e-08, 0))
hIsland = hIsland.add(rect(3.4661309151972958e-09, 2.012924928843157e-09).transl(-6.243520620918001e-08, -4e-08, 0))
hIsland = hIsland.sub(rect(6.967151552572071e-09, -1.2838302119227093e-10).transl(6.539502809186248e-08, -4e-08, 0))
hIsland = hIsland.sub(rect(9.333865337844464e-09, -1.8447443733932558e-09).transl(5.900461778214258e-08, -4e-08, 0))
hIsland = hIsland.sub(rect(4.337149513129618e-09, -2.3481670077868488e-09).transl(-6.096759674636242e-08, -4e-08, 0))
hIsland = hIsland.sub(rect(6.155092252580691e-09, -1.353197121123351e-09).transl(5.963916605304405e-08, -4e-08, 0))
hIsland = hIsland.add(rect(2.8566989339494155e-09, 7.266710748064743e-10).transl(-5.3599173211856004e-08, -4e-08, 0))
hIsland = hIsland.add(rect(8.690239220202252e-09, 2.4460800274358867e-09).transl(7.477698033945146e-08, -4e-08, 0))
hIsland = hIsland.sub(rect(5.155472505983377e-09, -1.3288305184025534e-09).transl(5.666057742457853e-08, -4e-08, 0))
hIsland = hIsland.sub(rect(3.096565042637316e-09, -1.8284291228021443e-09).transl(-4.37343677285916e-08, -4e-08, 0))
hIsland = hIsland.add(rect(4.635096608130013e-09, 5.250435491697457e-10).transl(4.604320376749153e-09, -4e-08, 0))
hIsland = hIsland.add(rect(5.764048717697814e-09, 4.235192510042098e-10).transl(8.782644073607419e-08, -2.6067228137125156e-08, 0))
hIsland = hIsland.add(rect(5.449915723592023e-09, 2.351800069661748e-09).transl(8.476606576567446e-08, -3.6329561108593254e-08, 0))
hIsland = hIsland.add(rect(6.288101744802374e-09, 1.423702640753608e-09).transl(-5.1861061442306013e-08, -4e-08, 0))
hIsland = hIsland.add(rect(7.522431332953492e-09, 3.91457531071169e-09).transl(-4.278437904667974e-08, -4e-08, 0))
hIsland = hIsland.sub(rect(7.21700501207659e-09, -3.5156413375308787e-10).transl(6.420658227936463e-08, -4e-08, 0))
hIsland = hIsland.sub(rect(4.9495657632216774e-09, -4.221805557701949e-10).transl(8.120610581568265e-08, -3.998950983253922e-08, 0))
hIsland = hIsland.sub(rect(9.454458261996764e-09, -6.324949740715986e-11).transl(3.8840176141117435e-08, -4e-08, 0))
hIsland = hIsland.sub(rect(7.770875995975825e-09, -7.245088814144024e-10).transl(4.3923335551141085e-08, -4e-08, 0))
hIsland = hIsland.add(rect(6.943750594222739e-09, 1.0163688132619677e-09).transl(8.469825136385922e-08, -3.646691362898662e-08, 0))
hIsland = hIsland.sub(rect(2.9906350415787285e-09, -3.2144317314062754e-09).transl(4.288930437232654e-08, -4e-08, 0))
hIsland = hIsland.sub(rect(8.827699255182868e-09, -1.3144727455621028e-09).transl(-8.113543144867051e-09, -4e-08, 0))
hIsland = hIsland.add(rect(2.7272752305060895e-09, 3.252081750023858e-10).transl(-7.654778539856456e-08, -4e-08, 0))
hIsland = hIsland.sub(rect(4.893556656286865e-09, -2.602194446376838e-10).transl(-5.529669565828871e-08, -4e-08, 0))
hIsland = hIsland.sub(rect(4.311579139347149e-09, -1.2529138235212043e-09).transl(-2.618386589717177e-09, -4e-08, 0))
hIsland = hIsland.sub(rect(4.6031172410723936e-09, -2.0472694539581047e-09).transl(-5.243457916709911e-08, -4e-08, 0))
hIsland = hIsland.add(rect(2.732820193915501e-09, 1.2482897470230038e-09).transl(-5.9045509611193395e-08, -4e-08, 0))
hIsland = hIsland.sub(rect(6.929364376036085e-09, -9.771192709610582e-10).transl(4.17737293536823e-08, -4e-08, 0))
hIsland = hIsland.sub(rect(9.878250862757179e-09, -1.6137036408685653e-09).transl(-7.005472991297991e-09, -4e-08, 0))
hIsland = hIsland.sub(rect(7.39525020210754e-09, -2.9692978523151105e-10).transl(-1.0407968234874771e-08, -4e-08, 0))
hIsland = hIsland.sub(rect(7.218551119734828e-09, -1.40905135802364e-09).transl(7.65273219663642e-08, -4e-08, 0))
hIsland = hIsland.sub(rect(5.713593725411501e-09, -1.5204354362729979e-09).transl(1.151241849443289e-08, -4e-08, 0))
hIsland = hIsland.sub(rect(6.490040508578157e-09, -1.1096503421578957e-09).transl(7.761896175938478e-09, -4e-08, 0))
hIsland = hIsland.add(rect(4.007284073628495e-09, 3.361962922314927e-09).transl(-7.201683917068609e-08, -4e-08, 0))
hIsland = hIsland.sub(rect(7.763965033966166e-09, -2.566103471166702e-09).transl(-8.463070643634013e-08, -3.660074094186752e-08, 0))
hIsland = hIsland.add(rect(2.2036891426794727e-09, 3.1147223856253645e-10).transl(-2.624495319659854e-08, -4e-08, 0))
hIsland = hIsland.add(rect(4.821939235083691e-09, 4.279417054040025e-09).transl(8.91106433711326e-08, -1.7337585863703518e-08, 0))
hIsland = hIsland.add(rect(6.690991553836713e-09, 1.0353600689254925e-09).transl(-1.0822250043792566e-08, -4e-08, 0))
hIsland = hIsland.sub(rect(2.575456160846934e-09, -2.9170955360361e-09).transl(5.152062090194429e-09, -4e-08, 0))
hIsland = hIsland.sub(rect(4.709749919692845e-09, -2.1099775062295954e-09).transl(1.8913860395330766e-09, -4e-08, 0))
hIsland = hIsland.sub(rect(8.496362094389246e-09, -2.0284714395697643e-09).transl(-1.0854463738137476e-08, -4e-08, 0))
hIsland = hIsland.add(rect(2.415252120853438e-09, 3.0634509543103154e-09).transl(8.079936934103989e-08, -4e-08, 0))
hIsland = hIsland.sub(rect(5.649580856851695e-09, -2.285116578136581e-09).transl(-5.138297134745096e-09, -4e-08, 0))
hIsland = hIsland.sub(rect(4.875277654636031e-09, -3.210496698173855e-09).transl(3.6988765949480824e-08, -4e-08, 0))
hIsland = hIsland.add(rect(4.985834340237619e-09, 9.630463619525459e-12).transl(-7.959023501021412e-08, -4e-08, 0))
hIsland = hIsland.add(rect(8.294493173467849e-09, 2.1002085195888976e-09).transl(1.8050772079828714e-08, -4e-08, 0))
hIsland = hIsland.sub(rect(7.367910691956949e-09, -3.281921066504643e-09).transl(4.439256330984825e-08, -4e-08, 0))
hIsland = hIsland.sub(rect(2.8989493253082977e-09, -1.8262121843684614e-09).transl(-3.7979942427983786e-08, -4e-08, 0))
hIsland = hIsland.sub(rect(3.4350412279819598e-09, -1.2721356523435749e-10).transl(6.720162011058851e-09, -4e-08, 0))
hIsland = hIsland.add(rect(4.217827128041426e-09, 1.000616770582194e-09).transl(1.8761506604433553e-08, -4e-08, 0))
hIsland = hIsland.sub(rect(4.05952083666787e-09, -1.0119753684190185e-09).transl(1.425195967737713e-08, -4e-08, 0))
hIsland = hIsland.add(rect(3.911496843732235e-09, 4.5311466166283695e-11).transl(3.580902503495878e-08, -4e-08, 0))
hIsland = hIsland.sub(rect(4.358826730026485e-09, -5.0661259517588454e-11).transl(-3.4088059201559215e-08, -4e-08, 0))
hIsland = hIsland.sub(rect(7.075266002676029e-09, -4.604799947553689e-09).transl(-2.973330259188995e-08, -4e-08, 0))
hIsland = hIsland.add(rect(8.990916396101052e-09, 3.038105608868165e-09).transl(5.9441662048142655e-08, -4e-08, 0))
hIsland = hIsland.add(rect(8.964080478466276e-09, 3.526241199383727e-10).transl(-1.4646534708950486e-08, -4e-08, 0))
hIsland = hIsland.add(rect(9.005894345985431e-09, 5.222718504311089e-10).transl(4.498604301517579e-08, -4e-08, 0))
hIsland = hIsland.sub(rect(7.68734493344497e-09, -8.20048020910023e-10).transl(5.439135081784999e-08, -4e-08, 0))
hIsland = hIsland.sub(rect(6.7496021137873685e-09, -1.5510936728149997e-09).transl(4.996218621962481e-08, -4e-08, 0))
hIsland = hIsland.sub(rect(4.5971299093518e-09, -3.7026106050152818e-09).transl(3.306927102849111e-08, -4e-08, 0))
hIsland = hIsland.sub(rect(3.627571966167301e-09, -2.0701171375318413e-10).transl(4.2695079355392864e-08, -4e-08, 0))
hIsland = hIsland.sub(rect(9.97328331374565e-09, -4.6454559575055694e-10).transl(8.741038285826711e-08, -2.8076435921129476e-08, 0))
hIsland = hIsland.sub(rect(7.799375994663769e-09, -1.0142750297012138e-09).transl(-7.579012459507402e-08, -4e-08, 0))
hIsland = hIsland.sub(rect(4.176305409337684e-09, -3.045684153565088e-09).transl(-4.139048632048458e-08, -4e-08, 0))
hIsland = hIsland.add(rect(7.247912349842495e-09, 3.0391632758665617e-09).transl(1.3695865772607437e-08, -4e-08, 0))
hIsland = hIsland.sub(rect(7.24876051864928e-09, -2.3321588575627485e-09).transl(-5.860439946856295e-08, -4e-08, 0))
hIsland = hIsland.sub(rect(7.638866656638552e-09, -3.9000921187749395e-10).transl(8.653911667207583e-08, -3.152680583700294e-08, 0))
hIsland = hIsland.sub(rect(9.740414838127955e-09, -1.3728656791973043e-10).transl(-3.847858827156213e-08, -4e-08, 0))
hIsland = hIsland.add(rect(5.186564228064464e-09, 1.0143655381046432e-10).transl(-3.767086968592394e-08, -4e-08, 0))
hIsland = hIsland.add(rect(9.971311960496414e-09, 6.475330314352362e-10).transl(6.468626021185707e-08, -4e-08, 0))
hIsland = hIsland.add(rect(9.549810224670367e-09, 1.1229132518903255e-09).transl(8.5647677866327e-08, -3.425369128912173e-08, 0))
hIsland = hIsland.sub(rect(7.515661324871732e-09, -1.0997429743913649e-10).transl(3.029667262302251e-08, -4e-08, 0))
hIsland = hIsland.add(rect(3.802140782928359e-09, 1.1671424926202827e-09).transl(1.3807934048963586e-08, -4e-08, 0))
hIsland = hIsland.add(rect(7.665740817166781e-09, 6.456675751316242e-10).transl(3.7903823626872606e-08, -4e-08, 0))
hIsland = hIsland.add(rect(4.183891988136398e-09, 3.46130642276576e-09).transl(-7.755606230205172e-08, -4e-08, 0))
hIsland = hIsland.add(rect(7.048442323502516e-09, 9.079263024056376e-10).transl(1.252911825968361e-08, -4e-08, 0))
hIsland = hIsland.sub(rect(3.235781721778488e-09, -1.3935670924945733e-09).transl(2.24696459590404e-08, -4e-08, 0))
hIsland = hIsland.sub(rect(2.3978433856149428e-09, -7.832550492786805e-12).transl(2.81530877999165e-08, -4e-08, 0))
hIsland = hIsland.add(rect(8.308347729354564e-09, 8.748224636311211e-10).transl(-2.506072080237036e-08, -4e-08, 0))
hIsland = hIsland.sub(rect(6.18105875561067e-09, -1.564356649219013e-09).transl(3.0796791911835776e-08, -4e-08, 0))
hIsland = hIsland.sub(rect(8.838652148343054e-09, -1.4629472957858194e-09).transl(7.218456876382385e-08, -4e-08, 0))
hIsland = hIsland.add(rect(9.945570953196406e-09, 7.76916996650524e-10).transl(8.843190292373228e-08, -2.2560456580713677e-08, 0))
hIsland = hIsland.add(rect(7.929824883604353e-09, 1.502696567139477e-10).transl(-8.438100445801702e-08, -3.707018604525088e-08, 0))
hIsland = hIsland.add(rect(7.14356730981422e-09, 5.63022007035163e-10).transl(1.4531062031841702e-08, -4e-08, 0))
hIsland = hIsland.add(rect(3.4341772972214033e-09, 3.2446361649255504e-10).transl(6.616469201971279e-08, -4e-08, 0))
hIsland = hIsland.add(rect(5.927621320757034e-09, 3.393959209321188e-09).transl(-5.249202383116801e-08, -4e-08, 0))
hIsland = hIsland.sub(rect(5.730373136416745e-09, -2.5670125615185436e-09).transl(2.5292006817565142e-08, -4e-08, 0))
hIsland = hIsland.add(rect(9.810774803734559e-09, 1.0453261632277777e-09).transl(-1.0554411070742628e-08, -4e-08, 0))
hIsland = hIsland.sub(rect(3.4520473601660736e-09, -3.0305703881621814e-09).transl(-5.277450047376707e-08, -4e-08, 0))
hIsland = hIsland.add(rect(4.217518707488586e-09, 2.2472496010509476e-10).transl(3.0031897221124526e-08, -4e-08, 0))
hIsland = hIsland.sub(rect(5.755984607905354e-09, -3.8498281553793395e-09).transl(-2.250857336359905e-08, -4e-08, 0))
hIsland = hIsland.add(rect(4.474415064520085e-09, 1.2662465856446186e-09).transl(-8.07767415767537e-08, -4e-08, 0))
hIsland = hIsland.add(rect(8.616663869543264e-09, 2.3884991271248577e-09).transl(1.8940349268762818e-08, -4e-08, 0))
hIsland = hIsland.add(rect(2.3958333250050555e-09, 7.027646780747902e-10).transl(6.135292837823693e-08, -4e-08, 0))
hIsland = hIsland.add(rect(9.10163854446726e-09, 9.361957964944144e-10).transl(-4.5985077442241506e-08, -4e-08, 0))
hIsland = hIsland.sub(rect(9.335915585414696e-09, -1.879285798804477e-09).transl(-1.0548867581674669e-09, -4e-08, 0))
hIsland = hIsland.sub(rect(4.585772210304443e-09, -1.3441375576369118e-09).transl(8.647915387614406e-08, -3.1733107002471955e-08, 0))
hIsland = hIsland.add(rect(5.772771919911054e-09, 1.4510948326205342e-09).transl(-7.92265635595505e-08, -4e-08, 0))
hIsland = hIsland.sub(rect(9.06690079855527e-09, -1.056978227683694e-09).transl(5.2299543867167524e-08, -4e-08, 0))
hIsland = hIsland.add(rect(3.1318587965716768e-09, 2.0781818283707756e-09).transl(5.154500631267342e-08, -4e-08, 0))
hIsland = hIsland.add(rect(5.353592753721031e-09, 8.109270490049628e-11).transl(6.156899097546128e-08, -4e-08, 0))
hIsland = hIsland.sub(rect(6.305520518907928e-09, -1.7273942631797604e-09).transl(-3.3473884486619093e-08, -4e-08, 0))
hIsland = hIsland.add(rect(7.770649153417055e-09, 1.3721007306081632e-09).transl(-8.36951288502234e-08, -3.816436977871235e-08, 0))
hIsland = hIsland.add(rect(4.147462615278439e-09, 5.323839373320317e-10).transl(8.493691756234724e-08, -3.596999575634868e-08, 0))
hIsland = hIsland.add(rect(8.417383796897874e-09, 6.57618038802149e-10).transl(-7.564712286958267e-08, -4e-08, 0))
hIsland = hIsland.sub(rect(2.990387915195659e-09, -5.569130714873051e-10).transl(-6.426987693916245e-09, -4e-08, 0))
hIsland = hIsland.sub(rect(7.580740327472973e-09, -1.266181367766555e-10).transl(-3.924343788342828e-08, -4e-08, 0))
hIsland = hIsland.sub(rect(4.278671701435816e-09, -2.303688921244232e-09).transl(7.527900772568795e-08, -4e-08, 0))
hIsland = hIsland.add(rect(5.267805657820637e-09, 2.7259109075531223e-09).transl(1.90245517679569e-09, -4e-08, 0))
hIsland = hIsland.add(rect(3.4382877452233064e-09, 1.3290321725747128e-09).transl(-8.385865700223986e-09, -4e-08, 0))
hIsland = hIsland.add(rect(5.100615204939381e-09, 3.6187307655767996e-09).transl(1.5418762718666677e-08, -4e-08, 0))
hIsland = hIsland.add(rect(6.344929339223165e-09, 1.0860635968721127e-09).transl(-4.29381237206179e-08, -4e-08, 0))
hIsland = hIsland.add(rect(2.0605746597741236e-09, 2.8226483303725855e-09).transl(5.2572048386756214e-08, -4e-08, 0))
hIsland = hIsland.add(rect(7.1433369346449575e-09, 1.1572568897196823e-09).transl(-4.0818109294319584e-08, -4e-08, 0))
hIsland = hIsland.add(rect(7.442619441821387e-09, 1.7661958205859298e-09).transl(-6.615795369491008e-08, 4e-08, 0))
hIsland = hIsland.add(rect(7.3938746107709095e-09, 2.540248865525886e-09).transl(-4.2329214172139075e-08, 4e-08, 0))
hIsland = hIsland.add(rect(4.600378135795857e-09, 3.4843206094825364e-11).transl(1.1461293745172395e-09, 4e-08, 0))
hIsland = hIsland.sub(rect(8.087747497230035e-09, -2.374581166512472e-09).transl(7.682474135210293e-08, 4e-08, 0))
hIsland = hIsland.add(rect(3.3340071401175298e-09, 3.975738614690709e-09).transl(5.027514925416635e-08, 4e-08, 0))
hIsland = hIsland.sub(rect(2.384857261327684e-09, -7.733755631038391e-10).transl(3.105637326370895e-08, 4e-08, 0))
hIsland = hIsland.add(rect(5.971671281190633e-09, 4.1374527561672967e-10).transl(-4.481057311898599e-08, 4e-08, 0))
hIsland = hIsland.add(rect(2.23808670027132e-09, 1.044548161998819e-09).transl(2.4575937808561602e-08, 4e-08, 0))
hIsland = hIsland.sub(rect(6.248574857269212e-09, -8.051422261101361e-10).transl(2.2790685916220985e-08, 4e-08, 0))
hIsland = hIsland.add(rect(9.019749089561032e-09, 3.8805241901899405e-09).transl(-3.3187645346255146e-08, 4e-08, 0))
hIsland = hIsland.add(rect(5.7885956797301996e-09, 7.037744835210925e-10).transl(6.602963628199862e-08, 4e-08, 0))
hIsland = hIsland.sub(rect(6.977417887740255e-09, -9.569849547764288e-10).transl(3.700130747783061e-09, 4e-08, 0))
hIsland = hIsland.sub(rect(2.821429846210526e-09, -9.019956640470065e-10).transl(-3.2111852115868306e-08, 4e-08, 0))
hIsland = hIsland.sub(rect(9.584499304186821e-09, -6.326332055247187e-10).transl(6.531855164507019e-08, 4e-08, 0))
hIsland = hIsland.add(rect(2.9658773358091513e-09, 1.343703582838876e-09).transl(-2.1983821764001265e-08, 4e-08, 0))
hIsland = hIsland.sub(rect(8.452455486428843e-09, -1.8149076359369593e-10).transl(2.8675003919545222e-08, 4e-08, 0))
hIsland = hIsland.sub(rect(6.295037702065028e-09, -2.98563849908709e-09).transl(-3.7718176580620946e-08, 4e-08, 0))
hIsland = hIsland.add(rect(8.784917685277501e-09, 2.719847456976428e-09).transl(-6.71230153662506e-08, 4e-08, 0))
hIsland = hIsland.sub(rect(4.337494357300877e-09, -1.8124319299543326e-09).transl(-2.9146671340659063e-08, 4e-08, 0))
hIsland = hIsland.sub(rect(6.659358106409146e-09, -1.1000748864080927e-10).transl(-3.8002980164287076e-08, 4e-08, 0))
hIsland = hIsland.add(rect(5.399917979843305e-09, 5.026824677839734e-10).transl(-7.602111093765927e-08, 4e-08, 0))
hIsland = hIsland.sub(rect(7.308855268309845e-09, -2.2401426139327917e-09).transl(1.4847523349688955e-08, 4e-08, 0))
hIsland = hIsland.add(rect(5.646340517874337e-09, 1.9966742604616603e-10).transl(-2.0942031416642096e-08, 4e-08, 0))
hIsland = hIsland.sub(rect(5.757723274860701e-09, -2.681297164367577e-10).transl(1.9936551395284668e-08, 4e-08, 0))
hIsland = hIsland.sub(rect(5.241191082477447e-09, -1.96941556253072e-09).transl(3.3343970638879346e-08, 4e-08, 0))
hIsland = hIsland.add(rect(2.818194220568552e-09, 2.8025550180643025e-10).transl(-5.815293702605557e-08, 4e-08, 0))
hIsland = hIsland.add(rect(2.4071696953943915e-09, 6.92204673288666e-10).transl(8.258400718510343e-08, 3.9375600952508335e-08, 0))
hIsland = hIsland.add(rect(8.923297873674605e-09, 2.2569754975396237e-09).transl(-8.277101445212443e-08, 3.921791170783177e-08, 0))
hIsland = hIsland.sub(rect(4.6162148932966835e-09, -2.2752712717644612e-10).transl(-1.736000468929472e-08, 4e-08, 0))
hIsland = hIsland.sub(rect(9.702469524158854e-09, -3.3189733969076118e-09).transl(-6.034531852064237e-09, 4e-08, 0))
hIsland = hIsland.sub(rect(3.792367929900408e-09, -1.0547684793837917e-09).transl(-2.981834004133273e-08, 4e-08, 0))
hIsland = hIsland.sub(rect(5.601834764291544e-09, -2.0032298591495187e-09).transl(-2.457856700010899e-09, 4e-08, 0))
hIsland = hIsland.sub(rect(4.808179722179705e-09, -2.538206500825291e-09).transl(-4.501283360704002e-08, 4e-08, 0))
hIsland = hIsland.add(rect(2.473115030940657e-09, 4.212534208197104e-09).transl(-8.436377399602686e-08, 3.71011362519166e-08, 0))
hIsland = hIsland.add(rect(4.680858368111604e-09, 4.514548476575803e-09).transl(1.6791664986958775e-08, 4e-08, 0))
hIsland = hIsland.add(rect(6.222913026384576e-09, 1.1636610214129286e-09).transl(3.0318844752041364e-08, 4e-08, 0))
hIsland = hIsland.add(rect(4.601370035625134e-09, 5.098379371852693e-10).transl(-8.762654280546576e-09, 4e-08, 0))
hIsland = hIsland.sub(rect(8.991748520357642e-09, -1.4261475638181263e-09).transl(-1.8190486031221974e-08, 4e-08, 0))
hIsland = hIsland.sub(rect(4.13132759740245e-09, -4.049503639369508e-09).transl(-9.576057220024578e-09, 4e-08, 0))
hIsland = hIsland.sub(rect(9.978806987341699e-09, -1.957071992863798e-09).transl(3.740237787039377e-08, 4e-08, 0))
hIsland = hIsland.add(rect(5.5902552218811525e-09, 1.251436387734874e-09).transl(-5.728410606212284e-09, 4e-08, 0))
hIsland = hIsland.sub(rect(7.854254765643573e-09, -2.1546748041240676e-09).transl(-1.5720071834759126e-08, 4e-08, 0))
hIsland = hIsland.add(rect(3.758900246175932e-09, 1.4442595475724412e-11).transl(-8.804669489879607e-08, 2.488257499408829e-08, 0))
hIsland = hIsland.add(rect(4.198390220039038e-09, 2.2501316355499944e-09).transl(-7.403279922542397e-08, 4e-08, 0))
hIsland = hIsland.add(rect(5.954456057723485e-09, 1.264949187834016e-09).transl(5.256810898829048e-08, 4e-08, 0))
hIsland = hIsland.add(rect(5.132199631070132e-09, 7.001097955613472e-10).transl(3.174450507440724e-08, 4e-08, 0))
hIsland = hIsland.sub(rect(2.804654099742229e-09, -2.189525816006688e-09).transl(8.307184321347655e-08, 3.8925688163320546e-08, 0))
hIsland = hIsland.add(rect(5.735875717759204e-09, 9.04753884278237e-10).transl(3.045660449249853e-08, 4e-08, 0))
hIsland = hIsland.add(rect(5.691213769991366e-09, 1.5056424308347039e-09).transl(4.0459816980284465e-08, 4e-08, 0))
hIsland = hIsland.add(rect(4.110591955162113e-09, 1.921642897458696e-09).transl(8.569376726469679e-08, 3.412932524640694e-08, 0))
hIsland = hIsland.sub(rect(7.0334360528860365e-09, -1.7102368393594417e-09).transl(-5.171264646883196e-08, 4e-08, 0))
hIsland = hIsland.add(rect(7.069407998806938e-09, 3.795382430957705e-09).transl(5.8223889573834805e-08, 4e-08, 0))
hIsland = hIsland.sub(rect(3.325083815803549e-09, -2.4837805507308724e-10).transl(2.5853862612899333e-08, 4e-08, 0))
hIsland = hIsland.add(rect(6.338425228881256e-09, 2.597704342311393e-09).transl(-9.222159344725544e-10, 4e-08, 0))
hIsland = hIsland.add(rect(2.5043336037826346e-09, 5.09830673803898e-10).transl(-5.158722451418871e-08, 4e-08, 0))
hIsland = hIsland.sub(rect(4.942344475410298e-09, -3.151710917097686e-09).transl(-1.6122543519069997e-08, 4e-08, 0))
hIsland = hIsland.add(rect(5.238759351261375e-09, 1.6245903035924536e-09).transl(-7.76259557952859e-08, 4e-08, 0))
hIsland = hIsland.sub(rect(8.806060229226404e-09, -4.932402759750762e-09).transl(-7.036289060014873e-08, 4e-08, 0))
hIsland = hIsland.add(rect(3.0555342447014874e-09, 2.9979835461920744e-09).transl(-8.03721266245466e-08, 4e-08, 0))
hIsland = hIsland.add(rect(4.821902956192369e-09, 1.1227806329702925e-09).transl(-4.477852922110918e-09, 4e-08, 0))
hIsland = hIsland.sub(rect(9.579818129981388e-09, -2.019281777872098e-09).transl(-4.236029372982646e-08, 4e-08, 0))
hIsland = hIsland.add(rect(3.0243275898012362e-09, 2.616271227360078e-10).transl(1.3095475676948865e-08, 4e-08, 0))
[...]
hIsland = hIsland.sub(rect(4.6677989492721675e-09, -2.5010244310619106e-10).transl(3.715884100190678e-09, 4e-08, 0))
hIsland = hIsland.sub(rect(9.38601204922123e-09, -2.7856841857947264e-09).transl(1.2790086947674535e-08, 4e-08, 0))
hIsland = hIsland.sub(rect(3.90997231965648e-09, -2.5975567685286212e-09).transl(-2.5003699653829242e-08, 4e-08, 0))
hIsland = hIsland.sub(rect(6.807018552447574e-09, -1.4227915150073756e-09).transl(5.5980375844937665e-08, 4e-08, 0))
hIsland = hIsland.sub(rect(6.130712520022236e-09, -2.1415387697229877e-09).transl(2.1859428873080615e-08, 4e-08, 0))
hIsland = hIsland.add(rect(2.5247416260014984e-09, 1.8780491740456857e-09).transl(4.7672296478513046e-08, 4e-08, 0))
hIsland = hIsland.add(rect(8.49996608113435e-09, 1.800863628858878e-09).transl(-1.4968464097928743e-08, 4e-08, 0))
hIsland = hIsland.sub(rect(9.422792302240115e-09, -1.6349985805015592e-09).transl(-4.172062553080881e-08, 4e-08, 0))
hIsland = hIsland.add(rect(5.583459704097536e-09, 9.110358334794347e-10).transl(2.7659967167711382e-08, 4e-08, 0))
hIsland = hIsland.sub(rect(5.623197301443013e-09, -1.361962455952149e-09).transl(2.254793219665023e-08, 4e-08, 0))
hIsland = hIsland.sub(rect(2.108931435815163e-09, -3.155980007578234e-11).transl(-5.356548393240985e-08, 4e-08, 0))
hIsland = hIsland.add(rect(7.601760012490267e-09, 2.1791901408304227e-09).transl(2.5821706040654098e-08, 4e-08, 0))
hIsland = hIsland.add(rect(5.673404016837855e-09, 1.563234961653947e-09).transl(2.1400562167355122e-08, 4e-08, 0))
hIsland = hIsland.add(rect(7.809965400643726e-09, 2.303700859170248e-09).transl(1.2438368831340901e-08, 4e-08, 0))
hIsland = hIsland.sub(rect(6.908565704686546e-09, -2.503893543503268e-09).transl(2.0661334929759488e-08, 4e-08, 0))
hIsland = hIsland.sub(rect(5.014624917795529e-09, -1.4225488815359442e-10).transl(-2.939503037963344e-08, 4e-08, 0))
hIsland = hIsland.add(rect(9.459404461951476e-09, 1.7448524940060328e-09).transl(5.1864567579875036e-08, 4e-08, 0))
hIsland = hIsland.sub(rect(2.45745132426132e-09, -3.889856760436966e-10).transl(5.039600557278495e-08, 4e-08, 0))
hIsland = hIsland.add(rect(8.97966805897864e-09, 1.3152779211295899e-09).transl(7.236843715887575e-08, 4e-08, 0))
hIsland = hIsland.sub(rect(9.465866501230491e-09, -3.295840924568537e-09).transl(4.192032328630399e-09, 4e-08, 0))
hIsland = hIsland.sub(rect(6.658018717119415e-09, -2.2839513888377905e-09).transl(-7.550811402238306e-09, 4e-08, 0))
hIsland = hIsland.add(rect(9.165449195742209e-09, 1.880927482269382e-09).transl(1.916526074946476e-08, 4e-08, 0))
hIsland = hIsland.sub(rect(5.947466679231693e-09, -4.308211006215984e-09).transl(2.4153747930060772e-08, 4e-08, 0))
hIsland = hIsland.sub(rect(6.244498544710194e-09, -1.0944759276649492e-10).transl(-3.0052957843789646e-08, 4e-08, 0))
hIsland = hIsland.sub(rect(4.1796185548661894e-09, -7.997081448460821e-10).transl(-2.6839304977829602e-08, 4e-08, 0))
hIsland = hIsland.sub(rect(5.2627472598784574e-09, -3.681393032249865e-09).transl(1.504743222482165e-08, 4e-08, 0))
hIsland = hIsland.add(rect(7.958223654203906e-09, 2.5945435477417807e-09).transl(-4.20645909560653e-08, 4e-08, 0))
hIsland = hIsland.sub(rect(3.850140003016803e-09, -1.735049436477233e-10).transl(-7.238634122446555e-08, 4e-08, 0))
hIsland = hIsland.sub(rect(9.839603927111798e-09, -5.689913832541958e-11).transl(-4.4803174267476524e-08, 4e-08, 0))
hIsland = hIsland.add(rect(5.682336542326065e-09, 4.0134608826081105e-09).transl(2.099852220489997e-08, 4e-08, 0))
hIsland = hIsland.add(rect(5.4854916691248256e-09, 2.51746230196033e-09).transl(7.55830569573656e-09, 4e-08, 0))
hIsland = hIsland.add(rect(6.4570062241268615e-09, 1.0663643356509874e-09).transl(-8.59699372492009e-08, 3.3348063038575434e-08, 0))
hIsland = hIsland.sub(rect(3.1317333714068214e-09, -8.372496483042138e-10).transl(-8.698538513073457e-08, 2.987221007973026e-08, 0))
hIsland = hIsland.add(rect(4.5237130231140675e-09, 9.97187242798724e-10).transl(-2.454565730633006e-08, 4e-08, 0))
hIsland = hIsland.add(rect(3.2184613716727012e-09, 8.487584819252486e-10).transl(6.697416446580866e-08, 4e-08, 0))
hIsland = hIsland.add(rect(5.098728138248255e-09, 1.0686403293877438e-09).transl(1.2579588598384889e-08, 4e-08, 0))
hIsland = hIsland.sub(rect(8.799044153228231e-09, -2.35804628688281e-09).transl(8.596281486136427e-08, 3.336900865775643e-08, 0))
hIsland = hIsland.add(rect(5.855180172206646e-09, 4.124696642802538e-10).transl(4.001695909859944e-08, 4e-08, 0))
hIsland = hIsland.add(rect(9.418934259347435e-09, 1.848552946323859e-10).transl(-7.027511994895439e-08, 4e-08, 0))
hIsland = hIsland.sub(rect(3.9350012303595035e-09, -2.1499756699859706e-09).transl(7.439967123155557e-08, 4e-08, 0))
hIsland = hIsland.sub(rect(4.531035046103017e-09, -7.49860339862901e-10).transl(-3.5367649599050936e-08, 4e-08, 0))
hIsland = hIsland.sub(rect(3.0494201583741925e-09, -9.967166219902392e-10).transl(-7.18647192982787e-08, 4e-08, 0))
hIsland = hIsland.add(rect(6.390445053790057e-09, 1.4477509924520346e-09).transl(-8.694766332577688e-08, 3.0020668094722816e-08, 0))
hIsland = hIsland.sub(rect(3.858469071128319e-09, -4.320063493559778e-10).transl(3.5186487078360925e-08, 4e-08, 0))
hIsland = hIsland.add(rect(3.903065516443388e-09, 3.212339742109157e-10).transl(-3.970618919774986e-08, 4e-08, 0))
hIsland = hIsland.add(rect(3.4087477430766864e-09, 1.2586442577078849e-09).transl(-1.6655259280830702e-08, 4e-08, 0))
hIsland = hIsland.add(rect(6.6739794957233e-09, 9.888712009958792e-10).transl(-1.1608373669553893e-08, 4e-08, 0))
hIsland = hIsland.sub(rect(9.982604432784694e-09, -5.113559472045048e-09).transl(5.324949109644673e-08, 4e-08, 0))
hIsland = hIsland.add(rect(5.95754213686763e-09, 3.9822454943941535e-10).transl(3.994699499359928e-08, 4e-08, 0))
hIsland = hIsland.sub(rect(6.325566576915647e-09, -1.5727230948801773e-09).transl(-1.648715754134431e-08, 4e-08, 0))
hIsland = hIsland.sub(rect(3.5109810178765147e-09, -7.644615459530372e-10).transl(2.89857043591834e-09, 4e-08, 0))
hIsland = hIsland.add(rect(3.933313940838104e-09, 5.35476275474778e-09).transl(-1.4918007235873887e-08, 4e-08, 0))
hIsland = hIsland.sub(rect(2.239854948861506e-09, -2.0827048692424757e-09).transl(5.7598464568402835e-08, 4e-08, 0))
hIsland = hIsland.sub(rect(6.053743014162348e-09, -1.946168972336829e-09).transl(-1.794926400275736e-08, 4e-08, 0))
hIsland = hIsland.sub(rect(6.509736282132473e-09, -1.2562623131773328e-09).transl(-9.373425340958403e-09, 4e-08, 0))
hIsland = hIsland.sub(rect(2.4548015966063484e-09, -1.0757750628895604e-09).transl(-7.467045635296814e-08, 4e-08, 0))
hIsland = hIsland.sub(rect(8.108431820668736e-09, -1.763555740980487e-09).transl(6.012458983707701e-08, 4e-08, 0))
hIsland = hIsland.sub(rect(9.868863441118085e-09, -2.2533878955964345e-09).transl(-3.8272272279980237e-08, 4e-08, 0))
hIsland = hIsland.sub(rect(8.32584614801884e-09, -1.5951314251012497e-09).transl(5.935276130782344e-08, 4e-08, 0))
hIsland = hIsland.sub(rect(9.48133922843411e-09, -3.3836368778468198e-09).transl(8.351729028195949e-08, 3.840351054847026e-08, 0))
hIsland = hIsland.add(rect(6.29758638065298e-09, 5.217197378793505e-09).transl(5.385417560348212e-08, 4e-08, 0))
hIsland = hIsland.add(rect(2.1111693099111565e-09, 6.124703980845164e-10).transl(6.045009041839227e-08, 4e-08, 0))
hIsland = hIsland.sub(rect(3.235846150207202e-09, -7.690246124920725e-10).transl(-2.9496973698238386e-08, 4e-08, 0))
hIsland = hIsland.add(rect(4.7914243747721785e-09, 2.6832425635939068e-09).transl(9.605696512711408e-09, 4e-08, 0))
hIsland = hIsland.sub(rect(6.33607126210922e-09, -1.851676537408805e-09).transl(-1.5460914936545908e-08, 4e-08, 0))
hIsland = hIsland.sub(rect(2.0686674385035424e-09, -4.266221982637115e-09).transl(1.3259572767256403e-08, 4e-08, 0))
hIsland = hIsland.add(rect(2.323097304705617e-09, 3.463599400222335e-13).transl(-7.244798434092822e-08, 4e-08, 0))
hIsland = hIsland.sub(rect(9.306576919497113e-09, -1.9092205030191155e-10).transl(-3.190828600086824e-08, 4e-08, 0))
hIsland = hIsland.add(rect(9.711565680833512e-09, 2.1260270364115246e-09).transl(4.988429997198764e-08, 4e-08, 0))
hIsland = hIsland.sub(rect(4.372799194515115e-09, -2.8335107141801412e-09).transl(1.0501117477036155e-08, 4e-08, 0))
hIsland = hIsland.add(rect(8.911693137593645e-09, 2.814000073868223e-09).transl(2.435439950228797e-08, 4e-08, 0))
hIsland = hIsland.sub(rect(8.021725778397072e-09, -1.776675678082504e-09).transl(4.6418342265666175e-08, 4e-08, 0))
hIsland = hIsland.add(rect(5.0859196815833845e-09, 2.9898752357838368e-09).transl(2.2264618900292432e-08, 4e-08, 0))
hIsland = hIsland.sub(rect(3.490820800363834e-09, -1.290730011097294e-09).transl(3.1206032197672905e-08, 4e-08, 0))
hIsland = hIsland.add(rect(3.64079381301171e-09, 5.294507625425467e-10).transl(5.719431971579501e-08, 4e-08, 0))
hIsland = hIsland.sub(rect(2.5290739068499813e-09, -7.050655332389343e-11).transl(-5.5229810210272585e-08, 4e-08, 0))
hIsland = hIsland.sub(rect(7.217255579569515e-09, -3.851154689056891e-09).transl(-1.4220082180284409e-08, 4e-08, 0))
hIsland = hIsland.sub(rect(3.5774102185167395e-09, -1.709766447370705e-09).transl(8.900719314852737e-08, 1.8262750530297523e-08, 0))
hIsland = hIsland.sub(rect(7.47312982951283e-09, -1.890064227839193e-09).transl(-5.448144338163256e-09, 4e-08, 0))
hIsland = hIsland.sub(rect(9.315815716347702e-09, -2.5604217999927364e-09).transl(-6.139464271125861e-08, 4e-08, 0))
hIsland = hIsland.add(rect(9.216773770543051e-09, 1.6338306990947517e-09).transl(7.160407747550476e-08, 4e-08, 0))
hIsland = hIsland.sub(rect(5.539273774578588e-09, -2.159331689121732e-09).transl(4.947507493261381e-08, 4e-08, 0))
hIsland = hIsland.add(rect(2.5465807730666613e-09, 2.537294317302147e-09).transl(1.027278004669085e-08, 4e-08, 0))
hIsland = hIsland.add(rect(2.0391354567842213e-09, 2.2006371395974005e-09).transl(-3.326125041653542e-08, 4e-08, 0))
hIsland = hIsland.sub(rect(6.372115376506491e-09, -4.2234799489960267e-10).transl(5.4089189831892206e-08, 4e-08, 0))
hIsland = hIsland.sub(rect(2.691634559906404e-09, -8.711316108707091e-10).transl(-7.630673255817768e-08, 4e-08, 0))
hIsland = hIsland.add(rect(5.466672183001507e-09, 5.747290911855354e-10).transl(-8.820399432939058e-08, 2.3976311643821507e-08, 0))
hIsland = hIsland.sub(rect(7.263369479422961e-09, -1.2469099801541866e-09).transl(-1.9846783355951606e-08, 4e-08, 0))
hIsland = hIsland.add(rect(8.823864970185256e-09, 4.290664230807822e-10).transl(-4.2236383894582546e-08, 4e-08, 0))
hIsland = hIsland.add(rect(5.476141656022255e-09, 1.6070330957978966e-09).transl(3.970385224746498e-08, 4e-08, 0))
hIsland = hIsland.add(rect(6.475373905898167e-09, 4.097449337500039e-09).transl(8.491456506612516e-08, 3.601815189645357e-08, 0))
hIsland = hIsland.sub(rect(8.965426874937286e-09, -4.621178709503991e-09).transl(-2.7971317254340957e-08, 4e-08, 0))
hIsland = hIsland.add(rect(7.880265486035603e-09, 1.4661095752656467e-09).transl(2.598277637493107e-08, 4e-08, 0))
hIsland = hIsland.add(rect(6.0577573636866305e-09, 5.35653968973651e-10).transl(5.23774121778094e-08, 4e-08, 0))
hIsland = hIsland.add(rect(2.268018567887636e-09, 3.302709493471706e-10).transl(8.716394353569744e-08, 2.9146136720042077e-08, 0))
hIsland = hIsland.add(rect(7.645371508703819e-09, 2.426670414576663e-09).transl(-3.4986223730409356e-09, 4e-08, 0))
hIsland = hIsland.sub(rect(8.07435614911585e-09, -9.052009740310343e-10).transl(5.777924900980436e-08, 4e-08, 0))
hIsland = hIsland.sub(rect(3.2712214663627544e-09, -8.992368665660126e-10).transl(6.612912867766398e-08, 4e-08, 0))
hIsland = hIsland.sub(rect(7.4422906149832565e-09, -3.2186545815955507e-09).transl(-3.950103587101463e-08, 4e-08, 0))
hIsland = hIsland.sub(rect(7.989997829148708e-09, -1.934720139740027e-09).transl(-5.852278533616532e-08, 4e-08, 0))
hIsland = hIsland.sub(rect(7.276909238483862e-09, -1.244239205417751e-09).transl(-8.288445226375848e-08, 3.9113343286204844e-08, 0))
hIsland = hIsland.sub(rect(8.114394052478359e-09, -3.745763285030856e-09).transl(-5.6928269336672794e-08, 4e-08, 0))
hIsland = hIsland.sub(rect(7.587583499374896e-09, -2.088825306334972e-09).transl(-4.597825865410478e-09, 4e-08, 0))
hIsland = hIsland.add(rect(3.976705937502497e-09, 3.690921419629409e-09).transl(-7.536491883553217e-08, 4e-08, 0))
hIsland = hIsland.add(rect(3.743578234096439e-09, 2.420677735129506e-09).transl(3.942379945238154e-08, 4e-08, 0))
hIsland = hIsland.sub(rect(6.327583773455277e-09, -3.663190726562124e-09).transl(5.0104778078481096e-08, 4e-08, 0))
hIsland = hIsland.add(rect(8.290804684771835e-09, 9.717972299621533e-10).transl(-2.4720775941863425e-08, 4e-08, 0))
hIsland = hIsland.add(rect(2.0785794524856193e-09, 6.455072370442165e-10).transl(-9.186903242208893e-10, 4e-08, 0))
hIsland = hIsland.sub(rect(3.3851552329768824e-09, -2.4629294428362256e-09).transl(-7.336781209904749e-08, 4e-08, 0))
hIsland = hIsland.sub(rect(3.3439361531270822e-09, -2.0313544257346498e-10).transl(-3.8741371664222066e-08, 4e-08, 0))
hIsland = hIsland.sub(rect(8.088264659133843e-09, -2.9925049475029584e-11).transl(-3.2128766405018096e-08, 4e-08, 0))
hIsland = hIsland.add(rect(7.022375234775105e-09, 4.980648713181704e-09).transl(-7.348791264732266e-08, 4e-08, 0))
hIsland = hIsland.add(rect(9.57732995758439e-09, 1.0155763218383902e-09).transl(-3.215007464448485e-08, 4e-08, 0))
hIsland = hIsland.add(rect(8.88228289785108e-09, 2.631814689188183e-09).transl(-6.782622635759625e-08, 4e-08, 0))
hIsland = hIsland.add(rect(6.948476262177304e-09, 2.4608747063250385e-09).transl(4.913960506654561e-08, 4e-08, 0))
hIsland = hIsland.add(rect(7.899960738142943e-09, 1.582447366860037e-10).transl(-5.652104036637315e-08, 4e-08, 0))
hIsland = hIsland.add(rect(8.124708815845869e-09, 2.740612283216631e-09).transl(-3.471676233599966e-08, 4e-08, 0))
hIsland = hIsland.add(rect(4.169445999267163e-09, 5.898899913883877e-10).transl(2.354271518837032e-08, 4e-08, 0))
hIsland = hIsland.sub(rect(3.3096080744152324e-09, -1.117248311751585e-09).transl(1.487429154670446e-08, 4e-08, 0))
hIsland = hIsland.sub(rect(2.9707690686083954e-09, -1.5549511826155413e-09).transl(5.7266293139627064e-08, 4e-08, 0))
hIsland = hIsland.add(rect(9.622737112858531e-09, 2.216358688254211e-09).transl(-8.43351720869169e-09, 4e-08, 0))
hIsland = hIsland.add(rect(4.032538422951767e-09, 1.640453621229253e-09).transl(3.388301012744677e-08, 4e-08, 0))
hIsland = hIsland.sub(rect(3.4892078171457393e-09, -2.290514128929007e-09).transl(6.340267627236039e-08, 4e-08, 0))
hIsland = hIsland.add(rect(3.012058448339831e-09, 9.64291033078173e-10).transl(-6.770946120401791e-08, 4e-08, 0))
hIsland = hIsland.add(rect(5.574735826709455e-09, 5.165211908714841e-10).transl(-8.722383622940802e-08, 2.8893627847037947e-08, 0))
hIsland = hIsland.sub(rect(7.023749041061918e-09, -1.3690990520678019e-09).transl(5.5288217974950835e-08, 4e-08, 0))
hIsland = hIsland.add(rect(9.647657839944547e-09, 1.6431777750201947e-10).transl(-8.147955098421324e-08, 3.994317713422533e-08, 0))
hIsland = hIsland.sub(rect(8.341067891379048e-09, -8.006704080298846e-10).transl(-4.891967112188824e-08, 4e-08, 0))
hIsland = hIsland.sub(rect(3.979319548908747e-09, -5.484543286517804e-10).transl(-8.02466788211241e-09, 4e-08, 0))
hIsland = hIsland.add(rect(3.763603463388982e-09, 3.9141254196181936e-09).transl(6.917641717272499e-08, 4e-08, 0))
hIsland = hIsland.sub(rect(4.816877274132083e-09, -1.4070104350820388e-09).transl(-2.7582407557027007e-08, 4e-08, 0))
hIsland = hIsland.sub(rect(3.24668218217722e-09, -5.2959226668092754e-09).transl(7.697101169759889e-08, 4e-08, 0))
hIsland = hIsland.sub(rect(3.5533895541164545e-09, -2.125649728435409e-10).transl(7.198612790160456e-08, 4e-08, 0))
hIsland = hIsland.add(rect(4.984837215250989e-09, 8.363166071875912e-11).transl(-2.162369090832569e-08, 4e-08, 0))
hIsland = hIsland.sub(rect(3.922690599775973e-09, -2.5429700497138484e-09).transl(1.1529865674319777e-08, 4e-08, 0))
hIsland = hIsland.add(rect(3.754369930086398e-09, 7.958349200998319e-10).transl(-7.483290020063106e-08, 4e-08, 0))
hIsland = hIsland.add(rect(6.939537207196582e-09, 3.4884388297147773e-09).transl(6.674955906292139e-08, 4e-08, 0))
hIsland = hIsland.sub(rect(3.125961475495668e-09, -2.785378072772873e-10).transl(8.059176572129353e-08, 4e-08, 0))
hIsland = hIsland.add(rect(3.889654530566503e-09, 9.334129845559268e-10).transl(-6.90129914199463e-08, 4e-08, 0))
hIsland = hIsland.sub(rect(9.526339910264775e-09, -5.314463557895901e-10).transl(3.4071367200234296e-08, 4e-08, 0))
hIsland = hIsland.add(rect(3.517718566006161e-09, 4.3773447117286096e-09).transl(3.352021378652301e-08, 4e-08, 0))
hIsland = hIsland.add(rect(4.501140252741674e-09, 5.233044654571997e-10).transl(8.280135913328006e-08, 3.919060236885307e-08, 0))
hIsland = hIsland.sub(rect(3.514529612659921e-09, -1.9424342623181946e-09).transl(6.746416996150975e-08, 4e-08, 0))
hIsland = hIsland.add(rect(4.2645467099126346e-09, 1.8978602715828797e-09).transl(-7.509622585480622e-08, 4e-08, 0))
hIsland = hIsland.sub(rect(8.810133662119678e-09, -1.3133649154550155e-09).transl(9.362974784467045e-09, 4e-08, 0))
hIsland = hIsland.sub(rect(4.255285544491368e-09, -3.154965530695787e-09).transl(4.082379323561162e-08, 4e-08, 0))
hIsland = hIsland.sub(rect(8.699957566222053e-09, -8.506170880756949e-10).transl(-3.9695446163571594e-08, 4e-08, 0))
hIsland = hIsland.sub(rect(9.842865546367251e-09, -2.4905826329857e-10).transl(1.4036981686591903e-08, 4e-08, 0))
hIsland = hIsland.sub(rect(7.328425868465213e-09, -9.319895579031057e-10).transl(-5.278697037533574e-08, 4e-08, 0))
hIsland = hIsland.add(rect(3.739048188934291e-09, 1.2331902088605354e-09).transl(7.550091741140067e-08, 4e-08, 0))
hIsland = hIsland.add(rect(5.2671483760364315e-09, 1.4374572366927646e-09).transl(7.241987840529485e-08, 4e-08, 0))
hIsland = hIsland.sub(rect(3.87218506763808e-09, -2.65481100148731e-09).transl(1.960983069513378e-08, 4e-08, 0))
hIsland = hIsland.sub(rect(4.443351705599734e-09, -1.318956327122715e-09).transl(7.368999822398215e-08, 4e-08, 0))
hIsland = hIsland.add(rect(5.437532121017312e-09, 2.824522530905092e-09).transl(7.365272667109477e-08, 4e-08, 0))
hIsland = hIsland.add(rect(8.944582670787671e-09, 3.0981707913938786e-09).transl(-6.2938287959193146e-09, 4e-08, 0))
hIsland = hIsland.sub(rect(7.425013189654589e-09, -2.6644805164538756e-09).transl(-7.268088973003895e-08, 4e-08, 0))
hIsland = hIsland.sub(rect(4.882928185716802e-09, -9.176278240847779e-10).transl(-6.166023127840284e-08, 4e-08, 0))
hIsland = hIsland.add(rect(7.556917690492288e-09, 1.7678969690563021e-09).transl(-1.2394051379755388e-08, 4e-08, 0))
hIsland = hIsland.add(rect(7.304770707888891e-09, 5.656064798504971e-10).transl(-7.82835139955884e-08, 4e-08, 0))
hIsland = hIsland.add(rect(6.091716567738829e-09, 5.295051638169481e-10).transl(4.3652358020679755e-08, 4e-08, 0))
hIsland = hIsland.sub(rect(2.0991987655165823e-09, -1.0706724737344608e-09).transl(1.3270981283914231e-08, 4e-08, 0))
hIsland = hIsland.add(rect(2.5924177301446152e-09, 3.933234799329535e-09).transl(-5.244263882331793e-10, 4e-08, 0))
hIsland = hIsland.sub(rect(6.699670625504303e-09, -1.8270830352302757e-09).transl(7.993331030563047e-08, 4e-08, 0))
vIsland = hIsland.rotz(pi / 2)
vIslands = vIslands.add(vIsland.transl(0, -a/2, 0))
DefRegion(1, hIslands)
DefRegion(2, vIslands)
TableAdd(m_full.Region(1))
TableAdd(m_full.Region(2))
setgeom(hIslands.add(vIslands))
save(geom)
r2o2 := sqrt(2) / 2
m = RandomMagSeed(4)
B_ext = vector(Bmax*r2o2, Bmax*r2o2, 0)
relax()
minimize()
for B := Bmax; B >= -Bmax; B -= Bstep {
	B_ext = vector(B*r2o2, B*r2o2, 0)
	minimize()
	tablesave()
}
//********************************************************************//
//Please cite the following references, relevant for your simulation. //
//See bibtex file in output folder for justification.                 //
//********************************************************************//
//   * Vansteenkiste et al., AIP Adv. 4, 107133 (2014).
//   * Exl et al., J. Appl. Phys. 115, 17D118 (2014).
