//mumax 3.10 [windows_amd64 go1.11.6(gc) CUDA-11.0]
//GPU info: NVIDIA GeForce RTX 3090(24575MB), CUDA Driver 12.1, cc=8.6, using cc=80 PTX
//(c) Arne Vansteenkiste, Dynamat LAB, Ghent University, Belgium
//This is free software without any warranty. See license.txt
//********************************************************************//
//  If you use mumax in any work or publication,                      //
//  we kindly ask you to cite the references in references.bib        //
//********************************************************************//
//output directory: r1;p0.1;a4.2e-07;l1.8000000000000002e-07;s1.out/
randSeed(1)
ThermSeed(1)
resolution := 2e-09
zResolution := 5e-09
a := 4.2e-07
gridSize := 420
gridDepth := 5
SetCellsize(resolution, resolution, zResolution)
SetGridsize(gridSize, gridSize, gridDepth)
SetPBC(16, 16, 0)
//resizing...
Msat = 700e3
Aex = 13e-12
alpha = 0.2
Bmax := 0.1
Bstep := Bmax / 500.0
TableAdd(B_ext)
TableAdd(m_full)
islandWidth := 8e-08
islandLength := 1.8000000000000002e-07
ellipseConstant := 9.000000000000001e-09
hIsland := Universe().Inverse()
vIsland := Universe().Inverse()
vIslands := Universe().Inverse()
hIslands := Universe().Inverse()
hIsland = rect(islandLength-2*ellipseConstant, islandWidth)
hIsland = hIsland.add(ellipse(ellipseConstant*2, islandWidth).transl(islandLength/2-ellipseConstant, 0, 0))
hIsland = hIsland.add(ellipse(ellipseConstant*2, islandWidth).transl(-islandLength/2+ellipseConstant, 0, 0))
hIsland = hIsland.add(rect(4.572530599161992e-09, 2.5278454860058443e-09).transl(2.1982290790732584e-08, -4e-08, 0))
hIsland = hIsland.add(rect(8.806972472850248e-09, 4.539255135891951e-09).transl(-7.611370155136177e-08, -4e-08, 0))
hIsland = hIsland.add(rect(4.7281181818484345e-09, 1.2589880531202097e-09).transl(8.383322880579341e-08, -3.796627861383257e-08, 0))
hIsland = hIsland.sub(rect(9.89711969388922e-09, -2.5323965345967432e-11).transl(4.2125586376050544e-08, -4e-08, 0))
hIsland = hIsland.add(rect(4.763029132692249e-09, 1.8825489564595956e-09).transl(-8.866989941525989e-08, -2.0927927096088222e-08, 0))
hIsland = hIsland.sub(rect(8.21670315496843e-09, -1.4104268443582091e-09).transl(-7.259344487749764e-08, -4e-08, 0))
hIsland = hIsland.add(rect(8.635938732473168e-09, 5.123507162469659e-11).transl(3.5755450190195725e-08, -4e-08, 0))
hIsland = hIsland.sub(rect(3.858103622770785e-09, -1.2948802282534654e-09).transl(-3.990050864632055e-08, -4e-08, 0))
hIsland = hIsland.add(rect(7.618783356122376e-09, 3.2277695630990494e-10).transl(8.789634451901209e-08, -2.570120130740572e-08, 0))
hIsland = hIsland.add(rect(6.633887697691851e-09, 1.0773264373715462e-09).transl(4.3792134170498e-08, -4e-08, 0))
hIsland = hIsland.add(rect(2.2780851931424006e-09, 1.85718563468976e-09).transl(-6.963478920331803e-08, -4e-08, 0))
hIsland = hIsland.add(rect(7.195828984760222e-09, 2.778302282235551e-09).transl(4.545218863934645e-08, -4e-08, 0))
hIsland = hIsland.add(rect(6.324170536775505e-09, 2.83565744345313e-09).transl(-7.313069822619256e-08, -4e-08, 0))
hIsland = hIsland.add(rect(6.1820930481886716e-09, 2.4129845588402056e-09).transl(-3.6417642151587836e-08, -4e-08, 0))
hIsland = hIsland.add(rect(6.857286008647339e-09, 3.109736065269047e-10).transl(-5.399772205003416e-09, -4e-08, 0))
hIsland = hIsland.add(rect(2.2615310776919274e-09, 2.064062218771219e-09).transl(-3.503886678973378e-09, -4e-08, 0))
hIsland = hIsland.add(rect(6.534506820075829e-09, 9.357612399085286e-11).transl(8.70279189614033e-08, -2.970278882687481e-08, 0))
hIsland = hIsland.sub(rect(3.2610360240055876e-09, -3.0181327966218765e-09).transl(4.3580451747715415e-08, -4e-08, 0))
hIsland = hIsland.sub(rect(2.756904241160469e-09, -1.784625806762608e-11).transl(1.3290473566444036e-08, -4e-08, 0))
hIsland = hIsland.sub(rect(3.853412568433092e-09, -3.5954942050961887e-09).transl(1.2275137608742968e-08, -4e-08, 0))
hIsland = hIsland.add(rect(5.6498825687108535e-09, 1.4496294413573795e-12).transl(-1.3360120622800688e-08, -4e-08, 0))
hIsland = hIsland.add(rect(3.258721756431998e-09, 1.7465033418759432e-09).transl(-9.318283167196547e-09, -4e-08, 0))
hIsland = hIsland.add(rect(8.833266039718254e-09, 3.27103796740758e-09).transl(5.858087205730376e-08, -4e-08, 0))
hIsland = hIsland.sub(rect(7.374596402050649e-09, -1.6015310542463633e-10).transl(-5.931162227365706e-08, -4e-08, 0))
hIsland = hIsland.add(rect(5.751303102798794e-09, 2.3450230393634797e-09).transl(6.979659403657661e-08, -4e-08, 0))
hIsland = hIsland.add(rect(4.98117939799593e-09, 2.98928122438006e-10).transl(-3.8659272738684446e-08, -4e-08, 0))
hIsland = hIsland.sub(rect(6.2968725496926205e-09, -7.851961068590358e-10).transl(-1.8267477989400495e-08, -4e-08, 0))
hIsland = hIsland.add(rect(9.402392739161779e-09, 1.88072262331267e-09).transl(2.509172623816275e-09, -4e-08, 0))
hIsland = hIsland.add(rect(5.898239801387846e-09, 2.898467569769856e-09).transl(9.683349976730503e-09, -4e-08, 0))
hIsland = hIsland.add(rect(2.9543946630395958e-09, 1.2746193913135015e-09).transl(6.489378290268444e-08, -4e-08, 0))
hIsland = hIsland.sub(rect(9.686981076716045e-09, -2.590383590769712e-10).transl(-5.7870536314884115e-09, -4e-08, 0))
hIsland = hIsland.add(rect(6.197634867324617e-09, 2.761179971079715e-09).transl(8.914179539450683e-08, -1.7046728952500004e-08, 0))
hIsland = hIsland.sub(rect(8.462013856344758e-09, -4.903162062811377e-09).transl(6.436589982154105e-08, -4e-08, 0))
hIsland = hIsland.add(rect(2.248581573003386e-09, 2.369557448497837e-09).transl(-7.1169813173392996e-09, -4e-08, 0))
hIsland = hIsland.add(rect(4.544966943710045e-09, 1.253463458364586e-09).transl(5.10373943610567e-09, -4e-08, 0))
hIsland = hIsland.add(rect(3.433274589145164e-09, 1.4939772496211873e-09).transl(7.115922942271028e-08, -4e-08, 0))
hIsland = hIsland.sub(rect(4.402997907271112e-09, -8.668383168030788e-10).transl(6.425926505717327e-08, -4e-08, 0))
hIsland = hIsland.add(rect(5.510673667276761e-09, 1.5246027014186327e-09).transl(4.82499052297566e-08, -4e-08, 0))
hIsland = hIsland.add(rect(8.945594984823722e-09, 1.1147441895729842e-09).transl(8.627960471225179e-08, -3.2394413199891585e-08, 0))
hIsland = hIsland.sub(rect(5.7390630491704995e-09, -3.1465404716820585e-09).transl(-4.3981980454148894e-08, -4e-08, 0))
hIsland = hIsland.sub(rect(7.1987260623653195e-09, -1.296875336658445e-09).transl(7.288602436794472e-08, -4e-08, 0))
hIsland = hIsland.sub(rect(4.0750945258734035e-09, -2.025450238320726e-09).transl(-3.162613326395509e-08, -4e-08, 0))
hIsland = hIsland.add(rect(5.913785588642851e-09, 2.424962418634856e-09).transl(4.040823109902148e-08, -4e-08, 0))
hIsland = hIsland.add(rect(7.900868170001888e-09, 5.296197210178138e-10).transl(-5.284457350449439e-08, -4e-08, 0))
hIsland = hIsland.add(rect(7.478125825689854e-09, 7.490971899529631e-10).transl(-5.354123091861919e-08, -4e-08, 0))
hIsland = hIsland.sub(rect(7.3479150044430965e-09, -3.0396673697052286e-09).transl(-2.384324056775657e-08, -4e-08, 0))
hIsland = hIsland.sub(rect(9.934993522334746e-09, -2.2483862023971305e-09).transl(5.657985399912657e-08, -4e-08, 0))
hIsland = hIsland.sub(rect(8.847214165063431e-09, -3.235529602049591e-11).transl(-7.034965822498419e-08, -4e-08, 0))
hIsland = hIsland.add(rect(6.174525066054485e-09, 1.120009782185904e-09).transl(-5.373632949886596e-08, -4e-08, 0))
hIsland = hIsland.sub(rect(6.4507072004811175e-09, -2.8076740232570714e-09).transl(6.354809586296723e-08, -4e-08, 0))
hIsland = hIsland.add(rect(5.728290104685079e-09, 1.9684596536535413e-09).transl(-1.9638234476027813e-08, -4e-08, 0))
hIsland = hIsland.add(rect(2.4149822062596886e-09, 2.3247534963562828e-09).transl(8.0095549438437e-08, -4e-08, 0))
hIsland = hIsland.add(rect(8.790036953515459e-09, 2.1758133599638384e-09).transl(2.447062664233702e-08, -4e-08, 0))
hIsland = hIsland.sub(rect(6.835797147464162e-09, -1.939391264289657e-09).transl(-4.2093436902699726e-08, -4e-08, 0))
hIsland = hIsland.sub(rect(6.947342259448765e-09, -2.5494257168607908e-09).transl(6.77189314813555e-08, -4e-08, 0))
hIsland = hIsland.add(rect(4.205345571296931e-09, 6.284140688091508e-10).transl(-7.860622168278593e-08, -4e-08, 0))
hIsland = hIsland.add(rect(3.730969663733881e-09, 1.9100573918466775e-09).transl(-6.940923303788426e-08, -4e-08, 0))
hIsland = hIsland.sub(rect(6.483553788829966e-09, -1.2833199745307113e-09).transl(-6.797206908085325e-08, -4e-08, 0))
hIsland = hIsland.sub(rect(3.5914814574525443e-09, -2.5927606642822674e-09).transl(-1.968448438348039e-09, -4e-08, 0))
hIsland = hIsland.add(rect(7.1124330965889414e-09, 1.550409398252229e-09).transl(2.3835193798105002e-08, -4e-08, 0))
hIsland = hIsland.add(rect(9.895987510192624e-09, 1.7094462558214756e-09).transl(5.3683333726133614e-08, -4e-08, 0))
hIsland = hIsland.sub(rect(9.84061142917789e-09, -2.5683681500393003e-09).transl(6.474892408326189e-08, -4e-08, 0))
hIsland = hIsland.add(rect(6.552197376814941e-09, 1.5467254231613147e-09).transl(-8.695415455680648e-08, -2.9995240285352193e-08, 0))
hIsland = hIsland.add(rect(8.662128273690734e-09, 1.5839801499731137e-09).transl(-6.091112996372191e-08, -4e-08, 0))
hIsland = hIsland.add(rect(8.198008390845143e-09, 3.6651047509778097e-09).transl(-9.460621363126951e-09, -4e-08, 0))
hIsland = hIsland.sub(rect(6.387570945533765e-09, -1.303871001507217e-09).transl(3.2436035026927344e-08, -4e-08, 0))
hIsland = hIsland.sub(rect(3.536596018703014e-09, -4.524890962281503e-09).transl(7.762938347496737e-09, -4e-08, 0))
hIsland = hIsland.sub(rect(8.340722777159506e-09, -2.966765021742879e-11).transl(8.36314285130963e-08, -3.82520772241166e-08, 0))
hIsland = hIsland.sub(rect(9.126218851534479e-09, -1.9877242629206777e-10).transl(-2.414569317586488e-08, -4e-08, 0))
hIsland = hIsland.add(rect(7.217119392479787e-09, 4.3948701523537364e-09).transl(3.187503922717709e-08, -4e-08, 0))
hIsland = hIsland.add(rect(9.909904159015533e-09, 7.980367623322249e-10).transl(8.321320413290727e-08, -3.877169069475846e-08, 0))
hIsland = hIsland.add(rect(4.580439536940896e-09, 1.939867971817669e-09).transl(6.475620494792492e-08, -4e-08, 0))
hIsland = hIsland.add(rect(6.916588138850349e-09, 3.456745808918109e-09).transl(-5.0299376316393415e-08, -4e-08, 0))
hIsland = hIsland.sub(rect(6.364836121930271e-09, -6.315156980269803e-10).transl(-6.12216626698204e-08, -4e-08, 0))
hIsland = hIsland.add(rect(9.15924343075162e-09, 7.267049682010388e-10).transl(-5.092678930955665e-08, -4e-08, 0))
hIsland = hIsland.sub(rect(7.79724268695668e-09, -3.884381242960459e-09).transl(6.744710018369273e-08, -4e-08, 0))
hIsland = hIsland.sub(rect(4.664943634963935e-09, -3.5869996477312024e-10).transl(-8.858757518898474e-08, -2.1512535651409205e-08, 0))
hIsland = hIsland.add(rect(6.51539978054521e-09, 7.489706052895658e-10).transl(-6.086222068995889e-08, -4e-08, 0))
hIsland = hIsland.sub(rect(3.0466682708006146e-09, -1.377785204525214e-09).transl(3.394382297051107e-08, -4e-08, 0))
hIsland = hIsland.add(rect(7.053141132541631e-09, 1.8251244587300007e-09).transl(-8.192937090855123e-08, -3.9786161677447275e-08, 0))
hIsland = hIsland.add(rect(4.3700607869637915e-09, 3.201131385927895e-10).transl(-8.471808424092945e-08, -3.6427055357546696e-08, 0))
hIsland = hIsland.sub(rect(8.693662228079906e-09, -1.7819016432413974e-10).transl(8.679906358017381e-08, -3.058955251105682e-08, 0))
hIsland = hIsland.sub(rect(6.575828544684896e-09, -1.3129286988074474e-09).transl(-2.8237100214184148e-08, -4e-08, 0))
hIsland = hIsland.sub(rect(7.278026323104393e-09, -2.485913244919218e-09).transl(-8.049417045746219e-08, -4e-08, 0))
hIsland = hIsland.sub(rect(4.256345616028154e-09, -6.391639489803755e-11).transl(-2.9098603820022142e-08, -4e-08, 0))
hIsland = hIsland.add(rect(2.235620564999441e-09, 5.883801614120828e-11).transl(-7.0176630882644e-08, -4e-08, 0))
hIsland = hIsland.sub(rect(7.177946245746259e-09, -1.574961623088368e-09).transl(4.7535216792184306e-08, -4e-08, 0))
hIsland = hIsland.sub(rect(2.297119076544059e-09, -1.380699371893192e-09).transl(-7.16530066679754e-08, -4e-08, 0))
hIsland = hIsland.sub(rect(7.236245294716769e-09, -1.7853299845796484e-09).transl(1.0968299519821481e-08, -4e-08, 0))
hIsland = hIsland.sub(rect(8.81563959973882e-09, -2.383752364562542e-09).transl(-3.450823564503111e-11, -4e-08, 0))
hIsland = hIsland.add(rect(7.864495187981374e-09, 1.4121557213922756e-09).transl(-1.8717112773055198e-08, -4e-08, 0))
hIsland = hIsland.add(rect(4.057569879104765e-09, 8.223037395904474e-12).transl(4.705933687200496e-08, -4e-08, 0))
hIsland = hIsland.add(rect(6.596758151165888e-09, 1.6777176983130085e-09).transl(-3.6143880799778505e-08, -4e-08, 0))
hIsland = hIsland.add(rect(2.2080493844737825e-09, 1.3393011473329272e-09).transl(3.210707436303373e-10, -4e-08, 0))
hIsland = hIsland.add(rect(4.493908209217577e-09, 2.5823172473334594e-09).transl(-6.620631601879767e-08, -4e-08, 0))
hIsland = hIsland.sub(rect(6.254160613223241e-09, -3.5282835207466712e-09).transl(-7.136179456489756e-08, -4e-08, 0))
hIsland = hIsland.sub(rect(2.208526140900835e-09, -4.115367699031362e-09).transl(3.31362606348017e-08, -4e-08, 0))
hIsland = hIsland.sub(rect(6.825984541893538e-09, -6.030391135860025e-10).transl(-5.923882963095725e-08, -4e-08, 0))
hIsland = hIsland.sub(rect(4.167645811233819e-09, -1.9485501527391242e-10).transl(-2.6322262538010195e-08, -4e-08, 0))
hIsland = hIsland.sub(rect(8.954167353599175e-09, -6.513388141799022e-10).transl(-5.6735872248889764e-08, -4e-08, 0))
hIsland = hIsland.sub(rect(9.698316695911921e-09, -2.5689904101833274e-09).transl(-7.752434032734585e-08, -4e-08, 0))
hIsland = hIsland.add(rect(5.91269800658976e-09, 1.3375744837637041e-09).transl(-7.649229562841612e-08, -4e-08, 0))
hIsland = hIsland.add(rect(7.3074911732478655e-09, 1.3322279418467883e-10).transl(8.547135757462795e-08, -3.4714201438708853e-08, 0))
hIsland = hIsland.add(rect(6.463365162162426e-09, 2.853140384567767e-09).transl(6.440234591422747e-08, -4e-08, 0))
hIsland = hIsland.add(rect(9.486939116174625e-09, 4.669246415931601e-09).transl(1.7619958847792565e-08, -4e-08, 0))
hIsland = hIsland.sub(rect(2.130587543816742e-09, -1.5943556879707542e-09).transl(-3.816512611315469e-08, -4e-08, 0))
hIsland = hIsland.sub(rect(7.191476188755761e-09, -2.7963530544814597e-09).transl(8.401767046441138e-08, -3.7684503143202116e-08, 0))
hIsland = hIsland.add(rect(3.741018135621749e-09, 1.8110650341408695e-09).transl(3.804946355288134e-08, -4e-08, 0))
hIsland = hIsland.add(rect(9.431241451883211e-09, 1.176993649459619e-09).transl(-4.5857861023344286e-08, -4e-08, 0))
hIsland = hIsland.sub(rect(4.2518029702783044e-09, -2.6016496193619654e-09).transl(-5.8684327764590535e-08, -4e-08, 0))
hIsland = hIsland.sub(rect(3.267150148011374e-09, -5.890098799224371e-10).transl(1.1232621796047394e-08, -4e-08, 0))
hIsland = hIsland.sub(rect(6.016072001826043e-09, -4.1183583239783714e-10).transl(-3.582239122500608e-08, -4e-08, 0))
hIsland = hIsland.add(rect(9.916641750179549e-09, 1.2453639722880744e-10).transl(-4.807690076203336e-08, -4e-08, 0))
hIsland = hIsland.sub(rect(9.103545382088427e-09, -3.62465595669275e-10).transl(5.6600806936446595e-08, -4e-08, 0))
hIsland = hIsland.add(rect(9.897633915641116e-09, 7.510302282744196e-10).transl(6.616710232203373e-08, -4e-08, 0))
hIsland = hIsland.add(rect(7.584936893063078e-09, 2.462314301925277e-09).transl(-7.13649905339238e-09, -4e-08, 0))
hIsland = hIsland.sub(rect(8.14631164313804e-09, -2.6926041341225743e-09).transl(6.483843080359759e-08, -4e-08, 0))
hIsland = hIsland.add(rect(3.461863556083926e-09, 5.669994700629576e-09).transl(-5.9402579970380056e-08, -4e-08, 0))
hIsland = hIsland.sub(rect(4.892049212189612e-09, -1.4700235096510646e-09).transl(5.044025329777995e-08, -4e-08, 0))
hIsland = hIsland.add(rect(8.067542920802145e-09, 2.4724498915956473e-09).transl(4.210343833587272e-08, -4e-08, 0))
hIsland = hIsland.add(rect(5.04654487434424e-09, 8.093157364596203e-10).transl(-4.4907235165920915e-08, -4e-08, 0))
hIsland = hIsland.add(rect(8.901949676003042e-09, 2.8116103154467564e-09).transl(3.2862384099684273e-08, -4e-08, 0))
hIsland = hIsland.sub(rect(5.469362845563655e-09, -3.3088482183494233e-09).transl(-4.341182539616702e-08, -4e-08, 0))
hIsland = hIsland.add(rect(8.462460582163593e-09, 5.082380177540234e-10).transl(-4.1560565680571856e-08, -4e-08, 0))
hIsland = hIsland.sub(rect(8.52044502926747e-09, -3.433495677923484e-09).transl(-6.9464729435536e-08, -4e-08, 0))
hIsland = hIsland.add(rect(4.087212451247234e-09, 3.992030773889322e-09).transl(1.815102963998432e-08, -4e-08, 0))
hIsland = hIsland.sub(rect(7.517342061842202e-09, -4.83539255101483e-10).transl(-6.999823779516908e-08, -4e-08, 0))
hIsland = hIsland.sub(rect(2.521709163147785e-09, -2.1679794302997263e-09).transl(-2.7791778015049873e-11, -4e-08, 0))
hIsland = hIsland.sub(rect(6.16765640544983e-09, -4.220132863735208e-09).transl(-1.9914808108831354e-08, -4e-08, 0))
hIsland = hIsland.sub(rect(6.656686440490691e-09, -1.514356675436102e-09).transl(8.771791318249208e-08, -2.6618342315120318e-08, 0))
hIsland = hIsland.add(rect(2.073624213865534e-09, 1.0299049255893147e-09).transl(2.028155783050436e-08, -4e-08, 0))
hIsland = hIsland.add(rect(9.375468005108542e-09, 3.923741591786004e-10).transl(-6.235222476226483e-08, -4e-08, 0))
hIsland = hIsland.sub(rect(2.3742493456991306e-09, -2.384889879245302e-09).transl(-8.457071530110999e-08, -3.671713489411952e-08, 0))
hIsland = hIsland.add(rect(3.3113957813268835e-09, 1.8805161571096447e-09).transl(7.801361530184726e-08, -4e-08, 0))
hIsland = hIsland.add(rect(2.0080850007898825e-09, 1.8347534054065377e-10).transl(8.572796984804624e-08, -3.403594356180731e-08, 0))
hIsland = hIsland.sub(rect(6.160132917981416e-09, -6.628352044365685e-10).transl(4.712415213212694e-08, -4e-08, 0))
hIsland = hIsland.add(rect(3.667927920328861e-09, 5.894291916457159e-10).transl(-1.9438560765717187e-08, -4e-08, 0))
hIsland = hIsland.add(rect(8.570461388785843e-09, 1.4254000557229865e-09).transl(2.021231113917679e-10, -4e-08, 0))
hIsland = hIsland.add(rect(7.746517189752878e-09, 1.463392025884822e-09).transl(3.0033168694015984e-08, -4e-08, 0))
hIsland = hIsland.sub(rect(8.801880304992669e-09, -1.7638285954804546e-09).transl(-7.209006396857108e-09, -4e-08, 0))
hIsland = hIsland.sub(rect(6.872740928965805e-09, -3.1771293656759724e-10).transl(-7.339022219178653e-09, -4e-08, 0))
hIsland = hIsland.sub(rect(3.134025889779337e-09, -1.4184298273876e-09).transl(-5.5294278765032476e-08, -4e-08, 0))
hIsland = hIsland.add(rect(6.502079966078414e-09, 1.455506700363278e-09).transl(-2.9181696524021047e-08, -4e-08, 0))
hIsland = hIsland.sub(rect(9.956796187596679e-09, -3.6380197396409655e-09).transl(-5.41776710849063e-08, -4e-08, 0))
hIsland = hIsland.add(rect(7.74014732497987e-09, 7.421826172565428e-10).transl(8.742430690645302e-08, -2.8013499663405278e-08, 0))
hIsland = hIsland.add(rect(2.457055478504577e-09, 5.511928822764183e-10).transl(-3.465377615100595e-08, -4e-08, 0))
hIsland = hIsland.sub(rect(4.501195039017243e-09, -1.3340829467444956e-09).transl(-6.616983180227876e-08, -4e-08, 0))
hIsland = hIsland.add(rect(4.188576856534847e-09, 1.77398318649408e-09).transl(-5.091140506107187e-08, -4e-08, 0))
hIsland = hIsland.sub(rect(8.746467584721017e-09, -1.8865456892559675e-09).transl(-6.302780405969583e-08, -4e-08, 0))
hIsland = hIsland.sub(rect(4.655710788355917e-09, -7.110261458429393e-11).transl(-5.4408503905914904e-08, -4e-08, 0))
hIsland = hIsland.sub(rect(9.673061759084432e-09, -8.258562096376845e-10).transl(-5.051833246183964e-08, -4e-08, 0))
hIsland = hIsland.add(rect(7.826506855316674e-09, 3.2821464430081198e-09).transl(-8.978422138736398e-08, -8.706409862672314e-09, 0))
hIsland = hIsland.add(rect(9.40437730967994e-09, 1.3182876185756146e-09).transl(7.843357804417987e-08, -4e-08, 0))
hIsland = hIsland.add(rect(3.4328670105638626e-09, 9.690214664127954e-10).transl(-8.486253766174471e-08, -3.612893312325002e-08, 0))
hIsland = hIsland.add(rect(9.469959437553198e-09, 1.7197557857902038e-09).transl(3.911179577462506e-08, -4e-08, 0))
hIsland = hIsland.sub(rect(5.769186567601342e-09, -1.0260188691431865e-09).transl(-7.16036467576723e-08, -4e-08, 0))
hIsland = hIsland.sub(rect(2.002957045445679e-09, -4.1505465255757234e-11).transl(2.2269016456125235e-08, -4e-08, 0))
hIsland = hIsland.add(rect(8.265592894858806e-09, 3.6097374307892626e-10).transl(7.656907654497426e-08, -4e-08, 0))
hIsland = hIsland.sub(rect(5.440059897828278e-09, -4.376206819423237e-09).transl(7.265161484855e-08, -4e-08, 0))
hIsland = hIsland.sub(rect(4.7435521135992336e-09, -7.296896492867414e-10).transl(2.6718523062865203e-08, -4e-08, 0))
hIsland = hIsland.add(rect(9.75247057908199e-09, 4.098322148756417e-09).transl(-5.5729584980232786e-08, -4e-08, 0))
hIsland = hIsland.add(rect(2.567872472239339e-09, 2.039005466340983e-09).transl(5.906460694234319e-09, -4e-08, 0))
hIsland = hIsland.add(rect(8.294312648025643e-09, 3.414863248313631e-09).transl(1.0117599952773403e-09, -4e-08, 0))
hIsland = hIsland.sub(rect(2.281506799525591e-09, -9.01240484039439e-11).transl(-8.548483941605423e-08, -3.4679830951275064e-08, 0))
hIsland = hIsland.add(rect(2.5690097761099163e-09, 3.040514761981483e-09).transl(-1.5013628815656695e-08, -4e-08, 0))
hIsland = hIsland.add(rect(2.522969762821154e-09, 4.449180929829746e-09).transl(-5.310917042153744e-08, -4e-08, 0))
hIsland = hIsland.add(rect(2.167688571450681e-09, 5.370493310600373e-10).transl(-4.238900749205133e-08, -4e-08, 0))
hIsland = hIsland.add(rect(3.4086351582916506e-09, 5.005241222597694e-10).transl(6.397502996400983e-08, -4e-08, 0))
hIsland = hIsland.sub(rect(2.9408220924060093e-09, -1.5636312923183557e-09).transl(-3.656157100292742e-08, -4e-08, 0))
hIsland = hIsland.add(rect(2.550717002070809e-09, 1.086666410447e-09).transl(-7.906273335150504e-08, -4e-08, 0))
hIsland = hIsland.sub(rect(7.336483621396066e-09, -2.7007080560895416e-09).transl(-1.6831337387652005e-08, -4e-08, 0))
hIsland = hIsland.add(rect(3.5366801971638354e-09, 1.030315480653811e-09).transl(7.616783781120175e-08, -4e-08, 0))
hIsland = hIsland.add(rect(8.161065089929207e-09, 3.191810656771893e-10).transl(-5.86889625787039e-08, -4e-08, 0))
hIsland = hIsland.add(rect(2.569671558953288e-09, 1.0199020878643387e-10).transl(-7.447876366710158e-08, -4e-08, 0))
hIsland = hIsland.add(rect(2.966146610053125e-09, 1.4775987422285045e-09).transl(-9.173924113494953e-09, -4e-08, 0))
hIsland = hIsland.add(rect(7.63005687065149e-09, 4.865080186811293e-09).transl(-7.434950000031602e-08, -4e-08, 0))
hIsland = hIsland.sub(rect(4.872414398871727e-09, -3.726069170037858e-10).transl(8.567275227987345e-08, -3.418623970697085e-08, 0))
hIsland = hIsland.sub(rect(8.284209000229828e-09, -2.278313806879548e-09).transl(-5.3682460411582486e-09, -4e-08, 0))
hIsland = hIsland.add(rect(6.86598419592008e-09, 4.825667541371055e-10).transl(-3.3584372510637714e-08, -4e-08, 0))
hIsland = hIsland.sub(rect(8.285847799133576e-09, -3.055240662444041e-09).transl(-1.6090494807727706e-08, -4e-08, 0))
hIsland = hIsland.add(rect(5.38763973530525e-09, 1.5366137901033703e-09).transl(6.53652486353928e-08, -4e-08, 0))
hIsland = hIsland.sub(rect(2.125191765207969e-09, -1.0749068225914258e-09).transl(-7.317812336836371e-08, -4e-08, 0))
hIsland = hIsland.sub(rect(6.563829797406926e-09, -9.441385763505161e-11).transl(5.3253590675166286e-08, -4e-08, 0))
hIsland = hIsland.sub(rect(9.961271202024363e-09, -3.798561670863123e-09).transl(4.069617914123133e-08, -4e-08, 0))
hIsland = hIsland.sub(rect(6.808690268253432e-09, -2.709786484593737e-09).transl(4.055995019463244e-09, -4e-08, 0))
hIsland = hIsland.add(rect(5.7777436851109085e-09, 1.867939782244646e-09).transl(1.1445437208946529e-08, -4e-08, 0))
hIsland = hIsland.add(rect(7.521285792875856e-09, 2.137999340429989e-09).transl(2.3822043929725793e-08, -4e-08, 0))
hIsland = hIsland.add(rect(8.816400374095719e-09, 2.095138929607222e-09).transl(-8.09538434491802e-08, -4e-08, 0))
hIsland = hIsland.add(rect(9.910111414320121e-09, 1.6956687972742145e-09).transl(4.575615431352819e-08, -4e-08, 0))
hIsland = hIsland.add(rect(6.6975360936755954e-09, 3.4457037839031844e-10).transl(8.740843565524799e-08, -2.8085215108747548e-08, 0))
hIsland = hIsland.add(rect(3.580962576011066e-09, 6.926600436473532e-10).transl(4.282535831657077e-08, -4e-08, 0))
hIsland = hIsland.add(rect(7.97425217718933e-09, 2.0813558016112499e-10).transl(-6.750588859870016e-08, -4e-08, 0))
hIsland = hIsland.sub(rect(9.057028262569368e-09, -9.395011945213507e-10).transl(-7.681793094651435e-08, -4e-08, 0))
hIsland = hIsland.sub(rect(9.106339180249415e-09, -1.0535978885672184e-09).transl(-5.5096658321884124e-08, -4e-08, 0))
hIsland = hIsland.sub(rect(9.505266181773329e-09, -3.6443891572116036e-09).transl(3.168243261388161e-08, -4e-08, 0))
hIsland = hIsland.add(rect(3.6536337675096933e-09, 2.5208183032475097e-09).transl(-6.118386594600675e-08, -4e-08, 0))
hIsland = hIsland.sub(rect(2.6982789157141565e-09, -3.169486982338405e-10).transl(1.374432221473885e-08, -4e-08, 0))
hIsland = hIsland.add(rect(6.9913672060734686e-09, 3.5330382149967976e-10).transl(-8.706043911277768e-08, -2.9571784269724148e-08, 0))
hIsland = hIsland.sub(rect(5.8560719784014864e-09, -2.125013387870305e-09).transl(3.5976157915453084e-08, -4e-08, 0))
hIsland = hIsland.sub(rect(7.858594264918128e-09, -1.2524031793693644e-09).transl(6.536220629545672e-08, -4e-08, 0))
hIsland = hIsland.add(rect(4.119786459334902e-09, 1.7448726858350408e-09).transl(-3.418779682656638e-08, 4e-08, 0))
hIsland = hIsland.add(rect(7.965987022016417e-09, 2.4924879354532585e-09).transl(1.2461483272518001e-08, 4e-08, 0))
hIsland = hIsland.add(rect(6.345258698322098e-09, 4.926106136515523e-11).transl(3.9879854884762134e-08, 4e-08, 0))
hIsland = hIsland.add(rect(8.062355902164128e-09, 1.03970798962322e-09).transl(5.65877992767296e-08, 4e-08, 0))
hIsland = hIsland.add(rect(8.47633399092361e-09, 1.146757530717759e-09).transl(7.2652875844205345e-09, 4e-08, 0))
hIsland = hIsland.add(rect(3.805360586800171e-09, 1.7196998175710338e-09).transl(7.14021498010141e-08, 4e-08, 0))
hIsland = hIsland.sub(rect(9.828813979569294e-09, -3.4933060794067346e-09).transl(-6.874009219605235e-08, 4e-08, 0))
hIsland = hIsland.sub(rect(8.304754737173877e-09, -3.3965409378483653e-10).transl(-3.913294387939899e-08, 4e-08, 0))
hIsland = hIsland.add(rect(6.4398356002170445e-09, 1.901557102389045e-09).transl(-2.394537081730544e-08, 4e-08, 0))
hIsland = hIsland.sub(rect(7.441976472099246e-09, -3.484209956431692e-09).transl(2.285317395305686e-08, 4e-08, 0))
hIsland = hIsland.sub(rect(6.585013432173018e-09, -3.817917550426248e-09).transl(2.0395239752873613e-08, 4e-08, 0))
hIsland = hIsland.sub(rect(6.8006999570012926e-09, -1.9506228861938706e-09).transl(-7.97605509116276e-09, 4e-08, 0))
hIsland = hIsland.sub(rect(7.679660839773406e-09, -2.536521429706648e-10).transl(-6.978616071118384e-08, 4e-08, 0))
hIsland = hIsland.sub(rect(8.17362246265756e-09, -1.5706531180130977e-09).transl(2.776556939249414e-09, 4e-08, 0))
hIsland = hIsland.add(rect(7.536366643698254e-09, 1.8287715646493177e-09).transl(-8.552353587823788e-08, 3.458041211281674e-08, 0))
hIsland = hIsland.sub(rect(4.797419428688296e-09, -4.873975878519435e-09).transl(-7.586051789592938e-08, 4e-08, 0))
hIsland = hIsland.sub(rect(4.066332868025678e-09, -2.078807846263265e-09).transl(-9.2873294717172e-09, 4e-08, 0))
hIsland = hIsland.sub(rect(7.247120864253804e-09, -8.984737683719979e-10).transl(7.987837466401774e-09, 4e-08, 0))
hIsland = hIsland.add(rect(8.106624122387541e-09, 1.0583986068445117e-09).transl(-4.8288359437700855e-09, 4e-08, 0))
hIsland = hIsland.sub(rect(6.3782814376541685e-09, -2.8294052918050565e-09).transl(1.4976322944635685e-08, 4e-08, 0))
hIsland = hIsland.sub(rect(8.286834219581178e-09, -1.3693023694690764e-09).transl(7.316990544856579e-08, 4e-08, 0))
hIsland = hIsland.add(rect(4.010773179527129e-09, 2.5350128442191792e-09).transl(-7.549474417417464e-08, 4e-08, 0))
hIsland = hIsland.sub(rect(6.76439840954046e-09, -1.4389671810335683e-09).transl(-4.925743837083411e-08, 4e-08, 0))
hIsland = hIsland.add(rect(6.122142991779185e-09, 4.302103712897856e-10).transl(6.4024107609992665e-09, 4e-08, 0))
hIsland = hIsland.sub(rect(9.594330622709131e-09, -4.475682526973141e-09).transl(1.408743304499997e-09, 4e-08, 0))
hIsland = hIsland.sub(rect(8.893293093828025e-09, -4.162641780981793e-09).transl(-4.3732901122375234e-08, 4e-08, 0))
hIsland = hIsland.sub(rect(4.980220342622815e-09, -1.780055916215813e-09).transl(1.6329564650769148e-08, 4e-08, 0))
hIsland = hIsland.sub(rect(9.738054958257791e-09, -7.088622458539846e-10).transl(-4.129652304629062e-08, 4e-08, 0))
hIsland = hIsland.sub(rect(9.364358634837084e-09, -4.317696108754317e-10).transl(5.6083628604660016e-08, 4e-08, 0))
hIsland = hIsland.add(rect(6.694864544093279e-09, 9.230177040239315e-10).transl(-5.615981567647929e-08, 4e-08, 0))
hIsland = hIsland.sub(rect(7.3852433866249745e-09, -2.5688442852450237e-09).transl(-7.070507619336469e-08, 4e-08, 0))
hIsland = hIsland.sub(rect(9.350459582991072e-09, -1.1354793932793954e-10).transl(6.00196056497351e-08, 4e-08, 0))
hIsland = hIsland.sub(rect(6.777109910777678e-09, -4.0330672607195837e-10).transl(-1.0691739980526313e-08, 4e-08, 0))
hIsland = hIsland.add(rect(2.849253193739178e-09, 1.7414512110791324e-09).transl(-7.43402478695607e-09, 4e-08, 0))
hIsland = hIsland.sub(rect(7.763058784062574e-09, -4.947408162557877e-10).transl(4.908600721995245e-08, 4e-08, 0))
hIsland = hIsland.add(rect(9.680295550316877e-09, 1.5267426187675877e-09).transl(-1.324107743597357e-08, 4e-08, 0))
hIsland = hIsland.sub(rect(9.359571329748857e-09, -3.8371627194551854e-10).transl(1.5210603705300994e-08, 4e-08, 0))
hIsland = hIsland.add(rect(6.739218507774658e-09, 2.4767073426656515e-09).transl(7.451659458917048e-08, 4e-08, 0))
hIsland = hIsland.add(rect(7.254708449572398e-09, 4.223264047764899e-10).transl(7.997376887095335e-08, 4e-08, 0))
hIsland = hIsland.add(rect(5.630343006486498e-09, 1.3278346809407034e-09).transl(-7.471871678745123e-08, 4e-08, 0))
hIsland = hIsland.add(rect(9.04629197192307e-09, 1.6939013361251277e-09).transl(-6.836353518822408e-08, 4e-08, 0))
hIsland = hIsland.add(rect(8.734385620393644e-09, 8.922638994331281e-10).transl(-8.051192037039545e-08, 4e-08, 0))
hIsland = hIsland.add(rect(9.930053791296694e-09, 2.4697763425604354e-09).transl(-1.2251632584549465e-08, 4e-08, 0))
hIsland = hIsland.sub(rect(2.3765994893334403e-09, -1.0622852672146758e-09).transl(7.611631740431313e-08, 4e-08, 0))
hIsland = hIsland.add(rect(5.658879929575926e-09, 1.9833525776965436e-09).transl(-8.898641629049016e-08, 1.8441582018847985e-08, 0))
hIsland = hIsland.add(rect(7.438282299926335e-09, 1.382417285550019e-09).transl(5.930828756935183e-08, 4e-08, 0))
hIsland = hIsland.sub(rect(7.108995393068354e-09, -1.7877764270570614e-09).transl(-7.906903015011956e-08, 4e-08, 0))
hIsland = hIsland.sub(rect(3.6254440580527653e-09, -3.513493695010442e-09).transl(-2.816984338993226e-08, 4e-08, 0))
hIsland = hIsland.add(rect(2.6035103235336167e-09, 2.675312106066545e-09).transl(1.8003926782133974e-08, 4e-08, 0))
hIsland = hIsland.sub(rect(7.577656117851236e-09, -5.619270548595204e-10).transl(3.839715295264421e-08, 4e-08, 0))
hIsland = hIsland.sub(rect(6.08016123052603e-09, -9.646711499637865e-10).transl(-6.027429234410311e-08, 4e-08, 0))
hIsland = hIsland.sub(rect(3.484651233189115e-09, -5.975416352648003e-10).transl(7.132260565876156e-08, 4e-08, 0))
hIsland = hIsland.add(rect(4.39980199634754e-09, 2.7170679882737067e-10).transl(-3.0611554685047756e-08, 4e-08, 0))
hIsland = hIsland.sub(rect(8.995260685898697e-09, -1.0860926034577489e-09).transl(9.928847219608905e-09, 4e-08, 0))
hIsland = hIsland.sub(rect(9.089204103200148e-09, -2.5499923682134274e-09).transl(5.0783180840097815e-08, 4e-08, 0))
hIsland = hIsland.add(rect(2.468755045548818e-09, 2.6552200494206914e-09).transl(4.6382797294981716e-08, 4e-08, 0))
hIsland = hIsland.sub(rect(6.043222988863757e-09, -2.8980354872159553e-09).transl(-1.1970176702050431e-08, 4e-08, 0))
hIsland = hIsland.sub(rect(6.224639047271467e-09, -3.5635599890955986e-09).transl(-6.205452105133714e-08, 4e-08, 0))
hIsland = hIsland.add(rect(6.033278796518287e-09, 2.0724398024608965e-09).transl(4.2177215187846795e-08, 4e-08, 0))
hIsland = hIsland.sub(rect(3.0256929801992014e-09, -1.4988160136052413e-09).transl(-7.565434530887057e-08, 4e-08, 0))
hIsland = hIsland.sub(rect(4.871597161030264e-09, -1.4249433289183708e-09).transl(8.39286381081053e-10, 4e-08, 0))
hIsland = hIsland.sub(rect(5.039116997429322e-09, -2.578996883820478e-09).transl(-7.538041072403939e-08, 4e-08, 0))
hIsland = hIsland.add(rect(4.967128537196431e-09, 1.8640322832790337e-09).transl(5.841774119838351e-08, 4e-08, 0))
hIsland = hIsland.sub(rect(9.875270277606734e-09, -8.992791765026296e-10).transl(8.406662669920026e-08, 3.7606356354698687e-08, 0))
hIsland = hIsland.sub(rect(5.009589042145751e-09, -9.451251735133316e-10).transl(-3.4353250006247745e-08, 4e-08, 0))
hIsland = hIsland.add(rect(2.545515596279377e-09, 2.5901979161616254e-09).transl(2.4673963666800653e-08, 4e-08, 0))
hIsland = hIsland.sub(rect(2.3174285931293426e-09, -6.236284105532867e-11).transl(-5.702414900958965e-08, 4e-08, 0))
hIsland = hIsland.sub(rect(5.7703661867611305e-09, -2.10957534772218e-09).transl(-3.6424744407196843e-08, 4e-08, 0))
hIsland = hIsland.sub(rect(7.024292148126318e-09, -1.984572715250575e-09).transl(-3.607066455139349e-08, 4e-08, 0))
hIsland = hIsland.add(rect(7.41412176260271e-09, 1.3576267342518179e-09).transl(5.4295050547021627e-08, 4e-08, 0))
hIsland = hIsland.add(rect(2.3083213158881222e-09, 4.0268008749350325e-10).transl(-1.2958363031122845e-08, 4e-08, 0))
hIsland = hIsland.add(rect(7.818805999631483e-09, 2.440545972632265e-09).transl(6.218159133110644e-08, 4e-08, 0))
hIsland = hIsland.sub(rect(2.1864555114766526e-09, -3.963862500004062e-09).transl(-8.482054106966684e-08, 3.621703192125177e-08, 0))
hIsland = hIsland.add(rect(6.795478599497329e-09, 1.8842390376888585e-10).transl(-2.4180200775700577e-08, 4e-08, 0))
hIsland = hIsland.add(rect(8.04420744401914e-09, 4.488322950469223e-09).transl(-3.5310184967526027e-08, 4e-08, 0))
hIsland = hIsland.sub(rect(4.591477457041352e-09, -1.0485895216315324e-09).transl(8.905641899522791e-08, 1.782998610239166e-08, 0))
hIsland = hIsland.add(rect(8.606885971496063e-09, 1.3024050431039457e-09).transl(3.443089467319792e-08, 4e-08, 0))
hIsland = hIsland.sub(rect(4.380337902725784e-09, -1.0974553582833736e-09).transl(-1.6612843785808126e-08, 4e-08, 0))
hIsland = hIsland.sub(rect(9.081516476679227e-09, -4.684117118226361e-09).transl(-1.9392607954961724e-08, 4e-08, 0))
hIsland = hIsland.sub(rect(2.3263895742377793e-09, -2.5646850837098055e-09).transl(-4.455194430249325e-09, 4e-08, 0))
hIsland = hIsland.sub(rect(3.571219330201948e-09, -2.7356519312712557e-09).transl(3.1258989129869277e-10, 4e-08, 0))
hIsland = hIsland.sub(rect(8.498683311810805e-09, -1.1833610676994169e-09).transl(1.5534190309890617e-08, 4e-08, 0))
hIsland = hIsland.add(rect(2.6961311949798974e-09, 3.016503415631854e-10).transl(8.307589546308581e-08, 3.892142334989845e-08, 0))
hIsland = hIsland.sub(rect(9.249728891749058e-09, -5.99403936149616e-10).transl(6.39692554362742e-09, 4e-08, 0))
hIsland = hIsland.add(rect(5.49454895495828e-09, 1.638836646941174e-09).transl(-1.714131966942545e-08, 4e-08, 0))
hIsland = hIsland.sub(rect(3.1918827659909853e-09, -4.2279938769101724e-10).transl(7.250985995416559e-08, 4e-08, 0))
hIsland = hIsland.add(rect(5.682074512803846e-09, 2.5980045014133006e-09).transl(-4.14320720528769e-08, 4e-08, 0))
hIsland = hIsland.add(rect(7.82019480577204e-09, 3.492757865265202e-10).transl(2.428610322293747e-08, 4e-08, 0))
hIsland = hIsland.add(rect(6.35463600408037e-09, 5.605356397837927e-10).transl(-7.25080294592591e-09, 4e-08, 0))
hIsland = hIsland.add(rect(9.439691447574113e-09, 1.6695039330634408e-10).transl(-8.833968166417619e-08, 2.314914522851723e-08, 0))
hIsland = hIsland.add(rect(5.622712583060627e-09, 9.799492437784673e-11).transl(2.752279810840236e-08, 4e-08, 0))
hIsland = hIsland.sub(rect(4.967549224932257e-09, -1.0004700041022242e-09).transl(-3.7286118335623867e-08, 4e-08, 0))
hIsland = hIsland.add(rect(8.759227971543517e-09, 1.2484570171364344e-10).transl(-2.8230464570784134e-09, 4e-08, 0))
hIsland = hIsland.add(rect(5.727677431734171e-09, 8.591123021210169e-10).transl(8.844929794921489e-08, 2.2446846984204837e-08, 0))
hIsland = hIsland.sub(rect(8.60669282924254e-09, -4.178410454512995e-10).transl(-4.4649417203988644e-08, 4e-08, 0))
hIsland = hIsland.sub(rect(9.138680988968265e-09, -1.65545488538246e-09).transl(-3.004828933713168e-08, 4e-08, 0))
hIsland = hIsland.sub(rect(3.773795448117216e-09, -1.1655517525638402e-09).transl(7.649359665144609e-08, 4e-08, 0))
hIsland = hIsland.sub(rect(3.940468308290594e-09, -2.9613503894540296e-09).transl(4.9596352135808944e-08, 4e-08, 0))
hIsland = hIsland.sub(rect(2.7556455618590663e-09, -2.271356282565709e-09).transl(8.348319625007364e-08, 3.8447331011380645e-08, 0))
hIsland = hIsland.sub(rect(6.236776457720159e-09, -2.2729651860318605e-09).transl(3.178036203660858e-08, 4e-08, 0))
hIsland = hIsland.sub(rect(2.089135968775897e-09, -1.609872394366246e-09).transl(5.284813378581264e-08, 4e-08, 0))
hIsland = hIsland.add(rect(8.151799085558506e-09, 2.65308052037896e-09).transl(6.803475281983786e-08, 4e-08, 0))
hIsland = hIsland.add(rect(6.472865970791862e-09, 7.221824745008654e-10).transl(7.50729565174573e-08, 4e-08, 0))
hIsland = hIsland.add(rect(8.379917421109282e-09, 2.793186093118245e-10).transl(-7.411121755378378e-08, 4e-08, 0))
hIsland = hIsland.sub(rect(8.509511961883524e-09, -4.3776413963744946e-10).transl(3.901869907474926e-08, 4e-08, 0))
hIsland = hIsland.sub(rect(7.305665438090472e-09, -1.1662752388408142e-09).transl(4.439362090308111e-08, 4e-08, 0))
hIsland = hIsland.add(rect(4.71492296317349e-09, 2.027843967173041e-09).transl(-5.009156010643056e-08, 4e-08, 0))
hIsland = hIsland.add(rect(5.095061365609962e-09, 8.331476280646096e-11).transl(4.0356554831401396e-08, 4e-08, 0))
hIsland = hIsland.add(rect(8.450580328971143e-09, 1.7359514528583634e-09).transl(3.5543926095137033e-08, 4e-08, 0))
hIsland = hIsland.add(rect(3.765944148606197e-09, 1.412962858608272e-09).transl(-2.1033459617229863e-08, 4e-08, 0))
hIsland = hIsland.sub(rect(6.122358949894052e-09, -3.5279905559420806e-09).transl(3.5255891053366394e-09, 4e-08, 0))
hIsland = hIsland.add(rect(7.517709943881139e-09, 2.2322899598863764e-10).transl(-3.906140416025615e-08, 4e-08, 0))
hIsland = hIsland.sub(rect(3.2231247025996332e-09, -8.867690060476678e-11).transl(8.798544831560018e-08, 2.5221394731439576e-08, 0))
hIsland = hIsland.sub(rect(7.637958933642951e-09, -9.320986245276283e-10).transl(-3.559290736254352e-08, 4e-08, 0))
hIsland = hIsland.add(rect(6.7224036607992244e-09, 4.227368326702834e-10).transl(-9.307451234421199e-10, 4e-08, 0))
hIsland = hIsland.sub(rect(7.546797682397808e-09, -3.843848308276764e-11).transl(-8.338592858819214e-08, 3.8568802020861306e-08, 0))
hIsland = hIsland.sub(rect(3.4501431492897484e-09, -2.031083578362991e-09).transl(-3.4507728214704985e-08, 4e-08, 0))
hIsland = hIsland.add(rect(9.574008250328363e-09, 3.930897908003754e-09).transl(6.378589862792039e-08, 4e-08, 0))
hIsland = hIsland.add(rect(6.876452435940943e-09, 1.458149267750745e-09).transl(1.1976742043819389e-08, 4e-08, 0))
hIsland = hIsland.sub(rect(5.092585437676195e-09, -1.6106336377999324e-09).transl(-1.5765658965311437e-08, 4e-08, 0))
hIsland = hIsland.add(rect(8.784556277180067e-09, 1.3563120947771538e-09).transl(3.397812616985268e-08, 4e-08, 0))
hIsland = hIsland.sub(rect(3.333463117768209e-09, -3.7624427334817176e-10).transl(3.1594884191263814e-08, 4e-08, 0))
hIsland = hIsland.add(rect(8.31787750459527e-09, 9.354419323660889e-10).transl(-8.648941669698378e-08, 3.1698052072994004e-08, 0))
hIsland = hIsland.add(rect(2.8073487943298074e-09, 5.758846422437286e-10).transl(-2.388169648990768e-08, 4e-08, 0))
hIsland = hIsland.add(rect(8.251155433497055e-09, 3.2290200868571914e-10).transl(5.456451786121446e-09, 4e-08, 0))
hIsland = hIsland.add(rect(7.71648902344668e-09, 3.6217170440363124e-09).transl(6.113992957230314e-09, 4e-08, 0))
hIsland = hIsland.add(rect(5.212467301148623e-09, 1.609753405980662e-09).transl(5.1807510137459345e-08, 4e-08, 0))
hIsland = hIsland.add(rect(2.424468297935338e-09, 3.5568955626163383e-10).transl(-4.666091762879614e-08, 4e-08, 0))
hIsland = hIsland.sub(rect(4.9992679903234626e-09, -1.905827019511015e-09).transl(5.029458200870981e-08, 4e-08, 0))
hIsland = hIsland.add(rect(9.853465411133638e-09, 1.6547776478558211e-09).transl(-8.799219313893749e-08, 2.5184449486865065e-08, 0))
hIsland = hIsland.sub(rect(9.668969889370111e-09, -3.388235948264786e-10).transl(1.60670415491124e-08, 4e-08, 0))
hIsland = hIsland.add(rect(7.938856667575114e-09, 1.0406743733216698e-09).transl(3.570798552146664e-08, 4e-08, 0))
hIsland = hIsland.sub(rect(5.0461064723641226e-09, -2.6916028213671e-10).transl(-1.3631203540128578e-08, 4e-08, 0))
hIsland = hIsland.add(rect(4.141639783021178e-09, 3.7477936560480674e-10).transl(-2.61665135760914e-08, 4e-08, 0))
hIsland = hIsland.sub(rect(6.185126225982498e-09, -1.7731990606738023e-09).transl(-6.382214190757559e-08, 4e-08, 0))
hIsland = hIsland.add(rect(3.75211015523745e-09, 7.829107734643882e-10).transl(-7.625262899825634e-08, 4e-08, 0))
hIsland = hIsland.sub(rect(4.82789283430766e-09, -2.710679944435983e-09).transl(3.726136286594647e-08, 4e-08, 0))
hIsland = hIsland.sub(rect(2.076519553502787e-09, -2.152821034924987e-09).transl(5.325125291904604e-08, 4e-08, 0))
hIsland = hIsland.sub(rect(5.783141578308858e-09, -8.088028543671459e-10).transl(8.936781611696128e-08, 1.472691560088267e-08, 0))
hIsland = hIsland.add(rect(3.928195739504206e-09, 1.7217877769138565e-09).transl(6.500194962305985e-08, 4e-08, 0))
hIsland = hIsland.add(rect(2.9640929293603506e-09, 2.9256838310590808e-09).transl(-4.380752455672714e-08, 4e-08, 0))
hIsland = hIsland.add(rect(6.34790887014026e-09, 7.332969730697548e-10).transl(-7.827627471553379e-08, 4e-08, 0))
hIsland = hIsland.sub(rect(9.390561013468464e-09, -3.498483876442009e-10).transl(-4.938633082189056e-08, 4e-08, 0))
hIsland = hIsland.sub(rect(5.708721830640318e-09, -2.4392939614752316e-10).transl(-3.709190507578123e-08, 4e-08, 0))
hIsland = hIsland.sub(rect(6.5523807589484815e-09, -1.0132359225764847e-09).transl(8.498022483118428e-08, 3.5875727973714135e-08, 0))
hIsland = hIsland.add(rect(7.6011369706815e-09, 1.7679845944568433e-09).transl(6.043383603019576e-08, 4e-08, 0))
hIsland = hIsland.add(rect(7.112815363039156e-09, 3.5558942280310755e-09).transl(5.836473530697175e-08, 4e-08, 0))
hIsland = hIsland.add(rect(3.4936402892507483e-09, 5.649317786251806e-11).transl(-6.392756983623189e-09, 4e-08, 0))
hIsland = hIsland.add(rect(9.113258145932176e-09, 7.818758604179216e-10).transl(5.820661048414889e-08, 4e-08, 0))
hIsland = hIsland.sub(rect(7.546663347228499e-09, -1.5490406923879214e-09).transl(-5.2259340421293794e-08, 4e-08, 0))
hIsland = hIsland.add(rect(8.82817228592705e-09, 4.874192524987549e-10).transl(-2.8885476404040383e-08, 4e-08, 0))
hIsland = hIsland.add(rect(5.2645904277112996e-09, 2.52161135630477e-09).transl(-6.974582128814994e-08, 4e-08, 0))
hIsland = hIsland.sub(rect(3.134919665362266e-09, -2.8860781455571532e-09).transl(-5.6430241544357864e-08, 4e-08, 0))
hIsland = hIsland.sub(rect(5.299729416097949e-09, -4.173779287168104e-09).transl(2.0837966596331775e-08, 4e-08, 0))
hIsland = hIsland.add(rect(9.831988729184624e-09, 2.048760383222508e-09).transl(6.585191380505058e-08, 4e-08, 0))
hIsland = hIsland.sub(rect(8.566704970749691e-09, -1.2364763597818018e-10).transl(-4.748542143620671e-08, 4e-08, 0))
hIsland = hIsland.add(rect(7.12905615876982e-09, 2.646066323777947e-12).transl(3.3841112965730666e-08, 4e-08, 0))
hIsland = hIsland.sub(rect(5.745707950952073e-09, -3.044718916888759e-10).transl(-8.816779665573494e-08, 2.418965847886556e-08, 0))
hIsland = hIsland.sub(rect(5.9500626051116085e-09, -1.569079436941461e-09).transl(-2.2384475038733837e-08, 4e-08, 0))
hIsland = hIsland.add(rect(4.911464695583522e-09, 2.1590233827917417e-10).transl(-3.388429860384188e-08, 4e-08, 0))
hIsland = hIsland.add(rect(8.865162503955023e-09, 3.4819883151221377e-09).transl(-7.77706040183247e-08, 4e-08, 0))
hIsland = hIsland.sub(rect(3.711493882745165e-09, -3.451654878716297e-09).transl(-2.3929131894828053e-08, 4e-08, 0))
hIsland = hIsland.add(rect(6.6079568382344806e-09, 2.813406046262853e-10).transl(1.6878551112895424e-08, 4e-08, 0))
hIsland = hIsland.sub(rect(8.930829500914524e-09, -7.216703094403425e-10).transl(6.542037063077634e-08, 4e-08, 0))
hIsland = hIsland.add(rect(7.555785537926361e-09, 3.2287693406832518e-09).transl(8.095022132929248e-08, 4e-08, 0))
hIsland = hIsland.add(rect(8.96307568121933e-09, 2.4380253651955844e-09).transl(1.5548559387368103e-08, 4e-08, 0))
hIsland = hIsland.sub(rect(6.184299784730706e-09, -7.621391629420681e-10).transl(8.179237103468861e-08, 3.984467327030693e-08, 0))
hIsland = hIsland.sub(rect(2.5697642800526605e-09, -9.995856187073828e-10).transl(5.917206303860036e-08, 4e-08, 0))
hIsland = hIsland.add(rect(3.922860094796583e-09, 3.7419754031871684e-10).transl(-8.02325583010422e-08, 4e-08, 0))
hIsland = hIsland.add(rect(5.605721750797947e-09, 1.1185028470100573e-09).transl(-1.508950536185372e-08, 4e-08, 0))
hIsland = hIsland.add(rect(4.478909294597497e-09, 2.51204441883378e-10).transl(-5.508774864105157e-08, 4e-08, 0))
hIsland = hIsland.sub(rect(4.471389116889968e-09, -1.678705495144565e-10).transl(-4.8333924897230783e-08, 4e-08, 0))
hIsland = hIsland.sub(rect(4.039073702128655e-09, -3.754427465108347e-09).transl(-1.2480262221687184e-08, 4e-08, 0))
hIsland = hIsland.add(rect(5.4161057916977835e-09, 1.284051182528226e-09).transl(3.516578273086877e-08, 4e-08, 0))
hIsland = hIsland.add(rect(5.100605347748287e-09, 2.8003680251699522e-09).transl(-2.271680812352539e-08, 4e-08, 0))
hIsland = hIsland.sub(rect(8.812746379258679e-09, -6.330529648549196e-10).transl(5.890736263647631e-08, 4e-08, 0))
hIsland = hIsland.add(rect(5.112532523972169e-09, 2.415802269532489e-09).transl(2.2074105320081985e-08, 4e-08, 0))
hIsland = hIsland.sub(rect(2.2835535487434315e-09, -1.8800464719364734e-09).transl(7.289155857354157e-08, 4e-08, 0))
hIsland = hIsland.add(rect(9.697956293677823e-09, 3.847651149187981e-10).transl(-7.748646907254914e-08, 4e-08, 0))
hIsland = hIsland.add(rect(7.58088887296214e-09, 9.98318099442011e-10).transl(5.083926985012151e-08, 4e-08, 0))
hIsland = hIsland.sub(rect(4.378148185205299e-09, -2.8162295631173977e-09).transl(4.7747307206745005e-08, 4e-08, 0))
hIsland = hIsland.sub(rect(9.534450726686781e-09, -1.200018612439939e-09).transl(8.343242165401835e-08, 3.851139318921191e-08, 0))
hIsland = hIsland.add(rect(4.741609705606067e-09, 4.153195418865795e-09).transl(2.4737810916094924e-08, 4e-08, 0))
hIsland = hIsland.sub(rect(5.917062934254085e-09, -2.372267514857328e-09).transl(-8.25976850029945e-08, 3.936468370988629e-08, 0))
hIsland = hIsland.add(rect(3.61848489481799e-09, 1.6140399266693528e-09).transl(-5.639442263206664e-08, 4e-08, 0))
hIsland = hIsland.add(rect(6.747394173520599e-09, 3.2824808799045535e-09).transl(-5.596957555236315e-08, 4e-08, 0))
hIsland = hIsland.add(rect(8.686444299338808e-09, 4.152593257737049e-09).transl(-7.725231202963602e-09, 4e-08, 0))
hIsland = hIsland.sub(rect(4.251625329456503e-09, -3.491060839837644e-09).transl(1.4246184444740949e-08, 4e-08, 0))
hIsland = hIsland.sub(rect(9.597010392119248e-09, -3.2904576210952884e-09).transl(7.259601133743525e-08, 4e-08, 0))
hIsland = hIsland.add(rect(6.686346567817459e-09, 1.4087532721426894e-09).transl(-2.6774862151214084e-08, 4e-08, 0))
hIsland = hIsland.sub(rect(5.4591521446670326e-09, -1.0819220092640837e-09).transl(4.976479658529489e-08, 4e-08, 0))
hIsland = hIsland.add(rect(9.295632843224685e-09, 1.949400211559534e-09).transl(-4.6116705679529155e-08, 4e-08, 0))
hIsland = hIsland.sub(rect(8.879466143806834e-09, -2.816390338989605e-10).transl(-5.049946300387808e-08, 4e-08, 0))
hIsland = hIsland.sub(rect(7.466995292569895e-09, -3.485356155390515e-09).transl(-6.07792338389068e-08, 4e-08, 0))
hIsland = hIsland.sub(rect(9.782887072726965e-09, -1.1562247803697456e-09).transl(-1.4468784679193679e-08, 4e-08, 0))
hIsland = hIsland.sub(rect(5.540620016823003e-09, -1.069779033694068e-09).transl(-8.886064229154509e-08, 1.9479804173920236e-08, 0))
hIsland = hIsland.add(rect(3.944325141034764e-09, 1.1749646378947325e-09).transl(3.772054483428559e-08, 4e-08, 0))
hIsland = hIsland.sub(rect(7.884156317148245e-09, -1.986911547161827e-09).transl(4.418423574631991e-08, 4e-08, 0))
hIsland = hIsland.sub(rect(8.142013863805024e-09, -2.5214544707403e-09).transl(9.460861197666699e-09, 4e-08, 0))
hIsland = hIsland.sub(rect(7.24668378036709e-09, -2.7037803259967374e-09).transl(1.536026648765038e-08, 4e-08, 0))
vIsland = hIsland.rotz(pi / 2)
hIslands = hIslands.add(hIsland.transl(-a/2, a, 0))
hIsland = rect(islandLength-2*ellipseConstant, islandWidth)
hIsland = hIsland.add(ellipse(ellipseConstant*2, islandWidth).transl(islandLength/2-ellipseConstant, 0, 0))
hIsland = hIsland.add(ellipse(ellipseConstant*2, islandWidth).transl(-islandLength/2+ellipseConstant, 0, 0))
hIsland = hIsland.sub(rect(6.9806601021268085e-09, -1.1416129485252866e-10).transl(8.815990270147135e-08, -2.423579367222653e-08, 0))
hIsland = hIsland.add(rect(3.0363302948589626e-09, 5.966378929689271e-11).transl(4.698596592176547e-08, -4e-08, 0))
hIsland = hIsland.sub(rect(4.122278375498327e-09, -8.153939401958261e-10).transl(-4.009821721523011e-08, -4e-08, 0))
hIsland = hIsland.sub(rect(7.4285068585180006e-09, -4.0396831518433107e-11).transl(-3.717558338022492e-09, -4e-08, 0))
hIsland = hIsland.add(rect(5.097530880326562e-09, 1.4792158010873056e-09).transl(-3.483302628827826e-08, -4e-08, 0))
hIsland = hIsland.add(rect(5.17797395650567e-09, 7.881773003544828e-10).transl(-3.682648704003046e-08, -4e-08, 0))
hIsland = hIsland.add(rect(4.81457752373655e-09, 1.2352030156412498e-09).transl(-8.623781228718892e-10, -4e-08, 0))
hIsland = hIsland.add(rect(4.459473009334337e-09, 1.6463784810696743e-09).transl(5.967932789532432e-08, -4e-08, 0))
hIsland = hIsland.sub(rect(5.140049794208786e-09, -1.1669869493888117e-10).transl(7.016677046938316e-08, -4e-08, 0))
hIsland = hIsland.sub(rect(2.1102054486018523e-09, -5.280975995433263e-10).transl(-8.301749863394292e-08, -3.898203429489874e-08, 0))
hIsland = hIsland.sub(rect(6.270087101741422e-09, -4.696535615286005e-10).transl(7.814576569496066e-08, -4e-08, 0))
hIsland = hIsland.add(rect(7.1950753835995406e-09, 1.7360401954025248e-09).transl(-7.489196753129331e-08, -4e-08, 0))
hIsland = hIsland.sub(rect(7.650838418944664e-09, -1.577868501457638e-09).transl(-4.000574005608378e-09, -4e-08, 0))
hIsland = hIsland.add(rect(8.658010608138315e-09, 4.6197293425470555e-09).transl(-4.384237940305902e-08, -4e-08, 0))
hIsland = hIsland.add(rect(8.8083043270779e-09, 2.0379534343554957e-09).transl(-1.1482691301196117e-08, -4e-08, 0))
hIsland = hIsland.sub(rect(4.451324739737326e-09, -2.2130646807628747e-09).transl(-8.585963030050409e-08, -3.366765479809087e-08, 0))
hIsland = hIsland.add(rect(4.2477637866751495e-09, 1.0573832780230555e-10).transl(7.375592811871126e-08, -4e-08, 0))
hIsland = hIsland.add(rect(7.496058694921474e-09, 5.131890341465117e-10).transl(-1.8555857109363476e-08, -4e-08, 0))
hIsland = hIsland.sub(rect(7.977738151313846e-09, -2.389756864279494e-09).transl(1.4091272064599482e-08, -4e-08, 0))
hIsland = hIsland.add(rect(2.103810208162198e-09, 8.395860959632643e-10).transl(7.480151246434549e-08, -4e-08, 0))
hIsland = hIsland.sub(rect(3.7085262681637074e-09, -1.7097125738088776e-09).transl(4.036489025779705e-08, -4e-08, 0))
hIsland = hIsland.sub(rect(8.03878744796771e-09, -1.1460801913427102e-09).transl(6.675610616259862e-08, -4e-08, 0))
hIsland = hIsland.sub(rect(4.75203557743702e-09, -8.777441695354467e-10).transl(3.847446456508209e-08, -4e-08, 0))
hIsland = hIsland.sub(rect(5.144314757765898e-09, -7.855707886445807e-10).transl(1.6050170781832847e-08, -4e-08, 0))
hIsland = hIsland.add(rect(5.381064985335807e-09, 2.686241866538145e-09).transl(-5.5371253615262854e-08, -4e-08, 0))
hIsland = hIsland.add(rect(5.970923590961235e-09, 2.6452520060342503e-09).transl(-4.6839970581837346e-08, -4e-08, 0))
hIsland = hIsland.add(rect(6.4575674442101965e-09, 7.939119707258994e-10).transl(-2.5502665057646074e-08, -4e-08, 0))
hIsland = hIsland.sub(rect(6.759703820711702e-09, -1.9406048289335225e-10).transl(-5.66878084119394e-08, -4e-08, 0))
hIsland = hIsland.add(rect(5.693080818770494e-09, 1.6457153110705161e-10).transl(-2.6282861093349883e-08, -4e-08, 0))
hIsland = hIsland.add(rect(6.682145270939264e-09, 2.252103478338414e-09).transl(8.671210907020287e-08, -3.091104240590055e-08, 0))
hIsland = hIsland.sub(rect(9.202585922202722e-09, -7.315782328705901e-10).transl(5.3554200218903954e-08, -4e-08, 0))
hIsland = hIsland.sub(rect(5.958911438759226e-09, -1.053646007232474e-09).transl(5.6662593627621915e-08, -4e-08, 0))
hIsland = hIsland.sub(rect(3.3854929177884378e-09, -1.4705671402412794e-09).transl(6.966015853779101e-10, -4e-08, 0))
hIsland = hIsland.sub(rect(3.932226173006784e-09, -5.892305722087461e-10).transl(-7.920032083773802e-08, -4e-08, 0))
hIsland = hIsland.add(rect(3.1249407574658204e-09, 5.279275508867769e-10).transl(-4.799010174462366e-08, -4e-08, 0))
hIsland = hIsland.add(rect(2.326086523730248e-09, 1.0072664842174716e-09).transl(-8.384833647563911e-08, -3.794394288174612e-08, 0))
hIsland = hIsland.add(rect(7.36693142350128e-09, 3.4052954356928143e-10).transl(-8.337868097724516e-08, -3.857764383194669e-08, 0))
hIsland = hIsland.add(rect(7.813646523272354e-09, 2.132022831234632e-09).transl(5.3876449140524976e-08, -4e-08, 0))
hIsland = hIsland.sub(rect(9.854245251462247e-09, -1.7282432974923623e-09).transl(8.057888311271155e-08, -4e-08, 0))
hIsland = hIsland.sub(rect(7.587060329714164e-09, -2.040703808805419e-09).transl(-6.52049160577869e-08, -4e-08, 0))
hIsland = hIsland.sub(rect(9.698529449231999e-09, -3.4134352946847684e-10).transl(-9.186733316978707e-09, -4e-08, 0))
hIsland = hIsland.add(rect(3.585972995244661e-09, 2.055019314745094e-10).transl(-3.191582408174034e-08, -4e-08, 0))
hIsland = hIsland.sub(rect(7.476249615143151e-09, -3.272280698717129e-10).transl(2.3278176293518722e-08, -4e-08, 0))
hIsland = hIsland.add(rect(5.087269930254727e-09, 1.0416710213112961e-09).transl(8.611413923849496e-08, -3.291457851020456e-08, 0))
hIsland = hIsland.sub(rect(6.125883863461035e-09, -1.7889263875449453e-09).transl(2.7288737811249338e-08, -4e-08, 0))
hIsland = hIsland.sub(rect(5.690375206301198e-09, -1.3858464103565252e-09).transl(4.447571521537772e-08, -4e-08, 0))
hIsland = hIsland.add(rect(3.2747588934373244e-09, 2.7160222229160667e-09).transl(3.866848916299917e-08, -4e-08, 0))
hIsland = hIsland.sub(rect(8.63284100469959e-09, -3.801410109792173e-09).transl(2.4259661685568716e-08, -4e-08, 0))
hIsland = hIsland.add(rect(6.2546856345542635e-09, 1.7779000373458655e-09).transl(-2.3792390627339114e-08, -4e-08, 0))
hIsland = hIsland.add(rect(6.785665242418743e-09, 8.501027445604572e-11).transl(-5.9302721517309575e-08, -4e-08, 0))
hIsland = hIsland.sub(rect(2.717800796767259e-09, -2.5367303870338172e-09).transl(2.893242358052889e-08, -4e-08, 0))
hIsland = hIsland.add(rect(3.7979804255971635e-09, 7.366639533386225e-10).transl(-8.667227673356328e-08, -3.1055593848635285e-08, 0))
hIsland = hIsland.add(rect(3.1629413767215244e-09, 4.9817451132312214e-09).transl(-4.8297780163688736e-08, -4e-08, 0))
hIsland = hIsland.add(rect(3.201130164678504e-09, 5.230240457191764e-10).transl(4.094141962611019e-08, -4e-08, 0))
hIsland = hIsland.add(rect(4.243853225363654e-09, 2.5942297357663376e-09).transl(-6.90147208639142e-08, -4e-08, 0))
hIsland = hIsland.sub(rect(5.184444094973517e-09, -1.527823715079266e-10).transl(-2.984925858883911e-08, -4e-08, 0))
hIsland = hIsland.add(rect(8.372152107577915e-09, 2.4831374580585414e-09).transl(-6.035629513790549e-08, -4e-08, 0))
hIsland = hIsland.sub(rect(9.776566157387315e-09, -4.304670546518205e-09).transl(-8.087154545914293e-08, -4e-08, 0))
hIsland = hIsland.sub(rect(2.7552762926164515e-09, -2.1321347293146241e-10).transl(6.790022159231436e-08, -4e-08, 0))
hIsland = hIsland.sub(rect(9.14776057727949e-09, -7.916097832164562e-12).transl(4.887700205140249e-08, -4e-08, 0))
hIsland = hIsland.sub(rect(5.9619851125339925e-09, -3.087017021723188e-09).transl(5.554273000001637e-09, -4e-08, 0))
hIsland = hIsland.sub(rect(5.563189055154222e-09, -2.1923197024260525e-09).transl(8.51954454643768e-08, -3.538800448375168e-08, 0))
hIsland = hIsland.add(rect(4.128923245435396e-09, 3.0856919041119985e-09).transl(1.2667563530772399e-08, -4e-08, 0))
hIsland = hIsland.add(rect(3.326998158116715e-09, 2.130050721248208e-09).transl(6.419238435224851e-08, -4e-08, 0))
hIsland = hIsland.sub(rect(7.710340448711045e-09, -1.724750341123019e-09).transl(-6.920275630133223e-08, -4e-08, 0))
hIsland = hIsland.sub(rect(3.2411040126458445e-09, -9.000826645715576e-10).transl(-1.8669884088543475e-08, -4e-08, 0))
hIsland = hIsland.add(rect(7.759076583407799e-09, 2.089333343911226e-09).transl(-5.5417482361816894e-08, -4e-08, 0))
hIsland = hIsland.sub(rect(8.687075849282575e-09, -1.8407472752981072e-09).transl(-6.554578964919628e-08, -4e-08, 0))
hIsland = hIsland.add(rect(6.947468662678974e-09, 1.0683389136541431e-09).transl(-3.3276890901788855e-08, -4e-08, 0))
hIsland = hIsland.add(rect(9.703819203584672e-09, 1.7089973714553729e-09).transl(6.139039105724091e-08, -4e-08, 0))
hIsland = hIsland.add(rect(5.6360771585902655e-09, 1.027542444406939e-09).transl(-6.006028937851831e-08, -4e-08, 0))
hIsland = hIsland.add(rect(7.164244422533198e-09, 3.121754363049467e-09).transl(-5.05102818114348e-08, -4e-08, 0))
hIsland = hIsland.sub(rect(4.125098841227079e-09, -7.659014921428297e-11).transl(5.486497229639124e-08, -4e-08, 0))
hIsland = hIsland.sub(rect(4.2560023824232004e-09, -2.1879548408274607e-09).transl(-6.882691749455202e-08, -4e-08, 0))
hIsland = hIsland.sub(rect(8.11703445934131e-09, -1.080267788016767e-09).transl(-5.538379896691161e-08, -4e-08, 0))
hIsland = hIsland.sub(rect(7.899200307561418e-09, -1.8397761988358052e-09).transl(-2.6915603119857746e-08, -4e-08, 0))
hIsland = hIsland.add(rect(2.761064943704664e-09, 1.487407936732028e-09).transl(6.613298409114934e-08, -4e-08, 0))
hIsland = hIsland.sub(rect(6.9012056441479936e-09, -3.02287778078602e-10).transl(7.527960978083347e-08, -4e-08, 0))
hIsland = hIsland.add(rect(4.097102713723548e-09, 2.1488460293585702e-09).transl(-6.816701400594022e-08, -4e-08, 0))
hIsland = hIsland.add(rect(7.532747371308131e-09, 1.4422361032591968e-09).transl(4.079547112540302e-08, -4e-08, 0))
hIsland = hIsland.add(rect(3.6009196857277756e-09, 2.4818654614115894e-09).transl(2.5295602888127865e-09, -4e-08, 0))
hIsland = hIsland.sub(rect(7.964479044683282e-09, -9.59008286952934e-11).transl(3.280887974019787e-08, -4e-08, 0))
hIsland = hIsland.add(rect(4.920172201100882e-09, 6.290449781688433e-10).transl(-1.956768657299085e-08, -4e-08, 0))
hIsland = hIsland.add(rect(7.735266367480522e-09, 5.705506702241471e-09).transl(6.867383013181174e-08, -4e-08, 0))
hIsland = hIsland.sub(rect(9.85965557898192e-09, -9.78496129615745e-10).transl(7.343045763086864e-08, -4e-08, 0))
hIsland = hIsland.sub(rect(9.05563876734491e-09, -2.6781779463191793e-10).transl(1.3120098595490088e-10, -4e-08, 0))
hIsland = hIsland.sub(rect(6.0381614387832475e-09, -2.7400602055488853e-09).transl(-7.659180505023829e-08, -4e-08, 0))
hIsland = hIsland.sub(rect(6.795402945220055e-09, -2.459166052935353e-10).transl(-2.8373833584938483e-08, -4e-08, 0))
hIsland = hIsland.add(rect(9.339554834326235e-09, 3.9556773706362765e-10).transl(6.168617625883081e-08, -4e-08, 0))
hIsland = hIsland.sub(rect(3.5642737647296913e-09, -7.034552402209254e-10).transl(1.623117661081098e-08, -4e-08, 0))
hIsland = hIsland.add(rect(4.971372523641656e-09, 6.961275667500545e-10).transl(-5.3813185580515205e-08, -4e-08, 0))
hIsland = hIsland.add(rect(4.328985062051021e-09, 3.116570239456993e-09).transl(-6.224123160173038e-08, -4e-08, 0))
hIsland = hIsland.sub(rect(5.182437434815884e-09, -3.577848982512278e-11).transl(-4.475569289496145e-08, -4e-08, 0))
hIsland = hIsland.add(rect(3.387134940079304e-09, 2.2359397132559134e-09).transl(2.8875621718468104e-08, -4e-08, 0))
hIsland = hIsland.sub(rect(8.763358005398469e-09, -1.6746339318484976e-09).transl(6.564434541574395e-08, -4e-08, 0))
hIsland = hIsland.add(rect(8.327822150714375e-09, 2.340473340378376e-09).transl(7.119206256680507e-08, -4e-08, 0))
hIsland = hIsland.add(rect(7.401715204006524e-09, 1.546734818377247e-10).transl(4.624714055586927e-08, -4e-08, 0))
hIsland = hIsland.add(rect(6.155463990135672e-09, 1.6165006992036093e-09).transl(2.4672825380991395e-08, -4e-08, 0))
hIsland = hIsland.add(rect(8.853050172608054e-09, 1.2574840048239708e-09).transl(-3.069261310497081e-08, -4e-08, 0))
hIsland = hIsland.add(rect(4.867483102128294e-09, 1.5136078318483406e-09).transl(4.0690507609337386e-08, -4e-08, 0))
hIsland = hIsland.sub(rect(4.68156941870438e-09, -8.436414864823329e-10).transl(-6.551714550699767e-08, -4e-08, 0))
hIsland = hIsland.sub(rect(5.69345995931185e-09, -1.7547583046723284e-09).transl(8.072344351565136e-08, -4e-08, 0))
hIsland = hIsland.sub(rect(5.3284963543420845e-09, -2.0759545509778576e-09).transl(-1.870448201702463e-08, -4e-08, 0))
hIsland = hIsland.add(rect(6.366688705408558e-09, 3.0588696569401484e-09).transl(-4.881931069785465e-08, -4e-08, 0))
hIsland = hIsland.sub(rect(2.6698886091742272e-09, -9.322065764460027e-10).transl(7.046153815996014e-08, -4e-08, 0))
hIsland = hIsland.add(rect(5.299459968184139e-09, 1.376602034045986e-09).transl(-5.83084828117275e-08, -4e-08, 0))
hIsland = hIsland.add(rect(5.692183170812613e-09, 2.303609485017802e-09).transl(-7.808215060625455e-09, -4e-08, 0))
hIsland = hIsland.sub(rect(9.601706157121733e-09, -9.709911577533673e-10).transl(-4.409323801317119e-08, -4e-08, 0))
hIsland = hIsland.sub(rect(8.561554667528345e-09, -2.4189461874593325e-09).transl(-5.222333502773779e-09, -4e-08, 0))
hIsland = hIsland.add(rect(2.3835934618348853e-09, 8.075757350151648e-10).transl(5.0806118025728245e-08, -4e-08, 0))
hIsland = hIsland.add(rect(6.732266558670253e-09, 1.0999630421634337e-09).transl(-5.30679283762675e-08, -4e-08, 0))
hIsland = hIsland.add(rect(5.347760955947569e-09, 4.682698902290457e-10).transl(6.825430155185748e-08, -4e-08, 0))
hIsland = hIsland.add(rect(6.0663581039445765e-09, 1.5452530588880134e-09).transl(3.492075450078817e-08, -4e-08, 0))
hIsland = hIsland.sub(rect(4.5051234536095955e-09, -1.9594108833412627e-09).transl(-8.542007228586072e-08, -3.484369641707459e-08, 0))
hIsland = hIsland.add(rect(6.839216991055058e-09, 2.8048314816058133e-10).transl(1.0240905898919424e-08, -4e-08, 0))
hIsland = hIsland.sub(rect(7.934977336764313e-09, -5.628472526837651e-10).transl(5.789956355980337e-08, -4e-08, 0))
hIsland = hIsland.sub(rect(5.18269842365217e-09, -1.8901331736094595e-09).transl(-8.645840618535935e-09, -4e-08, 0))
hIsland = hIsland.add(rect(7.975728479071524e-09, 8.025785836250638e-10).transl(6.360837470002149e-08, -4e-08, 0))
hIsland = hIsland.add(rect(7.72846908208233e-09, 2.994651442302072e-09).transl(-4.015293555199617e-08, -4e-08, 0))
hIsland = hIsland.add(rect(6.704499576957414e-09, 1.8122903333076647e-09).transl(-3.4376023681482284e-08, -4e-08, 0))
hIsland = hIsland.add(rect(5.269813297929862e-09, 2.5766118600922805e-09).transl(-8.363466084238504e-08, -3.824768202336004e-08, 0))
hIsland = hIsland.sub(rect(9.989565884979003e-09, -2.230695915060486e-09).transl(7.554155139597193e-08, -4e-08, 0))
hIsland = hIsland.add(rect(6.504033483931894e-09, 3.0772188749335636e-09).transl(4.3705978613085896e-08, -4e-08, 0))
hIsland = hIsland.sub(rect(6.813571666595515e-09, -1.0347543991377078e-09).transl(-5.1502340903364195e-08, -4e-08, 0))
hIsland = hIsland.add(rect(9.614048793562882e-09, 2.065115128423751e-09).transl(8.631528728044625e-08, -3.2278945054839705e-08, 0))
hIsland = hIsland.add(rect(7.86555549111118e-09, 5.4129505747143983e-11).transl(6.583813275133986e-08, -4e-08, 0))
hIsland = hIsland.add(rect(2.5134359433377557e-09, 1.7176020158580659e-10).transl(-8.466606749166716e-08, -3.653104862997714e-08, 0))
hIsland = hIsland.add(rect(3.360928333943795e-09, 2.94337602224949e-11).transl(-8.017878395832696e-08, -4e-08, 0))
hIsland = hIsland.sub(rect(2.9865054509890864e-09, -3.063246589554087e-09).transl(-4.677409126697997e-08, -4e-08, 0))
hIsland = hIsland.add(rect(9.192811047578665e-09, 1.3300429207383152e-09).transl(-2.2494104504618366e-08, -4e-08, 0))
hIsland = hIsland.add(rect(9.19593957047324e-09, 8.928051142819446e-10).transl(-4.593552520934178e-08, -4e-08, 0))
hIsland = hIsland.add(rect(9.268979678348935e-09, 8.630936085235733e-11).transl(-3.983262033141218e-08, -4e-08, 0))
hIsland = hIsland.add(rect(2.908881062286514e-09, 1.804538287674297e-09).transl(-3.905773269081742e-08, -4e-08, 0))
hIsland = hIsland.add(rect(7.816495231613861e-09, 1.6807153895608706e-09).transl(-4.475474568237516e-08, -4e-08, 0))
hIsland = hIsland.add(rect(2.719904038041853e-09, 2.7631989695833924e-09).transl(-4.5724397104128795e-08, -4e-08, 0))
hIsland = hIsland.add(rect(6.5256045474972125e-09, 1.305961756396933e-09).transl(4.403965895028168e-08, -4e-08, 0))
hIsland = hIsland.add(rect(7.70759996261938e-09, 3.1010523550488574e-09).transl(1.5723131300891487e-08, -4e-08, 0))
hIsland = hIsland.sub(rect(5.597361577956615e-09, -2.6598615069732378e-11).transl(-1.6273178816560368e-08, -4e-08, 0))
hIsland = hIsland.sub(rect(7.452747203112597e-09, -1.5122783304054642e-09).transl(3.866836594515633e-08, -4e-08, 0))
hIsland = hIsland.sub(rect(4.721429013704429e-09, -5.45687112167252e-10).transl(4.863754938111855e-08, -4e-08, 0))
hIsland = hIsland.add(rect(6.179988516261228e-09, 2.91630799971871e-09).transl(6.862245598616586e-08, -4e-08, 0))
hIsland = hIsland.add(rect(8.69818746150444e-09, 2.9084587542002425e-09).transl(-2.628597271185053e-08, -4e-08, 0))
hIsland = hIsland.sub(rect(3.987016878419587e-09, -1.7564146634355669e-09).transl(1.7328071082357795e-08, -4e-08, 0))
hIsland = hIsland.sub(rect(7.68073020003521e-09, -2.193541174004468e-10).transl(-1.7747894249870955e-08, -4e-08, 0))
hIsland = hIsland.sub(rect(4.052071826485808e-09, -1.5694909733299505e-10).transl(-8.130875038598592e-08, -3.9976455589068444e-08, 0))
hIsland = hIsland.add(rect(8.880687250885228e-09, 2.765823568206844e-09).transl(8.301935462784178e-08, -3.898013596996955e-08, 0))
hIsland = hIsland.sub(rect(6.941126198599475e-09, -1.5733902508330285e-10).transl(-2.6110903113398422e-08, -4e-08, 0))
hIsland = hIsland.add(rect(2.6308731659433866e-09, 4.3285680439787785e-09).transl(1.747690050133814e-08, -4e-08, 0))
hIsland = hIsland.sub(rect(4.565657208163628e-09, -1.1110587244400044e-09).transl(-3.77501824568999e-08, -4e-08, 0))
hIsland = hIsland.add(rect(4.383789081756696e-09, 6.112544418243069e-10).transl(-3.43661918031078e-08, -4e-08, 0))
hIsland = hIsland.add(rect(7.104679293970524e-09, 2.7368247504792154e-09).transl(3.1072170965022714e-08, -4e-08, 0))
hIsland = hIsland.sub(rect(9.335283404579639e-09, -4.3280570932465495e-10).transl(-8.032716513221014e-09, -4e-08, 0))
hIsland = hIsland.sub(rect(8.755627245589971e-09, -4.631444766849597e-10).transl(-8.854010011676066e-08, -2.1839771277790274e-08, 0))
hIsland = hIsland.sub(rect(6.844415306049098e-09, -4.229719079904032e-09).transl(-2.6567069654725142e-08, -4e-08, 0))
hIsland = hIsland.sub(rect(7.081801031741744e-09, -3.3257898201745537e-09).transl(5.4928767772204604e-08, -4e-08, 0))
hIsland = hIsland.sub(rect(6.527977014590626e-09, -6.327899690802083e-11).transl(7.433345831106528e-08, -4e-08, 0))
hIsland = hIsland.add(rect(9.641825868598959e-09, 2.120122566847484e-09).transl(-5.365146595232388e-09, -4e-08, 0))
hIsland = hIsland.sub(rect(3.970757091222776e-09, -5.3847378480467e-10).transl(-1.8177537936770947e-08, -4e-08, 0))
hIsland = hIsland.sub(rect(6.99492488357736e-09, -7.147168280717879e-10).transl(8.160194816470936e-08, -3.991043266114839e-08, 0))
hIsland = hIsland.sub(rect(5.182780320905632e-09, -2.1650397186839405e-09).transl(-5.158890176475635e-08, -4e-08, 0))
hIsland = hIsland.sub(rect(7.145479439014642e-09, -2.4556900938986044e-09).transl(4.6790312034829205e-08, -4e-08, 0))
hIsland = hIsland.sub(rect(9.00767169051113e-09, -6.5248160266514e-10).transl(7.59325187319084e-08, -4e-08, 0))
hIsland = hIsland.add(rect(2.769515704152557e-09, 7.492824030218584e-10).transl(-7.04663989715379e-08, -4e-08, 0))
hIsland = hIsland.sub(rect(6.722554749760997e-09, -3.4979928399549496e-10).transl(1.6649760836038628e-08, -4e-08, 0))
hIsland = hIsland.add(rect(4.262440905419736e-09, 1.6886423716327878e-09).transl(-3.377650085705638e-08, -4e-08, 0))
hIsland = hIsland.add(rect(9.779130601768007e-09, 2.9822273428550466e-09).transl(-3.641600080966561e-10, -4e-08, 0))
hIsland = hIsland.sub(rect(4.40063383582357e-09, -4.494194336338048e-09).transl(-7.332443111334482e-10, -4e-08, 0))
hIsland = hIsland.sub(rect(6.4707473646838466e-09, -1.4271761940715427e-10).transl(-6.415777394388395e-08, -4e-08, 0))
hIsland = hIsland.add(rect(8.566226849072812e-09, 4.016985727484432e-09).transl(-4.574900570878376e-09, -4e-08, 0))
hIsland = hIsland.add(rect(2.3293100410571297e-09, 5.006705372511546e-10).transl(8.884893981828088e-09, -4e-08, 0))
hIsland = hIsland.add(rect(2.237683133812855e-09, 3.1864136419552474e-09).transl(-5.8180100642257347e-08, -4e-08, 0))
hIsland = hIsland.add(rect(6.857339859616343e-09, 1.2882408100508095e-09).transl(2.1073818630404465e-08, -4e-08, 0))
hIsland = hIsland.sub(rect(2.3169993917212025e-09, -2.5051382379470257e-09).transl(-7.381952924157596e-08, -4e-08, 0))
hIsland = hIsland.add(rect(7.47600198110739e-09, 3.498413766046285e-09).transl(-8.918078819810665e-08, -1.6673897369415723e-08, 0))
hIsland = hIsland.add(rect(3.744201976608933e-09, 3.042071140127185e-10).transl(-6.473686894410154e-08, -4e-08, 0))
hIsland = hIsland.sub(rect(9.835833388993028e-09, -4.830091455958034e-09).transl(-6.173751214791244e-08, -4e-08, 0))
hIsland = hIsland.sub(rect(3.966319616932573e-09, -3.9243106554811815e-10).transl(1.3663443311228003e-08, -4e-08, 0))
hIsland = hIsland.add(rect(7.283579434792145e-09, 5.896329158403683e-10).transl(4.38659299908942e-08, -4e-08, 0))
hIsland = hIsland.sub(rect(9.298992756281497e-09, -5.244398679088426e-10).transl(-5.375910646959687e-08, -4e-08, 0))
hIsland = hIsland.sub(rect(2.038180140190651e-09, -7.082005585499767e-10).transl(-5.7934356343647e-09, -4e-08, 0))
hIsland = hIsland.sub(rect(6.7582792501886804e-09, -2.1117150671405913e-09).transl(-4.9852328538799445e-08, -4e-08, 0))
hIsland = hIsland.sub(rect(7.6775405571556e-09, -1.5841627757000164e-09).transl(-1.9145807075619548e-08, -4e-08, 0))
hIsland = hIsland.add(rect(6.0171273237903524e-09, 1.381467706457552e-10).transl(3.029133731905105e-08, -4e-08, 0))
hIsland = hIsland.add(rect(8.696458244948001e-09, 1.4956766137355774e-09).transl(-5.0207942792952994e-08, -4e-08, 0))
hIsland = hIsland.add(rect(2.099860097331356e-09, 2.28896799348688e-09).transl(8.365782995955276e-08, -3.821600463799087e-08, 0))
hIsland = hIsland.sub(rect(5.932585056194165e-09, -4.112834843296671e-09).transl(5.2616513203531516e-08, -4e-08, 0))
hIsland = hIsland.sub(rect(4.2957262440945116e-09, -4.004620129950984e-10).transl(-7.122570799156667e-08, -4e-08, 0))
hIsland = hIsland.sub(rect(7.853006686334045e-09, -1.909907880511492e-09).transl(8.12807004326919e-09, -4e-08, 0))
hIsland = hIsland.sub(rect(3.360943190706019e-09, -2.247923911231627e-09).transl(-7.569979581367035e-08, -4e-08, 0))
hIsland = hIsland.sub(rect(9.7445711614281e-09, -8.281248100874083e-10).transl(-5.1052450221314294e-09, -4e-08, 0))
hIsland = hIsland.sub(rect(7.537921546024309e-09, -2.182626443062697e-09).transl(-1.0377124856709863e-08, -4e-08, 0))
hIsland = hIsland.sub(rect(2.8313827214060903e-09, -2.847317794024258e-09).transl(7.477354375836545e-08, -4e-08, 0))
hIsland = hIsland.add(rect(8.136301722794619e-09, 2.452557995165731e-09).transl(-7.495601835281454e-08, -4e-08, 0))
hIsland = hIsland.add(rect(3.689128964237492e-09, 3.4195542185892826e-10).transl(4.94724096537524e-08, -4e-08, 0))
hIsland = hIsland.add(rect(5.616764307056305e-09, 4.5779849637615984e-10).transl(-3.542357902749257e-08, -4e-08, 0))
hIsland = hIsland.sub(rect(6.959117986903081e-09, -3.858058807298515e-09).transl(-7.726385022348306e-08, -4e-08, 0))
hIsland = hIsland.add(rect(3.0677528872177976e-09, 4.728881515372743e-10).transl(4.049164557567342e-08, -4e-08, 0))
hIsland = hIsland.sub(rect(7.086790842506246e-09, -2.1263525863246165e-09).transl(4.5750003062858163e-10, -4e-08, 0))
hIsland = hIsland.add(rect(4.5559098864790635e-09, 7.332697645671454e-10).transl(-8.982522494799945e-08, -7.84467058812628e-09, 0))
hIsland = hIsland.add(rect(9.713850512504784e-09, 2.3471395444311042e-09).transl(-8.749842590935211e-08, -2.767374677837831e-08, 0))
hIsland = hIsland.add(rect(9.62949394081734e-09, 7.780809005347508e-10).transl(3.005442718381364e-08, 4e-08, 0))
hIsland = hIsland.add(rect(9.138239300186743e-09, 8.481134920868166e-10).transl(1.9029550604410366e-08, 4e-08, 0))
hIsland = hIsland.sub(rect(5.273000234856628e-09, -1.6467073108741533e-09).transl(-1.815823477517668e-08, 4e-08, 0))
hIsland = hIsland.add(rect(3.1493108306772292e-09, 1.0377227570345311e-09).transl(7.979436274721252e-08, 4e-08, 0))
hIsland = hIsland.sub(rect(6.427960809355767e-09, -1.0701276152560407e-09).transl(-7.392180144696684e-08, 4e-08, 0))
hIsland = hIsland.add(rect(5.880650083707248e-09, 3.4213200227801436e-10).transl(5.471658958526789e-08, 4e-08, 0))
hIsland = hIsland.sub(rect(5.7843857831696e-09, -8.411179051796462e-10).transl(4.613201091194033e-08, 4e-08, 0))
hIsland = hIsland.sub(rect(9.890281195914484e-09, -2.3828858459902512e-09).transl(8.087312664187465e-08, 4e-08, 0))
hIsland = hIsland.add(rect(3.980767296659917e-09, 3.3230114746721368e-09).transl(-8.957637413324629e-08, 1.2127558028514862e-08, 0))
hIsland = hIsland.sub(rect(4.547919248965524e-09, -2.5062103959359098e-09).transl(-3.8544110933887255e-08, 4e-08, 0))
hIsland = hIsland.add(rect(2.0386058026509234e-09, 8.582267440245729e-10).transl(-8.53768601373445e-08, 3.495128047266662e-08, 0))
hIsland = hIsland.add(rect(5.217153437464249e-09, 1.6852926714775931e-09).transl(-5.4959095221878444e-08, 4e-08, 0))
hIsland = hIsland.sub(rect(2.538174781268344e-09, -2.2503527567415723e-09).transl(-5.4368105558968514e-08, 4e-08, 0))
hIsland = hIsland.add(rect(3.4870363073074765e-09, 8.367787739572333e-10).transl(5.247643459864243e-08, 4e-08, 0))
hIsland = hIsland.add(rect(6.192165107082525e-09, 4.774819559801134e-09).transl(3.6415485088390705e-08, 4e-08, 0))
hIsland = hIsland.sub(rect(3.3563198694472397e-09, -1.201642130245447e-09).transl(6.179372635938905e-08, 4e-08, 0))
hIsland = hIsland.add(rect(8.225474107129402e-09, 2.7099866019417554e-09).transl(-5.8309840431181936e-08, 4e-08, 0))
hIsland = hIsland.add(rect(6.920558276366731e-09, 3.366850396375991e-09).transl(1.3245485987379183e-08, 4e-08, 0))
hIsland = hIsland.sub(rect(9.400637101451117e-09, -2.555669444632415e-09).transl(-8.032880053081606e-08, 4e-08, 0))
hIsland = hIsland.sub(rect(8.81722726122784e-09, -2.689559741234961e-09).transl(7.594228885571542e-08, 4e-08, 0))
hIsland = hIsland.add(rect(8.727760734711214e-09, 1.3496374199072211e-09).transl(-2.8423113029399417e-08, 4e-08, 0))
hIsland = hIsland.sub(rect(7.950610337932143e-09, -4.031395792317682e-09).transl(-6.299470281310939e-08, 4e-08, 0))
hIsland = hIsland.add(rect(6.904615365185339e-09, 1.1218008328635774e-09).transl(-1.3755490671552295e-08, 4e-08, 0))
hIsland = hIsland.sub(rect(9.17706480164701e-09, -1.1562316267165974e-09).transl(5.815263537417657e-08, 4e-08, 0))
hIsland = hIsland.sub(rect(2.106792898611845e-09, -7.791971239069002e-10).transl(-7.62994366161188e-08, 4e-08, 0))
hIsland = hIsland.add(rect(6.992387899833117e-09, 1.568918938630522e-09).transl(-5.902128098847886e-08, 4e-08, 0))
hIsland = hIsland.sub(rect(6.987554929477225e-09, -4.103417099292465e-09).transl(5.8704037650778453e-08, 4e-08, 0))
hIsland = hIsland.sub(rect(7.093904801369305e-09, -1.0409341724016443e-10).transl(-6.93817293485507e-08, 4e-08, 0))
hIsland = hIsland.sub(rect(6.960881423638505e-09, -1.5963611015358831e-09).transl(8.198287230508889e-08, 3.976075663931895e-08, 0))
hIsland = hIsland.sub(rect(8.533568129548948e-09, -3.4683072227107243e-10).transl(-2.0171406055048704e-08, 4e-08, 0))
hIsland = hIsland.add(rect(7.859653764876748e-09, 9.361267032892733e-10).transl(8.498210116981834e-08, 3.587161476906054e-08, 0))
hIsland = hIsland.add(rect(6.1934837045183615e-09, 4.09483290377059e-10).transl(3.3536915020970286e-08, 4e-08, 0))
hIsland = hIsland.add(rect(3.011319715597508e-09, 3.42794962938398e-10).transl(4.8656919651383776e-08, 4e-08, 0))
hIsland = hIsland.add(rect(7.920369640766818e-09, 1.6487972263337407e-10).transl(-6.544805036821436e-08, 4e-08, 0))
hIsland = hIsland.sub(rect(4.546925889449507e-09, -4.315951753334954e-09).transl(-1.6009543981990514e-08, 4e-08, 0))
hIsland = hIsland.sub(rect(4.721077993977561e-09, -1.4195840164448033e-09).transl(-1.4294450527207124e-08, 4e-08, 0))
hIsland = hIsland.add(rect(9.40336172747051e-09, 4.1123468558416966e-11).transl(-1.4898705020452956e-08, 4e-08, 0))
hIsland = hIsland.add(rect(9.712781048138691e-09, 2.013714966243248e-09).transl(-8.157396104802558e-09, 4e-08, 0))
hIsland = hIsland.sub(rect(2.931019377991823e-09, -5.796913595208706e-09).transl(-7.491686583888363e-08, 4e-08, 0))
hIsland = hIsland.add(rect(2.563546411173131e-09, 9.703173316596654e-10).transl(8.654952270313881e-09, 4e-08, 0))
hIsland = hIsland.sub(rect(3.0529441230880883e-09, -2.9971743708031933e-09).transl(2.7393026921132224e-08, 4e-08, 0))
hIsland = hIsland.add(rect(9.16196659258839e-09, 1.134113506110702e-09).transl(-1.5449111605979587e-08, 4e-08, 0))
hIsland = hIsland.add(rect(8.317851092541922e-09, 3.3667609467673355e-09).transl(-5.520339006095018e-08, 4e-08, 0))
hIsland = hIsland.add(rect(8.139764667213858e-09, 1.5826602622336274e-09).transl(5.237244757109531e-08, 4e-08, 0))
hIsland = hIsland.add(rect(8.481641439490009e-09, 3.8934356338151794e-09).transl(2.0895094174917385e-08, 4e-08, 0))
hIsland = hIsland.sub(rect(6.700538353336737e-09, -1.1505348642853575e-09).transl(-5.140531860984491e-08, 4e-08, 0))
hIsland = hIsland.add(rect(8.157622031677713e-09, 2.007549254834833e-09).transl(-8.154031748309907e-08, 3.992785024310972e-08, 0))
hIsland = hIsland.sub(rect(3.5445704182428427e-09, -5.860664857481045e-10).transl(2.101405956094117e-09, 4e-08, 0))
hIsland = hIsland.add(rect(8.528681320522094e-09, 1.104933228062921e-09).transl(6.696413586684592e-08, 4e-08, 0))
hIsland = hIsland.add(rect(7.238276859339873e-09, 3.376690744499908e-09).transl(-6.724125402331999e-09, 4e-08, 0))
hIsland = hIsland.sub(rect(8.823714232792639e-09, -5.727438941380013e-10).transl(8.865385844493657e-08, 2.1043611812636985e-08, 0))
hIsland = hIsland.add(rect(7.295244107017416e-09, 3.326549499414743e-09).transl(-1.8657518397461124e-08, 4e-08, 0))
hIsland = hIsland.add(rect(5.699896123401989e-09, 5.83672139619693e-10).transl(-6.98396415990944e-08, 4e-08, 0))
hIsland = hIsland.sub(rect(2.2028447424348035e-09, -4.716267868912513e-09).transl(2.5369889533064068e-08, 4e-08, 0))
hIsland = hIsland.add(rect(3.943160289149853e-09, 4.413033071668911e-10).transl(-5.073875449360487e-09, 4e-08, 0))
hIsland = hIsland.add(rect(8.3934122204321e-09, 1.875574112026988e-09).transl(-4.9149010136254106e-08, 4e-08, 0))
hIsland = hIsland.sub(rect(3.5237151486772352e-09, -1.9057953735040707e-09).transl(4.1892132959457266e-08, 4e-08, 0))
hIsland = hIsland.add(rect(8.568341367726131e-09, 1.639114118349779e-09).transl(5.7717231339657754e-08, 4e-08, 0))
hIsland = hIsland.sub(rect(2.9508555379578675e-09, -3.7524541691088535e-09).transl(3.6799106896725774e-09, 4e-08, 0))
hIsland = hIsland.add(rect(5.376292342106056e-09, 1.0012839921530823e-10).transl(-7.857312905275671e-08, 4e-08, 0))
hIsland = hIsland.sub(rect(8.072847471448349e-09, -1.3245261548681103e-09).transl(-1.0301549055871908e-08, 4e-08, 0))
hIsland = hIsland.sub(rect(9.057391371217637e-09, -1.409123710399591e-09).transl(6.173173723474453e-08, 4e-08, 0))
[...]
hIsland = hIsland.sub(rect(2.4266493395055334e-09, -3.688683599236656e-09).transl(-2.610924655369582e-08, 4e-08, 0))
hIsland = hIsland.sub(rect(7.082541459935745e-09, -2.3777372739844886e-09).transl(-1.5545044814954313e-08, 4e-08, 0))
hIsland = hIsland.add(rect(2.6992584930656626e-09, 5.26923617049727e-10).transl(-6.239124514994729e-08, 4e-08, 0))
hIsland = hIsland.sub(rect(5.629043297854249e-09, -4.217572505798219e-10).transl(-1.0566938219925823e-08, 4e-08, 0))
hIsland = hIsland.add(rect(2.26308628081431e-09, 9.70112072914671e-10).transl(8.198749608063931e-09, 4e-08, 0))
hIsland = hIsland.add(rect(8.581606422263431e-09, 3.9921752955829746e-09).transl(2.961350916187838e-08, 4e-08, 0))
hIsland = hIsland.add(rect(2.3178574833756997e-09, 8.288404063834006e-10).transl(6.269491867779308e-08, 4e-08, 0))
hIsland = hIsland.sub(rect(4.611804884332224e-09, -2.11758341607723e-09).transl(-6.253205037974177e-08, 4e-08, 0))
hIsland = hIsland.sub(rect(7.1422867345976546e-09, -1.6476899604769386e-09).transl(7.66031767156055e-08, 4e-08, 0))
hIsland = hIsland.add(rect(5.341631109657738e-09, 7.81396281123053e-10).transl(-6.445849472864201e-08, 4e-08, 0))
hIsland = hIsland.sub(rect(8.44314480088643e-09, -1.6049058813836718e-09).transl(3.0119955202920166e-08, 4e-08, 0))
hIsland = hIsland.add(rect(3.392711781061689e-09, 1.04190234538455e-09).transl(-2.868908368988484e-08, 4e-08, 0))
hIsland = hIsland.add(rect(3.366377499079807e-09, 1.1836555088928292e-09).transl(-1.7827097580057704e-08, 4e-08, 0))
hIsland = hIsland.add(rect(3.86464350521269e-09, 4.081121882503649e-10).transl(-7.706046109529818e-08, 4e-08, 0))
hIsland = hIsland.sub(rect(6.435993594012993e-09, -1.8023523577593032e-09).transl(4.2489267753515474e-08, 4e-08, 0))
hIsland = hIsland.sub(rect(2.7083303395385178e-09, -2.150596358378922e-09).transl(2.2311112815631215e-08, 4e-08, 0))
hIsland = hIsland.sub(rect(2.308284169314365e-09, -1.1573911876814e-09).transl(8.508942223131718e-08, 3.5632313206894813e-08, 0))
hIsland = hIsland.sub(rect(8.865224173104398e-09, -4.1047694978236467e-10).transl(6.637972281705583e-09, 4e-08, 0))
hIsland = hIsland.add(rect(3.381960611791371e-09, 6.531640119827366e-11).transl(5.218877590801675e-08, 4e-08, 0))
hIsland = hIsland.add(rect(6.390888504964598e-09, 6.679359246350326e-10).transl(5.3190423672324263e-08, 4e-08, 0))
hIsland = hIsland.add(rect(2.204315588889517e-09, 1.252341487136564e-09).transl(6.223774955034628e-08, 4e-08, 0))
hIsland = hIsland.add(rect(2.647159830018226e-09, 3.344058958836943e-10).transl(1.9241448711966613e-08, 4e-08, 0))
hIsland = hIsland.sub(rect(3.1685422591259443e-09, -1.1879350064878946e-09).transl(-5.6907412466241736e-08, 4e-08, 0))
hIsland = hIsland.add(rect(6.62262889683565e-09, 5.836179932684562e-10).transl(1.7290176777677262e-08, 4e-08, 0))
hIsland = hIsland.sub(rect(9.602708211162094e-09, -9.216197033804545e-10).transl(5.877709651204489e-08, 4e-08, 0))
hIsland = hIsland.sub(rect(8.117629419800588e-09, -3.072957475264885e-10).transl(8.336577662820737e-08, 3.859331508554818e-08, 0))
hIsland = hIsland.add(rect(6.716501937723177e-09, 7.604696849835807e-10).transl(9.454504643297716e-09, 4e-08, 0))
hIsland = hIsland.add(rect(3.891499201527855e-09, 6.214564973977697e-10).transl(-6.292652044680727e-08, 4e-08, 0))
hIsland = hIsland.sub(rect(4.55286631993515e-09, -1.1619649008037035e-09).transl(-7.61370772174634e-08, 4e-08, 0))
hIsland = hIsland.sub(rect(2.5884889692269635e-09, -5.8924813875446e-10).transl(-1.4109113600529615e-08, 4e-08, 0))
hIsland = hIsland.sub(rect(2.0703328363337764e-09, -3.5374119481149876e-09).transl(-5.537555222782272e-08, 4e-08, 0))
hIsland = hIsland.add(rect(2.79802675094724e-09, 1.0132060059562693e-09).transl(-6.838544098409248e-08, 4e-08, 0))
hIsland = hIsland.add(rect(6.4877232972002106e-09, 3.682700972908824e-10).transl(-7.764652623555243e-08, 4e-08, 0))
hIsland = hIsland.add(rect(4.656026744918569e-09, 5.694935006898941e-09).transl(-2.5170116090346682e-08, 4e-08, 0))
hIsland = hIsland.add(rect(7.910345493206723e-09, 2.3869510118508944e-09).transl(-5.095492876784728e-08, 4e-08, 0))
hIsland = hIsland.add(rect(8.335351990202047e-09, 3.741644934203725e-09).transl(-4.30367044899687e-10, 4e-08, 0))
hIsland = hIsland.sub(rect(2.188296671412367e-09, -1.4847770240445675e-09).transl(-6.231918462084633e-08, 4e-08, 0))
hIsland = hIsland.sub(rect(5.661003220053009e-09, -2.560769292355644e-10).transl(4.186780302605054e-09, 4e-08, 0))
hIsland = hIsland.add(rect(2.670699767036825e-09, 1.7385590308435932e-09).transl(-6.331800439107368e-09, 4e-08, 0))
hIsland = hIsland.sub(rect(3.898990943784956e-09, -9.313487462243435e-10).transl(-8.816499604310811e-08, 2.4206042181014295e-08, 0))
hIsland = hIsland.add(rect(5.882213663178371e-09, 7.364975370981854e-10).transl(-8.4550362533187e-08, 3.675609992420797e-08, 0))
hIsland = hIsland.sub(rect(7.591533004144925e-09, -3.845173623039271e-09).transl(-5.971202623638151e-08, 4e-08, 0))
hIsland = hIsland.add(rect(6.474940632225424e-09, 2.1601053631927926e-09).transl(3.665509674907712e-08, 4e-08, 0))
hIsland = hIsland.add(rect(7.904820778997727e-09, 2.851206957685409e-09).transl(3.812861685658721e-08, 4e-08, 0))
hIsland = hIsland.sub(rect(6.896914325120673e-09, -3.484852234105446e-10).transl(-2.636919409018993e-08, 4e-08, 0))
hIsland = hIsland.add(rect(3.147131177634524e-09, 1.2946685343267513e-09).transl(-8.1717769249523e-08, 3.987258900750944e-08, 0))
hIsland = hIsland.sub(rect(5.155377229991019e-09, -2.233909318186869e-09).transl(1.9606504374913828e-08, 4e-08, 0))
hIsland = hIsland.add(rect(7.568127097020859e-09, 2.0769740560161803e-09).transl(5.256502237320184e-08, 4e-08, 0))
hIsland = hIsland.add(rect(6.52939900646438e-09, 9.920995812873589e-10).transl(-1.8854444723143143e-08, 4e-08, 0))
hIsland = hIsland.sub(rect(7.832499759773675e-09, -8.11675662455137e-10).transl(1.1126947003482917e-08, 4e-08, 0))
hIsland = hIsland.sub(rect(6.028777236970392e-09, -1.729769392808358e-09).transl(8.171898780085544e-08, 3.987215533683083e-08, 0))
hIsland = hIsland.add(rect(9.773349523689362e-09, 1.4884022295976827e-09).transl(-6.942984859397948e-08, 4e-08, 0))
hIsland = hIsland.sub(rect(9.374138091703944e-09, -2.0628842708699624e-09).transl(4.7576686927524796e-08, 4e-08, 0))
hIsland = hIsland.add(rect(4.374875581732492e-09, 1.76109130769802e-10).transl(-6.989891393270994e-08, 4e-08, 0))
hIsland = hIsland.sub(rect(3.510335649674577e-09, -1.6362984076806353e-10).transl(8.145848579521052e-08, 3.9948062769350955e-08, 0))
hIsland = hIsland.add(rect(7.367193512363148e-09, 7.997196855591668e-10).transl(-6.872559686930104e-08, 4e-08, 0))
hIsland = hIsland.add(rect(5.96545925855128e-09, 4.423253077665165e-10).transl(-8.45824633395312e-08, 3.669452313448775e-08, 0))
hIsland = hIsland.sub(rect(7.576307423147493e-09, -2.1342263643493792e-11).transl(-5.1964519384145077e-08, 4e-08, 0))
hIsland = hIsland.add(rect(8.958163656675842e-09, 1.8394065107513657e-09).transl(5.2593955534757175e-08, 4e-08, 0))
hIsland = hIsland.add(rect(3.844807180386881e-09, 3.5035938667609017e-11).transl(8.18361573163017e-08, 3.9826993995454624e-08, 0))
hIsland = hIsland.add(rect(6.080188966094333e-09, 2.2760244635779604e-09).transl(4.894561435757813e-08, 4e-08, 0))
hIsland = hIsland.add(rect(7.477173794303725e-09, 2.614304803354609e-09).transl(2.868698800028117e-08, 4e-08, 0))
hIsland = hIsland.add(rect(6.9738621805181885e-09, 1.7222162862891723e-09).transl(3.909250406142325e-08, 4e-08, 0))
hIsland = hIsland.add(rect(3.2847576098234255e-09, 2.58125225772925e-09).transl(-6.816669215788724e-08, 4e-08, 0))
hIsland = hIsland.add(rect(7.34144277441097e-09, 9.839870132876915e-10).transl(4.321354416076536e-09, 4e-08, 0))
hIsland = hIsland.add(rect(4.80880946504981e-09, 2.7806752284865035e-10).transl(8.974724339363773e-08, 9.413132945575972e-09, 0))
hIsland = hIsland.add(rect(7.854633457373822e-09, 4.754760586586423e-11).transl(-3.3092480771049384e-08, 4e-08, 0))
hIsland = hIsland.sub(rect(3.5724772508893044e-09, -1.1677073725722922e-09).transl(-3.1802467740685674e-08, 4e-08, 0))
hIsland = hIsland.add(rect(6.434466323916754e-09, 2.1739175724168815e-10).transl(6.333619633455001e-08, 4e-08, 0))
hIsland = hIsland.sub(rect(8.79184816988844e-09, -4.966913619879225e-10).transl(1.2410145235264883e-08, 4e-08, 0))
hIsland = hIsland.add(rect(3.689188439773257e-09, 1.424616464870093e-09).transl(8.647937952080182e-08, 3.173233738462561e-08, 0))
hIsland = hIsland.add(rect(8.633852959710138e-09, 1.6061855699743093e-09).transl(4.7713821663671184e-08, 4e-08, 0))
hIsland = hIsland.sub(rect(3.787377591952326e-09, -1.6769049541438984e-09).transl(-3.5627627255899675e-08, 4e-08, 0))
hIsland = hIsland.add(rect(8.379918882395236e-09, 1.346670291762306e-09).transl(-3.725421328903607e-08, 4e-08, 0))
hIsland = hIsland.add(rect(4.3578241741525574e-09, 9.576926178991715e-10).transl(-8.028559369589818e-08, 4e-08, 0))
hIsland = hIsland.add(rect(7.372674391230905e-09, 3.3567143101585867e-09).transl(-8.402845534646674e-08, 3.766740955398704e-08, 0))
hIsland = hIsland.add(rect(5.92603051710075e-09, 4.997882897873157e-10).transl(5.727939400166264e-08, 4e-08, 0))
hIsland = hIsland.sub(rect(6.698719762006863e-09, -2.2698459027816094e-09).transl(-6.215951451785129e-08, 4e-08, 0))
hIsland = hIsland.sub(rect(3.3061615762270176e-09, -1.908448552989143e-09).transl(-4.3003423163406066e-08, 4e-08, 0))
hIsland = hIsland.sub(rect(2.8171665698795806e-09, -2.035010588913463e-09).transl(5.514724343082586e-08, 4e-08, 0))
hIsland = hIsland.add(rect(6.7620176134042305e-09, 1.0857866785205036e-09).transl(-6.685418643235125e-08, 4e-08, 0))
hIsland = hIsland.add(rect(7.442926965205954e-09, 1.7452359370987223e-09).transl(4.796509690825847e-08, 4e-08, 0))
hIsland = hIsland.add(rect(2.788444432203994e-09, 1.075583015724679e-09).transl(3.834865807568618e-08, 4e-08, 0))
hIsland = hIsland.sub(rect(7.418045677866242e-09, -9.977127253367005e-10).transl(-4.71986083370457e-08, 4e-08, 0))
hIsland = hIsland.sub(rect(3.736498676395952e-09, -9.686636785337494e-11).transl(7.031801342579518e-08, 4e-08, 0))
hIsland = hIsland.add(rect(2.732697115796639e-09, 2.1380598430302307e-09).transl(4.083238050357343e-08, 4e-08, 0))
hIsland = hIsland.add(rect(6.195777618574117e-09, 5.284599228430425e-10).transl(8.013959637212949e-08, 4e-08, 0))
hIsland = hIsland.add(rect(8.993484746531244e-09, 1.0421543695395218e-09).transl(8.932568347705722e-08, 1.5191287067348843e-08, 0))
hIsland = hIsland.sub(rect(4.917478073830758e-09, -3.9447450099711475e-09).transl(-7.570938335264862e-08, 4e-08, 0))
hIsland = hIsland.sub(rect(7.372999635480196e-09, -9.86659409600028e-11).transl(2.487134069468809e-09, 4e-08, 0))
hIsland = hIsland.sub(rect(8.675418420235598e-09, -2.9802280299764715e-09).transl(6.81040325822528e-08, 4e-08, 0))
hIsland = hIsland.add(rect(5.951103166225687e-09, 1.0956529756737069e-10).transl(2.7779044759333698e-08, 4e-08, 0))
hIsland = hIsland.sub(rect(3.550405733596522e-09, -1.5743617047883505e-09).transl(-3.4944557430685477e-09, 4e-08, 0))
hIsland = hIsland.add(rect(4.3359332297251614e-09, 2.2577663846273014e-09).transl(2.3962201797767368e-08, 4e-08, 0))
hIsland = hIsland.add(rect(9.228082597430018e-09, 2.5662299078505533e-09).transl(-3.871305904734564e-08, 4e-08, 0))
hIsland = hIsland.add(rect(2.0944027920069924e-09, 8.738681574269595e-11).transl(1.1034247091299909e-08, 4e-08, 0))
hIsland = hIsland.sub(rect(5.268203049165994e-09, -2.5444752556810467e-09).transl(-8.538966821613663e-08, 3.491953726794227e-08, 0))
hIsland = hIsland.sub(rect(4.3264353887083775e-09, -1.6743211383708448e-09).transl(5.3733910062556944e-08, 4e-08, 0))
hIsland = hIsland.add(rect(8.519093426921953e-09, 4.242165394011688e-09).transl(-3.9307474811883053e-08, 4e-08, 0))
hIsland = hIsland.sub(rect(7.634929185531115e-09, -1.437243801219146e-09).transl(-6.011091930686467e-08, 4e-08, 0))
hIsland = hIsland.add(rect(2.4404922594916035e-09, 3.288351322104346e-09).transl(-2.3353139646165104e-09, 4e-08, 0))
hIsland = hIsland.add(rect(9.788623321091764e-09, 1.8428123221643685e-09).transl(2.468742122916088e-08, 4e-08, 0))
hIsland = hIsland.sub(rect(9.24636177141466e-09, -3.0310352249566918e-09).transl(-2.1754463364437417e-08, 4e-08, 0))
hIsland = hIsland.sub(rect(4.006204983290141e-09, -1.4987391033502342e-09).transl(4.892981087168566e-08, 4e-08, 0))
hIsland = hIsland.add(rect(6.080469696005064e-09, 1.7478721731032725e-09).transl(5.935591219585823e-08, 4e-08, 0))
hIsland = hIsland.sub(rect(5.258387708997578e-09, -3.658423693002482e-09).transl(-2.5976171160727948e-08, 4e-08, 0))
hIsland = hIsland.sub(rect(3.5517651117126605e-09, -1.33154845400219e-09).transl(-3.312457351621116e-08, 4e-08, 0))
hIsland = hIsland.sub(rect(3.1398400261203543e-09, -1.1805061282458963e-09).transl(2.70454455831201e-08, 4e-08, 0))
hIsland = hIsland.add(rect(7.898566264683447e-09, 2.422437641078583e-09).transl(6.829861407655031e-08, 4e-08, 0))
hIsland = hIsland.sub(rect(9.13236207090931e-09, -2.437324320841551e-09).transl(6.273175001585323e-08, 4e-08, 0))
hIsland = hIsland.add(rect(5.329097473894916e-09, 1.783558019620856e-09).transl(-8.897660400391781e-08, 1.8525278593227437e-08, 0))
hIsland = hIsland.sub(rect(4.0832116073377535e-09, -1.7948590664760447e-09).transl(2.8855675370851488e-08, 4e-08, 0))
hIsland = hIsland.sub(rect(2.6357238774470427e-09, -2.2978798766225294e-11).transl(1.3774063276862425e-08, 4e-08, 0))
hIsland = hIsland.sub(rect(5.4112047432681704e-09, -2.5278551507058242e-09).transl(-7.185782362488148e-08, 4e-08, 0))
hIsland = hIsland.add(rect(9.706571826250411e-09, 3.3328002627256737e-09).transl(6.621487619504814e-08, 4e-08, 0))
hIsland = hIsland.add(rect(6.70970183565186e-09, 3.983363256785967e-09).transl(6.63018398947086e-08, 4e-08, 0))
hIsland = hIsland.sub(rect(8.0268842006777e-09, -3.759452766804961e-09).transl(1.103252373986567e-08, 4e-08, 0))
hIsland = hIsland.add(rect(8.926118474345809e-09, 1.5402437805616603e-09).transl(2.0778042227590814e-09, 4e-08, 0))
hIsland = hIsland.sub(rect(8.647318664685028e-09, -2.572027881164147e-11).transl(2.931371149468117e-08, 4e-08, 0))
hIsland = hIsland.sub(rect(2.904853086264266e-09, -2.9464438742696053e-09).transl(-3.543934097937723e-08, 4e-08, 0))
hIsland = hIsland.sub(rect(5.880579817730357e-09, -2.395491172452434e-09).transl(-3.916907387829264e-08, 4e-08, 0))
hIsland = hIsland.add(rect(7.191906035480188e-09, 4.078438149442893e-10).transl(1.6049338418990957e-08, 4e-08, 0))
hIsland = hIsland.sub(rect(2.066144446222544e-09, -6.729624626153059e-10).transl(5.234058996810826e-08, 4e-08, 0))
hIsland = hIsland.sub(rect(5.866553869366396e-09, -4.2487706942846364e-11).transl(5.041887811952366e-08, 4e-08, 0))
hIsland = hIsland.add(rect(8.402400657852317e-09, 9.904971791319954e-10).transl(8.842022702963538e-08, 2.263624574232743e-08, 0))
hIsland = hIsland.add(rect(3.343853386174324e-09, 1.0624724427754191e-09).transl(-5.0706563931973936e-08, 4e-08, 0))
hIsland = hIsland.sub(rect(5.107193854185794e-09, -3.4813518057450685e-10).transl(-3.526896043905201e-08, 4e-08, 0))
hIsland = hIsland.sub(rect(8.492897790418387e-09, -2.823178448661148e-09).transl(8.96130083087529e-08, 1.1603394882834297e-08, 0))
hIsland = hIsland.sub(rect(5.9205937588906606e-09, -2.146064889967931e-09).transl(-4.187355926108197e-08, 4e-08, 0))
hIsland = hIsland.add(rect(5.681543609407364e-09, 6.076404954982841e-10).transl(1.391126554552648e-08, 4e-08, 0))
hIsland = hIsland.sub(rect(8.033553166105397e-09, -7.03940953875831e-10).transl(5.346216317275061e-08, 4e-08, 0))
hIsland = hIsland.sub(rect(9.956330144597877e-09, -1.3545680890852923e-09).transl(8.850499499538274e-08, 2.2077327678364555e-08, 0))
hIsland = hIsland.sub(rect(6.656608675157474e-09, -3.4025831780175865e-09).transl(-5.214331633488806e-08, 4e-08, 0))
hIsland = hIsland.add(rect(9.659329016582518e-09, 5.738264787615296e-10).transl(-8.146799338954851e-08, 3.994588492221746e-08, 0))
hIsland = hIsland.sub(rect(3.6139993276643896e-09, -1.923467136958312e-10).transl(2.218370690810802e-08, 4e-08, 0))
hIsland = hIsland.add(rect(3.929248066655004e-09, 3.4523597653643883e-09).transl(-4.795461740302826e-08, 4e-08, 0))
hIsland = hIsland.add(rect(8.887809857118924e-09, 1.2356937383181375e-09).transl(-2.1267811009868958e-08, 4e-08, 0))
hIsland = hIsland.sub(rect(3.5416316462322775e-09, -3.4115670157392685e-11).transl(-2.1579751324962187e-08, 4e-08, 0))
hIsland = hIsland.add(rect(4.973707435206096e-09, 2.156472064877346e-09).transl(-4.21940131563967e-08, 4e-08, 0))
hIsland = hIsland.sub(rect(4.096729234960879e-09, -5.7190072980338726e-11).transl(-4.901698993399384e-08, 4e-08, 0))
hIsland = hIsland.add(rect(5.519433489747563e-09, 8.399386701994906e-10).transl(2.549739365592911e-08, 4e-08, 0))
hIsland = hIsland.sub(rect(5.547204696507687e-09, -2.5080395207006984e-09).transl(-5.719449133412476e-08, 4e-08, 0))
hIsland = hIsland.sub(rect(9.991430370635055e-09, -4.135875473615563e-09).transl(3.874659295138754e-08, 4e-08, 0))
hIsland = hIsland.sub(rect(9.058136571487987e-09, -1.771005433699735e-09).transl(-8.692517907369864e-08, 3.0108364924252015e-08, 0))
hIsland = hIsland.add(rect(2.979604811695678e-09, 2.7245859520616826e-10).transl(-2.592445128061689e-08, 4e-08, 0))
hIsland = hIsland.sub(rect(4.0136374703303275e-09, -2.694446789959364e-10).transl(-2.7310438256187218e-08, 4e-08, 0))
hIsland = hIsland.sub(rect(7.675666940869623e-09, -2.22985629388308e-09).transl(2.4763573384157932e-08, 4e-08, 0))
hIsland = hIsland.sub(rect(5.1171083562288985e-09, -3.375785762676768e-10).transl(-3.197348958855575e-08, 4e-08, 0))
hIsland = hIsland.add(rect(3.848404771339873e-09, 1.7018383555910282e-09).transl(7.753605624441253e-08, 4e-08, 0))
hIsland = hIsland.sub(rect(4.686469987651047e-09, -1.3950273485981955e-09).transl(1.639892018483351e-08, 4e-08, 0))
hIsland = hIsland.sub(rect(8.406944277216252e-09, -2.5263823181210875e-09).transl(-7.817901164879366e-09, 4e-08, 0))
hIsland = hIsland.sub(rect(8.887673446467081e-09, -2.533450869809636e-09).transl(6.48939141032025e-08, 4e-08, 0))
hIsland = hIsland.add(rect(3.710761130538863e-09, 2.8590306834496063e-10).transl(7.010546308896923e-08, 4e-08, 0))
hIsland = hIsland.add(rect(5.780571141251878e-09, 1.470663994103583e-10).transl(2.1837836902032505e-08, 4e-08, 0))
hIsland = hIsland.add(rect(8.503886488091617e-09, 3.2085484478503912e-09).transl(-1.4787938762250614e-08, 4e-08, 0))
hIsland = hIsland.sub(rect(6.202338604145103e-09, -2.755063675314172e-09).transl(-8.237062498034138e-08, 3.953342381184181e-08, 0))
hIsland = hIsland.sub(rect(3.2407064467555964e-09, -4.2830023933002574e-11).transl(8.827516923832031e-08, 2.3547970499449097e-08, 0))
hIsland = hIsland.add(rect(8.131084382418713e-09, 2.4111216182149414e-09).transl(5.2041139327655304e-08, 4e-08, 0))
hIsland = hIsland.add(rect(2.389614956155213e-09, 4.972616251501174e-09).transl(-5.458692360130869e-08, 4e-08, 0))
hIsland = hIsland.sub(rect(6.779891439679826e-09, -1.2202153324917628e-10).transl(-8.039548278128294e-08, 4e-08, 0))
hIsland = hIsland.add(rect(9.885011095670653e-09, 1.5198993586391956e-10).transl(2.523862169808425e-08, 4e-08, 0))
hIsland = hIsland.add(rect(5.468360112515443e-09, 1.4894013495116854e-09).transl(1.563350007454625e-08, 4e-08, 0))
vIsland = hIsland.rotz(pi / 2)
vIslands = vIslands.add(vIsland.transl(0, -a/2, 0))
DefRegion(1, hIslands)
DefRegion(2, vIslands)
TableAdd(m_full.Region(1))
TableAdd(m_full.Region(2))
setgeom(hIslands.add(vIslands))
save(geom)
r2o2 := sqrt(2) / 2
m = RandomMagSeed(4)
B_ext = vector(Bmax*r2o2, Bmax*r2o2, 0)
relax()
minimize()
for B := Bmax; B >= -Bmax; B -= Bstep {
	B_ext = vector(B*r2o2, B*r2o2, 0)
	minimize()
	tablesave()
}
//********************************************************************//
//Please cite the following references, relevant for your simulation. //
//See bibtex file in output folder for justification.                 //
//********************************************************************//
//   * Vansteenkiste et al., AIP Adv. 4, 107133 (2014).
//   * Exl et al., J. Appl. Phys. 115, 17D118 (2014).
