# t (s)	mx ()	my ()	mz ()	B_extx (T)	B_exty (T)	B_extz (T)	m_fullx (A/m)	m_fully (A/m)	m_fullz (A/m)	m_full.region1x (A/m)	m_full.region1y (A/m)	m_full.region1z (A/m)	m_full.region2x (A/m)	m_full.region2y (A/m)	m_full.region2z (A/m)
0	0.64694446	0.64694417	-3.1698577e-10	0.07071079	0.0707108	0	120404.69	120404.625	-5.9967177e-05	630588.56	275133.6	-0.00016619184	275133.62	630588.2	-0.00025522316
0	0.6467117	0.64671135	-5.66046e-11	0.07035724	0.07035724	0	120361.34	120361.32	-1.4202752e-05	630772.25	274624	8.309592e-05	274624	630771.94	-0.00017806268
0	0.6464732	0.64647305	-2.9434394e-10	0.070003524	0.07000352	0	120316.984	120316.945	-4.7342506e-05	630961.44	274101.16	-4.748338e-05	274101.12	630961.1	-0.0003353514
0	0.64623255	0.6462323	-2.3773933e-10	0.06964998	0.06964998	0	120272.195	120272.16	-4.7342506e-05	631150.5	273575.06	-0.0002374169	273575.06	631150.25	-6.528965e-05
0	0.64599353	0.6459934	-4.0755313e-10	0.06929651	0.06929651	0	120227.71	120227.67	-7.259184e-05	631340.1	273050.88	-0.0002611586	273050.88	631339.9	-0.000308642
0	0.64575136	0.6457512	-4.528368e-11	0.068943	0.068943	0	120182.63	120182.59	-6.3123343e-06	631529.7	272522.25	7.122507e-05	272522.28	631529.3	-0.00011277303
0	0.6455077	0.6455074	-3.9057174e-10	0.068589285	0.068589285	0	120137.28	120137.23	-7.259184e-05	631720.2	271990.44	-0.000308642	271990.5	631719.9	-0.00026709403
0	0.6452642	0.64526397	-1.5849289e-10	0.06823574	0.06823574	0	120091.95	120091.914	-2.209317e-05	631910.25	271459.6	0	271459.6	631910	-0.0001305793
0	0.6450179	0.64501774	-4.528368e-10	0.067882255	0.067882255	0	120046.125	120046.086	-8.521651e-05	632100.7	270924.38	-0.000308642	270924.4	632100.44	-0.000308642
0	0.6447711	0.6447709	7.924644e-11	0.06752872	0.06752872	0	120000.195	120000.16	2.0515086e-05	632291.9	270387.62	0	270387.62	632291.6	0.00017806268
0	0.6445226	0.64452237	-1.8113472e-10	0.06717501	0.067175	0	119953.95	119953.914	-2.9983588e-05	632482.9	269848.78	-2.374169e-05	269848.8	632482.6	-0.0001305793
0	0.6442736	0.6442733	-2.83023e-10	0.06682169	0.066821694	0	119907.59	119907.555	-5.6811008e-05	632673.75	269309.2	-0.00011870845	269309.22	632673.5	-0.0002641263
0	0.64401907	0.6440189	-1.0188828e-10	0.06646815	0.06646815	0	119860.24	119860.2	-1.5780835e-05	632866.25	268760.4	-9.496676e-05	268760.44	632866.06	-4.154796e-05
0	0.64376926	0.643769	-3.1698577e-10	0.066114426	0.066114426	0	119813.74	119813.69	-5.3654843e-05	633057.44	268219.5	-0.00016619184	268219.53	633057.1	-0.0002611586
0	0.64351624	0.64351594	-2.7170208e-10	0.06576091	0.06576091	0	119766.64	119766.61	-4.5764424e-05	633249.25	267673.47	-9.496676e-05	267673.5	633248.9	-0.00024632004
0	0.6432582	0.64325804	-4.528368e-10	0.065407395	0.065407395	0	119718.62	119718.58	-8.048226e-05	633442.94	267118.5	-0.00043922127	267118.53	633442.7	-0.00023148148
0	0.64300513	0.64300483	-2.1509748e-10	0.06505392	0.06505392	0	119671.51	119671.484	-3.629592e-05	633633.5	266573.66	-5.9354225e-05	266573.66	633633.2	-0.00021367522
0	0.64274615	0.642746	-2.1509748e-10	0.0647002	0.06470021	0	119623.34	119623.29	-3.471784e-05	633826.44	266018.22	-0.00014245014	266018.28	633826.1	-0.00011870845
0	0.6424854	0.6424851	-1.9245565e-10	0.06434668	0.06434668	0	119574.78	119574.75	-2.8405504e-05	634020.5	265459	-0.00018993352	265459.03	634020.1	-0.00011277303
0	0.6422276	0.6422272	-1.3585104e-10	0.063993156	0.063993156	0	119526.8	119526.76	-2.6827422e-05	634212.1	264906.4	-8.309592e-05	264906.44	634211.75	-0.00014838556
0	0.6419638	0.6419634	4.528368e-11	0.06363963	0.06363963	0	119477.71	119477.66	-1.5780836e-06	634405.1	264344.1	-4.748338e-05	264344.16	634404.7	0.00010090219
0	0.64170176	0.6417015	-3.6226944e-10	0.063285924	0.063285924	0	119428.945	119428.91	-6.7857596e-05	634598.9	263783.62	-0.00021367522	263783.66	634598.5	-0.000287868
0	0.641435	0.6414347	-2.264184e-10	0.06293258	0.06293258	0	119379.305	119379.266	-4.2608255e-05	634793.75	263215.25	-0.00018993352	263215.3	634793.4	-0.00010683761
0	0.6411717	0.64117146	-3.1698577e-10	0.06257906	0.062579066	0	119330.31	119330.26	-5.838909e-05	634986	262654.34	-0.00011870845	262654.4	634985.7	-0.00029677112
0	0.64090335	0.6409031	-1.132092e-11	0.062225346	0.062225353	0	119280.37	119280.32	-1.1046585e-05	635180.06	262084.62	0	262084.69	635179.7	-4.154796e-05
0	0.6406345	0.6406341	-3.1698577e-10	0.06187184	0.06187185	0	119230.305	119230.25	-5.3654843e-05	635374.56	261513.61	-0.0002374169	261513.7	635374.1	-0.00021367522
0	0.6403646	0.6403642	-2.6038116e-10	0.061518297	0.061518297	0	119180.08	119180.02	-5.2076757e-05	635569.06	260941.23	-0.00016619184	260941.31	635568.75	-0.00025522316
0	0.64009225	0.64009196	1.132092e-11	0.061164837	0.061164837	0	119129.414	119129.36	-1.5780836e-06	635764.1	260365.03	0	260365.08	635763.75	2.374169e-05
0	0.63981956	0.6398193	-2.9434394e-10	0.060811117	0.060811125	0	119078.664	119078.59	-5.0498675e-05	635958.3	259789.05	-0.00022554606	259789.11	635958	-0.00013651472
0	0.6395435	0.6395432	-2.7170208e-10	0.06045762	0.06045762	0	119027.27	119027.21	-5.5232926e-05	636153.94	259206.92	-0.0002611586	259207	636153.56	-0.00021961064
0	0.6392678	0.63926756	-3.7359035e-10	0.06010405	0.06010405	0	118975.98	118975.914	-7.4169926e-05	636349.4	258625.5	-0.00028490028	258625.56	636349	-0.000287868
0	0.63898945	0.6389892	-1.4717197e-10	0.05975056	0.05975056	0	118924.164	118924.125	-2.6827422e-05	636544.7	258040.56	-0.00010683761	258040.61	636544.4	-0.00017806268
0	0.63871074	0.6387104	-3.5094852e-10	0.05939685	0.05939685	0	118872.28	118872.234	-6.312334e-05	636740.6	257454.36	-0.00022554606	257454.44	636740.2	-0.00027302944
0	0.63842976	0.6384294	-1.0188828e-10	0.059043474	0.059043467	0	118819.99	118819.93	-1.8937002e-05	636936.5	256865	-7.122507e-05	256865.08	636936.2	-4.154796e-05
0	0.63814765	0.6381474	-1.9245565e-10	0.05868997	0.05868997	0	118767.49	118767.44	-3.156167e-05	637132.2	256274.48	-0.00017806268	256274.55	637131.9	0
0	0.637864	0.63786364	-1.5849289e-10	0.05833626	0.05833626	0	118714.68	118714.63	-2.8405504e-05	637328.5	255681.06	-0.00016619184	255681.12	637328.1	-1.4838556e-05
0	0.6375751	0.63757473	-1.8113472e-10	0.057982784	0.057982784	0	118660.914	118660.87	-3.945209e-05	637526.5	255078.5	-0.00014245014	255078.55	637526.2	-0.00014838556
0	0.6372915	0.63729113	-2.6038116e-10	0.05762919	0.057629183	0	118608.13	118608.08	-4.8920592e-05	637721.7	254486.3	-0.00014245014	254486.39	637721.3	-0.00024928775
0	0.6370016	0.6370012	-3.1698577e-10	0.057275694	0.057275694	0	118554.19	118554.15	-6.312334e-05	637918.44	253883.64	-0.00029677112	253883.73	637918.1	-0.00016025642
0	0.6367125	0.6367122	-3.6226944e-10	0.05692205	0.05692205	0	118500.38	118500.31	-6.4701424e-05	638115.75	253281.64	-0.00027302944	253281.7	638115.4	-0.0002107075
0	0.6364204	0.63642	-3.5094852e-10	0.056568563	0.056568563	0	118446.016	118445.95	-6.6279514e-05	638312.8	252675.58	-0.00018993352	252675.7	638312.44	-0.000308642
0	0.63612497	0.6361247	-3.6226944e-10	0.05621495	0.05621495	0	118391.04	118390.984	-6.943568e-05	638511.2	252063.67	-0.0002374169	252063.78	638510.9	-0.00027599715
0	0.63583213	0.63583183	-6.9057615e-10	0.055861466	0.055861466	0	118336.55	118336.484	-0.00013098093	638707.75	251457.2	-0.00040360875	251457.33	638707.4	-0.0005994777
0	0.6355364	0.635536	-2.6038116e-10	0.055507775	0.055507775	0	118281.48	118281.414	-4.2608255e-05	638905.2	250845.58	-0.00017806268	250845.67	638904.75	-0.00021367522
0	0.63523847	0.63523805	-1.698138e-10	0.05515436	0.05515436	0	118226.04	118225.98	-3.156167e-05	639103.06	250230.67	-9.496676e-05	250230.73	639102.7	-0.00012167617
0	0.6349386	0.63493824	-2.1509748e-10	0.054800883	0.054800883	0	118170.25	118170.18	-3.629592e-05	639300.8	249613.17	-0.00018993352	249613.28	639300.44	-8.309592e-05
0	0.6346371	0.63463676	0	0.05444719	0.05444719	0	118114.14	118114.06	-4.7342505e-06	639499.25	248992.61	7.122507e-05	248992.7	639498.8	-4.748338e-05
0	0.63433427	0.63433397	-2.3773933e-10	0.054093726	0.054093733	0	118057.77	118057.71	-4.1030173e-05	639697.1	248370.81	-0.00022554606	248370.9	639696.7	-0.00014541786
0	0.6340297	0.6340293	-2.1509748e-10	0.05374007	0.053740077	0	118001.086	118001.02	-4.1030173e-05	639895.94	247745.47	-0.00017806268	247745.61	639895.6	-0.00014245014
0	0.6337231	0.63372266	-5.3208327e-10	0.053386603	0.053386603	0	117944.016	117943.945	-0.00010336447	640094.94	247117.23	-0.00040360875	247117.36	640094.56	-0.0004688984
0	0.6334129	0.6334125	-3.849113e-10	0.053032964	0.053032964	0	117886.28	117886.21	-7.18028e-05	640294.44	246483.47	-0.0002374169	246483.58	640294.06	-0.0003412868
0	0.63310415	0.6331038	-3.6226944e-10	0.052679505	0.052679505	0	117828.83	117828.766	-5.838909e-05	640492.25	245853.4	-0.0003442545	245853.55	640491.9	-0.00015135328
0	0.6327935	0.6327931	-1.5849289e-10	0.05232583	0.05232583	0	117771	117770.94	-2.8405504e-05	640691.7	245219.02	-7.122507e-05	245219.17	640691.25	-0.00016619184
0	0.63248074	0.6324804	-3.849113e-10	0.05197238	0.05197238	0	117712.81	117712.75	-7.259184e-05	640890.8	244582.19	-0.00018993352	244582.3	640890.4	-0.00028490028
0	0.6321658	0.6321654	-3.0566485e-10	0.05161869	0.05161869	0	117654.17	117654.11	-5.6811008e-05	641090.3	243941.53	-0.00010683761	243941.67	641089.94	-0.0003442545
0	0.63184863	0.6318482	-3.1698577e-10	0.051265243	0.051265243	0	117595.16	117595.09	-5.6811008e-05	641289.44	243298.61	-0.00018993352	243298.73	641289	-0.00022554606
0	0.6315302	0.6315298	-2.6038116e-10	0.050911784	0.050911784	0	117535.9	117535.805	-5.2076757e-05	641489.5	242652.61	-0.00011870845	242652.75	641489.1	-0.00030270655
0	0.63121057	0.63121015	-2.83023e-10	0.050558098	0.050558098	0	117476.41	117476.31	-5.0498675e-05	641689.6	242005.05	-0.000154321	242005.19	641689.1	-0.00024928775
0	0.6308893	0.6308889	-3.7925083e-10	0.05020466	0.050204657	0	117416.62	117416.54	-7.811514e-05	641888.8	241356	-0.00029677112	241356.14	641888.4	-0.00025522316
0	0.63056445	0.6305641	-2.6038116e-10	0.049850963	0.04985096	0	117356.164	117356.086	-5.3654843e-05	642089.7	240700.47	-0.00010683761	240700.61	642089.25	-0.0002077398
0	0.63023967	0.63023925	-3.7359035e-10	0.049497515	0.049497515	0	117295.72	117295.64	-6.6279514e-05	642289.56	240045.78	-0.00018993352	240045.95	642289.1	-0.0003412868
0	0.6299093	0.62990886	-1.698138e-10	0.049143888	0.049143888	0	117234.234	117234.14	-2.9983588e-05	642491.4	239381.52	-0.00014245014	239381.66	642490.94	-8.903134e-05
0	0.6295827	0.6295823	-1.4717197e-10	0.048790425	0.048790425	0	117173.445	117173.37	-2.9983588e-05	642690.6	238725.06	-7.122507e-05	238725.2	642690.1	-0.00016915954
0	0.62925196	0.62925154	-2.7170208e-10	0.048436742	0.048436742	0	117111.88	117111.805	-5.3654843e-05	642891.2	238061.38	-0.00010683761	238061.52	642890.75	-0.00027006172
0	0.62891805	0.6289176	-4.1887405e-10	0.048083298	0.048083298	0	117049.73	117049.65	-8.363843e-05	643092.25	237392.86	-0.00039173788	237392.98	643091.8	-0.00027302944
0	0.6285841	0.62858367	-3.396276e-10	0.04772962	0.04772962	0	116987.6	116987.52	-6.0756218e-05	643292.75	236724.9	-0.0002611586	236725.08	643292.25	-0.00024928775
0	0.62824476	0.62824434	-1.0188828e-10	0.047376156	0.047376156	0	116924.43	116924.36	-1.5780835e-05	643495.06	236047.4	-8.309592e-05	236047.56	643494.6	-8.012821e-05
0	0.62790996	0.6279095	-2.264184e-10	0.04702269	0.04702269	0	116862.125	116862.05	-4.2608255e-05	643694.25	235379.55	-0.000154321	235379.75	643693.75	-0.00021961064
0	0.62756914	0.6275687	-1.2453012e-10	0.046669014	0.046669014	0	116798.695	116798.61	-3.077263e-05	643895.75	234700.84	-0.00016619184	234701.02	643895.3	-8.309592e-05
0	0.62722397	0.6272235	-2.7736255e-10	0.046315562	0.046315562	0	116734.46	116734.375	-5.0498675e-05	644097.25	234016.11	-0.00020180437	234016.28	644096.8	-0.00017509496
0	0.62688273	0.6268822	-2.264184e-11	0.045961883	0.045961883	0	116670.945	116670.84	-3.1561672e-06	644298.56	233337.12	3.5612535e-05	233337.3	644298	-2.9677112e-05
0	0.6265336	0.6265332	-2.0943702e-10	0.04560842	0.04560842	0	116605.98	116605.87	-4.418634e-05	644501.25	232645.61	-0.00016619184	232645.75	644500.8	-0.00016619184
0	0.6261884	0.6261879	-5.4340416e-10	0.04525481	0.04525481	0	116541.71	116541.63	-9.941927e-05	644701.6	231961.92	-0.0003442545	231962.1	644701.2	-0.00043328584
0	0.62583804	0.62583756	-4.7547866e-10	0.044901337	0.044901337	0	116476.5	116476.414	-8.2060345e-05	644903.06	231269.97	-0.00027302944	231270.16	644902.56	-0.00043922127
0	0.6254865	0.62548596	-3.679299e-10	0.04454767	0.04454767	0	116411.08	116410.984	-7.259184e-05	645104.9	230575.98	-0.00016619184	230576.16	645104.3	-0.00040064103
0	0.6251325	0.6251321	-1.4717197e-10	0.04419421	0.04419421	0	116345.21	116345.12	-3.471784e-05	645306.8	229878.61	-0.00014245014	229878.81	645306.25	-8.903134e-05
0	0.6247735	0.62477297	-2.6038116e-10	0.04384055	0.04384055	0	116278.38	116278.3	-4.7342506e-05	645510.1	229172.61	-0.00017806268	229172.8	645509.6	-0.00016619184
0	0.62441885	0.6244184	-1.9245565e-10	0.043487072	0.043487072	0	116212.375	116212.29	-4.024113e-05	645710.3	228475.92	-7.122507e-05	228476.08	645709.8	-0.00024928775
0	0.62405735	0.6240568	-2.5472072e-10	0.043133594	0.043133594	0	116145.1	116145	-5.0498675e-05	645913.1	227766.97	-0.00018993352	227767.16	645912.56	-0.00021367522
0	0.6236965	0.62369585	-2.264184e-10	0.04277993	0.04277993	0	116077.945	116077.84	-3.945209e-05	646114.56	227060.33	-0.00014245014	227060.53	646114	-0.00016619184
0	0.6233325	0.6233321	-3.5094852e-10	0.042426452	0.042426452	0	116010.22	116010.1	-7.18028e-05	646316.7	226348.66	-0.00022554606	226348.88	646316.1	-0.00027599715
0	0.62296635	0.62296575	-5.094414e-11	0.042072807	0.042072807	0	115942.03	115941.93	-9.468501e-06	646519.25	225633.31	-5.9354225e-05	225633.53	646518.8	2.9677112e-06
0	0.6225982	0.62259763	-3.283067e-10	0.041719325	0.04171932	0	115873.53	115873.43	-6.864664e-05	646721.3	224915.89	-0.000308642	224916.12	646720.8	-0.00021367522
0	0.62222725	0.6222267	-2.7170208e-10	0.041365735	0.04136574	0	115804.484	115804.39	-5.5232926e-05	646923.94	224194	-0.000308642	224194.25	646923.4	-0.00011277303
0	0.6218527	0.6218521	-9.056736e-11	0.04101225	0.04101225	0	115734.78	115734.67	-2.3671253e-05	647126.4	223467.14	-0.00018993352	223467.39	647125.9	-5.9354225e-06
0	0.62148035	0.6214798	-3.0566485e-10	0.040658597	0.040658597	0	115665.484	115665.38	-5.838909e-05	647329.2	222743.1	-0.00021367522	222743.31	647328.6	-0.00019586894
0	0.62110376	0.6211032	-3.3396713e-10	0.04030513	0.04030513	0	115595.39	115595.305	-6.154526e-05	647531.44	222013.56	-0.00018993352	222013.8	647530.94	-0.00027599715
0	0.62072533	0.6207248	-4.6415774e-10	0.039951477	0.039951477	0	115524.98	115524.86	-8.363843e-05	647733.9	221281.34	-0.000308642	221281.6	647733.3	-0.0003412868
0	0.62034357	0.62034297	-1.5283243e-10	0.03959798	0.039597984	0	115453.92	115453.81	-2.3671253e-05	647937.2	220543.56	-7.122507e-05	220543.83	647936.6	-8.903134e-05
0	0.61995924	0.6199587	-2.8868347e-10	0.0392445	0.0392445	0	115382.4	115382.28	-5.2076757e-05	648140.2	219802.53	-0.00021367522	219802.8	648139.6	-0.00013948244
0	0.61957514	0.6195745	-2.6038116e-10	0.038890846	0.038890846	0	115310.89	115310.77	-4.7342506e-05	648341.9	219063	-0.00022554606	219063.27	648341.25	-0.00014245014
0	0.6191848	0.6191841	-1.0188828e-10	0.03853735	0.03853735	0	115238.24	115238.13	-1.4202752e-05	648546.44	218311.89	-5.9354225e-05	218312.19	648545.9	-7.71605e-05
0	0.61879784	0.6187972	-2.2075794e-10	0.038183723	0.038183723	0	115166.234	115166.12	-4.418634e-05	648747.75	217568.94	-0.00011870845	217569.2	648747.1	-0.0002374169
0	0.61840576	0.61840516	-2.0377657e-10	0.03783023	0.03783023	0	115093.266	115093.16	-3.3139757e-05	648950.44	216817.47	-0.00020180437	216817.75	648949.8	-2.374169e-05
0	0.6180109	0.6180102	-2.6604163e-10	0.03747658	0.03747658	0	115019.77	115019.67	-5.2076757e-05	649153.75	216061.19	-0.0003442545	216061.45	649153.2	-8.309592e-05
0	0.61761385	0.61761326	-1.5849289e-10	0.037123162	0.037123162	0	114945.89	114945.78	-2.9983588e-05	649355.25	215303.97	-0.00010683761	215304.27	649354.7	-8.309592e-05
0	0.6172161	0.6172155	-2.7170208e-10	0.036769524	0.036769524	0	114871.86	114871.74	-4.8920592e-05	649558.6	214543.73	-0.00014245014	214544	649557.94	-0.00018993352
0	0.61681414	0.6168135	5.66046e-11	0.03641604	0.03641604	0	114797.05	114796.914	7.890418e-06	649762.06	213777.27	7.122507e-05	213777.6	649761.44	5.3418804e-05
0	0.6164085	0.6164079	-1.9245565e-10	0.0360624	0.0360624	0	114721.56	114721.445	-3.3139757e-05	649964.7	213006.86	-0.00017806268	213007.17	649964.2	-4.154796e-05
0	0.61600536	0.6160047	-1.5849289e-10	0.035708904	0.0357089	0	114646.53	114646.4	-2.8405504e-05	650167.3	212239.84	2.374169e-05	212240.14	650166.75	-0.00024928775
0	0.61559594	0.61559516	-3.1698577e-10	0.035355397	0.035355397	0	114570.305	114570.18	-6.312334e-05	650369.6	211464.23	-0.00029677112	211464.56	650369.06	-0.000154321
0	0.61518663	0.615186	-1.3585104e-10	0.03500176	0.03500176	0	114494.15	114494.01	-2.9983588e-05	650573	210687.97	-5.9354225e-05	210688.27	650572.3	-0.00016619184
0	0.6147734	0.6147727	-3.6226944e-10	0.034648255	0.034648255	0	114417.23	114417.12	-6.4701424e-05	650775.94	209906.39	-0.0002611586	209906.72	650775.3	-0.00027006172
0	0.6143576	0.61435694	-3.396276e-10	0.034294643	0.034294643	0	114339.87	114339.73	-6.7857596e-05	650979.06	209121.3	-0.00028490028	209121.64	650978.4	-0.0002077398
0	0.6139377	0.61393696	-1.8679518e-10	0.03394113	0.033941127	0	114261.695	114261.57	-3.7084963e-05	651183.2	208329.2	-0.00014245014	208329.55	651182.5	-0.00015135328
0	0.61351734	0.6135166	-1.0754874e-10	0.0335875	0.0335875	0	114183.47	114183.33	-1.8937002e-05	651385.94	207537.95	-0.00010683761	207538.33	651385.3	-5.3418804e-05
0	0.61309606	0.61309534	-3.877415e-10	0.033234075	0.033234075	0	114105.08	114104.94	-6.6279514e-05	651588	206746.14	-0.00032051283	206746.47	651587.4	-0.00022554606
0	0.612672	0.61267126	-4.3019496e-10	0.03288045	0.032880455	0	114026.13	114026	-7.969322e-05	651789.6	205950.77	-0.00029677112	205951.12	651788.94	-0.00028490028
0	0.6122411	0.6122403	-3.3396713e-10	0.03252696	0.03252696	0	113945.94	113945.8	-6.312334e-05	651994.5	205142.6	-0.000154321	205142.98	651993.8	-0.00033238367
0	0.6118129	0.61181206	-5.7736693e-10	0.03217334	0.03217334	0	113866.24	113866.1	-0.00010730969	652196.3	204341.31	-0.00040360875	204341.69	652195.6	-0.0003679962
0	0.61138064	0.61137986	-3.6226944e-10	0.031819817	0.031819817	0	113785.805	113785.664	-6.4701424e-05	652398.1	203534.42	-0.000308642	203534.81	652397.44	-0.00023148148
0	0.6109443	0.61094356	-1.3585104e-10	0.03146629	0.03146629	0	113704.59	113704.44	-2.1304128e-05	652601.5	202720.08	-9.496676e-05	202720.47	652600.8	-8.309592e-05
0	0.6105075	0.6105067	-1.698138e-10	0.031112673	0.031112676	0	113623.305	113623.15	-2.5249337e-05	652803.3	201906.8	-0.00018993352	201907.19	652802.6	-4.748338e-05
0	0.6100669	0.6100662	-1.981161e-10	0.030759148	0.030759148	0	113541.29	113541.15	-3.550688e-05	653005.56	201087.69	-9.496676e-05	201088.08	653004.8	-0.00011277303
0	0.6096233	0.6096225	-4.8113912e-11	0.030405562	0.030405562	0	113458.734	113458.59	-1.2624669e-05	653208.8	200263.31	-0.00010683761	200263.75	653208.1	4.451567e-05
0	0.6091767	0.60917586	-3.7359035e-10	0.030052025	0.030052025	0	113375.625	113375.47	-6.312334e-05	653411.7	199435.3	-0.00032051283	199435.7	653410.9	-0.00020180437
0	0.6087296	0.60872877	-2.3207887e-10	0.029698426	0.029698426	0	113292.39	113292.24	-5.0498675e-05	653612.44	198608.55	-0.0002374169	198608.95	653611.7	-0.00014245014
0	0.60827595	0.60827506	-1.8113472e-10	0.029344985	0.029344982	0	113207.96	113207.81	-3.7874004e-05	653816.9	197768.9	-8.309592e-05	197769.33	653816.1	-0.00016915954
0	0.60782415	0.60782325	-3.396276e-10	0.028991392	0.028991392	0	113123.88	113123.73	-6.391238e-05	654018.06	196935.28	-0.00027302944	196935.7	654017.25	-0.00019586894
0	0.6073687	0.6073679	-4.0755313e-10	0.028637847	0.028637847	0	113039.14	113038.98	-7.574801e-05	654218.94	196096.83	-0.0002611586	196097.27	654218.25	-0.00036502848
0	0.6069066	0.6069058	-1.5849289e-10	0.028284281	0.028284281	0	112953.13	112952.97	-3.866305e-05	654423.06	195245.75	-0.000154321	195246.19	654422.25	-0.00010980532
0	0.6064475	0.6064467	-3.4528808e-10	0.027930733	0.027930733	0	112867.695	112867.52	-7.18028e-05	654623.3	194402.8	-0.00028490028	194403.27	654622.56	-0.00024632004
0	0.6059805	0.60597956	-4.5849727e-10	0.02757718	0.02757718	0	112780.766	112780.6	-8.67946e-05	654826.6	193545.61	-0.0003442545	193546.05	654825.94	-0.0003679962
0	0.60551476	0.6055139	-3.0000438e-10	0.027223594	0.027223594	0	112694.086	112693.92	-5.838909e-05	655027.44	192692.73	-0.000154321	192693.22	655026.7	-0.000308642
0	0.60504436	0.6050434	-6.792552e-11	0.026870035	0.026870038	0	112606.55	112606.375	-1.3413711e-05	655229.2	191832.5	3.5612535e-05	191832.98	655228.44	-0.000154321
0	0.6045713	0.6045704	-1.981161e-10	0.026516482	0.026516482	0	112518.51	112518.33	-3.3139757e-05	655430.6	190968.69	-0.00018993352	190969.16	655429.9	-7.122507e-05
0	0.6040966	0.60409564	-3.5094852e-10	0.026162915	0.026162915	0	112430.15	112429.96	-6.312334e-05	655631	190103.73	-0.0002374169	190104.22	655630.2	-0.00027896487
0	0.6036181	0.60361725	-3.1698577e-10	0.025809346	0.025809346	0	112341.11	112340.93	-5.6811008e-05	655831.44	189233.44	-0.00033238367	189233.95	655830.7	-0.00014245014
0	0.60313624	0.6031351	-1.0188828e-10	0.025455892	0.025455892	0	112251.38	112251.21	-2.2882212e-05	656033.06	188357.03	-8.309592e-05	188357.56	656032.2	-7.71605e-05
0	0.60264945	0.6026485	-3.1698577e-10	0.025102329	0.025102329	0	112160.82	112160.63	-5.28658e-05	656234.25	187474.5	-0.0002374169	187475.03	656233.44	-0.00018696582
0	0.6021638	0.6021627	-4.783089e-10	0.024748757	0.024748757	0	112070.42	112070.25	-8.600555e-05	656435.8	186592.92	-0.0002374169	186593.47	656435	-0.00043922127
0	0.6016724	0.6016714	-2.4906024e-10	0.024395214	0.024395214	0	111978.97	111978.79	-4.8131547e-05	656637.25	185703.58	-0.00020180437	185704.12	656636.4	-0.00018993352
0	0.6011806	0.6011795	-1.0188828e-10	0.024041649	0.024041649	0	111887.43	111887.25	-1.814796e-05	656836.3	184815.9	-7.122507e-05	184816.47	656835.44	-4.154796e-05
0	0.6006824	0.6006814	-1.9245565e-10	0.023688078	0.023688078	0	111794.73	111794.53	-3.7084963e-05	657038.4	183916.39	-0.00020180437	183916.94	657037.56	-0.00010090219
0	0.60018355	0.6001826	-4.1321357e-10	0.023334507	0.023334507	0	111701.875	111701.695	-7.4169926e-05	657238.4	183018.08	-0.0002611586	183018.62	657237.5	-0.00029380343
0	0.5996828	0.5996818	-3.1698577e-10	0.022980941	0.022980941	0	111608.695	111608.5	-6.0756218e-05	657436.56	182118.86	-0.0002374169	182119.45	657435.7	-0.00024928775
0	0.5991757	0.5991747	-4.3019496e-10	0.022627406	0.022627406	0	111514.3	111514.1	-7.4169926e-05	657638.4	181206.97	-0.00032051283	181207.56	657637.5	-0.00027302944
0	0.5986681	0.59866697	-2.6604163e-10	0.022273835	0.022273835	0	111419.836	111419.625	-4.7342506e-05	657836.94	180297.72	-0.00021367522	180298.33	657836.06	-0.00017212726
0	0.59815526	0.59815425	-1.981161e-10	0.021920275	0.021920275	0	111324.39	111324.195	-3.866305e-05	658037.94	179378.9	-0.00024928775	179379.52	658037.06	-5.3418804e-05
0	0.5976404	0.5976394	-2.3207887e-10	0.021566797	0.021566797	0	111228.57	111228.375	-4.5764424e-05	658236	178460.02	-0.00028490028	178460.62	658235.06	-2.374169e-05
0	0.597123	0.5971219	-2.9434394e-10	0.021213226	0.021213226	0	111132.29	111132.06	-5.3654843e-05	658435.2	177536.42	-0.0002077398	177537.06	658434.3	-0.00019586894
0	0.5966003	0.59659916	-2.3773933e-10	0.02085966	0.02085966	0	111034.99	111034.79	-3.077263e-05	658634.44	176605.31	-0.00028490028	176605.94	658633.56	-4.154796e-05
0	0.5960764	0.5960753	-1.3019058e-10	0.020506127	0.020506125	0	110937.51	110937.3	-2.4460296e-05	658834.75	175671.64	-0.00010090219	175672.31	658833.9	-5.9354225e-05
0	0.59554875	0.5955477	-2.0943702e-10	0.020152565	0.020152565	0	110839.3	110839.07	-4.2608255e-05	659033.5	174734.16	-0.00016619184	174734.8	659032.56	-0.00017212726
0	0.595018	0.59501684	-2.9434394e-10	0.019798992	0.019798992	0	110740.516	110740.28	-5.2076757e-05	659230.44	173794.03	-0.00023148148	173794.72	659229.56	-0.00020180437
0	0.5944836	0.5944824	-3.0000438e-10	0.019445423	0.019445423	0	110641.05	110640.84	-5.9178135e-05	659428.7	172847.66	-0.00019586894	172848.36	659427.75	-0.0002077398
0	0.59394747	0.5939462	-4.2453452e-10	0.019091861	0.019091861	0	110541.24	110541.04	-7.73261e-05	659626.7	171899.05	-0.00043922127	171899.75	659625.7	-0.00017212726
0	0.59340674	0.59340554	-3.863264e-10	0.01873829	0.01873829	0	110440.62	110440.414	-7.3380885e-05	659824.2	170944.55	-0.00018993352	170945.25	659823.2	-0.0003679962
0	0.59286034	0.59285915	-1.8113472e-10	0.018384762	0.018384762	0	110338.95	110338.71	-3.3139757e-05	660024.2	169979.56	-0.00021961064	169980.3	660023.25	-1.1870845e-05
0	0.59231263	0.59231144	-1.4717197e-10	0.0180312	0.0180312	0	110237.01	110236.77	-2.4460296e-05	660221.75	169015.27	-8.309592e-05	169016.02	660220.75	-9.496676e-05
0	0.5917618	0.5917605	-2.9434394e-10	0.0176777	0.0176777	0	110134.49	110134.26	-5.2076757e-05	660418.8	168046.98	-0.00028490028	168047.73	660417.9	-0.000154321
0	0.5912074	0.5912061	-2.9434394e-10	0.017324127	0.017324127	0	110031.305	110031.07	-5.4838405e-05	660615.56	167074	-0.00024928775	167074.77	660614.56	-0.00017212726
0	0.5906483	0.59064704	-4.528368e-11	0.016970566	0.016970564	0	109927.25	109927.016	-1.1046585e-05	660812.75	166094.16	-6.677351e-05	166094.94	660811.7	5.9354225e-05
0	0.59008765	0.59008634	-1.132092e-10	0.016617037	0.016617037	0	109822.91	109822.664	-2.169865e-05	661008.94	165112.97	-4.748338e-05	165113.78	661007.9	-0.00010090219
0	0.5895224	0.5895211	-1.132092e-10	0.01626348	0.01626348	0	109717.72	109717.47	-2.0515086e-05	661205.2	164125.48	-8.309592e-05	164126.3	661204.06	-5.3418804e-05
0	0.5889536	0.58895224	-1.698138e-10	0.015909908	0.015909908	0	109611.836	109611.58	-2.3671253e-05	661401.2	163133	-0.00010683761	163133.84	661400.1	-9.496676e-05
0	0.5883811	0.5883798	-4.0755313e-10	0.015556336	0.015556338	0	109505.305	109505.055	-7.377541e-05	661595.44	162137.39	-0.00028490028	162138.23	661594.4	-0.0002611586
0	0.5878067	0.58780533	-2.6887184e-10	0.015202779	0.015202781	0	109398.39	109398.14	-5.28658e-05	661790.4	161138.12	-0.0002374169	161138.97	661789.3	-0.00016619184
0	0.5872272	0.587226	-3.877415e-10	0.014849213	0.014849213	0	109290.56	109290.29	-7.200006e-05	661985.75	160131.64	-0.00017806268	160132.5	661984.56	-0.00037986704
0	0.58664185	0.5866405	-2.1792772e-10	0.014495696	0.014495696	0	109181.6	109181.336	-3.945209e-05	662182.7	159115.05	-0.00016025642	159115.9	662181.6	-0.00016619184
0	0.58605504	0.5860536	-2.1226726e-10	0.014142141	0.014142141	0	109072.38	109072.12	-3.7874004e-05	662377.4	158098.77	-0.0002611586	158099.69	662376.3	-4.748338e-05
0	0.5854662	0.5854648	-2.8585323e-10	0.01378859	0.01378859	0	108962.78	108962.52	-5.28658e-05	662569.5	157082.33	-0.00021367522	157083.23	662568.4	-0.00022554606
0	0.58486915	0.5848677	-8.207667e-11	0.013435017	0.013435019	0	108851.68	108851.41	-1.0652064e-05	662764.2	156051.78	-2.374169e-05	156052.7	662763	-2.374169e-05
0	0.584271	0.5842696	-1.3019058e-10	0.0130814575	0.0130814575	0	108740.36	108740.07	-2.5643858e-05	662959.75	155018.8	-0.00017806268	155019.73	662958.5	2.374169e-05
0	0.58366865	0.5836671	-1.415115e-11	0.012727946	0.012727946	0	108628.23	108627.95	-3.1561672e-06	663153.3	153981.77	-1.7806267e-05	153982.73	663152.2	1.7806267e-05
0	0.58306307	0.5830616	-1.2736036e-10	0.012374378	0.012374379	0	108515.53	108515.266	-1.6964399e-05	663346.25	152941.14	-0.000154321	152942.12	663345.06	5.9354225e-06
0	0.5824545	0.5824529	-2.5755093e-10	0.0120208245	0.0120208245	0	108402.27	108401.984	-4.398908e-05	663536.94	151898.36	-0.000154321	151899.34	663535.75	-0.00018993352
0	0.58183914	0.58183765	6.792552e-11	0.011667253	0.011667253	0	108287.76	108287.46	8.67946e-06	663729.9	150843.94	-6.528965e-05	150844.97	663728.6	0.00012464388
0	0.58122104	0.5812194	-3.9340198e-10	0.011313703	0.011313703	0	108172.7	108172.41	-7.101376e-05	663922.2	149786.14	-0.00037986704	149787.17	663921.06	-0.0001839981
0	0.58059865	0.58059704	-4.2170428e-10	0.0109601375	0.0109601375	0	108056.88	108056.586	-7.73261e-05	664116.2	148720.97	-0.00035612535	148722.02	664114.94	-0.0002611586
0	0.579974	0.5799724	-5.377437e-11	0.010606613	0.010606613	0	107940.625	107940.336	-1.2624669e-05	664305.44	147657.17	-4.748338e-05	147658.23	664304.2	2.374169e-05
0	0.57934207	0.5793405	-3.6509967e-10	0.0102530625	0.0102530625	0	107823.03	107822.72	-6.7068555e-05	664499.06	146578.86	-0.0003442545	146579.95	664497.75	-0.0001305793
0	0.57870907	0.57870734	-2.9434394e-10	0.009899496	0.009899496	0	107705.195	107704.88	-5.28658e-05	664687.8	145503.61	-0.00028490028	145504.7	664686.7	-0.0001305793
0	0.57806957	0.5780679	-2.264184e-10	0.009545931	0.009545931	0	107586.18	107585.87	-4.6652094e-05	664878.75	144417.58	-0.0003175451	144418.69	664877.5	-6.528965e-05
0	0.5774255	0.57742375	-2.129748e-10	0.009192381	0.009192381	0	107466.31	107465.984	-3.3534277e-05	665071.3	143323.19	-0.00011870845	143324.31	665070.06	-0.00016619184
0	0.57678074	0.576779	-1.3019058e-10	0.008838849	0.00883885	0	107346.32	107346	-2.3671253e-05	665258.9	142233	-0.0001305793	142234.16	665257.6	-5.9354225e-05
0	0.5761289	0.5761271	-1.981161e-10	0.008485283	0.008485282	0	107224.99	107224.664	-4.033976e-05	665448.8	141130.47	-0.0002611586	141131.64	665447.5	-2.9677112e-05
0	0.5754722	0.57547045	-3.6792992e-11	0.00813174	0.00813174	0	107102.77	107102.445	-1.1046585e-05	665638.25	140021.61	-0.00011277303	140022.8	665636.94	9.496676e-05
0	0.57481134	0.57480955	-2.9363637e-10	0.007778169	0.007778169	0	106979.78	106979.445	-5.760005e-05	665829.4	138905.27	-0.000308642	138906.47	665828.06	-0.0001305793
0	0.57414657	0.5741447	6.792552e-11	0.0074246065	0.0074246065	0	106856.06	106855.71	1.4005492e-05	666018	137785.92	-4.748338e-05	137787.16	666016.7	0.00017806268
0	0.5734789	0.573477	-1.0471851e-10	0.0070710704	0.0070710704	0	106731.8	106731.45	-1.79507e-05	666204.06	136665.23	-0.00016619184	136666.48	666202.56	-1.1870845e-05