//mumax 3.10 [windows_amd64 go1.11.6(gc) CUDA-11.0]
//GPU info: NVIDIA GeForce RTX 3090(24575MB), CUDA Driver 12.0, cc=8.6, using cc=80 PTX
//(c) Arne Vansteenkiste, Dynamat LAB, Ghent University, Belgium
//This is free software without any warranty. See license.txt
//********************************************************************//
//  If you use mumax in any work or publication,                      //
//  we kindly ask you to cite the references in references.bib        //
//********************************************************************//
//output directory: r1;p0.5;a3.2e-07;l2.3000000000000002e-07;s2.out/
randSeed(2)
ThermSeed(2)
resolution := 2e-09
zResolution := 5e-09
a := 3.2e-07
gridSize := 320
gridDepth := 5
SetCellsize(resolution, resolution, zResolution)
SetGridsize(gridSize, gridSize, gridDepth)
SetPBC(16, 16, 0)
//resizing...
Msat = 700e3
Aex = 13e-12
alpha = 0.2
Bmax := 0.1
Bstep := Bmax / 500.0
TableAdd(B_ext)
TableAdd(m_full)
islandWidth := 8e-08
islandLength := 2.3000000000000002e-07
ellipseConstant := 5.7500000000000005e-08
hIsland := rect(islandLength-2*ellipseConstant, islandWidth)
hIsland = hIsland.add(ellipse(ellipseConstant*2, islandWidth).transl(islandLength/2-ellipseConstant, 0, 0))
hIsland = hIsland.add(ellipse(ellipseConstant*2, islandWidth).transl(-islandLength/2+ellipseConstant, 0, 0))
hIsland = hIsland.add(rect(6.000000000000001e-09, 3.294001835659136e-09).transl(2.6916005894580473e-08, -4e-08, 0))
hIsland = hIsland.add(rect(6.000000000000001e-09, 2.4329694744801037e-09).transl(-9.102909235611087e-08, -3.249559490979642e-08, 0))
hIsland = hIsland.add(rect(6.000000000000001e-09, 2.2661034760831525e-10).transl(-6.13006050699353e-08, -3.9912526819669425e-08, 0))
hIsland = hIsland.add(rect(6.000000000000001e-09, 3.90119349800808e-09).transl(7.959300928362363e-08, -3.692955867664009e-08, 0))
hIsland = hIsland.sub(rect(6.000000000000001e-09, -6.83663668722143e-10).transl(1.939785060586166e-08, -4e-08, 0))
hIsland = hIsland.sub(rect(6.000000000000001e-09, -7.145100310095466e-10).transl(5.334752968280196e-08, -4e-08, 0))
hIsland = hIsland.add(rect(6.000000000000001e-09, 1.7140613991952856e-09).transl(2.2965709508806946e-09, -4e-08, 0))
hIsland = hIsland.add(rect(6.000000000000001e-09, 5.030927538448384e-10).transl(-1.0455450034913928e-07, -2.2989425661772566e-08, 0))
hIsland = hIsland.add(rect(6.000000000000001e-09, 2.885737410831468e-10).transl(2.7950919626968236e-08, -4e-08, 0))
hIsland = hIsland.add(rect(6.000000000000001e-09, 2.792143550375708e-09).transl(-1.1064480184146076e-07, -1.5270793845499843e-08, 0))
hIsland = hIsland.sub(rect(6.000000000000001e-09, -8.410175510014971e-10).transl(-3.756024437641971e-09, -4e-08, 0))
hIsland = hIsland.sub(rect(6.000000000000001e-09, -2.117585225646146e-09).transl(-1.1079870679690898e-07, -1.500897340710703e-08, 0))
hIsland = hIsland.sub(rect(6.000000000000001e-09, -4.042055867083166e-09).transl(-4.7526905827984724e-08, -4e-08, 0))
hIsland = hIsland.add(rect(6.000000000000001e-09, 7.897698397059139e-11).transl(-1.4179288143027135e-08, -4e-08, 0))
hIsland = hIsland.add(rect(6.000000000000001e-09, 2.0494455577293565e-10).transl(4.96417511077502e-08, -4e-08, 0))
hIsland = hIsland.sub(rect(6.000000000000001e-09, -4.82536175232252e-10).transl(8.323012998775503e-08, -3.577174712769088e-08, 0))
hIsland = hIsland.sub(rect(6.000000000000001e-09, -3.5838099491728614e-09).transl(-1.0867751614118486e-07, -1.823500401341834e-08, 0))
hIsland = hIsland.add(rect(6.000000000000001e-09, 2.3144559262662727e-09).transl(8.402682862765665e-08, -3.548901704269754e-08, 0))
hIsland = hIsland.sub(rect(6.000000000000001e-09, -1.4935517869647133e-09).transl(-9.267741300956802e-09, -4e-08, 0))
hIsland = hIsland.add(rect(6.000000000000001e-09, 2.731202397569683e-09).transl(-2.2813610990764284e-08, -4e-08, 0))
hIsland = hIsland.add(rect(6.000000000000001e-09, 1.7482356773508841e-09).transl(9.081936391876669e-08, -3.2599822472190206e-08, 0))
hIsland = hIsland.add(rect(6.000000000000001e-09, 2.4478887207718116e-09).transl(6.705466892852334e-08, -3.944389725514019e-08, 0))
hIsland = hIsland.add(rect(6.000000000000001e-09, 1.3259290057104621e-09).transl(8.443116316624031e-08, -3.534133817488146e-08, 0))
hIsland = hIsland.add(rect(6.000000000000001e-09, 7.449647475813645e-10).transl(-5.874767054786105e-08, -3.999058229067806e-08, 0))
hIsland = hIsland.sub(rect(6.000000000000001e-09, -3.783483854406451e-09).transl(-9.643475963639617e-08, -2.9434674393428666e-08, 0))
hIsland = hIsland.add(rect(6.000000000000001e-09, 7.582583451982131e-10).transl(4.203597222599691e-08, -4e-08, 0))
hIsland = hIsland.sub(rect(6.000000000000001e-09, -2.6697191807693336e-09).transl(-9.615896198472497e-08, -2.961007059680199e-08, 0))
hIsland = hIsland.sub(rect(6.000000000000001e-09, -1.1879419692478707e-09).transl(9.691533011535429e-09, -4e-08, 0))
hIsland = hIsland.sub(rect(6.000000000000001e-09, -8.460333166075603e-10).transl(-7.767210243164199e-08, -3.745772888041349e-08, 0))
hIsland = hIsland.sub(rect(6.000000000000001e-09, -7.147208219124687e-10).transl(-4.900467889950114e-08, -4e-08, 0))
hIsland = hIsland.sub(rect(6.000000000000001e-09, -5.3314032386150105e-09).transl(5.6693081264589025e-08, -4e-08, 0))
hIsland = hIsland.add(rect(6.000000000000001e-09, 1.739972973494043e-09).transl(-8.389546232437131e-08, -3.55363859320163e-08, 0))
hIsland = hIsland.add(rect(6.000000000000001e-09, 6.834813038453909e-10).transl(-1.9356615531230225e-09, -4e-08, 0))
hIsland = hIsland.add(rect(6.000000000000001e-09, 4.1153105497505055e-09).transl(-8.729102210013148e-09, -4e-08, 0))
hIsland = hIsland.sub(rect(6.000000000000001e-09, -6.356350206259796e-10).transl(-9.453636720429437e-09, -4e-08, 0))
hIsland = hIsland.add(rect(6.000000000000001e-09, 4.321740093760832e-09).transl(-6.700581708057766e-08, -3.944960885800984e-08, 0))
hIsland = hIsland.sub(rect(6.000000000000001e-09, -2.8212457232953212e-09).transl(7.059712817481817e-08, -3.89485410059542e-08, 0))
hIsland = hIsland.sub(rect(6.000000000000001e-09, -2.445344334126398e-09).transl(6.156748539027133e-08, -3.989979471370507e-08, 0))
hIsland = hIsland.sub(rect(6.000000000000001e-09, -6.289972467061121e-11).transl(7.800016180766387e-08, -3.7371438141599204e-08, 0))
hIsland = hIsland.sub(rect(6.000000000000001e-09, -2.6757405274858236e-09).transl(4.303001950525179e-08, -4e-08, 0))
hIsland = hIsland.add(rect(6.000000000000001e-09, 6.118678180629513e-09).transl(-4.563095502776421e-08, -4e-08, 0))
hIsland = hIsland.add(rect(6.000000000000001e-09, 1.094203596993863e-09).transl(5.8528719935577186e-08, -3.999359788641653e-08, 0))
hIsland = hIsland.add(rect(6.000000000000001e-09, 1.3883289710090889e-10).transl(-5.190211846204418e-08, -4e-08, 0))
hIsland = hIsland.sub(rect(6.000000000000001e-09, -2.222358125766717e-09).transl(-6.98932328547152e-08, -3.905984917577778e-08, 0))
hIsland = hIsland.sub(rect(6.000000000000001e-09, -3.1738774249730776e-09).transl(9.69510382208324e-08, -2.9100100667116037e-08, 0))
hIsland = hIsland.sub(rect(6.000000000000001e-09, -5.333693741741646e-09).transl(4.729056987273147e-08, -4e-08, 0))
hIsland = hIsland.add(rect(6.000000000000001e-09, 1.4679126982246454e-09).transl(7.94640296648792e-08, -3.6966771944886567e-08, 0))
hIsland = hIsland.sub(rect(6.000000000000001e-09, -1.5268693434681087e-09).transl(3.464407533069184e-08, -4e-08, 0))
hIsland = hIsland.add(rect(6.000000000000001e-09, 8.625653587864611e-10).transl(2.496198299390192e-08, -4e-08, 0))
hIsland = hIsland.sub(rect(6.000000000000001e-09, -2.299339979703585e-09).transl(5.749545389680278e-08, -4e-08, 0))
hIsland = hIsland.add(rect(6.000000000000001e-09, 1.873956404023793e-09).transl(-1.775655293625329e-08, -4e-08, 0))
hIsland = hIsland.add(rect(6.000000000000001e-09, 8.184807542551467e-10).transl(1.5038246316619987e-08, -4e-08, 0))
hIsland = hIsland.add(rect(6.000000000000001e-09, 9.04123525602598e-10).transl(-3.5615830918518265e-08, -4e-08, 0))
hIsland = hIsland.sub(rect(6.000000000000001e-09, -6.390670197115451e-10).transl(-1.7920297780011872e-08, -4e-08, 0))
hIsland = hIsland.sub(rect(6.000000000000001e-09, -2.2320844125218545e-09).transl(-4.2562366529216774e-08, -4e-08, 0))
hIsland = hIsland.sub(rect(6.000000000000001e-09, -1.2390201512631035e-09).transl(-8.379353051454732e-09, -4e-08, 0))
hIsland = hIsland.add(rect(6.000000000000001e-09, 2.7566870226266865e-10).transl(7.755868858054711e-08, -3.7487191188178826e-08, 0))
hIsland = hIsland.add(rect(6.000000000000001e-09, 3.3957318867714245e-09).transl(1.506002251254438e-08, -4e-08, 0))
hIsland = hIsland.sub(rect(6.000000000000001e-09, -3.817850090546143e-10).transl(-1.0151528653929035e-07, -2.573823312996838e-08, 0))
hIsland = hIsland.add(rect(6.000000000000001e-09, 1.1501426951706005e-09).transl(5.4179539972469654e-08, -4e-08, 0))
hIsland = hIsland.add(rect(6.000000000000001e-09, 1.0049833977429978e-09).transl(1.1096808538545146e-07, -1.4714545635543659e-08, 0))
hIsland = hIsland.sub(rect(6.000000000000001e-09, -1.7063759483911025e-09).transl(1.5905480685418694e-08, -4e-08, 0))
hIsland = hIsland.sub(rect(6.000000000000001e-09, -2.302232423569856e-09).transl(-1.865180131119009e-08, -4e-08, 0))
hIsland = hIsland.sub(rect(6.000000000000001e-09, -1.9212715073555132e-10).transl(-7.920912838587533e-09, -4e-08, 0))
hIsland = hIsland.sub(rect(6.000000000000001e-09, -2.597447496493667e-09).transl(3.404662918409191e-08, -4e-08, 0))
hIsland = hIsland.sub(rect(6.000000000000001e-09, -1.0219881187943455e-10).transl(4.805733729692348e-08, -4e-08, 0))
hIsland = hIsland.add(rect(6.000000000000001e-09, 2.521889516696001e-10).transl(4.7247911124279846e-08, -4e-08, 0))
hIsland = hIsland.sub(rect(6.000000000000001e-09, -3.3299240145691574e-09).transl(8.475430551401402e-09, -4e-08, 0))
hIsland = hIsland.sub(rect(6.000000000000001e-09, -8.422437945684698e-10).transl(1.1022235099575747e-07, -1.5963720009047298e-08, 0))
hIsland = hIsland.add(rect(6.000000000000001e-09, 1.093790977625612e-09).transl(5.2318531785645e-08, -4e-08, 0))
hIsland = hIsland.add(rect(6.000000000000001e-09, 3.4048242057722263e-09).transl(-8.859347100167267e-08, -3.3647179486515883e-08, 0))
hIsland = hIsland.add(rect(6.000000000000001e-09, 5.1498059373885934e-09).transl(-2.69551109459535e-08, -4e-08, 0))
hIsland = hIsland.add(rect(6.000000000000001e-09, 2.7989293803937124e-09).transl(4.368480951337455e-09, -4e-08, 0))
hIsland = hIsland.sub(rect(6.000000000000001e-09, -5.966104458018703e-10).transl(6.372347342495435e-08, -3.976501642157725e-08, 0))
hIsland = hIsland.sub(rect(6.000000000000001e-09, -2.4018968392232333e-09).transl(-4.9784984144104445e-08, -4e-08, 0))
hIsland = hIsland.sub(rect(6.000000000000001e-09, -2.167697045795235e-09).transl(1.4933673743562604e-08, -4e-08, 0))
hIsland = hIsland.sub(rect(6.000000000000001e-09, -1.1541971782068137e-09).transl(4.017481691453972e-09, -4e-08, 0))
hIsland = hIsland.sub(rect(6.000000000000001e-09, -9.825520570099331e-10).transl(1.1127765014349403e-07, -1.4158091485134004e-08, 0))
hIsland = hIsland.sub(rect(6.000000000000001e-09, -3.710397651474116e-09).transl(-4.8059232532610534e-08, -4e-08, 0))
hIsland = hIsland.add(rect(6.000000000000001e-09, 3.1470959351688724e-09).transl(1.773193307715476e-08, -4e-08, 0))
hIsland = hIsland.add(rect(6.000000000000001e-09, 2.210515477257158e-09).transl(-6.155390988751542e-10, -4e-08, 0))
hIsland = hIsland.add(rect(6.000000000000001e-09, 2.8604544019286524e-09).transl(4.271454335959622e-08, -4e-08, 0))
hIsland = hIsland.add(rect(6.000000000000001e-09, 8.803859765403144e-10).transl(-4.509252964318198e-08, -4e-08, 0))
hIsland = hIsland.sub(rect(6.000000000000001e-09, -1.3827422291841157e-09).transl(3.821704328510176e-08, -4e-08, 0))
hIsland = hIsland.add(rect(6.000000000000001e-09, 8.428915338014548e-10).transl(-3.3127392562388116e-08, -4e-08, 0))
hIsland = hIsland.add(rect(6.000000000000001e-09, 2.850557525759159e-10).transl(-8.466720977358773e-08, -3.525380121504596e-08, 0))
hIsland = hIsland.sub(rect(6.000000000000001e-09, -6.619363402994755e-10).transl(-3.684669710702837e-08, -4e-08, 0))
hIsland = hIsland.sub(rect(6.000000000000001e-09, -8.1187718385943e-10).transl(1.0694423760741161e-07, -2.0418515544745543e-08, 0))
hIsland = hIsland.sub(rect(6.000000000000001e-09, -4.5300393924778156e-09).transl(-2.808421221931069e-08, -4e-08, 0))
hIsland = hIsland.add(rect(6.000000000000001e-09, 1.3747058454076604e-09).transl(3.8526512773044263e-08, -4e-08, 0))
hIsland = hIsland.add(rect(6.000000000000001e-09, 1.8418526305816762e-09).transl(-6.72414560956788e-09, -4e-08, 0))
hIsland = hIsland.add(rect(6.000000000000001e-09, 1.5790340555529087e-09).transl(7.431481155063716e-08, -3.825145884276437e-08, 0))
hIsland = hIsland.sub(rect(6.000000000000001e-09, -2.1299136714951837e-09).transl(6.709160880469118e-08, -3.943955836997969e-08, 0))
hIsland = hIsland.add(rect(6.000000000000001e-09, 3.922547799727398e-10).transl(2.993601744602899e-08, -4e-08, 0))
hIsland = hIsland.sub(rect(6.000000000000001e-09, -9.676456997096587e-11).transl(1.0860363868214496e-07, -1.8334996392329512e-08, 0))
hIsland = hIsland.sub(rect(6.000000000000001e-09, -1.3765697364441141e-09).transl(-1.1308587086803814e-07, -1.0234860710379326e-08, 0))
hIsland = hIsland.add(rect(6.000000000000001e-09, 4.970439779414674e-10).transl(8.421462397276845e-08, -3.542078116801861e-08, 0))
hIsland = hIsland.sub(rect(6.000000000000001e-09, -1.4209289111640976e-09).transl(-8.898245660384168e-08, -3.347167809657893e-08, 0))
hIsland = hIsland.sub(rect(6.000000000000001e-09, -1.133375872248869e-09).transl(-9.276136574879456e-08, -3.159583010389029e-08, 0))
hIsland = hIsland.add(rect(6.000000000000001e-09, 6.100747962363223e-10).transl(9.715789197978702e-08, -2.8963715340696e-08, 0))
hIsland = hIsland.sub(rect(6.000000000000001e-09, -1.6044022479536805e-09).transl(-8.039499162969207e-08, 3.669240032260485e-08, 0))
hIsland = hIsland.add(rect(6.000000000000001e-09, 2.6523578144582923e-09).transl(7.024699154292848e-08, 3.900471681259737e-08, 0))
hIsland = hIsland.sub(rect(6.000000000000001e-09, -2.974512974951851e-09).transl(5.307714388944241e-08, 4e-08, 0))
hIsland = hIsland.add(rect(6.000000000000001e-09, 1.0864167308747782e-09).transl(6.874006639078846e-08, 3.9228312186356763e-08, 0))
hIsland = hIsland.sub(rect(6.000000000000001e-09, -5.155456927273131e-09).transl(-1.0533052653963894e-07, 2.2200905443177707e-08, 0))
hIsland = hIsland.sub(rect(6.000000000000001e-09, -2.1051076734389219e-10).transl(-2.1713340841660515e-08, 4e-08, 0))
hIsland = hIsland.sub(rect(6.000000000000001e-09, -1.7614222468364192e-10).transl(-4.8775722260527056e-08, 4e-08, 0))
hIsland = hIsland.add(rect(6.000000000000001e-09, 2.8424131348575383e-09).transl(-3.653736141558432e-10, 4e-08, 0))
hIsland = hIsland.add(rect(6.000000000000001e-09, 9.33591657601226e-10).transl(-2.1415025070909676e-08, 4e-08, 0))
hIsland = hIsland.sub(rect(6.000000000000001e-09, -6.714184317901101e-10).transl(3.1494391289894346e-08, 4e-08, 0))
hIsland = hIsland.sub(rect(6.000000000000001e-09, -2.70956185899204e-10).transl(-1.077781137124199e-07, 1.9408088275002808e-08, 0))
hIsland = hIsland.sub(rect(6.000000000000001e-09, -2.449651703446318e-09).transl(8.923174342010704e-08, 3.3357565995499926e-08, 0))
hIsland = hIsland.sub(rect(6.000000000000001e-09, -2.782352966683286e-09).transl(-4.697303539599248e-09, 4e-08, 0))
hIsland = hIsland.add(rect(6.000000000000001e-09, 2.1425511950505518e-09).transl(5.534874898033861e-08, 4e-08, 0))
hIsland = hIsland.add(rect(6.000000000000001e-09, 2.6799591747958407e-09).transl(5.495043245634083e-09, 4e-08, 0))
hIsland = hIsland.sub(rect(6.000000000000001e-09, -6.125151305646348e-10).transl(-6.358875226631345e-08, 3.9775108262656604e-08, 0))
hIsland = hIsland.add(rect(6.000000000000001e-09, 2.6587318780381733e-09).transl(-7.453086448780585e-08, 3.8205174671738956e-08, 0))
hIsland = hIsland.add(rect(6.000000000000001e-09, 5.747547024433282e-10).transl(9.8381945056806e-08, 2.812807064534138e-08, 0))
hIsland = hIsland.sub(rect(6.000000000000001e-09, -1.7216127667165896e-09).transl(-4.938874651511659e-08, 4e-08, 0))
hIsland = hIsland.add(rect(6.000000000000001e-09, 1.4624470112897405e-10).transl(5.899121400042816e-09, 4e-08, 0))
hIsland = hIsland.add(rect(6.000000000000001e-09, 7.665982936038757e-10).transl(7.43263483083045e-08, 3.824900371010708e-08, 0))
hIsland = hIsland.sub(rect(6.000000000000001e-09, -1.3592556873717607e-09).transl(1.417494543258226e-08, 4e-08, 0))
hIsland = hIsland.add(rect(6.000000000000001e-09, 3.615818489263828e-11).transl(1.1387513175769048e-07, 7.87331125609221e-09, 0))
hIsland = hIsland.add(rect(6.000000000000001e-09, 2.968474380975719e-09).transl(-4.6314135317069724e-08, 4e-08, 0))
hIsland = hIsland.sub(rect(6.000000000000001e-09, -1.1398696577900446e-09).transl(-6.812216919896911e-08, 3.931154699137089e-08, 0))
hIsland = hIsland.add(rect(6.000000000000001e-09, 1.9091818406582063e-10).transl(-4.989798725474572e-08, 4e-08, 0))
hIsland = hIsland.sub(rect(6.000000000000001e-09, -3.6090017546734533e-10).transl(-2.3778876632066194e-08, 4e-08, 0))
hIsland = hIsland.sub(rect(6.000000000000001e-09, -3.276918221793162e-09).transl(4.233026069255926e-09, 4e-08, 0))
hIsland = hIsland.sub(rect(6.000000000000001e-09, -9.289154789711547e-11).transl(-4.9319451476004354e-08, 4e-08, 0))
hIsland = hIsland.add(rect(6.000000000000001e-09, 9.689026626747372e-10).transl(1.102420072799456e-07, 1.5932267494079472e-08, 0))
hIsland = hIsland.add(rect(6.000000000000001e-09, 1.9595753315265242e-09).transl(-2.7966018541944888e-08, 4e-08, 0))
hIsland = hIsland.sub(rect(6.000000000000001e-09, -1.416897711698229e-10).transl(5.495057022154311e-09, 4e-08, 0))
hIsland = hIsland.add(rect(6.000000000000001e-09, 1.8788028298482303e-09).transl(3.354590300164935e-08, 4e-08, 0))
hIsland = hIsland.add(rect(6.000000000000001e-09, 2.145734414367821e-09).transl(-1.1484197483784827e-07, 2.9635045269770954e-09, 0))
hIsland = hIsland.sub(rect(6.000000000000001e-09, -1.4649668229440258e-09).transl(-5.3896523896801e-08, 4e-08, 0))
hIsland = hIsland.add(rect(6.000000000000001e-09, 1.2369102642793795e-09).transl(-5.977241493125474e-08, 3.9968750775080276e-08, 0))
hIsland = hIsland.sub(rect(6.000000000000001e-09, -1.1022412119310562e-09).transl(-1.6690035943567552e-08, 4e-08, 0))
hIsland = hIsland.add(rect(6.000000000000001e-09, 3.6681328205238675e-09).transl(9.169732407915392e-08, 3.215684078812972e-08, 0))
hIsland = hIsland.add(rect(6.000000000000001e-09, 2.733962357018599e-10).transl(-8.448969156431119e-08, 3.531972455377681e-08, 0))
hIsland = hIsland.sub(rect(6.000000000000001e-09, -1.683728387786095e-09).transl(1.0222824374747972e-07, 2.5136390075329138e-08, 0))
hIsland = hIsland.add(rect(6.000000000000001e-09, 1.1686942939277907e-09).transl(-8.469705571613414e-08, 3.524266299531241e-08, 0))
hIsland = hIsland.sub(rect(6.000000000000001e-09, -2.143695984236631e-09).transl(7.15903124617871e-08, 3.878042868338441e-08, 0))
hIsland = hIsland.add(rect(6.000000000000001e-09, 3.1680297387100946e-10).transl(-5.0050282455617956e-08, 4e-08, 0))
hIsland = hIsland.sub(rect(6.000000000000001e-09, -1.253327170011313e-09).transl(-5.9128764247972896e-08, 3.998394915482523e-08, 0))
hIsland = hIsland.sub(rect(6.000000000000001e-09, -6.278176239193973e-11).transl(-1.729113445221828e-08, 4e-08, 0))
hIsland = hIsland.sub(rect(6.000000000000001e-09, -2.099618898122173e-09).transl(2.7857171660254977e-08, 4e-08, 0))
hIsland = hIsland.sub(rect(6.000000000000001e-09, -1.3987598350996937e-09).transl(4.8837711843569894e-08, 4e-08, 0))
hIsland = hIsland.sub(rect(6.000000000000001e-09, -5.343804303103068e-10).transl(-9.046037041321286e-08, 3.277595306239016e-08, 0))
hIsland = hIsland.sub(rect(6.000000000000001e-09, -8.189434380637014e-10).transl(-1.0626062728553277e-07, 2.1199150839035006e-08, 0))
hIsland = hIsland.add(rect(6.000000000000001e-09, 2.178757771852646e-10).transl(-1.2849864450349269e-08, 4e-08, 0))
hIsland = hIsland.sub(rect(6.000000000000001e-09, -1.4058276606401427e-10).transl(-6.77399786211337e-08, 3.936059284806398e-08, 0))
hIsland = hIsland.sub(rect(6.000000000000001e-09, -1.977389805731777e-09).transl(-2.8077685269854206e-08, 4e-08, 0))
hIsland = hIsland.add(rect(6.000000000000001e-09, 1.1618769560658178e-09).transl(-4.396869242259127e-08, 4e-08, 0))
hIsland = hIsland.sub(rect(6.000000000000001e-09, -2.938920554292627e-09).transl(7.172082269031896e-08, 3.8757367973580075e-08, 0))
hIsland = hIsland.add(rect(6.000000000000001e-09, 2.6990485998739096e-09).transl(-5.7794775088159805e-08, 3.9999474371729195e-08, 0))
hIsland = hIsland.add(rect(6.000000000000001e-09, 1.1142104850865483e-09).transl(-1.4375044791205769e-09, 4e-08, 0))
hIsland = hIsland.sub(rect(6.000000000000001e-09, -1.041992547895318e-09).transl(-1.0429451748819713e-07, 2.324481046866113e-08, 0))
hIsland = hIsland.sub(rect(6.000000000000001e-09, -4.173942074344102e-11).transl(-1.030371922086172e-07, 2.4423377200189842e-08, 0))
hIsland = hIsland.sub(rect(6.000000000000001e-09, -1.969677982181842e-09).transl(3.9601195073063266e-08, 4e-08, 0))
hIsland = hIsland.add(rect(6.000000000000001e-09, 1.028017579378366e-09).transl(2.827110319607773e-08, 4e-08, 0))
hIsland = hIsland.add(rect(6.000000000000001e-09, 7.323885907690869e-10).transl(9.284539995282249e-08, 3.155035857473473e-08, 0))
hIsland = hIsland.add(rect(6.000000000000001e-09, 1.14670642423899e-09).transl(-1.1124519453876843e-07, 1.4217606724961794e-08, 0))
hIsland = hIsland.sub(rect(6.000000000000001e-09, -2.65054357835841e-09).transl(-9.139640878214931e-08, 3.2310654447546096e-08, 0))
hIsland = hIsland.add(rect(6.000000000000001e-09, 1.1381151044703217e-09).transl(1.0066302700648864e-07, 2.64274873195462e-08, 0))
hIsland = hIsland.sub(rect(6.000000000000001e-09, -2.2012199288761886e-09).transl(-3.2001803978731997e-08, 4e-08, 0))
hIsland = hIsland.sub(rect(6.000000000000001e-09, -2.0613548595029694e-09).transl(1.2189573646998988e-08, 4e-08, 0))
hIsland = hIsland.add(rect(6.000000000000001e-09, 1.8358475434121178e-09).transl(5.3694398271873745e-08, 4e-08, 0))
hIsland = hIsland.add(rect(6.000000000000001e-09, 5.140820423998144e-09).transl(4.874663151878922e-08, 4e-08, 0))
hIsland = hIsland.add(rect(6.000000000000001e-09, 2.5348738686233697e-09).transl(-4.186093720825e-08, 4e-08, 0))
hIsland = hIsland.add(rect(6.000000000000001e-09, 4.933726734286092e-09).transl(7.401956008268507e-08, 3.8313665610924284e-08, 0))
hIsland = hIsland.sub(rect(6.000000000000001e-09, -2.0479143661763834e-10).transl(-1.0108005362171415e-08, 4e-08, 0))
hIsland = hIsland.sub(rect(6.000000000000001e-09, -7.642384602470501e-10).transl(4.118058835403721e-08, 4e-08, 0))
hIsland = hIsland.sub(rect(6.000000000000001e-09, -9.080243548731333e-10).transl(3.368148626781052e-08, 4e-08, 0))
hIsland = hIsland.add(rect(6.000000000000001e-09, 1.3125774293983565e-09).transl(1.1229259218670185e-07, 1.2129545815503114e-08, 0))
hIsland = hIsland.add(rect(6.000000000000001e-09, 1.3028106052888815e-09).transl(-4.799062552493367e-08, 4e-08, 0))
hIsland = hIsland.sub(rect(6.000000000000001e-09, -1.0782427694556606e-10).transl(-8.050928620949783e-09, 4e-08, 0))
hIsland = hIsland.sub(rect(6.000000000000001e-09, -3.6960857496398932e-09).transl(4.923563504453636e-08, 4e-08, 0))
hIsland = hIsland.sub(rect(6.000000000000001e-09, -4.926116614266779e-10).transl(-6.021965180341938e-08, 3.995523237928781e-08, 0))
hIsland = hIsland.add(rect(6.000000000000001e-09, 2.695324381852811e-09).transl(4.353882384136984e-08, 4e-08, 0))
hIsland = hIsland.sub(rect(6.000000000000001e-09, -9.623850149388015e-10).transl(1.589469606545162e-09, 4e-08, 0))
hIsland = hIsland.sub(rect(6.000000000000001e-09, -1.2085700461932033e-09).transl(6.016756727191066e-08, 3.995693158046791e-08, 0))
hIsland = hIsland.add(rect(6.000000000000001e-09, 1.5866216218682069e-09).transl(-1.014537767008535e-08, 4e-08, 0))
hIsland = hIsland.add(rect(6.000000000000001e-09, 4.2822076531321214e-10).transl(-3.481469083044259e-08, 4e-08, 0))
hIsland = hIsland.sub(rect(6.000000000000001e-09, -6.120093062868829e-10).transl(2.4939121965770474e-08, 4e-08, 0))
hIsland = hIsland.add(rect(6.000000000000001e-09, 6.642127428750601e-10).transl(-5.1282715069141574e-08, 4e-08, 0))
hIsland = hIsland.add(rect(6.000000000000001e-09, 1.930429195943817e-09).transl(-4.700402727799822e-08, 4e-08, 0))
hIsland = hIsland.sub(rect(6.000000000000001e-09, -1.1116320065554116e-09).transl(-1.0344262152357491e-07, 2.405312861801983e-08, 0))
hIsland = hIsland.add(rect(6.000000000000001e-09, 1.3521809729533925e-09).transl(4.776081643701542e-09, 4e-08, 0))
hIsland = hIsland.sub(rect(6.000000000000001e-09, -2.5128582774405602e-09).transl(-5.202654202009702e-08, 4e-08, 0))
hIsland = hIsland.sub(rect(6.000000000000001e-09, -6.710297551805354e-10).transl(6.526378925174579e-08, 3.963370173212694e-08, 0))
hIsland = hIsland.sub(rect(6.000000000000001e-09, -3.788726659469161e-10).transl(3.416261573564644e-08, 4e-08, 0))
hIsland = hIsland.add(rect(6.000000000000001e-09, 2.757664674691457e-09).transl(7.0290338235516755e-09, 4e-08, 0))
hIsland = hIsland.sub(rect(6.000000000000001e-09, -3.651303111801936e-09).transl(1.1449396880915018e-07, 5.295074745718792e-09, 0))
hIsland = hIsland.add(rect(6.000000000000001e-09, 1.3589976390181763e-10).transl(9.120973950640634e-08, 3.240502441779659e-08, 0))
hIsland = hIsland.sub(rect(6.000000000000001e-09, -2.1852895213429157e-10).transl(-1.8327697014619196e-08, 4e-08, 0))
hIsland = hIsland.sub(rect(6.000000000000001e-09, -1.512227233070007e-09).transl(-5.3302428426842653e-08, 4e-08, 0))
hIsland = hIsland.add(rect(6.000000000000001e-09, 4.388361536191851e-09).transl(6.109521976086628e-08, 3.99217345157109e-08, 0))
hIsland = hIsland.sub(rect(6.000000000000001e-09, -6.644978292214315e-10).transl(4.811099642199974e-08, 4e-08, 0))
hIsland = hIsland.add(rect(6.000000000000001e-09, 1.067836196140551e-09).transl(-9.265588784471803e-08, 3.165265971800801e-08, 0))
hIsland = hIsland.sub(rect(6.000000000000001e-09, -1.4523160066992477e-09).transl(-5.134114982545696e-08, 4e-08, 0))
vIsland := hIsland.rotz(pi / 2)
vIslands := Universe().Inverse()
hIslands := Universe().Inverse()
hIslands = hIslands.add(hIsland.transl(-a/2, a, 0))
hIslands = hIslands.add(hIsland.transl(-a/2, -a, 0))
hIslands = hIslands.add(hIsland.transl(a/2, a, 0))
hIslands = hIslands.add(hIsland.transl(a/2, -a, 0))
hIslands = hIslands.add(hIsland.transl(-a/2, 0, 0))
hIslands = hIslands.add(hIsland.transl(a/2, 0, 0))
vIslands = vIslands.add(vIsland.transl(-a, a/2, 0))
vIslands = vIslands.add(vIsland.transl(a, a/2, 0))
vIslands = vIslands.add(vIsland.transl(-a, -a/2, 0))
vIslands = vIslands.add(vIsland.transl(a, -a/2, 0))
vIslands = vIslands.add(vIsland.transl(0, a/2, 0))
vIslands = vIslands.add(vIsland.transl(0, -a/2, 0))
DefRegion(1, hIslands)
DefRegion(2, vIslands)
TableAdd(m_full.Region(1))
TableAdd(m_full.Region(2))
setgeom(hIslands.add(vIslands))
save(m)
r2o2 := sqrt(2) / 2
m = RandomMagSeed(4)
B_ext = vector(Bmax*r2o2, Bmax*r2o2, 0)
relax()
minimize()
for B := Bmax; B >= -Bmax; B -= Bstep {
	B_ext = vector(B*r2o2, B*r2o2, 0)
	minimize()
	tablesave()
}
//********************************************************************//
//Please cite the following references, relevant for your simulation. //
//See bibtex file in output folder for justification.                 //
//********************************************************************//
//   * Vansteenkiste et al., AIP Adv. 4, 107133 (2014).
//   * Exl et al., J. Appl. Phys. 115, 17D118 (2014).
