# t (s)	mx ()	my ()	mz ()	B_extx (T)	B_exty (T)	B_extz (T)	m_fullx (A/m)	m_fully (A/m)	m_fullz (A/m)	m_full.region1x (A/m)	m_full.region1y (A/m)	m_full.region1z (A/m)	m_full.region2x (A/m)	m_full.region2y (A/m)	m_full.region2z (A/m)
0	0.653086	0.6530852	-1.2681839e-10	0.07071067	0.07071067	0	175400.2	175400.02	-3.6989797e-05	622149.5	292170.28	-0.000118018615	292170.84	622148.94	-7.9787234e-05
0	0.6530058	0.65300584	-2.805857e-10	0.07056918	0.07056919	0	175378.69	175378.7	-7.015306e-05	622215.8	291992.38	-0.00015625	291992.16	622215.75	-0.00017952127
0	0.652923	0.65292317	-2.8217093e-10	0.07042789	0.07042789	0	175356.47	175356.52	-7.270408e-05	622286.6	291805.88	-0.00015957447	291805.56	622286.56	-0.00026595744
0	0.65283746	0.65283763	-4.1215978e-10	0.070286386	0.070286386	0	175333.48	175333.55	-0.00011096939	622358.7	291614	-0.0002825798	291613.7	622358.7	-0.00026595744
0	0.65275335	0.65275353	-1.4901161e-10	0.07014502	0.07014502	0	175310.89	175310.95	-3.5714285e-05	622430.3	291424.62	-9.807181e-05	291424.3	622430.4	-7.9787234e-05
0	0.6526687	0.65266883	-1.8705713e-10	0.07000352	0.07000352	0	175288.14	175288.19	-4.591837e-05	622502.25	291234.2	-8.31117e-05	291233.8	622502.25	-0.00019614362
0	0.65258497	0.6525852	-1.3950023e-10	0.06986222	0.069862224	0	175265.7	175265.73	-4.336735e-05	622573.56	291045.78	-5.4853725e-05	291045.47	622573.5	-0.00016289894
0	0.65249914	0.65249944	-1.109661e-10	0.069720745	0.069720745	0	175242.64	175242.67	-2.6785714e-05	622645.6	290853.6	-6.981383e-05	290853.25	622645.56	-6.981383e-05
0	0.6524147	0.6524148	6.023874e-11	0.06957926	0.06957926	0	175219.95	175220	1.6581633e-05	622717.56	290663.34	0.00010970745	290663.1	622717.5	-2.3271277e-05
0	0.65232986	0.6523301	-1.3950023e-10	0.06943794	0.06943794	0	175197.16	175197.2	-4.0178573e-05	622789.2	290473	-0.00011635639	290472.66	622789.06	-0.00011968085
0	0.6522438	0.6522439	-2.219322e-11	0.0692964	0.0692964	0	175174.05	175174.1	-7.653061e-06	622861.1	290280.5	-5.1529256e-05	290280.2	622861.06	9.973404e-06
0	0.65215874	0.6521588	6.023874e-11	0.069155104	0.069155104	0	175151.19	175151.25	1.2755102e-05	622933.1	290089.34	1.662234e-05	290089	622933.06	1.9946809e-05
0	0.65207297	0.6520731	-2.7900046e-10	0.0690136	0.069013596	0	175128.16	175128.22	-8.0357146e-05	623005.1	289897.3	-0.0002194149	289897	623005.06	-0.00021276595
0	0.65198773	0.65198785	-9.1943335e-11	0.068872124	0.068872124	0	175105.25	175105.31	-2.2959184e-05	623076.56	289706.53	-0.00011136968	289706.25	623076.5	3.324468e-06
0	0.6519002	0.65190035	-2.7583e-10	0.06873082	0.06873082	0	175081.77	175081.83	-8.163265e-05	623149.06	289511.56	-8.144947e-05	289511.28	623148.94	-0.0002925532
0	0.6518149	0.6518151	-2.0290943e-10	0.06858932	0.06858932	0	175058.86	175058.9	-5.3571428e-05	623220.75	289320.53	-0.00010970745	289320.2	623220.7	-0.00013297872
0	0.65172774	0.6517279	-8.5602414e-11	0.068447955	0.068447955	0	175035.47	175035.5	-2.0408163e-05	623293.3	289125.8	-8.976064e-05	289125.47	623293.25	-2.6595744e-05
0	0.6516415	0.6516418	-5.7068277e-11	0.06830648	0.06830648	0	175012.33	175012.34	-1.0204081e-05	623365.56	288932.94	4.8204787e-05	288932.62	623365.5	-7.646277e-05
0	0.65155494	0.6515552	-5.0727356e-10	0.06816515	0.06816515	0	174989.05	174989.08	-0.00013711734	623437.5	288739.78	-0.0003324468	288739.5	623437.44	-0.0003547831
0	0.6514677	0.6514679	-3.2972783e-10	0.068023674	0.068023674	0	174965.61	174965.67	-8.928571e-05	623509.3	288545.78	-0.0002692819	288545.47	623509.25	-0.0002194149
0	0.65137976	0.65138	1.9022759e-11	0.06788219	0.067882195	0	174942	174942.06	1.1479592e-05	623582.2	288349.78	3.324468e-05	288349.47	623582.2	1.9946809e-05
0	0.6512927	0.6512929	2.219322e-11	0.06774088	0.06774088	0	174918.64	174918.67	7.653061e-06	623654.6	288155.62	3.324468e-05	288155.28	623654.56	-9.973404e-06
0	0.6512058	0.651206	-2.1876173e-10	0.067599334	0.067599334	0	174895.28	174895.33	-6.122449e-05	623726.75	287961.72	-8.31117e-05	287961.4	623726.6	-0.00019281915
0	0.65111786	0.65111804	-5.548305e-11	0.06745803	0.06745803	0	174871.66	174871.7	-1.7857143e-05	623799.3	287766	-7.646277e-05	287765.7	623799.25	-3.656915e-05
0	0.65103	0.6510302	-3.8362563e-10	0.06731653	0.06731653	0	174848.05	174848.1	-9.885204e-05	623871.6	287570.6	-0.0003324468	287570.34	623871.56	-0.0002493351
0	0.6509419	0.65094215	-1.1730701e-10	0.06717506	0.06717506	0	174824.39	174824.45	-3.5714285e-05	623944	287374.97	-0.0001412899	287374.66	623943.94	-1.9946809e-05
0	0.65085244	0.6508526	-1.03039945e-10	0.06703376	0.06703376	0	174800.38	174800.39	-2.9336734e-05	624017.1	287176.6	-0.00013796543	287176.3	624017	-2.3271277e-05
0	0.650765	0.6507652	-1.109661e-10	0.066892266	0.066892266	0	174776.89	174776.95	-2.8061224e-05	624089.25	286982.1	-6.3164895e-05	286981.8	624089.2	-6.648936e-05
0	0.65067637	0.65067655	-2.4729588e-10	0.066750884	0.066750884	0	174753.08	174753.14	-7.653061e-05	624161.8	286785.4	-0.00019614362	286785.1	624161.75	-0.00015625
0	0.65058726	0.6505874	-4.2801207e-11	0.06660941	0.06660941	0	174729.12	174729.19	-1.2755102e-05	624234.6	286587.75	3.324468e-05	286587.44	624234.56	-7.646277e-05
0	0.65049756	0.65049773	-6.9750115e-11	0.06646809	0.06646809	0	174705.08	174705.12	-1.6581633e-05	624307.3	286389.66	-8.976064e-05	286389.34	624307.25	3.324468e-06
0	0.6504083	0.65040857	-2.0925035e-10	0.06632662	0.06632662	0	174681.1	174681.16	-6.25e-05	624380.2	286191.88	-0.0002094415	286191.56	624380.06	-9.6409574e-05
0	0.65031964	0.6503198	-2.3461402e-10	0.06618514	0.06618514	0	174657.27	174657.33	-5.8035715e-05	624452.56	285995.12	-0.00014295212	285994.84	624452.56	-0.00017952127
0	0.6502292	0.6502294	1.7437529e-10	0.066043824	0.06604382	0	174633.02	174633.05	5.0382652e-05	624525.6	285795.62	0.00015625	285795.3	624525.7	9.6409574e-05
0	0.6501404	0.65014064	-2.0290943e-10	0.06590227	0.06590227	0	174609.14	174609.19	-5.9311224e-05	624598.1	285598.78	-9.6409574e-05	285598.47	624598.06	-0.00023271277
0	0.6500502	0.65005046	-7.292058e-11	0.06576097	0.06576097	0	174584.95	174584.98	-1.5306123e-05	624671.06	285399.66	-5.4853725e-05	285399.34	624670.94	-2.6595744e-05
0	0.64996	0.6499601	-1.8705713e-10	0.065619476	0.065619476	0	174560.69	174560.72	-5.0382652e-05	624743.9	285200.38	-6.981383e-05	285200	624743.9	-0.00018949468
0	0.6498692	0.64986944	-3.392392e-10	0.06547816	0.06547816	0	174536.3	174536.36	-9.821429e-05	624817.2	285000	-0.00030917552	284999.7	624817.2	-0.00019281915
0	0.64977956	0.64977974	-3.915518e-10	0.0653367	0.0653367	0	174512.22	174512.27	-0.000102040816	624889.44	284802.22	-0.00022107713	284801.9	624889.44	-0.00031914894
0	0.64968735	0.6496875	-2.5363678e-10	0.06519521	0.06519521	0	174487.45	174487.5	-6.568878e-05	624963.4	284599.25	-0.00020113031	284598.9	624963.25	-0.00015957447
0	0.6495974	0.6495976	-2.7900046e-10	0.0650539	0.0650539	0	174463.31	174463.38	-7.9081634e-05	625035.94	284400.84	-0.0001761968	284400.47	625035.8	-0.00020279255
0	0.6495055	0.6495056	-2.5046631e-10	0.06491235	0.06491235	0	174438.62	174438.66	-7.52551e-05	625109.4	284198.7	-0.00016954787	284198.38	625109.25	-0.00022273936
0	0.64941466	0.6494149	-1.9339805e-10	0.06477103	0.06477103	0	174414.25	174414.27	-5.1020408e-05	625182.2	283998.7	-0.00012799203	283998.4	625182.2	-0.00015625
0	0.6493229	0.6493231	-2.7741523e-10	0.06462956	0.06462956	0	174389.58	174389.64	-8.163265e-05	625255.7	283796.7	-0.00013962766	283796.38	625255.6	-0.00025930852
0	0.64923114	0.6492313	-1.8388667e-10	0.06448809	0.06448809	0	174364.94	174365	-4.9744896e-05	625329.06	283594.9	-6.981383e-05	283594.6	625328.94	-0.00015957447
0	0.64913875	0.649139	-2.7265953e-10	0.06434676	0.06434675	0	174340.11	174340.2	-8.0357146e-05	625402.6	283391.97	-0.00017785904	283391.66	625402.56	-0.00021609043
0	0.64904714	0.6490473	-1.3950023e-10	0.06420529	0.06420529	0	174315.52	174315.56	-3.5714285e-05	625475.5	283190.84	-0.00014295212	283190.5	625475.44	-6.648936e-05
0	0.6489549	0.64895505	-1.8705713e-10	0.06406391	0.06406391	0	174290.75	174290.8	-5.3571428e-05	625548.56	282988.6	-9.807181e-05	282988.25	625548.5	-0.0001761968
0	0.6488621	0.64886224	-4.502053e-10	0.06392241	0.06392241	0	174265.81	174265.86	-0.00012755101	625621.94	282785.28	-0.00025930852	282784.97	625621.8	-0.00039893616
0	0.64876914	0.6487693	-2.4729588e-10	0.063781105	0.063781105	0	174240.86	174240.89	-7.015306e-05	625695.8	282581.34	-0.00019614362	282581	625695.75	-0.00014960107
0	0.648676	0.64867616	9.511379e-11	0.06363964	0.06363964	0	174215.84	174215.9	2.4872448e-05	625769.3	282377.44	0.00014960107	282377.16	625769.2	1.3297872e-05
0	0.6485826	0.6485828	-3.392392e-10	0.06349814	0.06349814	0	174190.77	174190.8	-8.737245e-05	625842.5	282173.4	-0.0001761968	282173.12	625842.44	-0.00027925533
0	0.64848906	0.6484892	-1.3950023e-10	0.06335683	0.06335683	0	174165.62	174165.66	-4.336735e-05	625916.4	281968.66	3.324468e-06	281968.34	625916.2	-0.00019946808
0	0.648396	0.64839613	-5.7068277e-11	0.06321529	0.06321529	0	174140.62	174140.67	-1.0841837e-05	625989.5	281765.16	-3.4906916e-05	281764.8	625989.5	-1.9946809e-05
0	0.6483019	0.6483021	-2.1876173e-10	0.06307396	0.06307396	0	174115.38	174115.42	-5.9311224e-05	626063.25	281559.8	-0.00012300532	281559.47	626063.1	-0.0001761968
0	0.64820814	0.6482083	-1.426707e-10	0.06293249	0.06293249	0	174090.2	174090.23	-3.9540817e-05	626137.2	281354.56	-9.6409574e-05	281354.25	626137.1	-6.3164895e-05
0	0.64811426	0.6481144	-6.3409195e-12	0.06279103	0.06279103	0	174064.97	174065.02	0	626210.6	281149.6	-1.662234e-05	281149.28	626210.56	0
0	0.64802015	0.64802027	-4.5337575e-10	0.06264969	0.06264969	0	174039.69	174039.73	-0.00012053571	626284.4	280944.2	-0.00034242022	280943.88	626284.3	-0.0002692819
0	0.64792526	0.6479255	-3.328983e-10	0.062508225	0.062508225	0	174014.22	174014.28	-8.418367e-05	626358.1	280737.6	-0.00021276595	280737.25	626358.06	-0.0002293883
0	0.6478308	0.6478309	-2.3461402e-10	0.06236684	0.06236684	0	173988.83	173988.86	-6.377551e-05	626431.9	280531.47	-0.0002194149	280531.12	626431.8	-0.00012632979
0	0.64773613	0.64773643	-2.3461402e-10	0.062225346	0.062225346	0	173963.44	173963.5	-6.632653e-05	626505.3	280325.72	-0.000113031914	280325.4	626505.25	-0.00022273936
0	0.6476401	0.6476403	-1.4742638e-10	0.062084038	0.062084038	0	173937.61	173937.69	-4.2091837e-05	626579.56	280116.9	-6.8151596e-05	280116.62	626579.44	-0.00012632979
0	0.64754426	0.6475444	-1.2047748e-10	0.061942577	0.061942577	0	173911.88	173911.92	-3.8265305e-05	626653.56	279908.7	-7.31383e-05	279908.38	626653.44	-7.31383e-05
0	0.6474497	0.64744985	-1.5535254e-10	0.061801083	0.061801083	0	173886.48	173886.53	-4.655612e-05	626727.4	279702.56	-0.00013962766	279702.28	626727.2	-9.6409574e-05
0	0.6473538	0.64735395	-4.5337575e-10	0.061659772	0.061659772	0	173860.73	173860.8	-0.00011989796	626801.4	279494.38	-0.00031582447	279494.03	626801.25	-0.0003324468
0	0.6472572	0.6472573	-1.6169345e-10	0.061518237	0.06151823	0	173834.78	173834.83	-4.0816325e-05	626875.4	279285.03	-8.31117e-05	279284.7	626875.25	-0.00013297872
0	0.6471614	0.64716154	-2.599777e-10	0.061376892	0.061376892	0	173809.06	173809.1	-7.3979594e-05	626949.44	279076.8	-0.00025265958	279076.53	626949.3	-0.00013630319
0	0.6470654	0.64706564	-2.2827311e-10	0.06123543	0.06123543	0	173783.28	173783.33	-5.6122448e-05	627023.4	278868.53	-0.0002194149	278868.22	627023.44	-0.00012300532
0	0.64696884	0.6469691	-2.5046631e-10	0.061093967	0.061093967	0	173757.36	173757.4	-5.739796e-05	627097.4	278659.44	-5.319149e-05	278659.1	627097.25	-0.00025265958
0	0.64687145	0.6468716	-1.0145471e-10	0.060952656	0.060952656	0	173731.17	173731.22	-2.4234694e-05	627171.75	278448.5	-4.3218086e-05	278448.2	627171.7	-0.00010305851
0	0.6467748	0.64677495	-2.6314817e-10	0.060811166	0.060811166	0	173705.23	173705.28	-6.760204e-05	627246	278239.1	-0.00017952127	278238.78	627245.8	-0.0001462766
0	0.64667755	0.64667773	-3.4240966e-10	0.060669772	0.060669772	0	173679.11	173679.16	-8.928571e-05	627320.3	278028.56	-0.00026097076	278028.22	627320.25	-0.00019946808
0	0.64658	0.64658016	-3.1704598e-12	0.060528316	0.060528316	0	173652.9	173652.95	1.9132654e-06	627394.56	277817.7	-2.8257979e-05	277817.38	627394.44	4.986702e-05
0	0.6464809	0.6464811	-1.4901161e-10	0.060386974	0.060386974	0	173626.3	173626.34	-4.145408e-05	627469.4	277604.38	-0.00010970745	277604.06	627469.2	-0.00011635639
0	0.64638484	0.646385	-3.6460288e-10	0.06024551	0.06024551	0	173600.48	173600.55	-0.000102040816	627542.75	277396.3	-0.00031416223	277395.97	627542.7	-0.00021609043
0	0.64628655	0.64628667	-2.853414e-10	0.06010405	0.06010405	0	173574.1	173574.14	-7.653061e-05	627617.1	277184.34	-0.00016954787	277184.03	627616.94	-0.00021276595
0	0.6461875	0.6461876	-3.4558012e-10	0.059962712	0.059962712	0	173547.48	173547.55	-9.438775e-05	627691.9	276970.97	-0.00021110372	276970.66	627691.7	-0.00023271277
0	0.64608955	0.6460897	-1.109661e-10	0.059821166	0.059821166	0	173521.17	173521.23	-3.0612246e-05	627766	276759.62	-0.00012632979	276759.25	627765.94	-2.3271277e-05
0	0.6459899	0.6459901	-2.0290943e-10	0.05967986	0.05967986	0	173494.42	173494.48	-5.484694e-05	627841.06	276545.1	-0.00020279255	276544.75	627841	-9.973404e-05
0	0.6458922	0.64589244	-5.3897817e-11	0.059538364	0.059538364	0	173468.22	173468.25	-1.6581633e-05	627915	276334.4	-8.31117e-05	276334.1	627914.94	-9.973404e-06
0	0.6457925	0.6457926	-1.0145471e-10	0.059396908	0.059396908	0	173441.4	173441.44	-3.125e-05	627990.1	276119.62	-5.9840426e-05	276119.34	627990	-5.6515957e-05
0	0.64569235	0.6456925	-7.6091036e-11	0.059255596	0.059255596	0	173414.52	173414.58	-2.4234694e-05	628064.75	275904.94	-0.000113031914	275904.62	628064.56	-1.9946809e-05
0	0.6455936	0.64559376	-2.9643799e-10	0.059114102	0.059114102	0	173387.98	173388.03	-8.354592e-05	628139	275692.4	-0.00012300532	275692.06	628138.9	-0.00027925533
0	0.64549375	0.6454939	-1.9656851e-10	0.058972713	0.058972705	0	173361.19	173361.22	-5.994898e-05	628213.8	275477.78	-7.31383e-05	275477.47	628213.7	-0.00022273936
0	0.6453937	0.64539397	-2.5363678e-10	0.05883125	0.05883125	0	173334.33	173334.36	-6.186224e-05	628288.6	275263.03	-0.00010804521	275262.72	628288.44	-0.00021609043
0	0.64529413	0.64529425	-1.9022758e-10	0.0586899	0.0586899	0	173307.56	173307.61	-4.846939e-05	628362.8	275049.28	-9.474734e-05	275048.97	628362.7	-0.0002094415
0	0.64519227	0.64519244	-1.3474455e-10	0.05854845	0.05854845	0	173280.22	173280.25	-3.1887754e-05	628438.06	274831.56	-7.480053e-05	274831.2	628437.8	-0.00010098072
0	0.64509207	0.64509225	-3.233869e-10	0.058406986	0.058406986	0	173253.3	173253.34	-9.119898e-05	628513.1	274616.16	-0.00027925533	274615.84	628513	-0.00019946808
0	0.64499223	0.6449923	-2.3461402e-10	0.05826565	0.05826565	0	173226.47	173226.52	-5.484694e-05	628587.06	274402.28	-9.973404e-05	274401.94	628587	-0.00017952127
0	0.64489037	0.6448906	-1.5218207e-10	0.058124106	0.058124106	0	173199.14	173199.19	-4.0816325e-05	628662.4	274184.53	-0.000118018615	274184.2	628662.25	-0.00011968085
0	0.64478934	0.64478946	-3.328983e-10	0.05798278	0.05798278	0	173171.98	173172.03	-8.5459185e-05	628737.06	273968.38	-0.00020279255	273968.06	628737	-0.0002493351
0	0.6446875	0.6446878	-1.9022758e-10	0.05784131	0.05784131	0	173144.66	173144.7	-4.9744896e-05	628812	273750.94	-0.00014793883	273750.6	628811.8	-0.000113031914
0	0.64458615	0.6445863	-1.6486391e-10	0.057699848	0.057699848	0	173117.42	173117.45	-3.8265305e-05	628886.8	273534.12	-0.000101396276	273533.75	628886.7	-0.00010305851
0	0.64448327	0.6444834	-2.219322e-10	0.05755853	0.05755853	0	173089.8	173089.83	-5.6760204e-05	628961.9	273314.97	-0.00015957447	273314.66	628961.8	-0.00013630319
0	0.6443813	0.6443814	-1.3950023e-10	0.05741706	0.05741706	0	173062.39	173062.42	-3.0612246e-05	629037.2	273096.84	-0.00010804521	273096.5	629037.1	-9.308511e-05
0	0.6442793	0.64427954	-1.9022758e-10	0.057275645	0.057275645	0	173035.02	173035.05	-4.846939e-05	629112.06	272879.34	-0.00015292554	272879	629111.94	-9.6409574e-05
0	0.64417595	0.64417607	-1.7120483e-10	0.05713419	0.05713419	0	173007.25	173007.28	-5.4209184e-05	629186.75	272659.8	-9.142287e-05	272659.53	629186.75	-0.00017287234
0	0.6440726	0.6440728	-3.2021644e-10	0.056992844	0.056992844	0	172979.5	172979.55	-8.290816e-05	629262.56	272439.4	-0.00027260638	272439.03	629262.5	-0.0001662234
0	0.64397043	0.64397055	-2.853414e-10	0.056851387	0.056851387	0	172952.05	172952.1	-8.163265e-05	629337.6	272221.3	-0.00017952127	272220.94	629337.56	-0.00020279255
0	0.6438671	0.64386714	-1.4901161e-10	0.056709927	0.05670993	0	172924.27	172924.33	-3.6989797e-05	629412.7	272001.5	-0.000101396276	272001.2	629412.56	-0.00010970745
0	0.64376277	0.64376295	-1.8388667e-10	0.056568585	0.056568585	0	172896.3	172896.33	-4.4642857e-05	629488	271780.25	-0.00010970745	271779.9	629487.8	-0.00015292554
0	0.6436599	0.64366	-2.124208e-10	0.056427047	0.056427047	0	172868.64	172868.69	-5.8673468e-05	629563.1	271560.94	-0.00020611702	271560.6	629563.06	-0.00010305851
0	0.6435557	0.64355594	-3.614324e-10	0.05628571	0.05628571	0	172840.69	172840.73	-0.00010522959	629638.44	271339.9	-0.00015791223	271339.56	629638.4	-0.00040890957
0	0.6434505	0.6434506	-2.5046631e-10	0.05614424	0.05614425	0	172812.4	172812.45	-7.142857e-05	629713.94	271117.1	-0.00010472075	271116.78	629713.75	-0.00024268618
0	0.6433468	0.64334697	-1.2681839e-10	0.056002792	0.0560028	0	172784.58	172784.61	-3.3163265e-05	629789.06	270896.8	-5.1529256e-05	270896.5	629788.94	-0.00012965426
0	0.64324254	0.6432427	-3.963075e-10	0.05586147	0.05586147	0	172756.55	172756.61	-0.00010459184	629863.94	270675.9	-0.0002692819	270675.56	629863.94	-0.0003025266
0	0.64313626	0.6431365	-2.7265953e-10	0.055719994	0.055719994	0	172728.03	172728.08	-7.653061e-05	629940.06	270451.1	-0.0002094415	270450.75	629939.94	-0.00021276595
0	0.6430317	0.6430319	-3.392392e-10	0.055578664	0.055578664	0	172699.97	172700	-9.0561225e-05	630015.1	270229.62	-0.00017952127	270229.3	630015.06	-0.00027593086
0	0.6429258	0.642926	-3.6777334e-10	0.055437125	0.055437125	0	172671.5	172671.53	-9.502551e-05	630091.1	270005.3	-0.0002642952	270005	630091.06	-0.0002393617
0	0.64282155	0.64282167	-3.8996656e-10	0.05529578	0.05529578	0	172643.5	172643.53	-0.00010841837	630166	269784.47	-0.00020279255	269784.16	630165.9	-0.00031914894
0	0.64271426	0.6427144	-1.5218207e-10	0.055154327	0.055154327	0	172614.67	172614.73	-3.9540817e-05	630242.2	269558.03	-7.646277e-05	269557.72	630242.1	-0.00011635639
0	0.6426088	0.64260906	-1.2681839e-10	0.05501287	0.05501287	0	172586.4	172586.42	-3.4438777e-05	630317.75	269335.03	-0.00011635639	269334.72	630317.7	-6.3164895e-05
0	0.6425027	0.64250296	-1.7437529e-10	0.054871522	0.054871522	0	172557.89	172557.92	-4.0816325e-05	630393.25	269110.97	-9.807181e-05	269110.62	630393.2	-0.00011968085
0	0.6423951	0.64239514	-4.2167117e-10	0.05473008	0.05473008	0	172528.95	172529	-0.00011160714	630469	268884.38	-0.00048371012	268884.06	630468.9	-5.9840426e-05
0	0.6422901	0.64229023	-2.3144357e-10	0.05458865	0.05458865	0	172500.78	172500.81	-5.6760204e-05	630543.9	268662.7	-0.00010804521	268662.38	630543.7	-0.00020611702
0	0.6421824	0.6421826	-2.7900046e-10	0.054447185	0.054447185	0	172471.86	172471.89	-7.206632e-05	630619.9	268435.78	-0.00024268618	268435.44	630619.75	-0.00014960107
0	0.64207447	0.6420746	-3.075346e-10	0.054305855	0.054305855	0	172442.86	172442.9	-8.864796e-05	630695.7	268208.88	-0.00019946808	268208.56	630695.56	-0.00024268618
0	0.641967	0.6419672	-1.3632977e-10	0.054164406	0.054164406	0	172413.98	172414.03	-3.4438777e-05	630771.56	267982.5	-4.3218086e-05	267982.12	630771.5	-0.00014295212
0	0.6418589	0.6418591	5.1678495e-10	0.054022938	0.054022938	0	172384.95	172384.98	0.00014668367	630847.3	267755.53	9.6409574e-05	267755.2	630847.2	0.0006615691
0	0.641751	0.6417512	-2.3144357e-10	0.0538816	0.0538816	0	172355.98	172356.02	-6.632653e-05	630923.4	267528.47	-0.00017952127	267528.12	630923.25	-0.00015292554
0	0.6416438	0.64164394	-2.9802322e-10	0.05374007	0.05374007	0	172327.19	172327.22	-8.354592e-05	630999.06	267302.62	-0.00025265958	267302.28	630998.9	-0.00022273936
0	0.6415352	0.6415354	-1.2206271e-10	0.05359871	0.05359871	0	172298.02	172298.08	-3.9540817e-05	631074.9	267074.84	-2.493351e-05	267074.5	631074.75	-0.00018284575
0	0.64142555	0.6414258	-2.9168232e-10	0.053457264	0.053457264	0	172268.6	172268.64	-7.653061e-05	631150.9	266845.25	-0.00022606383	266844.94	631150.8	-0.00020279255
0	0.64131755	0.6413177	-3.075346e-10	0.053315822	0.053315822	0	172239.56	172239.62	-8.4821426e-05	631226.7	266618.22	-0.00022606383	266617.9	631226.5	-0.00021609043
0	0.64120823	0.64120847	-3.6777334e-10	0.053174462	0.053174462	0	172210.22	172210.23	-8.928571e-05	631303	266388.88	-0.0003224734	266388.56	631302.9	-0.00013630319
0	0.64109814	0.6410983	-2.8851185e-10	0.053033024	0.053033024	0	172180.64	172180.69	-8.09949e-05	631378.56	266159.1	-0.00024601063	266158.75	631378.56	-0.00019946808
0	0.6409884	0.6409886	-2.4729588e-10	0.052891586	0.052891582	0	172151.19	172151.22	-6.0586735e-05	631454.9	265929.22	-0.00020611702	265928.9	631454.75	-0.00013962766
0	0.64087963	0.64087987	-2.3461402e-10	0.052750126	0.052750126	0	172121.97	172122.02	-6.377551e-05	631530.56	265701.4	-0.000101396276	265701.03	631530.44	-0.00022273936
0	0.6407694	0.64076954	-3.4240966e-10	0.052608777	0.052608773	0	172092.36	172092.39	-9.0561225e-05	631606.9	265470.6	-0.0002393617	265470.3	631606.7	-0.00023271277
0	0.64065874	0.640659	-1.3950023e-10	0.05246734	0.05246734	0	172062.64	172062.67	-3.8265305e-05	631683.2	265239.4	-0.0001412899	265239.06	631683.1	-7.31383e-05
0	0.6405474	0.64054745	-4.248416e-10	0.052325882	0.052325882	0	172032.7	172032.73	-0.00011989796	631759.3	265007.34	-0.00026097076	265006.97	631759.1	-0.00033577127
0	0.64043796	0.6404381	-2.6631863e-10	0.05218454	0.05218454	0	172003.33	172003.38	-7.9081634e-05	631835	264778.47	-0.00018949468	264778.16	631834.8	-0.0002393617
0	0.6403261	0.6403262	-3.550915e-10	0.052043002	0.052043002	0	171973.3	171973.33	-9.311224e-05	631911.5	264545.34	-0.0001662234	264544.97	631911.4	-0.00033909574
0	0.64021385	0.64021397	1.5218207e-10	0.051901635	0.051901635	0	171943.16	171943.19	3.6989797e-05	631987.94	264311.8	6.150266e-05	264311.5	631987.8	0.00015957447
0	0.64010364	0.64010376	-2.2510264e-10	0.0517602	0.0517602	0	171913.56	171913.58	-6.377551e-05	632063.3	264082.12	-0.000113031914	264081.78	632063.2	-0.0001662234
0	0.63999146	0.63999164	-2.2827311e-10	0.051618766	0.051618766	0	171883.42	171883.45	-5.739796e-05	632140	263848.44	-0.00013962766	263848.12	632139.75	-0.0001761968
0	0.63987833	0.6398784	-3.328983e-10	0.05147742	0.05147742	0	171853.03	171853.06	-8.609694e-05	632216.75	263613.12	-0.0003125	263612.8	632216.6	-0.00011968085
0	0.63976675	0.63976693	-1.9022758e-10	0.05133596	0.05133596	0	171823.08	171823.12	-4.7193877e-05	632293.06	263380.62	-5.6515957e-05	263380.3	632293.06	-0.00018284575
0	0.63965327	0.63965344	-3.1070507e-10	0.051194515	0.051194515	0	171792.61	171792.62	-7.9081634e-05	632369.6	263145.3	-0.00022606383	263145	632369.44	-0.00017287234
0	0.6395409	0.6395409	-7.894445e-10	0.05105309	0.05105309	0	171762.4	171762.44	-0.00021173469	632445.6	262911.94	-0.00077293883	262911.6	632445.4	-0.00032912235
0	0.6394276	0.6394278	-1.5218207e-10	0.050911706	0.050911706	0	171732	171732.02	-3.9540817e-05	632522	262676.97	-4.986702e-05	262676.66	632521.94	-0.00015625
0	0.6393151	0.6393153	-2.377845e-10	0.05077028	0.05077028	0	171701.78	171701.83	-7.015306e-05	632598.25	262443.25	-0.00018617022	262442.94	632598.1	-0.00016954787
0	0.63920057	0.6392007	-2.4729588e-10	0.050628845	0.050628845	0	171671.02	171671.05	-6.632653e-05	632675.1	262206	-0.00019780586	262205.72	632674.94	-0.00013297872
0	0.6390876	0.6390878	-6.3409195e-11	0.050487474	0.050487474	0	171640.69	171640.7	-2.0408163e-05	632751.56	261971.47	8.4773936e-05	261971.17	632751.4	-0.00017952127
0	0.6389733	0.6389734	-1.9973898e-10	0.050345946	0.050345946	0	171609.98	171610.02	-5.2933672e-05	632828.25	261734.78	-0.00012300532	261734.45	632828.06	-0.00014960107
0	0.63885903	0.6388592	-3.550915e-10	0.05020459	0.05020459	0	171579.28	171579.31	-9.693878e-05	632904.9	261498.14	-0.00025598405	261497.81	632904.7	-0.00022606383
0	0.6387446	0.6387448	-2.4412541e-10	0.050063137	0.050063133	0	171548.56	171548.58	-5.994898e-05	632981.2	261261.61	-0.0001412899	261261.3	632981	-0.00017287234
0	0.6386295	0.6386296	-4.121598e-11	0.04992171	0.04992171	0	171517.64	171517.67	-1.5306123e-05	633057.94	261023.7	-5.1529256e-05	261023.38	633057.8	1.662234e-05
0	0.6385147	0.6385148	-1.4901161e-10	0.049780354	0.049780354	0	171486.8	171486.83	-3.9540817e-05	633134.3	260786.58	-0.0001462766	260786.22	633134.2	-4.986702e-05
0	0.6383982	0.63839835	-2.6314817e-10	0.0496389	0.0496389	0	171455.53	171455.58	-7.3979594e-05	633211.1	260546.78	-0.00018284575	260546.42	633211	-0.00018949468
0	0.6382829	0.638283	-5.10444e-10	0.049497455	0.049497455	0	171424.55	171424.6	-0.00013775511	633287.9	260308.5	-0.00033577127	260308.16	633287.75	-0.00039893616
0	0.6381667	0.63816684	-1.1889224e-10	0.04935602	0.04935602	0	171393.34	171393.38	-2.1683674e-05	633364.5	260069.23	-9.973404e-05	260068.88	633364.3	-2.9920213e-05
0	0.6380509	0.63805103	-1.2681839e-10	0.04921464	0.04921464	0	171362.23	171362.28	-3.5714285e-05	633441.5	259830.17	-4.155585e-05	259829.84	633441.4	-0.00012965426
0	0.63793445	0.63793457	-1.7754576e-10	0.04907321	0.04907321	0	171330.98	171330.98	-4.846939e-05	633518.44	259590.16	-0.00017121011	259589.86	633518.25	-8.976064e-05
0	0.6378172	0.6378173	-1.2998885e-10	0.04893179	0.04893179	0	171299.48	171299.52	-3.8265305e-05	633594.9	259349.52	-9.973404e-05	259349.19	633594.7	-7.31383e-05
0	0.6377009	0.63770103	-3.4875058e-10	0.048790418	0.048790418	0	171268.25	171268.28	-0.000100765305	633671.9	259109.75	-0.00024767287	259109.36	633671.8	-0.00026595744
0	0.63758314	0.63758326	-8.243196e-11	0.048648883	0.048648883	0	171236.61	171236.64	-1.0204081e-05	633748.56	258868.12	3.656915e-05	258867.8	633748.4	-5.319149e-05
0	0.6374663	0.6374663	-2.2827311e-10	0.04850753	0.04850753	0	171205.22	171205.25	-5.994898e-05	633825.7	258627.38	-0.00019115691	258627.05	633825.6	-0.00014295212
0	0.63734907	0.63734907	-1.9339805e-10	0.048366077	0.048366077	0	171173.73	171173.77	-5.1020408e-05	633901.8	258387.14	-0.0002393617	258386.8	633901.6	-5.9840426e-05
0	0.63723	0.63723016	-2.219322e-10	0.048224654	0.048224654	0	171141.75	171141.8	-5.3571428e-05	633979.1	258143.12	-0.00017952127	258142.8	633979.06	-0.00012632979
0	0.6371121	0.6371122	-1.3632977e-10	0.04808329	0.04808329	0	171110.11	171110.12	-3.4438777e-05	634056.5	257900.69	1.3297872e-05	257900.36	634056.3	-0.00019614362
0	0.636993	0.63699305	-3.1070507e-10	0.04794185	0.04794185	0	171078.11	171078.14	-8.67347e-05	634133.25	257657.22	-0.00015625	257656.89	634133.06	-0.0002825798
0	0.636875	0.6368751	-1.7754576e-10	0.047800384	0.047800384	0	171046.44	171046.47	-4.7193877e-05	634210.2	257415.11	-0.00020279255	257414.78	634210.1	-1.9946809e-05
0	0.63675594	0.6367561	-3.4875058e-10	0.047658965	0.047658965	0	171014.48	171014.52	-8.67347e-05	634287.2	257171.58	-0.00028922872	257171.25	634287	-0.00019281915
0	0.6366364	0.6366365	-2.3144357e-10	0.04751758	0.04751758	0	170982.34	170982.38	-5.994898e-05	634364.56	256926.78	-0.00012466755	256926.42	634364.3	-0.00019281915
0	0.63651603	0.63651603	-3.2972783e-10	0.047376156	0.047376156	0	170950	170950.05	-8.09949e-05	634441.56	256681.12	-0.00021442819	256680.8	634441.44	-0.00020279255
0	0.63639706	0.6363972	1.0145471e-10	0.047234733	0.047234733	0	170918.06	170918.1	2.5510204e-05	634518.6	256437.6	5.1529256e-05	256437.27	634518.44	7.646277e-05
0	0.63627625	0.63627625	-2.599777e-10	0.047093347	0.047093347	0	170885.6	170885.62	-6.377551e-05	634595.44	256191.52	-0.00012965426	256191.19	634595.4	-0.00022273936
0	0.63615626	0.6361564	-1.7120483e-10	0.046951823	0.046951823	0	170853.4	170853.42	-4.591837e-05	634673	255946.12	-0.0001462766	255945.8	634672.9	-9.308511e-05
0	0.636035	0.63603514	-1.7120483e-10	0.046810456	0.046810463	0	170820.84	170820.88	-4.846939e-05	634749.8	255699.53	-7.646277e-05	255699.23	634749.7	-0.0001761968
0	0.6359147	0.63591474	-4.3752346e-10	0.04666902	0.04666902	0	170788.52	170788.55	-0.00012755101	634827.3	255453.58	-0.00033909574	255453.25	634827.1	-0.00027593086
0	0.6357938	0.6357939	1.2681839e-10	0.046527658	0.046527658	0	170756.05	170756.08	3.6989797e-05	634904.3	255207.36	7.9787234e-05	255207.05	634904.1	0.00011968085
0	0.6356712	0.6356712	-2.9168232e-10	0.046386234	0.046386234	0	170723.11	170723.14	-7.780612e-05	634981.6	254958.25	-0.00023105054	254957.92	634981.5	-0.00015625
0	0.63555026	0.6355504	-1.8388667e-10	0.046244793	0.0462448	0	170690.64	170690.67	-4.9744896e-05	635058.75	254711.94	-0.00014295212	254711.61	635058.56	-0.00013630319
0	0.63542825	0.6354283	5.3897817e-11	0.04610342	0.04610342	0	170657.88	170657.89	8.928571e-06	635136.1	254463.78	0.00014793883	254463.48	635135.94	-9.973404e-05
0	0.6353049	0.6353051	-3.709438e-10	0.045961898	0.045961898	0	170624.75	170624.8	-9.757653e-05	635213.5	254213.78	-0.00026761967	254213.45	635213.4	-0.00025265958
0	0.6351832	0.63518333	-2.5046631e-10	0.045820512	0.045820512	0	170592.06	170592.1	-6.951531e-05	635290.5	253966.27	-0.000284242	253965.94	635290.4	-6.648936e-05
0	0.6350597	0.63505983	-1.5535254e-10	0.0456791	0.0456791	0	170558.89	170558.94	-4.145408e-05	635367.9	253716.1	-7.480053e-05	253715.77	635367.7	-0.00015292554
0	0.63493717	0.6349372	-1.5852299e-10	0.045537677	0.045537677	0	170525.98	170526.02	-4.7193877e-05	635445.25	253467.08	-6.3164895e-05	253466.75	635445.1	-0.0001662234
0	0.63481313	0.6348133	-1.3315932e-10	0.045396283	0.045396283	0	170492.67	170492.7	-3.252551e-05	635522.5	253216.25	-1.9946809e-05	253215.92	635522.3	-0.00014295212
0	0.63469017	0.6346903	-1.8705713e-10	0.04525487	0.04525487	0	170459.64	170459.67	-4.4642857e-05	635600.25	252966.34	-0.0001462766	252966.02	635600	-0.00010305851
0	0.63456607	0.63456625	-3.392392e-10	0.045113392	0.045113385	0	170426.33	170426.34	-8.928571e-05	635677.6	252715.28	-0.00013962766	252714.92	635677.44	-0.00030585108