//mumax 3.10 [windows_amd64 go1.11.6(gc) CUDA-11.0]
//GPU info: NVIDIA GeForce RTX 3090(24575MB), CUDA Driver 12.1, cc=8.6, using cc=80 PTX
//(c) Arne Vansteenkiste, Dynamat LAB, Ghent University, Belgium
//This is free software without any warranty. See license.txt
//********************************************************************//
//  If you use mumax in any work or publication,                      //
//  we kindly ask you to cite the references in references.bib        //
//********************************************************************//
//output directory: r1;p0.8;a4.4e-07;l2.3000000000000002e-07;s4.out/
randSeed(4)
ThermSeed(4)
resolution := 2e-09
zResolution := 5e-09
a := 4.4e-07
gridSize := 440
gridDepth := 5
SetCellsize(resolution, resolution, zResolution)
SetGridsize(gridSize, gridSize, gridDepth)
SetPBC(16, 16, 0)
//resizing...
Msat = 700e3
Aex = 13e-12
alpha = 0.2
Bmax := 0.1
Bstep := Bmax / 500.0
TableAdd(B_ext)
TableAdd(m_full)
islandWidth := 8e-08
islandLength := 2.3000000000000002e-07
ellipseConstant := 9.200000000000002e-08
hIsland := Universe().Inverse()
vIsland := Universe().Inverse()
vIslands := Universe().Inverse()
hIslands := Universe().Inverse()
hIsland = rect(islandLength-2*ellipseConstant, islandWidth)
hIsland = hIsland.add(ellipse(ellipseConstant*2, islandWidth).transl(islandLength/2-ellipseConstant, 0, 0))
hIsland = hIsland.add(ellipse(ellipseConstant*2, islandWidth).transl(-islandLength/2+ellipseConstant, 0, 0))
hIsland = hIsland.add(rect(2.4923962692161557e-09, 1.7753141110761815e-09).transl(-8.140531622465147e-08, -3.0905732140640966e-08, 0))
hIsland = hIsland.add(rect(5.482162380773613e-09, 1.0379808585534317e-10).transl(5.3764322935797534e-08, -3.7697323152127253e-08, 0))
hIsland = hIsland.add(rect(6.372112963327598e-09, 6.867865001915163e-10).transl(-6.551064913486068e-08, -3.547369085584768e-08, 0))
hIsland = hIsland.sub(rect(5.575359981092359e-09, -1.7988191759562817e-09).transl(6.034264062443864e-08, -3.655673062653374e-08, 0))
hIsland = hIsland.sub(rect(4.801791819110008e-09, -4.879278509699931e-10).transl(6.387801162644974e-09, -4e-08, 0))
hIsland = hIsland.add(rect(4.055428060455673e-09, 3.1732833729308303e-09).transl(1.50517970930494e-08, -4e-08, 0))
hIsland = hIsland.add(rect(2.8933432828855947e-09, 1.4213650617024677e-09).transl(1.4820627039461645e-08, -4e-08, 0))
hIsland = hIsland.sub(rect(4.973873382824817e-09, -1.08742446521048e-09).transl(3.325354617466532e-08, -3.975079457503577e-08, 0))
hIsland = hIsland.add(rect(3.942137011215226e-09, 3.381766292796981e-09).transl(-5.151466087383243e-08, -3.803021909376191e-08, 0))
hIsland = hIsland.add(rect(2.850114291995681e-09, 2.4749066555405077e-09).transl(-1.1459762311947343e-07, -3.736992282068575e-09, 0))
hIsland = hIsland.add(rect(6.429020030087886e-09, 3.800925548064124e-09).transl(1.1097183920473416e-08, -4e-08, 0))
hIsland = hIsland.sub(rect(9.887161393359026e-09, -3.9505533231170916e-10).transl(9.05477447370449e-08, -2.715669778493045e-08, 0))
hIsland = hIsland.sub(rect(3.4951966129510037e-09, -6.198380882706026e-11).transl(1.0160303709581149e-07, -2.078589458885691e-08, 0))
hIsland = hIsland.sub(rect(8.989321233341781e-09, -1.495661037120345e-09).transl(-4.328572324875499e-08, -3.901550618084102e-08, 0))
hIsland = hIsland.add(rect(5.135117951765721e-09, 2.504303799366367e-10).transl(1.0506435187978908e-07, -1.808111397352662e-08, 0))
hIsland = hIsland.sub(rect(2.6219618114502386e-09, -4.797399157740233e-09).transl(-7.722610362894508e-09, -4e-08, 0))
hIsland = hIsland.add(rect(4.557866678889029e-09, 3.2510129371600456e-09).transl(1.0721995211989184e-07, -1.6098701147123947e-08, 0))
hIsland = hIsland.add(rect(6.084633934013095e-09, 1.3701926632175716e-09).transl(-7.153164600196082e-10, -4e-08, 0))
hIsland = hIsland.sub(rect(9.078372732140214e-09, -1.505596715185002e-09).transl(-7.430102611007292e-08, -3.320385770301009e-08, 0))
hIsland = hIsland.sub(rect(9.685930786156061e-09, -1.0920979072923458e-09).transl(-6.225100401997376e-08, -3.617683590674866e-08, 0))
hIsland = hIsland.sub(rect(6.980931563597629e-09, -1.442219417773196e-09).transl(-5.793312226564622e-09, -4e-08, 0))
hIsland = hIsland.sub(rect(5.183425550664983e-09, -4.5260952707186643e-10).transl(3.6412824847483297e-09, -4e-08, 0))
hIsland = hIsland.sub(rect(5.829051236276493e-09, -1.7915130871332981e-09).transl(-3.706145225106573e-08, -3.9530026300494274e-08, 0))
hIsland = hIsland.sub(rect(4.169081863096555e-09, -1.1660423219309878e-09).transl(6.684587248527958e-08, -3.516512349470489e-08, 0))
hIsland = hIsland.add(rect(9.120024118968975e-09, 1.0326602707771672e-09).transl(8.673092772184292e-08, -2.8847977954822013e-08, 0))
hIsland = hIsland.add(rect(8.595303338854372e-09, 1.2112916911790371e-09).transl(-6.036146894941575e-08, -3.655309378174933e-08, 0))
hIsland = hIsland.sub(rect(6.287795793994882e-09, -1.3202650168337447e-09).transl(-7.786068602245329e-08, -3.211011633001341e-08, 0))
hIsland = hIsland.add(rect(6.37755807627804e-09, 1.8468580112635796e-09).transl(-1.670792765886408e-08, -4e-08, 0))
hIsland = hIsland.sub(rect(3.846329421649629e-09, -2.3044916196663666e-09).transl(7.619478778072763e-09, -4e-08, 0))
hIsland = hIsland.sub(rect(2.935331487708019e-09, -6.354659054299787e-11).transl(1.8623260353262698e-08, -4e-08, 0))
hIsland = hIsland.add(rect(4.754424727228122e-09, 1.894724212897898e-09).transl(-6.958446646414543e-08, -3.4493054242466074e-08, 0))
hIsland = hIsland.sub(rect(3.992014643909638e-09, -4.026129876226755e-10).transl(-6.813260323369327e-08, -3.485603154188346e-08, 0))
hIsland = hIsland.sub(rect(2.765434093223749e-09, -1.0481074285887923e-10).transl(3.79972410627785e-08, -3.946495360978495e-08, 0))
hIsland = hIsland.sub(rect(2.8004708284659118e-09, -1.409581982957566e-10).transl(-5.673815315965676e-08, -3.7213269330289764e-08, 0))
hIsland = hIsland.add(rect(9.57503928662318e-09, 1.6497177822799195e-10).transl(3.5052999674656435e-08, -3.9655237293096395e-08, 0))
hIsland = hIsland.sub(rect(6.105695701519347e-09, -1.0089473711888965e-09).transl(7.258173356454872e-08, -3.369397386208583e-08, 0))
hIsland = hIsland.add(rect(8.263173676826519e-09, 1.1856814786195265e-09).transl(1.131150401168929e-07, -8.055567234228546e-09, 0))
hIsland = hIsland.sub(rect(8.744668472017757e-09, -8.140800708945235e-10).transl(6.610128186690831e-08, -3.5338705442469e-08, 0))
hIsland = hIsland.sub(rect(7.0163427535601885e-09, -3.450805074562435e-10).transl(-3.643102912935194e-08, -3.9571445894182815e-08, 0))
hIsland = hIsland.sub(rect(2.677112601754584e-09, -2.8827481442719684e-10).transl(-7.49820169272924e-08, -3.300303565166518e-08, 0))
hIsland = hIsland.add(rect(7.668639131735285e-09, 2.0643720634920026e-09).transl(9.728746367806798e-09, -4e-08, 0))
hIsland = hIsland.add(rect(4.658515597549095e-09, 2.651225332712373e-09).transl(-4.5801084467021106e-08, -3.875206085654114e-08, 0))
hIsland = hIsland.add(rect(5.960427996738884e-09, 1.1995599441245273e-09).transl(1.2525561440983443e-08, -4e-08, 0))
hIsland = hIsland.sub(rect(8.398387715747866e-09, -1.4136256337882508e-09).transl(1.4450186016431844e-08, -4e-08, 0))
hIsland = hIsland.add(rect(9.704279827970145e-09, 4.831073691151598e-10).transl(-1.0290076337559976e-07, -1.9828508681216087e-08, 0))
hIsland = hIsland.sub(rect(4.706200245545919e-09, -1.2143488454613161e-09).transl(-7.280632673829315e-08, -3.3631298482033024e-08, 0))
hIsland = hIsland.add(rect(2.8509279243849833e-09, 9.795112393947013e-10).transl(4.502038441504072e-08, -3.8837314385758795e-08, 0))
hIsland = hIsland.add(rect(7.155337473416422e-09, 7.532465808123127e-10).transl(-3.673557124602236e-08, -3.9551679677612934e-08, 0))
hIsland = hIsland.add(rect(6.659850886993646e-09, 1.972333590844817e-09).transl(-3.28959196901524e-08, -3.976792500096091e-08, 0))
hIsland = hIsland.add(rect(9.375716202157877e-09, 2.83198334780962e-09).transl(-8.206445466651561e-08, -3.066801994032134e-08, 0))
hIsland = hIsland.add(rect(9.629774404918087e-09, 6.353516869446629e-10).transl(-4.5522950924681484e-08, -3.8782795577743314e-08, 0))
hIsland = hIsland.add(rect(4.590377019804381e-09, 1.6847196223091544e-09).transl(7.715285806194857e-09, -4e-08, 0))
hIsland = hIsland.add(rect(4.095796599331531e-09, 5.61162925892307e-10).transl(-1.8837591418875115e-08, -4e-08, 0))
hIsland = hIsland.add(rect(3.836168825874388e-09, 2.1637830269909906e-10).transl(-6.09282666713156e-08, -3.644258136756352e-08, 0))
hIsland = hIsland.sub(rect(3.467801317968632e-09, -1.5983124487997959e-09).transl(1.0099556844435826e-07, -2.1214055791993843e-08, 0))
hIsland = hIsland.add(rect(8.610975854623316e-09, 4.627530418889336e-11).transl(-2.2971930179624705e-08, -4e-08, 0))
hIsland = hIsland.add(rect(6.9048411100620874e-09, 2.732561345750022e-09).transl(3.389652627698494e-08, -3.971844603700545e-08, 0))
hIsland = hIsland.sub(rect(4.168976391710477e-09, -2.21584832686857e-09).transl(-7.742767532272867e-08, -3.224911352356073e-08, 0))
hIsland = hIsland.add(rect(5.312828769158328e-09, 4.500871335496819e-10).transl(-9.424167535246066e-08, -2.530951573170946e-08, 0))
hIsland = hIsland.sub(rect(4.433350950287955e-09, -7.622440146365283e-10).transl(-1.056217159613602e-07, -1.759474515340568e-08, 0))
hIsland = hIsland.sub(rect(5.503830977886738e-09, -2.614249664188342e-09).transl(6.011962823962007e-08, -3.659964051842529e-08, 0))
hIsland = hIsland.sub(rect(5.568379355366691e-09, -4.655948762297497e-10).transl(4.3743702276778235e-08, -3.896995793100267e-08, 0))
hIsland = hIsland.add(rect(8.738315403887793e-09, 4.0883405651736134e-10).transl(7.035268952501485e-08, -3.4294738265965897e-08, 0))
hIsland = hIsland.sub(rect(6.2769564976786515e-09, -9.195286905807491e-10).transl(7.98986302094748e-08, -3.143254511336119e-08, 0))
hIsland = hIsland.sub(rect(8.022039864831498e-09, -3.3450562468853594e-09).transl(5.4890236582454576e-08, -3.7520033239258487e-08, 0))
hIsland = hIsland.sub(rect(6.780817879762753e-09, -8.717434812375587e-10).transl(2.7337759066934293e-08, -3.99555136511835e-08, 0))
hIsland = hIsland.add(rect(4.133951312886014e-09, 2.772580720894166e-09).transl(-5.726455984331179e-08, -3.712223700039936e-08, 0))
hIsland = hIsland.sub(rect(5.652039929330153e-09, -2.8519385295642624e-10).transl(9.808007073403529e-08, -2.3117121775878702e-08, 0))
hIsland = hIsland.add(rect(3.0975996248356856e-09, 1.2953012945159413e-09).transl(7.639530079351187e-08, -3.257372575090191e-08, 0))
hIsland = hIsland.sub(rect(8.814116504844173e-09, -9.79950556516279e-10).transl(7.99030898788573e-08, -3.143101896477767e-08, 0))
hIsland = hIsland.sub(rect(7.863098731836775e-09, -2.9354518114613367e-10).transl(-5.701586993986549e-08, -3.716544676597586e-08, 0))
hIsland = hIsland.add(rect(7.0376086960138465e-09, 1.041209866375502e-09).transl(-1.499403278194665e-08, -4e-08, 0))
hIsland = hIsland.add(rect(2.0834558963689e-09, 1.6858184755282819e-10).transl(8.496677147229624e-08, -2.9565598569474404e-08, 0))
hIsland = hIsland.sub(rect(5.21180470834088e-09, -1.6417697219469573e-09).transl(7.061210709427343e-09, -4e-08, 0))
hIsland = hIsland.sub(rect(3.986220731510235e-09, -2.14838340527318e-09).transl(-1.0990849310638811e-07, -1.3122325641492759e-08, 0))
hIsland = hIsland.sub(rect(2.619375455531184e-09, -1.881006934775773e-09).transl(9.258080761962129e-08, -2.616839177285361e-08, 0))
hIsland = hIsland.sub(rect(3.551975086638507e-09, -6.118251354100073e-11).transl(-9.049125507249307e-08, -2.718323488367343e-08, 0))
hIsland = hIsland.add(rect(4.412474697546769e-09, 1.8150556018262082e-10).transl(-4.7125241341882304e-08, -3.86002064947314e-08, 0))
hIsland = hIsland.sub(rect(5.352104721622913e-09, -2.309087382130972e-09).transl(1.1315720417445222e-07, -7.965883485606865e-09, 0))
hIsland = hIsland.sub(rect(8.347110837324958e-09, -1.281978044523495e-09).transl(2.1547987847147437e-08, -4e-08, 0))
hIsland = hIsland.add(rect(7.48548079322098e-09, 5.780267950037623e-10).transl(5.2283839552927086e-08, -3.7919566503663894e-08, 0))
hIsland = hIsland.sub(rect(4.669469204047619e-09, -2.549761015518886e-09).transl(5.0154402868900283e-08, -3.821795618327518e-08, 0))
hIsland = hIsland.add(rect(9.718748125571624e-09, 2.415226022533226e-09).transl(-4.78702435217735e-08, -3.8510723194674986e-08, 0))
hIsland = hIsland.add(rect(3.2567930336264218e-09, 4.239175185439512e-09).transl(5.363943441966955e-08, -3.771654568264633e-08, 0))
hIsland = hIsland.add(rect(5.661468196710175e-09, 2.646725635135654e-10).transl(2.0581123199418436e-08, -4e-08, 0))
hIsland = hIsland.add(rect(4.250339425684108e-09, 3.2056702092683964e-09).transl(-7.828339598643815e-08, -3.197277353152285e-08, 0))
hIsland = hIsland.add(rect(7.413750780014722e-09, 4.355377217742269e-09).transl(-2.048122102210104e-08, -4e-08, 0))
hIsland = hIsland.add(rect(4.552075577492973e-09, 1.493064051153262e-09).transl(-9.060568286667936e-08, -2.7129430179735116e-08, 0))
hIsland = hIsland.add(rect(3.542074710689838e-09, 3.5981151089410263e-09).transl(2.3793965313457605e-08, -3.99985104143271e-08, 0))
hIsland = hIsland.sub(rect(2.420746113280236e-09, -7.129656232317322e-11).transl(5.266991529065728e-08, -3.7862791104413946e-08, 0))
hIsland = hIsland.add(rect(9.309856163621661e-09, 2.235823292118181e-09).transl(-2.4038367242086213e-08, -3.999745217185942e-08, 0))
hIsland = hIsland.sub(rect(4.731994909453957e-09, -3.339563472990841e-09).transl(2.726220476514701e-08, -3.995705069087352e-08, 0))
hIsland = hIsland.sub(rect(8.986716223852458e-09, -3.0596623822488866e-09).transl(-4.924244694442105e-08, -3.833819749564863e-08, 0))
hIsland = hIsland.sub(rect(6.197670795377468e-09, -4.1103452102330767e-10).transl(-7.647996469029594e-08, -3.254745953610199e-08, 0))
hIsland = hIsland.add(rect(6.427908728545766e-09, 3.844192757631812e-09).transl(6.39852409299642e-08, -3.5811441777403074e-08, 0))
hIsland = hIsland.sub(rect(9.354202350721566e-09, -1.3542896345351717e-09).transl(-8.549933355856892e-08, -2.9352924854133185e-08, 0))
hIsland = hIsland.sub(rect(4.127625053392898e-09, -1.7643327667264114e-09).transl(-1.5272076079421902e-08, -4e-08, 0))
hIsland = hIsland.add(rect(7.0603206247700794e-09, 2.269876398731303e-09).transl(2.062860600744152e-08, -4e-08, 0))
hIsland = hIsland.add(rect(2.215576427467199e-09, 2.74284499444486e-09).transl(-1.9128426945513016e-08, -4e-08, 0))
hIsland = hIsland.add(rect(5.3307950461064e-09, 1.2010591438794186e-09).transl(1.2436362526828694e-08, -4e-08, 0))
hIsland = hIsland.add(rect(8.876947740914011e-09, 6.243248499892388e-10).transl(6.892796376508081e-08, -3.465907995225426e-08, 0))
hIsland = hIsland.sub(rect(2.0459797445517546e-09, -4.795048976258875e-11).transl(-3.4307450952647376e-09, -4e-08, 0))
hIsland = hIsland.add(rect(2.4395659207135232e-09, 2.7013274914829004e-10).transl(-1.0384096273287107e-07, -1.9094525311362595e-08, 0))
hIsland = hIsland.add(rect(9.04611234359447e-09, 2.383815020787284e-13).transl(-3.951484413149932e-08, -3.9350251962962524e-08, 0))
hIsland = hIsland.add(rect(5.7177742252843184e-09, 8.78713793504016e-10).transl(-9.222196353025765e-08, -2.634768175098822e-08, 0))
hIsland = hIsland.add(rect(9.257402831047803e-09, 1.4440817831283436e-09).transl(-3.4359652627960825e-08, -3.969390989121865e-08, 0))
hIsland = hIsland.add(rect(9.066797355091346e-09, 4.865513293041184e-10).transl(-5.4901502252266586e-08, -3.751822280376882e-08, 0))
hIsland = hIsland.sub(rect(5.765931070544752e-09, -2.756470586375873e-10).transl(1.1300032793855569e-07, -8.294450862708256e-09, 0))
hIsland = hIsland.sub(rect(6.001069656367332e-09, -1.7895191675659952e-10).transl(2.230059723587708e-08, -4e-08, 0))
hIsland = hIsland.sub(rect(4.5664692965092995e-09, -3.1708310003404065e-09).transl(4.5140747022292374e-08, -3.882437632264203e-08, 0))
hIsland = hIsland.sub(rect(7.301961003077302e-09, -1.7426203522321482e-09).transl(-2.8465335794946292e-08, -3.9929356580676106e-08, 0))
hIsland = hIsland.add(rect(8.592908884287857e-09, 8.772258606449894e-10).transl(2.2921703299658187e-08, -4e-08, 0))
hIsland = hIsland.add(rect(5.704921073982297e-09, 8.002362418125847e-10).transl(-4.514179088684334e-08, -3.8824263787768724e-08, 0))
hIsland = hIsland.add(rect(3.551478757972459e-09, 2.439369629157911e-09).transl(-4.693853942884332e-08, -3.862217334776322e-08, 0))
hIsland = hIsland.sub(rect(3.994207871981999e-09, -1.0839997667536678e-10).transl(-5.889286010088696e-08, -3.6830225612567446e-08, 0))
hIsland = hIsland.sub(rect(6.0717158165986596e-09, -3.7975508748796036e-10).transl(2.9787882726216877e-08, -3.98909777219068e-08, 0))
hIsland = hIsland.add(rect(3.796592684745262e-09, 2.9079788324897447e-09).transl(4.8081202763177834e-08, -3.8484851481638504e-08, 0))
hIsland = hIsland.sub(rect(6.158517778566474e-09, -1.989002742753159e-09).transl(1.122553768783147e-07, -9.69748177619443e-09, 0))
hIsland = hIsland.sub(rect(6.338070415361275e-09, -8.550843494922834e-10).transl(2.4615788884764757e-08, -3.9993830399152755e-08, 0))
hIsland = hIsland.sub(rect(9.117086165556667e-09, -3.9585569361541565e-09).transl(-9.288816398244259e-09, -4e-08, 0))
hIsland = hIsland.add(rect(5.060193275172888e-09, 8.054918630621858e-10).transl(-3.1895749680931863e-08, -3.981257041757166e-08, 0))
hIsland = hIsland.add(rect(5.1769905709687515e-09, 8.670482387080268e-10).transl(-6.887887085005256e-08, -3.4671368884512406e-08, 0))
hIsland = hIsland.sub(rect(6.679230552246175e-09, -1.5385294223884377e-09).transl(-4.199479015833349e-08, -3.9138158529611645e-08, 0))
hIsland = hIsland.add(rect(8.007821054366589e-09, 2.916603086142984e-09).transl(4.327391055258866e-09, -4e-08, 0))
hIsland = hIsland.sub(rect(4.9110841397972884e-09, -1.0657483266819953e-09).transl(-2.09447047233134e-08, -4e-08, 0))
hIsland = hIsland.add(rect(2.2338020681258633e-09, 6.701096622638194e-10).transl(9.258166800343841e-08, -2.616795930356979e-08, 0))
hIsland = hIsland.sub(rect(5.824590443867554e-09, -1.921961979045488e-09).transl(9.458068653654465e-08, -2.5128047558334867e-08, 0))
hIsland = hIsland.add(rect(7.889680460687143e-09, 2.350904617623656e-09).transl(1.1328997233482493e-07, -7.676356253221955e-09, 0))
hIsland = hIsland.add(rect(2.2372127452950802e-09, 1.33421187503322e-09).transl(-2.1411286915842963e-08, -4e-08, 0))
hIsland = hIsland.add(rect(4.189874074386624e-09, 2.1987503278523092e-10).transl(6.56959141494653e-08, -3.5431605392212597e-08, 0))
hIsland = hIsland.add(rect(6.186870287406683e-09, 6.855489480554663e-11).transl(9.807215947809348e-08, -2.3121978150471244e-08, 0))
hIsland = hIsland.add(rect(4.692328139702703e-09, 2.1951302332061703e-09).transl(-8.809279380682912e-08, -2.826731764038708e-08, 0))
hIsland = hIsland.add(rect(3.997408154777171e-09, 4.74732185800377e-09).transl(-1.1177338116917787e-07, -1.0500578756142989e-08, 0))
hIsland = hIsland.add(rect(3.4162094948455675e-09, 1.954029064134904e-09).transl(1.018938185909732e-07, -2.0576591156387622e-08, 0))
hIsland = hIsland.sub(rect(6.873861632665835e-09, -7.877351036008563e-10).transl(7.015588378572066e-08, -3.434596204184545e-08, 0))
hIsland = hIsland.add(rect(6.661115883232079e-09, 1.1806010306298894e-09).transl(1.805440392479964e-08, -4e-08, 0))
hIsland = hIsland.add(rect(4.692250061371631e-09, 2.552868175728971e-09).transl(-6.350834342577918e-09, -4e-08, 0))
hIsland = hIsland.add(rect(2.191461300705928e-09, 1.8320940184390853e-09).transl(1.029359776232328e-07, -1.9801660589021383e-08, 0))
hIsland = hIsland.add(rect(8.172282143385194e-09, 2.3932828688676857e-09).transl(-1.0866690927318858e-07, -1.4584222873375169e-08, 0))
hIsland = hIsland.add(rect(8.710984422185596e-09, 1.2537281535213862e-10).transl(-5.137223669966784e-08, -3.805035014869363e-08, 0))
hIsland = hIsland.sub(rect(2.1204554131202055e-09, -2.630539203046722e-10).transl(8.50026227389267e-08, -2.955138670582336e-08, 0))
hIsland = hIsland.sub(rect(3.945165590049016e-09, -3.716369783127938e-10).transl(-8.803615236178408e-08, -2.8291952424990434e-08, 0))
hIsland = hIsland.add(rect(6.5033571596232316e-09, 1.176764730661522e-09).transl(-4.268282897650283e-08, -3.907383888673168e-08, 0))
hIsland = hIsland.sub(rect(9.616453581235145e-09, -2.5058000780375365e-09).transl(-4.605098829124208e-08, -3.8724102728116704e-08, 0))
hIsland = hIsland.add(rect(2.791093152825778e-09, 2.7213812693047837e-09).transl(-7.434526938922505e-08, -3.3190927630956407e-08, 0))
hIsland = hIsland.add(rect(4.887242307906893e-09, 4.3260656846292305e-10).transl(-4.507941981869649e-08, -3.883097788092632e-08, 0))
hIsland = hIsland.add(rect(7.340679535335513e-09, 7.819347684611017e-10).transl(4.333943789211258e-08, -3.90102193635056e-08, 0))
hIsland = hIsland.sub(rect(3.6446141647076555e-09, -1.7764938208445448e-09).transl(-2.9607708038755207e-08, -3.98966959855362e-08, 0))
hIsland = hIsland.sub(rect(3.6398059792651476e-09, -1.5619113379767142e-09).transl(4.4898979185911834e-08, -3.885028874852857e-08, 0))
hIsland = hIsland.add(rect(5.420538139926426e-09, 2.6609810168757666e-09).transl(4.622094707245591e-08, -3.8704902697560646e-08, 0))
hIsland = hIsland.add(rect(7.253585172948077e-09, 5.449057567996444e-10).transl(9.580110941083432e-08, -2.4456274273344062e-08, 0))
hIsland = hIsland.sub(rect(6.15444606746275e-09, -1.7055252135035568e-10).transl(-2.6014919453872595e-08, -3.997851564021869e-08, 0))
hIsland = hIsland.sub(rect(9.339147731646244e-09, -8.286711695309152e-10).transl(2.3108924652167023e-08, -3.999997196459356e-08, 0))
hIsland = hIsland.sub(rect(2.3116953271621822e-09, -6.508193377308902e-10).transl(3.817588096024364e-08, -3.9452042234834334e-08, 0))
hIsland = hIsland.add(rect(9.635927568524047e-09, 1.4289707255018804e-09).transl(5.0504904534533387e-08, -3.8170546119089364e-08, 0))
hIsland = hIsland.add(rect(4.526781246515579e-09, 1.6849144101438214e-09).transl(-9.261244665476834e-08, -2.6152480285664438e-08, 0))
hIsland = hIsland.sub(rect(3.487024749131699e-09, -3.8665525711852116e-10).transl(-8.751642365912722e-08, -2.851600909513464e-08, 0))
hIsland = hIsland.add(rect(6.403785633012432e-09, 7.85663895065041e-10).transl(-5.965485982625412e-08, -3.668808198011338e-08, 0))
hIsland = hIsland.add(rect(6.764092907943425e-09, 8.710452513330696e-10).transl(7.870372510362537e-08, -3.183456471066521e-08, 0))
hIsland = hIsland.sub(rect(9.898923403616556e-09, -3.926115312164271e-11).transl(7.575292944973679e-08, -3.27709829301206e-08, 0))
hIsland = hIsland.sub(rect(3.4607719620040012e-09, -1.843434886466356e-09).transl(-6.79055117578638e-08, -3.4911432671066094e-08, 0))
hIsland = hIsland.sub(rect(4.534900804289499e-09, -2.1353667655866e-09).transl(-3.1027330187177695e-08, -3.9847445312505115e-08, 0))
hIsland = hIsland.sub(rect(4.0176810872716815e-09, -1.1316936683352947e-09).transl(-3.608243617527319e-08, -3.959351559376492e-08, 0))
hIsland = hIsland.sub(rect(6.1777825070125396e-09, -1.7908778601595713e-09).transl(-6.793949892932042e-08, -3.49031645452189e-08, 0))
hIsland = hIsland.add(rect(9.021398508205967e-09, 9.174924631062001e-10).transl(-6.231017271905076e-08, -3.616468925254517e-08, 0))
hIsland = hIsland.sub(rect(7.015376667761858e-09, -5.222606130736121e-10).transl(7.390653357950281e-08, -3.3318435092271545e-08, 0))
hIsland = hIsland.add(rect(6.877564212960609e-09, 9.943150171678606e-10).transl(-1.1417315820279872e-07, -5.350745462037574e-09, 0))
hIsland = hIsland.sub(rect(5.673807985675853e-09, -1.7931059325063224e-09).transl(2.6088976609535902e-09, -4e-08, 0))
hIsland = hIsland.add(rect(8.805489119226227e-09, 4.451343251038289e-09).transl(1.6950264674243422e-08, -4e-08, 0))
hIsland = hIsland.sub(rect(6.2777449586133645e-09, -1.6972308980429726e-09).transl(1.1393523576783349e-07, -6.068027957944892e-09, 0))
hIsland = hIsland.sub(rect(6.743405808337517e-09, -2.7716506981619334e-09).transl(3.4581928684184234e-09, -4e-08, 0))
hIsland = hIsland.add(rect(8.337936376672883e-09, 3.0791311695274312e-09).transl(5.306722724885914e-08, -3.780349611652886e-08, 0))
hIsland = hIsland.add(rect(6.869799117627165e-09, 1.496008636245727e-10).transl(8.531328205526478e-08, -2.9427604543496815e-08, 0))
hIsland = hIsland.sub(rect(6.747603278764111e-09, -2.367709467315387e-10).transl(3.9545998139547085e-08, -3.9347777913893415e-08, 0))
hIsland = hIsland.sub(rect(5.476867928247261e-09, -5.614706571827119e-10).transl(-1.4092004506005193e-08, -4e-08, 0))
hIsland = hIsland.add(rect(9.572123856696206e-09, 1.1956577193401513e-10).transl(6.156038852210468e-08, -3.631696327811194e-08, 0))
hIsland = hIsland.sub(rect(8.238389561794904e-09, -2.402955383794665e-10).transl(-7.339853469393243e-08, -3.346410683490503e-08, 0))
hIsland = hIsland.add(rect(7.437092539591801e-09, 3.916039812401809e-12).transl(1.4277116637992985e-08, -4e-08, 0))
hIsland = hIsland.add(rect(4.780223853857179e-09, 1.6130488484410968e-09).transl(-1.0389393947057123e-07, -1.905206554913103e-08, 0))
hIsland = hIsland.add(rect(6.241335655789676e-09, 2.636714829345067e-09).transl(-4.172933115536339e-08, -3.916233519607799e-08, 0))
hIsland = hIsland.sub(rect(5.1417476558393554e-09, -4.678218217945118e-10).transl(-1.7493383515990087e-08, -4e-08, 0))
hIsland = hIsland.add(rect(6.318191836403811e-09, 4.168837097899174e-10).transl(-7.407759841298479e-08, -3.3268907640157774e-08, 0))
hIsland = hIsland.add(rect(7.51955529116116e-09, 2.847330031516682e-09).transl(1.393423634053155e-08, -4e-08, 0))
hIsland = hIsland.sub(rect(2.912365155725137e-09, -1.3232107064831193e-09).transl(-5.067372427981641e-08, -3.8147472730260815e-08, 0))
hIsland = hIsland.add(rect(3.909851552436984e-09, 2.9875533487297206e-09).transl(1.1886989167719372e-08, -4e-08, 0))
hIsland = hIsland.add(rect(9.62320004568382e-09, 2.029129472788035e-09).transl(-1.8290628838023152e-08, -4e-08, 0))
hIsland = hIsland.add(rect(6.55547560897082e-09, 1.9170791494306524e-11).transl(-4.806228810377944e-11, -4e-08, 0))
hIsland = hIsland.add(rect(4.601415092490997e-09, 1.1403715210355677e-09).transl(-5.4069660592334314e-08, -3.764995522802688e-08, 0))
hIsland = hIsland.sub(rect(4.17324971530471e-09, -1.4709210352575194e-09).transl(-8.929971488073939e-08, -2.7732000605896047e-08, 0))
hIsland = hIsland.sub(rect(9.856217782564554e-09, -2.9892351045207422e-09).transl(5.595575615335803e-08, -3.7345568936096784e-08, 0))
hIsland = hIsland.sub(rect(6.2088650251616674e-09, -6.951364165671525e-10).transl(-7.80218423956625e-08, -3.2057948651118433e-08, 0))
hIsland = hIsland.sub(rect(5.668956552316142e-09, -2.553529043753058e-09).transl(5.013817105322213e-09, -4e-08, 0))
hIsland = hIsland.sub(rect(3.685775253693036e-09, -1.6820843687367849e-09).transl(-9.318544820743075e-08, -2.5861353683672395e-08, 0))
hIsland = hIsland.add(rect(3.3880364303976533e-09, 1.8091196603345137e-09).transl(-1.545692502812644e-08, -4e-08, 0))
hIsland = hIsland.sub(rect(5.613331685029652e-09, -3.105047321656469e-09).transl(2.813330190622836e-08, -3.99376858937061e-08, 0))
hIsland = hIsland.sub(rect(8.650183757830856e-09, -2.9333123367920957e-09).transl(8.507257602173606e-09, -4e-08, 0))
hIsland = hIsland.sub(rect(2.3344604426847174e-09, -8.120468324375631e-10).transl(6.582822456619252e-08, -3.5401406475396624e-08, 0))
hIsland = hIsland.sub(rect(3.780266207864882e-09, -1.4188202899550445e-09).transl(-7.465478289167474e-09, -4e-08, 0))
hIsland = hIsland.sub(rect(6.309686513984156e-09, -9.591093020443335e-10).transl(-2.7629657001302925e-08, -3.994932109989117e-08, 0))
hIsland = hIsland.add(rect(3.0212874248945978e-09, 2.390967320939792e-09).transl(1.001384402933589e-08, -4e-08, 0))
hIsland = hIsland.add(rect(9.694216842571901e-09, 3.42827407345761e-09).transl(-7.079076172247028e-08, 3.4179673963990665e-08, 0))
hIsland = hIsland.sub(rect(5.8912043842868145e-09, -1.5368154167790306e-09).transl(-3.936351147809116e-08, 3.9362201294609395e-08, 0))
hIsland = hIsland.add(rect(3.0293211779963232e-09, 7.690635590300555e-10).transl(-8.456827153822511e-08, 2.972256066421078e-08, 0))
hIsland = hIsland.sub(rect(4.274260403566852e-09, -4.9191985200973635e-09).transl(5.094963268381738e-08, 3.810942863165651e-08, 0))
hIsland = hIsland.add(rect(6.075569867400997e-09, 2.1932727041228115e-09).transl(3.520278056684424e-08, 3.964657699448314e-08, 0))
hIsland = hIsland.add(rect(4.26024977942514e-09, 7.491843035998236e-10).transl(-1.0938976875308362e-07, 1.3754585795102906e-08, 0))
hIsland = hIsland.add(rect(5.20664663369882e-09, 1.9751587723676677e-09).transl(-3.75416082206249e-08, 3.949717424353985e-08, 0))
hIsland = hIsland.sub(rect(7.695823597650737e-09, -1.3146011889352758e-09).transl(1.655521548867609e-08, 4e-08, 0))
hIsland = hIsland.add(rect(9.25839998424058e-09, 2.418163400612372e-09).transl(-7.004667219064953e-08, 3.4374262352038895e-08, 0))
hIsland = hIsland.add(rect(8.68167789265586e-09, 1.0548721072502231e-10).transl(-7.048281919747826e-08, 3.426070922788456e-08, 0))
hIsland = hIsland.add(rect(7.290657779800107e-09, 1.9481519327921546e-09).transl(-8.510739729819486e-08, 2.9509766416547625e-08, 0))
hIsland = hIsland.sub(rect(5.413115666203333e-09, -4.441504879915104e-09).transl(-3.4654458532888155e-08, 3.9677751086076166e-08, 0))
hIsland = hIsland.add(rect(7.761875364745814e-09, 1.4638442176074212e-09).transl(1.1467033620603357e-07, 3.383197106326973e-09, 0))
hIsland = hIsland.add(rect(2.032316406927631e-09, 7.238480613338797e-10).transl(-1.0053006530406041e-07, 2.153420356645707e-08, 0))
hIsland = hIsland.sub(rect(3.793725036564431e-09, -1.2747180937605695e-09).transl(-8.141788751389458e-08, 3.0901240388456453e-08, 0))
hIsland = hIsland.add(rect(2.3836171590822376e-09, 4.0610514224393764e-10).transl(-5.102535238076573e-08, 3.8098915196077975e-08, 0))
hIsland = hIsland.add(rect(3.589469713508144e-09, 7.812287209514008e-10).transl(8.46155613223483e-08, 2.9704030274407198e-08, 0))
hIsland = hIsland.add(rect(8.80702258859182e-09, 6.034936607636263e-09).transl(-2.3596761002754474e-08, 3.99991584890348e-08, 0))
hIsland = hIsland.sub(rect(7.163812635796293e-09, -1.372099076774638e-09).transl(4.969733309113512e-08, 3.82787813947901e-08, 0))
hIsland = hIsland.sub(rect(4.6854571978920655e-09, -6.389231096781853e-10).transl(3.471056951145141e-08, 3.967462789520955e-08, 0))
hIsland = hIsland.add(rect(5.065879955341748e-09, 4.72984912146424e-10).transl(5.703760120532075e-08, 3.716168551555236e-08, 0))
hIsland = hIsland.add(rect(3.9537946810639425e-09, 2.4945130351762506e-09).transl(-5.1606413638133746e-08, 3.801719116351112e-08, 0))
hIsland = hIsland.sub(rect(3.874463755979883e-09, -2.0788438220867553e-09).transl(-4.813698587884593e-08, 3.847797086829233e-08, 0))
hIsland = hIsland.sub(rect(3.1523628877999493e-09, -2.2154398744559033e-09).transl(-7.748571923501718e-08, 3.223057994278973e-08, 0))
hIsland = hIsland.add(rect(2.3456601309119868e-09, 3.1789587011268445e-09).transl(1.0595028916906495e-07, 1.7300029648938757e-08, 0))
hIsland = hIsland.add(rect(3.2883309541639464e-09, 8.775255849891695e-10).transl(-9.498293527888679e-08, 2.4909883055609842e-08, 0))
hIsland = hIsland.add(rect(5.319209045402958e-09, 1.090284794266599e-09).transl(-3.709602747735902e-08, 3.952769842993362e-08, 0))
hIsland = hIsland.add(rect(9.905172096341686e-09, 4.161579573020927e-09).transl(-1.0280172676851867e-07, 1.990375901252038e-08, 0))
hIsland = hIsland.sub(rect(6.073856129567817e-09, -2.7273042107170934e-11).transl(-7.545556259306953e-08, 3.2861092630847086e-08, 0))
hIsland = hIsland.sub(rect(2.9754505633411654e-09, -1.3858805026437688e-09).transl(-3.0854960470109276e-09, 4e-08, 0))
hIsland = hIsland.sub(rect(4.265548722248738e-09, -2.388710631290684e-09).transl(-2.349375336826768e-08, 3.999942392688039e-08, 0))
hIsland = hIsland.add(rect(5.068251096701303e-09, 2.1013027562787953e-09).transl(6.224146936983474e-08, 3.617879116799477e-08, 0))
hIsland = hIsland.sub(rect(6.593210168716793e-09, -2.0089491179823492e-10).transl(8.634541293666815e-08, 2.900804483904955e-08, 0))
hIsland = hIsland.add(rect(7.692005620367973e-09, 4.4676474303535036e-10).transl(-6.713051692303204e-08, 3.509775028229385e-08, 0))
hIsland = hIsland.sub(rect(6.429169022483343e-09, -4.409094823099358e-09).transl(-3.2075371778708567e-08, 3.9804906146389986e-08, 0))
hIsland = hIsland.add(rect(6.1929418768531754e-09, 3.983286328745342e-10).transl(1.837782343694237e-08, 4e-08, 0))
hIsland = hIsland.sub(rect(7.273334987121859e-09, -1.5310433084767001e-09).transl(-2.7826461660460446e-09, 4e-08, 0))
hIsland = hIsland.sub(rect(5.2675621646917904e-09, -8.026060114529195e-10).transl(8.10028636289747e-08, 3.1048677590530515e-08, 0))
hIsland = hIsland.add(rect(6.820801118847983e-09, 7.674895071199509e-10).transl(-1.084228790307198e-08, 4e-08, 0))
hIsland = hIsland.add(rect(5.564570198985741e-09, 2.5792836760063927e-09).transl(3.403032951108123e-08, 3.971146366103252e-08, 0))
hIsland = hIsland.add(rect(8.062810885401055e-09, 6.66394069032919e-10).transl(7.701633030772052e-08, 3.2379589536342335e-08, 0))
hIsland = hIsland.sub(rect(5.9311124046635745e-09, -1.5815703347245903e-09).transl(1.639151543865255e-08, 4e-08, 0))
hIsland = hIsland.add(rect(3.804857342207537e-09, 3.824267861054444e-09).transl(2.0121319020085604e-08, 4e-08, 0))
hIsland = hIsland.sub(rect(3.96352234718559e-09, -9.3097413421134e-10).transl(5.380306974713741e-08, 3.769134144689902e-08, 0))
hIsland = hIsland.sub(rect(9.769618314756689e-09, -3.143157089147374e-09).transl(-2.2711878784075535e-08, 4e-08, 0))
hIsland = hIsland.sub(rect(3.6598480378873727e-09, -1.7105139068935734e-09).transl(5.687279195175795e-08, 3.719014129732648e-08, 0))
hIsland = hIsland.sub(rect(9.139370042354467e-09, -1.980975766572859e-09).transl(-1.8216636825547454e-08, 4e-08, 0))
hIsland = hIsland.sub(rect(9.766411566975575e-09, -1.327836100075949e-11).transl(-9.8349146172765e-08, 2.2951029362055605e-08, 0))
hIsland = hIsland.add(rect(5.357024410643121e-09, 5.0005293052396e-10).transl(-1.101893297335589e-07, 1.2765300176049118e-08, 0))
hIsland = hIsland.add(rect(8.836354473404192e-09, 6.317509832088119e-10).transl(1.4911356926237954e-08, 4e-08, 0))
hIsland = hIsland.sub(rect(8.751292357781619e-09, -4.113147968321265e-09).transl(-6.17339997258877e-08, 3.6282021943401934e-08, 0))
hIsland = hIsland.sub(rect(7.871205746504522e-09, -6.48339956169669e-10).transl(5.933914760117325e-08, 3.674740414071874e-08, 0))
hIsland = hIsland.sub(rect(7.23969760139445e-09, -1.844146412520828e-09).transl(9.815863447667951e-08, 2.3068811602109594e-08, 0))
hIsland = hIsland.sub(rect(3.9771482447787565e-09, -2.5466967273307184e-09).transl(-1.1276352818652528e-07, 8.7661167532356e-09, 0))
hIsland = hIsland.sub(rect(2.481326375663758e-09, -1.5248904333848278e-09).transl(1.0038816764973463e-07, 2.163047414379887e-08, 0))
hIsland = hIsland.add(rect(8.859459167860878e-09, 5.929804752206334e-10).transl(-1.119297038420852e-07, 1.0247483665111801e-08, 0))
hIsland = hIsland.sub(rect(3.603727126811096e-09, -3.564055837003045e-09).transl(1.1348804998664739e-07, 7.222010172308229e-09, 0))
hIsland = hIsland.sub(rect(7.1376445924957356e-09, -1.4383788078059572e-09).transl(1.1362786823624476e-07, 6.882616921001713e-09, 0))
hIsland = hIsland.sub(rect(6.6427697169431964e-09, -6.023008471395462e-11).transl(-9.819102428530303e-08, 2.30488503456165e-08, 0))
hIsland = hIsland.add(rect(7.690716977239065e-09, 3.1703140707821156e-10).transl(3.944312228839816e-08, 3.935592933474297e-08, 0))
hIsland = hIsland.add(rect(6.809213414733895e-09, 2.20280473982414e-10).transl(-1.3177404842758855e-08, 4e-08, 0))
hIsland = hIsland.add(rect(4.686499490459519e-09, 1.831327365414819e-09).transl(-9.760709475446604e-08, 2.340480220018729e-08, 0))
hIsland = hIsland.add(rect(9.34456891338297e-09, 1.338625243240966e-09).transl(7.468975844448979e-08, 3.308969557293776e-08, 0))
hIsland = hIsland.add(rect(7.40213417507302e-09, 3.094284298422874e-09).transl(8.166316925495232e-08, 3.081327560162142e-08, 0))
hIsland = hIsland.add(rect(4.709765500310625e-09, 4.455950048682614e-09).transl(6.746172149705266e-08, 3.501864294606832e-08, 0))
hIsland = hIsland.add(rect(3.1253348876696933e-09, 3.679162109270319e-09).transl(9.977678697216915e-09, 4e-08, 0))
hIsland = hIsland.add(rect(3.3122709861254755e-09, 4.556553747209974e-09).transl(5.8704040292287995e-09, 4e-08, 0))
hIsland = hIsland.add(rect(4.648743895532157e-09, 1.3070979746711296e-10).transl(9.20966699734447e-08, 2.640977864445882e-08, 0))
hIsland = hIsland.add(rect(8.089316561057168e-09, 2.2870807369145534e-09).transl(-2.7331317464566304e-08, 3.9955645751435485e-08, 0))
hIsland = hIsland.add(rect(5.941297344794671e-09, 1.4391507280366013e-09).transl(7.294953315620362e-08, 3.3591125778873804e-08, 0))
hIsland = hIsland.sub(rect(2.7746886079726236e-09, -1.1800431571907818e-10).transl(-1.0053582902593722e-07, 2.1530280330891507e-08, 0))
hIsland = hIsland.add(rect(7.642979101265778e-09, 2.070559279327583e-09).transl(-1.528444342271948e-08, 4e-08, 0))
hIsland = hIsland.sub(rect(5.172021485014639e-09, -1.7769498743812674e-09).transl(-4.2923765666676196e-08, 3.905074872187488e-08, 0))
hIsland = hIsland.add(rect(3.4701469536185176e-09, 2.2463450994299116e-09).transl(1.1199144189005086e-07, 1.0145661912309376e-08, 0))
hIsland = hIsland.add(rect(7.634140661957658e-09, 2.001331146644014e-09).transl(1.3738701821785107e-09, 4e-08, 0))
hIsland = hIsland.sub(rect(9.133992806158272e-09, -3.572468608023697e-09).transl(-6.807703785717067e-08, 3.4869621213289105e-08, 0))
hIsland = hIsland.sub(rect(8.80100353381902e-09, -3.004090191035102e-09).transl(2.8063570666497464e-08, 3.99393686323357e-08, 0))
hIsland = hIsland.add(rect(5.59228581802745e-09, 8.531788016895678e-10).transl(2.1549040815314518e-10, 4e-08, 0))
hIsland = hIsland.sub(rect(3.5195835588682594e-09, -4.412838422876373e-10).transl(6.604985887909256e-08, 3.53505524658241e-08, 0))
hIsland = hIsland.add(rect(6.246615963578522e-09, 8.956095635238228e-11).transl(1.7060413194505272e-08, 4e-08, 0))
hIsland = hIsland.sub(rect(3.664003078943109e-09, -1.8311156855900216e-09).transl(-5.722177459737339e-08, 3.7129696926297025e-08, 0))
hIsland = hIsland.add(rect(4.151619522909787e-09, 4.5214447859479406e-10).transl(1.6337609476066485e-08, 4e-08, 0))
hIsland = hIsland.add(rect(8.293041420491329e-09, 2.4547747013615803e-09).transl(3.1972477582664806e-08, 3.9809315450064644e-08, 0))
hIsland = hIsland.sub(rect(4.833876293390443e-09, -2.485552707454034e-09).transl(1.135414944794996e-07, 7.094258407162018e-09, 0))
hIsland = hIsland.sub(rect(2.3042445846324865e-09, -1.8628873816990326e-09).transl(-8.90552430025053e-08, 2.7842063592364712e-08, 0))
hIsland = hIsland.sub(rect(9.578685062525072e-09, -2.9004955849297365e-09).transl(3.5439182329345894e-08, 3.9632686723152116e-08, 0))
hIsland = hIsland.add(rect(7.464584832110176e-09, 3.669575302675776e-10).transl(-7.032086383408474e-08, 3.4303041375894014e-08, 0))
hIsland = hIsland.add(rect(9.90535940518408e-09, 1.6163709740981776e-11).transl(7.40378271664158e-08, 3.328044379444499e-08, 0))
hIsland = hIsland.sub(rect(3.882135896156903e-09, -2.799820714098245e-09).transl(1.0669058253312784e-07, 1.6612373797510905e-08, 0))
hIsland = hIsland.sub(rect(7.662100885926296e-09, -1.0780506387074688e-09).transl(-5.5631702969405e-08, 3.739932159073689e-08, 0))
hIsland = hIsland.sub(rect(8.168388613774986e-09, -2.1531725293344065e-10).transl(-2.1057145878970084e-08, 4e-08, 0))
hIsland = hIsland.sub(rect(2.3297987021403517e-09, -1.7013406334206366e-09).transl(3.2697356609947405e-08, 3.977717063041269e-08, 0))
hIsland = hIsland.add(rect(9.885683629390101e-09, 1.1080093263229815e-09).transl(-9.922984771693842e-08, 2.2394513560871307e-08, 0))
hIsland = hIsland.add(rect(8.945580770288935e-09, 2.2014509590521166e-09).transl(6.83957602790864e-08, 3.4791371039468916e-08, 0))
hIsland = hIsland.add(rect(4.724753929791718e-09, 9.677875989568461e-10).transl(-4.820511748635872e-08, 3.8469544707958144e-08, 0))
hIsland = hIsland.add(rect(7.366503296647154e-09, 5.365548637985689e-10).transl(9.762623119174258e-08, 2.3393266517494374e-08, 0))
hIsland = hIsland.add(rect(6.282446631075462e-09, 2.424945245122864e-10).transl(7.894781845717825e-08, 3.175354529685167e-08, 0))
hIsland = hIsland.add(rect(7.46938981712294e-09, 4.87128388796786e-10).transl(8.38018610313031e-08, 3.00193185912412e-08, 0))
hIsland = hIsland.add(rect(2.6057036541128174e-09, 2.3966396893415915e-10).transl(9.675144246174061e-08, 2.39119554488151e-08, 0))
hIsland = hIsland.sub(rect(6.760905513537715e-09, -9.705076837833363e-10).transl(3.964151945345134e-08, 3.934016218969626e-08, 0))
hIsland = hIsland.sub(rect(8.78017046354939e-09, -1.0090449133502105e-09).transl(-5.2677820242745083e-08, 3.786161995631349e-08, 0))
hIsland = hIsland.add(rect(6.87021623956335e-09, 4.3318020290564165e-09).transl(3.6529683863325e-08, 3.956509234227368e-08, 0))
hIsland = hIsland.sub(rect(7.501354412668803e-09, -3.6379460052462547e-09).transl(9.590603133848248e-08, 2.439711856019304e-08, 0))
hIsland = hIsland.sub(rect(7.40268256957238e-09, -5.057561519271463e-10).transl(-1.0921418664474007e-07, 1.3961288778087987e-08, 0))
hIsland = hIsland.add(rect(9.31381335439573e-09, 1.6414720208470565e-09).transl(8.54887872171924e-08, 2.9357169115455107e-08, 0))
hIsland = hIsland.add(rect(3.510794359061885e-09, 5.200914215284758e-09).transl(-5.062875575294522e-08, 3.815363395086671e-08, 0))
hIsland = hIsland.sub(rect(5.842425833185933e-09, -6.234175300754592e-10).transl(-3.382675532654302e-08, 3.9722052674034673e-08, 0))
hIsland = hIsland.sub(rect(2.7990384177684064e-09, -1.35198777324461e-09).transl(9.348763788097332e-08, 2.5705518983883025e-08, 0))
hIsland = hIsland.sub(rect(5.1102230178024354e-09, -3.8111296236786984e-10).transl(8.082675342496494e-08, 3.111071329503034e-08, 0))
hIsland = hIsland.sub(rect(3.879557140586757e-09, -1.874085570592655e-09).transl(2.266379687437255e-08, 4e-08, 0))
hIsland = hIsland.sub(rect(3.864110492461756e-09, -7.004944518033077e-10).transl(-8.436959796417715e-08, 2.980012955185318e-08, 0))
hIsland = hIsland.sub(rect(8.527126376397362e-09, -2.6043785211483964e-09).transl(-6.726799438770234e-08, 3.5065007608446446e-08, 0))
hIsland = hIsland.sub(rect(5.579595877570098e-09, -2.3372270162341223e-09).transl(3.322736798178987e-08, 3.9752069399985915e-08, 0))
hIsland = hIsland.sub(rect(9.471199461466435e-09, -3.850573192366293e-10).transl(-5.647035346060603e-08, 3.725895545593963e-08, 0))
hIsland = hIsland.sub(rect(3.4209499355066734e-09, -7.54305090550268e-10).transl(-8.406913308645339e-11, 4e-08, 0))
hIsland = hIsland.sub(rect(6.303385685502275e-09, -2.42261177402112e-10).transl(-1.2302972431245324e-08, 4e-08, 0))
hIsland = hIsland.add(rect(6.797085444474804e-09, 1.5389085448385305e-09).transl(-6.871197288039402e-08, 3.471301607393632e-08, 0))
hIsland = hIsland.sub(rect(7.31363986823238e-09, -1.2331418094618259e-09).transl(1.1474027845049139e-07, 3.003504878482426e-09, 0))
hIsland = hIsland.add(rect(6.582278740469568e-09, 1.4095695911948355e-09).transl(-3.040107293817789e-08, 3.987035729942833e-08, 0))
hIsland = hIsland.add(rect(4.747872550455511e-09, 3.5107227336801493e-09).transl(-1.137069634812551e-07, 6.682748379211915e-09, 0))
hIsland = hIsland.add(rect(5.9535973376335e-09, 1.4240855988210524e-09).transl(9.617871213415225e-08, 2.424230273796422e-08, 0))
hIsland = hIsland.add(rect(8.583467459295549e-09, 7.047651729735827e-10).transl(2.5121665526039205e-09, 4e-08, 0))
hIsland = hIsland.sub(rect(5.739404819958174e-09, -9.26145202847869e-10).transl(5.648479876542082e-08, 3.725650182822097e-08, 0))
hIsland = hIsland.sub(rect(8.817581392399589e-09, -1.3628448779478758e-10).transl(-3.796876131087842e-09, 4e-08, 0))
hIsland = hIsland.sub(rect(2.4130965422098305e-09, -3.8585245548136765e-09).transl(9.893206455116388e-08, 2.2584943932588425e-08, 0))
hIsland = hIsland.add(rect(9.680689762996366e-09, 4.601132432244654e-09).transl(-4.268124385329839e-08, 3.907398982190657e-08, 0))
hIsland = hIsland.add(rect(3.215956535563435e-09, 5.826183329616674e-10).transl(1.6178760386872086e-08, 4e-08, 0))
hIsland = hIsland.sub(rect(9.786835974192535e-09, -1.568147910477717e-09).transl(7.048271270949277e-08, 3.4260737126613853e-08, 0))
hIsland = hIsland.add(rect(2.818815919673334e-09, 9.162838884201347e-10).transl(5.978912704091184e-08, 3.666266839176426e-08, 0))
hIsland = hIsland.sub(rect(8.934703727089907e-09, -3.2528237040474095e-09).transl(4.0011486447233995e-08, 3.9310237459977826e-08, 0))
hIsland = hIsland.add(rect(8.783142669822052e-09, 3.938076185292781e-09).transl(-4.536788957668348e-08, 3.879975619134245e-08, 0))
hIsland = hIsland.add(rect(2.417436352382021e-09, 2.2043357337446776e-10).transl(-8.095354503621684e-09, 4e-08, 0))
hIsland = hIsland.add(rect(2.621475813844736e-09, 9.466814073949381e-10).transl(-4.653492240154159e-08, 3.8669036834985265e-08, 0))
hIsland = hIsland.sub(rect(4.680321972384368e-09, -3.938863055671915e-09).transl(-7.467129709851791e-08, 3.3095145693298025e-08, 0))
hIsland = hIsland.add(rect(6.776446442198701e-09, 4.3601712306497833e-10).transl(-4.097449552954785e-08, 3.922914484639749e-08, 0))
hIsland = hIsland.add(rect(5.759087852660654e-09, 4.002494097963758e-09).transl(-1.2342902045270479e-08, 4e-08, 0))
hIsland = hIsland.sub(rect(9.523792558909508e-09, -1.4294842883594248e-10).transl(5.6886592224102763e-08, 3.71877646896901e-08, 0))
hIsland = hIsland.sub(rect(8.419001498479347e-09, -5.054594157051662e-10).transl(4.344096844552587e-08, 3.9000186149061386e-08, 0))
hIsland = hIsland.add(rect(8.840113970243384e-09, 1.9782376543474455e-09).transl(-2.276476569205346e-08, 4e-08, 0))
hIsland = hIsland.sub(rect(2.318143163072284e-09, -1.8247924881033614e-10).transl(5.257907808697898e-08, 3.78762239928357e-08, 0))
hIsland = hIsland.sub(rect(8.115415306905018e-09, -1.4983384789037502e-09).transl(-6.450936173928503e-09, 4e-08, 0))
hIsland = hIsland.add(rect(6.211382992282707e-09, 1.5762532114368287e-09).transl(-9.909375791900483e-08, 2.248183474138865e-08, 0))
hIsland = hIsland.sub(rect(3.483016553708508e-09, -1.1207002584274506e-09).transl(-6.666628093412295e-08, 3.520734131798303e-08, 0))
hIsland = hIsland.add(rect(5.263638986611943e-09, 2.20523603685437e-09).transl(7.818641853557138e-08, 3.2004427887228334e-08, 0))
hIsland = hIsland.sub(rect(5.417853685869777e-09, -4.042799716671601e-10).transl(2.0153622266304394e-09, 4e-08, 0))
hIsland = hIsland.sub(rect(9.92497272860264e-09, -1.6413435657370902e-09).transl(-7.936253724514482e-08, 3.161459903992953e-08, 0))
hIsland = hIsland.add(rect(4.329769267180566e-09, 5.544248685449824e-10).transl(5.4452356127649014e-09, 4e-08, 0))
hIsland = hIsland.add(rect(2.353211609281312e-09, 8.293568605141218e-10).transl(-6.480826545126881e-08, 3.563114156912656e-08, 0))
hIsland = hIsland.sub(rect(3.4849349054727264e-09, -2.2030817020484585e-09).transl(2.987366975104814e-08, 3.9888200718392416e-08, 0))
hIsland = hIsland.add(rect(7.298443743332425e-09, 1.4314388648414735e-09).transl(-9.302343969279415e-08, 2.594423966060744e-08, 0))
hIsland = hIsland.sub(rect(2.5804440693247753e-09, -1.6001179624390294e-10).transl(-1.4837527307029864e-08, 4e-08, 0))
hIsland = hIsland.sub(rect(3.703109351252546e-09, -1.2433639884959777e-09).transl(-8.049901843301924e-08, 3.1225331675267986e-08, 0))
hIsland = hIsland.add(rect(3.876782528621842e-09, 1.603164154812681e-09).transl(9.032636600868975e-09, 4e-08, 0))
hIsland = hIsland.add(rect(7.323669635099578e-09, 2.1613886127788242e-11).transl(-7.657341135234476e-08, 3.2518395538631544e-08, 0))
hIsland = hIsland.sub(rect(5.131133937662097e-09, -2.3195588138130454e-09).transl(7.769211916855192e-08, 3.2164428980701887e-08, 0))
hIsland = hIsland.add(rect(3.802595339021968e-09, 3.5921020269314803e-10).transl(6.389651412291585e-08, 3.5830611609051083e-08, 0))
hIsland = hIsland.add(rect(7.802840967323733e-09, 1.9770697573521263e-10).transl(-6.85821456913833e-08, 3.47452734247819e-08, 0))
hIsland = hIsland.sub(rect(9.195997100275057e-09, -5.239134793734727e-09).transl(1.1490350634476998e-07, 1.8315405901146276e-09, 0))
hIsland = hIsland.sub(rect(2.756623478763925e-09, -2.003490363110736e-09).transl(9.679531573104186e-08, 2.3886354181781565e-08, 0))
hIsland = hIsland.add(rect(4.704921188739847e-09, 2.859089498456283e-09).transl(-4.2578898698665506e-08, 3.908370815381311e-08, 0))
hIsland = hIsland.add(rect(7.23523678434881e-09, 9.61227394976813e-10).transl(1.142983877722184e-07, 4.93060329045767e-09, 0))
hIsland = hIsland.sub(rect(9.786105424934254e-09, -2.227237432527659e-09).transl(3.141378242212588e-08, 3.983237150280476e-08, 0))
hIsland = hIsland.sub(rect(7.658981062556083e-09, -3.7123249635972766e-09).transl(-7.467780367173808e-08, 3.309322516080193e-08, 0))
hIsland = hIsland.add(rect(9.623417646976904e-09, 2.5551951001267904e-09).transl(9.203759058699573e-08, 2.6438969512327672e-08, 0))
hIsland = hIsland.sub(rect(9.877704737512165e-09, -1.5881158870250878e-10).transl(1.2083393902002063e-08, 4e-08, 0))
hIsland = hIsland.sub(rect(4.123120163190345e-09, -3.82396101981983e-10).transl(4.4335344811332186e-08, 3.890952877443147e-08, 0))
hIsland = hIsland.add(rect(8.608011348257151e-09, 1.8301128458367246e-09).transl(7.362489448181662e-08, 3.3399455692974154e-08, 0))
hIsland = hIsland.add(rect(7.539630722782445e-09, 1.177751063808677e-09).transl(1.0020202767320077e-08, 4e-08, 0))
hIsland = hIsland.sub(rect(4.702556950154893e-09, -4.459113475207644e-10).transl(1.0492823418905214e-07, 1.8197428320479377e-08, 0))
hIsland = hIsland.sub(rect(8.143573184708472e-09, -1.3985039594504044e-09).transl(2.018046848425635e-08, 4e-08, 0))
hIsland = hIsland.sub(rect(2.6302402919644825e-09, -1.5895254047765985e-09).transl(1.730465619308294e-08, 4e-08, 0))
hIsland = hIsland.sub(rect(2.7296759220785945e-09, -6.790812981724634e-10).transl(4.7654936889444435e-08, 3.853688505608123e-08, 0))
hIsland = hIsland.sub(rect(2.7996422385024777e-09, -1.2755232136424183e-09).transl(8.221479613214947e-08, 3.061316641950569e-08, 0))
hIsland = hIsland.sub(rect(9.688993334849906e-09, -1.2993560660244726e-09).transl(-5.619711464517222e-08, 3.730513726547707e-08, 0))
hIsland = hIsland.sub(rect(4.040254803942799e-09, -3.792533749076932e-10).transl(-3.7176613348608217e-08, 3.952225004205102e-08, 0))
hIsland = hIsland.add(rect(2.232704060865848e-09, 5.139044914984195e-10).transl(-2.7744092145686785e-08, 3.994678310073315e-08, 0))
hIsland = hIsland.add(rect(2.1847457395559475e-09, 3.5561585116221893e-10).transl(-3.979769454880413e-08, 3.9327613011093086e-08, 0))
hIsland = hIsland.sub(rect(6.180021217478313e-09, -4.7423623769996484e-09).transl(-6.10976120369654e-08, 3.6409174244995354e-08, 0))
hIsland = hIsland.sub(rect(9.996393141696746e-09, -2.60564752000957e-10).transl(-8.95709322564554e-08, 2.7608904410393318e-08, 0))
hIsland = hIsland.sub(rect(3.6875270777276887e-09, -5.825835952086289e-09).transl(4.8266780620857535e-08, 3.8461897274794377e-08, 0))
hIsland = hIsland.sub(rect(7.740489977250253e-09, -3.023688215520294e-09).transl(2.048697905224157e-08, 4e-08, 0))
hIsland = hIsland.sub(rect(2.458971795286406e-09, -9.868313945559997e-10).transl(-5.5008923663259605e-08, 3.750092325497271e-08, 0))
hIsland = hIsland.add(rect(9.616431187620896e-09, 2.449945209816851e-09).transl(-9.998072360846237e-08, 2.1903587472854915e-08, 0))
hIsland = hIsland.sub(rect(2.440902141403532e-09, -5.606114139561591e-10).transl(-6.16021591066776e-08, 3.630857385531614e-08, 0))
hIsland = hIsland.add(rect(8.4366621471874e-09, 1.1004695435862275e-09).transl(1.1770062168569025e-08, 4e-08, 0))
hIsland = hIsland.sub(rect(8.016840376164541e-09, -3.009601089010261e-09).transl(-9.557406533803488e-08, 2.4583506236635583e-08, 0))
hIsland = hIsland.sub(rect(6.499411008573255e-09, -8.393401402496162e-10).transl(1.3906697891065908e-08, 4e-08, 0))
hIsland = hIsland.sub(rect(6.190973467326118e-09, -1.8531828744156022e-09).transl(6.945166581088972e-08, 3.452689355724479e-08, 0))
hIsland = hIsland.add(rect(2.042179681958853e-09, 2.467236015580431e-09).transl(-5.4624124766724575e-08, 3.7562587299078275e-08, 0))
hIsland = hIsland.add(rect(7.90534413102056e-09, 2.519776495275834e-09).transl(4.009523899714061e-08, 3.930336859984164e-08, 0))
hIsland = hIsland.sub(rect(8.011825114877597e-09, -6.983391062255867e-10).transl(-6.908858795496247e-10, 4e-08, 0))
hIsland = hIsland.add(rect(6.005441820799118e-09, 1.3792111895131934e-09).transl(-2.393072636685332e-08, 3.9997953039377814e-08, 0))
hIsland = hIsland.sub(rect(4.9671957914566845e-09, -7.488574120739665e-10).transl(9.927096416101455e-08, 2.2368033606032777e-08, 0))
hIsland = hIsland.sub(rect(7.392137246470319e-09, -2.0908742220695033e-09).transl(9.229138830134409e-09, 4e-08, 0))
hIsland = hIsland.add(rect(6.801367439684592e-09, 2.2614095520228104e-09).transl(7.605519958556326e-08, 3.2678608522967484e-08, 0))
hIsland = hIsland.add(rect(5.064643264207241e-09, 2.8759464202400267e-09).transl(-4.7191472766882e-08, 3.8592369847766135e-08, 0))
hIsland = hIsland.sub(rect(9.936852150720865e-09, -5.264937246542393e-09).transl(-5.5206436206628994e-08, 3.746894231692966e-08, 0))
hIsland = hIsland.sub(rect(2.429244863228486e-09, -7.800452827329115e-09).transl(-2.502539355939007e-08, 3.999030549091879e-08, 0))
hIsland = hIsland.sub(rect(9.860428040640437e-09, -6.065180007186814e-10).transl(1.0246255807677903e-07, 2.015864238335471e-08, 0))
hIsland = hIsland.sub(rect(9.10659249692717e-09, -1.942248361936882e-09).transl(6.086917663022554e-08, 3.645419598334093e-08, 0))
vIsland = hIsland.rotz(pi / 2)
hIslands = hIslands.add(hIsland.transl(-a/2, a, 0))
hIsland = rect(islandLength-2*ellipseConstant, islandWidth)
hIsland = hIsland.add(ellipse(ellipseConstant*2, islandWidth).transl(islandLength/2-ellipseConstant, 0, 0))
hIsland = hIsland.add(ellipse(ellipseConstant*2, islandWidth).transl(-islandLength/2+ellipseConstant, 0, 0))
hIsland = hIsland.sub(rect(4.730381156036349e-09, -3.379645523802548e-09).transl(-7.628476643206383e-08, -3.260792366123978e-08, 0))
hIsland = hIsland.add(rect(6.613978840703891e-09, 1.7375623715206909e-09).transl(1.2709292312440979e-08, -4e-08, 0))
hIsland = hIsland.sub(rect(7.668142842362522e-09, -8.489959407319893e-10).transl(7.559935986024319e-08, -3.2817612906479286e-08, 0))
hIsland = hIsland.sub(rect(8.966946318660188e-09, -1.892888521246227e-10).transl(-1.0117121721280424e-08, -4e-08, 0))
hIsland = hIsland.sub(rect(3.714202236826338e-09, -3.168431823178469e-09).transl(-5.677799656002631e-10, -4e-08, 0))
hIsland = hIsland.sub(rect(7.325423854944697e-09, -6.968503734214809e-10).transl(1.656723191078664e-08, -4e-08, 0))
hIsland = hIsland.add(rect(3.5440010816167055e-09, 1.8885533040740695e-09).transl(-1.1258985558372579e-07, -9.095770392522523e-09, 0))
hIsland = hIsland.sub(rect(6.2786634935131005e-09, -1.545661288533469e-09).transl(9.896545983561448e-08, -2.2563704866639643e-08, 0))
hIsland = hIsland.sub(rect(7.455496444805266e-09, -8.224973843492901e-11).transl(9.536587961956304e-08, -2.4699247544797584e-08, 0))
hIsland = hIsland.sub(rect(5.056094856046575e-09, -2.417933020937493e-09).transl(7.633859488767805e-08, -3.2591283163791097e-08, 0))
hIsland = hIsland.sub(rect(8.361462306115811e-09, -9.256519437041722e-10).transl(-5.342633088344726e-08, -3.774914310416178e-08, 0))
hIsland = hIsland.sub(rect(2.0316838606554848e-09, -4.914116013599722e-09).transl(-3.3066608437685795e-08, -3.9759825727525956e-08, 0))
hIsland = hIsland.sub(rect(5.641780541276056e-09, -3.158547545401748e-10).transl(1.0566817422673019e-07, -1.755344509736471e-08, 0))
hIsland = hIsland.sub(rect(2.8115982725966155e-09, -1.9332749613877994e-09).transl(-1.1209613946750943e-07, -9.970447182077988e-09, 0))
hIsland = hIsland.add(rect(6.283948982978873e-09, 4.035929141360572e-09).transl(5.932347542785247e-08, -3.675033308194207e-08, 0))
hIsland = hIsland.add(rect(7.982264504258966e-09, 1.3608508909895594e-09).transl(-3.23596397171652e-08, -3.9792460515386505e-08, 0))
hIsland = hIsland.add(rect(9.271351063342315e-09, 1.5579166612101091e-09).transl(1.044689246489922e-07, -1.858315148714309e-08, 0))
hIsland = hIsland.sub(rect(6.743293108364333e-09, -3.1337566465246986e-09).transl(8.114078144673211e-08, -3.099987661650954e-08, 0))
hIsland = hIsland.sub(rect(6.1116987354480065e-09, -2.4255280316235708e-09).transl(-1.0674406755569523e-07, -1.6561343545828046e-08, 0))
hIsland = hIsland.sub(rect(6.368645237788996e-09, -1.4781567481415146e-09).transl(7.844071416490421e-08, -3.1921238175706875e-08, 0))
hIsland = hIsland.add(rect(3.463443911471693e-09, 1.0556607837118412e-11).transl(1.0689480276733893e-07, -1.6416495857058563e-08, 0))
hIsland = hIsland.add(rect(2.5148035510283012e-09, 2.6549751017756283e-09).transl(5.225396881910519e-08, -3.7923924715765325e-08, 0))
hIsland = hIsland.sub(rect(8.673521814984986e-09, -1.7959697072376278e-09).transl(-5.199432003648829e-08, -3.7961599853596196e-08, 0))
hIsland = hIsland.add(rect(4.498559329425159e-09, 1.5125553052526982e-09).transl(-3.2063928602440926e-08, -3.980539902748385e-08, 0))
hIsland = hIsland.add(rect(4.444193591296168e-09, 2.17767649912867e-09).transl(1.1055577270675364e-07, -1.2282025116750374e-08, 0))
hIsland = hIsland.add(rect(9.854169620109126e-09, 8.154691112222107e-11).transl(-1.1485065442979916e-07, -2.278247627642344e-09, 0))
hIsland = hIsland.sub(rect(2.7532579610570418e-09, -7.898982370724034e-10).transl(-5.777083562033907e-08, -3.703314050042052e-08, 0))
hIsland = hIsland.sub(rect(9.005068220748286e-09, -1.955743678716605e-09).transl(-8.942638725117139e-08, -2.7674639072266683e-08, 0))
hIsland = hIsland.sub(rect(9.440958395357715e-09, -6.367660166148657e-11).transl(-1.1096767126114432e-07, -1.171243997098638e-08, 0))
hIsland = hIsland.add(rect(7.870650919659685e-09, 2.7447263097713025e-09).transl(-9.691156245694657e-08, -2.3818314089037115e-08, 0))
hIsland = hIsland.sub(rect(6.151413100534951e-09, -1.6731958989486476e-09).transl(1.1400197845351988e-07, -5.875840728086034e-09, 0))
hIsland = hIsland.add(rect(8.62382304843494e-09, 1.368240404263103e-10).transl(-6.869857273172901e-08, -3.471635115994561e-08, 0))
hIsland = hIsland.add(rect(6.1738160926544696e-09, 1.267652992455192e-09).transl(9.882023821394583e-08, -2.2655851646622e-08, 0))
hIsland = hIsland.add(rect(7.834420156835768e-09, 9.57303626334184e-10).transl(-8.511578062441459e-08, -2.9506430677193972e-08, 0))
hIsland = hIsland.add(rect(9.568649519065306e-09, 2.4254399068802876e-09).transl(2.909766811006759e-08, -3.9912045179377304e-08, 0))
hIsland = hIsland.add(rect(2.8827132971012627e-09, 3.797520641666531e-09).transl(4.9893662449815075e-08, -3.825279292232529e-08, 0))
hIsland = hIsland.sub(rect(8.90757425881505e-09, -5.708761298825115e-10).transl(1.0948229369649815e-07, -1.3644229736506852e-08, 0))
hIsland = hIsland.add(rect(9.960973167733233e-09, 1.7120046325124398e-09).transl(1.0350562534982761e-07, -1.9360495544250424e-08, 0))
hIsland = hIsland.sub(rect(5.747589962103924e-09, -1.168437641033287e-09).transl(8.157889719639384e-09, -4e-08, 0))
hIsland = hIsland.sub(rect(2.9251917513580656e-09, -2.1983170495835474e-09).transl(2.863974322724019e-08, -3.9924771641309825e-08, 0))
hIsland = hIsland.add(rect(7.334987617523616e-09, 1.5173466478532127e-09).transl(-1.1315582337289482e-07, -7.968837130281859e-09, 0))
hIsland = hIsland.add(rect(7.941978748260297e-09, 2.2798910282125126e-09).transl(-4.494529250151374e-08, -3.884534829942195e-08, 0))
hIsland = hIsland.add(rect(8.51467142730199e-09, 9.594097269642409e-10).transl(-2.113101315647716e-08, -4e-08, 0))
hIsland = hIsland.add(rect(2.9533220690044094e-09, 3.2375938793606284e-09).transl(-7.576996856999941e-08, -3.2765796684165444e-08, 0))
hIsland = hIsland.add(rect(5.978108412129791e-09, 2.0666190938323194e-09).transl(-3.7995182552949886e-08, -3.946510147513934e-08, 0))
hIsland = hIsland.sub(rect(6.415223096969247e-09, -2.958172042908925e-09).transl(1.4085735293020145e-08, -4e-08, 0))
hIsland = hIsland.sub(rect(2.985225704816914e-09, -4.920430012902811e-10).transl(4.257990629693074e-08, -3.9083612734575576e-08, 0))
hIsland = hIsland.add(rect(7.870602536845065e-09, 1.8076672113051587e-10).transl(-6.10002462003348e-08, -3.642840373940018e-08, 0))
hIsland = hIsland.sub(rect(8.259080851582262e-09, -5.277328179292974e-10).transl(4.9229104223043234e-08, -3.8339923497218144e-08, 0))
hIsland = hIsland.add(rect(6.423983111821464e-09, 1.761648964424661e-09).transl(-6.804323001450839e-08, -3.487787884699701e-08, 0))
hIsland = hIsland.add(rect(3.0096737545408737e-09, 2.4323545029846897e-11).transl(4.759306173954643e-08, -3.854435815046791e-08, 0))
hIsland = hIsland.sub(rect(4.68593747261895e-09, -1.5217032477308612e-09).transl(8.775393944532556e-08, -2.8414057486018e-08, 0))
hIsland = hIsland.add(rect(8.895755107284932e-09, 6.537326065238748e-10).transl(-1.1328572910626797e-07, -7.685784877136362e-09, 0))
hIsland = hIsland.sub(rect(9.101157066661384e-09, -4.328489016764233e-10).transl(8.23862839884204e-08, -3.055030644408253e-08, 0))
hIsland = hIsland.add(rect(2.5169118179474952e-09, 1.4938743179498801e-09).transl(4.342650038823887e-08, -3.9001619087833434e-08, 0))
hIsland = hIsland.add(rect(5.24652310611989e-09, 5.542946557435332e-10).transl(-2.499641011447637e-08, -3.9990580995601324e-08, 0))
hIsland = hIsland.sub(rect(9.350736609073709e-09, -1.6569271531091665e-09).transl(-5.7337579809655145e-08, -3.7109480424741143e-08, 0))
hIsland = hIsland.sub(rect(9.983600816374181e-09, -8.376507947198886e-10).transl(1.7427308541971616e-08, -4e-08, 0))
hIsland = hIsland.sub(rect(2.8997425390223386e-09, -2.9699322519380405e-09).transl(9.93507441079931e-08, -2.2316522968037408e-08, 0))
hIsland = hIsland.add(rect(2.64205029839599e-09, 2.279398083117847e-09).transl(-4.363920849689471e-08, -3.8980444597093686e-08, 0))
hIsland = hIsland.add(rect(9.54094386069453e-09, 2.2623537515029048e-10).transl(6.778964576378918e-08, -3.4939557944108735e-08, 0))
hIsland = hIsland.sub(rect(8.031818459866813e-09, -2.519661130822495e-09).transl(-8.147229721011716e-08, -3.0881780984603923e-08, 0))
hIsland = hIsland.sub(rect(2.265696801367815e-09, -1.6420813175030388e-09).transl(5.0211826591566094e-08, -3.821023451204049e-08, 0))
hIsland = hIsland.sub(rect(6.945779035409049e-09, -5.01425518672814e-10).transl(-5.331617514547481e-08, -3.7765892946507306e-08, 0))
hIsland = hIsland.sub(rect(6.6490654841426795e-09, -3.204620280560072e-10).transl(5.779579065520971e-08, -3.702870942751654e-08, 0))
hIsland = hIsland.add(rect(7.421175222097507e-09, 3.4126146788734305e-09).transl(-5.323642200769942e-08, -3.7777977362049766e-08, 0))
hIsland = hIsland.add(rect(3.8499968692900615e-09, 7.457534420138038e-10).transl(8.3401902103188e-08, -3.017156431880269e-08, 0))
hIsland = hIsland.sub(rect(3.165182223334278e-09, -2.1606199134532315e-09).transl(3.17279393276798e-08, -3.981959097177208e-08, 0))
hIsland = hIsland.add(rect(2.9432004936260515e-09, 2.948416056037553e-09).transl(4.6471587016125315e-08, -3.867631320104127e-08, 0))
hIsland = hIsland.add(rect(8.279953049571591e-09, 5.301895725823792e-11).transl(1.0580919778599334e-07, -1.7427336380403495e-08, 0))
hIsland = hIsland.sub(rect(6.685055103442129e-09, -3.2199065756479856e-11).transl(6.654703007697438e-08, -3.523525089680626e-08, 0))
hIsland = hIsland.add(rect(8.150654302454235e-09, 1.2110629292690113e-10).transl(-1.0096269776635019e-07, -2.1236884118640626e-08, 0))
hIsland = hIsland.sub(rect(7.549348525777865e-09, -9.878586686711128e-10).transl(-3.855746099338066e-08, -3.942393649665319e-08, 0))
hIsland = hIsland.sub(rect(2.63711046915793e-09, -5.371844813354187e-10).transl(-9.067124898806907e-09, -4e-08, 0))
hIsland = hIsland.add(rect(4.3012066117144e-09, 3.08293958471163e-09).transl(-3.3495325623316575e-08, -3.9738864379426555e-08, 0))
hIsland = hIsland.add(rect(8.165490929694004e-09, 1.999089333420252e-09).transl(-1.0908729486905378e-07, -1.4108529255591344e-08, 0))
hIsland = hIsland.add(rect(8.56292049154703e-09, 7.222390893481012e-10).transl(5.016677404749756e-08, -3.8216294162053044e-08, 0))
hIsland = hIsland.sub(rect(4.114783298307913e-09, -3.332195745567206e-10).transl(5.728114324674161e-08, -3.7119342650542585e-08, 0))
hIsland = hIsland.add(rect(5.060468760148429e-09, 4.120885867514902e-09).transl(-4.918620347263828e-08, -3.83454666228921e-08, 0))
hIsland = hIsland.sub(rect(3.77950797189314e-09, -3.313567458399729e-10).transl(-1.7102945052015e-08, -4e-08, 0))
hIsland = hIsland.sub(rect(3.889997262043943e-09, -1.4553474040604463e-09).transl(5.0138815835813004e-08, -3.8220049061836535e-08, 0))
hIsland = hIsland.sub(rect(6.374603163704263e-09, -9.86298732378248e-10).transl(1.1379249772219625e-08, -4e-08, 0))
hIsland = hIsland.sub(rect(6.759924372194043e-09, -7.650188634029207e-10).transl(9.483622476770893e-08, -2.498981573704564e-08, 0))
hIsland = hIsland.sub(rect(6.671932646611489e-09, -1.936512170181822e-09).transl(1.3003220967088808e-08, -4e-08, 0))
hIsland = hIsland.sub(rect(9.431484762609422e-09, -1.6005239386325544e-10).transl(-3.523555658457558e-08, -3.96446673745807e-08, 0))
hIsland = hIsland.sub(rect(7.057638651764381e-09, -6.962642451911205e-10).transl(5.299405098354176e-08, -3.781448324167493e-08, 0))
hIsland = hIsland.add(rect(9.35127913791816e-09, 1.7953116373592447e-09).transl(9.95891914214498e-09, -4e-08, 0))
hIsland = hIsland.add(rect(6.905602108858351e-09, 3.3847813868105042e-09).transl(-4.3348746672175375e-08, -3.900930166054997e-08, 0))
hIsland = hIsland.add(rect(9.627464000252397e-09, 2.3165796894317215e-09).transl(-6.80206206041609e-08, -3.4883396694100714e-08, 0))
hIsland = hIsland.add(rect(8.960379846821064e-09, 3.0471541042171056e-09).transl(8.331702222397195e-08, -3.020364663956284e-08, 0))
hIsland = hIsland.sub(rect(9.779278514904285e-09, -4.773773429627404e-09).transl(-3.480734064481143e-08, -3.96692056930923e-08, 0))
hIsland = hIsland.add(rect(2.889545374171113e-09, 1.1467677068708207e-09).transl(-7.900922889196531e-08, -3.173307351059187e-08, 0))
hIsland = hIsland.sub(rect(3.2137179256317262e-09, -2.3167062611394017e-10).transl(3.756849100241446e-09, -4e-08, 0))
hIsland = hIsland.sub(rect(4.735515828825428e-09, -3.1001625847248078e-09).transl(1.0294119604039957e-07, -1.979767785179181e-08, 0))
hIsland = hIsland.sub(rect(2.589658652792777e-09, -1.7053662637202923e-11).transl(4.2225411096564646e-08, -3.911686616966352e-08, 0))
hIsland = hIsland.add(rect(4.5169735693558426e-09, 8.021267813606321e-10).transl(-7.123858802781702e-09, -4e-08, 0))
hIsland = hIsland.add(rect(9.438273616845895e-09, 1.5368491751993911e-09).transl(8.462305178938288e-08, -2.9701092786229705e-08, 0))
hIsland = hIsland.add(rect(5.884706196442491e-09, 3.164370809187641e-09).transl(9.966363725573456e-08, -2.2112817463330376e-08, 0))
hIsland = hIsland.sub(rect(4.546973732022399e-09, -1.6603436316118242e-09).transl(4.628825431210093e-08, -3.869725744373024e-08, 0))
hIsland = hIsland.sub(rect(5.044753001251049e-09, -2.385535055505722e-09).transl(2.9442640727302748e-08, -3.9901799070779484e-08, 0))
hIsland = hIsland.add(rect(9.166492199866054e-09, 1.6048631250774575e-09).transl(9.281617666065762e-08, -2.6049616306829786e-08, 0))
hIsland = hIsland.add(rect(6.664697776874695e-09, 2.214370502938326e-09).transl(-4.267709516208834e-08, -3.907438479931111e-08, 0))
hIsland = hIsland.sub(rect(5.604818464815958e-09, -6.783614129868688e-10).transl(4.152981558190001e-08, -3.918027245225636e-08, 0))
hIsland = hIsland.sub(rect(9.933426337609278e-09, -7.389233013699601e-10).transl(4.607826977427228e-08, -3.872103091607177e-08, 0))
hIsland = hIsland.sub(rect(3.523555928071556e-09, -2.262019314226862e-09).transl(4.288527053947404e-08, -3.9054457678597485e-08, 0))
hIsland = hIsland.sub(rect(9.103240380508468e-09, -3.3934687315913878e-09).transl(9.039206550442721e-08, -2.7229714903628557e-08, 0))
hIsland = hIsland.sub(rect(9.044196619938632e-09, -8.781550981772993e-11).transl(-2.1071161422469096e-08, -4e-08, 0))
hIsland = hIsland.add(rect(3.104240916955162e-09, 1.338557991376127e-10).transl(-1.0050681789287772e-07, -2.1550017347087923e-08, 0))
hIsland = hIsland.add(rect(6.8029270957567385e-09, 1.8634363137273638e-09).transl(-8.103857959585594e-08, -3.1036058297558214e-08, 0))
hIsland = hIsland.add(rect(3.83172756718237e-09, 3.3717188199957182e-09).transl(-7.139310605127696e-08, -3.401908528810399e-08, 0))
hIsland = hIsland.sub(rect(8.950872530079813e-09, -2.388498970020313e-10).transl(-3.258040765807015e-10, -4e-08, 0))
hIsland = hIsland.sub(rect(7.494127485109363e-09, -1.538172895700123e-09).transl(-5.93577079424738e-08, -3.6743933499183194e-08, 0))
hIsland = hIsland.add(rect(7.056754135047185e-09, 9.966484994748427e-10).transl(-9.223690036544658e-09, -4e-08, 0))
hIsland = hIsland.add(rect(5.564298492355685e-09, 2.7900517462984214e-09).transl(-3.473313831884411e-08, -3.967336739396275e-08, 0))
hIsland = hIsland.add(rect(5.272509355856912e-09, 1.3862826091369596e-09).transl(-4.858021066161301e-08, -3.842271309240642e-08, 0))
hIsland = hIsland.add(rect(3.936406208111681e-09, 1.3802624428770118e-09).transl(-6.63797487818898e-08, -3.527423591516747e-08, 0))
hIsland = hIsland.add(rect(7.381495155336754e-09, 1.2616508356114376e-09).transl(1.1067460090864399e-07, -1.2120725080081623e-08, 0))
hIsland = hIsland.add(rect(6.519299756254396e-09, 1.2217917479804763e-09).transl(7.106709997277623e-08, -3.410634403234634e-08, 0))
hIsland = hIsland.add(rect(6.338919717052124e-09, 1.1470423673695688e-09).transl(-2.9372383742650463e-08, -3.990393171885621e-08, 0))
hIsland = hIsland.add(rect(3.182808026595053e-09, 1.775229075605483e-09).transl(9.3595991423339e-08, -2.5649248156496593e-08, 0))
hIsland = hIsland.add(rect(3.873761217206349e-09, 1.97367181026722e-09).transl(2.1346494292871545e-08, -4e-08, 0))
hIsland = hIsland.add(rect(4.373717867316208e-09, 8.141749822026991e-10).transl(7.348328155797907e-08, -3.343995064694186e-08, 0))
hIsland = hIsland.add(rect(3.020113222472123e-09, 7.761517962404379e-10).transl(7.500276976970372e-10, -4e-08, 0))
hIsland = hIsland.sub(rect(7.068541085373907e-09, -6.779650188996707e-10).transl(-6.594848221725517e-09, -4e-08, 0))
hIsland = hIsland.add(rect(6.010158784091969e-09, 3.125123645035205e-09).transl(8.364894543750869e-08, -3.0077736138433865e-08, 0))
hIsland = hIsland.sub(rect(7.215176399271203e-09, -6.816424707359667e-10).transl(7.015064283892901e-08, -3.434732217537831e-08, 0))
hIsland = hIsland.sub(rect(4.888509079235325e-09, -4.738900088134074e-09).transl(1.0629100397557863e-07, -1.698775638684016e-08, 0))
hIsland = hIsland.sub(rect(7.571680452749115e-09, -1.8753850013619646e-09).transl(3.788296810899489e-08, -3.947313043724089e-08, 0))
hIsland = hIsland.add(rect(4.673518583407687e-09, 6.733142807040575e-10).transl(-3.271703878481693e-08, -3.9776262637712275e-08, 0))
hIsland = hIsland.add(rect(6.496445004848156e-09, 1.8018899666097198e-09).transl(-5.600095116722826e-08, -3.733802377326187e-08, 0))
hIsland = hIsland.sub(rect(7.707528167433258e-09, -9.462914728452611e-11).transl(-1.0722515604360288e-07, -1.6093553814261846e-08, 0))
hIsland = hIsland.sub(rect(4.528876183849087e-09, -1.1791822997561047e-10).transl(2.3012932855123926e-08, -3.999999960477613e-08, 0))
hIsland = hIsland.add(rect(2.2628214051565963e-09, 1.063895475009814e-09).transl(2.512257112272185e-08, -3.998935276969755e-08, 0))
hIsland = hIsland.add(rect(5.179453918711226e-09, 2.203334659822665e-09).transl(1.1442073396235458e-07, -4.4816239331669276e-09, 0))
hIsland = hIsland.add(rect(3.711901374529055e-09, 2.201085060642576e-09).transl(4.5820284815867714e-08, -3.874992432683062e-08, 0))
hIsland = hIsland.add(rect(8.4652972162646e-09, 1.3332303235019675e-09).transl(6.287473415138663e-08, -3.604766214862126e-08, 0))
hIsland = hIsland.sub(rect(3.6497135552631105e-09, -3.4854308494331988e-09).transl(-8.897872736258353e-09, -4e-08, 0))
hIsland = hIsland.add(rect(8.544818450586061e-09, 3.5104195706180453e-10).transl(5.555507401758679e-08, -3.741194363567789e-08, 0))
hIsland = hIsland.add(rect(5.611067968431804e-09, 3.0725599184860143e-09).transl(-8.30696451434352e-08, -3.029669834320879e-08, 0))
hIsland = hIsland.sub(rect(7.930355506700684e-09, -2.606275006756436e-09).transl(-4.234322854569288e-08, -3.910588483368632e-08, 0))
hIsland = hIsland.sub(rect(6.375941252108261e-09, -1.5674211851679774e-09).transl(-2.919548983413211e-08, -3.990919728014333e-08, 0))
hIsland = hIsland.sub(rect(7.540728083947686e-09, -1.3408514003507477e-09).transl(2.8950964946125486e-08, -3.9916230847937756e-08, 0))
hIsland = hIsland.sub(rect(5.1876196715698266e-09, -2.386734650778532e-10).transl(-1.7338736388934596e-08, -4e-08, 0))
hIsland = hIsland.sub(rect(8.976271393014916e-09, -2.0393385966857033e-09).transl(-8.82762266834146e-08, -2.818724265316773e-08, 0))
hIsland = hIsland.sub(rect(5.201798124165836e-09, -1.3042047179914157e-09).transl(4.7030125535777266e-08, -3.861142045500126e-08, 0))
hIsland = hIsland.sub(rect(3.6313974130796364e-09, -1.0075238413928303e-09).transl(2.441202286174172e-08, -3.9995288454647946e-08, 0))
hIsland = hIsland.add(rect(5.010365663242409e-09, 4.3604610697817057e-10).transl(-2.367465427597516e-08, -3.999892446949106e-08, 0))
hIsland = hIsland.sub(rect(2.721737086869868e-09, -1.9667324175546e-09).transl(5.05214964542863e-08, -3.816828529606382e-08, 0))
hIsland = hIsland.add(rect(6.066729952261237e-09, 1.2326250152566414e-10).transl(8.354018398007982e-08, -3.0119127446203044e-08, 0))
hIsland = hIsland.add(rect(4.59869606193007e-09, 9.186574838525867e-10).transl(1.0062375761426309e-07, -2.1470304167122533e-08, 0))
hIsland = hIsland.sub(rect(8.426945753550911e-09, -5.884953610154808e-10).transl(1.5639965995906378e-08, -4e-08, 0))
hIsland = hIsland.sub(rect(2.3752382867828318e-09, -7.297184420148029e-10).transl(-5.677824984896079e-08, -3.720639271946328e-08, 0))
hIsland = hIsland.sub(rect(3.136235681956863e-09, -8.861570659735228e-10).transl(6.684637242012603e-08, -3.5165005658835576e-08, 0))
hIsland = hIsland.sub(rect(5.490950204106111e-09, -5.736883741093162e-10).transl(-1.0023583958650996e-07, -2.1733151714240547e-08, 0))
hIsland = hIsland.sub(rect(9.29547371560555e-09, -1.1692389419669497e-09).transl(-9.954664357453981e-08, -2.218930138446237e-08, 0))
hIsland = hIsland.sub(rect(2.276342640580114e-09, -6.205981021011803e-10).transl(5.251641909460268e-08, -3.7885463152833215e-08, 0))
hIsland = hIsland.sub(rect(5.952799788141749e-09, -6.136646603648787e-10).transl(6.41208110912976e-08, -3.578205106859555e-08, 0))
hIsland = hIsland.add(rect(6.711417704238378e-09, 2.3606514976316634e-09).transl(1.0891793821227126e-07, -1.4302351475284046e-08, 0))
hIsland = hIsland.sub(rect(3.421865792714355e-09, -1.7465989194192294e-09).transl(-2.2616243715783025e-08, -4e-08, 0))
hIsland = hIsland.sub(rect(9.45456194402976e-09, -1.3859049801543883e-09).transl(6.44910684485284e-08, -3.570116262873507e-08, 0))
hIsland = hIsland.sub(rect(6.798442260721723e-09, -2.6641983493464966e-09).transl(1.0570245472186608e-07, -1.752289338617862e-08, 0))
hIsland = hIsland.sub(rect(8.877700181527082e-09, -7.139866243559183e-10).transl(2.0162620815319496e-08, -4e-08, 0))
hIsland = hIsland.add(rect(8.544640756512633e-09, 1.4936045905362594e-09).transl(8.565396212715976e-08, -2.9290543225612927e-08, 0))
hIsland = hIsland.add(rect(9.357869310631461e-09, 2.0606801694040198e-09).transl(2.172858882886794e-08, -4e-08, 0))
hIsland = hIsland.sub(rect(4.27287620746952e-09, -2.2322995742663757e-09).transl(-1.8136943092479379e-09, -4e-08, 0))
hIsland = hIsland.add(rect(8.059387458094612e-09, 2.032461710810529e-09).transl(-2.6596985843978912e-08, -3.996941574808818e-08, 0))
hIsland = hIsland.sub(rect(7.866277932186797e-09, -1.065023900141822e-09).transl(-1.551756477613392e-08, -4e-08, 0))
hIsland = hIsland.sub(rect(5.063383263953008e-09, -1.1891316377532104e-09).transl(-2.4695925838495627e-08, -3.999320319274662e-08, 0))
hIsland = hIsland.add(rect(4.500437510622687e-09, 1.515149814719239e-10).transl(-5.738567552024675e-08, -3.710106087634867e-08, 0))
hIsland = hIsland.sub(rect(2.2872368292491105e-09, -2.219002389948093e-09).transl(-1.0025948583132027e-07, -2.17172579056704e-08, 0))
hIsland = hIsland.add(rect(8.252670115595528e-09, 8.126646725493372e-10).transl(-3.434074580272013e-08, -3.9694931858405986e-08, 0))
hIsland = hIsland.sub(rect(7.0155839483939506e-09, -1.0522723446782407e-09).transl(-1.0180302528494871e-07, -2.0642254853403057e-08, 0))
hIsland = hIsland.sub(rect(3.9116222202202275e-09, -9.052517037605445e-11).transl(-1.0596259145963611e-07, -1.7288874545318577e-08, 0))
hIsland = hIsland.add(rect(9.698645257487364e-09, 3.266786230789628e-09).transl(-1.0732085148012644e-07, -1.5998546753865667e-08, 0))
hIsland = hIsland.add(rect(6.388761465959505e-09, 1.0598799959732048e-09).transl(-4.9779809806617414e-08, -3.8267889145403314e-08, 0))
hIsland = hIsland.add(rect(7.876160021900833e-09, 3.3232671285252976e-10).transl(8.935722669647194e-08, -2.770598559923736e-08, 0))
hIsland = hIsland.add(rect(2.8415641421777673e-09, 2.460467734058923e-09).transl(-5.749479588685332e-08, -3.7081907645333936e-08, 0))
hIsland = hIsland.add(rect(9.955522605699604e-09, 1.5447733096142814e-09).transl(9.019806535858774e-08, -2.732019760154251e-08, 0))
hIsland = hIsland.add(rect(5.995652506347191e-09, 2.507612655886503e-10).transl(-9.531271406939706e-09, -4e-08, 0))
hIsland = hIsland.sub(rect(4.455425876352924e-09, -1.8029688790804039e-09).transl(-1.0058482046140735e-07, -2.149689226218925e-08, 0))
hIsland = hIsland.sub(rect(9.13524689822686e-09, -3.664105322419481e-09).transl(-4.707469870548816e-09, -4e-08, 0))
hIsland = hIsland.add(rect(3.6486504924566587e-09, 1.5557371441994532e-09).transl(6.855649628197395e-09, -4e-08, 0))
hIsland = hIsland.sub(rect(9.238367656831508e-09, -2.0878195058114192e-10).transl(-1.6603000692717355e-08, -4e-08, 0))
hIsland = hIsland.sub(rect(7.8606002857228e-09, -4.036855425153276e-09).transl(1.00190345877195e-07, -2.1763683974536096e-08, 0))
hIsland = hIsland.sub(rect(8.720113807030406e-09, -2.2981219059732984e-09).transl(-6.179542271797398e-08, -3.626961414768913e-08, 0))
hIsland = hIsland.add(rect(6.016278210583719e-09, 1.6267368180401947e-10).transl(-4.248805453095097e-09, -4e-08, 0))
hIsland = hIsland.add(rect(3.930174322468964e-09, 1.312964803313181e-09).transl(1.1247221866682097e-07, -9.312086245984865e-09, 0))
hIsland = hIsland.sub(rect(2.784020511106048e-09, -7.299499818090143e-10).transl(-9.949229851141901e-08, -2.2224700016432385e-08, 0))
hIsland = hIsland.sub(rect(3.755703404242477e-09, -1.5592504045569571e-09).transl(5.573053091985557e-08, -3.738299287226458e-08, 0))
hIsland = hIsland.sub(rect(2.984329161450173e-09, -1.4763983855232413e-09).transl(-9.572711940588106e-08, -2.4497853395111536e-08, 0))
hIsland = hIsland.sub(rect(2.67497220037765e-09, -4.4452911771505906e-10).transl(-5.531873243562141e-08, -3.7450659496730113e-08, 0))
hIsland = hIsland.sub(rect(7.43160878460455e-09, -2.1453770858716333e-09).transl(-7.179605614345817e-08, -3.3910102728808585e-08, 0))
hIsland = hIsland.add(rect(4.634633625248125e-09, 5.952749089318744e-10).transl(-2.011517977546391e-08, -4e-08, 0))
hIsland = hIsland.sub(rect(9.046290420860473e-09, -3.3041278687716087e-09).transl(-2.6190717051978526e-08, -3.9975936345627744e-08, 0))
hIsland = hIsland.sub(rect(8.650025952207532e-09, -1.3151847676617872e-09).transl(-1.0692919260948626e-07, -1.6383233094810552e-08, 0))
hIsland = hIsland.sub(rect(5.862153518661449e-09, -3.4391894034857707e-09).transl(7.001643733537884e-08, -3.438208148825089e-08, 0))
hIsland = hIsland.add(rect(8.85900855994294e-09, 1.2725684050980005e-09).transl(6.0839683493111e-09, -4e-08, 0))
hIsland = hIsland.add(rect(8.571959076849707e-09, 1.516622558884922e-10).transl(-5.5447710540890274e-08, -3.7429571117962246e-08, 0))
hIsland = hIsland.sub(rect(7.808819765631522e-09, -1.5082562285444393e-09).transl(6.519847940080664e-08, -3.5544078804286254e-08, 0))
hIsland = hIsland.add(rect(7.106266772651223e-09, 2.4468063994263885e-09).transl(3.378936188250052e-08, -3.972397596631642e-08, 0))
hIsland = hIsland.add(rect(5.794356488446254e-09, 2.4807783473072927e-09).transl(-4.781118938525224e-09, 4e-08, 0))
hIsland = hIsland.add(rect(8.295040965202312e-09, 1.6377198585392625e-09).transl(-4.1191818127484405e-08, 3.921020312321051e-08, 0))
hIsland = hIsland.sub(rect(5.300331951164497e-09, -1.7673678480877996e-10).transl(1.1204871083207086e-07, 1.0050224528393406e-08, 0))
hIsland = hIsland.sub(rect(5.8729095708226895e-09, -3.1580687345223956e-10).transl(3.005938038871575e-08, 3.988206894284802e-08, 0))
[...]
hIsland = hIsland.add(rect(5.3126522583801926e-09, 7.904844067983024e-10).transl(9.264997366611455e-08, 2.6133585747621204e-08, 0))
hIsland = hIsland.sub(rect(4.1597303558479376e-09, -8.049072375881417e-11).transl(3.790325282512662e-08, 3.947168364869237e-08, 0))
hIsland = hIsland.add(rect(6.241562425662103e-09, 1.8674756695368485e-09).transl(2.0496506456992972e-08, 4e-08, 0))
hIsland = hIsland.add(rect(3.529862193822983e-09, 4.423044501425023e-10).transl(-4.6834864226945715e-08, 3.863429245322913e-08, 0))
hIsland = hIsland.sub(rect(4.0710856158673934e-09, -2.332954144601317e-09).transl(8.762222664643012e-08, 2.847068542873741e-08, 0))
hIsland = hIsland.add(rect(9.53441280368697e-09, 1.0221243269499322e-09).transl(-1.1333775365104265e-07, 7.569342519556209e-09, 0))
hIsland = hIsland.add(rect(6.7469799878256296e-09, 1.6420317710367458e-09).transl(5.819927784039936e-08, 3.695654946166319e-08, 0))
hIsland = hIsland.add(rect(6.081148320044947e-09, 1.6592135502157715e-09).transl(-2.8989441918622326e-08, 3.991514294351243e-08, 0))
hIsland = hIsland.add(rect(8.950236248977586e-09, 1.432377366374282e-09).transl(3.65634588833124e-08, 3.956290624669074e-08, 0))
hIsland = hIsland.add(rect(5.485752706887035e-09, 2.2541876277016965e-09).transl(3.443513624632943e-08, 3.9689812559248216e-08, 0))
hIsland = hIsland.add(rect(5.782682980609021e-09, 2.2351876382486976e-09).transl(-7.121788642458378e-08, 3.4066085637907e-08, 0))
hIsland = hIsland.sub(rect(5.855670732376481e-09, -7.701200284834022e-10).transl(2.4841201936512573e-08, 3.999198874271147e-08, 0))
hIsland = hIsland.add(rect(5.505027802519989e-09, 8.385535593746534e-10).transl(1.7838605224663712e-08, 4e-08, 0))
hIsland = hIsland.add(rect(8.866397554536321e-09, 3.7847783080557574e-09).transl(6.112950726855119e-09, 4e-08, 0))
hIsland = hIsland.sub(rect(8.934289500789796e-09, -2.137141832996433e-09).transl(8.445091423175086e-08, 2.9768435663135638e-08, 0))
hIsland = hIsland.add(rect(7.987790648053893e-09, 3.751291155874093e-09).transl(-1.0021887989897337e-07, 2.1744541009942413e-08, 0))
hIsland = hIsland.sub(rect(7.585210807631653e-09, -1.4975889173026097e-10).transl(8.030609217594316e-08, 3.129230384108616e-08, 0))
hIsland = hIsland.add(rect(9.843706945633784e-09, 1.763595504385868e-10).transl(-9.58882433118075e-08, 2.4407163668868445e-08, 0))
hIsland = hIsland.sub(rect(3.81775261303009e-09, -1.4035203383638475e-09).transl(8.73960750529604e-08, 2.8567386317543703e-08, 0))
hIsland = hIsland.add(rect(6.647856543358665e-09, 9.095097092737245e-10).transl(-4.9404560604258286e-08, 3.831715025478339e-08, 0))
hIsland = hIsland.add(rect(8.63746272617765e-09, 2.2730422504302023e-09).transl(-1.98903118345054e-08, 4e-08, 0))
hIsland = hIsland.add(rect(4.750425575898166e-09, 1.6184760007265207e-09).transl(8.192087209210051e-08, 3.0720186130606657e-08, 0))
hIsland = hIsland.add(rect(5.1774569591294045e-09, 2.903896052484162e-09).transl(-3.1874864902914036e-08, 3.981345151030642e-08, 0))
hIsland = hIsland.add(rect(8.464812775295943e-09, 5.835663512552933e-10).transl(6.169613383900117e-08, 3.6289659163135994e-08, 0))
hIsland = hIsland.add(rect(2.6484321844791304e-09, 6.728300333263385e-11).transl(2.892949461250133e-08, 3.991683484323076e-08, 0))
hIsland = hIsland.add(rect(8.503599815680091e-09, 2.7015856605275982e-09).transl(-9.591599543787878e-08, 2.4391488836407e-08, 0))
hIsland = hIsland.add(rect(3.936615517486517e-09, 4.709419080569306e-10).transl(-5.655362808014101e-08, 3.7244793961724865e-08, 0))
hIsland = hIsland.sub(rect(3.3731728408993907e-09, -2.7241753280082675e-09).transl(-2.2938051220766554e-08, 4e-08, 0))
hIsland = hIsland.add(rect(7.697702555110427e-09, 2.3187715314059157e-09).transl(7.830234466992287e-08, 3.1966578346651955e-08, 0))
hIsland = hIsland.add(rect(8.107421490766361e-09, 3.2575595175618756e-09).transl(3.504057761331843e-08, 3.9655950646649964e-08, 0))
hIsland = hIsland.add(rect(3.1392747976471116e-09, 1.1355172576669596e-10).transl(1.1362083368701528e-07, 6.900104131571148e-09, 0))
hIsland = hIsland.add(rect(3.121485758856678e-09, 1.7297166709739346e-09).transl(5.2508258534318963e-08, 3.788666483175924e-08, 0))
hIsland = hIsland.add(rect(2.3313168903949785e-09, 2.5909679237840804e-09).transl(-1.1735400069932232e-08, 4e-08, 0))
hIsland = hIsland.add(rect(9.730719072414044e-09, 9.266113072845395e-10).transl(-2.8386077761993475e-09, 4e-08, 0))
hIsland = hIsland.add(rect(5.464732391993371e-09, 1.3581408106930447e-10).transl(-1.1467493093600919e-07, 3.3595795341254908e-09, 0))
hIsland = hIsland.sub(rect(4.998177578253667e-09, -4.824990495347074e-10).transl(9.804090013439359e-08, 2.3141151926387448e-08, 0))
hIsland = hIsland.sub(rect(3.061335305187787e-09, -3.3302219615129383e-09).transl(-6.221201306691176e-08, 3.6184828075357286e-08, 0))
hIsland = hIsland.sub(rect(6.324255291131278e-09, -2.5604277963642125e-09).transl(8.318657146462885e-08, 3.025279944656507e-08, 0))
hIsland = hIsland.sub(rect(3.086005054028851e-09, -2.173289223249225e-09).transl(-3.868851503008939e-08, 3.9414117820678866e-08, 0))
hIsland = hIsland.sub(rect(9.53306148430798e-09, -6.418306818151721e-10).transl(6.207048676068153e-08, 3.6213755922466625e-08, 0))
hIsland = hIsland.sub(rect(5.702998190719021e-09, -9.299062387139947e-10).transl(-3.264479897018829e-08, 3.977958613565196e-08, 0))
hIsland = hIsland.sub(rect(7.2441801669003915e-09, -2.4773577578661327e-09).transl(6.796508951727184e-08, 3.489693365046367e-08, 0))
hIsland = hIsland.sub(rect(4.597536169687402e-09, -2.469768710779369e-09).transl(8.086323700849231e-08, 3.109788741510007e-08, 0))
hIsland = hIsland.sub(rect(2.9548429794587428e-09, -2.665921547747294e-09).transl(1.6453669814882343e-08, 4e-08, 0))
hIsland = hIsland.add(rect(9.69629296097817e-09, 2.2909186357024054e-09).transl(6.9477964705111e-08, 3.452020256374047e-08, 0))
hIsland = hIsland.sub(rect(4.697192945003107e-09, -7.324454884656879e-10).transl(-2.301256012168355e-08, 3.999999962722907e-08, 0))
hIsland = hIsland.sub(rect(3.219228586465682e-09, -9.090650678545694e-11).transl(-8.240402067914559e-08, 3.054378717823556e-08, 0))
hIsland = hIsland.sub(rect(7.966257087294991e-09, -8.691054919872269e-10).transl(1.094113552610755e-07, 1.3728929082461846e-08, 0))
hIsland = hIsland.add(rect(4.1455878892583745e-09, 4.540116384322299e-09).transl(-7.46989830311631e-08, 3.308697124362213e-08, 0))
hIsland = hIsland.add(rect(4.5376978972716865e-09, 1.2966032084536595e-09).transl(-6.096951697234059e-08, 3.643446036198457e-08, 0))
hIsland = hIsland.add(rect(5.89445531707484e-09, 1.0059413028187855e-10).transl(9.957209319033519e-08, 2.217269623451885e-08, 0))
hIsland = hIsland.add(rect(7.125344973868388e-09, 3.705403845084892e-10).transl(3.5227271776203925e-08, 3.9645150562472874e-08, 0))
hIsland = hIsland.add(rect(6.753232888044366e-09, 2.7592895884210796e-09).transl(-1.0750148804722741e-07, 1.581735615482557e-08, 0))
hIsland = hIsland.add(rect(6.652999926692131e-09, 1.78960153775338e-09).transl(-3.199038174811848e-08, 3.980855185460167e-08, 0))
hIsland = hIsland.sub(rect(3.764301953805509e-09, -1.1483892656618493e-09).transl(-1.0232028981386816e-07, 2.0264282339201324e-08, 0))
hIsland = hIsland.add(rect(4.5155492292270984e-09, 2.6401064444023484e-09).transl(5.106879598710323e-08, 3.809286903639929e-08, 0))
hIsland = hIsland.add(rect(3.808240137309074e-09, 3.190518833991681e-10).transl(-3.535902808451049e-08, 3.9637426759975427e-08, 0))
hIsland = hIsland.add(rect(6.3913318455405625e-09, 1.3379174082032098e-09).transl(-9.999352168730172e-08, 2.1895082434600662e-08, 0))
hIsland = hIsland.sub(rect(7.949647200205252e-09, -4.770711315911212e-10).transl(3.459315888250935e-08, 3.968114565908551e-08, 0))
hIsland = hIsland.sub(rect(9.52142378248795e-09, -1.5054487388154615e-10).transl(-4.7526437857364164e-08, 3.8552382173764504e-08, 0))
hIsland = hIsland.add(rect(7.98775988822104e-09, 5.23788193657135e-10).transl(9.975041119072949e-08, 2.2055842437854612e-08, 0))
hIsland = hIsland.add(rect(5.948183083483586e-09, 3.2635659023505016e-09).transl(-1.0094447107866355e-07, 2.124952764188621e-08, 0))
hIsland = hIsland.sub(rect(3.7726631276779855e-09, -1.9512880878305006e-09).transl(1.0306241950965068e-07, 1.970485907401491e-08, 0))
hIsland = hIsland.add(rect(4.63397516300062e-09, 5.95112909403241e-10).transl(6.2746465503708885e-09, 4e-08, 0))
hIsland = hIsland.sub(rect(7.062762934766539e-09, -1.5573177883224903e-10).transl(-1.0748659529667079e-07, 1.583238775181231e-08, 0))
hIsland = hIsland.sub(rect(5.774467035847831e-09, -2.2196863144796257e-09).transl(1.1359790422466205e-07, 6.9567900776909645e-09, 0))
hIsland = hIsland.sub(rect(8.175534057458088e-09, -5.435818276264496e-10).transl(-9.171440999077976e-08, 2.6597645686632677e-08, 0))
hIsland = hIsland.add(rect(7.0586526574585575e-09, 6.966907993116747e-10).transl(4.425249038149228e-08, 3.891809938635051e-08, 0))
hIsland = hIsland.add(rect(5.606589025205855e-09, 2.1513870429020155e-09).transl(-9.0163619542026e-08, 2.73362047956596e-08, 0))
hIsland = hIsland.add(rect(4.163088202566566e-09, 3.1442133898572806e-09).transl(9.119722467384463e-08, 2.6848093808857586e-08, 0))
hIsland = hIsland.add(rect(6.638333633277705e-09, 3.783462389429798e-09).transl(-6.072843290507362e-08, 3.648177251721208e-08, 0))
hIsland = hIsland.add(rect(7.077543425610898e-09, 1.4201786170357205e-09).transl(7.668409378125448e-09, 4e-08, 0))
hIsland = hIsland.add(rect(7.66097925703928e-09, 2.9016449186111352e-11).transl(8.08601333556427e-08, 3.1098979031458595e-08, 0))
hIsland = hIsland.add(rect(3.1707946538008786e-09, 7.871297975583466e-10).transl(2.7085294611509284e-08, 3.9960543791364314e-08, 0))
hIsland = hIsland.add(rect(2.982693980062577e-09, 9.979606926103704e-10).transl(2.6096058814110335e-08, 3.997734334672954e-08, 0))
hIsland = hIsland.sub(rect(3.55540769746173e-09, -1.8367335315797352e-09).transl(5.556197370841602e-08, 3.741080853343352e-08, 0))
hIsland = hIsland.sub(rect(8.642735608739962e-09, -2.1299216009099265e-09).transl(-1.344171792718217e-08, 4e-08, 0))
hIsland = hIsland.sub(rect(6.528884950568574e-09, -1.311869262644475e-09).transl(-7.585048508370535e-08, 3.2741255853455654e-08, 0))
hIsland = hIsland.add(rect(9.995846054057738e-09, 1.94455035213983e-09).transl(-5.0024211369530904e-08, 3.8235396658443714e-08, 0))
hIsland = hIsland.add(rect(2.102883441110885e-09, 3.7990095385669475e-10).transl(-4.552031235459332e-08, 3.878308522677493e-08, 0))
hIsland = hIsland.add(rect(3.034186303923246e-09, 1.511740372452816e-09).transl(9.015564054726949e-08, 2.733991017904915e-08, 0))
hIsland = hIsland.add(rect(3.6236892426070738e-09, 3.9517534694769066e-10).transl(-1.0539712627081411e-07, 1.7792723722077863e-08, 0))
hIsland = hIsland.sub(rect(4.443709380488615e-09, -1.588807434776354e-09).transl(6.960006614252485e-08, 3.448907072032625e-08, 0))
hIsland = hIsland.sub(rect(4.730690708544149e-09, -3.2907742266875683e-09).transl(-1.146747128608368e-07, 3.3607042504796464e-09, 0))
hIsland = hIsland.sub(rect(6.470360118921765e-09, -2.1807766335059158e-09).transl(4.0924716624753615e-08, 3.9233450230620055e-08, 0))
hIsland = hIsland.sub(rect(7.58100583644517e-09, -9.401681661659783e-10).transl(-7.582742999147602e-08, 3.274828857559685e-08, 0))
hIsland = hIsland.sub(rect(9.474175416971447e-09, -1.0049291557357888e-09).transl(-2.2700076002208886e-08, 4e-08, 0))
hIsland = hIsland.sub(rect(4.209663345551332e-09, -9.077026304734e-10).transl(-1.1040819460317286e-07, 1.2479150977296176e-08, 0))
hIsland = hIsland.sub(rect(5.68910573959883e-09, -7.436021803565088e-10).transl(-4.187910516108049e-08, 3.914873820310736e-08, 0))
hIsland = hIsland.sub(rect(3.487081178018823e-09, -3.138434890692771e-10).transl(6.759600092676357e-08, 3.4986350839360766e-08, 0))
hIsland = hIsland.sub(rect(3.2467765763903566e-09, -4.222106342065607e-09).transl(1.0401104886738093e-07, 1.895776801550841e-08, 0))
hIsland = hIsland.sub(rect(2.9989685416061607e-09, -2.3582310819756964e-09).transl(-1.5324268784625828e-08, 4e-08, 0))
hIsland = hIsland.sub(rect(6.660233040792236e-09, -9.167293147000908e-10).transl(-1.012417188974071e-08, 4e-08, 0))
hIsland = hIsland.sub(rect(3.21681405997201e-09, -2.6719073736904425e-09).transl(9.521196488338535e-08, 2.478425672506895e-08, 0))
hIsland = hIsland.sub(rect(4.785200249527111e-09, -1.9891397767598143e-09).transl(6.840935683643578e-09, 4e-08, 0))
hIsland = hIsland.add(rect(8.622609717321225e-09, 2.7836604898643033e-09).transl(1.0602117156511617e-07, 1.7235635217555968e-08, 0))
hIsland = hIsland.sub(rect(2.975889460450966e-09, -1.5646256231082376e-09).transl(2.6824169495029937e-08, 3.996542865118342e-08, 0))
hIsland = hIsland.sub(rect(7.205046610139784e-09, -1.1400110207527146e-09).transl(-4.0247454914551514e-08, 3.929079532357276e-08, 0))
hIsland = hIsland.add(rect(9.664227079104123e-09, 8.52026514931659e-10).transl(-9.735241554467877e-08, 2.3557508375952338e-08, 0))
hIsland = hIsland.add(rect(6.154880165954269e-09, 2.5672543644482934e-09).transl(-1.2781807398489075e-08, 4e-08, 0))
hIsland = hIsland.add(rect(2.0789048008486954e-09, 3.6984209716536545e-09).transl(-1.007774831628767e-07, 2.1364879015778954e-08, 0))
hIsland = hIsland.add(rect(2.9230970981820488e-09, 5.181371165697608e-10).transl(3.7671527430284266e-08, 3.9488090815220234e-08, 0))
hIsland = hIsland.add(rect(8.395134764494721e-09, 1.6525722560261521e-09).transl(-5.78804613781159e-08, 3.7013647444879955e-08, 0))
hIsland = hIsland.add(rect(5.687492520781711e-09, 1.3686273894493723e-09).transl(-9.156265304561928e-08, 2.6671574637396113e-08, 0))
hIsland = hIsland.add(rect(9.9827864214411e-09, 1.6723812430375333e-09).transl(-3.04032953332721e-08, 3.987027930280898e-08, 0))
hIsland = hIsland.add(rect(4.2121091194958976e-09, 2.087256515660072e-09).transl(-9.811728436204949e-08, 2.3094257381890033e-08, 0))
hIsland = hIsland.sub(rect(4.756995763331359e-09, -4.384932863818947e-10).transl(5.397228603138356e-08, 3.766511851486945e-08, 0))
hIsland = hIsland.add(rect(2.0944191079186745e-09, 9.068335350063626e-10).transl(-8.803283856279675e-08, 2.829339235138778e-08, 0))
hIsland = hIsland.sub(rect(6.457630879042933e-09, -3.1189900738859914e-09).transl(6.810263093884358e-09, 4e-08, 0))
hIsland = hIsland.add(rect(5.096406531975135e-09, 1.484685422473148e-09).transl(-3.590339822344748e-08, 3.9604620403838754e-08, 0))
hIsland = hIsland.add(rect(2.626286256869027e-09, 9.374899527545026e-11).transl(-1.1198258677860467e-07, 1.0160333283722148e-08, 0))
hIsland = hIsland.add(rect(4.532866697348131e-09, 1.1640802642953325e-09).transl(5.144316732256385e-08, 3.804033833666055e-08, 0))
hIsland = hIsland.add(rect(3.438346621880588e-09, 3.5015698030403833e-09).transl(-1.5937154645462394e-08, 4e-08, 0))
hIsland = hIsland.add(rect(5.7589457252386525e-09, 2.652692451144241e-10).transl(-6.361445913033373e-08, 3.58912074618829e-08, 0))
hIsland = hIsland.sub(rect(2.5039000305739665e-09, -2.945662851991752e-09).transl(-7.766505078973981e-08, 3.217312637744267e-08, 0))
hIsland = hIsland.sub(rect(7.998326270848644e-09, -9.784328081455097e-10).transl(1.0707657892181487e-07, 1.6239749576718384e-08, 0))
hIsland = hIsland.add(rect(8.389223256892336e-09, 3.7156433172086935e-10).transl(4.187941223634666e-08, 3.914871020965328e-08, 0))
hIsland = hIsland.sub(rect(3.4738145623013584e-09, -3.791552234106542e-10).transl(-4.2045123816964455e-08, 3.913353431877972e-08, 0))
hIsland = hIsland.add(rect(2.7455145174323195e-09, 2.8516130616354254e-10).transl(5.5134775040869473e-08, 3.748057148398498e-08, 0))
hIsland = hIsland.sub(rect(8.570255422173554e-09, -1.0698265805080829e-10).transl(-2.328607876298591e-08, 3.9999806613288116e-08, 0))
hIsland = hIsland.sub(rect(5.653691517539478e-09, -2.0923303704253683e-09).transl(-2.3146098445839364e-08, 3.999994956339949e-08, 0))
hIsland = hIsland.add(rect(7.620749249574303e-09, 5.626371438553313e-10).transl(4.836142171699715e-08, 3.845012060790331e-08, 0))
hIsland = hIsland.add(rect(2.107084307171699e-09, 1.314053481367196e-10).transl(-5.5072146316668805e-08, 3.749071070992633e-08, 0))
hIsland = hIsland.add(rect(2.9013537738535017e-09, 4.820717665962661e-10).transl(-3.268211080081609e-08, 3.977787268184114e-08, 0))
hIsland = hIsland.sub(rect(5.302283981992375e-09, -2.6780958827863074e-09).transl(-7.037684091190985e-08, 3.4288432262145826e-08, 0))
hIsland = hIsland.add(rect(3.2661833243230158e-09, 2.7265084832192763e-09).transl(8.60637884941078e-08, 2.9123810345971827e-08, 0))
hIsland = hIsland.add(rect(6.300597466171328e-09, 2.873213390300953e-09).transl(9.381407324312016e-08, 2.5535353122973193e-08, 0))
hIsland = hIsland.sub(rect(8.59341807288221e-09, -1.7088711299043953e-09).transl(-8.63359257944371e-09, 4e-08, 0))
hIsland = hIsland.add(rect(9.278521198858383e-09, 2.0639284275818783e-09).transl(-1.1391809038181155e-07, 6.116401473097064e-09, 0))
hIsland = hIsland.sub(rect(2.2534859468734113e-09, -3.9530675427770605e-09).transl(5.782540627457917e-08, 3.70234459965755e-08, 0))
hIsland = hIsland.add(rect(6.980739503265251e-09, 5.204499971498366e-09).transl(-6.345537436248661e-08, 3.592515504053394e-08, 0))
hIsland = hIsland.add(rect(7.99898668791012e-09, 1.3381308301198907e-09).transl(2.5327970928904185e-08, 3.998719206891821e-08, 0))
hIsland = hIsland.add(rect(8.70960921127972e-09, 3.2176258357809337e-09).transl(-4.382117043375615e-08, 3.896214745328773e-08, 0))
hIsland = hIsland.sub(rect(2.748785106318869e-09, -9.679177701442e-10).transl(-1.5104024229842584e-08, 4e-08, 0))
hIsland = hIsland.add(rect(2.1580830045225064e-09, 2.6806464265133016e-09).transl(9.833958014132345e-08, 2.2956965016014684e-08, 0))
hIsland = hIsland.sub(rect(5.5344729997652035e-09, -1.1618793745456704e-09).transl(1.0544224580642366e-07, 1.7753170628682625e-08, 0))
hIsland = hIsland.add(rect(9.58549920408618e-09, 1.1176434374421678e-09).transl(1.0584605160070233e-07, 1.7394193967406472e-08, 0))
hIsland = hIsland.add(rect(6.4451876684521225e-09, 6.671445334219095e-10).transl(8.252817856646762e-08, 3.049805831173769e-08, 0))
hIsland = hIsland.add(rect(5.064962760468766e-09, 1.980813940983307e-09).transl(2.3604066540162683e-08, 3.999913775917334e-08, 0))
hIsland = hIsland.sub(rect(5.988141298221792e-09, -1.767092459048973e-09).transl(1.0497198447858443e-07, 1.816014540219512e-08, 0))
hIsland = hIsland.add(rect(8.959758691168603e-09, 1.4103142293067144e-09).transl(-3.819077809608354e-08, 3.9450958431208426e-08, 0))
hIsland = hIsland.add(rect(6.41493073733245e-09, 1.2644764012979465e-09).transl(-6.046106253878292e-08, 3.6533819931191494e-08, 0))
hIsland = hIsland.sub(rect(7.3128785062932025e-09, -3.0857859796236195e-10).transl(-1.3295881468537566e-08, 4e-08, 0))
hIsland = hIsland.sub(rect(2.1135429996370814e-09, -9.942229740064794e-10).transl(-9.926237949190851e-08, 2.237356610282105e-08, 0))
hIsland = hIsland.add(rect(6.262735562438815e-09, 1.4581888776801917e-09).transl(-3.104255418966249e-08, 3.984686500443577e-08, 0))
hIsland = hIsland.sub(rect(5.294185550084363e-09, -1.4114971479855944e-09).transl(4.4480472163032326e-08, 3.889443158412296e-08, 0))
hIsland = hIsland.add(rect(9.136831433790279e-09, 1.1441869367085478e-09).transl(-8.936254246977175e-08, 2.7703578679201967e-08, 0))
vIsland = hIsland.rotz(pi / 2)
vIslands = vIslands.add(vIsland.transl(0, -a/2, 0))
DefRegion(1, hIslands)
DefRegion(2, vIslands)
TableAdd(m_full.Region(1))
TableAdd(m_full.Region(2))
setgeom(hIslands.add(vIslands))
save(geom)
r2o2 := sqrt(2) / 2
m = RandomMagSeed(4)
B_ext = vector(Bmax*r2o2, Bmax*r2o2, 0)
relax()
minimize()
for B := Bmax; B >= -Bmax; B -= Bstep {
	B_ext = vector(B*r2o2, B*r2o2, 0)
	minimize()
	tablesave()
}
//********************************************************************//
//Please cite the following references, relevant for your simulation. //
//See bibtex file in output folder for justification.                 //
//********************************************************************//
//   * Exl et al., J. Appl. Phys. 115, 17D118 (2014).
//   * Vansteenkiste et al., AIP Adv. 4, 107133 (2014).
