//mumax 3.10 [windows_amd64 go1.11.6(gc) CUDA-11.0]
//GPU info: NVIDIA GeForce RTX 3090(24575MB), CUDA Driver 12.1, cc=8.6, using cc=80 PTX
//(c) Arne Vansteenkiste, Dynamat LAB, Ghent University, Belgium
//This is free software without any warranty. See license.txt
//********************************************************************//
//  If you use mumax in any work or publication,                      //
//  we kindly ask you to cite the references in references.bib        //
//********************************************************************//
//output directory: r1;p0.5;a4.4e-07;l3.0000000000000004e-07;s5.out/
randSeed(5)
ThermSeed(5)
resolution := 2e-09
zResolution := 5e-09
a := 4.4e-07
gridSize := 440
gridDepth := 5
SetCellsize(resolution, resolution, zResolution)
SetGridsize(gridSize, gridSize, gridDepth)
SetPBC(16, 16, 0)
//resizing...
Msat = 700e3
Aex = 13e-12
alpha = 0.2
Bmax := 0.1
Bstep := Bmax / 500.0
TableAdd(B_ext)
TableAdd(m_full)
islandWidth := 8e-08
islandLength := 3.0000000000000004e-07
ellipseConstant := 7.500000000000001e-08
hIsland := Universe().Inverse()
vIsland := Universe().Inverse()
vIslands := Universe().Inverse()
hIslands := Universe().Inverse()
hIsland = rect(islandLength-2*ellipseConstant, islandWidth)
hIsland = hIsland.add(ellipse(ellipseConstant*2, islandWidth).transl(islandLength/2-ellipseConstant, 0, 0))
hIsland = hIsland.add(ellipse(ellipseConstant*2, islandWidth).transl(-islandLength/2+ellipseConstant, 0, 0))
hIsland = hIsland.sub(rect(9.717675033334213e-09, -1.0654686148900023e-09).transl(-1.2211566447838672e-07, -3.112178988630497e-08, 0))
hIsland = hIsland.sub(rect(6.480151945790343e-09, -6.702891763416149e-10).transl(-1.0184143625290041e-08, -4e-08, 0))
hIsland = hIsland.add(rect(5.332188986425421e-09, 2.8290507375794043e-10).transl(-3.2032246035483214e-08, -4e-08, 0))
hIsland = hIsland.sub(rect(6.289861363821867e-09, -4.033244412805673e-10).transl(2.542812920112281e-08, -4e-08, 0))
hIsland = hIsland.add(rect(6.35063239868949e-09, 2.554005299005436e-09).transl(-1.2538357832938412e-07, -2.9629990979300105e-08, 0))
hIsland = hIsland.sub(rect(3.1917918177773575e-09, -8.704363354415465e-10).transl(2.3232807430512934e-08, -4e-08, 0))
hIsland = hIsland.sub(rect(9.951135138065678e-09, -1.21998342695617e-09).transl(-2.1867696646682818e-08, -4e-08, 0))
hIsland = hIsland.sub(rect(3.821222768865322e-09, -9.936498931715e-10).transl(1.3694182120552436e-07, -2.255319541661868e-08, 0))
hIsland = hIsland.sub(rect(8.108919845846367e-09, -1.1346267654867042e-09).transl(-8.600872504741023e-08, -3.956674868068745e-08, 0))
hIsland = hIsland.sub(rect(6.422394443324072e-09, -4.5369811899508484e-09).transl(1.240589526732859e-07, -3.025565338587661e-08, 0))
hIsland = hIsland.add(rect(5.2127958394542665e-09, 2.4235773739943188e-09).transl(-4.32199042053029e-08, -4e-08, 0))
hIsland = hIsland.sub(rect(5.222839256354058e-09, -3.1122106770932196e-09).transl(-1.3852622603660371e-07, -2.1262673685223378e-08, 0))
hIsland = hIsland.sub(rect(3.2588212983104006e-09, -1.1008370096224986e-09).transl(-9.813663824737616e-08, -3.8049122759287154e-08, 0))
hIsland = hIsland.add(rect(8.691897637346462e-09, 1.4035883656483239e-09).transl(9.883792984412819e-08, -3.792578709050793e-08, 0))
hIsland = hIsland.add(rect(6.728695421516909e-09, 2.594847077577184e-10).transl(5.64528557653653e-08, -4e-08, 0))
hIsland = hIsland.add(rect(6.950672786891718e-09, 1.079260283624105e-09).transl(6.560055899718642e-08, -4e-08, 0))
hIsland = hIsland.add(rect(9.633194268988114e-09, 4.027060421878316e-09).transl(-3.004710688064567e-08, -4e-08, 0))
hIsland = hIsland.sub(rect(2.4201776896649704e-09, -1.7460554222475977e-09).transl(-4.597184235463732e-08, -4e-08, 0))
hIsland = hIsland.add(rect(8.678586070367505e-09, 2.9776598139666313e-09).transl(1.0598840930225083e-07, -3.64259970223121e-08, 0))
hIsland = hIsland.sub(rect(3.553023540512408e-09, -1.066688875441178e-09).transl(-5.2239725916502624e-08, -4e-08, 0))
hIsland = hIsland.add(rect(6.834914196046211e-09, 2.2580485731011482e-09).transl(-1.363684042251762e-07, -2.299476400523913e-08, 0))
hIsland = hIsland.add(rect(5.350791760542183e-09, 3.6716191659803483e-10).transl(-5.329592873042243e-09, -4e-08, 0))
hIsland = hIsland.sub(rect(8.747335052305596e-09, -5.224098868700611e-10).transl(-1.0358805067915815e-07, -3.69801324999379e-08, 0))
hIsland = hIsland.sub(rect(4.673125659674509e-09, -1.2165119688196888e-09).transl(-1.4108890264190387e-07, -1.8910836945541523e-08, 0))
hIsland = hIsland.sub(rect(3.0727829986727626e-09, -8.555079632756445e-10).transl(5.607346132366183e-08, -4e-08, 0))
hIsland = hIsland.sub(rect(2.1058777908930565e-09, -3.6344972892252655e-09).transl(1.3716447990487028e-07, -2.2378258897822816e-08, 0))
hIsland = hIsland.add(rect(3.0372119130140974e-09, 2.335609095963067e-10).transl(1.1475483420475532e-07, -3.391829411791124e-08, 0))
hIsland = hIsland.add(rect(9.17397355684565e-09, 1.877876599378147e-11).transl(-1.2099301257927476e-08, -4e-08, 0))
hIsland = hIsland.add(rect(8.73606089973897e-09, 4.036329094634034e-10).transl(1.363744000261957e-07, -2.299021176947255e-08, 0))
hIsland = hIsland.sub(rect(6.905178414667238e-09, -3.138150720172212e-09).transl(6.827230193109713e-08, -4e-08, 0))
hIsland = hIsland.sub(rect(4.044841111790933e-09, -6.138874012365921e-10).transl(-1.3467177358443945e-07, -2.4231649091989263e-08, 0))
hIsland = hIsland.sub(rect(8.373207199579178e-09, -1.3476264311958886e-09).transl(-8.444474527409587e-08, -3.968156551287184e-08, 0))
hIsland = hIsland.sub(rect(6.853167206258159e-09, -7.670895848839275e-10).transl(5.713308978486411e-08, -4e-08, 0))
hIsland = hIsland.add(rect(6.373862311724285e-09, 7.710716157848681e-10).transl(-8.565449077944301e-08, -3.959432265019648e-08, 0))
hIsland = hIsland.sub(rect(6.836905672790424e-09, -3.5179021824361125e-09).transl(1.108351069596659e-07, -3.513871476737213e-08, 0))
hIsland = hIsland.sub(rect(3.2081398509094243e-09, -2.8948489274059796e-09).transl(-1.448881158178558e-07, -1.4514618089746393e-08, 0))
hIsland = hIsland.sub(rect(4.989921299622288e-09, -1.1232587040288899e-10).transl(6.48819225328297e-08, -4e-08, 0))
hIsland = hIsland.sub(rect(2.3458591470431297e-09, -3.439114773814306e-09).transl(9.860062446972668e-08, -3.796797911555895e-08, 0))
hIsland = hIsland.add(rect(8.470788240702486e-09, 1.5513847092485713e-10).transl(-5.1795107075539403e-08, -4e-08, 0))
hIsland = hIsland.add(rect(8.188306013222092e-09, 1.0181455476823457e-09).transl(1.0959829271718592e-07, -3.548954907371896e-08, 0))
hIsland = hIsland.add(rect(2.237313570999695e-09, 1.1396017713130867e-09).transl(5.88414690656613e-09, -4e-08, 0))
hIsland = hIsland.add(rect(6.958851438643348e-09, 7.907194103769994e-11).transl(1.3260031862104088e-07, -2.5617789900708777e-08, 0))
hIsland = hIsland.add(rect(6.278596953279856e-09, 1.1930315829424981e-09).transl(-1.1412659393864301e-07, -3.41254559525209e-08, 0))
hIsland = hIsland.add(rect(6.686330100842085e-09, 3.6856455166184806e-10).transl(-1.3086026639792423e-07, -2.6691351976830592e-08, 0))
hIsland = hIsland.add(rect(2.235715952881747e-09, 4.691888218811533e-09).transl(-1.3168232309326715e-07, -2.619374920515117e-08, 0))
hIsland = hIsland.add(rect(5.06231713643624e-09, 1.7243492180056477e-09).transl(-1.4773992826831312e-08, -4e-08, 0))
hIsland = hIsland.sub(rect(2.777198467162955e-09, -2.8785152712551794e-10).transl(-5.679905992330855e-08, -4e-08, 0))
hIsland = hIsland.add(rect(7.378734871885647e-09, 1.3090229535464558e-09).transl(5.3828636811654977e-08, -4e-08, 0))
hIsland = hIsland.sub(rect(9.787765274165248e-09, -2.2767670991704375e-10).transl(-4.807293516249103e-08, -4e-08, 0))
hIsland = hIsland.add(rect(5.352668608271757e-09, 1.4846843598749484e-09).transl(8.560881908605401e-08, -3.959781078608373e-08, 0))
hIsland = hIsland.sub(rect(4.573603819242902e-09, -2.1333253663592274e-09).transl(-6.754473319802015e-08, -4e-08, 0))
hIsland = hIsland.add(rect(8.946559768261215e-09, 1.3093948150461674e-09).transl(6.791671434787649e-08, -4e-08, 0))
hIsland = hIsland.add(rect(2.583124780843935e-09, 2.755730513776711e-09).transl(5.0278779817144135e-08, -4e-08, 0))
hIsland = hIsland.add(rect(6.101800368881847e-09, 5.59165284491497e-10).transl(1.215110673154424e-07, -3.1379407224725994e-08, 0))
hIsland = hIsland.add(rect(3.229289145351306e-09, 1.4100476777426783e-10).transl(4.6808528194993854e-08, -4e-08, 0))
hIsland = hIsland.add(rect(4.248031746927958e-09, 2.6831913414336383e-09).transl(-1.2429271666467447e-07, -3.0147385909467586e-08, 0))
hIsland = hIsland.add(rect(5.390325577662204e-09, 1.3090599146455787e-09).transl(1.0308039414841491e-07, -3.709060700057862e-08, 0))
hIsland = hIsland.sub(rect(4.093070540167476e-09, -2.4033100264931314e-09).transl(1.3987191544656226e-07, -2.0073710117444776e-08, 0))
hIsland = hIsland.add(rect(5.197189432530553e-09, 2.1801847775860876e-09).transl(-8.363326622351957e-08, -3.973410903695187e-08, 0))
hIsland = hIsland.sub(rect(9.106242004151902e-09, -1.586329430412161e-09).transl(-6.078625431499794e-08, -4e-08, 0))
hIsland = hIsland.add(rect(9.948089370065622e-09, 5.929203243139961e-10).transl(-4.415272733031409e-08, -4e-08, 0))
hIsland = hIsland.sub(rect(3.7799107980483255e-09, -1.322023254771137e-10).transl(9.100446222078747e-08, -3.907865914323724e-08, 0))
hIsland = hIsland.add(rect(6.003950893835539e-09, 1.2605959406825533e-09).transl(-1.641758179261677e-08, -4e-08, 0))
hIsland = hIsland.sub(rect(2.422694423234119e-09, -1.2503239952762705e-09).transl(-1.346169697883408e-08, -4e-08, 0))
hIsland = hIsland.add(rect(5.588803289831593e-09, 8.669403786256275e-10).transl(1.085512862397085e-07, -3.5774349362283676e-08, 0))
hIsland = hIsland.add(rect(4.609934235318687e-09, 2.8865022860500827e-09).transl(5.543464778050569e-08, -4e-08, 0))
hIsland = hIsland.sub(rect(3.546708153012751e-09, -2.1871309335765258e-09).transl(8.320007237998531e-08, -3.976020143195298e-08, 0))
hIsland = hIsland.add(rect(5.655188597893567e-09, 2.2238027058077883e-09).transl(2.447351161647795e-08, -4e-08, 0))
hIsland = hIsland.add(rect(3.0470798856398043e-09, 1.140778792094647e-09).transl(1.304490448277782e-07, -2.6934143500353755e-08, 0))
hIsland = hIsland.sub(rect(7.587134365715567e-09, -1.7079846914315944e-09).transl(1.0129780463929599e-07, -3.7460452044126576e-08, 0))
hIsland = hIsland.add(rect(2.4815302938985958e-09, 9.207442622532977e-10).transl(-6.820788245162891e-08, -4e-08, 0))
hIsland = hIsland.sub(rect(5.072047397012901e-09, -2.9506609631431225e-09).transl(9.077592501355315e-08, -3.9105083054529534e-08, 0))
hIsland = hIsland.add(rect(9.882984415666155e-09, 1.240259784852223e-09).transl(-7.004193590596602e-08, -4e-08, 0))
hIsland = hIsland.sub(rect(6.87132893070276e-09, -2.9736355935771833e-10).transl(-2.1746674035378288e-08, -4e-08, 0))
hIsland = hIsland.sub(rect(4.2550668240648526e-09, -1.2799381920669006e-09).transl(-1.8749786878323533e-08, -4e-08, 0))
hIsland = hIsland.add(rect(4.0015645845095775e-09, 6.086960955581346e-10).transl(-1.4840899881326202e-07, -8.195285681959125e-09, 0))
hIsland = hIsland.add(rect(2.208283725329408e-09, 1.3494101095417941e-09).transl(1.0132882862247668e-08, -4e-08, 0))
hIsland = hIsland.add(rect(9.30749503551953e-09, 4.3915557828947783e-10).transl(-5.4651258538348585e-08, -4e-08, 0))
hIsland = hIsland.add(rect(7.58914500080286e-09, 1.3740413993793196e-09).transl(-1.2365605714980318e-07, -3.044015174211308e-08, 0))
hIsland = hIsland.sub(rect(5.539984589610203e-09, -3.118068523639202e-09).transl(-6.331147778180849e-08, -4e-08, 0))
hIsland = hIsland.sub(rect(6.135238662555687e-09, -7.882259564716929e-10).transl(6.79157257677592e-08, -4e-08, 0))
hIsland = hIsland.add(rect(5.194259449209311e-09, 5.750164033031737e-10).transl(7.256022290096509e-08, -4e-08, 0))
hIsland = hIsland.add(rect(8.383362658261814e-09, 1.807735258999769e-10).transl(-6.552211142002498e-08, -4e-08, 0))
hIsland = hIsland.add(rect(7.076073008065324e-09, 2.0732047381709836e-09).transl(-1.4004285765956043e-07, -1.9915745498206796e-08, 0))
hIsland = hIsland.sub(rect(5.1318083653732826e-09, -3.259794789648988e-11).transl(1.2669534533723412e-07, -2.8980134292281667e-08, 0))
hIsland = hIsland.add(rect(8.161063228933687e-09, 1.9718161092634227e-09).transl(9.259989281101094e-08, -3.888304980463105e-08, 0))
hIsland = hIsland.add(rect(5.988250457009376e-09, 1.6139090426867746e-09).transl(5.5307766235428155e-08, -4e-08, 0))
hIsland = hIsland.sub(rect(9.881085831893267e-09, -2.2588013072059406e-10).transl(-6.65011803623886e-08, -4e-08, 0))
hIsland = hIsland.sub(rect(8.470927542954183e-09, -1.4595124420428555e-09).transl(-2.146235357182156e-08, -4e-08, 0))
hIsland = hIsland.sub(rect(6.389611970335043e-09, -1.717184376034763e-09).transl(-2.1530423924105647e-09, -4e-08, 0))
hIsland = hIsland.sub(rect(3.2141683615577552e-09, -7.448750620220168e-10).transl(-1.1154268077565508e-07, -3.493081917356257e-08, 0))
hIsland = hIsland.add(rect(6.6280220641857516e-09, 2.7018229529869084e-09).transl(5.977047966955223e-08, -4e-08, 0))
hIsland = hIsland.sub(rect(7.985459284113602e-09, -1.5337913127155508e-09).transl(2.1994983384467008e-08, -4e-08, 0))
hIsland = hIsland.add(rect(2.6438454702859026e-09, 1.2081073305814813e-09).transl(1.1280966030919035e-07, -3.454513913948485e-08, 0))
hIsland = hIsland.add(rect(5.76952361324066e-09, 1.5153254424703848e-09).transl(-2.0348315751624e-08, -4e-08, 0))
hIsland = hIsland.sub(rect(8.688860952740246e-09, -1.6063887187957228e-09).transl(5.46929520418144e-08, -4e-08, 0))
hIsland = hIsland.sub(rect(9.137415826254553e-09, -2.329771241748449e-09).transl(-8.563574347588877e-09, -4e-08, 0))
hIsland = hIsland.add(rect(4.296147504427562e-09, 2.2807836255454661e-10).transl(-4.904903897388085e-08, -4e-08, 0))
hIsland = hIsland.sub(rect(5.696178432532881e-09, -1.6897735234033377e-09).transl(-1.0219930548209253e-07, -3.727690127814787e-08, 0))
hIsland = hIsland.sub(rect(7.312211858734332e-09, -1.176660496701843e-09).transl(-1.4538742242407967e-07, -1.3811281850176249e-08, 0))
hIsland = hIsland.sub(rect(6.033952908255639e-09, -9.02167690853253e-10).transl(8.6984775654557e-08, -3.9485995816274245e-08, 0))
hIsland = hIsland.sub(rect(7.827835597769552e-09, -2.028528840372103e-09).transl(1.4358022534997412e-07, -1.619220281776156e-08, 0))
hIsland = hIsland.sub(rect(9.503728338405177e-09, -1.9002253302657626e-09).transl(9.686368854125733e-08, -3.8262639967916325e-08, 0))
hIsland = hIsland.add(rect(4.878420252739799e-09, 1.3506200185047235e-09).transl(1.0743683337553829e-07, -3.6065527880747795e-08, 0))
hIsland = hIsland.add(rect(4.0271317577759586e-09, 2.9953016117784897e-09).transl(4.877778955868553e-08, -4e-08, 0))
hIsland = hIsland.sub(rect(2.1383746061567753e-09, -2.2836090505168483e-09).transl(6.133216569158602e-08, -4e-08, 0))
hIsland = hIsland.add(rect(3.948105213901754e-09, 1.7267872371221795e-10).transl(1.0679628873090503e-07, -3.622741414197689e-08, 0))
hIsland = hIsland.add(rect(8.247348258342438e-09, 2.3318344125375724e-11).transl(-1.0292838184730663e-07, -3.712323927395382e-08, 0))
hIsland = hIsland.sub(rect(4.952200472915689e-09, -1.9323016176017265e-10).transl(1.0157821092875742e-07, -3.7404118433069476e-08, 0))
hIsland = hIsland.add(rect(3.2589782514611018e-09, 1.3632099364667508e-09).transl(-3.213886154814504e-08, -4e-08, 0))
hIsland = hIsland.sub(rect(3.5974923266376857e-09, -7.496985510217389e-10).transl(1.679184674710239e-11, -4e-08, 0))
hIsland = hIsland.sub(rect(2.5297477111832196e-09, -3.2665216305406883e-09).transl(1.3747457209430676e-07, -2.2131263142595296e-08, 0))
hIsland = hIsland.add(rect(6.709011207334114e-09, 2.1712887309530756e-09).transl(1.189600796362544e-07, -3.240855370600978e-08, 0))
hIsland = hIsland.sub(rect(5.615716888884124e-09, -1.0031567245608125e-09).transl(5.094663664830498e-09, -4e-08, 0))
hIsland = hIsland.sub(rect(2.982486278565925e-09, -4.61089217053161e-09).transl(-5.335839414783382e-08, -4e-08, 0))
hIsland = hIsland.sub(rect(4.8976702886341945e-09, -1.4188565784886325e-10).transl(-1.4055231482181027e-07, -1.9434816109943364e-08, 0))
hIsland = hIsland.sub(rect(4.533259585267031e-09, -2.5270450043611513e-09).transl(2.0834288431525196e-08, -4e-08, 0))
hIsland = hIsland.add(rect(8.885973244301081e-09, 1.0232558228144168e-10).transl(5.337723415770596e-08, -4e-08, 0))
hIsland = hIsland.add(rect(6.3137923383152064e-09, 2.7615643233398058e-09).transl(-1.53683223854634e-08, -4e-08, 0))
hIsland = hIsland.sub(rect(3.1192876029439846e-09, -1.994378791470239e-09).transl(3.54784089330818e-08, -4e-08, 0))
hIsland = hIsland.sub(rect(5.736354833037139e-09, -5.716329761430019e-10).transl(-1.0798175657398961e-07, -3.592467668954166e-08, 0))
hIsland = hIsland.add(rect(8.643696135704801e-09, 7.313180867111767e-10).transl(-1.0797154410438606e-07, -3.5927343092527525e-08, 0))
hIsland = hIsland.add(rect(7.187574492868661e-09, 1.3625745511579989e-09).transl(-8.879863075090209e-08, -3.93171864327162e-08, 0))
hIsland = hIsland.sub(rect(7.235969607605216e-09, -1.9251028722131876e-09).transl(6.467915469751117e-08, -4e-08, 0))
hIsland = hIsland.sub(rect(4.230918972777663e-09, -1.509124561496746e-10).transl(-1.0687797129613316e-07, -3.6206989905065836e-08, 0))
hIsland = hIsland.sub(rect(4.295542009813821e-09, -3.886234140483566e-10).transl(-4.1202123905180525e-08, -4e-08, 0))
hIsland = hIsland.sub(rect(9.843892942744283e-09, -8.436361313096394e-10).transl(5.885784385315641e-08, -4e-08, 0))
hIsland = hIsland.add(rect(9.303287072758753e-09, 1.0181194534439946e-09).transl(1.0777643525734162e-07, -3.5978088311672445e-08, 0))
hIsland = hIsland.sub(rect(4.7931035993015306e-09, -2.8812987794160463e-10).transl(-1.4004391146498858e-07, -1.9914766515262836e-08, 0))
hIsland = hIsland.sub(rect(6.123285217810001e-09, -1.9850479537574167e-09).transl(7.928738610784422e-08, -3.993458943506855e-08, 0))
hIsland = hIsland.sub(rect(9.945351812731126e-09, -4.12557314832696e-09).transl(-1.4823330415567335e-07, -8.630829082443399e-09, 0))
hIsland = hIsland.add(rect(9.323782747237381e-09, 8.877769335580723e-11).transl(1.1615372204670446e-07, -3.34403451835564e-08, 0))
hIsland = hIsland.sub(rect(5.935754154914265e-09, -2.6555267554121638e-09).transl(2.8588182593547686e-08, -4e-08, 0))
hIsland = hIsland.sub(rect(5.510882872587311e-09, -1.0350232915876137e-09).transl(1.1380413313312177e-07, -3.4230026592281394e-08, 0))
hIsland = hIsland.add(rect(5.560097524209999e-09, 1.027153760967076e-09).transl(1.0195265788597556e-07, -3.732782524274589e-08, 0))
hIsland = hIsland.sub(rect(3.6091528235856086e-09, -8.196426135759558e-10).transl(-9.29128872023535e-08, -3.884237217912353e-08, 0))
hIsland = hIsland.add(rect(2.4338414156315286e-09, 6.88271657746648e-10).transl(1.0258285146614891e-07, -3.7196649999683666e-08, 0))
hIsland = hIsland.add(rect(7.048621784029748e-09, 9.8078223064349e-10).transl(-1.0101988412270329e-07, -3.751561454680082e-08, 0))
hIsland = hIsland.add(rect(7.312467460736697e-09, 2.7899511607077577e-09).transl(-1.3880654714582414e-07, -2.1022566779003545e-08, 0))
hIsland = hIsland.sub(rect(3.1331986367080325e-09, -4.622049784240249e-09).transl(-1.4022088380996427e-07, -1.974944434245257e-08, 0))
hIsland = hIsland.sub(rect(6.408981399738467e-09, -3.736410099800083e-09).transl(9.580800817680363e-08, -3.8429717374026555e-08, 0))
hIsland = hIsland.sub(rect(8.192691739079589e-09, -1.8328809469713613e-10).transl(-5.402532565230335e-09, -4e-08, 0))
hIsland = hIsland.add(rect(7.032388113249562e-09, 1.0260984169980369e-09).transl(-1.1520204955064076e-07, -3.376802521540695e-08, 0))
hIsland = hIsland.sub(rect(6.895874180027667e-09, -8.057661734328452e-10).transl(-1.335010900266356e-07, -2.503045592025049e-08, 0))
hIsland = hIsland.add(rect(7.237325066584601e-09, 1.8188642218918802e-09).transl(-8.918524872323612e-08, -3.9278031065963885e-08, 0))
hIsland = hIsland.sub(rect(6.1086981284716866e-09, -4.5553334043143835e-10).transl(-3.919066908821319e-08, -4e-08, 0))
hIsland = hIsland.add(rect(9.150857337418782e-09, 2.120371482161639e-09).transl(-1.2059845713543752e-07, -3.1758111141672194e-08, 0))
hIsland = hIsland.add(rect(9.122870009613096e-09, 1.796092126596676e-09).transl(-9.926056375966847e-09, -4e-08, 0))
hIsland = hIsland.add(rect(6.031197267565006e-09, 7.376032005358872e-10).transl(-6.133638166634279e-08, -4e-08, 0))
hIsland = hIsland.sub(rect(6.090605180867413e-09, -1.3878477278524765e-09).transl(-1.2217130529130822e-07, -3.1097806228829335e-08, 0))
hIsland = hIsland.sub(rect(6.970090929949212e-09, -2.188402810758961e-09).transl(-4.761552877810829e-08, -4e-08, 0))
hIsland = hIsland.add(rect(5.498028590188858e-09, 7.104956756910276e-10).transl(-5.832101644445369e-09, -4e-08, 0))
hIsland = hIsland.sub(rect(5.2613909319250205e-09, -1.3811970044846046e-09).transl(4.577643285097957e-08, -4e-08, 0))
hIsland = hIsland.sub(rect(7.24207777304345e-09, -1.888180288588822e-09).transl(-6.659843287073602e-08, -4e-08, 0))
hIsland = hIsland.sub(rect(5.126309661716818e-09, -3.6082830161784426e-09).transl(-7.422195167388048e-09, -4e-08, 0))
hIsland = hIsland.add(rect(5.33298893315267e-09, 3.9824044531487124e-10).transl(-5.6234456126179625e-08, -4e-08, 0))
hIsland = hIsland.add(rect(3.3456787004368986e-09, 4.3567423968397376e-10).transl(-6.488400787533426e-08, -4e-08, 0))
hIsland = hIsland.sub(rect(5.846458486785384e-09, -3.7191465251552096e-10).transl(1.4699975549886775e-07, -1.1200447078102441e-08, 0))
hIsland = hIsland.add(rect(6.771657425093629e-09, 2.3278877854656877e-09).transl(1.2546444376846477e-07, -2.9590820991871815e-08, 0))
hIsland = hIsland.add(rect(9.876041253599443e-09, 2.308435510190575e-10).transl(1.0301860551139924e-07, -3.710389591359686e-08, 0))
hIsland = hIsland.add(rect(6.158240334411002e-09, 9.536977363513603e-10).transl(1.194988335670972e-07, -3.2198733164502553e-08, 0))
hIsland = hIsland.add(rect(9.782479816744591e-09, 1.2329830118484471e-09).transl(1.1237660307664154e-07, -3.4678929287385014e-08, 0))
hIsland = hIsland.add(rect(8.856915872117089e-09, 2.5478337699843807e-09).transl(1.0700626880868627e-07, -3.617478068394251e-08, 0))
hIsland = hIsland.sub(rect(3.042842360236894e-09, -2.155486322982277e-09).transl(-1.3885093447705142e-07, -2.09841975093499e-08, 0))
hIsland = hIsland.add(rect(8.435054647558119e-09, 6.964278989355816e-10).transl(6.401608882445212e-09, -4e-08, 0))
hIsland = hIsland.sub(rect(9.516256709603405e-09, -1.1243769797625148e-09).transl(-1.5433973576122468e-08, -4e-08, 0))
hIsland = hIsland.add(rect(7.343835982490335e-09, 4.054640323053843e-10).transl(-2.1647649588686608e-08, -4e-08, 0))
hIsland = hIsland.sub(rect(4.347251404934391e-09, -4.956062783241868e-09).transl(2.9465275463096362e-08, -4e-08, 0))
hIsland = hIsland.sub(rect(4.672302536186547e-09, -1.2445939719335498e-09).transl(7.917607172820877e-08, -3.993794448585537e-08, 0))
hIsland = hIsland.add(rect(7.168743955590416e-09, 1.0026270181797242e-09).transl(1.4376421414421215e-07, -1.5968705868423743e-08, 0))
hIsland = hIsland.sub(rect(6.733169384231597e-09, -1.7460188110408035e-09).transl(1.401891245319881e-07, -1.9779247793380567e-08, 0))
hIsland = hIsland.sub(rect(8.989322625342904e-09, -3.58233334236943e-09).transl(3.232745502055175e-08, -4e-08, 0))
hIsland = hIsland.sub(rect(6.921438678976266e-09, -2.2866513679686287e-09).transl(-1.2877989580659465e-07, -2.788024068523854e-08, 0))
hIsland = hIsland.add(rect(4.153608874388695e-09, 3.0032112663558753e-09).transl(1.1911357509831849e-07, -3.2349172717629536e-08, 0))
hIsland = hIsland.sub(rect(7.43989439910152e-09, -8.627740302227354e-10).transl(-1.1792627720061979e-07, -3.28003673722323e-08, 0))
hIsland = hIsland.add(rect(3.6808032564520536e-09, 2.4579981317250117e-09).transl(-1.026043291742528e-07, -3.719211772487569e-08, 0))
hIsland = hIsland.add(rect(4.241664478879424e-09, 8.023018305507822e-10).transl(8.14339261227975e-08, -3.985254454764009e-08, 0))
hIsland = hIsland.sub(rect(4.847739612715377e-09, -2.409607092454249e-09).transl(1.458994380350687e-07, -1.3045094424756545e-08, 0))
hIsland = hIsland.sub(rect(7.2140527589910185e-09, -1.1172152795047474e-09).transl(7.690681568184604e-08, -3.9987070102063396e-08, 0))
hIsland = hIsland.sub(rect(5.391014611750855e-09, -1.6126418603587765e-09).transl(-1.4779972572811277e-07, -9.617760370005242e-09, 0))
hIsland = hIsland.add(rect(9.415233432209323e-09, 3.992515484574479e-09).transl(-1.0512809732036638e-07, -3.66307130466401e-08, 0))
hIsland = hIsland.sub(rect(3.3594968816217653e-09, -2.1853322883961748e-10).transl(4.587647565449448e-09, -4e-08, 0))
hIsland = hIsland.sub(rect(5.573208460635406e-09, -1.33025641562149e-10).transl(-3.3261757557704044e-08, -4e-08, 0))
hIsland = hIsland.add(rect(5.961698307603776e-09, 5.892936997822871e-10).transl(-1.3037980408774365e-07, -2.6974633940385183e-08, 0))
hIsland = hIsland.sub(rect(3.3802469840614125e-09, -1.6189450886196495e-09).transl(3.38940256332731e-08, -4e-08, 0))
hIsland = hIsland.sub(rect(9.472574200494723e-09, -1.5969116123790072e-09).transl(-2.805349841199058e-08, -4e-08, 0))
hIsland = hIsland.sub(rect(4.203931482424129e-09, -2.0749011890740323e-10).transl(1.3254585508829056e-07, -2.5652582454194244e-08, 0))
hIsland = hIsland.add(rect(2.640365122165564e-09, 2.6727448595001995e-10).transl(8.598159295869445e-08, -3.956889324988795e-08, 0))
hIsland = hIsland.sub(rect(7.731081722438676e-09, -1.3942759289948475e-09).transl(-1.4846005734320217e-07, -8.064098326269169e-09, 0))
hIsland = hIsland.sub(rect(8.580911559736801e-09, -2.047816287662702e-09).transl(3.8478054928008734e-08, -4e-08, 0))
hIsland = hIsland.sub(rect(7.1648782471599135e-09, -2.1517915824323656e-09).transl(-2.11565232848436e-08, -4e-08, 0))
hIsland = hIsland.sub(rect(8.092817928329895e-09, -4.240092623426563e-10).transl(3.933679123138112e-08, -4e-08, 0))
hIsland = hIsland.sub(rect(6.610914377553862e-09, -2.247061305643876e-09).transl(-9.547136870184174e-09, -4e-08, 0))
hIsland = hIsland.sub(rect(3.190800472657712e-09, -3.3828376936022447e-09).transl(1.356592372796826e-07, -2.352391158794422e-08, 0))
hIsland = hIsland.sub(rect(3.6265021785478998e-09, -3.617795379978429e-09).transl(-1.200130519572522e-07, -3.199477803389505e-08, 0))
hIsland = hIsland.sub(rect(9.422825679969208e-09, -2.630338765936758e-09).transl(-1.37332108463134e-07, -2.2245232027517116e-08, 0))
hIsland = hIsland.sub(rect(4.285692764799684e-09, -2.340153031474622e-09).transl(4.6548420187766706e-08, -4e-08, 0))
hIsland = hIsland.sub(rect(7.614719005579512e-09, -1.561656494975374e-09).transl(-8.396180514968225e-08, -3.971341262939788e-08, 0))
hIsland = hIsland.sub(rect(3.8954574371651775e-09, -3.1213246584105787e-10).transl(-1.543682933594123e-08, -4e-08, 0))
hIsland = hIsland.sub(rect(8.28980559234939e-09, -3.3386915072737232e-09).transl(7.107867726553301e-08, -4e-08, 0))
hIsland = hIsland.add(rect(7.3807467067300155e-09, 5.458563620017597e-10).transl(1.4472323603395178e-07, 1.4738445997540874e-08, 0))
hIsland = hIsland.sub(rect(5.4049783089920695e-09, -3.707422146540911e-09).transl(-6.234176398552302e-08, 4e-08, 0))
hIsland = hIsland.sub(rect(6.1131171584921695e-09, -1.6271468355894474e-09).transl(3.129039398108508e-08, 4e-08, 0))
hIsland = hIsland.sub(rect(3.778321654009104e-09, -1.250673481163233e-09).transl(6.210932380224653e-08, 4e-08, 0))
hIsland = hIsland.sub(rect(4.842699909983816e-09, -1.3132746400542698e-09).transl(2.3051395748484227e-08, 4e-08, 0))
hIsland = hIsland.sub(rect(5.416285488945737e-09, -7.376872726930259e-10).transl(-1.3487514414843637e-07, 2.4088530719000682e-08, 0))
hIsland = hIsland.add(rect(3.1454768436852085e-09, 2.227991268625187e-09).transl(6.59698516568621e-08, 4e-08, 0))
hIsland = hIsland.sub(rect(4.9733979338113785e-09, -9.394738040057528e-10).transl(1.4353876190563387e-07, 1.6242063286054022e-08, 0))
hIsland = hIsland.add(rect(4.764357697938114e-09, 1.6205793237468028e-09).transl(1.2777079085535665e-07, 2.84234326240409e-08, 0))
hIsland = hIsland.add(rect(8.380850775471743e-09, 2.147665256460218e-09).transl(-1.453985516357368e-07, 1.3795137849706679e-08, 0))
hIsland = hIsland.sub(rect(3.916814026656678e-09, -2.8040440099443573e-09).transl(9.310956999901699e-08, 3.881642163167801e-08, 0))
hIsland = hIsland.add(rect(2.1822699902147323e-09, 1.6120176551945737e-09).transl(-4.64862809600751e-09, 4e-08, 0))
hIsland = hIsland.sub(rect(3.7517188705847006e-09, -1.2711649388052225e-09).transl(1.8700286974568826e-08, 4e-08, 0))
hIsland = hIsland.add(rect(2.652772168460192e-09, 2.2839179449188825e-09).transl(-4.3720803805296244e-08, 4e-08, 0))
hIsland = hIsland.add(rect(5.374741954117531e-09, 4.116571160330857e-10).transl(-1.0843209537525653e-07, 3.58060752091947e-08, 0))
hIsland = hIsland.sub(rect(5.515758807611384e-09, -3.3928328294824755e-10).transl(-3.03036908079943e-08, 4e-08, 0))
hIsland = hIsland.add(rect(6.208415542380965e-09, 2.6198591812736565e-09).transl(-4.628514583725594e-08, 4e-08, 0))
hIsland = hIsland.sub(rect(9.432364155365122e-09, -2.2479792286272276e-09).transl(-9.039071332002793e-08, 3.914872271985076e-08, 0))
hIsland = hIsland.sub(rect(2.270219913084523e-09, -3.091984953380599e-09).transl(4.9147425190824046e-08, 4e-08, 0))
hIsland = hIsland.sub(rect(8.101276569279298e-09, -2.2890435380122007e-10).transl(7.918160338026855e-08, 3.99377798505452e-08, 0))
hIsland = hIsland.add(rect(6.181172489185745e-09, 1.803689771728686e-09).transl(-3.697004237509716e-08, 4e-08, 0))
hIsland = hIsland.sub(rect(2.250585278024297e-09, -2.7281857672005195e-09).transl(-9.101176994546151e-08, 3.9077807642683075e-08, 0))
hIsland = hIsland.add(rect(7.281288441802542e-09, 2.8088609003957755e-10).transl(9.306720623505352e-08, 3.882203656957063e-08, 0))
hIsland = hIsland.sub(rect(8.832953224625338e-09, -1.821583139877204e-09).transl(1.2882998123034794e-07, 2.7852733337034144e-08, 0))
hIsland = hIsland.sub(rect(5.655310487579717e-09, -4.149085204938768e-10).transl(-1.2167332820959847e-07, 3.131080237913657e-08, 0))
hIsland = hIsland.add(rect(4.893417309287172e-09, 2.620780085686295e-09).transl(-6.378343006010176e-08, 4e-08, 0))
hIsland = hIsland.sub(rect(7.0115144720034966e-09, -1.5062182137631352e-09).transl(-7.229208359579368e-08, 4e-08, 0))
hIsland = hIsland.sub(rect(2.3458214107729e-09, -1.364053327783465e-09).transl(-5.7510963262192275e-08, 4e-08, 0))
hIsland = hIsland.add(rect(9.445374564207734e-09, 2.1759534137452916e-09).transl(5.505602570018202e-08, 4e-08, 0))
hIsland = hIsland.sub(rect(2.1508401719302815e-09, -2.7009122422786927e-09).transl(-1.0474925757121252e-07, 3.6718679904469206e-08, 0))
hIsland = hIsland.sub(rect(6.826096628614158e-09, -2.4585265561619032e-09).transl(-1.018771796775976e-07, 3.7343302335968607e-08, 0))
hIsland = hIsland.add(rect(3.3507846984520698e-09, 3.9022910335510534e-10).transl(-5.1610272953229734e-08, 4e-08, 0))
hIsland = hIsland.sub(rect(4.107878845663462e-09, -5.721863094791733e-10).transl(-7.208986557687047e-08, 4e-08, 0))
hIsland = hIsland.add(rect(4.423538937693446e-09, 1.1592866905593867e-09).transl(-1.2687608867246923e-07, 2.8888119137185574e-08, 0))
hIsland = hIsland.sub(rect(8.813374012266416e-09, -8.128253626940336e-10).transl(-8.82644139233558e-08, 3.9369448995058914e-08, 0))
hIsland = hIsland.sub(rect(5.323620024374961e-09, -1.7447194095742276e-09).transl(1.0300426065928299e-07, 3.710697620156703e-08, 0))
hIsland = hIsland.sub(rect(3.1169696503521545e-09, -7.470798636370536e-10).transl(1.1881823900377988e-07, 3.246314584324049e-08, 0))
hIsland = hIsland.add(rect(4.5820478575662935e-09, 4.4616027057488815e-10).transl(1.2219844442109953e-07, 3.1086091068415953e-08, 0))
hIsland = hIsland.sub(rect(2.771082998465379e-09, -1.2351012063486383e-09).transl(-5.964972437818826e-08, 4e-08, 0))
hIsland = hIsland.add(rect(4.884813055938649e-09, 5.5503068056187735e-09).transl(-1.460986278633194e-07, 1.273299256455125e-08, 0))
hIsland = hIsland.sub(rect(6.926213301352266e-09, -2.265601707182903e-09).transl(-1.4238800353596807e-07, 1.7558391053083667e-08, 0))
hIsland = hIsland.sub(rect(9.27896036006813e-09, -2.5422361729142444e-09).transl(-1.313153627122807e-07, 2.6417932886195407e-08, 0))
hIsland = hIsland.add(rect(4.7660183485574346e-09, 3.316087266147597e-10).transl(-8.956972237477949e-08, 3.923797956940293e-08, 0))
hIsland = hIsland.add(rect(2.2879478963852248e-09, 1.8858074195568105e-09).transl(4.3615556906577976e-08, 4e-08, 0))
hIsland = hIsland.add(rect(2.1147121383295353e-09, 4.19343347678061e-09).transl(-4.427394430490065e-08, 4e-08, 0))
hIsland = hIsland.sub(rect(2.7841728176903215e-09, -2.6851450741326784e-09).transl(9.847880695582766e-08, 3.79894558430557e-08, 0))
hIsland = hIsland.sub(rect(4.451323859824472e-09, -1.6302583062413761e-09).transl(6.830226316392126e-08, 4e-08, 0))
hIsland = hIsland.sub(rect(2.3688882957941555e-09, -3.1186378923045324e-09).transl(-1.3899819577444646e-07, 2.0856203980526597e-08, 0))
hIsland = hIsland.sub(rect(2.1115164437234874e-09, -6.693898186567466e-10).transl(-9.368166249258401e-08, 3.8739225664081595e-08, 0))
hIsland = hIsland.sub(rect(3.545369715407831e-09, -3.6912448200798705e-10).transl(-5.576583039755927e-08, 4e-08, 0))
hIsland = hIsland.sub(rect(8.188381628867498e-09, -6.562295433501206e-10).transl(1.1470885896751752e-07, 3.39336095108512e-08, 0))
hIsland = hIsland.sub(rect(9.163414359376039e-09, -5.777099888997499e-10).transl(-1.0381845418951866e-07, 3.69292289344003e-08, 0))
hIsland = hIsland.add(rect(9.051840075066238e-09, 7.287993274484403e-10).transl(-5.525151350477653e-08, 4e-08, 0))
hIsland = hIsland.sub(rect(6.794281005656175e-09, -1.9764875944940453e-09).transl(-7.509735341877952e-08, 3.999996630153906e-08, 0))
hIsland = hIsland.add(rect(7.240816614247453e-09, 3.2112881643004616e-09).transl(-1.4328912491445177e-07, 1.6538454419090864e-08, 0))
hIsland = hIsland.add(rect(6.691260251058953e-09, 3.571907739723566e-10).transl(1.521065192580256e-08, 4e-08, 0))
hIsland = hIsland.add(rect(2.6582318692745916e-09, 9.220232691578469e-10).transl(4.4952574533092026e-08, 4e-08, 0))
hIsland = hIsland.add(rect(6.0986463670889595e-09, 8.093267651879804e-10).transl(-8.499187099360336e-08, 3.964343302204569e-08, 0))
hIsland = hIsland.add(rect(9.78495572835189e-09, 6.357606052623275e-10).transl(1.2641862090157926e-07, 2.9119831132988654e-08, 0))
hIsland = hIsland.add(rect(4.868376770759165e-09, 1.5711499208234572e-09).transl(-1.25869537406131e-07, 2.9392861605159952e-08, 0))
hIsland = hIsland.sub(rect(3.0921585308581404e-09, -2.48022594460849e-09).transl(1.5272001321235852e-08, 4e-08, 0))
hIsland = hIsland.add(rect(6.1549402806967796e-09, 5.115221718994117e-09).transl(7.157622009730591e-08, 4e-08, 0))
hIsland = hIsland.sub(rect(2.1588382691468545e-09, -2.7648156207361824e-09).transl(-1.3747325175432851e-07, 2.213232328773448e-08, 0))
hIsland = hIsland.sub(rect(4.4866835395838315e-09, -3.94494861586195e-09).transl(1.1068695826597358e-07, 3.518157501510321e-08, 0))
hIsland = hIsland.add(rect(8.51503003939531e-09, 9.43784168580387e-10).transl(-3.859058929872447e-08, 4e-08, 0))
hIsland = hIsland.sub(rect(8.760328971888278e-09, -3.743578004861642e-09).transl(4.546382504842407e-08, 4e-08, 0))
hIsland = hIsland.sub(rect(8.84605697208686e-09, -1.2602502706930122e-09).transl(9.059879426354765e-08, 3.9125289776506156e-08, 0))
hIsland = hIsland.add(rect(2.178653332091952e-09, 8.528593899904673e-10).transl(1.184909053659793e-07, 3.2588111917530486e-08, 0))
hIsland = hIsland.sub(rect(6.413229720658103e-09, -1.369784694834677e-09).transl(1.3915324358038492e-07, 2.072026658337853e-08, 0))
hIsland = hIsland.sub(rect(6.990836848161528e-09, -2.06741615224116e-09).transl(8.428438320717264e-08, 3.969232865269738e-08, 0))
hIsland = hIsland.add(rect(6.5087814501456305e-09, 1.7000763155404124e-09).transl(-4.178777907381651e-08, 4e-08, 0))
hIsland = hIsland.add(rect(3.1204362516369434e-09, 1.395200156225109e-09).transl(-1.0582986686085444e-07, 3.6464243417224636e-08, 0))
hIsland = hIsland.add(rect(2.0048476176995837e-09, 6.016961333928555e-11).transl(-9.317860368363604e-08, 3.880724191059939e-08, 0))
hIsland = hIsland.sub(rect(6.449315805235738e-09, -5.389084052557434e-10).transl(3.8163716025784264e-09, 4e-08, 0))
hIsland = hIsland.add(rect(8.191072391702016e-09, 1.6997530873822095e-09).transl(2.1015958196470497e-08, 4e-08, 0))
hIsland = hIsland.add(rect(4.218631142714564e-09, 1.838593194688857e-09).transl(1.2278036060369213e-07, 3.083218931190751e-08, 0))
hIsland = hIsland.add(rect(7.86244484048085e-09, 1.067570868287638e-10).transl(-8.857555112017505e-08, 3.9339269741521635e-08, 0))
hIsland = hIsland.sub(rect(6.604330309669564e-09, -2.0011564779962135e-09).transl(1.57373040936492e-08, 4e-08, 0))
hIsland = hIsland.sub(rect(4.620963154763396e-09, -2.4832357797673307e-09).transl(3.637800004332805e-08, 4e-08, 0))
hIsland = hIsland.add(rect(3.92998816934884e-09, 3.047270771888585e-10).transl(-9.236729554620828e-08, 3.891278743870891e-08, 0))
hIsland = hIsland.add(rect(3.417222208729792e-09, 7.760052131527348e-10).transl(-5.240609730589145e-08, 4e-08, 0))
hIsland = hIsland.sub(rect(6.811997470355214e-09, -2.9345670573534007e-09).transl(2.8589376492755944e-08, 4e-08, 0))
hIsland = hIsland.add(rect(2.636000847124953e-09, 4.1745876278166176e-10).transl(-7.511010632651162e-09, 4e-08, 0))
hIsland = hIsland.add(rect(9.481643671749346e-09, 1.550861331567854e-09).transl(5.031136858407042e-08, 4e-08, 0))
hIsland = hIsland.sub(rect(6.289076782323956e-09, -6.656901368843934e-11).transl(6.105486836868767e-09, 4e-08, 0))
hIsland = hIsland.add(rect(4.009653211054547e-09, 9.018568928406425e-10).transl(-8.808300448908071e-09, 4e-08, 0))
hIsland = hIsland.sub(rect(3.167802353971177e-09, -1.0569768029339941e-09).transl(2.357194528369294e-09, 4e-08, 0))
hIsland = hIsland.sub(rect(2.2029673533815643e-09, -1.8365286728673241e-09).transl(4.955087172394008e-08, 4e-08, 0))
hIsland = hIsland.sub(rect(5.850453416703251e-09, -4.908043634767652e-09).transl(2.140652513342815e-08, 4e-08, 0))
hIsland = hIsland.sub(rect(9.82024766929723e-09, -1.9361263736788177e-09).transl(-2.4585044653263975e-08, 4e-08, 0))
hIsland = hIsland.sub(rect(9.969794520685363e-09, -1.5485823354425896e-09).transl(2.328527957237716e-08, 4e-08, 0))
hIsland = hIsland.sub(rect(3.0748919822541673e-09, -2.9832907336385387e-10).transl(-4.982663480712009e-08, 4e-08, 0))
hIsland = hIsland.sub(rect(6.110075841213946e-09, -3.182907736968806e-09).transl(-4.0598574966147175e-08, 4e-08, 0))
hIsland = hIsland.sub(rect(4.9181305194973485e-09, -3.283494352819534e-09).transl(-7.795432974879495e-08, 3.99689548350864e-08, 0))
hIsland = hIsland.add(rect(5.805325328708391e-09, 3.4521965974672475e-10).transl(2.671531086404592e-09, 4e-08, 0))
hIsland = hIsland.add(rect(3.6237025016840766e-09, 2.0244938879401003e-09).transl(2.9751537521941757e-08, 4e-08, 0))
hIsland = hIsland.add(rect(5.209696911631836e-09, 1.789529374527578e-09).transl(5.5919858497283966e-08, 4e-08, 0))
hIsland = hIsland.add(rect(5.266191444976224e-09, 2.3414605801607133e-09).transl(1.4806140370358606e-07, 9.03573215065705e-09, 0))
hIsland = hIsland.add(rect(6.254908237398778e-09, 2.1475922443859284e-09).transl(-2.2333143560782088e-08, 4e-08, 0))
hIsland = hIsland.add(rect(9.17098910719987e-09, 7.124391744767584e-11).transl(-2.2853597360173174e-09, 4e-08, 0))
hIsland = hIsland.sub(rect(2.317434505840952e-09, -2.5711487777731203e-09).transl(9.775722420239666e-09, 4e-08, 0))
hIsland = hIsland.sub(rect(6.897764743615428e-09, -5.17198837046058e-09).transl(-5.183309618766861e-08, 4e-08, 0))
hIsland = hIsland.sub(rect(5.7376846471940605e-09, -4.3720667233912195e-10).transl(2.1931705867582075e-08, 4e-08, 0))
hIsland = hIsland.add(rect(9.845839598925391e-09, 2.7963159562132932e-09).transl(-1.2351429735800948e-07, 3.050444258493453e-08, 0))
hIsland = hIsland.sub(rect(2.297196640078311e-09, -2.2402907335017067e-09).transl(5.637078324361086e-08, 4e-08, 0))
hIsland = hIsland.add(rect(8.009228712861986e-09, 1.096727323678796e-09).transl(-8.705745018208826e-09, 4e-08, 0))
hIsland = hIsland.sub(rect(6.018460122634987e-09, -3.763664501338836e-09).transl(-2.3188895008298514e-08, 4e-08, 0))
hIsland = hIsland.sub(rect(5.431742065284324e-09, -2.1183187643147776e-09).transl(-4.504727950523554e-08, 4e-08, 0))
hIsland = hIsland.sub(rect(2.9509751877228077e-09, -1.336858893747243e-09).transl(-1.378324034026517e-07, 2.1841214993612683e-08, 0))
hIsland = hIsland.sub(rect(5.660698482844129e-09, -1.9876695331536854e-09).transl(-5.6679313200975836e-08, 4e-08, 0))
hIsland = hIsland.sub(rect(3.783939656623884e-09, -2.4091221247971128e-09).transl(1.075869078804475e-07, 3.6027025647523045e-08, 0))
hIsland = hIsland.add(rect(6.435417326197842e-09, 2.504012989429198e-09).transl(5.1409570077067594e-08, 4e-08, 0))
hIsland = hIsland.add(rect(8.009612629661238e-09, 3.6272735496080395e-10).transl(8.029820355696703e-08, 3.9900067307122975e-08, 0))
hIsland = hIsland.add(rect(4.7193672626325555e-09, 5.331310689410639e-10).transl(-4.756672238187668e-08, 4e-08, 0))
hIsland = hIsland.add(rect(5.59440832169875e-09, 1.7903908022155854e-09).transl(3.3701254306789735e-08, 4e-08, 0))
hIsland = hIsland.add(rect(6.469738638721231e-09, 1.936101976913352e-09).transl(1.3282422270586637e-07, 2.5473907625175276e-08, 0))
hIsland = hIsland.sub(rect(4.984085118309911e-09, -4.019971933688152e-09).transl(8.298015859762538e-08, 3.977292727474203e-08, 0))
hIsland = hIsland.add(rect(9.29256203256817e-09, 4.828240681540867e-09).transl(-1.3022687159541226e-07, 2.7063672235195143e-08, 0))
hIsland = hIsland.add(rect(9.164744363684716e-09, 3.1538874875007817e-09).transl(-8.15473285744781e-08, 3.984729067976172e-08, 0))
hIsland = hIsland.add(rect(6.127087695985305e-09, 4.990320930327904e-10).transl(-1.2621735993997735e-07, 2.9220544569405922e-08, 0))
hIsland = hIsland.sub(rect(5.538726007277013e-09, -2.7054353330235108e-09).transl(-2.1316967050746264e-08, 4e-08, 0))
hIsland = hIsland.add(rect(4.384302622292352e-09, 1.2819984609424357e-09).transl(-1.4269606875187412e-07, 1.7218014549968454e-08, 0))
hIsland = hIsland.add(rect(9.46488860752283e-09, 2.917108360007392e-09).transl(1.2728980427489404e-07, 2.867516832144104e-08, 0))
hIsland = hIsland.add(rect(5.114725882137597e-09, 4.996625539928543e-10).transl(-7.860268695360133e-08, 3.995382453614942e-08, 0))
hIsland = hIsland.sub(rect(8.937534652442764e-09, -3.329843455760808e-12).transl(6.352818896346234e-08, 4e-08, 0))
hIsland = hIsland.sub(rect(7.226065428733288e-09, -6.260143209361553e-10).transl(-1.341837259009268e-07, 2.4569750296110407e-08, 0))
hIsland = hIsland.sub(rect(8.158694415787806e-09, -3.0240430396702276e-09).transl(-1.4928991554162415e-07, 5.491221569974582e-09, 0))
hIsland = hIsland.add(rect(6.44107563361743e-09, 2.327856916767646e-09).transl(9.31037682920309e-08, 3.881719142122591e-08, 0))
hIsland = hIsland.add(rect(7.178302824541572e-09, 4.7861981932092656e-11).transl(-8.357029844277212e-08, 3.973798624962806e-08, 0))
hIsland = hIsland.add(rect(5.739547364037663e-09, 5.901802884594276e-10).transl(-1.896706089509883e-08, 4e-08, 0))
hIsland = hIsland.add(rect(8.974443294222827e-09, 1.8261305596481165e-09).transl(8.174400269355841e-08, 3.983795952889565e-08, 0))
hIsland = hIsland.sub(rect(9.489697267256784e-09, -1.6459680100694713e-09).transl(1.0144349085882851e-09, 4e-08, 0))
hIsland = hIsland.sub(rect(8.576597408633433e-09, -4.181509300020276e-09).transl(9.497341260964675e-08, 3.85554733672226e-08, 0))
hIsland = hIsland.add(rect(8.8823568676576e-09, 2.6399157643912544e-09).transl(-2.4488929104980584e-09, 4e-08, 0))
hIsland = hIsland.sub(rect(7.44819465195781e-09, -4.308011922238556e-09).transl(9.115467861008212e-08, 3.9061073944177735e-08, 0))
hIsland = hIsland.sub(rect(2.5935020228903813e-09, -1.6571063113761018e-09).transl(-4.7112890010452735e-08, 4e-08, 0))
hIsland = hIsland.add(rect(5.52358253247197e-09, 4.3648687189531695e-10).transl(-8.562258627632439e-09, 4e-08, 0))
hIsland = hIsland.sub(rect(2.080364685917635e-09, -2.014852768335193e-09).transl(-4.142428113944582e-08, 4e-08, 0))
hIsland = hIsland.add(rect(7.998576092015002e-09, 1.4437706050373137e-09).transl(-1.6496347351192756e-08, 4e-08, 0))
hIsland = hIsland.sub(rect(8.325297235198157e-09, -2.6297071515707013e-09).transl(4.080148684080896e-08, 4e-08, 0))
hIsland = hIsland.add(rect(8.897339253279341e-09, 3.8845792086066417e-10).transl(-9.34510213926046e-08, 3.8770654871519484e-08, 0))
hIsland = hIsland.sub(rect(6.3486838251172165e-09, -1.6322615845431252e-09).transl(-5.595786895429407e-08, 4e-08, 0))
hIsland = hIsland.add(rect(5.7871620730418095e-09, 8.901380658390087e-10).transl(9.707793797194651e-08, 3.822763037467013e-08, 0))
hIsland = hIsland.sub(rect(8.768882285353991e-09, -2.402994664708418e-09).transl(-8.38483427367148e-08, 3.972064882384208e-08, 0))
hIsland = hIsland.sub(rect(5.2690863126390585e-09, -2.3356845078600386e-09).transl(6.99489349946609e-08, 4e-08, 0))
hIsland = hIsland.sub(rect(4.91691236013147e-09, -8.348657003855973e-10).transl(8.425111902117157e-08, 3.969453782736313e-08, 0))
hIsland = hIsland.sub(rect(9.813549781339667e-09, -2.6438216242842555e-10).transl(-6.805428632184224e-08, 4e-08, 0))
hIsland = hIsland.sub(rect(2.9667083146317177e-09, -1.9113223646532898e-09).transl(9.541043567743053e-08, 3.849031643813679e-08, 0))
hIsland = hIsland.add(rect(3.801135984631164e-09, 1.2837961999058403e-09).transl(-1.1508236940639608e-07, 3.380846931480198e-08, 0))
hIsland = hIsland.add(rect(5.692277284986579e-09, 8.291418604550353e-10).transl(4.479006277234458e-08, 4e-08, 0))
hIsland = hIsland.sub(rect(3.6255956910428316e-09, -1.5564628622124428e-09).transl(-1.9739538757425128e-08, 4e-08, 0))
hIsland = hIsland.sub(rect(3.1421201578029845e-09, -2.3996684533491866e-09).transl(1.0082718999449625e-08, 4e-08, 0))
hIsland = hIsland.add(rect(3.7230149938255553e-09, 1.5284636716458402e-09).transl(5.399204343745061e-08, 4e-08, 0))
hIsland = hIsland.add(rect(4.764944178546166e-09, 2.8523236404479952e-09).transl(-7.507883863707098e-08, 3.9999977900329203e-08, 0))
hIsland = hIsland.add(rect(2.2766028799426526e-09, 2.378923079933838e-09).transl(-1.4334735888987216e-07, 1.6469887147674756e-08, 0))
hIsland = hIsland.add(rect(8.125104325619805e-09, 1.4320603714222085e-09).transl(9.692854853461084e-08, 3.825208087798472e-08, 0))
hIsland = hIsland.sub(rect(5.914678747281576e-09, -2.1239525040804724e-10).transl(6.761389285007225e-08, 4e-08, 0))
hIsland = hIsland.sub(rect(6.7721487013751965e-09, -3.407128130152002e-10).transl(9.713308497586733e-09, 4e-08, 0))
hIsland = hIsland.add(rect(4.648080142867078e-09, 1.2384347249460578e-09).transl(9.058372562039551e-08, 3.91269977682615e-08, 0))
hIsland = hIsland.add(rect(4.445026824956698e-09, 3.2496398508358283e-09).transl(3.3078529590952534e-08, 4e-08, 0))
hIsland = hIsland.sub(rect(2.2645380604005822e-09, -2.487113878142601e-09).transl(-5.141122415318517e-10, 4e-08, 0))
hIsland = hIsland.sub(rect(3.5259863433441886e-09, -2.2521536964582197e-10).transl(1.1612169063564439e-08, 4e-08, 0))
hIsland = hIsland.add(rect(3.873815617119685e-09, 4.7541323879122475e-09).transl(1.4610311049062456e-07, 1.2725870662676697e-08, 0))
hIsland = hIsland.sub(rect(6.61211075712659e-09, -1.8616992662174122e-10).transl(4.256584004880997e-08, 4e-08, 0))
hIsland = hIsland.add(rect(3.865726279814416e-09, 1.5044441121989643e-09).transl(-1.4552462256589637e-07, 1.3610742026310325e-08, 0))
hIsland = hIsland.sub(rect(2.212536665184353e-09, -6.754513695018488e-10).transl(6.717856192334701e-08, 4e-08, 0))
hIsland = hIsland.add(rect(8.459381865091978e-09, 3.680004584935368e-09).transl(-4.516509108721224e-08, 4e-08, 0))
hIsland = hIsland.add(rect(9.366331564573698e-09, 5.88091337130499e-10).transl(-5.3864608552725176e-08, 4e-08, 0))
hIsland = hIsland.sub(rect(2.348613669156496e-09, -4.569486064736421e-09).transl(9.331898542617519e-08, 3.8788460223751956e-08, 0))
hIsland = hIsland.sub(rect(2.7584661671759214e-09, -1.9073336760286444e-09).transl(4.3960321758974453e-08, 4e-08, 0))
hIsland = hIsland.sub(rect(4.353930161709748e-09, -2.2559230114192167e-09).transl(1.9344397704758466e-08, 4e-08, 0))
hIsland = hIsland.sub(rect(9.698431168733586e-09, -1.9620998379573236e-09).transl(5.314593797377081e-08, 4e-08, 0))
hIsland = hIsland.sub(rect(6.3662513511402e-09, -2.1327315655665248e-10).transl(3.136542535011704e-08, 4e-08, 0))
hIsland = hIsland.sub(rect(6.702923984834347e-09, -2.5667756542817933e-09).transl(-6.520940256393004e-08, 4e-08, 0))
hIsland = hIsland.add(rect(8.87255071051477e-09, 6.081966402957345e-10).transl(-5.664660511608997e-08, 4e-08, 0))
hIsland = hIsland.sub(rect(4.32830973959683e-09, -1.0598518283082557e-09).transl(9.21970109251049e-08, 3.893429337717453e-08, 0))
hIsland = hIsland.sub(rect(7.267017787768897e-09, -1.9920641573190987e-09).transl(1.1218771235901752e-08, 4e-08, 0))
hIsland = hIsland.add(rect(2.0305894728248293e-09, 2.0072232162945323e-09).transl(1.1733642639762908e-07, 3.301771430222138e-08, 0))
hIsland = hIsland.sub(rect(4.656275472764897e-09, -8.426819061364944e-10).transl(-1.4418578501951755e-07, 1.5442069187618412e-08, 0))
hIsland = hIsland.sub(rect(9.616083185413871e-09, -7.721616791226188e-10).transl(1.4430182047651093e-07, 1.5293352431411062e-08, 0))
hIsland = hIsland.sub(rect(5.9037340726319295e-09, -2.69316225134006e-09).transl(-2.8006484850147886e-08, 4e-08, 0))
hIsland = hIsland.add(rect(2.691214332133556e-09, 4.967808795157016e-10).transl(6.683548459123983e-08, 4e-08, 0))
hIsland = hIsland.add(rect(8.136328146254958e-09, 5.095736352233191e-10).transl(9.973101092125314e-08, 3.7762776164661465e-08, 0))
hIsland = hIsland.add(rect(8.236920049880166e-09, 2.0121824302118888e-09).transl(5.764729276368357e-08, 4e-08, 0))
hIsland = hIsland.add(rect(6.3098933270522924e-09, 3.0700131032621774e-09).transl(-1.0150714368493969e-07, 3.741846040865222e-08, 0))
hIsland = hIsland.sub(rect(8.823267496119062e-09, -9.874329067735344e-10).transl(5.380823477361981e-08, 4e-08, 0))
hIsland = hIsland.add(rect(9.164215599920368e-09, 1.194858061707996e-09).transl(-1.9525718020449435e-08, 4e-08, 0))
hIsland = hIsland.add(rect(2.8771405614632422e-09, 4.4950190402721736e-10).transl(4.6677334156762646e-08, 4e-08, 0))
hIsland = hIsland.add(rect(4.145158718597711e-09, 1.015918217473785e-09).transl(6.040415075339709e-08, 4e-08, 0))
hIsland = hIsland.sub(rect(5.4480484320973994e-09, -1.8508353336943816e-10).transl(-1.0929205298581125e-07, 3.5573993405243676e-08, 0))
hIsland = hIsland.sub(rect(6.285714636839552e-09, -5.346395257546991e-10).transl(-4.509490624944682e-08, 4e-08, 0))
hIsland = hIsland.add(rect(2.95199062160708e-09, 6.492032447501884e-10).transl(9.692039336865539e-08, 3.825341040378307e-08, 0))
hIsland = hIsland.sub(rect(9.37024611061935e-09, -1.173953548763537e-09).transl(-7.94222414408292e-08, 3.993040623445284e-08, 0))
hIsland = hIsland.add(rect(4.0737169892846285e-09, 6.258830139926459e-10).transl(-1.2781425380608976e-07, 2.8400461191402418e-08, 0))
hIsland = hIsland.sub(rect(2.6178936923090052e-09, -9.172437342561051e-10).transl(-1.033262093590395e-07, 3.70374018319778e-08, 0))
hIsland = hIsland.sub(rect(6.575692809141718e-09, -1.5424831830081385e-10).transl(5.03284409980845e-08, 4e-08, 0))
hIsland = hIsland.add(rect(9.130701553314563e-09, 4.112368276649304e-09).transl(2.7229620100441416e-08, 4e-08, 0))
hIsland = hIsland.sub(rect(7.79190811413808e-09, -1.177915430113972e-10).transl(9.068493185112129e-08, 3.911549317488992e-08, 0))
hIsland = hIsland.sub(rect(3.6811354026388213e-09, -9.719817206261129e-10).transl(3.2392999382602546e-08, 4e-08, 0))
hIsland = hIsland.add(rect(7.591706589755754e-09, 1.7019502156547421e-09).transl(1.2186281671776246e-07, 3.123019124670185e-08, 0))
vIsland = hIsland.rotz(pi / 2)
hIslands = hIslands.add(hIsland.transl(-a/2, a, 0))
hIsland = rect(islandLength-2*ellipseConstant, islandWidth)
hIsland = hIsland.add(ellipse(ellipseConstant*2, islandWidth).transl(islandLength/2-ellipseConstant, 0, 0))
hIsland = hIsland.add(ellipse(ellipseConstant*2, islandWidth).transl(-islandLength/2+ellipseConstant, 0, 0))
hIsland = hIsland.add(rect(5.10166770883353e-09, 3.108469407084852e-10).transl(9.306436058184946e-08, -3.882241323503794e-08, 0))
hIsland = hIsland.add(rect(6.8868630608019755e-09, 2.0584568917038137e-09).transl(4.515840745044006e-08, -4e-08, 0))
hIsland = hIsland.sub(rect(2.1597555360755847e-09, -9.655988272177592e-10).transl(1.3483648275126357e-07, -2.411584092069824e-08, 0))
hIsland = hIsland.add(rect(5.0204967957044875e-09, 1.1845657847185383e-09).transl(-8.094595452604889e-08, -3.9874097411480114e-08, 0))
hIsland = hIsland.add(rect(4.630382419519036e-09, 4.747698992288903e-10).transl(1.2617112731377582e-08, -4e-08, 0))
hIsland = hIsland.sub(rect(8.073828954022335e-09, -3.202614409784563e-09).transl(1.2098375760279212e-07, -3.159969186562639e-08, 0))
hIsland = hIsland.sub(rect(6.9827120587124366e-09, -3.8711325711553245e-10).transl(7.355796824419869e-08, -4e-08, 0))
hIsland = hIsland.add(rect(4.463781355345418e-09, 3.137152618132212e-10).transl(2.409314247840777e-08, -4e-08, 0))
hIsland = hIsland.sub(rect(7.1731852633300225e-09, -8.959534058737018e-10).transl(-8.457592161512327e-08, -3.967262198511686e-08, 0))
hIsland = hIsland.add(rect(8.822286272898205e-09, 1.274616400694013e-10).transl(-7.469786090061036e-08, -4e-08, 0))
hIsland = hIsland.add(rect(4.4305196153480195e-09, 9.809349433819558e-10).transl(5.152845883577938e-08, -4e-08, 0))
hIsland = hIsland.sub(rect(3.3977205019250055e-09, -6.347107039452308e-10).transl(-1.436011213886089e-07, -1.616700525149531e-08, 0))
hIsland = hIsland.add(rect(8.884509590994161e-09, 8.427665795252128e-10).transl(9.253773153037556e-08, -3.889103811403697e-08, 0))
hIsland = hIsland.sub(rect(8.7517060517915e-09, -1.2126336875791495e-09).transl(6.754157867413795e-08, -4e-08, 0))
hIsland = hIsland.sub(rect(2.9140288589067328e-09, -5.655154876466966e-10).transl(9.212168153162709e-08, -3.894373567528134e-08, 0))
hIsland = hIsland.sub(rect(6.80364882820538e-09, -1.6705231291195198e-09).transl(-3.959437434424054e-08, -4e-08, 0))
hIsland = hIsland.add(rect(7.779332865711995e-09, 4.8980549114842004e-11).transl(-1.3148011400278817e-07, -2.6317699175257322e-08, 0))
hIsland = hIsland.add(rect(7.380803200070039e-09, 1.9447534366783437e-09).transl(-4.365207511785261e-08, -4e-08, 0))
hIsland = hIsland.sub(rect(4.2370861404998666e-09, -5.73647771398325e-10).transl(7.897241586250424e-08, -3.99438536160046e-08, 0))
hIsland = hIsland.add(rect(6.8431307401801774e-09, 4.67067064866525e-09).transl(8.593830154523219e-08, -3.957230388348546e-08, 0))
hIsland = hIsland.add(rect(8.2946923953671e-09, 2.5647315133869824e-09).transl(-1.259650303132575e-07, -2.9345770382405835e-08, 0))
hIsland = hIsland.add(rect(8.281136798474911e-09, 3.6316259051923985e-09).transl(7.117119208108274e-08, -4e-08, 0))
hIsland = hIsland.add(rect(3.1084449627331535e-09, 2.4301824287433405e-10).transl(-3.623225853262627e-08, -4e-08, 0))
hIsland = hIsland.sub(rect(4.087286104199916e-09, -3.4290279272304833e-10).transl(2.3231727996700673e-08, -4e-08, 0))
hIsland = hIsland.add(rect(5.300253937013464e-09, 8.484598539202349e-10).transl(-4.808088946911264e-08, -4e-08, 0))
hIsland = hIsland.sub(rect(5.208060096872628e-09, -8.121044399214583e-10).transl(-1.3347661383403319e-07, -2.5046719067316593e-08, 0))
hIsland = hIsland.sub(rect(9.141326891617205e-09, -2.5769828909828822e-09).transl(1.2202773223910744e-07, -3.115959731793694e-08, 0))
hIsland = hIsland.add(rect(8.045149768219153e-09, 7.313795644190744e-11).transl(1.0663526938820205e-07, -3.626748913081471e-08, 0))
hIsland = hIsland.add(rect(7.522824382290294e-09, 4.1743792125962174e-10).transl(-1.3580894793314855e-07, -2.341370904034855e-08, 0))
hIsland = hIsland.add(rect(7.700931486194473e-09, 1.1372738918705624e-09).transl(-1.4999585745085285e-07, -4.204091844180039e-10, 0))
hIsland = hIsland.sub(rect(2.0191464944118264e-09, -3.865729867489846e-09).transl(-5.543652656712564e-08, -4e-08, 0))
hIsland = hIsland.sub(rect(3.342352425617618e-09, -3.113194729285702e-09).transl(-1.8751884980472834e-08, -4e-08, 0))
hIsland = hIsland.add(rect(2.7999992094908557e-09, 5.828439547320407e-09).transl(1.0075611672824984e-07, -3.7567352071190116e-08, 0))
hIsland = hIsland.sub(rect(9.915689404235917e-09, -4.145387969139581e-09).transl(5.687407254991235e-08, -4e-08, 0))
hIsland = hIsland.sub(rect(5.726561349284726e-09, -3.2598851027788497e-09).transl(-3.652276133886471e-08, -4e-08, 0))
hIsland = hIsland.add(rect(3.882352940219717e-09, 1.3404923969359118e-09).transl(-9.494064993334882e-08, -3.856029683697876e-08, 0))
hIsland = hIsland.sub(rect(8.406085990720516e-09, -1.7040004597877648e-09).transl(5.966565525215209e-08, -4e-08, 0))
hIsland = hIsland.sub(rect(9.69015541430363e-09, -2.4375695180512632e-09).transl(6.912812483225419e-08, -4e-08, 0))
hIsland = hIsland.sub(rect(9.389552315027815e-09, -1.5704356091453767e-09).transl(6.468113439622068e-08, -4e-08, 0))
hIsland = hIsland.add(rect(8.249373539229262e-09, 3.98354696616756e-09).transl(-3.2926384025941896e-08, -4e-08, 0))
hIsland = hIsland.add(rect(9.217576055961282e-09, 3.0946877414966006e-09).transl(1.4742352705691181e-07, -1.0394292158627355e-08, 0))
hIsland = hIsland.add(rect(8.799919858297415e-09, 2.4676151865994647e-09).transl(-1.4007836537375378e-07, -1.9882723607073024e-08, 0))
hIsland = hIsland.sub(rect(5.813285011200568e-09, -9.339220903837548e-10).transl(7.078417549057317e-08, -4e-08, 0))
hIsland = hIsland.add(rect(2.689973290489473e-09, 1.2373288590118864e-09).transl(1.1611511439396227e-07, -3.345385090444377e-08, 0))
hIsland = hIsland.add(rect(5.371442947514143e-09, 2.6603422463087816e-09).transl(1.1345257062342375e-07, -3.4342690504633774e-08, 0))
hIsland = hIsland.add(rect(7.574360058043526e-09, 1.6461944885420808e-09).transl(1.2218547519541212e-07, -3.109169089124913e-08, 0))
hIsland = hIsland.add(rect(9.66500651357237e-09, 1.6029658858722693e-09).transl(8.26677022499579e-08, -3.9790406766856837e-08, 0))
hIsland = hIsland.add(rect(9.509073037709858e-09, 1.4436376851493581e-09).transl(-1.4981862027394713e-07, -2.7801997205526513e-09, 0))
hIsland = hIsland.add(rect(8.90468467592992e-09, 6.268176195252373e-09).transl(1.252804247977072e-07, -2.9679790988959718e-08, 0))
hIsland = hIsland.sub(rect(2.5984647579525045e-09, -3.0210325763468976e-09).transl(1.4960639127000645e-07, -4.092664672133568e-09, 0))
hIsland = hIsland.add(rect(6.703553115531086e-09, 1.5918726388961467e-09).transl(-2.5749721821348628e-08, -4e-08, 0))
hIsland = hIsland.sub(rect(7.191822019116369e-09, -1.6149640494113127e-09).transl(-1.9611951665273505e-08, -4e-08, 0))
hIsland = hIsland.add(rect(4.273713795162984e-09, 3.6931259527389e-10).transl(-8.235194158232792e-08, -3.980735460344999e-08, 0))
hIsland = hIsland.sub(rect(8.673125804803345e-09, -6.506541371661064e-10).transl(1.4662216090879674e-07, -1.1869106167279386e-08, 0))
hIsland = hIsland.sub(rect(8.95579671213238e-09, -2.9044634899335316e-09).transl(1.3989481484355073e-07, -2.005264542381283e-08, 0))
hIsland = hIsland.add(rect(6.873284199178701e-09, 1.4122383742246844e-09).transl(-1.3834342641544625e-07, -2.141723720296971e-08, 0))
hIsland = hIsland.sub(rect(5.6353172630094854e-09, -1.5116548854296622e-09).transl(-1.0580386325011426e-07, -3.647049392271747e-08, 0))
hIsland = hIsland.sub(rect(9.373822750250906e-09, -1.249473027519978e-09).transl(-4.472783041151548e-08, -4e-08, 0))
hIsland = hIsland.sub(rect(4.9188982451314224e-09, -3.5753383909898964e-10).transl(-2.5877188695053645e-08, -4e-08, 0))
hIsland = hIsland.add(rect(9.872229589467717e-09, 4.571186710524477e-09).transl(-3.019735790016019e-08, -4e-08, 0))
hIsland = hIsland.add(rect(5.578808888581723e-09, 4.3546142126584824e-09).transl(1.3924171406283975e-07, -2.0642150959537324e-08, 0))
hIsland = hIsland.sub(rect(3.682617317596404e-09, -5.661405528458263e-10).transl(1.0411420146274957e-07, -3.686318545854125e-08, 0))
hIsland = hIsland.add(rect(9.904549153527465e-09, 1.3063501249407205e-09).transl(4.4272549155215764e-08, -4e-08, 0))
hIsland = hIsland.sub(rect(8.474494426020158e-09, -3.051911052377343e-10).transl(6.779663029005777e-09, -4e-08, 0))
hIsland = hIsland.add(rect(9.355064610477578e-09, 1.5664803756956596e-09).transl(-5.587379773222571e-08, -4e-08, 0))
hIsland = hIsland.sub(rect(9.75007394805198e-09, -8.524045164955265e-10).transl(2.2392572670218224e-08, -4e-08, 0))
hIsland = hIsland.add(rect(6.082590395437036e-09, 1.0722847523201463e-09).transl(1.0079308079139884e-07, -3.7560137671647815e-08, 0))
hIsland = hIsland.add(rect(3.2506760114974728e-09, 4.958928363394402e-10).transl(7.588686088984693e-08, -3.999720337872369e-08, 0))
hIsland = hIsland.add(rect(5.54387789701875e-09, 8.452365759707464e-11).transl(9.243046596434686e-08, -3.8904752454681354e-08, 0))
hIsland = hIsland.sub(rect(9.772813067179676e-09, -1.1931349230783793e-09).transl(8.368579518679186e-08, -3.9730852582863587e-08, 0))
hIsland = hIsland.sub(rect(8.657574325835445e-09, -1.1416687198409192e-09).transl(-2.0163727741949706e-08, -4e-08, 0))
hIsland = hIsland.add(rect(2.6691450714059103e-09, 9.54894523216638e-10).transl(-1.1225544667839295e-07, -3.471599236591299e-08, 0))
hIsland = hIsland.sub(rect(3.085299582812087e-09, -8.11779768308876e-11).transl(9.582428556958611e-08, -3.842720936194647e-08, 0))
hIsland = hIsland.sub(rect(3.2954643060333696e-09, -2.9048943106288515e-09).transl(-7.681902848189509e-09, -4e-08, 0))
hIsland = hIsland.sub(rect(5.506136483855454e-09, -2.297386510368482e-09).transl(2.4573755735442077e-08, -4e-08, 0))
hIsland = hIsland.add(rect(5.753392779808241e-09, 2.666053671159098e-10).transl(-6.090018014207665e-08, -4e-08, 0))
hIsland = hIsland.add(rect(4.1478136151200934e-09, 9.095763521077038e-10).transl(1.2296297206365785e-07, -3.075143443032137e-08, 0))
hIsland = hIsland.add(rect(8.423436649783831e-09, 2.6621116697449515e-09).transl(1.4784678922190507e-07, -9.515857923323477e-09, 0))
hIsland = hIsland.add(rect(7.449631796535744e-09, 1.1036756642722538e-09).transl(-1.0832153983963827e-07, -3.5835376617327654e-08, 0))
hIsland = hIsland.add(rect(8.816554013248201e-09, 3.621112566013514e-10).transl(1.0210350623833017e-07, -3.72967437824259e-08, 0))
hIsland = hIsland.sub(rect(5.756164748843083e-09, -3.540136874224555e-09).transl(1.4145200930668918e-07, -1.854536173010942e-08, 0))
hIsland = hIsland.sub(rect(7.682960051690625e-09, -2.879015511002809e-09).transl(1.4206392186184072e-07, -1.7907856079704997e-08, 0))
hIsland = hIsland.sub(rect(4.2605734255821095e-09, -8.305689668889398e-12).transl(-1.9530124826025938e-08, -4e-08, 0))
hIsland = hIsland.add(rect(2.37510902737752e-09, 1.0097440204048544e-09).transl(9.694366662117606e-08, -3.82496147660482e-08, 0))
hIsland = hIsland.sub(rect(7.554616037168857e-09, -3.1354707756160824e-09).transl(1.1495080755880553e-07, -3.3852734038646765e-08, 0))
hIsland = hIsland.add(rect(8.231891638571676e-09, 2.6117025560580466e-09).transl(7.71695308019445e-08, -3.998326098147476e-08, 0))
hIsland = hIsland.sub(rect(7.302581567255646e-09, -3.253426835962331e-09).transl(-1.3441144973798856e-07, -2.44129198000612e-08, 0))
hIsland = hIsland.sub(rect(7.1737781329602984e-09, -2.1028953577904205e-09).transl(1.375972738048779e-07, -2.203242095747058e-08, 0))
hIsland = hIsland.add(rect(6.0020539356890884e-09, 1.978737850718664e-09).transl(1.0266792774019602e-07, -3.717867307249327e-08, 0))
hIsland = hIsland.sub(rect(7.374130484353549e-09, -3.711430208349503e-10).transl(4.3962248937556265e-08, -4e-08, 0))
hIsland = hIsland.sub(rect(2.2672286352786995e-09, -4.122396956709075e-10).transl(1.3209609580837528e-07, -2.5936871564988824e-08, 0))
hIsland = hIsland.sub(rect(7.1662192968317914e-09, -6.674289964394198e-10).transl(-1.407062226913908e-08, -4e-08, 0))
hIsland = hIsland.sub(rect(2.1515615996455912e-09, -5.530816480654936e-10).transl(-7.861058372693241e-08, -3.995362177156308e-08, 0))
hIsland = hIsland.sub(rect(7.628179169237535e-09, -7.791318240452823e-11).transl(-1.498764639596661e-07, -2.2948921769849258e-09, 0))
hIsland = hIsland.add(rect(8.740147376965357e-09, 4.6279278717096246e-10).transl(1.2646050573088735e-07, -2.9098777858640498e-08, 0))
hIsland = hIsland.add(rect(9.249006785146564e-09, 8.555496212650136e-10).transl(-3.805523679334648e-08, -4e-08, 0))
hIsland = hIsland.add(rect(6.744302442110009e-09, 4.901489521024948e-09).transl(1.4766982963299816e-08, -4e-08, 0))
hIsland = hIsland.add(rect(7.0085990319273035e-09, 9.030864767173088e-10).transl(1.0557105987208873e-07, -3.652617077542674e-08, 0))
hIsland = hIsland.sub(rect(6.83661632300014e-09, -2.4915763034001224e-09).transl(-4.946922530987135e-08, -4e-08, 0))
hIsland = hIsland.add(rect(8.359001061782442e-09, 9.3903999585381e-10).transl(-5.4783289100867063e-08, -4e-08, 0))
hIsland = hIsland.sub(rect(6.772930370727483e-09, -2.4416236904175924e-09).transl(1.1201206216546772e-07, -3.478996434303123e-08, 0))
hIsland = hIsland.add(rect(8.832096025981857e-09, 4.2846261251142775e-10).transl(1.3934669633516278e-07, -2.0548930323933598e-08, 0))
hIsland = hIsland.sub(rect(2.5599410363376754e-09, -1.0693643538178485e-09).transl(1.3457168234125137e-07, -2.4301599255477878e-08, 0))
hIsland = hIsland.add(rect(6.539325809010474e-09, 9.211984355934108e-10).transl(-1.0746171301796508e-07, -3.605916003385509e-08, 0))
hIsland = hIsland.add(rect(4.743765385917471e-09, 1.0322263749109604e-09).transl(1.0432905490760689e-07, -3.681470831951703e-08, 0))
hIsland = hIsland.add(rect(8.174061206977499e-09, 4.3970932740098325e-10).transl(-1.0837921973947471e-07, -3.582010435702692e-08, 0))
hIsland = hIsland.add(rect(2.668802219033334e-09, 1.9891784078024294e-09).transl(8.461457624644349e-08, -3.9669962614355675e-08, 0))
hIsland = hIsland.sub(rect(7.462749537103861e-09, -4.0280366231115965e-09).transl(-5.619791585720639e-09, -4e-08, 0))
hIsland = hIsland.sub(rect(5.761558002537674e-09, -2.2464792111655958e-09).transl(-1.064987549788537e-07, -3.630127146999167e-08, 0))
hIsland = hIsland.add(rect(3.6974002034947795e-09, 2.6555813406270536e-09).transl(1.3520546263464556e-07, -2.3853194075678017e-08, 0))
hIsland = hIsland.add(rect(3.815596703224518e-09, 2.4629589930122455e-10).transl(-6.501727601147286e-08, -4e-08, 0))
hIsland = hIsland.sub(rect(8.879288633310089e-09, -8.327918095801358e-10).transl(-6.974526913649601e-08, -4e-08, 0))
hIsland = hIsland.sub(rect(7.89441112761031e-09, -1.2838938147089754e-10).transl(-8.342222557643342e-08, -3.9746990463052056e-08, 0))
hIsland = hIsland.add(rect(4.352752895102309e-09, 4.402187984844788e-09).transl(1.1745832282375243e-07, -3.2973161656893534e-08, 0))
hIsland = hIsland.sub(rect(2.874013815179402e-09, -1.337553645482459e-09).transl(5.858439455907821e-08, -4e-08, 0))
hIsland = hIsland.sub(rect(5.196180637452051e-09, -2.3517522276200654e-09).transl(-1.7523002961343165e-09, -4e-08, 0))
hIsland = hIsland.sub(rect(5.233646190414443e-09, -4.162433372996375e-09).transl(9.454264614454526e-08, -3.861821325211557e-08, 0))
hIsland = hIsland.sub(rect(7.441933168537619e-09, -1.4560420790091975e-09).transl(-2.920577007639818e-08, -4e-08, 0))
hIsland = hIsland.sub(rect(7.01734099278242e-09, -1.5010899878381113e-09).transl(-4.616749432101119e-08, -4e-08, 0))
hIsland = hIsland.sub(rect(2.166745896744728e-09, -1.2512254821070492e-09).transl(-3.651649399205548e-08, -4e-08, 0))
hIsland = hIsland.add(rect(4.6718222857637436e-09, 3.087498945800758e-10).transl(4.7248969808916116e-08, -4e-08, 0))
hIsland = hIsland.sub(rect(9.784847106588923e-09, -1.142749216988143e-10).transl(1.3801569543476442e-07, -2.1690491131970743e-08, 0))
hIsland = hIsland.add(rect(2.4973912784278644e-09, 1.6181564319390236e-09).transl(1.3606516116531666e-07, -2.3223259401695617e-08, 0))
hIsland = hIsland.add(rect(4.357333960717054e-09, 9.365518161021056e-10).transl(1.481574433377043e-07, -8.811927017047264e-09, 0))
hIsland = hIsland.add(rect(4.7004667762421815e-09, 3.091788365716823e-09).transl(-1.6762734616528565e-08, -4e-08, 0))
hIsland = hIsland.sub(rect(7.267576350818993e-09, -4.856892825168917e-10).transl(-1.1766889087275456e-07, -3.289575508637305e-08, 0))
hIsland = hIsland.sub(rect(6.123070474158106e-09, -7.037153707622969e-10).transl(-7.400498218781569e-08, -4e-08, 0))
hIsland = hIsland.add(rect(9.317746390905374e-09, 2.2727141733178114e-09).transl(-1.1901678935643431e-07, -3.238665186661407e-08, 0))
hIsland = hIsland.sub(rect(3.912156437358863e-09, -1.1997617902231892e-10).transl(-1.333025540457702e-07, -2.5161874181331745e-08, 0))
hIsland = hIsland.add(rect(9.654092248496502e-09, 5.077077847963841e-10).transl(4.557753996787761e-08, -4e-08, 0))
hIsland = hIsland.sub(rect(7.18158547068689e-09, -1.932177470933032e-09).transl(1.0624513288574925e-08, -4e-08, 0))
hIsland = hIsland.sub(rect(2.9584220722943258e-09, -1.807005410513976e-09).transl(1.1049458031450476e-07, -3.523688882539743e-08, 0))
hIsland = hIsland.sub(rect(5.559300699611699e-09, -1.6074734034128718e-09).transl(1.3059628331628174e-07, -2.6847669877010185e-08, 0))
hIsland = hIsland.add(rect(2.742497538372981e-09, 2.866151321194255e-10).transl(-5.378248291970635e-08, -4e-08, 0))
hIsland = hIsland.sub(rect(6.475421089555703e-09, -2.9314241010637822e-09).transl(-4.839957191833888e-08, -4e-08, 0))
hIsland = hIsland.sub(rect(2.4540052900841592e-09, -4.678737073600967e-09).transl(-1.002933770304989e-07, -3.7656676257244303e-08, 0))
hIsland = hIsland.add(rect(8.713112763086727e-09, 3.1137325639674477e-10).transl(8.707558944141348e-08, -3.9478124966006465e-08, 0))
hIsland = hIsland.add(rect(3.3095904234507706e-09, 5.984413296874938e-10).transl(4.069279158793927e-08, -4e-08, 0))
hIsland = hIsland.sub(rect(7.559818942591427e-09, -1.2591319229912667e-09).transl(6.627661876823315e-08, -4e-08, 0))
hIsland = hIsland.sub(rect(8.815350626576804e-09, -1.419256635285474e-09).transl(5.561493454383354e-09, -4e-08, 0))
hIsland = hIsland.add(rect(4.537409509110462e-09, 1.3552649778300496e-10).transl(1.2206973898819489e-08, -4e-08, 0))
hIsland = hIsland.sub(rect(2.516879078039451e-09, -7.376270910226242e-10).transl(-7.155989938684255e-08, -4e-08, 0))
hIsland = hIsland.add(rect(5.91728723456093e-09, 1.0605550599510653e-09).transl(2.8761043511586432e-09, -4e-08, 0))
hIsland = hIsland.sub(rect(3.946202092924199e-09, -1.613595431652857e-09).transl(-1.4566740604838747e-07, -1.3398430129120738e-08, 0))
hIsland = hIsland.sub(rect(8.668304511505033e-09, -4.1870016408074904e-10).transl(-8.684029143508357e-08, -3.949839264908926e-08, 0))
hIsland = hIsland.add(rect(4.069497691990739e-09, 1.0825202087720738e-09).transl(-3.8710488618427825e-08, -4e-08, 0))
hIsland = hIsland.sub(rect(3.2431746674896483e-09, -1.6711309140917018e-10).transl(5.2883755798297315e-08, -4e-08, 0))
hIsland = hIsland.add(rect(8.989637338320541e-09, 1.6278550331324618e-09).transl(-1.3937947442249108e-07, -2.051970646068629e-08, 0))
hIsland = hIsland.add(rect(8.281062123444791e-09, 1.2692429539671284e-09).transl(4.160834457130815e-08, -4e-08, 0))
hIsland = hIsland.add(rect(9.556057873454237e-09, 2.601538943514116e-09).transl(-6.790673378788155e-08, -4e-08, 0))
hIsland = hIsland.add(rect(7.075304375103425e-09, 1.3249605262116053e-09).transl(-1.3493736348950466e-07, -2.404447705651875e-08, 0))
hIsland = hIsland.sub(rect(9.856055258181677e-09, -4.936073240544177e-10).transl(-8.241555167527316e-08, -3.980399834603368e-08, 0))
hIsland = hIsland.add(rect(4.625119455238743e-09, 9.339537449401091e-10).transl(-1.077758493374884e-07, -3.5978240140593675e-08, 0))
hIsland = hIsland.sub(rect(2.9922684460058744e-09, -1.4109887451797085e-09).transl(8.903702538118631e-08, -3.92931751371472e-08, 0))
hIsland = hIsland.add(rect(6.229535264262473e-09, 6.477741629521942e-11).transl(4.455423849788433e-08, -4e-08, 0))
hIsland = hIsland.add(rect(7.461928008459375e-09, 3.108559513119369e-09).transl(-8.652362986817954e-08, -3.952502335923503e-08, 0))
hIsland = hIsland.sub(rect(9.514335728596053e-09, -6.153859353345196e-10).transl(-6.55938818850385e-08, -4e-08, 0))
hIsland = hIsland.add(rect(4.969655755082451e-09, 2.771094967638572e-10).transl(-8.674540565265118e-08, -3.9506450024577496e-08, 0))
hIsland = hIsland.add(rect(3.5961822445328206e-09, 1.2722611581625414e-09).transl(4.679434067687208e-08, -4e-08, 0))
hIsland = hIsland.sub(rect(2.1689249750158243e-09, -2.5062681246837855e-09).transl(-1.3273834142388747e-07, -2.5529257420161024e-08, 0))
hIsland = hIsland.add(rect(2.960382026187347e-09, 1.3991988501576721e-09).transl(-9.459461737857134e-09, -4e-08, 0))
hIsland = hIsland.sub(rect(4.95267691817282e-09, -4.389166207522114e-09).transl(-1.424767311812926e-07, -1.7461196082438216e-08, 0))
hIsland = hIsland.sub(rect(5.655603877732389e-09, -2.337237625866242e-09).transl(-1.4036331120903554e-07, -1.9615051257033247e-08, 0))
hIsland = hIsland.sub(rect(9.399794897170442e-09, -5.282736401606034e-09).transl(-1.130264273094195e-07, -3.447739438912349e-08, 0))
hIsland = hIsland.sub(rect(4.006027664936316e-09, -1.158705531160972e-09).transl(1.22199428544196e-07, -3.108566604197616e-08, 0))
hIsland = hIsland.add(rect(7.0957079507612045e-09, 9.552225469548158e-10).transl(-8.526020175920182e-08, -3.962393264632263e-08, 0))
hIsland = hIsland.sub(rect(3.6422187046723862e-09, -1.2152232023670392e-09).transl(3.6467071765731943e-08, -4e-08, 0))
hIsland = hIsland.sub(rect(7.1221579059549476e-09, -2.855550553135497e-09).transl(1.4805198940309667e-07, -9.057357483649696e-09, 0))
hIsland = hIsland.add(rect(3.822446010831208e-09, 1.0291278355571112e-09).transl(-9.663985944469816e-08, -3.8298816629567454e-08, 0))
hIsland = hIsland.sub(rect(2.9194735323410877e-09, -1.8042115416432217e-09).transl(-1.10870572341226e-07, -3.512842031141192e-08, 0))
hIsland = hIsland.sub(rect(3.3227043831519086e-09, -4.709505421428899e-10).transl(-5.581827219928169e-08, -4e-08, 0))
hIsland = hIsland.add(rect(2.3816322804977104e-09, 8.186890191286745e-11).transl(-1.1356216097059774e-07, -3.430772011867322e-08, 0))
hIsland = hIsland.add(rect(7.607761194091478e-09, 1.0090027172024516e-09).transl(-1.3931759271724728e-07, -2.0574830912412412e-08, 0))
hIsland = hIsland.sub(rect(3.851824857919116e-09, -2.2417592632269084e-10).transl(-9.20550900607297e-08, -3.8952046290181846e-08, 0))
hIsland = hIsland.add(rect(3.092947738416599e-09, 6.000396794536513e-10).transl(1.2731852896950278e-07, -2.866026112107977e-08, 0))
hIsland = hIsland.add(rect(6.476880672434225e-09, 2.0722009314426168e-09).transl(1.4949552202421497e-07, -4.631630715341393e-09, 0))
hIsland = hIsland.sub(rect(6.344091945869968e-09, -7.352540839723033e-10).transl(-2.313060966104003e-09, -4e-08, 0))
hIsland = hIsland.sub(rect(7.872665930669179e-09, -1.0268513583146508e-09).transl(4.8073127965499075e-09, -4e-08, 0))
hIsland = hIsland.add(rect(9.372653840786168e-09, 1.886232314725208e-09).transl(-1.2764899359725774e-07, -2.8487606840288256e-08, 0))
hIsland = hIsland.sub(rect(8.631155779993124e-09, -6.339749350221422e-10).transl(3.7730582970284104e-08, -4e-08, 0))
hIsland = hIsland.add(rect(8.716846237035814e-09, 1.1026725130131359e-10).transl(1.3360935027639944e-07, -2.4958313676244898e-08, 0))
hIsland = hIsland.add(rect(4.73671979236741e-09, 1.1343521993172513e-09).transl(-5.052971703402678e-08, -4e-08, 0))
hIsland = hIsland.add(rect(6.308110168557327e-09, 1.6436566326841582e-09).transl(1.0066455421090292e-07, -3.758517213878426e-08, 0))
hIsland = hIsland.sub(rect(4.2221370912977146e-09, -2.8733131166674524e-09).transl(9.527851356419962e-08, -3.851014531886951e-08, 0))
hIsland = hIsland.sub(rect(6.980094695971653e-09, -1.1772065758280238e-09).transl(1.4870920451146243e-07, -7.3891821524274105e-09, 0))
hIsland = hIsland.add(rect(5.818901241157005e-09, 3.760680434840875e-09).transl(-1.1553863278194948e-07, -3.365337243387164e-08, 0))
hIsland = hIsland.sub(rect(7.005265785558066e-09, -1.6365807786717085e-09).transl(8.986926672928735e-09, -4e-08, 0))
hIsland = hIsland.sub(rect(8.755380599867631e-09, -6.1652390745558245e-09).transl(1.4251036340097517e-07, -1.7424179029532438e-08, 0))
hIsland = hIsland.add(rect(5.065988585136526e-09, 2.6142577567236993e-09).transl(3.2041181858456864e-08, -4e-08, 0))
hIsland = hIsland.add(rect(2.329015699266262e-09, 5.552517231492626e-10).transl(-1.3898375810183882e-07, -2.0868800396400814e-08, 0))
hIsland = hIsland.sub(rect(9.899982460875087e-09, -1.1237826999048615e-09).transl(5.404764790700047e-08, -4e-08, 0))
hIsland = hIsland.sub(rect(2.1645838192103863e-09, -4.167124946096828e-10).transl(-1.4233410767137255e-07, -1.7617106386489572e-08, 0))
hIsland = hIsland.add(rect(5.240477635612742e-09, 5.240199768060486e-10).transl(-3.601142620930199e-08, -4e-08, 0))
hIsland = hIsland.sub(rect(7.933605998855295e-09, -3.274266657889649e-09).transl(9.856437826329718e-09, -4e-08, 0))
hIsland = hIsland.add(rect(5.439285006872073e-09, 2.064063751676645e-09).transl(-1.16607646499309e-08, -4e-08, 0))
hIsland = hIsland.add(rect(6.362476192560498e-09, 1.168475972451822e-09).transl(-8.635473604859542e-08, -3.953892473292451e-08, 0))
hIsland = hIsland.add(rect(8.388390796503934e-09, 2.7472914736642505e-12).transl(1.1973543895946798e-07, -3.210533995532954e-08, 0))
hIsland = hIsland.add(rect(9.227736232502966e-09, 4.322757597324587e-10).transl(-1.3434587021077055e-07, -2.4458248514677527e-08, 0))
hIsland = hIsland.add(rect(6.260763037589949e-09, 2.995034555899448e-09).transl(8.2583321919985e-08, -3.979500619894154e-08, 0))
hIsland = hIsland.sub(rect(9.054064187934954e-09, -7.036722594618425e-10).transl(-1.1975996085241941e-08, -4e-08, 0))
hIsland = hIsland.sub(rect(4.978882019414627e-09, -2.452416387179071e-10).transl(1.0299660044957299e-07, 3.710862033718407e-08, 0))
hIsland = hIsland.sub(rect(4.76029844372475e-09, -1.9584886247488393e-09).transl(-1.0392555996381628e-07, 3.690540260178109e-08, 0))
hIsland = hIsland.sub(rect(2.423593283581988e-09, -4.2825817746796136e-09).transl(-1.4440938086485135e-07, 1.5153968643275904e-08, 0))
hIsland = hIsland.add(rect(2.362273892750512e-09, 1.5681932685241682e-09).transl(-5.333719938636696e-08, 4e-08, 0))
hIsland = hIsland.add(rect(8.70852734367402e-09, 1.7973170642267073e-09).transl(-8.35614999830914e-08, 3.973852572082382e-08, 0))
hIsland = hIsland.add(rect(6.6598334044903785e-09, 1.0537404546764932e-09).transl(-7.428408999770101e-08, 4e-08, 0))
hIsland = hIsland.sub(rect(3.4976316573699784e-09, -1.4737922336030444e-09).transl(-1.3793477146012266e-07, 2.1757219046230914e-08, 0))
hIsland = hIsland.sub(rect(9.608699343469458e-09, -1.1588547352056967e-09).transl(1.2008121854904686e-07, 3.196746672509529e-08, 0))
hIsland = hIsland.add(rect(3.6835357507540477e-09, 1.5009286753587274e-09).transl(-1.1575977898429588e-07, 3.357730627126248e-08, 0))
hIsland = hIsland.sub(rect(5.123948538816631e-09, -1.0934818793707775e-09).transl(-3.256347056999287e-08, 4e-08, 0))
hIsland = hIsland.add(rect(6.3540927313393984e-09, 2.2154791387153567e-10).transl(3.975566167997647e-08, 4e-08, 0))
hIsland = hIsland.add(rect(4.9378089563414466e-09, 1.2600058277323076e-09).transl(5.739475696749785e-08, 4e-08, 0))
hIsland = hIsland.add(rect(4.3115465537174806e-09, 1.204754341960466e-10).transl(-4.9698565183485664e-08, 4e-08, 0))
hIsland = hIsland.add(rect(6.2279921742000866e-09, 1.0342702855359323e-09).transl(-1.2929030892310404e-07, 2.7597422653426783e-08, 0))
hIsland = hIsland.add(rect(3.475207255289821e-09, 6.12657287904033e-10).transl(9.478130284700978e-09, 4e-08, 0))
hIsland = hIsland.sub(rect(3.931379715241484e-09, -3.777971123466589e-09).transl(6.899773336245549e-08, 4e-08, 0))
hIsland = hIsland.add(rect(3.8162598910703795e-09, 1.5690204737382652e-09).transl(-7.608653475806229e-08, 3.9995802240960207e-08, 0))
hIsland = hIsland.add(rect(8.728994248400334e-09, 1.6508995825823488e-11).transl(-1.2376380667224736e-07, 3.039106843686721e-08, 0))
hIsland = hIsland.sub(rect(8.560674768509625e-09, -1.2550890297119338e-09).transl(1.4361686816661133e-07, 1.6147985879549128e-08, 0))
hIsland = hIsland.sub(rect(2.6148086720945463e-09, -5.661382026982116e-09).transl(1.0930830795173198e-07, 3.5569535051551816e-08, 0))
hIsland = hIsland.add(rect(9.165103967672671e-09, 2.415853660313922e-09).transl(4.807646634262047e-08, 4e-08, 0))
hIsland = hIsland.add(rect(2.0866741268252752e-09, 4.245026097359444e-09).transl(-1.0831578556246462e-08, 4e-08, 0))
hIsland = hIsland.add(rect(7.4345044007101685e-09, 4.112728320535583e-11).transl(5.556105309021495e-08, 4e-08, 0))
hIsland = hIsland.add(rect(7.2322757394406475e-09, 3.504173905655087e-09).transl(9.765420495890949e-08, 3.813160647905282e-08, 0))
[...]
hIsland = hIsland.add(rect(3.3160114530906033e-09, 8.939608745445695e-10).transl(1.1367305100424243e-07, 3.427219722330747e-08, 0))
hIsland = hIsland.sub(rect(2.343956929087866e-09, -2.9317019345164366e-09).transl(4.360825810581375e-08, 4e-08, 0))
hIsland = hIsland.add(rect(8.27372517413895e-09, 6.632387129438372e-10).transl(-3.482245132499233e-08, 4e-08, 0))
hIsland = hIsland.sub(rect(3.188137108174581e-09, -3.0436343790500565e-09).transl(1.0078692135467341e-07, 3.756134064410522e-08, 0))
hIsland = hIsland.add(rect(7.807033450729042e-09, 4.810964778686208e-10).transl(-8.683791097954435e-08, 3.9498595602205884e-08, 0))
hIsland = hIsland.sub(rect(9.724898233594367e-09, -1.2670897394266955e-09).transl(4.6561822853945537e-08, 4e-08, 0))
hIsland = hIsland.add(rect(6.569141671391161e-09, 3.9862928632969416e-09).transl(-1.886641493257716e-08, 4e-08, 0))
hIsland = hIsland.sub(rect(5.932959800095717e-09, -2.5446864025881736e-09).transl(-1.3204360514219805e-07, 2.596970330488834e-08, 0))
hIsland = hIsland.add(rect(7.464917328286223e-09, 2.0656855223355585e-09).transl(-4.6383695404930115e-08, 4e-08, 0))
hIsland = hIsland.sub(rect(7.165296715889294e-09, -7.370339392311721e-10).transl(4.188289872114848e-08, 4e-08, 0))
hIsland = hIsland.add(rect(2.3231481227890455e-09, 3.454477729904083e-10).transl(-3.3843363850004114e-08, 4e-08, 0))
hIsland = hIsland.sub(rect(4.370576579322828e-09, -3.2021098302460495e-09).transl(1.0516859806029642e-07, 3.6621230286323257e-08, 0))
hIsland = hIsland.add(rect(6.517912415578209e-09, 5.10173681672771e-10).transl(-9.838055605589937e-09, 4e-08, 0))
hIsland = hIsland.sub(rect(6.39343341972334e-09, -1.911397617824268e-09).transl(-4.4625776832641566e-08, 4e-08, 0))
hIsland = hIsland.add(rect(5.411116763777076e-09, 6.861580889025862e-10).transl(-1.5625452226097824e-08, 4e-08, 0))
hIsland = hIsland.sub(rect(5.147718531406579e-09, -1.568587206048451e-09).transl(-7.050634459038304e-08, 4e-08, 0))
hIsland = hIsland.add(rect(8.499834258431747e-09, 1.0622461164091842e-09).transl(-5.230406476623447e-08, 4e-08, 0))
hIsland = hIsland.sub(rect(4.235881320909757e-09, -8.56331249912151e-11).transl(-4.7281309442419954e-08, 4e-08, 0))
hIsland = hIsland.add(rect(3.030492754779801e-09, 2.9746748225729555e-10).transl(-1.0802699391320008e-07, 3.591285322837781e-08, 0))
hIsland = hIsland.add(rect(4.306697879342727e-09, 2.441449065082651e-09).transl(-7.160009780822517e-08, 4e-08, 0))
hIsland = hIsland.add(rect(6.390565457391976e-09, 3.1776400869276426e-10).transl(-1.2316668081775235e-07, 3.066073384466771e-08, 0))
hIsland = hIsland.sub(rect(4.4072006687027965e-09, -3.2232760463450723e-09).transl(9.064180274020231e-08, 3.912040538589902e-08, 0))
hIsland = hIsland.add(rect(3.572698933761326e-09, 1.7601079435347359e-09).transl(-2.260124993981353e-08, 4e-08, 0))
hIsland = hIsland.sub(rect(9.115464311694883e-09, -1.0054147937333366e-09).transl(-7.275066223371756e-08, 4e-08, 0))
hIsland = hIsland.sub(rect(2.6463124513221213e-09, -1.9034823467384765e-09).transl(-5.28365272482721e-08, 4e-08, 0))
hIsland = hIsland.sub(rect(6.838996947564412e-09, -8.170076308131054e-10).transl(-6.41484117123132e-08, 4e-08, 0))
hIsland = hIsland.add(rect(2.146647225221285e-09, 7.219748075223566e-10).transl(-1.4268962757332845e-07, 1.7225216194738344e-08, 0))
hIsland = hIsland.add(rect(8.329968033745454e-09, 3.8261316789478436e-09).transl(1.3262911098922772e-07, 2.559936425094634e-08, 0))
hIsland = hIsland.add(rect(2.4753712938339954e-09, 2.6288495478930994e-09).transl(-1.3190683059513616e-07, 2.6054917081123913e-08, 0))
hIsland = hIsland.add(rect(6.751219328122322e-09, 6.878954675768346e-10).transl(6.543721896276653e-08, 4e-08, 0))
hIsland = hIsland.add(rect(8.855582149300023e-09, 5.284115869079715e-10).transl(-1.0439858679259361e-07, 3.6798929818635504e-08, 0))
hIsland = hIsland.sub(rect(6.255001165446623e-09, -6.186241541906519e-10).transl(1.221702421632351e-07, 3.109826492285757e-08, 0))
hIsland = hIsland.sub(rect(8.71785966278109e-09, -4.575347817302722e-09).transl(5.015144980727449e-08, 4e-08, 0))
hIsland = hIsland.add(rect(9.580520608039543e-09, 2.493087908915275e-09).transl(-1.4166894347636604e-07, 1.8322557614734806e-08, 0))
hIsland = hIsland.sub(rect(9.18519307859431e-09, -3.1069292714057765e-09).transl(6.749744788634872e-08, 4e-08, 0))
hIsland = hIsland.add(rect(4.256675922764363e-09, 2.0388064778887803e-09).transl(-6.838104056638792e-08, 4e-08, 0))
hIsland = hIsland.add(rect(6.828429668887379e-09, 3.842295234210443e-09).transl(-1.292046197774575e-07, 2.7645292021608394e-08, 0))
hIsland = hIsland.sub(rect(6.145366861522434e-09, -1.5783920458708154e-10).transl(-1.352481597223076e-07, 2.3822509617289845e-08, 0))
hIsland = hIsland.add(rect(2.2862325794149614e-09, 4.4184118293965316e-10).transl(1.1729969507954963e-07, 3.303110257892206e-08, 0))
hIsland = hIsland.add(rect(8.070794358014645e-09, 6.125362552122624e-10).transl(3.048033708900484e-08, 4e-08, 0))
hIsland = hIsland.sub(rect(7.491955812940598e-09, -1.0574941574363857e-09).transl(-2.1449816527586003e-08, 4e-08, 0))
hIsland = hIsland.sub(rect(7.729792033886912e-09, -3.2141518239836634e-10).transl(7.634250652148665e-08, 3.9993591224336325e-08, 0))
hIsland = hIsland.add(rect(9.532418238419371e-09, 9.218415494029848e-10).transl(-8.872268511283305e-08, 3.9324746319776135e-08, 0))
hIsland = hIsland.sub(rect(3.994186764271045e-09, -1.6168240871471366e-09).transl(-2.2028764557034948e-08, 4e-08, 0))
hIsland = hIsland.sub(rect(6.365550259134713e-09, -1.212441128070734e-10).transl(-2.8599277392172975e-08, 4e-08, 0))
hIsland = hIsland.sub(rect(4.1896908866433655e-09, -1.1688640968751266e-09).transl(1.2199883470988914e-07, 3.1171996713460723e-08, 0))
hIsland = hIsland.sub(rect(7.041085909005634e-09, -3.8658158996644456e-10).transl(-8.665765704006289e-08, 3.951384219173616e-08, 0))
hIsland = hIsland.sub(rect(9.776129727443443e-09, -1.0496950758349725e-09).transl(-4.086015563075156e-08, 4e-08, 0))
hIsland = hIsland.sub(rect(2.1630624934078525e-09, -4.226625072483158e-09).transl(-8.734879927051175e-08, 3.945407783576597e-08, 0))
hIsland = hIsland.sub(rect(5.619682488875554e-09, -1.2161322445766279e-09).transl(-2.763049989880564e-08, 4e-08, 0))
hIsland = hIsland.sub(rect(9.14039114469244e-09, -2.3077055386939253e-09).transl(-9.418562176703608e-08, 3.866910122878086e-08, 0))
hIsland = hIsland.sub(rect(5.57902715933801e-09, -6.778181411134784e-10).transl(6.241509711221151e-08, 4e-08, 0))
hIsland = hIsland.add(rect(3.450049381046987e-09, 1.1305592625342313e-09).transl(-1.9922741676649225e-08, 4e-08, 0))
hIsland = hIsland.sub(rect(6.337361987441083e-09, -1.2730501589313225e-09).transl(1.2259080623197366e-07, 3.091546685040837e-08, 0))
hIsland = hIsland.sub(rect(9.118502692322701e-09, -3.17851101447511e-09).transl(-5.565927046660595e-09, 4e-08, 0))
hIsland = hIsland.sub(rect(6.1301662677540994e-09, -1.716960948571825e-09).transl(9.88476621448486e-08, 3.7924046704749806e-08, 0))
hIsland = hIsland.add(rect(7.271602040571064e-09, 1.0606982618456918e-09).transl(-4.391391314914828e-08, 4e-08, 0))
hIsland = hIsland.add(rect(6.288543118304726e-09, 6.292491365656876e-10).transl(1.3776879976008658e-08, 4e-08, 0))
hIsland = hIsland.add(rect(8.254942138659727e-09, 3.074682392649378e-09).transl(-8.227039411725101e-08, 3.981161458895074e-08, 0))
hIsland = hIsland.add(rect(8.731528818808291e-09, 1.487614899362648e-10).transl(-1.1568412361837533e-07, 3.36033948989883e-08, 0))
hIsland = hIsland.sub(rect(7.254356765489944e-09, -1.744535198191641e-09).transl(-3.975450574997502e-08, 4e-08, 0))
hIsland = hIsland.add(rect(7.497295052795286e-09, 2.847311382368873e-09).transl(-1.272657789565182e-07, 2.8687624463395094e-08, 0))
hIsland = hIsland.sub(rect(4.4054191624471715e-09, -1.4216903328563422e-09).transl(-1.2304387127587925e-07, 3.071549241386624e-08, 0))
hIsland = hIsland.add(rect(6.595076517147917e-09, 8.783942227931582e-10).transl(-1.3199798327076203e-07, 2.5998180602685756e-08, 0))
hIsland = hIsland.add(rect(8.047525243371901e-09, 1.0220074583275394e-09).transl(4.8467660290998e-08, 4e-08, 0))
hIsland = hIsland.add(rect(6.8361319389634955e-09, 6.890195021990428e-10).transl(1.3710526628204121e-07, 2.2424975917475237e-08, 0))
hIsland = hIsland.sub(rect(8.605638063812842e-09, -1.5393351340880094e-10).transl(9.875340518663492e-08, 3.79408690517542e-08, 0))
hIsland = hIsland.add(rect(9.791635261012571e-09, 1.9654738784509796e-09).transl(-1.3480900687288034e-07, 2.4135220239338035e-08, 0))
hIsland = hIsland.sub(rect(8.251585070005994e-09, -9.51496292584438e-10).transl(-4.7061960549416925e-09, 4e-08, 0))
hIsland = hIsland.add(rect(4.549438399629132e-09, 7.832235975303554e-10).transl(1.007706957661571e-07, 3.756450803278146e-08, 0))
hIsland = hIsland.add(rect(3.5055906666689565e-09, 1.582417605672065e-09).transl(4.25844377469739e-08, 4e-08, 0))
hIsland = hIsland.sub(rect(4.1608021535845514e-09, -2.355858331498043e-09).transl(-2.456864106101944e-08, 4e-08, 0))
hIsland = hIsland.add(rect(2.7074177601306247e-09, 4.4008222273514354e-09).transl(-1.2187017758749599e-09, 4e-08, 0))
hIsland = hIsland.sub(rect(7.89022421783392e-09, -1.8224847764219919e-09).transl(8.964317398302848e-08, 3.923020135700309e-08, 0))
hIsland = hIsland.sub(rect(2.71634568733995e-09, -1.8023987788957321e-09).transl(-2.918143758650623e-08, 4e-08, 0))
hIsland = hIsland.add(rect(8.60229630548979e-09, 1.371883485481423e-10).transl(-1.0133502448796682e-07, 3.7453013826450396e-08, 0))
hIsland = hIsland.sub(rect(8.436566948228037e-09, -1.0267949125218556e-09).transl(1.4739627299281683e-08, 4e-08, 0))
hIsland = hIsland.add(rect(9.538297314375729e-09, 2.1680809176396763e-09).transl(-5.661570502664363e-08, 4e-08, 0))
hIsland = hIsland.sub(rect(7.50850317879349e-09, -6.956673526871465e-10).transl(-1.393223063134364e-07, 2.0570639084039668e-08, 0))
hIsland = hIsland.add(rect(2.0313471608638195e-09, 3.029873128478753e-09).transl(6.226469099112675e-09, 4e-08, 0))
hIsland = hIsland.sub(rect(5.83114268519054e-09, -3.4777516958532274e-09).transl(4.914967278972687e-08, 4e-08, 0))
hIsland = hIsland.add(rect(2.183670286114236e-09, 1.0628981931389477e-09).transl(8.937631140592313e-08, 3.92582666115918e-08, 0))
hIsland = hIsland.sub(rect(4.730898412775024e-09, -6.92180426686104e-10).transl(-1.197978236735993e-07, 3.208058738884401e-08, 0))
hIsland = hIsland.add(rect(6.093751801147321e-09, 2.9560900212104646e-09).transl(-1.351973917865493e-08, 4e-08, 0))
hIsland = hIsland.sub(rect(7.115351481065501e-09, -1.4130328451509336e-11).transl(3.173852727852881e-08, 4e-08, 0))
hIsland = hIsland.add(rect(6.1410759562688946e-09, 2.2891037834315966e-09).transl(-9.745479929952737e-09, 4e-08, 0))
hIsland = hIsland.add(rect(6.863108212537344e-09, 1.4091955171838946e-09).transl(1.1246318116362592e-07, 3.465234599430213e-08, 0))
hIsland = hIsland.add(rect(6.990388796678573e-09, 6.053798686456521e-10).transl(-6.101405805719346e-08, 4e-08, 0))
hIsland = hIsland.sub(rect(7.757534038443108e-09, -4.352522528254859e-09).transl(-1.3721029228146833e-07, 2.2342017236316986e-08, 0))
hIsland = hIsland.add(rect(7.269349556548206e-09, 1.681502797069684e-09).transl(-9.114651739958022e-08, 3.9062033767122744e-08, 0))
hIsland = hIsland.sub(rect(3.890235232172057e-09, -2.8619163188956276e-09).transl(-5.6472582082734973e-08, 4e-08, 0))
hIsland = hIsland.add(rect(9.949422975942206e-09, 1.0480552691505703e-09).transl(-1.3617623156608253e-07, 2.313996026577547e-08, 0))
hIsland = hIsland.sub(rect(2.396502468205082e-09, -1.0030468066691108e-09).transl(1.3351275174734594e-07, 2.502270120501887e-08, 0))
hIsland = hIsland.add(rect(4.566647728046915e-09, 1.337813162908787e-09).transl(-9.067781723629883e-08, 3.911630447150217e-08, 0))
hIsland = hIsland.add(rect(7.112923171519273e-09, 6.486039518272901e-10).transl(2.2897470182905258e-08, 4e-08, 0))
hIsland = hIsland.add(rect(8.26097631699669e-09, 1.3809740439554059e-09).transl(-7.167906385621462e-08, 4e-08, 0))
hIsland = hIsland.sub(rect(2.1722388040428593e-09, -9.007618002784031e-10).transl(-6.3608831519804075e-09, 4e-08, 0))
hIsland = hIsland.sub(rect(2.2188596916728268e-09, -1.8483839894066962e-09).transl(-7.61343128379093e-09, 4e-08, 0))
hIsland = hIsland.add(rect(3.843836541188168e-09, 3.5000678557851985e-10).transl(1.3191340197501708e-07, 2.6050834001606073e-08, 0))
hIsland = hIsland.add(rect(7.223247471346812e-09, 3.0379229523064073e-09).transl(-3.935485954401849e-08, 4e-08, 0))
hIsland = hIsland.sub(rect(3.948271048636672e-09, -1.0001926957576986e-10).transl(1.0318804025560336e-08, 4e-08, 0))
hIsland = hIsland.add(rect(3.287174067688799e-09, 1.8509867749867674e-09).transl(1.484312659239549e-07, 8.13834485699154e-09, 0))
hIsland = hIsland.sub(rect(7.721846460271943e-09, -5.242590375992862e-09).transl(-1.0580595944632487e-07, 3.646999029374693e-08, 0))
hIsland = hIsland.sub(rect(7.3140097907224126e-09, -2.8898609563032236e-10).transl(8.213403906001064e-08, 3.981863054446167e-08, 0))
hIsland = hIsland.add(rect(5.296913755692599e-09, 2.259121867819369e-09).transl(1.3805253947437225e-07, 2.166001385177508e-08, 0))
hIsland = hIsland.sub(rect(6.28290865813011e-09, -1.5645680788728368e-10).transl(9.94362669195408e-08, 3.7817315668200064e-08, 0))
hIsland = hIsland.add(rect(7.680635026651737e-09, 3.849216002094593e-10).transl(1.209259300893788e-07, 3.1623603878343184e-08, 0))
hIsland = hIsland.add(rect(3.710416065307289e-09, 2.3049809657833195e-09).transl(-1.0280267933013149e-07, 3.715006836615311e-08, 0))
hIsland = hIsland.add(rect(7.934363759506629e-09, 4.907860698628365e-10).transl(-1.0568626529115767e-08, 4e-08, 0))
hIsland = hIsland.sub(rect(3.776140240265733e-09, -2.16231489481627e-09).transl(-2.388100784983988e-08, 4e-08, 0))
hIsland = hIsland.sub(rect(7.992554050083335e-09, -8.509605905854944e-10).transl(-1.4110107836663176e-07, 1.8898728479412838e-08, 0))
hIsland = hIsland.add(rect(9.663043363634349e-09, 3.2047004737253726e-09).transl(1.49345648551745e-07, 5.272305273115328e-09, 0))
hIsland = hIsland.sub(rect(6.138599728198927e-09, -2.6652010477829973e-09).transl(8.427731253391428e-08, 3.969279891127619e-08, 0))
hIsland = hIsland.add(rect(5.891761086557263e-09, 2.3068775105140261e-10).transl(8.322892829913253e-08, 3.975850563361282e-08, 0))
hIsland = hIsland.add(rect(5.318409446227223e-09, 3.905323655261622e-09).transl(1.0729791666701621e-07, 3.6100972781852383e-08, 0))
hIsland = hIsland.sub(rect(6.36453220031196e-09, -6.565921162784036e-11).transl(-1.4087863449452054e-07, 1.9118385926384724e-08, 0))
hIsland = hIsland.sub(rect(6.380598058457207e-09, -8.068931474416953e-10).transl(1.1323417799967548e-07, 3.441197779146767e-08, 0))
hIsland = hIsland.sub(rect(2.8287100098119294e-09, -3.2913346868463583e-09).transl(-9.039923684632816e-08, 3.914776930163989e-08, 0))
hIsland = hIsland.add(rect(5.213176460153665e-09, 1.4151794365234718e-10).transl(5.7465700896109815e-08, 4e-08, 0))
hIsland = hIsland.sub(rect(8.681419716453218e-09, -1.7458043086289755e-09).transl(1.0293360142982575e-07, 3.71221222043147e-08, 0))
hIsland = hIsland.add(rect(3.0446737982153938e-09, 1.1972232149341995e-09).transl(-9.061289879383194e-09, 4e-08, 0))
hIsland = hIsland.sub(rect(8.420395160208995e-09, -2.771351846899214e-09).transl(-1.5988428948883565e-08, 4e-08, 0))
hIsland = hIsland.add(rect(2.842159300116225e-09, 1.2673626552484907e-10).transl(-1.810630616215775e-08, 4e-08, 0))
hIsland = hIsland.add(rect(9.4546864655563e-09, 1.782736338773853e-09).transl(1.1648302769412385e-07, 3.3324408035287656e-08, 0))
hIsland = hIsland.sub(rect(4.307608661132117e-09, -3.1350740645116597e-09).transl(9.368909805603771e-08, 3.8738205504615824e-08, 0))
hIsland = hIsland.sub(rect(9.575286805336337e-09, -1.576768814077154e-09).transl(1.4438814773448748e-07, 1.518160247061105e-08, 0))
hIsland = hIsland.sub(rect(4.618216212619026e-09, -2.225037314090528e-09).transl(-9.927622320889115e-08, 3.784662375369384e-08, 0))
hIsland = hIsland.add(rect(9.511908851651669e-09, 3.05296119892605e-10).transl(-2.69499067688127e-08, 4e-08, 0))
hIsland = hIsland.add(rect(2.3076480443284702e-09, 3.0198306948658195e-09).transl(-1.2866289027254637e-07, 2.7944296121326452e-08, 0))
hIsland = hIsland.add(rect(7.245206199479562e-09, 9.072027957669606e-10).transl(-9.00136242955009e-08, 3.9190351957415176e-08, 0))
hIsland = hIsland.add(rect(6.711102206527945e-09, 2.504404544595529e-09).transl(1.7291973371073357e-08, 4e-08, 0))
hIsland = hIsland.sub(rect(3.188232031505971e-09, -1.8064362997628937e-09).transl(9.934910713500923e-08, 3.783330354363479e-08, 0))
hIsland = hIsland.sub(rect(6.898636573942476e-09, -6.25988321848158e-10).transl(-4.7608052310289174e-08, 4e-08, 0))
hIsland = hIsland.sub(rect(7.350740265226003e-09, -5.415744974895607e-10).transl(1.3744007240624295e-07, 2.215894009757697e-08, 0))
hIsland = hIsland.add(rect(9.925631149778024e-09, 1.5629522599374796e-09).transl(-1.3491583507805448e-07, 2.405973429626633e-08, 0))
hIsland = hIsland.sub(rect(6.434951933182539e-09, -1.1271396699840295e-10).transl(3.510979401458082e-09, 4e-08, 0))
hIsland = hIsland.add(rect(6.3807251755264755e-09, 3.483197181087787e-11).transl(-8.835604914615239e-08, 3.9360635771579143e-08, 0))
hIsland = hIsland.add(rect(4.894787333721382e-09, 1.744067104876188e-09).transl(3.172895707923115e-08, 4e-08, 0))
hIsland = hIsland.add(rect(2.7880154107521736e-09, 1.248218958413277e-09).transl(-1.0100949061981231e-08, 4e-08, 0))
hIsland = hIsland.add(rect(7.58047406867626e-09, 2.107773948746028e-09).transl(6.048034640875683e-09, 4e-08, 0))
hIsland = hIsland.sub(rect(2.0573332781147074e-09, -2.6024839772239397e-10).transl(9.79540537781028e-08, 3.8080565505238774e-08, 0))
hIsland = hIsland.sub(rect(4.369667615912184e-09, -2.208664812824716e-09).transl(-1.6460306775560838e-08, 4e-08, 0))
hIsland = hIsland.sub(rect(3.521149758681001e-09, -4.146411153409842e-10).transl(1.1462475017426708e-07, 3.396156436078377e-08, 0))
hIsland = hIsland.sub(rect(9.594891040493534e-09, -2.27808631205877e-09).transl(1.1961753953366527e-07, 3.2151973198238556e-08, 0))
hIsland = hIsland.sub(rect(7.115678845841063e-09, -2.066158257426968e-09).transl(1.255106508328638e-07, 2.956838745508777e-08, 0))
hIsland = hIsland.sub(rect(3.955398708679052e-09, -3.3071660864328817e-09).transl(-7.44832997080862e-08, 4e-08, 0))
hIsland = hIsland.sub(rect(4.674961052744681e-09, -1.9453695354402602e-09).transl(-8.502548368921585e-08, 3.9641019121052715e-08, 0))
hIsland = hIsland.add(rect(6.587479573737102e-09, 7.804632654781023e-11).transl(1.3737983783755613e-07, 2.2207143315914567e-08, 0))
hIsland = hIsland.sub(rect(7.679553297877787e-09, -1.4910060053649772e-09).transl(-5.352441499840691e-08, 4e-08, 0))
hIsland = hIsland.add(rect(8.130284331438703e-09, 7.985429549962977e-10).transl(3.252635963337364e-08, 4e-08, 0))
hIsland = hIsland.add(rect(8.81167930886446e-09, 2.8071593495112883e-09).transl(-2.5129038577194765e-08, 4e-08, 0))
hIsland = hIsland.sub(rect(2.448356613826545e-09, -8.089054728384702e-10).transl(-9.947859255349793e-08, 3.780952874738733e-08, 0))
hIsland = hIsland.add(rect(5.784202654575714e-09, 1.680154932278976e-09).transl(1.2253634722048267e-07, 3.093928996870825e-08, 0))
vIsland = hIsland.rotz(pi / 2)
vIslands = vIslands.add(vIsland.transl(0, -a/2, 0))
DefRegion(1, hIslands)
DefRegion(2, vIslands)
TableAdd(m_full.Region(1))
TableAdd(m_full.Region(2))
setgeom(hIslands.add(vIslands))
save(geom)
r2o2 := sqrt(2) / 2
m = RandomMagSeed(4)
B_ext = vector(Bmax*r2o2, Bmax*r2o2, 0)
relax()
minimize()
for B := Bmax; B >= -Bmax; B -= Bstep {
	B_ext = vector(B*r2o2, B*r2o2, 0)
	minimize()
	tablesave()
}
//********************************************************************//
//Please cite the following references, relevant for your simulation. //
//See bibtex file in output folder for justification.                 //
//********************************************************************//
//   * Exl et al., J. Appl. Phys. 115, 17D118 (2014).
//   * Vansteenkiste et al., AIP Adv. 4, 107133 (2014).
