//mumax 3.10 [windows_amd64 go1.11.6(gc) CUDA-11.0]
//GPU info: NVIDIA GeForce RTX 3090(24575MB), CUDA Driver 12.1, cc=8.6, using cc=80 PTX
//(c) Arne Vansteenkiste, Dynamat LAB, Ghent University, Belgium
//This is free software without any warranty. See license.txt
//********************************************************************//
//  If you use mumax in any work or publication,                      //
//  we kindly ask you to cite the references in references.bib        //
//********************************************************************//
//output directory: r1;p0.8;a4.0000000000000003e-07;l3.0000000000000004e-07;s3.out/
randSeed(3)
ThermSeed(3)
resolution := 2e-09
zResolution := 5e-09
a := 4.0000000000000003e-07
gridSize := 400
gridDepth := 5
SetCellsize(resolution, resolution, zResolution)
SetGridsize(gridSize, gridSize, gridDepth)
SetPBC(16, 16, 0)
//resizing...
Msat = 700e3
Aex = 13e-12
alpha = 0.2
Bmax := 0.1
Bstep := Bmax / 500.0
TableAdd(B_ext)
TableAdd(m_full)
islandWidth := 8e-08
islandLength := 3.0000000000000004e-07
ellipseConstant := 1.2000000000000002e-07
hIsland := Universe().Inverse()
vIsland := Universe().Inverse()
vIslands := Universe().Inverse()
hIslands := Universe().Inverse()
hIsland = rect(islandLength-2*ellipseConstant, islandWidth)
hIsland = hIsland.add(ellipse(ellipseConstant*2, islandWidth).transl(islandLength/2-ellipseConstant, 0, 0))
hIsland = hIsland.add(ellipse(ellipseConstant*2, islandWidth).transl(-islandLength/2+ellipseConstant, 0, 0))
hIsland = hIsland.sub(rect(5.710210205538646e-09, -1.8115512858042649e-10).transl(-1.2267653371491048e-08, -4e-08, 0))
hIsland = hIsland.add(rect(9.052383143429307e-09, 3.185744353096234e-09).transl(8.065109219311987e-08, -3.626211193770537e-08, 0))
hIsland = hIsland.add(rect(3.491108691494857e-09, 3.972289359671611e-09).transl(-7.553450543482596e-08, -3.700842068563707e-08, 0))
hIsland = hIsland.sub(rect(6.685768593069041e-09, -4.729095210802711e-10).transl(-1.4497348808592327e-07, -1.1455697453698476e-08, 0))
hIsland = hIsland.add(rect(4.088350773100247e-09, 5.920660152609454e-12).transl(-4.775940399766848e-08, -3.955952416527613e-08, 0))
hIsland = hIsland.add(rect(6.593079335008825e-09, 8.36169430802594e-10).transl(1.3660638769946514e-07, -1.836384764110461e-08, 0))
hIsland = hIsland.sub(rect(8.161137894183799e-09, -2.7832660880362937e-09).transl(-6.305614945385918e-08, -3.8452410679066265e-08, 0))
hIsland = hIsland.sub(rect(4.5108460402361184e-09, -9.86089893112745e-10).transl(-1.3088727007118422e-07, -2.1658354142824272e-08, 0))
hIsland = hIsland.add(rect(8.07960391664949e-09, 5.028648268941298e-10).transl(-8.399277756043181e-08, -3.5722355234206765e-08, 0))
hIsland = hIsland.sub(rect(2.5646961985794977e-09, -1.0152189349411583e-09).transl(9.487746441001027e-08, -3.365001999624279e-08, 0))
hIsland = hIsland.add(rect(6.044616949280263e-09, 6.662381433069275e-10).transl(1.0537331261235423e-07, -3.112495202288194e-08, 0))
hIsland = hIsland.sub(rect(3.2445068296650698e-09, -1.015670318851701e-09).transl(-4.766228760622986e-08, -3.9564354884043486e-08, 0))
hIsland = hIsland.add(rect(6.365243868637811e-09, 1.7399164269061292e-09).transl(1.2462499511184895e-07, -2.459925540897205e-08, 0))
hIsland = hIsland.add(rect(2.3178844263094476e-09, 1.4145065816909631e-09).transl(-9.356940890712972e-08, -3.392627669127761e-08, 0))
hIsland = hIsland.add(rect(5.235382310461542e-09, 2.5572987435208207e-09).transl(3.835338573386995e-08, -3.990296695566102e-08, 0))
hIsland = hIsland.add(rect(8.54753009412903e-09, 1.788382423162969e-10).transl(6.60065440008554e-08, -3.8156881990473756e-08, 0))
hIsland = hIsland.add(rect(5.884697939291302e-09, 4.818965202905265e-10).transl(-2.4814268963143396e-08, -4e-08, 0))
hIsland = hIsland.add(rect(4.62325620222351e-09, 1.948211053030684e-09).transl(1.3515452357062922e-07, -1.9271528142815552e-08, 0))
hIsland = hIsland.sub(rect(9.904678774433692e-09, -2.165682926707895e-09).transl(1.3497856880052038e-07, -1.9377822640541117e-08, 0))
hIsland = hIsland.add(rect(2.508884452000227e-09, 2.2567839517711684e-09).transl(-1.0706056292302011e-07, -3.066244471297686e-08, 0))
hIsland = hIsland.sub(rect(8.084989572831949e-09, -5.221089645152903e-10).transl(-1.7540466747522703e-08, -4e-08, 0))
hIsland = hIsland.add(rect(4.0271343408922676e-09, 1.6092560236083787e-09).transl(9.030204693075484e-08, -3.4582691778725646e-08, 0))
hIsland = hIsland.add(rect(6.543633449032085e-09, 2.288341781431492e-09).transl(9.996470894351586e-09, -4e-08, 0))
hIsland = hIsland.add(rect(2.210289394250369e-09, 2.901170026053778e-10).transl(2.850080415090816e-08, -4e-08, 0))
hIsland = hIsland.sub(rect(3.678045716171287e-09, -8.540350776460442e-11).transl(3.63315770350181e-08, -3.9944282211113394e-08, 0))
hIsland = hIsland.add(rect(5.342550140775908e-09, 3.8088559617128174e-10).transl(8.164456547916905e-08, -3.6106076522238716e-08, 0))
hIsland = hIsland.add(rect(6.110128193805953e-09, 1.6480823307059188e-09).transl(6.509317160993577e-08, -3.825131705264191e-08, 0))
hIsland = hIsland.add(rect(2.872456133593479e-09, 4.760674002111711e-10).transl(-8.034174185104545e-09, -4e-08, 0))
hIsland = hIsland.add(rect(3.2897986119454496e-09, 1.749833279940372e-09).transl(3.0184744369205965e-08, -3.999995259652476e-08, 0))
hIsland = hIsland.add(rect(6.045933775645954e-09, 1.860137447593778e-09).transl(3.466987919564819e-08, -3.9969699952030404e-08, 0))
hIsland = hIsland.add(rect(2.438061453558767e-09, 1.46320009584726e-09).transl(-1.288283595785799e-07, -2.268860541967393e-08, 0))
hIsland = hIsland.sub(rect(9.05005313602099e-09, -2.058791604760954e-09).transl(-2.0019507386620117e-08, -4e-08, 0))
hIsland = hIsland.add(rect(5.248944533283659e-09, 9.432938027246537e-10).transl(3.923889542750715e-08, -3.9881272145205626e-08, 0))
hIsland = hIsland.sub(rect(2.851846707251314e-09, -2.0669360756059713e-09).transl(-1.3241670780058943e-07, -2.084551100967061e-08, 0))
hIsland = hIsland.add(rect(5.328427020800053e-09, 1.8442416034676076e-09).transl(6.732322099680143e-08, -3.8016045113176915e-08, 0))
hIsland = hIsland.sub(rect(3.969999320619211e-09, -6.056175074834386e-10).transl(-7.375031398530806e-09, -4e-08, 0))
hIsland = hIsland.sub(rect(7.66417005099398e-09, -3.174314161998202e-09).transl(7.320036111886242e-08, -3.73180456782564e-08, 0))
hIsland = hIsland.add(rect(7.860004831149925e-09, 3.6090864945872466e-09).transl(4.7026756656714494e-08, -3.959529932503637e-08, 0))
hIsland = hIsland.add(rect(7.211393690158915e-09, 5.521641455289561e-10).transl(-3.3656884915792115e-08, -3.9981422342428337e-08, 0))
hIsland = hIsland.add(rect(8.427654551884631e-09, 4.83223556502567e-10).transl(1.1628822542252522e-07, -2.7797566147319596e-08, 0))
hIsland = hIsland.add(rect(7.991332400661214e-09, 1.0088393169502984e-10).transl(-1.8526663518633734e-08, -4e-08, 0))
hIsland = hIsland.add(rect(4.387854476274871e-09, 3.583083194421349e-09).transl(-1.902447706760568e-08, -4e-08, 0))
hIsland = hIsland.add(rect(5.846942952475919e-09, 7.651142071867274e-10).transl(2.5315109598930416e-08, -4e-08, 0))
hIsland = hIsland.add(rect(9.980126657669849e-09, 1.0966475784861612e-09).transl(1.0786519126441968e-07, -3.0435746507748534e-08, 0))
hIsland = hIsland.sub(rect(2.7281978036887953e-09, -1.3350768509983993e-09).transl(-1.2145891957604013e-07, -2.5895658216052415e-08, 0))
hIsland = hIsland.sub(rect(4.635041443119131e-09, -2.1305704790080364e-09).transl(1.1796716018622611e-07, -2.7206573406625343e-08, 0))
hIsland = hIsland.add(rect(9.671998483202427e-09, 1.9775416695985754e-09).transl(5.1187051841941214e-08, -3.9371604028858296e-08, 0))
hIsland = hIsland.sub(rect(4.415275252926167e-09, -2.5202582505031032e-09).transl(-8.407014095726554e-08, -3.57093511824773e-08, 0))
hIsland = hIsland.sub(rect(2.4529874958481053e-09, -3.8918193521003684e-09).transl(1.276104602575676e-07, -2.326704404733542e-08, 0))
hIsland = hIsland.add(rect(5.62395686609409e-09, 5.749181403538101e-10).transl(-1.0371209881837874e-07, -3.15639148532863e-08, 0))
hIsland = hIsland.sub(rect(6.691463499235961e-09, -1.9758051525056754e-09).transl(5.4196739450101925e-08, -3.917839228733654e-08, 0))
hIsland = hIsland.add(rect(4.343586962018268e-09, 1.3146065119892865e-09).transl(-2.8083564855218523e-08, -4e-08, 0))
hIsland = hIsland.add(rect(4.9548523632172366e-09, 1.8841918638613857e-09).transl(-1.2511386331905563e-07, -2.4388870422852048e-08, 0))
hIsland = hIsland.add(rect(7.245269638032621e-09, 7.239227879836496e-10).transl(-1.2845581307148869e-07, -2.286786409020329e-08, 0))
hIsland = hIsland.sub(rect(6.869961331088342e-09, -1.5610150554098685e-09).transl(7.165297956934507e-08, -3.7513004105236956e-08, 0))
hIsland = hIsland.add(rect(3.4272689664372947e-09, 3.4011569760735015e-09).transl(9.380742048864153e-09, -4e-08, 0))
hIsland = hIsland.add(rect(9.853622302307644e-09, 2.351729752575157e-09).transl(-1.1996751179955792e-07, -2.6469787432711552e-08, 0))
hIsland = hIsland.add(rect(4.502965741261514e-09, 2.64574991722184e-10).transl(-1.0894341615220668e-07, -3.012554664551429e-08, 0))
hIsland = hIsland.add(rect(7.734016501113643e-09, 1.4062393333673849e-09).transl(-1.2792697554472058e-07, -2.3118793366878193e-08, 0))
hIsland = hIsland.add(rect(5.461882336944856e-09, 8.728131110899692e-10).transl(1.0314391416614275e-07, -3.1710439606707765e-08, 0))
hIsland = hIsland.add(rect(9.015381159649391e-09, 6.853058445216978e-10).transl(-1.1626256158132572e-07, -2.780641506604784e-08, 0))
hIsland = hIsland.add(rect(8.725477338019645e-09, 2.14329239400317e-09).transl(8.587181819118912e-08, -3.539984295635396e-08, 0))
hIsland = hIsland.sub(rect(5.702523746008156e-09, -2.681008146286596e-09).transl(-1.2794229550375337e-07, -2.311158139561553e-08, 0))
hIsland = hIsland.add(rect(6.155679430549423e-09, 9.55635396550427e-10).transl(1.0683788122121402e-07, -3.0724474517583264e-08, 0))
hIsland = hIsland.sub(rect(6.7625477679087825e-09, -6.577623663982971e-10).transl(-1.9264106584014626e-08, -4e-08, 0))
hIsland = hIsland.sub(rect(4.9032082190861466e-09, -1.135520954303934e-09).transl(-4.035231256857896e-08, -3.985087427520316e-08, 0))
hIsland = hIsland.add(rect(7.230117027211779e-09, 4.241586208500196e-10).transl(-5.35410196565923e-08, -3.922275472439143e-08, 0))
hIsland = hIsland.sub(rect(7.971572169933189e-09, -1.4138735903677422e-09).transl(-3.3293345493782e-08, -3.998493310049367e-08, 0))
hIsland = hIsland.add(rect(7.610013801491644e-09, 3.2610479303946554e-09).transl(5.275448139027596e-08, -3.927429690531227e-08, 0))
hIsland = hIsland.sub(rect(5.262939911908849e-09, -4.75796062341902e-10).transl(-1.3741929613439783e-07, -1.7829734272309614e-08, 0))
hIsland = hIsland.add(rect(9.232534191626647e-09, 2.4404961100506915e-09).transl(3.860813504162681e-08, -3.9896950609044906e-08, 0))
hIsland = hIsland.sub(rect(2.877987211263056e-09, -4.6173849624245456e-10).transl(-7.662163809463843e-08, -3.685771871727e-08, 0))
hIsland = hIsland.add(rect(2.3651456841622728e-09, 1.5387443568449654e-09).transl(5.3717041053483533e-08, -3.921097063559208e-08, 0))
hIsland = hIsland.sub(rect(9.075068953182418e-09, -1.7952959706680572e-09).transl(5.8165547564365444e-08, -3.888258954910778e-08, 0))
hIsland = hIsland.add(rect(9.447345487314723e-09, 1.083150012210302e-09).transl(2.7688766012209876e-08, -4e-08, 0))
hIsland = hIsland.add(rect(6.983280428893325e-09, 6.612841797358145e-10).transl(-1.6711234421883128e-08, -4e-08, 0))
hIsland = hIsland.sub(rect(7.079638358320984e-09, -1.735382225943713e-09).transl(8.26286072588124e-08, -3.594784756034726e-08, 0))
hIsland = hIsland.add(rect(5.424754782679154e-09, 9.388073102267546e-10).transl(-1.2044531881408078e-07, -2.628824051552601e-08, 0))
hIsland = hIsland.sub(rect(8.962228554339353e-09, -1.0450332847901074e-09).transl(1.3394045229034867e-07, -1.9989948523300282e-08, 0))
hIsland = hIsland.sub(rect(9.194479918667103e-09, -9.230830939487042e-10).transl(-1.2106926405855943e-07, -2.604779611882821e-08, 0))
hIsland = hIsland.add(rect(7.247874013218335e-09, 2.2978170074214826e-10).transl(1.417742383879194e-07, -1.4554570236033029e-08, 0))
hIsland = hIsland.sub(rect(4.506418693936809e-09, -2.1325003190535164e-09).transl(9.583007521588992e-08, -3.344381888924615e-08, 0))
hIsland = hIsland.sub(rect(7.446665825135718e-09, -3.6722523637169565e-09).transl(2.917906083203528e-08, -4e-08, 0))
hIsland = hIsland.add(rect(9.603434461580633e-09, 7.224841358604237e-11).transl(-1.4894184579094545e-07, -5.300286363783214e-09, 0))
hIsland = hIsland.sub(rect(5.494148861035696e-09, -1.8409626545957258e-09).transl(2.767970123347666e-08, -4e-08, 0))
hIsland = hIsland.add(rect(2.6416783703589744e-09, 3.0733648760440067e-09).transl(-1.3958033431811053e-07, -1.6303204629530596e-08, 0))
hIsland = hIsland.sub(rect(6.942350346055318e-09, -1.255575503891626e-09).transl(-1.31675114407373e-07, -2.1245054614734893e-08, 0))
hIsland = hIsland.sub(rect(7.358349395633258e-09, -1.3302155368573191e-09).transl(1.0472241330948947e-07, -3.129884795395978e-08, 0))
hIsland = hIsland.sub(rect(5.84382209418244e-09, -9.519924774213346e-10).transl(-5.8075274236300246e-08, -3.8889842970678855e-08, 0))
hIsland = hIsland.sub(rect(5.096078923626134e-09, -6.12104215454727e-10).transl(4.925579182936623e-08, -3.9481661679856884e-08, 0))
hIsland = hIsland.add(rect(6.581153691458597e-09, 5.237861465033523e-10).transl(7.10964263741136e-08, -3.758114737068909e-08, 0))
hIsland = hIsland.sub(rect(9.434906836006798e-09, -1.037194747042393e-09).transl(-8.672851591284522e-08, -3.5248129158117616e-08, 0))
hIsland = hIsland.sub(rect(4.994105752142615e-09, -2.5077787423355494e-09).transl(5.999515371478014e-08, -3.8730250527959716e-08, 0))
hIsland = hIsland.sub(rect(2.603214328944511e-09, -2.1222549594881485e-09).transl(1.1527660127429276e-07, -2.8142299667355806e-08, 0))
hIsland = hIsland.add(rect(9.552149610095033e-09, 1.4726226183659232e-10).transl(1.449334791693392e-07, -1.1500219157482153e-08, 0))
hIsland = hIsland.sub(rect(2.2049986946560118e-09, -7.860361156042528e-10).transl(1.24355796633251e-07, -2.471388193282063e-08, 0))
hIsland = hIsland.add(rect(6.965803762271231e-09, 7.819689654655082e-10).transl(5.3906945465235884e-08, -3.919815465968638e-08, 0))
hIsland = hIsland.add(rect(3.1674878315387832e-09, 8.327578519394559e-10).transl(5.8285666484038304e-08, -3.887289983116452e-08, 0))
hIsland = hIsland.sub(rect(2.0518166859627548e-09, -1.9736529909971476e-09).transl(2.7669089863355947e-08, -4e-08, 0))
hIsland = hIsland.add(rect(6.9301012132820935e-09, 6.924872283536349e-10).transl(1.1507164301303871e-08, -4e-08, 0))
hIsland = hIsland.sub(rect(3.4791260951413224e-09, -2.1923057688555785e-09).transl(5.85968648879374e-08, -3.884759297359798e-08, 0))
hIsland = hIsland.add(rect(2.636914137793504e-09, 2.712135539750416e-10).transl(1.130391772111135e-07, -2.8876162887793204e-08, 0))
hIsland = hIsland.sub(rect(9.661538619531712e-09, -2.2127068054768945e-09).transl(-1.3041249936643066e-07, -2.1902130720768206e-08, 0))
hIsland = hIsland.add(rect(8.206948200703395e-09, 1.3948695958418624e-09).transl(-1.2565825039604453e-07, -2.4151142441732438e-08, 0))
hIsland = hIsland.sub(rect(9.69260317403343e-09, -3.3732308854973907e-10).transl(4.668017625690469e-08, -3.9611686996023723e-08, 0))
hIsland = hIsland.sub(rect(5.425427764097094e-09, -1.7873377624065435e-09).transl(6.221365951311918e-08, -3.853177641141403e-08, 0))
hIsland = hIsland.add(rect(8.747381003998609e-09, 1.5122923969116849e-09).transl(-5.3435229008336775e-08, -3.9229793158497974e-08, 0))
hIsland = hIsland.add(rect(5.016284273451145e-09, 1.9133960932443916e-09).transl(-9.671493978338117e-08, -3.324841986170141e-08, 0))
hIsland = hIsland.add(rect(3.378961199918969e-09, 1.1392946841600864e-09).transl(-2.879523662742115e-08, -4e-08, 0))
hIsland = hIsland.sub(rect(8.082165282808542e-09, -3.175203944121824e-10).transl(-1.5025902434903144e-08, -4e-08, 0))
hIsland = hIsland.sub(rect(6.0155451660885335e-09, -1.2016105375040123e-10).transl(-1.494431301641984e-08, -4e-08, 0))
hIsland = hIsland.add(rect(2.442771446097697e-09, 2.815008172481514e-09).transl(2.0678322298283445e-08, -4e-08, 0))
hIsland = hIsland.add(rect(4.69778678847199e-09, 2.992030106360427e-09).transl(6.572089093316543e-08, -3.818670209341481e-08, 0))
hIsland = hIsland.add(rect(3.04740110804922e-09, 2.4633707621841282e-09).transl(-1.2272521216963183e-07, -2.539036350030102e-08, 0))
hIsland = hIsland.sub(rect(7.470151541557688e-09, -1.5846473389297175e-09).transl(-7.550313571090226e-08, -3.701270748821757e-08, 0))
hIsland = hIsland.sub(rect(7.636207409393517e-09, -7.568085920366431e-10).transl(5.4475684463472695e-08, -3.9159135261767353e-08, 0))
hIsland = hIsland.add(rect(6.693649111290433e-09, 3.903627923480963e-09).transl(5.170694731570646e-09, -4e-08, 0))
hIsland = hIsland.add(rect(8.709889109311401e-09, 5.647148319693332e-10).transl(-2.2308333928308492e-08, -4e-08, 0))
hIsland = hIsland.add(rect(2.532272013423092e-09, 1.0111388208629376e-09).transl(-1.1874614243503782e-08, -4e-08, 0))
hIsland = hIsland.sub(rect(9.652928002068849e-09, -1.6254242527153127e-09).transl(-1.6013235270419164e-08, -4e-08, 0))
hIsland = hIsland.add(rect(3.206125030851719e-09, 7.189556580218317e-10).transl(5.523411258620147e-08, -3.9105611364876626e-08, 0))
hIsland = hIsland.add(rect(6.459121707837899e-09, 1.3101934654609578e-09).transl(3.783066858058169e-08, -3.9914743349044865e-08, 0))
hIsland = hIsland.add(rect(8.277898791463078e-09, 2.289864611031072e-09).transl(1.4653551233765453e-07, -9.54215421869583e-09, 0))
hIsland = hIsland.sub(rect(8.749279416885664e-09, -1.1802723192627152e-09).transl(-4.889466608700224e-09, -4e-08, 0))
hIsland = hIsland.add(rect(4.513899072768124e-09, 5.196088447944583e-10).transl(1.0561469065585332e-07, -3.1059832147038065e-08, 0))
hIsland = hIsland.add(rect(2.551351897130581e-09, 1.5905455972864041e-09).transl(5.639346811938646e-08, -3.902048584558704e-08, 0))
hIsland = hIsland.add(rect(9.458771562169908e-09, 1.5873671969020055e-09).transl(1.250406920470492e-07, -2.442054430009919e-08, 0))
hIsland = hIsland.sub(rect(9.174913431570911e-09, -6.013666858803662e-10).transl(1.6497113349905424e-08, -4e-08, 0))
hIsland = hIsland.add(rect(5.666642766389441e-09, 3.3789575288570995e-09).transl(-9.791769097372637e-08, -3.297673801804574e-08, 0))
hIsland = hIsland.add(rect(7.471720425186866e-09, 1.2235951025784244e-09).transl(5.585024444739862e-08, -3.906087110311821e-08, 0))
hIsland = hIsland.add(rect(8.402421668669275e-09, 4.525214102849568e-09).transl(1.4248327276243392e-07, -1.3934423197614267e-08, 0))
hIsland = hIsland.sub(rect(3.2941425748885717e-09, -1.644465461410824e-11).transl(1.0060070639598386e-07, -3.234456893511917e-08, 0))
hIsland = hIsland.add(rect(4.641971079179028e-09, 1.2175004818024076e-09).transl(2.8811106920569667e-08, -4e-08, 0))
hIsland = hIsland.add(rect(7.494437540131122e-09, 5.003340871206454e-09).transl(-1.3429866747954597e-07, -1.978155134347575e-08, 0))
hIsland = hIsland.sub(rect(6.514330570244689e-09, -1.947388284753845e-09).transl(-1.2949411684515966e-08, -4e-08, 0))
hIsland = hIsland.add(rect(2.40458618163723e-09, 4.071685075479814e-10).transl(-3.980190149009084e-08, -3.9866336017551e-08, 0))
hIsland = hIsland.sub(rect(2.5393764246054664e-09, -9.53552013258327e-10).transl(1.8590877003401064e-08, -4e-08, 0))
hIsland = hIsland.add(rect(3.987328013315346e-09, 1.3748807770238239e-09).transl(-4.032584737741656e-08, -3.9851637183626054e-08, 0))
hIsland = hIsland.add(rect(9.370237816363337e-09, 1.2865646407803723e-10).transl(-2.7539746542503346e-08, -4e-08, 0))
hIsland = hIsland.sub(rect(2.9771642647070817e-09, -5.45568515737788e-10).transl(-1.19138336081122e-07, -2.6779671064051023e-08, 0))
hIsland = hIsland.sub(rect(6.973232569248049e-09, -5.733760022571641e-10).transl(7.370078903434195e-08, -3.725324898251e-08, 0))
hIsland = hIsland.add(rect(3.044926470991574e-09, 2.0872446201406482e-10).transl(1.6555127453535205e-08, -4e-08, 0))
hIsland = hIsland.add(rect(7.993087841372622e-09, 5.573365005158443e-10).transl(-1.4267436073900438e-07, -1.376181686994333e-08, 0))
hIsland = hIsland.add(rect(7.551333841130325e-09, 1.4933161922638757e-10).transl(-1.7784485460970584e-09, -4e-08, 0))
hIsland = hIsland.add(rect(7.60200943413383e-09, 5.41460577950925e-09).transl(5.99969987858201e-08, -3.873009175168222e-08, 0))
hIsland = hIsland.sub(rect(9.350056334895166e-09, -1.1961641825843726e-10).transl(-1.2317163225050168e-08, -4e-08, 0))
hIsland = hIsland.add(rect(8.899811184669406e-09, 1.5869487011056308e-10).transl(2.635698670465341e-08, -4e-08, 0))
hIsland = hIsland.sub(rect(3.077859302253893e-09, -1.2927908683613781e-09).transl(-3.0148120357900085e-08, -3.999996952826558e-08, 0))
hIsland = hIsland.sub(rect(3.171391312537133e-09, -1.500677875834663e-09).transl(9.511225563184175e-08, -3.3599593526862946e-08, 0))
hIsland = hIsland.sub(rect(2.803880624947377e-09, -2.0361312064675034e-10).transl(3.476476100632359e-08, -3.996845569050203e-08, 0))
hIsland = hIsland.add(rect(9.904779251651964e-09, 6.117541447426703e-10).transl(9.935314746551137e-08, -3.264308832173791e-08, 0))
hIsland = hIsland.sub(rect(3.2205274603422283e-09, -1.1680517977171034e-10).transl(1.7198984941065822e-08, -4e-08, 0))
hIsland = hIsland.sub(rect(7.0164542351216634e-09, -5.420765834041226e-10).transl(-1.1512211562407242e-07, -2.8194218145810694e-08, 0))
hIsland = hIsland.add(rect(8.507289818849267e-09, 3.1160286230068475e-09).transl(-6.478215852544578e-08, -3.828286743049945e-08, 0))
hIsland = hIsland.add(rect(7.028852712861159e-09, 1.6581477301151031e-09).transl(1.071133597303794e-07, -3.064769295485044e-08, 0))
hIsland = hIsland.add(rect(6.317561282859546e-09, 1.0163911143769698e-09).transl(2.9097189590493518e-08, -4e-08, 0))
hIsland = hIsland.sub(rect(7.617093536078817e-09, -2.500050202029302e-09).transl(-4.504570829210077e-08, -3.968434712689208e-08, 0))
hIsland = hIsland.sub(rect(3.9315643972431205e-09, -8.570638846675572e-10).transl(-1.3359393649523402e-07, -2.0188820672786615e-08, 0))
hIsland = hIsland.sub(rect(4.152652952743967e-09, -6.587430493110164e-10).transl(1.0545334363108011e-07, -3.1103399126301555e-08, 0))
hIsland = hIsland.sub(rect(4.913789757881605e-09, -7.45493289374603e-10).transl(4.413510437311216e-08, -3.972152904123241e-08, 0))
hIsland = hIsland.add(rect(9.710228029764057e-09, 1.1973225494680579e-09).transl(1.1214157949895056e-07, -2.916002003774953e-08, 0))
hIsland = hIsland.sub(rect(8.247809196698144e-09, -7.900019927036973e-10).transl(-5.4508271201387593e-08, -3.9156870608587875e-08, 0))
hIsland = hIsland.sub(rect(3.1771869031459235e-09, -3.691959094771777e-10).transl(-1.1016919859581256e-07, -2.9763698240390403e-08, 0))
hIsland = hIsland.add(rect(2.8259741972617704e-09, 2.2268772296210362e-09).transl(4.278874042206247e-08, -3.977219592520649e-08, 0))
hIsland = hIsland.add(rect(8.530452267042626e-09, 5.214686254520738e-09).transl(8.314858424056424e-09, -4e-08, 0))
hIsland = hIsland.sub(rect(2.607527997635767e-09, -5.3813393329604e-10).transl(-6.171408880268613e-08, -3.8577795241729605e-08, 0))
hIsland = hIsland.sub(rect(4.800019940246739e-09, -3.0978571295416833e-09).transl(-4.4416451665681195e-09, -4e-08, 0))
hIsland = hIsland.add(rect(8.061132278966211e-09, 1.3368278423890638e-09).transl(1.3950356385032804e-07, -1.6360418033497572e-08, 0))
hIsland = hIsland.add(rect(9.160237680331879e-09, 1.4536629343125987e-09).transl(-2.7149342632810715e-08, -4e-08, 0))
hIsland = hIsland.sub(rect(8.244490742332303e-09, -3.5612968321535654e-09).transl(-1.0162257087664225e-07, -3.2093971986825673e-08, 0))
hIsland = hIsland.add(rect(5.7500882091778015e-09, 2.9142527657347388e-09).transl(6.146660561116222e-08, -3.86003061751121e-08, 0))
hIsland = hIsland.add(rect(9.742898333189868e-09, 2.361943216733173e-09).transl(-6.464601589490046e-09, -4e-08, 0))
hIsland = hIsland.add(rect(6.68349271842615e-09, 2.9877252505821823e-10).transl(1.6958371247055696e-08, -4e-08, 0))
hIsland = hIsland.sub(rect(8.516658980701916e-09, -2.550257411649236e-09).transl(2.03148032181958e-08, -4e-08, 0))
hIsland = hIsland.sub(rect(5.9211344589874435e-09, -2.3668179259502917e-10).transl(1.1049774797525626e-07, -2.9665004767893186e-08, 0))
hIsland = hIsland.add(rect(2.744652867701236e-09, 2.712462035894509e-10).transl(-1.2328579754951595e-07, -2.516116932354017e-08, 0))
hIsland = hIsland.sub(rect(5.330441759957938e-09, -1.3379302561996476e-09).transl(-5.138011626122386e-08, -3.936000596863176e-08, 0))
hIsland = hIsland.sub(rect(2.3991378604082174e-09, -3.428392521347899e-10).transl(1.4293302721576668e-07, -1.3524181486355408e-08, 0))
hIsland = hIsland.sub(rect(8.42400011964751e-09, -8.317301086227482e-10).transl(-1.4382498432396247e-07, -1.2666109389713532e-08, 0))
hIsland = hIsland.sub(rect(8.133050384484026e-09, -2.1921070052060765e-10).transl(-1.1545184531625946e-07, -2.8083174345832988e-08, 0))
hIsland = hIsland.add(rect(4.099858320306712e-09, 2.70281065959051e-09).transl(-9.10239311706368e-08, -3.444170570121408e-08, 0))
hIsland = hIsland.sub(rect(4.728208501904802e-09, -5.066389855921614e-10).transl(-8.561146924612887e-08, -3.54453640414635e-08, 0))
hIsland = hIsland.add(rect(6.962326408893762e-09, 1.1108649907577342e-09).transl(7.138365369057078e-08, -3.754610973666455e-08, 0))
hIsland = hIsland.sub(rect(7.59443159488771e-09, -2.9478507197394888e-09).transl(-2.5870136746129244e-08, -4e-08, 0))
hIsland = hIsland.sub(rect(7.400053508364707e-09, -1.7300703310981776e-09).transl(-8.97765923353841e-08, -3.4683904382243196e-08, 0))
hIsland = hIsland.sub(rect(8.555785653449624e-09, -3.4098650832240017e-09).transl(-1.4162536905734129e-07, -1.4680966448706287e-08, 0))
hIsland = hIsland.add(rect(4.650721468209612e-09, 2.05828340084e-09).transl(1.291426351609702e-07, -2.253574418399643e-08, 0))
hIsland = hIsland.sub(rect(5.090243693885874e-09, -1.337866964425631e-09).transl(8.57340047187762e-08, -3.5423972921686545e-08, 0))
hIsland = hIsland.sub(rect(4.910105750112223e-09, -1.4466073106404217e-09).transl(6.227715032218797e-09, -4e-08, 0))
hIsland = hIsland.sub(rect(3.6885757360310345e-09, -2.8702932867619994e-09).transl(-1.3522217565008041e-07, -1.92304554503863e-08, 0))
hIsland = hIsland.add(rect(9.738709337275634e-09, 9.306781179585681e-11).transl(1.2494458732988576e-07, -2.4462046195774152e-08, 0))
hIsland = hIsland.add(rect(2.6018652874804237e-09, 1.2483030468908862e-09).transl(-8.689190582152623e-08, -3.5218857089151346e-08, 0))
hIsland = hIsland.sub(rect(9.165588389037708e-09, -4.418117142888374e-09).transl(-1.2242566880269358e-07, -2.5511426081430862e-08, 0))
hIsland = hIsland.sub(rect(2.898241759007836e-09, -2.4357028547584093e-09).transl(-1.255684680695388e-07, -2.4190604031872342e-08, 0))
hIsland = hIsland.add(rect(2.3956034851123597e-09, 2.250125754953132e-09).transl(2.2546838753296885e-08, -4e-08, 0))
hIsland = hIsland.sub(rect(3.673707857755373e-09, -7.516302537864566e-10).transl(-1.1642796882264814e-07, -2.7749286687911982e-08, 0))
hIsland = hIsland.add(rect(7.245928371198538e-09, 4.984061217746684e-10).transl(2.9101423367919365e-08, -4e-08, 0))
hIsland = hIsland.add(rect(2.6815467194207e-09, 2.079005625515771e-09).transl(-7.440469436227448e-08, -3.7160646924450406e-08, 0))
hIsland = hIsland.add(rect(6.250412529331782e-09, 2.290526956997309e-09).transl(1.363868227591276e-07, -1.8504785997195342e-08, 0))
hIsland = hIsland.add(rect(3.02501006624134e-09, 5.170167355007705e-10).transl(-2.2644961330929863e-08, -4e-08, 0))
hIsland = hIsland.sub(rect(4.721453127393182e-09, -2.0994411575200055e-09).transl(1.6216804649125945e-08, 4e-08, 0))
hIsland = hIsland.sub(rect(2.043330593356134e-09, -1.7603813316508602e-09).transl(-2.6789812380108917e-08, 4e-08, 0))
hIsland = hIsland.sub(rect(4.978816593335602e-09, -1.41058837813806e-10).transl(-1.4383650827761524e-08, 4e-08, 0))
hIsland = hIsland.add(rect(8.738420132821152e-09, 5.072041285437618e-10).transl(-1.454879278761443e-07, 1.086553427062173e-08, 0))
hIsland = hIsland.add(rect(8.168386398011104e-09, 4.279913724100152e-09).transl(7.977225736122018e-08, 3.639707313807964e-08, 0))
hIsland = hIsland.add(rect(5.608464200813023e-09, 1.845010395274756e-09).transl(4.879817117462828e-08, 3.9506158114188525e-08, 0))
hIsland = hIsland.add(rect(4.859778353316174e-09, 1.8456620189789375e-09).transl(-8.505371726063824e-08, 3.554197552157434e-08, 0))
hIsland = hIsland.sub(rect(7.273845129566656e-09, -8.011981616353878e-10).transl(4.6700439938722324e-08, 3.961073831095852e-08, 0))
hIsland = hIsland.add(rect(4.2930422261518405e-09, 1.2365223986081103e-09).transl(-5.584540821284628e-08, 3.906122668937879e-08, 0))
hIsland = hIsland.sub(rect(2.5508498310817674e-09, -2.2207316311809873e-09).transl(4.803686759492843e-08, 3.95455734387035e-08, 0))
hIsland = hIsland.add(rect(6.833289437617e-09, 1.8110535989293646e-09).transl(1.4973529374829756e-07, 2.6553809312183243e-09, 0))
hIsland = hIsland.add(rect(9.098012719284598e-09, 3.0597618979732507e-09).transl(1.4262440416915524e-07, 1.380717842904259e-08, 0))
hIsland = hIsland.add(rect(8.575110350520113e-09, 1.0763834472886802e-09).transl(7.995212882449069e-08, 3.63696833852676e-08, 0))
hIsland = hIsland.sub(rect(9.314855290230242e-09, -1.0702784795626082e-09).transl(9.625157847946746e-08, 3.335120912180774e-08, 0))
hIsland = hIsland.sub(rect(6.073617105878664e-09, -1.2342402576532042e-09).transl(3.0444159635154404e-08, 3.9999726002142814e-08, 0))
hIsland = hIsland.add(rect(8.96358906017493e-09, 5.53707624103783e-10).transl(2.9015201918995397e-08, 4e-08, 0))
hIsland = hIsland.sub(rect(6.477408958718799e-09, -1.0120085116071252e-09).transl(-3.112363822673839e-08, 3.999824640202703e-08, 0))
hIsland = hIsland.add(rect(2.8880741282038376e-09, 7.415345113275511e-10).transl(1.2164794163034252e-08, 4e-08, 0))
hIsland = hIsland.sub(rect(2.7758150944919173e-09, -1.4557414552503495e-09).transl(-7.716010325377693e-08, 3.6781524137795504e-08, 0))
hIsland = hIsland.sub(rect(3.2295488048203627e-09, -1.180954102466922e-09).transl(-7.642888269864139e-08, 3.6884743686479794e-08, 0))
hIsland = hIsland.sub(rect(4.333533295769117e-09, -2.9715401521350883e-09).transl(-1.4127186132122864e-07, 1.4976176926888726e-08, 0))
hIsland = hIsland.sub(rect(7.81894202978192e-09, -6.262291690801724e-10).transl(8.510228898123052e-08, 3.5533611238795936e-08, 0))
hIsland = hIsland.add(rect(6.645302931702835e-09, 1.8614546292980865e-09).transl(7.268677158117227e-08, 3.7383655864230335e-08, 0))
hIsland = hIsland.sub(rect(8.728400730383379e-09, -4.059075399938237e-09).transl(-8.498614017941989e-08, 3.555359708035366e-08, 0))
hIsland = hIsland.add(rect(6.882628392140863e-09, 1.7872775210379119e-09).transl(-1.1370458105099232e-07, 2.866190485853587e-08, 0))
hIsland = hIsland.add(rect(9.33929281935917e-09, 2.2043696868426797e-09).transl(1.1249299001847727e-07, 2.9049587103226353e-08, 0))
hIsland = hIsland.add(rect(8.068089244064229e-09, 9.429420704783012e-10).transl(-7.525828368577687e-08, 3.704604905882189e-08, 0))
hIsland = hIsland.add(rect(3.019449788166168e-09, 3.254986421194582e-09).transl(5.4496444617923515e-08, 3.91576928742134e-08, 0))
hIsland = hIsland.add(rect(7.35756120389532e-09, 1.4959308057106567e-09).transl(6.893100114937196e-08, 3.7836456771960035e-08, 0))
hIsland = hIsland.sub(rect(2.5185892423318466e-09, -1.2011211126231625e-09).transl(-1.0057655008219742e-07, 3.235042602930031e-08, 0))
hIsland = hIsland.add(rect(6.295523378594469e-09, 3.217995145805103e-09).transl(7.105562566178625e-08, 3.7586102043647405e-08, 0))
hIsland = hIsland.sub(rect(6.318444539871985e-09, -1.7759606062484555e-09).transl(-1.1064847636810783e-07, 2.9619481688583043e-08, 0))
hIsland = hIsland.add(rect(5.458280350136733e-09, 1.8671682964834337e-09).transl(1.3172798624497363e-07, 2.1216913626586948e-08, 0))
hIsland = hIsland.sub(rect(6.724024675990658e-09, -2.1467727992634665e-09).transl(5.5435472151430815e-08, 3.909111401788532e-08, 0))
hIsland = hIsland.add(rect(9.188216781826217e-09, 3.8039135186602006e-09).transl(-3.33478550517266e-08, 3.998443011772434e-08, 0))
hIsland = hIsland.add(rect(3.814861273078808e-09, 3.2007332485884165e-09).transl(8.304810046143391e-08, 3.587927138711713e-08, 0))
hIsland = hIsland.add(rect(9.636879213560718e-09, 1.5002669088795798e-09).transl(1.4286211160895825e-07, 1.3589799128460104e-08, 0))
hIsland = hIsland.add(rect(3.210035126829236e-09, 8.930529485961656e-10).transl(1.4438730485421348e-07, 1.2090145152098208e-08, 0))
hIsland = hIsland.add(rect(3.741823688242639e-09, 3.2747400197924255e-09).transl(-5.2966779218308613e-08, 3.926056411596964e-08, 0))
hIsland = hIsland.add(rect(7.589712440382355e-09, 1.1544778104776289e-09).transl(-6.834370799060668e-08, 3.7903034263662096e-08, 0))
hIsland = hIsland.add(rect(6.0507648930948826e-09, 3.1071826753181763e-09).transl(5.097393098284362e-08, 3.93842808732493e-08, 0))
hIsland = hIsland.sub(rect(3.413719857933922e-09, -2.4794730241192463e-09).transl(6.36491607645608e-08, 3.8395216686805525e-08, 0))
hIsland = hIsland.add(rect(3.0947216786322125e-09, 1.306256466265688e-09).transl(-1.4141221076289528e-07, 1.4859786498108117e-08, 0))
hIsland = hIsland.sub(rect(8.29034806417434e-09, -1.805197933475207e-09).transl(1.399629608075132e-07, 1.6014393700825372e-08, 0))
hIsland = hIsland.sub(rect(7.445318991033352e-09, -2.618130146318153e-09).transl(1.1986707050327036e-07, 2.6507671089202836e-08, 0))
hIsland = hIsland.add(rect(3.965636696276005e-09, 1.9646516298664826e-09).transl(-4.9801031214732795e-08, 3.945168516726529e-08, 0))
hIsland = hIsland.sub(rect(2.0178206021678883e-09, -1.5238060181452212e-09).transl(9.918524308749883e-08, 3.2682652787277596e-08, 0))
hIsland = hIsland.sub(rect(3.798047637782829e-09, -3.1402563387498964e-10).transl(-3.564588967387561e-08, 3.9955703152630895e-08, 0))
hIsland = hIsland.add(rect(7.480682887947485e-09, 1.9405994119452974e-09).transl(3.8329024720399754e-08, 3.9903532769260434e-08, 0))
hIsland = hIsland.sub(rect(4.114714734267914e-09, -1.31061358900976e-09).transl(-1.9460757384524434e-08, 4e-08, 0))
hIsland = hIsland.sub(rect(4.381150471912573e-09, -2.646854637005779e-09).transl(-3.593925587035764e-08, 3.9950977236978855e-08, 0))
hIsland = hIsland.sub(rect(4.640773289103232e-09, -1.7132338121502052e-09).transl(-9.985126803900414e-08, 3.252486288867368e-08, 0))
hIsland = hIsland.add(rect(8.085631688035587e-09, 7.5289192652578e-10).transl(6.481674521686798e-09, 4e-08, 0))
hIsland = hIsland.add(rect(3.17986327523308e-09, 8.983300249482084e-10).transl(-1.4249419863510724e-08, 4e-08, 0))
hIsland = hIsland.add(rect(8.825535152798278e-09, 5.749584709233168e-10).transl(1.4125476980496218e-07, 1.499027905620053e-08, 0))
hIsland = hIsland.sub(rect(4.96300016543336e-09, -2.4199796875891914e-09).transl(6.693032903100022e-08, 3.805865472846129e-08, 0))
hIsland = hIsland.sub(rect(5.2354319389592736e-09, -3.805834178799513e-09).transl(1.2324196414070116e-07, 2.5179215686276304e-08, 0))
hIsland = hIsland.add(rect(5.4710943642683404e-09, 1.9689145167622664e-09).transl(-2.2705209052896606e-08, 4e-08, 0))
hIsland = hIsland.add(rect(4.833910576937622e-09, 2.238821788111727e-09).transl(-1.4009256716275405e-07, 1.5915145321759445e-08, 0))
hIsland = hIsland.add(rect(8.864745077772259e-09, 8.255323874818409e-10).transl(1.0937864666308487e-08, 4e-08, 0))
hIsland = hIsland.add(rect(4.918517602739585e-09, 2.5893693021641313e-11).transl(-4.3297862017945806e-08, 3.9753639757541806e-08, 0))
hIsland = hIsland.sub(rect(6.2944590729470414e-09, -2.522774595827899e-09).transl(3.3415434640436024e-08, 3.998379505946671e-08, 0))
hIsland = hIsland.add(rect(5.223416210402147e-09, 5.964454673844178e-10).transl(-1.1763454685112565e-07, 2.7325580604175976e-08, 0))
hIsland = hIsland.sub(rect(5.3825515150615075e-09, -1.0837901687494995e-09).transl(9.013462298845604e-08, 3.46150691623625e-08, 0))
hIsland = hIsland.add(rect(7.2499576394162945e-09, 8.357873350419889e-10).transl(3.042048157886123e-08, 3.999975443708212e-08, 0))
hIsland = hIsland.add(rect(6.9039680507762535e-09, 3.7529009179345996e-10).transl(6.888851700661305e-11, 4e-08, 0))
hIsland = hIsland.add(rect(4.331058313822972e-09, 3.765981572305567e-09).transl(-3.5706471041593398e-09, 4e-08, 0))
hIsland = hIsland.add(rect(4.503120139101373e-09, 1.1480976129091827e-09).transl(-8.664292209483526e-08, 3.52634204185811e-08, 0))
hIsland = hIsland.add(rect(4.445318277236532e-09, 5.892374588041845e-10).transl(-4.8199064639161706e-08, 3.953731577223333e-08, 0))
hIsland = hIsland.sub(rect(2.040499881589418e-09, -6.688161843428698e-09).transl(-1.4516781281130602e-07, 1.1236720024890523e-08, 0))
hIsland = hIsland.add(rect(8.60239567318159e-09, 2.1832350324948284e-09).transl(-5.440323836990971e-08, 3.9164158724047347e-08, 0))
hIsland = hIsland.sub(rect(3.5622233174834197e-09, -3.904515073120991e-09).transl(-9.625465799240819e-08, 3.3350529388283785e-08, 0))
hIsland = hIsland.add(rect(2.8916551251066604e-09, 5.6310451130902126e-11).transl(-1.2859766564576543e-07, 2.27998546028645e-08, 0))
hIsland = hIsland.sub(rect(3.344773659074414e-09, -1.3507116388347615e-09).transl(-8.432336349088156e-08, 3.566662333180788e-08, 0))
hIsland = hIsland.sub(rect(7.496831554947696e-09, -1.6519713905599283e-09).transl(-1.0200188065822076e-07, 3.199952982585029e-08, 0))
hIsland = hIsland.add(rect(2.916090473067877e-09, 1.8190928731583155e-09).transl(1.326168079002559e-07, 2.0735880701929794e-08, 0))
hIsland = hIsland.add(rect(7.3392345415407e-09, 2.0010243788926383e-09).transl(-6.639835723249143e-08, 3.811555469996751e-08, 0))
hIsland = hIsland.sub(rect(9.176529356655032e-09, -5.214024588215699e-10).transl(-3.6335190511813824e-08, 3.994421855145696e-08, 0))
hIsland = hIsland.sub(rect(6.312879441511621e-09, -2.615696754286528e-10).transl(-1.3733378848274496e-07, 1.7886860012439197e-08, 0))
hIsland = hIsland.sub(rect(5.989267090468693e-09, -1.1980716985081379e-09).transl(-1.3737532907297371e-07, 1.7859136181893045e-08, 0))
hIsland = hIsland.sub(rect(4.389252450310838e-09, -5.570305826523301e-10).transl(-1.1389945490983635e-07, 2.8598526507948196e-08, 0))
hIsland = hIsland.add(rect(5.025369626057939e-09, 2.8256855197715797e-09).transl(-8.411897491609055e-08, 3.5701130629515493e-08, 0))
hIsland = hIsland.add(rect(2.557281517784312e-09, 6.903176068527449e-10).transl(-2.8399575055245193e-08, 4e-08, 0))
hIsland = hIsland.add(rect(6.164036768473349e-09, 8.675342041372038e-10).transl(8.809858157896485e-08, 3.499929335558452e-08, 0))
hIsland = hIsland.sub(rect(7.082526361508849e-09, -2.0951430270161043e-09).transl(1.2916393317177444e-07, 2.2525329835799064e-08, 0))
hIsland = hIsland.sub(rect(3.0846679187178536e-09, -9.093515955055815e-10).transl(-1.331432609770268e-07, 2.0443601865253433e-08, 0))
hIsland = hIsland.sub(rect(3.9770574112094445e-09, -3.6721748477328614e-09).transl(4.7096671607795836e-08, 3.9591951791487434e-08, 0))
hIsland = hIsland.sub(rect(6.637035989147552e-09, -1.919245791776093e-09).transl(1.2605036330155348e-07, 2.3977599985633795e-08, 0))
hIsland = hIsland.add(rect(5.309314948468764e-09, 4.0212461603211366e-10).transl(4.609354381644153e-08, 3.963864254799332e-08, 0))
hIsland = hIsland.sub(rect(9.141534882790692e-09, -7.449526200987446e-10).transl(-8.439347893537636e-08, 3.565474792959522e-08, 0))
hIsland = hIsland.add(rect(7.627026080715673e-09, 6.513239577576182e-10).transl(1.1269186000249285e-07, 2.898669482007243e-08, 0))
hIsland = hIsland.add(rect(6.6635167575494185e-09, 1.156445258893023e-09).transl(1.2502912541818628e-07, 2.442554519408506e-08, 0))
hIsland = hIsland.sub(rect(3.7052726137462086e-09, -1.1799279704895597e-09).transl(-1.4325195279727186e-07, 1.3224536066655767e-08, 0))
hIsland = hIsland.sub(rect(9.357014271690268e-09, -1.463881434751335e-09).transl(3.877216651442872e-08, 3.989298057810162e-08, 0))
hIsland = hIsland.sub(rect(2.457458250901259e-09, -1.5063013196091069e-09).transl(-7.479935769347043e-09, 4e-08, 0))
hIsland = hIsland.add(rect(5.337395122934249e-09, 3.0451707226784663e-09).transl(7.431714994464852e-08, 3.7172257009740094e-08, 0))
hIsland = hIsland.sub(rect(2.248805024182043e-09, -1.5478998364806686e-09).transl(5.274190609554639e-08, 3.927510620558715e-08, 0))
hIsland = hIsland.add(rect(4.8608838117427054e-09, 1.9714440929681314e-09).transl(4.55199962543121e-08, 3.966404713516615e-08, 0))
hIsland = hIsland.add(rect(6.506229181863526e-09, 4.235076703859152e-10).transl(7.85921162508952e-08, 3.657383132219521e-08, 0))
hIsland = hIsland.sub(rect(6.838571308027359e-09, -6.02033950583383e-10).transl(6.442184100447509e-08, 3.831903626406802e-08, 0))
hIsland = hIsland.add(rect(6.05133914414388e-09, 9.98746166918889e-10).transl(9.550653822138964e-08, 3.351433101467295e-08, 0))
hIsland = hIsland.add(rect(3.1928731457592536e-09, 1.225063853200644e-09).transl(-9.028476075454535e-08, 3.4586040248707974e-08, 0))
hIsland = hIsland.sub(rect(2.7556370289591855e-09, -2.8066835682276394e-09).transl(-7.927985459375876e-08, 3.647144382362422e-08, 0))
hIsland = hIsland.add(rect(5.044734330526882e-09, 4.2331056309261073e-10).transl(-1.5064357568487625e-08, 4e-08, 0))
hIsland = hIsland.sub(rect(4.315503381780842e-09, -6.390253115237278e-10).transl(-2.9336398252041225e-08, 4e-08, 0))
hIsland = hIsland.sub(rect(9.643893583651656e-09, -2.585669020507721e-09).transl(1.468160420643857e-08, 4e-08, 0))
hIsland = hIsland.add(rect(2.1635239822356545e-09, 4.50702703521886e-10).transl(1.3458951405318737e-07, 1.9610183154332305e-08, 0))
hIsland = hIsland.add(rect(4.6779007573755745e-09, 8.66195107206975e-10).transl(1.120714701273426e-07, 2.9181946076178132e-08, 0))
hIsland = hIsland.sub(rect(4.20032134864309e-09, -1.68775280950708e-09).transl(1.0997367999163143e-07, 2.9822084487462446e-08, 0))
hIsland = hIsland.add(rect(6.959316260116198e-09, 1.1369410861367329e-09).transl(6.345186570458074e-08, 3.8414367510206236e-08, 0))
hIsland = hIsland.sub(rect(9.399649398616706e-09, -3.3904191212304566e-09).transl(6.98192253622677e-08, 3.773361203010879e-08, 0))
hIsland = hIsland.add(rect(4.255277337035145e-09, 2.7325104820130986e-10).transl(-2.7301744008466637e-08, 4e-08, 0))
hIsland = hIsland.add(rect(8.852766297261872e-09, 1.4739868308795105e-11).transl(8.970311131484114e-08, 3.469796423635717e-08, 0))
hIsland = hIsland.sub(rect(7.480225630201536e-09, -5.376607533071005e-10).transl(-9.332709634603806e-08, 3.3976591399863686e-08, 0))
hIsland = hIsland.sub(rect(6.824645251852488e-09, -2.2404550905050386e-09).transl(-8.933035712137431e-08, 3.476893364908486e-08, 0))
hIsland = hIsland.add(rect(6.572894910547568e-09, 1.5718468581057812e-09).transl(6.16240824980883e-08, 3.858600409209148e-08, 0))
hIsland = hIsland.add(rect(8.465852768435096e-09, 1.1561781396012657e-09).transl(-5.965014452705879e-08, 3.8759757093500595e-08, 0))
hIsland = hIsland.add(rect(2.8931797630063825e-09, 2.3496287983105507e-10).transl(1.1060878738062307e-07, 2.9631483626233144e-08, 0))
hIsland = hIsland.add(rect(6.778494244191827e-09, 7.26708563349007e-10).transl(-7.831966709142634e-08, 3.661391625563781e-08, 0))
hIsland = hIsland.sub(rect(5.000004270855668e-09, -1.1868467712417565e-09).transl(-7.968246229513671e-08, 3.641070193759021e-08, 0))
hIsland = hIsland.sub(rect(4.0597431680252115e-09, -2.0054291498381513e-09).transl(1.4203631663353334e-07, 1.432892860688422e-08, 0))
hIsland = hIsland.add(rect(7.456468435258348e-09, 1.8188424170262872e-11).transl(6.785311402403719e-08, 3.7957786141219854e-08, 0))
hIsland = hIsland.add(rect(8.218681403920879e-09, 2.3503351625019156e-09).transl(6.375720294379375e-08, 3.838467757005178e-08, 0))
hIsland = hIsland.add(rect(2.1113256492377144e-09, 9.606267308649556e-10).transl(4.473714074426807e-08, 3.969721048509809e-08, 0))
hIsland = hIsland.sub(rect(7.398963578580119e-09, -2.089399372922431e-09).transl(-1.4769073137976336e-07, 7.809479619143709e-09, 0))
hIsland = hIsland.add(rect(3.6736190618985473e-09, 5.369710012812116e-10).transl(1.2494856077661217e-07, 2.4460332528061262e-08, 0))
hIsland = hIsland.add(rect(9.774224448150335e-09, 2.7128562619916602e-09).transl(1.1027662118478683e-09, 4e-08, 0))
hIsland = hIsland.sub(rect(7.121262841044542e-09, -3.0363237519032645e-09).transl(-4.606166610938771e-08, 3.964007915928657e-08, 0))
hIsland = hIsland.add(rect(5.968405953707567e-09, 7.535356629461373e-10).transl(7.782127884483293e-08, 3.668654807910559e-08, 0))
hIsland = hIsland.sub(rect(4.775729999313145e-09, -1.7763464900590353e-09).transl(9.633657379707633e-08, 3.3332431615912e-08, 0))
hIsland = hIsland.sub(rect(5.331723594487152e-09, -2.5795718379952356e-10).transl(6.36030953787184e-08, 3.83996990453611e-08, 0))
hIsland = hIsland.sub(rect(5.316947009585587e-09, -3.060351469885413e-10).transl(-4.582938430324098e-08, 3.9650459703906903e-08, 0))
hIsland = hIsland.sub(rect(6.879667719810001e-09, -1.6453606484706723e-09).transl(-9.219635837115598e-08, 3.420788246615868e-08, 0))
hIsland = hIsland.sub(rect(8.023646659347988e-09, -2.3993955986346293e-09).transl(1.2813321069889718e-08, 4e-08, 0))
hIsland = hIsland.add(rect(7.2640765194997326e-09, 8.343000276232228e-10).transl(-1.4450222498251219e-07, 1.1968664986604561e-08, 0))
hIsland = hIsland.sub(rect(8.733362323295367e-09, -1.169908876623948e-10).transl(-1.236108102596008e-07, 2.50266884268708e-08, 0))
hIsland = hIsland.add(rect(6.884617539234621e-09, 2.1763273257045768e-09).transl(-5.8378219871464165e-08, 3.8865403977383334e-08, 0))
hIsland = hIsland.add(rect(2.277146240988599e-09, 3.6209634274823055e-09).transl(1.1398943230028256e-07, 2.856916609422795e-08, 0))
hIsland = hIsland.add(rect(4.737252723061416e-09, 2.3520531407762406e-09).transl(1.4254842442251876e-07, 1.3875846961171157e-08, 0))
hIsland = hIsland.sub(rect(7.503309173375829e-09, -2.1602186689575922e-09).transl(-1.42398366778476e-07, 1.4010341995711536e-08, 0))
hIsland = hIsland.sub(rect(7.762851176085263e-09, -2.0255707541671948e-09).transl(9.02042808629562e-08, 3.460161294534354e-08, 0))
hIsland = hIsland.add(rect(7.986145216163054e-09, 1.930778228164591e-09).transl(1.4869288145458147e-09, 4e-08, 0))
hIsland = hIsland.add(rect(5.6121766687360554e-09, 1.933837164994915e-09).transl(-8.254604632363838e-09, 4e-08, 0))
hIsland = hIsland.add(rect(8.911722556750924e-09, 1.1053938965369906e-09).transl(5.31195889010624e-08, 3.9250597460485835e-08, 0))
hIsland = hIsland.sub(rect(8.32406355910183e-09, -1.7469960352588158e-09).transl(3.674238547713241e-08, 3.9936811531993546e-08, 0))
hIsland = hIsland.sub(rect(9.333831107507174e-09, -3.5707609670126428e-09).transl(-2.5013977471393195e-08, 4e-08, 0))
hIsland = hIsland.sub(rect(9.62441667443229e-09, -2.0947336327330465e-10).transl(2.3204496159814576e-08, 4e-08, 0))
hIsland = hIsland.sub(rect(7.336859392513017e-09, -1.4122054182984859e-09).transl(-9.615752299192592e-08, 3.337194788636574e-08, 0))
hIsland = hIsland.add(rect(3.8670020047221895e-09, 1.7675816587734342e-09).transl(9.352701689101743e-08, 3.39350983904544e-08, 0))
hIsland = hIsland.sub(rect(5.679686924980292e-09, -1.4556073043801518e-09).transl(1.468215881036845e-07, 9.145226763078108e-09, 0))
hIsland = hIsland.sub(rect(6.9940773087097704e-09, -2.187028954107909e-09).transl(3.330788468966767e-08, 3.998479974923785e-08, 0))
hIsland = hIsland.sub(rect(7.179417573705517e-09, -4.675320164323882e-10).transl(5.556364993159535e-08, 3.9081822717323664e-08, 0))
hIsland = hIsland.add(rect(6.835791658297672e-09, 3.5087108601724457e-09).transl(4.2618771137910155e-08, 3.9778227734066125e-08, 0))
hIsland = hIsland.sub(rect(9.630260340021252e-09, -6.345036164794257e-10).transl(-4.724914184056934e-08, 3.958460293509744e-08, 0))
hIsland = hIsland.sub(rect(2.5397273296129566e-09, -1.2363449864334975e-09).transl(5.492293586058719e-08, 3.912777823730442e-08, 0))
hIsland = hIsland.add(rect(2.7476750849307498e-09, 1.4661937217082898e-09).transl(2.150153842826774e-08, 4e-08, 0))
hIsland = hIsland.sub(rect(9.991605902068715e-09, -2.626002613290104e-09).transl(1.205669805102689e-07, 2.6241659079606348e-08, 0))
hIsland = hIsland.sub(rect(9.785884712211438e-09, -4.089930943706179e-09).transl(8.225445630093673e-08, 3.600844314060785e-08, 0))
hIsland = hIsland.add(rect(9.864259880831391e-09, 1.7005560825282487e-09).transl(4.33103263696595e-08, 3.9753176269930026e-08, 0))
hIsland = hIsland.sub(rect(5.185307307013012e-09, -1.8846992893741695e-09).transl(-1.2694806927634941e-07, 2.3572752310873575e-08, 0))
hIsland = hIsland.sub(rect(9.222389446364122e-09, -3.7264994416822284e-09).transl(-7.073804615091936e-08, 3.762447725115714e-08, 0))
hIsland = hIsland.sub(rect(2.5546136638475093e-09, -2.316869742373372e-09).transl(1.4177753419554948e-07, 1.455175762260265e-08, 0))
hIsland = hIsland.add(rect(4.377397882662272e-09, 2.2773497715746153e-10).transl(-1.2418738728185164e-07, 2.4785157021040047e-08, 0))
hIsland = hIsland.add(rect(9.153405520792941e-09, 3.511785824918443e-09).transl(-1.0066898722968184e-07, 3.232799654226635e-08, 0))
hIsland = hIsland.sub(rect(7.729979632458032e-09, -7.948810355879875e-11).transl(-1.153883716291864e-07, 2.810461802803541e-08, 0))
hIsland = hIsland.add(rect(9.819669611150904e-09, 1.3485413395331605e-09).transl(6.007583585337709e-08, 3.87232977500062e-08, 0))
hIsland = hIsland.add(rect(9.728539374610445e-09, 2.7982663236175402e-09).transl(-1.249992747578763e-07, 2.4438443748136592e-08, 0))
hIsland = hIsland.sub(rect(9.679983633409962e-09, -1.8146159284023364e-09).transl(9.162366347679505e-08, 3.432285293066206e-08, 0))
hIsland = hIsland.add(rect(3.4407690228717106e-09, 1.7323008491299962e-09).transl(-1.0641426897815113e-07, 3.0841637614207286e-08, 0))
hIsland = hIsland.add(rect(5.526659578066323e-09, 4.1830780918873775e-10).transl(1.1255430672749888e-07, 2.903022647123748e-08, 0))
hIsland = hIsland.add(rect(8.911418564872262e-09, 5.654457615053997e-10).transl(-1.3072739213086857e-07, 2.174087924858565e-08, 0))
hIsland = hIsland.add(rect(2.383758520319783e-09, 5.500106028566357e-10).transl(-6.197144048827724e-08, 3.855418552448049e-08, 0))
hIsland = hIsland.add(rect(5.970485483065945e-09, 6.067547022445875e-10).transl(1.2544844686862255e-07, 2.4243198336779242e-08, 0))
hIsland = hIsland.add(rect(9.13675165993093e-09, 1.14082377091449e-10).transl(-8.129179442611851e-08, 3.616190725142934e-08, 0))
hIsland = hIsland.sub(rect(7.934368583813237e-09, -8.188118103060636e-10).transl(-9.069001753748561e-08, 3.450720016862776e-08, 0))
hIsland = hIsland.add(rect(9.359058930717367e-09, 2.78275999953428e-10).transl(-4.180641007139935e-08, 3.980593015734934e-08, 0))
hIsland = hIsland.sub(rect(4.0954126824063924e-09, -9.566668924466813e-10).transl(-5.122832911668226e-08, 3.936913348595406e-08, 0))
hIsland = hIsland.sub(rect(8.332955833551711e-09, -1.1078902424355947e-09).transl(3.582129481534163e-08, 3.995290634216584e-08, 0))
hIsland = hIsland.sub(rect(8.26039848737889e-09, -8.5362625289769e-10).transl(7.995484282027659e-08, 3.636926919927112e-08, 0))
hIsland = hIsland.sub(rect(4.963059879314912e-09, -1.2705360029421965e-09).transl(7.689775702768222e-08, 3.681877598570913e-08, 0))
hIsland = hIsland.add(rect(3.7184842394753607e-09, 1.7115412974135362e-09).transl(1.230563384647602e-08, 4e-08, 0))
hIsland = hIsland.sub(rect(2.325175921947886e-09, -1.6762134333625927e-09).transl(-6.052957012877113e-08, 3.8683825715310196e-08, 0))
hIsland = hIsland.sub(rect(3.190500191032878e-09, -1.8865289064101573e-09).transl(1.896537818623534e-08, 4e-08, 0))
hIsland = hIsland.add(rect(8.174650042022194e-09, 4.3194294962249433e-10).transl(1.2594475602172173e-07, 2.4024533275457988e-08, 0))
hIsland = hIsland.add(rect(6.84626223044511e-09, 1.1309504186270668e-09).transl(1.23056096038206e-07, 2.5255501029210743e-08, 0))
hIsland = hIsland.sub(rect(5.443690151979599e-09, -2.9255876074595434e-09).transl(-8.639749415914334e-08, 3.5307101351442654e-08, 0))
hIsland = hIsland.sub(rect(7.582886820198167e-09, -4.664518709643051e-09).transl(-3.834951384770855e-08, 3.990305699582277e-08, 0))
hIsland = hIsland.add(rect(7.289440203782245e-09, 3.21294835460304e-09).transl(1.9705999084640642e-08, 4e-08, 0))
hIsland = hIsland.sub(rect(3.1596314244112524e-09, -3.006067739119012e-09).transl(-1.8414462176790206e-08, 4e-08, 0))
hIsland = hIsland.add(rect(3.2106781279317458e-09, 5.582929828776138e-10).transl(1.1083353209216626e-07, 2.956337841448949e-08, 0))
hIsland = hIsland.sub(rect(7.715580591901268e-09, -1.8717036962782055e-09).transl(9.799139301442104e-08, 3.2959858541967447e-08, 0))
hIsland = hIsland.add(rect(8.935063815422024e-09, 1.7280954319085898e-09).transl(2.3712916852375086e-08, 4e-08, 0))
hIsland = hIsland.add(rect(9.94011930060701e-09, 2.465862357483941e-09).transl(1.1716569564439547e-07, 2.7491698752792477e-08, 0))
hIsland = hIsland.sub(rect(3.134402901999475e-09, -2.581155881536136e-09).transl(-7.362444366165758e-09, 4e-08, 0))
hIsland = hIsland.add(rect(4.637460483581481e-09, 3.2445602156581186e-09).transl(1.2669287909258331e-07, 2.3688926463146042e-08, 0))
hIsland = hIsland.sub(rect(4.212702263132038e-09, -7.61950532942995e-10).transl(-5.1779553213868445e-08, 3.9335665272405106e-08, 0))
hIsland = hIsland.sub(rect(3.898945523503836e-09, -7.624482389132821e-11).transl(-4.44891212178803e-08, 3.970735359593509e-08, 0))
hIsland = hIsland.add(rect(6.7733119639568645e-09, 1.8833555868839647e-09).transl(-6.07415831050094e-09, 4e-08, 0))
hIsland = hIsland.add(rect(4.7376496373988596e-09, 2.0964418098934267e-09).transl(-1.1124905322395566e-07, 2.943654446471978e-08, 0))
hIsland = hIsland.add(rect(4.055623886338934e-09, 2.2334470126135458e-10).transl(-9.940217992282111e-08, 3.2631507306692216e-08, 0))
vIsland = hIsland.rotz(pi / 2)
hIslands = hIslands.add(hIsland.transl(-a/2, a, 0))
hIsland = rect(islandLength-2*ellipseConstant, islandWidth)
hIsland = hIsland.add(ellipse(ellipseConstant*2, islandWidth).transl(islandLength/2-ellipseConstant, 0, 0))
hIsland = hIsland.add(ellipse(ellipseConstant*2, islandWidth).transl(-islandLength/2+ellipseConstant, 0, 0))
hIsland = hIsland.add(rect(2.0380106188011448e-09, 5.702371220027684e-10).transl(-1.387294008928735e-07, -1.6924398500642024e-08, 0))
hIsland = hIsland.sub(rect(2.711279960162795e-09, -8.649244008211266e-10).transl(1.1712492445737037e-10, -4e-08, 0))
hIsland = hIsland.sub(rect(6.976985760656894e-09, -1.924259219840683e-09).transl(-5.31945466893775e-08, -3.924568341992713e-08, 0))
hIsland = hIsland.sub(rect(3.000021583256821e-09, -1.3483088572652956e-09).transl(-8.598681101169884e-08, -3.5379650448528117e-08, 0))
hIsland = hIsland.sub(rect(2.8941924907707355e-09, -2.3326390601280474e-09).transl(-2.684756031874347e-08, -4e-08, 0))
hIsland = hIsland.sub(rect(4.124619061891463e-09, -6.08811074727328e-10).transl(-1.2282290185629234e-07, -2.535067145938944e-08, 0))
hIsland = hIsland.add(rect(9.545701034137829e-09, 5.601773216324095e-10).transl(7.975518977095876e-08, -3.639966588805129e-08, 0))
hIsland = hIsland.add(rect(7.778918667891433e-09, 9.79851509701655e-10).transl(4.0944951047897154e-08, -3.983327482082054e-08, 0))
hIsland = hIsland.add(rect(4.869364087735443e-09, 7.203886550540331e-10).transl(4.294534698952316e-08, -3.9766566067658234e-08, 0))
hIsland = hIsland.sub(rect(6.130253200828174e-09, -1.4039453144562779e-09).transl(-1.472099631561616e-07, -8.575316883884094e-09, 0))
hIsland = hIsland.add(rect(2.2591991275450908e-09, 3.5384382348990245e-09).transl(7.900720265338518e-08, -3.651224161244499e-08, 0))
hIsland = hIsland.add(rect(3.4417103392080204e-09, 9.524105191462773e-10).transl(8.048261476698224e-08, -3.6288206848152116e-08, 0))
hIsland = hIsland.sub(rect(8.905583664544875e-09, -4.5049065301165816e-11).transl(-1.476622700524587e-07, -7.856987025729151e-09, 0))
hIsland = hIsland.add(rect(5.374346644103943e-09, 1.579603341086043e-09).transl(-1.2920894349641965e-08, -4e-08, 0))
hIsland = hIsland.add(rect(6.402705146741704e-09, 3.230801314542572e-10).transl(-1.0639921523705679e-07, -3.084578111105827e-08, 0))
hIsland = hIsland.add(rect(5.84211253057054e-09, 3.232557342037997e-09).transl(-2.1990185366485967e-08, -4e-08, 0))
hIsland = hIsland.sub(rect(8.8750715632088e-09, -1.950242831815358e-09).transl(-3.729213419356893e-08, -3.992607721903482e-08, 0))
hIsland = hIsland.sub(rect(4.060950685035738e-09, -1.6350063107573844e-09).transl(-4.771565134282246e-08, -3.9561703841382816e-08, 0))
hIsland = hIsland.add(rect(7.415998185664134e-09, 7.277470728313308e-10).transl(1.1594600002133919e-07, -2.791511951997811e-08, 0))
hIsland = hIsland.add(rect(6.1503525749630705e-09, 3.0685170482344818e-09).transl(3.639254648060302e-08, -3.9943203217531723e-08, 0))
hIsland = hIsland.add(rect(7.864166653207932e-09, 2.0328132738397315e-09).transl(-1.0784524103593714e-07, -3.044141631990654e-08, 0))
hIsland = hIsland.sub(rect(5.722360605504788e-09, -1.4806308127202924e-09).transl(1.1922815334367577e-07, -2.674641544181925e-08, 0))
hIsland = hIsland.sub(rect(7.778694759405215e-09, -4.478628003438145e-10).transl(-4.598897665014768e-08, -3.964334415998203e-08, 0))
hIsland = hIsland.add(rect(5.4104633556842534e-09, 6.203000090734098e-10).transl(-5.6591963078301254e-08, -3.900550886967729e-08, 0))
hIsland = hIsland.sub(rect(2.346647100421306e-09, -1.9253658954971822e-09).transl(-2.067452533023606e-09, -4e-08, 0))
hIsland = hIsland.add(rect(7.09035934996806e-09, 4.054516000071897e-10).transl(-1.6278916594156736e-08, -4e-08, 0))
hIsland = hIsland.sub(rect(2.9850729885550886e-09, -3.652960384211371e-11).transl(1.243735815461048e-07, -2.470633545865584e-08, 0))
hIsland = hIsland.sub(rect(2.0737801650825763e-09, -1.5881003336394276e-09).transl(-1.0381579149872087e-07, -3.153697816394337e-08, 0))
hIsland = hIsland.add(rect(4.30995529289716e-09, 4.225277363522132e-12).transl(-1.7118719151373677e-08, -4e-08, 0))
hIsland = hIsland.add(rect(6.97544680130666e-09, 1.858967573549312e-11).transl(1.3817561237862119e-08, -4e-08, 0))
hIsland = hIsland.add(rect(3.9963549930981395e-09, 4.8378253146814844e-11).transl(1.3452971165992084e-07, -1.9645580165336065e-08, 0))
hIsland = hIsland.sub(rect(5.882747661202086e-09, -8.222854899057397e-10).transl(-8.177797001486891e-08, -3.60848411095902e-08, 0))
hIsland = hIsland.add(rect(7.735690249402996e-09, 3.104881563271328e-10).transl(9.800692475782619e-08, -3.295629797336563e-08, 0))
hIsland = hIsland.sub(rect(9.685176515730838e-09, -1.0958630779064247e-09).transl(1.1244653445845561e-07, -2.90642371992926e-08, 0))
hIsland = hIsland.add(rect(7.558831585244282e-09, 1.5991493183421692e-09).transl(-8.287959151356583e-08, -3.5906899370081476e-08, 0))
hIsland = hIsland.sub(rect(3.714555639041659e-09, -2.930180515322191e-09).transl(-6.899795081727504e-08, -3.782879536962609e-08, 0))
hIsland = hIsland.sub(rect(8.649570251219065e-09, -2.356719790093132e-09).transl(9.496746499324581e-08, -3.3630720896808655e-08, 0))
hIsland = hIsland.add(rect(3.0313728889639285e-09, 4.938256486145267e-10).transl(-5.215015270920631e-08, -3.9312665099400843e-08, 0))
hIsland = hIsland.add(rect(2.2783110158617533e-09, 1.2375639778356372e-09).transl(-2.4770725438304543e-08, -4e-08, 0))
hIsland = hIsland.sub(rect(6.637757175872967e-09, -5.743510834163675e-09).transl(8.512119572779686e-08, -3.5530352879283853e-08, 0))
hIsland = hIsland.add(rect(2.677511412398727e-09, 1.6265356653090472e-09).transl(-5.9306965470205825e-08, -3.8788746613946e-08, 0))
hIsland = hIsland.sub(rect(3.349359316546166e-09, -2.7056690683827862e-09).transl(-9.656537300580971e-08, -3.3281711889393585e-08, 0))
hIsland = hIsland.sub(rect(5.35182026931279e-09, -3.3490334810443215e-09).transl(7.430824991776738e-08, -3.717343583980467e-08, 0))
hIsland = hIsland.sub(rect(9.58557944448561e-09, -2.3211545264964642e-09).transl(1.2975885161406634e-07, -2.2231537970096787e-08, 0))
hIsland = hIsland.add(rect(8.547869850190821e-09, 2.578925563017564e-09).transl(-1.335227489871602e-07, -2.02293528268576e-08, 0))
hIsland = hIsland.sub(rect(7.874271996623815e-09, -7.715960681971524e-10).transl(-7.502193433904428e-11, -4e-08, 0))
hIsland = hIsland.add(rect(3.0438925015203016e-09, 1.249670807544397e-09).transl(-4.6484483416337975e-08, -3.9620788323662836e-08, 0))
hIsland = hIsland.add(rect(9.54083505430236e-09, 1.9120641108473746e-09).transl(5.981734320066498e-08, -3.874550302860071e-08, 0))
hIsland = hIsland.sub(rect(4.8606461817721225e-09, -8.879895959913832e-10).transl(8.530005428380907e-09, -4e-08, 0))
hIsland = hIsland.sub(rect(7.592085409564628e-09, -1.7296020962804622e-09).transl(-8.584901770473033e-08, -3.540384037771534e-08, 0))
hIsland = hIsland.add(rect(6.171828071037629e-09, 1.3543796224653396e-09).transl(5.618360040995688e-08, -3.903619270707023e-08, 0))
hIsland = hIsland.sub(rect(2.9777298487606524e-09, -2.0428988463974714e-09).transl(-8.925136045034146e-08, -3.4783898389889977e-08, 0))
hIsland = hIsland.sub(rect(5.929044933079329e-09, -9.872785807140202e-10).transl(-3.92191328100583e-09, -4e-08, 0))
hIsland = hIsland.add(rect(5.192079801600342e-09, 3.967584525710821e-09).transl(1.175700438333957e-07, -2.7348547438610088e-08, 0))
hIsland = hIsland.sub(rect(9.721325372875452e-09, -3.877908841777408e-09).transl(1.175174139290149e-07, -2.73672599594184e-08, 0))
hIsland = hIsland.add(rect(6.738748012848115e-09, 6.955140216390566e-10).transl(-1.0724265310075012e-07, -3.061149483074977e-08, 0))
hIsland = hIsland.add(rect(8.311851660692413e-09, 1.2420112467135772e-09).transl(-3.144452492648715e-08, -3.9997101766859664e-08, 0))
hIsland = hIsland.add(rect(9.287034331225014e-09, 1.910318082539053e-09).transl(8.674546653912614e-08, -3.524509741676756e-08, 0))
hIsland = hIsland.sub(rect(7.858295701001878e-09, -8.986733917095509e-10).transl(-1.3367432878059876e-07, -2.014291590910731e-08, 0))
hIsland = hIsland.add(rect(9.870797915029982e-09, 3.42478629337906e-10).transl(1.3841914467405133e-07, -1.7144124578755935e-08, 0))
hIsland = hIsland.sub(rect(2.0644425211070584e-09, -5.753374259828454e-11).transl(-1.1797029964796259e-07, -2.720544549217159e-08, 0))
hIsland = hIsland.sub(rect(3.5281821921904063e-09, -4.08401496130877e-09).transl(8.509508074751791e-08, -3.553485312169587e-08, 0))
hIsland = hIsland.add(rect(9.559607751704013e-09, 1.0170036644217009e-09).transl(-1.2374904956484919e-07, -2.4969126949734134e-08, 0))
hIsland = hIsland.add(rect(2.132956683756316e-09, 2.3964725223471104e-10).transl(-1.2091030800233246e-07, -2.6109419115460676e-08, 0))
hIsland = hIsland.add(rect(8.518225387402178e-09, 6.164181552322277e-10).transl(-9.570540461681325e-08, -3.347104852479205e-08, 0))
hIsland = hIsland.sub(rect(2.978068270746774e-09, -2.6774040886110156e-10).transl(4.135021431469666e-08, -3.982067111858482e-08, 0))
hIsland = hIsland.add(rect(5.630926984401181e-09, 6.347160066867827e-10).transl(4.296928691140917e-08, -3.976569934141951e-08, 0))
hIsland = hIsland.sub(rect(6.405432362812256e-09, -8.752731392924962e-11).transl(6.598833201689363e-08, -3.815879097584174e-08, 0))
hIsland = hIsland.add(rect(2.088510194728344e-09, 1.277909474246973e-09).transl(-1.2186292675655366e-07, -2.5736275064412837e-08, 0))
hIsland = hIsland.add(rect(9.774130823873194e-09, 4.33480750606047e-10).transl(-8.161806170720524e-08, -3.611028740091658e-08, 0))
hIsland = hIsland.sub(rect(6.306041222169532e-09, -2.2481781211668283e-09).transl(-1.2373937193262027e-07, -2.4973163706662502e-08, 0))
hIsland = hIsland.sub(rect(6.688538501699215e-09, -1.91724326184653e-09).transl(1.1298467980017625e-07, -2.889356506302672e-08, 0))
hIsland = hIsland.sub(rect(2.586534697111585e-09, -1.5807346797927682e-09).transl(1.591976187097741e-08, -4e-08, 0))
hIsland = hIsland.add(rect(4.490762139113174e-09, 1.788714179788874e-09).transl(-6.962062322122926e-08, -3.7756833400004693e-08, 0))
hIsland = hIsland.add(rect(2.904522267471921e-09, 2.4548376207274387e-09).transl(-1.3494244036024219e-07, -1.9399553864391986e-08, 0))
hIsland = hIsland.add(rect(5.7772743930560065e-09, 6.085517014709377e-11).transl(8.417000784167561e-08, -3.569252995365464e-08, 0))
hIsland = hIsland.add(rect(8.952076904075348e-09, 8.4727226469836e-11).transl(-9.027015568888575e-08, -3.45888683654751e-08, 0))
hIsland = hIsland.add(rect(2.7143969638725914e-09, 8.342936921109046e-11).transl(7.546543161864123e-10, -4e-08, 0))
hIsland = hIsland.sub(rect(7.453048014147079e-09, -5.1043502007596025e-12).transl(-1.2024278940912195e-07, -2.636546343580066e-08, 0))
hIsland = hIsland.add(rect(2.3875034567396523e-09, 4.262133622960534e-09).transl(-1.224739275334293e-07, -2.5491987252080403e-08, 0))
hIsland = hIsland.sub(rect(3.669375091929862e-09, -3.418208624620462e-09).transl(6.418300482906468e-08, -3.8342784604228185e-08, 0))
hIsland = hIsland.sub(rect(6.695563015872411e-09, -1.8064581564225107e-09).transl(-1.4505810178042074e-07, -1.1360913571864364e-08, 0))
hIsland = hIsland.add(rect(6.996457294362563e-09, 1.5777178204491791e-09).transl(-9.069901021470606e-08, -3.450544266079227e-08, 0))
hIsland = hIsland.sub(rect(5.561276998213569e-09, -1.167709005992651e-10).transl(-4.9568576493884857e-08, -3.9464570346920004e-08, 0))
hIsland = hIsland.add(rect(7.1513707472983865e-09, 3.86025677584627e-10).transl(-1.37724456062255e-07, -1.7623978508117528e-08, 0))
hIsland = hIsland.sub(rect(5.1355793804802485e-09, -2.0121376150730632e-10).transl(-1.8517037873486615e-08, -4e-08, 0))
hIsland = hIsland.add(rect(2.6045204637285294e-09, 3.321490829367649e-11).transl(1.4727537754277135e-08, -4e-08, 0))
hIsland = hIsland.add(rect(6.493972646816275e-09, 2.236549452992867e-09).transl(-9.052457211573328e-08, -3.453947205767692e-08, 0))
hIsland = hIsland.sub(rect(9.049453918684006e-09, -3.5126702382998663e-10).transl(2.5818093006410683e-08, -4e-08, 0))
hIsland = hIsland.add(rect(9.252450703738117e-09, 4.785090341707794e-10).transl(1.446849625916737e-07, -1.1772658320336086e-08, 0))
hIsland = hIsland.add(rect(4.3020411215438075e-09, 2.7087091671522063e-10).transl(-3.208694213211454e-08, -3.999395047662029e-08, 0))
hIsland = hIsland.add(rect(4.796626299695506e-09, 1.363745676992774e-09).transl(2.0198775321819566e-08, -4e-08, 0))
hIsland = hIsland.add(rect(4.884704957005353e-09, 8.225941403621271e-10).transl(-2.6106191953487903e-08, -4e-08, 0))
hIsland = hIsland.sub(rect(8.758666095295866e-09, -1.0926162302390232e-09).transl(1.0714917392608817e-07, -3.063767644678725e-08, 0))
hIsland = hIsland.sub(rect(9.623042375520458e-09, -7.470701991493252e-10).transl(2.7029706821516388e-08, -4e-08, 0))
hIsland = hIsland.add(rect(9.418901813725168e-09, 1.0756378222701143e-09).transl(6.349749387992092e-08, -3.840994938202089e-08, 0))
hIsland = hIsland.add(rect(6.9517328849835344e-09, 2.0302390674996952e-09).transl(6.93569910641678e-08, -3.77874571406013e-08, 0))
hIsland = hIsland.add(rect(3.5270086536479453e-09, 4.840466505577998e-09).transl(-1.2169843551865635e-07, -2.5801371461030742e-08, 0))
hIsland = hIsland.add(rect(3.2445520888295534e-09, 3.085407435681606e-09).transl(-9.650613135379635e-08, -3.3294868627582155e-08, 0))
hIsland = hIsland.sub(rect(8.459502359616799e-09, -4.285266509704425e-09).transl(1.0158748624906412e-07, -3.210266830817107e-08, 0))
hIsland = hIsland.add(rect(9.426159912670126e-09, 1.0036038170105395e-09).transl(5.7345236600631404e-08, -3.894759732320609e-08, 0))
hIsland = hIsland.sub(rect(5.483151460023663e-09, -2.2418341241585447e-09).transl(2.9099038539839846e-08, -4e-08, 0))
hIsland = hIsland.add(rect(9.040284106288849e-09, 5.104841464914707e-09).transl(-1.3946658232767518e-07, -1.638789307011706e-08, 0))
hIsland = hIsland.add(rect(6.381527350389999e-09, 1.2657100014927136e-09).transl(-1.1268272103041724e-07, -2.898959131789316e-08, 0))
hIsland = hIsland.add(rect(8.565550120145101e-09, 1.1287200904227596e-09).transl(8.873285721642268e-08, -3.4881468310066095e-08, 0))
hIsland = hIsland.add(rect(8.157011534913896e-09, 3.6922857163434053e-09).transl(-4.717942037608414e-08, -3.9587971679878537e-08, 0))
hIsland = hIsland.sub(rect(7.15624191606057e-09, -1.5466607502433428e-09).transl(-9.16733228938383e-08, -3.431294093945762e-08, 0))
hIsland = hIsland.sub(rect(3.1429372185791894e-09, -1.4185304099798631e-09).transl(-6.959904169409488e-08, -3.775934894817344e-08, 0))
hIsland = hIsland.sub(rect(3.51395740443543e-09, -1.6469783876307164e-09).transl(7.083355766192675e-08, -3.761297141600385e-08, 0))
hIsland = hIsland.add(rect(3.790112999903291e-09, 1.952511194266645e-09).transl(8.60862261294275e-08, -3.536215057336292e-08, 0))
hIsland = hIsland.sub(rect(3.2730372738909957e-09, -8.15824145399766e-10).transl(-8.384773935845794e-08, -3.5746671897897766e-08, 0))
hIsland = hIsland.add(rect(6.275795492999882e-09, 7.754518679980938e-10).transl(1.4705769985620667e-07, -8.803376273871276e-09, 0))
hIsland = hIsland.add(rect(4.1153571857457305e-09, 2.1909324280831908e-09).transl(-1.4375445906910577e-07, -1.273631309766224e-08, 0))
hIsland = hIsland.add(rect(8.422610744115691e-09, 5.016957473320028e-10).transl(-1.5303175677665812e-08, -4e-08, 0))
hIsland = hIsland.sub(rect(9.870702351288241e-09, -1.2341164392494382e-09).transl(-5.176762218469855e-08, -3.933639906756452e-08, 0))
hIsland = hIsland.sub(rect(8.204524985507942e-09, -8.297010607088579e-10).transl(6.51880247501023e-08, -3.824163367353293e-08, 0))
hIsland = hIsland.add(rect(4.273357728012662e-09, 2.7414845532232467e-09).transl(1.2695344008671015e-07, -2.3570297823397023e-08, 0))
hIsland = hIsland.sub(rect(5.231882036753899e-09, -3.3261707419426315e-09).transl(-1.3373409200979847e-08, -4e-08, 0))
hIsland = hIsland.sub(rect(5.542369439418275e-09, -5.311895053379359e-10).transl(5.143841407075923e-09, -4e-08, 0))
hIsland = hIsland.add(rect(7.278974129930532e-09, 3.5552004972097026e-10).transl(-6.066425290732979e-08, -3.867198755578817e-08, 0))
hIsland = hIsland.add(rect(4.2389799957679796e-09, 5.319478338419679e-10).transl(-1.89347669439566e-09, -4e-08, 0))
hIsland = hIsland.sub(rect(7.71148535125928e-09, -2.283174305323296e-09).transl(5.365179693533082e-08, -3.921534917992341e-08, 0))
hIsland = hIsland.sub(rect(4.577811276415731e-09, -1.6272085023335506e-10).transl(1.3037916907231317e-07, -2.1919099779649227e-08, 0))
hIsland = hIsland.sub(rect(6.437994984305494e-09, -2.9150852158705505e-09).transl(-1.2885224066863022e-07, -2.2677043004352345e-08, 0))
hIsland = hIsland.add(rect(9.823653317361331e-09, 4.4222269962076636e-10).transl(1.0737413355426927e-07, -3.0574578141408966e-08, 0))
hIsland = hIsland.add(rect(8.478060969261058e-09, 2.3930636393754065e-10).transl(8.220239332156587e-08, -3.601683268741704e-08, 0))
hIsland = hIsland.add(rect(8.480411497707028e-09, 9.87761229532263e-10).transl(-3.7599730993673414e-08, -3.991970286131872e-08, 0))
hIsland = hIsland.sub(rect(8.938834146095048e-09, -2.3809574366732543e-09).transl(-1.0186047266430628e-07, -3.203482908138594e-08, 0))
hIsland = hIsland.sub(rect(9.487068480042049e-09, -1.706857426768658e-09).transl(-1.2044350296914612e-08, -4e-08, 0))
hIsland = hIsland.add(rect(7.630865717256186e-09, 3.116532082344495e-09).transl(8.392164224987086e-08, -3.5734291804740266e-08, 0))
hIsland = hIsland.sub(rect(4.431543364672881e-09, -2.1094136021383673e-09).transl(1.0067142553211549e-07, -3.2327404290166117e-08, 0))
hIsland = hIsland.add(rect(9.379034258599405e-09, 2.2216789751834403e-09).transl(1.4727752201181359e-07, -8.47206409828198e-09, 0))
hIsland = hIsland.add(rect(2.338876256694822e-09, 7.326200217334394e-10).transl(-1.494354526518525e-07, -3.8754591103951654e-09, 0))
hIsland = hIsland.sub(rect(2.0910180867552927e-09, -2.665090145565009e-10).transl(-1.2061348941131568e-07, -2.622381347110418e-08, 0))
hIsland = hIsland.add(rect(4.097609628966275e-09, 9.65114864666486e-10).transl(1.0933948438731286e-07, -3.000971364437289e-08, 0))
hIsland = hIsland.sub(rect(2.579797807122023e-09, -6.559482168730091e-10).transl(-8.912623062221502e-08, -3.480754843486402e-08, 0))
hIsland = hIsland.sub(rect(4.797460719766221e-09, -1.3439357388656211e-09).transl(-6.151894919099665e-08, -3.859556082979171e-08, 0))
hIsland = hIsland.add(rect(6.044210730172291e-09, 4.385477381130764e-10).transl(7.189696634920096e-08, -3.7482802294643404e-08, 0))
hIsland = hIsland.sub(rect(6.738237486792692e-09, -9.430371634312097e-10).transl(8.165602268826983e-09, -4e-08, 0))
hIsland = hIsland.sub(rect(7.549843827668589e-09, -4.167952894068708e-09).transl(8.670432640172557e-08, -3.5252453606217363e-08, 0))
hIsland = hIsland.sub(rect(6.715905835028146e-09, -1.8117656136200118e-10).transl(-1.291504317331851e-09, -4e-08, 0))
hIsland = hIsland.sub(rect(5.97987140942684e-09, -2.1484391583111715e-09).transl(6.119697282936285e-09, -4e-08, 0))
hIsland = hIsland.add(rect(3.3096682898983067e-09, 2.8732096348159643e-09).transl(4.318337228469717e-08, -3.9757876501536815e-08, 0))
hIsland = hIsland.sub(rect(5.303660220737584e-09, -7.90464229649622e-10).transl(-1.1671942985756323e-07, -2.7648067011354565e-08, 0))
hIsland = hIsland.sub(rect(9.653978712937771e-09, -5.4018106954221776e-09).transl(1.1236288524547903e-07, -2.909057719537387e-08, 0))
hIsland = hIsland.sub(rect(3.795536826673914e-09, -8.252093428566182e-10).transl(-8.162858996623756e-08, -3.6108615004822015e-08, 0))
hIsland = hIsland.add(rect(9.873922567907205e-09, 1.730574329110643e-10).transl(-7.89477975317049e-08, -3.652109453878102e-08, 0))
hIsland = hIsland.add(rect(9.608204501574091e-09, 2.1215935533162226e-10).transl(1.1305381297997096e-07, -2.887148564373585e-08, 0))
hIsland = hIsland.sub(rect(3.5820167207971923e-09, -3.902971670273812e-10).transl(3.3520728473289234e-08, -3.998278028104011e-08, 0))
hIsland = hIsland.sub(rect(2.446191455595633e-09, -3.4996610671626806e-09).transl(-6.605976803424776e-08, -3.815129694797958e-08, 0))
hIsland = hIsland.sub(rect(5.9376537384090345e-09, -2.407577290951579e-10).transl(-4.319805465384188e-08, -3.975733524682263e-08, 0))
hIsland = hIsland.add(rect(9.429901203666618e-09, 3.076936874861579e-09).transl(8.316549633416161e-08, -3.585995909947201e-08, 0))
hIsland = hIsland.sub(rect(2.8518999485466846e-09, -4.180246688002429e-10).transl(-5.649417840012395e-08, -3.901290172765131e-08, 0))
hIsland = hIsland.add(rect(5.571887445294219e-09, 6.600749018045382e-10).transl(-6.017079194179019e-08, -3.8715089383290004e-08, 0))
hIsland = hIsland.sub(rect(6.027194936166791e-09, -6.277797713084562e-10).transl(1.3623928721077604e-07, -1.859872711578296e-08, 0))
hIsland = hIsland.add(rect(4.675424732898315e-09, 1.077380988551008e-09).transl(1.4494490465614915e-07, -1.1487524119615762e-08, 0))
hIsland = hIsland.add(rect(2.900171377753604e-09, 2.931450185740328e-09).transl(4.257508609915364e-09, -4e-08, 0))
hIsland = hIsland.add(rect(3.416384261362157e-09, 8.012597984839332e-10).transl(9.171979299675538e-08, -3.43036557048268e-08, 0))
hIsland = hIsland.add(rect(7.431209586256605e-09, 4.973358504855904e-10).transl(-2.8271940261462472e-08, -4e-08, 0))
hIsland = hIsland.add(rect(5.470854970525843e-09, 8.627263506160145e-10).transl(-6.200893215854265e-08, -3.8550728861923414e-08, 0))
hIsland = hIsland.sub(rect(9.131560323276001e-09, -4.015283625293897e-09).transl(6.178526012601122e-08, -3.857128643998999e-08, 0))
hIsland = hIsland.sub(rect(9.97781676172275e-09, -2.7854090790752173e-09).transl(-1.035057658865001e-07, -3.1617334172252625e-08, 0))
hIsland = hIsland.sub(rect(6.841934740368202e-09, -4.340292971218387e-09).transl(-7.2177367428821e-08, -3.744784473367108e-08, 0))
hIsland = hIsland.sub(rect(3.807267912666094e-09, -2.7840495532661763e-10).transl(8.318832519267835e-08, -3.585619745470618e-08, 0))
hIsland = hIsland.sub(rect(2.2784798922515686e-09, -1.568204391175758e-09).transl(-1.3237303599929407e-07, -2.0869332897519075e-08, 0))
hIsland = hIsland.sub(rect(5.418847417112686e-09, -1.9345453100439648e-09).transl(-1.2808586756029434e-07, -2.304382921725082e-08, 0))
hIsland = hIsland.sub(rect(9.039444008316242e-09, -2.0829579843919214e-09).transl(-7.61333120272198e-08, -3.692592814059456e-08, 0))
hIsland = hIsland.add(rect(5.964639696255904e-09, 3.193960269892457e-09).transl(-2.8744744390407023e-08, -4e-08, 0))
hIsland = hIsland.sub(rect(3.3838637802695912e-09, -1.3439338341443383e-09).transl(-1.983400618221128e-08, -4e-08, 0))
hIsland = hIsland.sub(rect(3.3027354741450082e-09, -1.312757338425947e-09).transl(-8.182080299746588e-08, -3.607800865516252e-08, 0))
hIsland = hIsland.sub(rect(2.986535359618138e-09, -2.893449412632767e-09).transl(-7.974650127153983e-08, -3.6400985351804674e-08, 0))
hIsland = hIsland.sub(rect(2.3818304384258903e-09, -3.913333897728045e-09).transl(-2.4858060076081667e-08, -4e-08, 0))
hIsland = hIsland.add(rect(2.3211015304448844e-09, 1.223234456006083e-09).transl(6.628937205175164e-08, -3.8127099543048185e-08, 0))
hIsland = hIsland.sub(rect(2.8250820352296282e-09, -2.714807490103083e-09).transl(-5.693832023490385e-08, -3.897909254818789e-08, 0))
hIsland = hIsland.sub(rect(4.472916368125495e-09, -1.8592978230110441e-09).transl(4.1603657259087374e-08, -3.981255404770604e-08, 0))
hIsland = hIsland.sub(rect(3.863379758239758e-09, -2.85502343417049e-09).transl(4.542027170048092e-09, -4e-08, 0))
hIsland = hIsland.sub(rect(9.508295605523578e-09, -2.4639575929562896e-10).transl(-6.309579828819357e-08, -3.844862103533205e-08, 0))
hIsland = hIsland.sub(rect(6.000405086153074e-09, -1.196440860505253e-09).transl(9.729896694926764e-08, -3.31173822227029e-08, 0))
hIsland = hIsland.sub(rect(4.765107404376362e-09, -4.503774983620267e-09).transl(-4.555000566439667e-08, -3.966274115567297e-08, 0))
hIsland = hIsland.sub(rect(9.832734661783749e-09, -1.3073829813675046e-09).transl(4.3113025221157955e-09, -4e-08, 0))
hIsland = hIsland.add(rect(3.971023040573193e-09, 2.061242128224654e-09).transl(-1.1896819993332365e-07, -2.68424609747404e-08, 0))
hIsland = hIsland.add(rect(9.67883994778299e-09, 1.3624411435688615e-09).transl(1.2155823112134292e-07, -2.585663532706355e-08, 0))
hIsland = hIsland.add(rect(9.312769957531e-09, 2.006089952515855e-09).transl(-8.588697703559058e-08, -3.539718412815625e-08, 0))
hIsland = hIsland.sub(rect(8.499663408284452e-09, -3.6196566531087805e-09).transl(1.2112634567907455e-07, -2.6025605176393785e-08, 0))
hIsland = hIsland.add(rect(3.73824674131685e-09, 7.298920926928711e-11).transl(8.587978824231733e-08, -3.539844514161254e-08, 0))
hIsland = hIsland.sub(rect(9.618777051651758e-09, -1.9001416273940813e-09).transl(-8.13018194068752e-08, -3.616032713339051e-08, 0))
hIsland = hIsland.sub(rect(9.673401929956122e-09, -1.18526707859743e-09).transl(1.6702911464570105e-11, -4e-08, 0))
hIsland = hIsland.sub(rect(5.712754166880213e-09, -8.329200850016974e-10).transl(1.3168133215312388e-07, -2.1241747918155314e-08, 0))
hIsland = hIsland.sub(rect(4.452999428952166e-09, -1.514909320448995e-09).transl(2.798136082584426e-08, -4e-08, 0))
hIsland = hIsland.sub(rect(7.806765977117674e-09, -1.991272433684601e-09).transl(4.9929546606474735e-08, -3.944449429551516e-08, 0))
hIsland = hIsland.sub(rect(8.426654118132873e-09, -1.805385062940076e-09).transl(1.4951368001487745e-07, -3.5975344844534736e-09, 0))
hIsland = hIsland.sub(rect(8.35901852330256e-09, -6.355948416936157e-10).transl(-8.699048766663546e-08, -3.520114315618343e-08, 0))
hIsland = hIsland.add(rect(9.38395305481605e-09, 4.3878082730437566e-09).transl(-3.265020647538952e-08, -3.999024381804171e-08, 0))
hIsland = hIsland.sub(rect(8.258821500872787e-09, -1.765719063047061e-09).transl(-1.1826512543585452e-07, -2.709913412268384e-08, 0))
hIsland = hIsland.add(rect(2.9862598093509984e-09, 3.2826639166287563e-09).transl(1.4716059835080883e-07, -8.64994665417369e-09, 0))
hIsland = hIsland.add(rect(3.2719901075021315e-09, 2.5972892416076455e-09).transl(-8.485899814764521e-08, -3.557541336097268e-08, 0))
hIsland = hIsland.add(rect(3.6627845267510692e-09, 2.8001534611417295e-09).transl(2.7441792803902084e-08, -4e-08, 0))
hIsland = hIsland.add(rect(4.822537154952399e-09, 1.653738287598228e-09).transl(1.1105522120538566e-09, -4e-08, 0))
hIsland = hIsland.add(rect(4.984656667048122e-09, 2.8588283094138162e-09).transl(-1.1092077742707204e-07, -2.9536846631882756e-08, 0))
hIsland = hIsland.sub(rect(5.841720200939765e-09, -6.828550106347997e-10).transl(4.701032608035289e-09, -4e-08, 0))
hIsland = hIsland.add(rect(6.626684132932533e-09, 7.940441207052012e-10).transl(5.1700431208256465e-08, 3.934052375714121e-08, 0))
hIsland = hIsland.add(rect(8.400347638026527e-09, 3.733723931446846e-09).transl(6.594871088466933e-08, 3.816294040868336e-08, 0))
hIsland = hIsland.sub(rect(9.275073482332243e-09, -2.2034690979908752e-09).transl(1.322335139257551e-07, 2.0945189398343797e-08, 0))
[...]
hIsland = hIsland.sub(rect(8.427822421469454e-09, -2.4217640760053993e-09).transl(-1.50890995562878e-08, 4e-08, 0))
hIsland = hIsland.add(rect(5.772872120399614e-09, 1.2282997255451022e-09).transl(5.514837263268743e-09, 4e-08, 0))
hIsland = hIsland.add(rect(4.7076370506608685e-09, 3.1736883706100333e-09).transl(-4.154972129598745e-09, 4e-08, 0))
hIsland = hIsland.sub(rect(9.477038462701394e-09, -2.7555508162412743e-09).transl(1.622406952359433e-08, 4e-08, 0))
hIsland = hIsland.sub(rect(5.522460647936578e-09, -2.683769921174782e-09).transl(1.4170180803960824e-07, 1.461622416921429e-08, 0))
hIsland = hIsland.sub(rect(4.9033555858304765e-09, -1.911588475926394e-09).transl(6.033051371621447e-08, 3.870122010380799e-08, 0))
hIsland = hIsland.sub(rect(4.901259769911079e-09, -1.3570781169458378e-09).transl(7.460228105950714e-08, 3.713434547436994e-08, 0))
hIsland = hIsland.add(rect(2.9528102051558936e-09, 1.997063115830436e-09).transl(1.1549138883520224e-07, 2.8069798786098004e-08, 0))
hIsland = hIsland.add(rect(7.990447203201795e-09, 1.2073821686948006e-10).transl(8.244840463423001e-08, 3.597709896791458e-08, 0))
hIsland = hIsland.add(rect(4.539777330170347e-09, 3.3666505571589626e-11).transl(9.227921136127702e-08, 3.419112918127772e-08, 0))
hIsland = hIsland.add(rect(5.759182609391477e-09, 5.560472531804693e-10).transl(-1.329618756776701e-07, 2.0544943029952678e-08, 0))
hIsland = hIsland.add(rect(9.530718523939352e-09, 1.892504575378687e-09).transl(-1.0604970694370142e-07, 3.094159744812643e-08, 0))
hIsland = hIsland.sub(rect(4.362238123424449e-09, -1.4781317947651512e-09).transl(6.941422571491175e-08, 3.7780828194107464e-08, 0))
hIsland = hIsland.sub(rect(4.726584162380954e-09, -2.916665860445803e-09).transl(9.827426870709648e-08, 3.2894822680292864e-08, 0))
hIsland = hIsland.add(rect(4.311508195090075e-09, 2.2270913776488265e-10).transl(3.984187643050621e-08, 3.9865241708545285e-08, 0))
hIsland = hIsland.sub(rect(8.185377223006303e-09, -1.4195075557554487e-09).transl(-9.910263478724001e-08, 3.27020656253144e-08, 0))
hIsland = hIsland.sub(rect(4.518787492495093e-09, -1.5481467433090616e-09).transl(6.676566107578665e-08, 3.8076365030846435e-08, 0))
hIsland = hIsland.sub(rect(9.018989004468958e-09, -3.8889688576560715e-10).transl(-7.777221329149644e-08, 3.669365012767766e-08, 0))
hIsland = hIsland.add(rect(4.426593824338996e-09, 7.423558830319481e-10).transl(-1.1482889008817878e-07, 2.8292243551129165e-08, 0))
hIsland = hIsland.add(rect(2.265996337290906e-09, 1.664398751954945e-09).transl(1.3844345164820357e-07, 1.7127034492688707e-08, 0))
hIsland = hIsland.sub(rect(2.743911922335742e-09, -3.400022849990564e-10).transl(-1.531812239178082e-08, 4e-08, 0))
hIsland = hIsland.sub(rect(5.065508797564894e-09, -1.5562692346864668e-09).transl(-8.903986395314818e-08, 3.482383357605304e-08, 0))
hIsland = hIsland.sub(rect(4.293309268414644e-09, -1.5631778133765237e-09).transl(-3.055640365307178e-08, 3.999957001848735e-08, 0))
hIsland = hIsland.sub(rect(5.442085667202722e-09, -1.5437164690805386e-09).transl(-1.2558349235980324e-07, 2.418400754471029e-08, 0))
hIsland = hIsland.sub(rect(8.68542004800081e-09, -9.448096606087658e-11).transl(-5.378575357605377e-09, 4e-08, 0))
hIsland = hIsland.sub(rect(7.12219302845309e-09, -2.651101713112011e-09).transl(2.7326080313257177e-08, 4e-08, 0))
hIsland = hIsland.sub(rect(3.983036988189461e-09, -4.265722421547079e-09).transl(-9.710024338331678e-08, 3.31621560381704e-08, 0))
hIsland = hIsland.sub(rect(8.099479638926783e-09, -1.415355626234939e-09).transl(7.3530661003376445e-09, 4e-08, 0))
hIsland = hIsland.sub(rect(9.214545963802518e-09, -2.071541417784931e-10).transl(5.547773264982231e-08, 3.9088056060109234e-08, 0))
hIsland = hIsland.sub(rect(3.1323533993944166e-09, -6.436868742383171e-10).transl(-1.4488665662928107e-08, 4e-08, 0))
hIsland = hIsland.add(rect(3.403807491830968e-09, 2.1911156944975156e-09).transl(3.635999821608764e-08, 3.9943780523646766e-08, 0))
hIsland = hIsland.add(rect(6.148489849656056e-09, 2.761190077314264e-09).transl(-6.889001962729894e-08, 3.7841139243756484e-08, 0))
hIsland = hIsland.sub(rect(9.478827564060903e-09, -3.1021935886913127e-09).transl(-1.055945163663239e-07, 3.106528805120952e-08, 0))
hIsland = hIsland.sub(rect(5.368064485378693e-09, -8.265194363352746e-10).transl(-3.0320696802198864e-08, 3.9999857157468644e-08, 0))
hIsland = hIsland.sub(rect(2.623972479077172e-09, -1.0417895456175744e-09).transl(-5.0389190397615824e-08, 3.9418383915982054e-08, 0))
hIsland = hIsland.sub(rect(5.622077678880305e-09, -1.9298551998736936e-09).transl(-2.981510143081581e-08, 4e-08, 0))
hIsland = hIsland.sub(rect(3.055458795812836e-09, -1.6047785242416065e-09).transl(9.672435069674486e-08, 3.324632147420859e-08, 0))
hIsland = hIsland.sub(rect(9.030760441633411e-09, -1.4513031240630235e-09).transl(1.855055130683843e-08, 4e-08, 0))
hIsland = hIsland.sub(rect(6.95369198252456e-09, -1.2339061032314891e-09).transl(6.172433480186295e-08, 3.857685918523825e-08, 0))
hIsland = hIsland.sub(rect(6.990147641732644e-09, -1.6992759470022506e-09).transl(-3.1470080363322053e-09, 4e-08, 0))
hIsland = hIsland.add(rect(9.696085774458946e-09, 1.1613200938456022e-09).transl(1.4581223109060476e-07, 1.0474981462812372e-08, 0))
hIsland = hIsland.sub(rect(9.342243596940828e-09, -1.9016635983740067e-09).transl(-1.2558701804430777e-07, 2.4182459164988858e-08, 0))
hIsland = hIsland.sub(rect(7.52551825342441e-09, -2.536994999680919e-09).transl(-1.2600124494575353e-07, 2.399944668081013e-08, 0))
hIsland = hIsland.add(rect(3.951668808676038e-09, 2.2561542062825306e-09).transl(2.2875462389196108e-08, 4e-08, 0))
hIsland = hIsland.add(rect(4.843996368405056e-09, 1.9234778442704774e-09).transl(-1.4460539959857408e-07, 1.1858435267077288e-08, 0))
hIsland = hIsland.sub(rect(4.020519786552415e-09, -6.082888305702307e-10).transl(8.811987567830416e-08, 3.499536485361465e-08, 0))
hIsland = hIsland.sub(rect(7.158747288029927e-09, -4.4161060504044933e-10).transl(9.117866252851859e-08, 3.441119206050012e-08, 0))
hIsland = hIsland.sub(rect(7.491715603582442e-09, -1.9521263072549638e-09).transl(-6.327841244277253e-08, 3.843110323869445e-08, 0))
hIsland = hIsland.sub(rect(9.41413346971693e-09, -7.458719149675937e-11).transl(-6.266692909381838e-08, 3.848935169278705e-08, 0))
hIsland = hIsland.sub(rect(4.3922670907289205e-09, -9.365589162333217e-10).transl(-7.834295313137271e-08, 3.6610500744000126e-08, 0))
hIsland = hIsland.add(rect(3.633841443559615e-09, 3.3074434967914568e-09).transl(7.40976619317136e-08, 3.720124880245031e-08, 0))
hIsland = hIsland.add(rect(7.391935810964723e-09, 2.2764370511206688e-09).transl(5.742983716479441e-08, 3.894098673793015e-08, 0))
hIsland = hIsland.add(rect(9.53361712997693e-09, 2.874615783190915e-09).transl(7.944138413397882e-08, 3.6447145193670284e-08, 0))
hIsland = hIsland.sub(rect(6.945108722072586e-09, -2.5641320580243494e-09).transl(1.3799180776031943e-07, 1.7441232935069616e-08, 0))
hIsland = hIsland.add(rect(4.509322292952204e-09, 1.1468403955188107e-09).transl(-4.337940338679969e-08, 3.975059966705366e-08, 0))
hIsland = hIsland.sub(rect(2.546698851091305e-09, -3.685154963879737e-10).transl(-7.535359847633451e-08, 3.7033094966600755e-08, 0))
hIsland = hIsland.sub(rect(3.575946973705427e-09, -2.2433258927721416e-09).transl(-7.078931060727e-08, 3.7618305443824156e-08, 0))
hIsland = hIsland.add(rect(4.858048450296948e-09, 5.728095996334779e-10).transl(-6.346782560794377e-08, 3.8412822872166967e-08, 0))
hIsland = hIsland.add(rect(9.58631911022353e-09, 8.321139321338945e-10).transl(-4.294828265129872e-08, 3.976645987146857e-08, 0))
hIsland = hIsland.sub(rect(4.509235767941039e-09, -2.3075486319154673e-09).transl(5.089194277513796e-08, 3.938912247912609e-08, 0))
hIsland = hIsland.add(rect(8.416239347882811e-09, 2.2604344185226064e-10).transl(5.4134059076517174e-08, 3.9182687776464605e-08, 0))
hIsland = hIsland.sub(rect(8.990115426345512e-09, -5.081133952899099e-10).transl(-3.383467847759345e-08, 3.9979571507032715e-08, 0))
hIsland = hIsland.add(rect(9.527499475681001e-09, 3.235756613655979e-10).transl(-1.1377774706075252e-07, 2.8638142974836462e-08, 0))
hIsland = hIsland.add(rect(2.4021516754096597e-09, 8.454899105870166e-11).transl(-3.208567330172275e-08, 3.999395783098364e-08, 0))
hIsland = hIsland.add(rect(3.2820036593531805e-09, 3.0698093815347405e-09).transl(-3.103491826828769e-08, 3.999851239480728e-08, 0))
hIsland = hIsland.add(rect(3.694519983490878e-09, 1.1747693189539786e-09).transl(1.1216285808540184e-08, 4e-08, 0))
hIsland = hIsland.sub(rect(3.451235222770242e-09, -3.3068644184910956e-10).transl(8.933480116174919e-08, 3.476809100804883e-08, 0))
hIsland = hIsland.add(rect(9.192384648142402e-09, 2.2771211984700567e-09).transl(1.1181341156379424e-07, 2.9262349127796023e-08, 0))
hIsland = hIsland.sub(rect(6.984813044194679e-09, -2.232271488541663e-09).transl(1.3295443604057638e-07, 2.0549085136615557e-08, 0))
hIsland = hIsland.sub(rect(2.8487593769505434e-09, -8.847124624412173e-10).transl(-1.1121699379900149e-07, 2.9446372948223762e-08, 0))
hIsland = hIsland.add(rect(4.280225055068067e-09, 1.2502870952334389e-09).transl(-4.877854083990044e-08, 3.9507195412037414e-08, 0))
hIsland = hIsland.add(rect(6.477066920354451e-09, 6.411428608418973e-10).transl(1.2208790669484998e-07, 2.564678329529111e-08, 0))
hIsland = hIsland.sub(rect(4.121009296309313e-09, -2.0341265798191464e-09).transl(-1.269237304289138e-07, 2.358387038197282e-08, 0))
hIsland = hIsland.add(rect(4.294681315753187e-09, 3.948532661410884e-09).transl(2.408841452319575e-09, 4e-08, 0))
hIsland = hIsland.add(rect(3.103039939076833e-09, 2.6855129283518164e-10).transl(-3.28722308919327e-08, 3.9988540427510016e-08, 0))
hIsland = hIsland.add(rect(9.46078311381385e-09, 3.6263957468872123e-09).transl(1.486710363677485e-07, 5.9365639838070615e-09, 0))
hIsland = hIsland.add(rect(8.233657638060504e-09, 6.139189236119406e-10).transl(-3.062513956077186e-08, 3.999945721927508e-08, 0))
hIsland = hIsland.sub(rect(6.45878080726501e-09, -4.4255299515245227e-10).transl(1.399024456200723e-07, 1.6060484449338718e-08, 0))
hIsland = hIsland.add(rect(5.204744836953034e-09, 2.9654637291282162e-09).transl(5.358054121378546e-08, 3.922011682806693e-08, 0))
hIsland = hIsland.sub(rect(7.65288781919269e-09, -3.0570246620592255e-09).transl(-3.8861715066871815e-08, 3.989078145535991e-08, 0))
hIsland = hIsland.sub(rect(4.010483562413872e-09, -1.3604803549706461e-09).transl(-1.238053473417125e-07, 2.4945622662326672e-08, 0))
hIsland = hIsland.add(rect(9.461166327350172e-09, 1.182337732764481e-11).transl(4.264805577478584e-08, 3.9777194310752025e-08, 0))
hIsland = hIsland.add(rect(5.756172602151841e-09, 3.2493131777057177e-09).transl(1.511199225419269e-08, 4e-08, 0))
hIsland = hIsland.add(rect(3.9414150162287355e-09, 9.226130116982701e-10).transl(-1.2275999069457171e-08, 4e-08, 0))
hIsland = hIsland.sub(rect(8.572406650132028e-09, -1.8651312987660783e-09).transl(-1.1492679162496293e-07, 2.8259590435598887e-08, 0))
hIsland = hIsland.add(rect(7.214322950724728e-09, 1.7845221061640747e-09).transl(-4.121497228052038e-08, 3.9824928536934084e-08, 0))
hIsland = hIsland.add(rect(3.4646290324715514e-09, 6.391107618098605e-10).transl(-3.474038380633932e-08, 3.996877776099266e-08, 0))
hIsland = hIsland.add(rect(3.4224697797890953e-09, 5.211910026769991e-10).transl(-1.0750875432236845e-07, 3.053666831021851e-08, 0))
hIsland = hIsland.sub(rect(4.43884862121139e-09, -5.828702318334077e-10).transl(-1.3458008213821189e-07, 1.961577148896282e-08, 0))
hIsland = hIsland.sub(rect(6.698918625935538e-09, -3.758707736609666e-09).transl(4.187852154835699e-08, 3.980354636046227e-08, 0))
hIsland = hIsland.sub(rect(9.726059917999255e-09, -1.8596328609208166e-10).transl(-1.4700410303381206e-07, 8.882191128901928e-09, 0))
hIsland = hIsland.sub(rect(2.110855166556726e-09, -2.3470378560611477e-09).transl(-4.095567610771783e-08, 3.983294722410189e-08, 0))
hIsland = hIsland.add(rect(5.708432901138243e-09, 1.1101686167118875e-09).transl(1.4005339926506775e-07, 1.5945216315746696e-08, 0))
hIsland = hIsland.sub(rect(2.943653280976604e-09, -1.0179474216733186e-09).transl(1.3204582134620415e-07, 2.1046642238869222e-08, 0))
hIsland = hIsland.sub(rect(7.305140400683189e-09, -1.690207850180672e-09).transl(-1.449680346124063e-07, 1.1461777142410488e-08, 0))
hIsland = hIsland.sub(rect(7.187871744039854e-09, -2.441819741886075e-09).transl(9.562318763342156e-08, 3.348896542117974e-08, 0))
hIsland = hIsland.add(rect(5.432008123191511e-09, 1.8391883982726486e-10).transl(6.189167303823783e-08, 3.8561525429172035e-08, 0))
hIsland = hIsland.sub(rect(4.093245421831057e-09, -2.5354946556578845e-09).transl(-7.890078459986349e-08, 3.6528091572739155e-08, 0))
hIsland = hIsland.sub(rect(8.762677025858688e-09, -1.932798695363192e-09).transl(-1.4939188245699917e-07, 4.021862522846557e-09, 0))
hIsland = hIsland.sub(rect(8.587223096361839e-09, -1.0330303635717647e-09).transl(-4.0195817007362076e-08, 3.985535697375976e-08, 0))
hIsland = hIsland.sub(rect(4.145318985906167e-09, -2.953264332321069e-11).transl(-7.687318234687163e-08, 3.6822252898480535e-08, 0))
hIsland = hIsland.add(rect(2.194646596551776e-09, 2.8359725358221836e-12).transl(-4.53942993443908e-08, 3.966948946215927e-08, 0))
hIsland = hIsland.add(rect(4.947520927090927e-09, 9.602482005248088e-10).transl(-4.165059861338967e-08, 3.9811030788449245e-08, 0))
hIsland = hIsland.sub(rect(9.483837154472757e-09, -9.172617105937852e-10).transl(-5.545605737923334e-08, 3.9089625140616394e-08, 0))
hIsland = hIsland.sub(rect(9.14457277456414e-09, -5.461040291345699e-10).transl(-1.1219659175298345e-07, 2.9142790807015823e-08, 0))
hIsland = hIsland.sub(rect(2.440288736130059e-09, -1.934601728277709e-09).transl(4.720515244113939e-08, 3.958673000089965e-08, 0))
hIsland = hIsland.add(rect(4.9504281709909005e-09, 3.6998344883298967e-10).transl(2.1426491861712694e-09, 4e-08, 0))
hIsland = hIsland.sub(rect(9.631489643011563e-09, -2.996623908940974e-10).transl(2.0013039153187435e-08, 4e-08, 0))
hIsland = hIsland.sub(rect(5.029191853510111e-09, -1.5985528353914063e-09).transl(-2.7091347914010836e-08, 4e-08, 0))
hIsland = hIsland.add(rect(2.0873025507771577e-09, 3.5750817159986828e-09).transl(5.166881956985943e-08, 3.934245975822627e-08, 0))
hIsland = hIsland.add(rect(3.229611881792049e-09, 3.77089542088493e-09).transl(4.258122441523018e-08, 3.9779549173767414e-08, 0))
hIsland = hIsland.add(rect(9.74995099122318e-09, 5.065675324588571e-10).transl(7.379122596389689e-08, 3.7241447233751873e-08, 0))
hIsland = hIsland.add(rect(7.159164671538881e-09, 1.36334320827008e-09).transl(-2.803986929187287e-09, 4e-08, 0))
hIsland = hIsland.sub(rect(2.704840437829866e-09, -1.575873997687153e-09).transl(2.031791320314358e-08, 4e-08, 0))
hIsland = hIsland.sub(rect(2.5942521461678257e-09, -5.527968823728211e-10).transl(3.702440568478078e-08, 3.993141025527484e-08, 0))
hIsland = hIsland.sub(rect(3.732877589505911e-09, -1.9670777065200856e-09).transl(1.594806936535942e-08, 4e-08, 0))
hIsland = hIsland.sub(rect(3.4749276487553316e-09, -3.139018470174324e-10).transl(-6.649440200341883e-08, 3.810534903018919e-08, 0))
hIsland = hIsland.sub(rect(8.077144921579412e-09, -7.734410929279264e-10).transl(-1.28220145608151e-07, 2.298019194560978e-08, 0))
hIsland = hIsland.add(rect(9.210784194187937e-09, 1.7463135389440312e-10).transl(9.2729246123487e-09, 4e-08, 0))
hIsland = hIsland.add(rect(3.8541680889241955e-09, 2.6852905543513837e-09).transl(3.3793464592834e-08, 3.998000837416248e-08, 0))
hIsland = hIsland.add(rect(5.3248376642201985e-09, 3.104233795724365e-11).transl(-4.957456986124799e-08, 3.946424009255739e-08, 0))
hIsland = hIsland.sub(rect(8.506065371992389e-09, -2.6042908043944315e-09).transl(2.8060505681822486e-08, 4e-08, 0))
hIsland = hIsland.add(rect(3.1149263021550997e-09, 3.0195764890453433e-09).transl(-6.807868306572351e-08, 3.793270927427524e-08, 0))
hIsland = hIsland.add(rect(4.657071863205771e-09, 1.1044339791656707e-09).transl(1.3186800025248729e-07, 2.1142139397051604e-08, 0))
hIsland = hIsland.sub(rect(2.59935877447564e-09, -2.7746458441326605e-10).transl(-5.2795525415125927e-08, 3.9271652231671794e-08, 0))
hIsland = hIsland.sub(rect(8.142281814514536e-09, -1.4441205435959716e-11).transl(-9.491492731306759e-08, 3.364199130706074e-08, 0))
hIsland = hIsland.sub(rect(4.578628562352051e-09, -2.931194737734172e-10).transl(4.853912588751695e-08, 3.951975710019652e-08, 0))
hIsland = hIsland.sub(rect(9.954032691655051e-09, -1.7276855026670835e-09).transl(3.324353844709789e-08, 3.998538546677912e-08, 0))
hIsland = hIsland.sub(rect(8.17140514649431e-09, -4.220369614621034e-10).transl(-4.610616681804431e-08, 3.963807287392784e-08, 0))
hIsland = hIsland.sub(rect(3.4795967446739313e-09, -4.802149845240508e-10).transl(8.938813526291444e-08, 3.4757971731506395e-08, 0))
hIsland = hIsland.add(rect(3.716698266008192e-09, 4.3306208688739913e-10).transl(1.4860409094245092e-07, 6.083398280154069e-09, 0))
hIsland = hIsland.sub(rect(8.574829528189117e-09, -1.4611160894079562e-09).transl(1.3189697409627304e-07, 2.1126620043136373e-08, 0))
hIsland = hIsland.sub(rect(3.622408898927133e-09, -2.210353949164915e-09).transl(-1.0754797639388906e-08, 4e-08, 0))
hIsland = hIsland.sub(rect(6.975597461263676e-09, -1.6077559699894196e-09).transl(-6.475254828285577e-08, 3.828585521783292e-08, 0))
hIsland = hIsland.sub(rect(4.043675900772552e-09, -2.87271647788764e-10).transl(1.7143689677985865e-09, 4e-08, 0))
hIsland = hIsland.add(rect(7.012958566463315e-09, 1.4985410515561267e-09).transl(-1.4525187691243094e-07, 1.1140540921247308e-08, 0))
hIsland = hIsland.add(rect(6.231642029957691e-09, 1.3531309706682652e-09).transl(1.0496511284719002e-07, 3.123429713171096e-08, 0))
hIsland = hIsland.add(rect(4.400594460931013e-09, 2.015877533351209e-09).transl(2.625291039403161e-09, 4e-08, 0))
hIsland = hIsland.add(rect(8.182415855575812e-09, 2.160571007978446e-09).transl(6.124722375398204e-08, 3.8620102721062224e-08, 0))
hIsland = hIsland.add(rect(4.80639228907514e-09, 2.0998153412676533e-10).transl(1.0289645643056724e-08, 4e-08, 0))
hIsland = hIsland.sub(rect(2.3096147751014844e-09, -5.964875761237056e-10).transl(-9.948287263240943e-08, 3.2612421646340646e-08, 0))
hIsland = hIsland.sub(rect(7.619077306346586e-09, -1.8651267975567763e-10).transl(1.260951136129216e-07, 2.395766901042961e-08, 0))
hIsland = hIsland.add(rect(8.623860807624291e-09, 3.4652574708497476e-10).transl(5.206079760248536e-08, 3.9318247402364914e-08, 0))
hIsland = hIsland.add(rect(7.986697140174336e-09, 1.0998953959207117e-09).transl(8.292423089420995e-08, 3.5899591121559454e-08, 0))
hIsland = hIsland.sub(rect(5.2702526631162875e-09, -9.277787345491091e-10).transl(-6.54393595444596e-08, 3.821583702410781e-08, 0))
hIsland = hIsland.sub(rect(4.711022664054075e-09, -7.433864131130016e-10).transl(4.862143483881888e-08, 3.9515457122700204e-08, 0))
hIsland = hIsland.sub(rect(5.866180761403128e-09, -4.108027238662075e-09).transl(1.8205271272090488e-08, 4e-08, 0))
hIsland = hIsland.sub(rect(9.840863519846906e-09, -3.735255207725947e-09).transl(8.036791708723805e-08, 3.630591156071956e-08, 0))
vIsland = hIsland.rotz(pi / 2)
vIslands = vIslands.add(vIsland.transl(0, -a/2, 0))
DefRegion(1, hIslands)
DefRegion(2, vIslands)
TableAdd(m_full.Region(1))
TableAdd(m_full.Region(2))
setgeom(hIslands.add(vIslands))
save(geom)
r2o2 := sqrt(2) / 2
m = RandomMagSeed(4)
B_ext = vector(Bmax*r2o2, Bmax*r2o2, 0)
relax()
minimize()
for B := Bmax; B >= -Bmax; B -= Bstep {
	B_ext = vector(B*r2o2, B*r2o2, 0)
	minimize()
	tablesave()
}
//********************************************************************//
//Please cite the following references, relevant for your simulation. //
//See bibtex file in output folder for justification.                 //
//********************************************************************//
//   * Vansteenkiste et al., AIP Adv. 4, 107133 (2014).
//   * Exl et al., J. Appl. Phys. 115, 17D118 (2014).
