//mumax 3.10 [windows_amd64 go1.11.6(gc) CUDA-11.0]
//GPU info: NVIDIA GeForce RTX 3090(24575MB), CUDA Driver 12.0, cc=8.6, using cc=80 PTX
//(c) Arne Vansteenkiste, Dynamat LAB, Ghent University, Belgium
//This is free software without any warranty. See license.txt
//********************************************************************//
//  If you use mumax in any work or publication,                      //
//  we kindly ask you to cite the references in references.bib        //
//********************************************************************//
//output directory: r1;p0.5;a3.2e-07;l2.3000000000000002e-07;s1.out/
randSeed(1)
ThermSeed(1)
resolution := 2e-09
zResolution := 5e-09
a := 3.2e-07
gridSize := 320
gridDepth := 5
SetCellsize(resolution, resolution, zResolution)
SetGridsize(gridSize, gridSize, gridDepth)
SetPBC(16, 16, 0)
//resizing...
Msat = 700e3
Aex = 13e-12
alpha = 0.2
Bmax := 0.1
Bstep := Bmax / 500.0
TableAdd(B_ext)
TableAdd(m_full)
islandWidth := 8e-08
islandLength := 2.3000000000000002e-07
ellipseConstant := 5.7500000000000005e-08
hIsland := Universe().Inverse()
vIsland := Universe().Inverse()
vIslands := Universe().Inverse()
hIslands := Universe().Inverse()
hIsland = rect(islandLength-2*ellipseConstant, islandWidth)
hIsland = hIsland.add(ellipse(ellipseConstant*2, islandWidth).transl(islandLength/2-ellipseConstant, 0, 0))
hIsland = hIsland.add(ellipse(ellipseConstant*2, islandWidth).transl(-islandLength/2+ellipseConstant, 0, 0))
hIsland = hIsland.add(rect(8.560239022516019e-09, 3.172734670872217e-09).transl(3.941889430075345e-08, -4e-08, 0))
hIsland = hIsland.add(rect(9.960687681588485e-09, 1.482756652213222e-09).transl(1.4918025487818093e-08, -4e-08, 0))
hIsland = hIsland.add(rect(6.135508318147657e-09, 5.61609640376842e-10).transl(-1.0360461195495242e-07, -2.3902660894646237e-08, 0))
hIsland = hIsland.sub(rect(9.037147498586032e-09, -3.067441207302318e-09).transl(-6.679705301524193e-08, -3.947367791200164e-08, 0))
hIsland = hIsland.sub(rect(3.3279859892319197e-09, -1.584285287960493e-09).transl(-9.149938655552898e-08, -3.225825252320234e-08, 0))
hIsland = hIsland.sub(rect(6.629036339932404e-09, -1.9921291993569725e-09).transl(2.1677759070771525e-08, -4e-08, 0))
hIsland = hIsland.sub(rect(5.817581464273949e-09, -8.795612039820518e-10).transl(4.785534312601995e-08, -4e-08, 0))
hIsland = hIsland.add(rect(4.696549801451823e-09, 2.8608300407696834e-09).transl(-5.617837139127899e-08, -4e-08, 0))
hIsland = hIsland.add(rect(6.309603534257404e-09, 3.692735120799398e-10).transl(-9.1877952386248e-08, -3.2063501376944456e-08, 0))
hIsland = hIsland.sub(rect(3.4127138294918268e-09, -2.0896840593950564e-09).transl(-8.600453588987954e-08, -3.473904356053397e-08, 0))
hIsland = hIsland.add(rect(7.691215659774941e-09, 3.0672273095102445e-10).transl(2.670322158998643e-08, -4e-08, 0))
hIsland = hIsland.add(rect(7.450966360962168e-09, 8.950555984228625e-10).transl(3.879368061234349e-08, -4e-08, 0))
hIsland = hIsland.sub(rect(7.517025640372572e-09, -1.201592941301852e-09).transl(5.2693900723588e-09, -4e-08, 0))
hIsland = hIsland.add(rect(8.895004875157476e-09, 3.794285490660679e-11).transl(4.403042222900139e-08, -4e-08, 0))
hIsland = hIsland.add(rect(4.662078126307007e-09, 1.986342201820359e-09).transl(7.555277990623513e-08, -3.797743005089603e-08, 0))
hIsland = hIsland.add(rect(2.5715938539653324e-09, 9.243112127067812e-10).transl(-6.67669638400054e-08, -3.947710172556417e-08, 0))
hIsland = hIsland.sub(rect(6.380387059190014e-09, -8.823249013357015e-10).transl(2.1306975598341383e-08, -4e-08, 0))
hIsland = hIsland.sub(rect(4.6243334561892865e-09, -6.859775219051459e-10).transl(3.5159477495000854e-08, -4e-08, 0))
hIsland = hIsland.add(rect(2.0547199218395146e-09, 1.6742049817891124e-09).transl(-7.71209936078531e-08, -3.75991255006093e-08, 0))
hIsland = hIsland.add(rect(8.926740810922155e-09, 1.1994565853584197e-09).transl(5.472500997064723e-08, -4e-08, 0))
hIsland = hIsland.sub(rect(9.020013616420066e-09, -1.0696128752149268e-09).transl(8.043579664420323e-08, -3.6680065808654803e-08, 0))
hIsland = hIsland.sub(rect(8.026639983749063e-09, -2.383208169388064e-10).transl(9.56807234966152e-08, -2.990885595178808e-08, 0))
hIsland = hIsland.sub(rect(5.5523584039497195e-09, -1.0590437636912404e-09).transl(-1.3502057939500694e-08, -4e-08, 0))
hIsland = hIsland.add(rect(3.888415967939008e-09, 3.668706488687908e-09).transl(9.404377302946795e-08, -3.088258999899376e-08, 0))
hIsland = hIsland.sub(rect(6.22208991002937e-09, -1.2877260047956092e-09).transl(-7.524530075030476e-08, -3.804749546809983e-08, 0))
hIsland = hIsland.add(rect(4.139240899589882e-09, 4.572958490579365e-10).transl(-8.838556963280007e-08, -3.373971555535628e-08, 0))
hIsland = hIsland.add(rect(9.339750481643912e-09, 8.310620531908721e-10).transl(-6.49538465705255e-08, -3.966248635574704e-08, 0))
hIsland = hIsland.add(rect(6.002510586077484e-09, 4.443822925605519e-09).transl(5.969273769680689e-08, -3.9970904511649613e-08, 0))
hIsland = hIsland.sub(rect(7.290687743181522e-09, -2.4574897053613383e-09).transl(-5.502766785690339e-08, -4e-08, 0))
hIsland = hIsland.sub(rect(9.909730835318016e-09, -5.52321603540197e-10).transl(-8.812257474930679e-08, -3.385552609702679e-08, 0))
hIsland = hIsland.add(rect(4.1306428138625985e-09, 4.651039014589482e-09).transl(-1.0815517104247532e-07, -1.8927667187215066e-08, 0))
hIsland = hIsland.sub(rect(2.0468375758543857e-09, -4.196821045292347e-10).transl(-7.032798927382698e-08, -3.8991864037812655e-08, 0))
hIsland = hIsland.sub(rect(9.986254970348117e-09, -1.2550662238548115e-10).transl(-4.416803702965181e-08, -4e-08, 0))
hIsland = hIsland.sub(rect(8.280160693297635e-09, -1.2348529898006054e-09).transl(-4.3638968863904455e-08, -4e-08, 0))
hIsland = hIsland.add(rect(4.285671496775554e-09, 1.304334667894283e-09).transl(-1.024746910141167e-07, -2.4922676453719965e-08, 0))
hIsland = hIsland.add(rect(7.906588092487134e-09, 3.941880327251065e-09).transl(-1.1254779261664546e-07, -1.1556843583121648e-08, 0))
hIsland = hIsland.add(rect(3.064737820201076e-09, 1.1436775379542266e-09).transl(4.957811441859753e-08, -4e-08, 0))
hIsland = hIsland.sub(rect(6.934981152757474e-09, -1.9432403548296586e-10).transl(-8.864711507707877e-08, -3.362316042087944e-08, 0))
hIsland = hIsland.sub(rect(2.7736955998128085e-09, -3.445458868506846e-09).transl(-2.317789186918696e-08, -4e-08, 0))
hIsland = hIsland.sub(rect(9.583960873603762e-09, -2.9089632847258094e-09).transl(-9.539445024197245e-08, -3.008452880566718e-08, 0))
hIsland = hIsland.add(rect(6.5377171525024384e-09, 7.518322060871859e-10).transl(-1.7178367552987132e-09, -4e-08, 0))
hIsland = hIsland.sub(rect(9.506437486597366e-09, -1.6280774449403687e-09).transl(-1.0605762632510035e-07, -2.1423454673675583e-08, 0))
hIsland = hIsland.sub(rect(9.957400245506606e-09, -2.6481696241455777e-09).transl(5.696242520822268e-08, -4e-08, 0))
hIsland = hIsland.add(rect(4.826353217403406e-09, 2.3667708622328303e-09).transl(6.829736354947357e-08, -3.928844274036532e-08, 0))
hIsland = hIsland.add(rect(7.42633307250556e-09, 1.343101049122026e-09).transl(2.2426567162839474e-08, -4e-08, 0))
hIsland = hIsland.add(rect(8.739495576718797e-09, 6.612663491067587e-10).transl(-7.999987219535866e-08, -3.6810490827774066e-08, 0))
hIsland = hIsland.add(rect(2.779044933238411e-09, 5.789456686508175e-10).transl(-2.2225865921721404e-08, -4e-08, 0))
hIsland = hIsland.add(rect(8.805012620564172e-09, 1.7681365066943462e-09).transl(6.400429918794178e-08, -3.974326131062577e-08, 0))
hIsland = hIsland.sub(rect(4.246313982903557e-09, -3.704054063501448e-09).transl(1.3933309376479072e-08, -4e-08, 0))
hIsland = hIsland.sub(rect(3.99864953548086e-09, -1.2582826168499318e-09).transl(1.6266760880897747e-08, -4e-08, 0))
hIsland = hIsland.add(rect(6.766765559501162e-09, 2.9875933804179436e-10).transl(-8.08318212877012e-08, -3.6558994599016256e-08, 0))
hIsland = hIsland.add(rect(8.142107807669692e-09, 1.246253369163151e-09).transl(-4.400557345386751e-08, -4e-08, 0))
hIsland = hIsland.sub(rect(7.422513384550545e-09, -5.328861608810647e-10).transl(-8.684060590907828e-08, -3.440053699770364e-08, 0))
hIsland = hIsland.sub(rect(8.925502590127079e-09, -1.7319101900828354e-09).transl(-3.7152219954587485e-08, -4e-08, 0))
hIsland = hIsland.add(rect(7.875797919976427e-09, 7.90985120435094e-10).transl(3.8231866832098127e-08, -4e-08, 0))
hIsland = hIsland.sub(rect(4.839610449993932e-09, -1.1632994417731256e-09).transl(-4.926841166383867e-08, -4e-08, 0))
hIsland = hIsland.sub(rect(5.682161039464029e-09, -1.0172371920669609e-10).transl(4.9626583025721685e-08, -4e-08, 0))
hIsland = hIsland.sub(rect(2.2530152952550148e-09, -3.08069222815209e-09).transl(-1.2733956266626092e-08, -4e-08, 0))
hIsland = hIsland.add(rect(4.6299288450279915e-09, 1.0039299140848812e-09).transl(9.442083367988076e-08, -3.0664786869598866e-08, 0))
hIsland = hIsland.add(rect(5.519928973881558e-09, 1.8012269316681335e-09).transl(5.5375798132461435e-08, -4e-08, 0))
hIsland = hIsland.sub(rect(8.833197822277573e-09, -8.094028656373342e-10).transl(2.4049748953877226e-08, -4e-08, 0))
hIsland = hIsland.add(rect(4.1713768072519155e-09, 1.8313022124696282e-09).transl(4.012850707345156e-08, -4e-08, 0))
hIsland = hIsland.sub(rect(8.306823189119123e-09, -6.779804402048955e-10).transl(3.409740650319118e-08, -4e-08, 0))
hIsland = hIsland.sub(rect(5.751452495419732e-09, -9.145798267060291e-10).transl(-1.9578449110972452e-08, -4e-08, 0))
hIsland = hIsland.sub(rect(3.65750456201833e-09, -3.516721497167836e-09).transl(-8.223004145459127e-08, -3.611148492515853e-08, 0))
hIsland = hIsland.sub(rect(8.997752161601566e-09, -1.0970522383242724e-09).transl(9.789858123725603e-08, -2.8464031835516283e-08, 0))
hIsland = hIsland.add(rect(8.79584222402517e-09, 3.1812917639000857e-09).transl(-9.952296638965932e-08, -2.730220137396267e-08, 0))
hIsland = hIsland.sub(rect(7.889742211003704e-09, -4.860664181892366e-09).transl(7.702947322136813e-08, -3.7622176949857547e-08, 0))
hIsland = hIsland.add(rect(5.2719615356270074e-09, 3.7972232548069526e-10).transl(7.995260215020164e-08, -3.6824455795487805e-08, 0))
hIsland = hIsland.sub(rect(2.3552111390734923e-09, -2.5479892149347325e-09).transl(-1.4199005420398782e-08, -4e-08, 0))
hIsland = hIsland.add(rect(9.520194009870726e-09, 3.2494897928129705e-10).transl(8.676371593653224e-08, -3.4432217240134846e-08, 0))
hIsland = hIsland.add(rect(8.77454247850026e-09, 1.9324018657794816e-10).transl(3.051420346386346e-08, -4e-08, 0))
hIsland = hIsland.add(rect(9.445689111816144e-09, 9.626590265123988e-10).transl(4.6033865186577284e-08, -4e-08, 0))
hIsland = hIsland.add(rect(5.782713794925266e-09, 1.8266831228357009e-10).transl(-1.0178276200912474e-07, -2.5515237641040308e-08, 0))
hIsland = hIsland.add(rect(6.239998822476096e-09, 2.4474102052068265e-09).transl(-7.367597182054721e-08, -3.8384545949249164e-08, 0))
hIsland = hIsland.sub(rect(9.29889474022939e-09, -1.5236352402717152e-09).transl(7.930247763488027e-08, -3.701302340815854e-08, 0))
hIsland = hIsland.add(rect(7.218073712155159e-09, 2.3020076316774623e-09).transl(8.485173295343943e-08, -3.5184686164932e-08, 0))
hIsland = hIsland.sub(rect(7.746513647502342e-09, -1.9233341471472665e-09).transl(-9.351464183588182e-08, -3.118194871870288e-08, 0))
hIsland = hIsland.add(rect(5.399735027074045e-09, 8.671239969583924e-10).transl(-4.362560231657529e-08, -4e-08, 0))
hIsland = hIsland.add(rect(5.88356461688667e-09, 1.6510757305924506e-09).transl(5.9267372913908736e-08, -3.998110036973057e-08, 0))
hIsland = hIsland.sub(rect(6.06079107021445e-09, -2.70382800890733e-10).transl(6.170828456714423e-08, -3.989272778639137e-08, 0))
hIsland = hIsland.sub(rect(3.961422946509234e-09, -1.0305300964416876e-09).transl(-1.0989879279302643e-07, -1.6471194282716756e-08, 0))
hIsland = hIsland.add(rect(8.918874998089483e-09, 3.960056357949343e-09).transl(-8.395182901382186e-08, -3.5516097415499737e-08, 0))
hIsland = hIsland.sub(rect(2.5023597253100355e-09, -9.52444531846533e-10).transl(-4.3077011045456006e-08, -4e-08, 0))
hIsland = hIsland.add(rect(2.606145435525763e-09, 6.685826985724604e-10).transl(1.651312342131189e-08, -4e-08, 0))
hIsland = hIsland.sub(rect(6.643124315563611e-09, -8.102566011241681e-11).transl(-1.3580755357068968e-08, -4e-08, 0))
hIsland = hIsland.add(rect(9.358378508773438e-09, 2.789462975064691e-10).transl(7.283302295226673e-08, -3.855161252672268e-08, 0))
hIsland = hIsland.sub(rect(6.040782373208076e-09, -2.4562068227671466e-10).transl(1.3566327371376512e-08, -4e-08, 0))
hIsland = hIsland.sub(rect(6.222064281244087e-09, -8.615603678911211e-10).transl(-8.554843752270914e-08, -3.49182409648206e-08, 0))
hIsland = hIsland.sub(rect(2.1841980856550088e-09, -1.4574621361530494e-09).transl(1.0298511005559958e-07, -2.4470298318291092e-08, 0))
hIsland = hIsland.add(rect(3.020049866434848e-09, 1.0477162730673802e-09).transl(-2.350033670787162e-08, -4e-08, 0))
hIsland = hIsland.sub(rect(4.662349221326579e-09, -1.2605188917237788e-09).transl(7.951641482666014e-08, -3.695168854365383e-08, 0))
hIsland = hIsland.sub(rect(7.384155136136172e-09, -1.9570555111955336e-09).transl(-2.6300543373701237e-08, -4e-08, 0))
hIsland = hIsland.add(rect(5.509108474324656e-09, 2.6778919013203084e-09).transl(5.881312905245064e-08, -3.998956804363539e-08, 0))
hIsland = hIsland.sub(rect(2.2498921964533372e-09, -3.446482510226642e-09).transl(-7.048520320456592e-08, -3.8966672576488614e-08, 0))
hIsland = hIsland.add(rect(5.396097580377147e-09, 6.482733927391598e-10).transl(1.0007781267736657e-07, -2.6882972808974934e-08, 0))
hIsland = hIsland.sub(rect(3.2843752254358025e-09, -1.9968325827594323e-09).transl(-8.934179450667396e-08, -3.330677796174976e-08, 0))
hIsland = hIsland.sub(rect(7.186056563200582e-09, -2.5857644822901294e-09).transl(1.0484895859878884e-08, -4e-08, 0))
hIsland = hIsland.sub(rect(4.297095682395706e-09, -2.6953331378926622e-09).transl(-7.860000206296986e-08, -3.720952318580778e-08, 0))
hIsland = hIsland.add(rect(3.53804473042697e-09, 2.010581116011854e-09).transl(1.1197074357801336e-07, -1.281186773193451e-08, 0))
hIsland = hIsland.sub(rect(4.7435318574237796e-09, -7.585860153495425e-10).transl(1.0710031407507393e-07, -2.023449785750159e-08, 0))
hIsland = hIsland.sub(rect(9.826704371415205e-09, -1.4089410424983057e-09).transl(-3.8730505974008026e-08, -4e-08, 0))
hIsland = hIsland.sub(rect(9.387424397416137e-09, -4.882990251099918e-10).transl(-1.411474612968573e-08, -4e-08, 0))
hIsland = hIsland.add(rect(3.2770692244019036e-09, 1.5131976924911317e-09).transl(-1.743037379882209e-08, -4e-08, 0))
hIsland = hIsland.add(rect(3.4651826180717224e-09, 1.3569715834250916e-10).transl(-3.463162773239835e-08, -4e-08, 0))
hIsland = hIsland.add(rect(8.83294509588127e-09, 2.2148368889339703e-09).transl(1.827392523723282e-08, -4e-08, 0))
hIsland = hIsland.add(rect(9.632712369017775e-09, 8.619406883786344e-10).transl(3.795248243009625e-08, -4e-08, 0))
hIsland = hIsland.sub(rect(5.848700243900493e-09, -5.376965408995599e-09).transl(-7.409571233080177e-08, -3.829773611821181e-08, 0))
hIsland = hIsland.add(rect(9.312282779734325e-09, 5.266069446842668e-10).transl(4.8190822114603797e-08, -4e-08, 0))
hIsland = hIsland.add(rect(8.878434242963536e-09, 9.363077514210936e-10).transl(3.6823841607446626e-08, -4e-08, 0))
hIsland = hIsland.add(rect(5.204335007675206e-09, 4.5857112811522165e-11).transl(-2.347617835637515e-08, -4e-08, 0))
hIsland = hIsland.sub(rect(9.671384487306794e-09, -1.1418872872895744e-09).transl(-1.0136105166260495e-07, -2.586533709126479e-08, 0))
hIsland = hIsland.sub(rect(5.931017405562159e-09, -5.661989733530386e-10).transl(9.539836204722773e-08, -3.008214410680593e-08, 0))
hIsland = hIsland.sub(rect(5.8748079501927675e-09, -1.9429861725002872e-09).transl(-1.0918468101937135e-07, -1.7529106201219646e-08, 0))
hIsland = hIsland.add(rect(4.7385294669248515e-09, 9.255553642955762e-10).transl(-1.1594552465584294e-08, -4e-08, 0))
hIsland = hIsland.sub(rect(2.5101283386820026e-09, -1.35337815240796e-09).transl(3.7780058611408905e-08, -4e-08, 0))
hIsland = hIsland.add(rect(7.216069759895556e-09, 3.578587279047401e-09).transl(-1.5132721898005763e-08, -4e-08, 0))
hIsland = hIsland.add(rect(7.566408261055003e-09, 5.425942752713065e-10).transl(-1.4088945005991978e-08, -4e-08, 0))
hIsland = hIsland.sub(rect(2.5210499954316276e-09, -2.853912397515981e-09).transl(1.8815326546082212e-08, -4e-08, 0))
hIsland = hIsland.sub(rect(8.211314419046779e-09, -3.7000113038866635e-09).transl(8.693582562267012e-09, -4e-08, 0))
hIsland = hIsland.sub(rect(7.069894535029485e-09, -1.6621124200163365e-10).transl(-7.162733847628756e-08, -3.8773909307496135e-08, 0))
hIsland = hIsland.sub(rect(4.350952473256146e-09, -1.9342842352429876e-09).transl(7.56555590459479e-08, -3.795371205763632e-08, 0))
hIsland = hIsland.sub(rect(8.335918169613386e-09, -1.6169040381978383e-10).transl(-5.2065913963038106e-08, -4e-08, 0))
hIsland = hIsland.sub(rect(9.971729122218471e-09, -2.553397473203495e-09).transl(-3.383440675253974e-08, -4e-08, 0))
hIsland = hIsland.sub(rect(5.272978151683363e-09, -9.772393126054858e-10).transl(4.04843565122963e-08, -4e-08, 0))
hIsland = hIsland.sub(rect(4.8203026313905505e-09, -3.689152365073532e-09).transl(-9.150451977465565e-08, -3.225563401009888e-08, 0))
hIsland = hIsland.sub(rect(8.963433032866759e-09, -8.668759158633235e-10).transl(-6.538811271738618e-08, -3.962182013040445e-08, 0))
hIsland = hIsland.add(rect(6.249192738508267e-09, 8.647818921455315e-11).transl(-2.8220905775271705e-08, -4e-08, 0))
hIsland = hIsland.add(rect(5.338018741454217e-09, 2.694508527909314e-09).transl(9.655398100222059e-08, -2.9358141870630427e-08, 0))
hIsland = hIsland.add(rect(2.564524594743824e-09, 5.541606147218724e-10).transl(1.0952444347576378e-07, -1.7035771546492586e-08, 0))
hIsland = hIsland.add(rect(3.934118737808524e-09, 1.3510977250561725e-09).transl(8.937701906399631e-08, -3.329046843928916e-08, 0))
hIsland = hIsland.sub(rect(9.761699858717495e-09, -2.6198652290772685e-09).transl(-2.9199231820568647e-08, -4e-08, 0))
hIsland = hIsland.add(rect(2.954428322199669e-09, 1.573599184959016e-09).transl(-6.309499733568208e-08, -3.98101870965012e-08, 0))
hIsland = hIsland.add(rect(3.660998396700065e-09, 2.6565254101108994e-09).transl(7.250883191276379e-08, -3.861330150115461e-08, 0))
hIsland = hIsland.sub(rect(2.760119069531445e-09, -3.678744677377405e-09).transl(5.861832584385532e-08, -3.9992433899515937e-08, 0))
hIsland = hIsland.sub(rect(2.927190627061484e-09, -5.641228994759625e-10).transl(6.901576686757131e-08, -3.9189595399877996e-08, 0))
hIsland = hIsland.add(rect(2.0138506956793638e-09, 3.931480108247743e-09).transl(9.060465401473972e-09, -4e-08, 0))
hIsland = hIsland.add(rect(3.2193537660088024e-09, 1.3735682314024188e-09).transl(-8.323822644842061e-08, -3.576892831143494e-08, 0))
hIsland = hIsland.sub(rect(7.950614319030378e-09, -1.8842362659280477e-09).transl(-7.690474077817557e-08, -3.7653397536220915e-08, 0))
hIsland = hIsland.add(rect(2.526809371715958e-09, 1.1192620253653979e-09).transl(-1.012467189149306e-07, -2.5958870098035768e-08, 0))
hIsland = hIsland.add(rect(2.7097937796658595e-09, 1.8690086093170914e-09).transl(3.200983959778967e-08, -4e-08, 0))
hIsland = hIsland.add(rect(4.338350769322968e-09, 2.4605917405585847e-09).transl(-1.870395118801642e-08, -4e-08, 0))
hIsland = hIsland.add(rect(8.901799985261104e-09, 4.0162592998877004e-09).transl(-9.416239626146519e-08, -3.08144758685118e-08, 0))
hIsland = hIsland.add(rect(2.265392719311045e-09, 8.886733300533579e-10).transl(-1.3527126242712731e-08, -4e-08, 0))
hIsland = hIsland.sub(rect(3.38829655340364e-09, -3.174146667970958e-09).transl(5.2906265223982106e-08, -4e-08, 0))
hIsland = hIsland.sub(rect(6.132323079898505e-09, -1.9602990222392666e-09).transl(-1.1491388581746338e-07, -2.188344760723685e-09, 0))
hIsland = hIsland.add(rect(5.655642938931038e-09, 1.261260458285126e-09).transl(1.2764319258454435e-08, -4e-08, 0))
hIsland = hIsland.add(rect(7.453402278833123e-09, 1.6590453609769696e-10).transl(-3.596446265937077e-08, -4e-08, 0))
hIsland = hIsland.add(rect(7.863070730725596e-09, 1.085354023053087e-09).transl(-3.614288208053281e-08, -4e-08, 0))
hIsland = hIsland.add(rect(6.9418449998646216e-09, 7.828796265825739e-10).transl(-9.724171209547385e-08, -2.890806292010746e-08, 0))
hIsland = hIsland.sub(rect(8.73039009474681e-09, -6.096939900607261e-10).transl(1.0003212920569364e-07, -2.691794589819092e-08, 0))
hIsland = hIsland.add(rect(6.609362245762023e-09, 2.010498778277988e-09).transl(6.274028299203142e-08, -3.9833540577094886e-08, 0))
hIsland = hIsland.add(rect(6.504993525537114e-09, 2.7836741333547064e-09).transl(-6.453553908762647e-08, -3.969944513940174e-08, 0))
hIsland = hIsland.sub(rect(7.241989321818559e-09, -1.0552599784274176e-09).transl(-4.145686112357504e-08, -4e-08, 0))
hIsland = hIsland.add(rect(7.981708434854625e-09, 2.5587725744208047e-09).transl(7.628616473217505e-08, -3.780490370748721e-08, 0))
hIsland = hIsland.add(rect(3.6315948954663775e-09, 3.311352733782433e-09).transl(-5.878292476642206e-08, -3.9990042490164893e-08, 0))
hIsland = hIsland.add(rect(7.72691290795708e-09, 8.625279306932602e-10).transl(6.809648171261737e-08, -3.9314901701571235e-08, 0))
hIsland = hIsland.sub(rect(2.297566798776205e-09, -5.9084276987147596e-09).transl(-1.5555550800195208e-08, -4e-08, 0))
hIsland = hIsland.sub(rect(6.484194350048569e-09, -9.898664147726797e-10).transl(1.0875646757095317e-09, -4e-08, 0))
hIsland = hIsland.add(rect(2.1857760615996123e-09, 3.3110867279273104e-10).transl(-8.263666524971612e-08, -3.5975361853298273e-08, 0))
hIsland = hIsland.sub(rect(5.511118372441664e-09, -1.321422194294962e-09).transl(4.570066251132532e-09, -4e-08, 0))
hIsland = hIsland.sub(rect(6.093722787653897e-09, -1.4630529697796303e-10).transl(-5.8812870536900764e-08, -3.998957215124241e-08, 0))
hIsland = hIsland.add(rect(6.604842868570128e-09, 6.451119921314586e-10).transl(-2.9205875689651738e-09, -4e-08, 0))
hIsland = hIsland.add(rect(2.7744086242192438e-09, 3.2589950238842637e-09).transl(1.7398055134648482e-08, -4e-08, 0))
hIsland = hIsland.add(rect(4.573712544599775e-09, 3.931655564837547e-09).transl(-9.79418545930619e-08, -2.8434278603791867e-08, 0))
hIsland = hIsland.sub(rect(9.764810001843273e-09, -1.3147219819650742e-09).transl(8.029821496266306e-08, -3.672154961384214e-08, 0))
hIsland = hIsland.sub(rect(7.565493708597757e-09, -1.6594997976326207e-09).transl(-4.9592144435805364e-08, -4e-08, 0))
hIsland = hIsland.add(rect(7.88737170619945e-09, 3.177955475548871e-09).transl(-8.737257325915233e-08, -3.417825832315836e-08, 0))
hIsland = hIsland.add(rect(6.571130002692713e-09, 3.608049009116799e-10).transl(1.1322420752521913e-07, -9.864109782773542e-09, 0))
hIsland = hIsland.sub(rect(4.342355476578756e-09, -1.936161315602236e-09).transl(-9.66000440383679e-08, -2.9328456035632756e-08, 0))
hIsland = hIsland.add(rect(7.056500418740126e-09, 2.9785859383462943e-10).transl(-4.004340570259822e-08, -4e-08, 0))
hIsland = hIsland.sub(rect(8.806470037307747e-09, -2.6304348568042925e-09).transl(-9.244664789262185e-08, -3.1764591963328776e-08, 0))
hIsland = hIsland.sub(rect(9.15037402601811e-09, -2.3404268334283134e-09).transl(-1.7921068519784323e-08, -4e-08, 0))
hIsland = hIsland.sub(rect(9.851096439308102e-09, -1.5957876324049533e-09).transl(4.204083458051234e-08, -4e-08, 0))
hIsland = hIsland.add(rect(3.306320030940607e-09, 2.0777406834493806e-10).transl(-7.915723444136412e-08, -3.7054265480441075e-08, 0))
hIsland = hIsland.add(rect(4.599591242410899e-09, 2.447600873032694e-09).transl(-3.111468206065106e-08, -4e-08, 0))
hIsland = hIsland.sub(rect(7.6617690637692e-09, -4.03888005517265e-09).transl(5.800339827908733e-08, -3.999846705673638e-08, 0))
hIsland = hIsland.add(rect(3.1493252279305984e-09, 6.556792161612259e-10).transl(1.0669182823250549e-07, -2.071144779915699e-08, 0))
hIsland = hIsland.sub(rect(2.5631185523690044e-09, -2.020864682691286e-09).transl(5.827220417732569e-08, -3.999639273388087e-08, 0))
hIsland = hIsland.add(rect(7.6096208135396e-09, 1.0109137459736545e-09).transl(-1.0537027768979798e-07, -2.215940478302676e-08, 0))
hIsland = hIsland.sub(rect(5.3979318022502054e-09, -1.56970421927708e-09).transl(1.357215326038662e-08, -4e-08, 0))
hIsland = hIsland.sub(rect(3.861964957343992e-09, -2.0589121267715038e-09).transl(1.8680095309537953e-08, -4e-08, 0))
hIsland = hIsland.add(rect(6.167043894393417e-09, 8.331834906802149e-10).transl(-9.029929799411138e-08, -3.285405514787491e-08, 0))
hIsland = hIsland.add(rect(4.656288827559188e-09, 1.8071960844847514e-09).transl(-6.379777289360014e-08, -3.9759355106647407e-08, 0))
hIsland = hIsland.sub(rect(8.35330349596956e-09, -2.70676749467998e-09).transl(-2.5294545235551094e-08, -4e-08, 0))
hIsland = hIsland.sub(rect(9.122128845527058e-09, -1.9067729822011186e-09).transl(2.9512504051008226e-08, -4e-08, 0))
hIsland = hIsland.add(rect(7.337893049252097e-09, 3.9724749844945426e-10).transl(-2.0874512685903282e-09, -4e-08, 0))
hIsland = hIsland.sub(rect(7.988356105312762e-09, -6.326245284237311e-10).transl(4.681138457126406e-08, -4e-08, 0))
hIsland = hIsland.add(rect(5.449931876578411e-09, 3.3570594720613376e-10).transl(4.19624701006934e-08, -4e-08, 0))
hIsland = hIsland.sub(rect(8.63054697078611e-09, -6.791887584604124e-10).transl(3.783706138794398e-08, -4e-08, 0))
hIsland = hIsland.sub(rect(2.4636695853673817e-09, -3.838039694451894e-09).transl(1.3689849740158903e-08, -4e-08, 0))
hIsland = hIsland.add(rect(5.005839908545086e-09, 2.1178943961896307e-09).transl(4.715504292732113e-08, -4e-08, 0))
hIsland = hIsland.sub(rect(8.225139353331526e-09, -3.3739038846226167e-10).transl(-5.522075607572426e-08, -4e-08, 0))
hIsland = hIsland.add(rect(2.057769416502107e-09, 2.0078784220039123e-09).transl(1.723648649400277e-08, -4e-08, 0))
hIsland = hIsland.sub(rect(4.699745065537269e-09, -2.9703996602342933e-09).transl(-1.0809765572582147e-07, -1.9001968466984226e-08, 0))
hIsland = hIsland.sub(rect(9.189142473411867e-09, -2.4149542378492197e-09).transl(5.09992400668477e-08, -4e-08, 0))
hIsland = hIsland.sub(rect(9.045318278468437e-09, -3.3552675527382885e-09).transl(-3.2994022788060394e-08, -4e-08, 0))
hIsland = hIsland.add(rect(9.410904186521845e-09, 2.7992092688090363e-09).transl(-9.209859407947774e-08, -3.1948444576899514e-08, 0))
hIsland = hIsland.sub(rect(3.806106947324712e-09, -1.7330094698707587e-09).transl(2.665812276521456e-08, -4e-08, 0))
hIsland = hIsland.add(rect(3.8578945966514885e-09, 1.0601034101177952e-10).transl(5.399215289459262e-09, -4e-08, 0))
hIsland = hIsland.sub(rect(6.403219699852152e-09, -1.4101202319263666e-09).transl(1.1234727202495108e-07, 1.2009357438851775e-08, 0))
hIsland = hIsland.sub(rect(5.752812279249937e-09, -3.595751030138e-09).transl(-1.0379474075936294e-08, 4e-08, 0))
hIsland = hIsland.sub(rect(9.238758719799256e-09, -9.189876107946617e-10).transl(9.723807116963678e-08, 2.8910484984136814e-08, 0))
hIsland = hIsland.add(rect(6.661825779684135e-09, 8.112772507189259e-10).transl(-2.273674774156064e-08, 4e-08, 0))
hIsland = hIsland.add(rect(6.702699869371861e-09, 2.788413686191787e-09).transl(8.420191383139672e-08, 3.542541877402373e-08, 0))
hIsland = hIsland.add(rect(5.407658298508835e-09, 1.3989604928537562e-09).transl(3.2950164363524465e-08, 4e-08, 0))
hIsland = hIsland.sub(rect(2.9702953340167523e-09, -1.4860722290706916e-09).transl(2.256020361711629e-08, 4e-08, 0))
hIsland = hIsland.sub(rect(7.0657750890915206e-09, -3.3713715519176944e-09).transl(9.468758688374408e-08, 3.050839996298829e-08, 0))
hIsland = hIsland.add(rect(5.767349849997667e-09, 7.56380393766644e-10).transl(3.670648783692237e-08, 4e-08, 0))
hIsland = hIsland.add(rect(7.666151851918924e-09, 2.2259607189446697e-09).transl(1.0084847328378582e-07, 2.628018743747109e-08, 0))
hIsland = hIsland.sub(rect(2.9029109399130206e-09, -2.5771836145197753e-10).transl(6.44783976484329e-08, 3.9704325529013736e-08, 0))
hIsland = hIsland.add(rect(7.622034709073336e-09, 1.869107144438494e-09).transl(-6.338315931088408e-08, 3.97900786465084e-08, 0))
hIsland = hIsland.add(rect(6.874790409345452e-09, 2.5155884696366513e-10).transl(7.933546731062905e-09, 4e-08, 0))
hIsland = hIsland.add(rect(2.2702078465005792e-09, 2.1262975639486714e-09).transl(-3.7982476383746684e-08, 4e-08, 0))
hIsland = hIsland.sub(rect(6.318684865393824e-09, -3.8234817759359567e-10).transl(4.862759591717878e-08, 4e-08, 0))
hIsland = hIsland.sub(rect(3.6986799978814936e-09, -4.061111953855501e-09).transl(4.981280272244194e-08, 4e-08, 0))
hIsland = hIsland.sub(rect(3.695184329482148e-09, -2.358189662367894e-10).transl(6.323080621060628e-08, 3.980083716869859e-08, 0))
hIsland = hIsland.sub(rect(4.811974125320365e-09, -5.762486403803819e-10).transl(-9.13844805652851e-08, 3.231670856227349e-08, 0))
hIsland = hIsland.add(rect(7.147086167196281e-09, 1.9529989625908456e-09).transl(-4.049205001389302e-08, 4e-08, 0))
hIsland = hIsland.sub(rect(7.263143679515627e-09, -1.8097742950428393e-09).transl(-9.003350278747677e-08, 3.298169929260662e-08, 0))
hIsland = hIsland.sub(rect(4.898428873875433e-09, -1.6662602972457876e-10).transl(2.3443351760951725e-08, 4e-08, 0))
hIsland = hIsland.add(rect(5.744642042057993e-09, 1.3521074621765724e-09).transl(9.12553651394423e-08, 3.238203202626999e-08, 0))
hIsland = hIsland.add(rect(4.043220614302375e-09, 2.6729457259241463e-09).transl(3.7495002206339595e-08, 4e-08, 0))
hIsland = hIsland.sub(rect(4.946393112592451e-09, -3.6122851248097235e-09).transl(-1.0324477475575633e-07, 2.4234924147866367e-08, 0))
hIsland = hIsland.add(rect(7.376527529516521e-09, 2.6239003446007445e-09).transl(1.0904992301545377e-07, 1.772009805399239e-08, 0))
hIsland = hIsland.add(rect(8.128809465283951e-09, 3.9846482487204046e-10).transl(-1.0709325475582805e-07, 2.0242869648386356e-08, 0))
hIsland = hIsland.add(rect(9.444681986765084e-09, 3.149285825294126e-10).transl(-1.1031740735799914e-07, 1.581092793314569e-08, 0))
hIsland = hIsland.sub(rect(4.817222054847812e-09, -2.942657746308238e-09).transl(1.754066544048118e-08, 4e-08, 0))
hIsland = hIsland.sub(rect(5.575242266364974e-09, -7.458770949391485e-10).transl(1.5541781013369774e-08, 4e-08, 0))
hIsland = hIsland.add(rect(3.6944693303418304e-09, 9.935400252445035e-10).transl(-4.1404967445681836e-08, 4e-08, 0))
hIsland = hIsland.sub(rect(4.058655932186276e-09, -1.7116633675590014e-09).transl(2.2452383521196056e-08, 4e-08, 0))
hIsland = hIsland.add(rect(5.509766821829049e-09, 8.069118097641389e-10).transl(-3.263420182887117e-08, 4e-08, 0))
hIsland = hIsland.add(rect(8.018124562844855e-09, 1.9794713279363725e-09).transl(-2.2366354081321824e-08, 4e-08, 0))
hIsland = hIsland.sub(rect(3.5342666692883685e-09, -3.36843914517534e-10).transl(-8.318917883250697e-08, 3.578598745930188e-08, 0))
hIsland = hIsland.sub(rect(4.207739182188768e-09, -8.940306246480381e-10).transl(4.911411575325051e-08, 4e-08, 0))
hIsland = hIsland.sub(rect(5.1359728036841905e-09, -1.8110950540352813e-09).transl(-1.0518190361211414e-07, 2.2355083975753183e-08, 0))
hIsland = hIsland.sub(rect(4.550467541995261e-09, -5.982559904359567e-10).transl(3.2630250763662355e-08, 4e-08, 0))
hIsland = hIsland.add(rect(4.79699014011204e-09, 1.1523869780078808e-09).transl(-9.046214222005238e-08, 3.277509076949563e-08, 0))
hIsland = hIsland.add(rect(8.803521514386163e-09, 4.6510110816384946e-10).transl(4.2571481921429164e-08, 4e-08, 0))
hIsland = hIsland.sub(rect(5.157019624792219e-09, -3.052521505898294e-09).transl(7.191176909768791e-08, 3.87232201099729e-08, 0))
hIsland = hIsland.sub(rect(7.385093255264242e-09, -2.9800963089681004e-09).transl(4.3729491796325335e-08, 4e-08, 0))
hIsland = hIsland.sub(rect(3.107025649934815e-09, -9.98029179916893e-10).transl(-1.9525995549346375e-08, 4e-08, 0))
hIsland = hIsland.add(rect(3.315773639175197e-09, 1.9403918891727996e-09).transl(7.83684899196449e-09, 4e-08, 0))
hIsland = hIsland.sub(rect(6.919330958353084e-09, -3.15400352476458e-09).transl(-1.1034125857699141e-07, 1.577231406688151e-08, 0))
hIsland = hIsland.sub(rect(6.7515875288722685e-09, -1.3794010533972103e-10).transl(-1.1889476140043704e-08, 4e-08, 0))
hIsland = hIsland.sub(rect(6.6695948563137135e-09, -1.615569348193957e-10).transl(9.009587780071085e-09, 4e-08, 0))
hIsland = hIsland.sub(rect(8.920347230012385e-09, -6.460040469172395e-10).transl(7.411087192981806e-08, 3.829455550287686e-08, 0))
hIsland = hIsland.sub(rect(5.934273854232882e-09, -1.2957239024974745e-09).transl(-6.592853425161422e-08, 3.9567933768543303e-08, 0))
hIsland = hIsland.add(rect(8.04612233181208e-09, 1.4558019326551151e-09).transl(-2.4151881678039282e-08, 4e-08, 0))
hIsland = hIsland.sub(rect(5.4590584044394005e-09, -7.023218986914461e-10).transl(1.0013321962428138e-07, 2.6840444245650695e-08, 0))
hIsland = hIsland.add(rect(9.237834466615983e-09, 1.766595402393838e-09).transl(6.137927247081148e-08, 3.990886401213284e-08, 0))
hIsland = hIsland.add(rect(8.694022186947646e-09, 2.9560325887955174e-09).transl(-2.459267155763105e-08, 4e-08, 0))
hIsland = hIsland.add(rect(5.764893851441799e-09, 1.3965296858046127e-09).transl(7.497050587232453e-08, 3.810898818530692e-08, 0))
hIsland = hIsland.add(rect(5.259645571613388e-09, 2.3147401488079966e-09).transl(-4.1960450873169927e-08, 4e-08, 0))
hIsland = hIsland.add(rect(4.160693515839804e-09, 2.602512695208675e-09).transl(-8.593080496348266e-08, 3.476827063872604e-08, 0))
hIsland = hIsland.sub(rect(6.36816061215764e-09, -3.001488049542981e-10).transl(-1.09008620283928e-07, 1.777812643256278e-08, 0))
hIsland = hIsland.add(rect(4.72783558143094e-09, 7.296193941164386e-11).transl(-9.026861149550029e-08, 3.286887029884757e-08, 0))
hIsland = hIsland.sub(rect(2.3146261907427404e-09, -1.0874710553624834e-09).transl(7.112503048167047e-09, 4e-08, 0))
hIsland = hIsland.add(rect(5.387349840204141e-09, 1.4347399925906551e-09).transl(6.357956936876981e-08, 3.977578801331285e-08, 0))
hIsland = hIsland.sub(rect(2.410610857316643e-09, -4.778168805931704e-10).transl(-8.234899051463425e-08, 3.607194773333717e-08, 0))
hIsland = hIsland.sub(rect(4.4612549155925626e-09, -6.941067928186268e-10).transl(-8.136980270359548e-08, 3.639053879087243e-08, 0))
hIsland = hIsland.sub(rect(5.318003157542907e-09, -3.379617654557043e-09).transl(-9.303286758266674e-08, 3.144828990774411e-08, 0))
hIsland = hIsland.sub(rect(6.0299951732107436e-09, -3.860206733115448e-09).transl(-7.831654186737564e-08, 3.728670723267606e-08, 0))
hIsland = hIsland.add(rect(7.780471891027179e-09, 1.9369290453639925e-10).transl(-7.63202103960233e-08, 3.7796708187405375e-08, 0))
hIsland = hIsland.add(rect(7.331050790785154e-09, 7.745770348167405e-10).transl(7.80174907104323e-08, 3.736683575500123e-08, 0))
hIsland = hIsland.sub(rect(3.734854456640892e-09, -2.147218865681659e-09).transl(6.275948353185931e-08, 3.9832315946388536e-08, 0))
hIsland = hIsland.sub(rect(7.771693818619796e-09, -7.611834470661369e-10).transl(3.442129417374032e-08, 4e-08, 0))
hIsland = hIsland.sub(rect(9.944945145455029e-09, -1.5887923029902184e-09).transl(-1.895117030733119e-08, 4e-08, 0))
hIsland = hIsland.add(rect(5.272892322753416e-09, 2.095124796731443e-09).transl(1.0540072241676255e-07, 2.21275441325502e-08, 0))
hIsland = hIsland.sub(rect(9.240215232802722e-09, -5.795786153075577e-09).transl(9.200869265286127e-08, 3.199546380998017e-08, 0))
hIsland = hIsland.sub(rect(4.553458185709278e-09, -2.33597361281806e-09).transl(-1.0263829162728807e-07, 2.4779132670652896e-08, 0))
hIsland = hIsland.add(rect(7.447958323906456e-09, 2.133978688076969e-09).transl(6.226205842207446e-08, 3.986258619619345e-08, 0))
hIsland = hIsland.add(rect(8.220986059580448e-09, 4.848134284758289e-10).transl(-9.305816014739508e-08, 3.1434452316944324e-08, 0))
hIsland = hIsland.add(rect(9.403291638871949e-09, 1.487653984745401e-09).transl(1.1134931559895185e-07, 1.4025652277575882e-08, 0))
hIsland = hIsland.add(rect(2.3063629252677567e-09, 1.926196167085729e-09).transl(9.52080453900682e-08, 3.019766162570055e-08, 0))
hIsland = hIsland.sub(rect(3.898137778175401e-09, -5.84182778902862e-10).transl(1.039065289604454e-07, 2.3618226992638446e-08, 0))
hIsland = hIsland.sub(rect(2.22826115391951e-09, -4.4319649197575075e-09).transl(8.910895226120603e-08, 3.3413935352270236e-08, 0))
hIsland = hIsland.sub(rect(7.515608386162855e-09, -6.603925322390229e-10).transl(1.5914601634799474e-08, 4e-08, 0))
hIsland = hIsland.add(rect(7.0438728507220295e-09, 1.1284554961065424e-09).transl(-1.1229540332218885e-07, 1.2123398796167626e-08, 0))
hIsland = hIsland.add(rect(5.337421545768497e-09, 2.136999185493976e-09).transl(5.6072291149741235e-09, 4e-08, 0))
hIsland = hIsland.sub(rect(5.578861307857684e-09, -2.5364911339260764e-09).transl(5.260988368085995e-09, 4e-08, 0))
hIsland = hIsland.sub(rect(9.900652988247773e-09, -5.5369030496037505e-11).transl(5.5057220927133616e-08, 4e-08, 0))
hIsland = hIsland.add(rect(3.799372860463265e-09, 9.07162895917771e-10).transl(5.920124560075745e-08, 3.998248849746271e-08, 0))
hIsland = hIsland.sub(rect(4.705476790474877e-09, -2.463486354337405e-09).transl(7.3449338142996096e-09, 4e-08, 0))
hIsland = hIsland.sub(rect(3.142491594096292e-09, -1.9079116016095517e-10).transl(1.9000450852723542e-08, 4e-08, 0))
hIsland = hIsland.sub(rect(4.298168025121674e-09, -4.164223789427866e-09).transl(2.2222658680120688e-08, 4e-08, 0))
hIsland = hIsland.sub(rect(8.048782049292257e-09, -6.837069574427574e-10).transl(4.495954086144659e-08, 4e-08, 0))
hIsland = hIsland.add(rect(6.770076819363912e-09, 1.6110177376081156e-09).transl(-1.250619855548636e-08, 4e-08, 0))
hIsland = hIsland.add(rect(6.572725409598902e-09, 3.5923862173650004e-09).transl(1.1237706751101432e-07, 1.194330574860326e-08, 0))
hIsland = hIsland.add(rect(5.485846444901338e-09, 3.6710510928727744e-09).transl(7.630462922494683e-08, 3.7800460970932806e-08, 0))
hIsland = hIsland.add(rect(2.9571614608095456e-09, 2.0674592771702393e-11).transl(1.0198070756893367e-07, 2.5348067098069436e-08, 0))
hIsland = hIsland.sub(rect(7.776508469735143e-09, -3.260966621148743e-09).transl(-5.740094808335826e-08, 4e-08, 0))
hIsland = hIsland.sub(rect(9.401181062921615e-09, -3.6729920639595004e-09).transl(-3.216235974571703e-08, 4e-08, 0))
hIsland = hIsland.sub(rect(3.776069041484934e-09, -2.0158566411853085e-09).transl(-5.121031524289273e-08, 4e-08, 0))
hIsland = hIsland.add(rect(3.6357369957085956e-09, 1.2968252222306255e-09).transl(-9.417110312384349e-08, 3.080946169985395e-08, 0))
hIsland = hIsland.sub(rect(7.710104679934024e-09, -3.0941438441727093e-09).transl(1.8091285840973486e-08, 4e-08, 0))
hIsland = hIsland.sub(rect(4.681609399325022e-09, -1.4392264156870766e-10).transl(5.403683644327832e-08, 4e-08, 0))
hIsland = hIsland.add(rect(5.20909691354683e-09, 2.606330615873002e-09).transl(1.1048278699899806e-07, 1.5540849041577712e-08, 0))
hIsland = hIsland.add(rect(9.340464469599406e-09, 3.987144980968876e-10).transl(-4.772015943471982e-08, 4e-08, 0))
hIsland = hIsland.add(rect(8.470347360543429e-09, 2.1736718745531324e-09).transl(-9.630322736830397e-08, 2.951860916127588e-08, 0))
hIsland = hIsland.add(rect(8.925406883006964e-09, 5.64373168553709e-10).transl(7.528634540277566e-08, 3.8038219631752476e-08, 0))
hIsland = hIsland.add(rect(2.2876869697309073e-09, 1.92518090441979e-09).transl(1.0301791648092031e-07, 2.4440759577066804e-08, 0))
hIsland = hIsland.sub(rect(4.1496870763017745e-09, -4.749641282457897e-10).transl(1.0692895633180029e-07, 2.043641245317794e-08, 0))
hIsland = hIsland.sub(rect(7.905359194513092e-09, -3.1024269653477486e-10).transl(7.915545394950466e-09, 4e-08, 0))
hIsland = hIsland.add(rect(5.2912130698718794e-09, 4.694170423955169e-09).transl(-7.883974400856579e-08, 3.714330098248473e-08, 0))
hIsland = hIsland.sub(rect(3.052851290463173e-09, -2.9997500496301604e-10).transl(-6.531014990421593e-08, 3.9629293526682176e-08, 0))
hIsland = hIsland.sub(rect(4.840027669632974e-09, -8.177246435401345e-10).transl(4.71035522736281e-08, 4e-08, 0))
hIsland = hIsland.sub(rect(5.585718938227872e-09, -2.449984481902445e-09).transl(-9.064533954322342e-08, 3.268555971200638e-08, 0))
hIsland = hIsland.add(rect(9.645840978008406e-09, 1.889175842532148e-09).transl(4.873011834891576e-08, 4e-08, 0))
hIsland = hIsland.add(rect(3.3833192448366617e-09, 1.719407916597128e-09).transl(2.4263360682488267e-08, 4e-08, 0))
hIsland = hIsland.sub(rect(9.799229907660127e-09, -7.753307540374195e-11).transl(-5.3749921694070966e-08, 4e-08, 0))
hIsland = hIsland.sub(rect(9.715598017621872e-09, -1.617815432809645e-09).transl(-7.699216984798079e-08, 3.76315376861477e-08, 0))
hIsland = hIsland.sub(rect(4.409084752090412e-09, -1.3075923639602227e-09).transl(3.9768963129711835e-08, 4e-08, 0))
hIsland = hIsland.sub(rect(7.856838324764557e-09, -7.584860419423506e-10).transl(-3.7629194899643515e-08, 4e-08, 0))
hIsland = hIsland.add(rect(6.689837153744155e-09, 6.732268439084121e-10).transl(2.260391334871413e-08, 4e-08, 0))
hIsland = hIsland.add(rect(3.883102725110471e-09, 4.224139343988575e-10).transl(1.729420949991232e-08, 4e-08, 0))
hIsland = hIsland.add(rect(4.138633840004725e-09, 9.850706983391006e-11).transl(-1.6249946157310158e-08, 4e-08, 0))
hIsland = hIsland.add(rect(6.248758635816685e-09, 2.1185535976036183e-09).transl(-3.6860054007858015e-08, 4e-08, 0))
hIsland = hIsland.sub(rect(3.983985493139096e-09, -2.1975977929835203e-09).transl(-1.3531563553411684e-08, 4e-08, 0))
hIsland = hIsland.add(rect(4.028661058682994e-09, 6.896122987816994e-10).transl(-2.8191871620918508e-08, 4e-08, 0))
hIsland = hIsland.sub(rect(5.056530887527974e-09, -2.8167759134781444e-09).transl(5.7883393580824374e-08, 3.999911082179753e-08, 0))
hIsland = hIsland.add(rect(7.77508596435986e-09, 7.142855997973235e-10).transl(6.30910117416481e-08, 3.9810458070005914e-08, 0))
hIsland = hIsland.add(rect(7.289697692234534e-09, 3.0607600607952716e-09).transl(-1.3778040412445097e-08, 4e-08, 0))
hIsland = hIsland.add(rect(5.045894750868294e-09, 9.615588220677599e-10).transl(1.7947356973703247e-08, 4e-08, 0))
hIsland = hIsland.add(rect(6.721702011294678e-09, 3.5745742916530843e-10).transl(5.3384854314246495e-08, 4e-08, 0))
hIsland = hIsland.sub(rect(7.510593688103763e-09, -1.015806030127002e-09).transl(1.717680592862885e-08, 4e-08, 0))
hIsland = hIsland.add(rect(9.95745582433041e-09, 3.647479764766934e-09).transl(1.2791852437286972e-08, 4e-08, 0))
hIsland = hIsland.add(rect(5.697296127597463e-09, 9.159456668192352e-10).transl(-1.3642606369109084e-08, 4e-08, 0))
hIsland = hIsland.add(rect(2.7422856525647826e-09, 2.634870091168728e-09).transl(8.196156233473837e-08, 3.619987007268639e-08, 0))
hIsland = hIsland.sub(rect(8.253058627735321e-09, -6.326739222294847e-10).transl(-9.652853917742874e-08, 2.9374510290638163e-08, 0))
hIsland = hIsland.sub(rect(2.2343496484172984e-09, -5.695797029740352e-10).transl(-3.497238870695693e-08, 4e-08, 0))
hIsland = hIsland.add(rect(4.0352509879882556e-09, 3.0231776919841996e-09).transl(-2.489844124376936e-08, 4e-08, 0))
hIsland = hIsland.sub(rect(6.67380606852867e-09, -8.931868464273232e-10).transl(9.979986747785515e-08, 2.709447973223527e-08, 0))
hIsland = hIsland.add(rect(7.661764636678115e-09, 1.7174098313084484e-09).transl(-2.8891612531319403e-08, 4e-08, 0))
hIsland = hIsland.add(rect(4.001011586403443e-09, 2.527308092123676e-10).transl(-6.890038024231441e-08, 3.9205918030685364e-08, 0))
hIsland = hIsland.add(rect(8.24803686028182e-09, 2.7807184464631955e-09).transl(5.431586554688135e-08, 4e-08, 0))
hIsland = hIsland.add(rect(5.385166945699045e-09, 3.4018034378823502e-09).transl(-1.0077021297924118e-07, 2.634252706059022e-08, 0))
hIsland = hIsland.add(rect(6.620647944605073e-09, 6.960397980704279e-10).transl(6.826618612371022e-09, 4e-08, 0))
hIsland = hIsland.add(rect(3.78344677526686e-09, 1.1320354760962759e-09).transl(-1.0705642292516334e-07, 2.0286473950016277e-08, 0))
hIsland = hIsland.add(rect(9.385399477070819e-09, 1.4397431784351794e-09).transl(6.715397444416164e-08, 3.943219393791079e-08, 0))
hIsland = hIsland.sub(rect(7.856829377632114e-09, -2.740478477482969e-09).transl(-4.101380134417809e-08, 4e-08, 0))
hIsland = hIsland.add(rect(5.090892422777013e-09, 5.95988582655684e-10).transl(-3.3602301359930986e-08, 4e-08, 0))
hIsland = hIsland.sub(rect(7.068656374266254e-09, -3.355139773982644e-09).transl(9.099474166025672e-08, 3.2512733697514935e-08, 0))
hIsland = hIsland.add(rect(6.083218950130592e-09, 1.2794140950143755e-09).transl(-1.5430549867973514e-08, 4e-08, 0))
hIsland = hIsland.sub(rect(9.656066744462323e-09, -6.471698582279603e-10).transl(-1.867272675679728e-08, 4e-08, 0))
hIsland = hIsland.sub(rect(3.769668800959778e-09, -1.7981869513894689e-09).transl(-3.5593712532844295e-08, 4e-08, 0))
hIsland = hIsland.add(rect(2.5129593723035415e-09, 3.0371926778295888e-09).transl(1.0193278305154754e-07, 2.538871019786058e-08, 0))
hIsland = hIsland.add(rect(7.075594413936015e-09, 7.392175875870811e-10).transl(-3.926859496412488e-08, 4e-08, 0))
hIsland = hIsland.sub(rect(9.686328814833936e-09, -1.035383616563879e-09).transl(7.222621037674273e-08, 3.866592689135873e-08, 0))
hIsland = hIsland.add(rect(7.782742762292573e-09, 4.173582970087275e-09).transl(-9.420313926968605e-08, 3.079099521424354e-08, 0))
hIsland = hIsland.sub(rect(4.093529633971559e-09, -1.831915344451909e-09).transl(-7.602023611727229e-08, 3.786834767336113e-08, 0))
hIsland = hIsland.sub(rect(8.051216346901227e-09, -7.805653716605705e-10).transl(-4.244976451430303e-08, 4e-08, 0))
hIsland = hIsland.sub(rect(9.111109011224088e-09, -1.991386695441874e-09).transl(7.984398693012422e-08, 3.6856412735707435e-08, 0))
hIsland = hIsland.add(rect(6.6984202198566466e-09, 7.423291399349776e-10).transl(6.192262652103052e-08, 3.988150539314015e-08, 0))
hIsland = hIsland.sub(rect(9.757645909813007e-09, -2.030542077072633e-09).transl(-4.1022405227280746e-08, 4e-08, 0))
hIsland = hIsland.sub(rect(2.142913484224878e-09, -1.2774131794576437e-09).transl(-7.823623125420926e-08, 3.7308356697112516e-08, 0))
hIsland = hIsland.add(rect(8.21182049179549e-09, 2.8449606205935624e-09).transl(-1.366160772463818e-09, 4e-08, 0))
hIsland = hIsland.sub(rect(7.730816091449746e-09, -3.649736457789169e-09).transl(1.3321244702097989e-08, 4e-08, 0))
hIsland = hIsland.add(rect(6.282438276738476e-09, 6.020928264238477e-11).transl(-6.192283068213953e-08, 3.988149443653235e-08, 0))
hIsland = hIsland.add(rect(5.805276090008431e-09, 9.287773654959929e-10).transl(7.708223849831646e-08, 3.7608901719996734e-08, 0))
hIsland = hIsland.add(rect(4.8770047927941785e-09, 1.1243462790222375e-10).transl(3.8951226191237343e-08, 4e-08, 0))
hIsland = hIsland.add(rect(4.9646065909883326e-09, 6.387988661298241e-10).transl(7.259911586659207e-08, 3.859626403882148e-08, 0))
hIsland = hIsland.add(rect(9.348077893356838e-09, 1.3243482779416264e-10).transl(-7.65858756517103e-08, 3.773218513920221e-08, 0))
hIsland = hIsland.sub(rect(5.445128444249375e-09, -2.225124138864257e-09).transl(-3.524507783272956e-08, 4e-08, 0))
hIsland = hIsland.sub(rect(5.585441856958528e-09, -2.170255133124526e-09).transl(4.718232025496581e-08, 4e-08, 0))
hIsland = hIsland.sub(rect(9.416696896970544e-09, -1.1729103260008345e-09).transl(-3.237192092233839e-08, 4e-08, 0))
hIsland = hIsland.add(rect(3.394577113962269e-09, 1.7509276100432228e-09).transl(-1.807662579799936e-08, 4e-08, 0))
hIsland = hIsland.sub(rect(5.374534437697306e-09, -3.808009874591211e-10).transl(9.831169671460914e-08, 2.8177394621381065e-08, 0))
hIsland = hIsland.sub(rect(4.9591858642334776e-09, -4.4648239760470625e-10).transl(-7.308086766240725e-08, 3.850349357136697e-08, 0))
hIsland = hIsland.sub(rect(3.6115501765602025e-09, -3.205329852879065e-10).transl(2.233917816527239e-08, 4e-08, 0))
hIsland = hIsland.sub(rect(2.092592172972637e-09, -1.6332920811194192e-09).transl(1.0494047422877141e-07, 2.2602288375830996e-08, 0))
hIsland = hIsland.add(rect(8.966874106497677e-09, 3.1763697731112532e-09).transl(-9.175331728243776e-08, 3.212798794348768e-08, 0))
hIsland = hIsland.add(rect(8.017320299560618e-09, 3.4216227032717533e-10).transl(6.315959124320443e-08, 3.980576828614331e-08, 0))
hIsland = hIsland.sub(rect(3.8900417979773355e-09, -1.3639129228533073e-09).transl(-4.498554852503843e-09, 4e-08, 0))
hIsland = hIsland.add(rect(9.82859347810497e-09, 2.3845798368121474e-09).transl(-4.1456197677022063e-08, 4e-08, 0))
hIsland = hIsland.add(rect(9.954062309242292e-09, 2.806096561007507e-09).transl(8.954294883849096e-08, 3.3213289469366444e-08, 0))
hIsland = hIsland.add(rect(4.58037979343962e-09, 3.222109826647424e-09).transl(1.1364707412514567e-08, 4e-08, 0))
hIsland = hIsland.add(rect(6.846182919281339e-09, 9.083480796847877e-10).transl(9.159389338153316e-08, 3.220994595442448e-08, 0))
hIsland = hIsland.add(rect(6.7066185951918755e-09, 1.1128171831875977e-09).transl(5.581047242172951e-08, 4e-08, 0))
hIsland = hIsland.add(rect(8.88716318464987e-09, 8.372761735547616e-10).transl(2.2994432182046418e-08, 4e-08, 0))
hIsland = hIsland.sub(rect(8.879028741049719e-09, -2.187545758784759e-09).transl(9.5543869557009e-08, 2.999313031670569e-08, 0))
hIsland = hIsland.sub(rect(5.9506954831120154e-09, -1.6636897099181768e-09).transl(1.0773855769434548e-07, 1.9457595507058868e-08, 0))
hIsland = hIsland.add(rect(9.946925330866308e-09, 6.708606836643539e-10).transl(7.510902927468033e-08, 3.8078122226603135e-08, 0))
hIsland = hIsland.add(rect(2.7883229178634226e-09, 2.940157015059171e-09).transl(9.23603751486871e-08, 3.181043469317758e-08, 0))
hIsland = hIsland.sub(rect(7.4125569205554044e-09, -1.0294154923362791e-09).transl(2.1375170338561503e-08, 4e-08, 0))
hIsland = hIsland.sub(rect(6.387276360882566e-09, -4.454696695923812e-09).transl(-4.459028043700979e-08, 4e-08, 0))
hIsland = hIsland.add(rect(7.18250267199198e-09, 7.40263707686164e-10).transl(-2.7609593382421016e-08, 4e-08, 0))
hIsland = hIsland.add(rect(7.896893632834342e-09, 2.002352953977394e-09).transl(-2.5519199802702405e-08, 4e-08, 0))
hIsland = hIsland.sub(rect(4.475424057120326e-09, -2.3465598036410275e-09).transl(1.0485628460501233e-07, 2.2687566065466368e-08, 0))
hIsland = hIsland.sub(rect(9.210884661108453e-09, -2.046898854403001e-09).transl(3.4023468809761185e-08, 4e-08, 0))
hIsland = hIsland.add(rect(2.721407933845309e-09, 1.3621362014889853e-09).transl(-6.605892691169577e-08, 3.955438602697856e-08, 0))
hIsland = hIsland.sub(rect(4.6704111306127296e-09, -1.350107349858492e-09).transl(-2.178872920277452e-08, 4e-08, 0))
hIsland = hIsland.add(rect(5.205510477814947e-09, 2.2216342056907483e-09).transl(1.8894032153224416e-08, 4e-08, 0))
hIsland = hIsland.sub(rect(2.5932896256448457e-09, -1.3752048712893597e-09).transl(1.737872730055564e-09, 4e-08, 0))
hIsland = hIsland.add(rect(3.906917217052539e-09, 3.879318604941491e-09).transl(-1.0084754488944071e-07, 2.6280928494027416e-08, 0))
hIsland = hIsland.sub(rect(4.713563105906596e-09, -8.630341969982402e-10).transl(6.248247889308918e-08, 3.9849546333618376e-08, 0))
hIsland = hIsland.sub(rect(2.0409324930678363e-09, -3.1454596602494865e-09).transl(-5.69616069413193e-08, 4e-08, 0))
hIsland = hIsland.add(rect(8.10737852704392e-09, 2.6831923562551084e-09).transl(-1.0795914445620078e-07, 1.9179380746164434e-08, 0))
hIsland = hIsland.sub(rect(8.213444404645344e-09, -5.178546485796732e-10).transl(6.358547997404732e-08, 3.977535060833094e-08, 0))
hIsland = hIsland.add(rect(7.809357741028255e-09, 5.978860648724547e-10).transl(-5.7555324747020305e-08, 3.9999981484592265e-08, 0))
vIsland = hIsland.rotz(pi / 2)
hIslands = hIslands.add(hIsland.transl(-a/2, a, 0))
hIsland = rect(islandLength-2*ellipseConstant, islandWidth)
hIsland = hIsland.add(ellipse(ellipseConstant*2, islandWidth).transl(islandLength/2-ellipseConstant, 0, 0))
hIsland = hIsland.add(ellipse(ellipseConstant*2, islandWidth).transl(-islandLength/2+ellipseConstant, 0, 0))
hIsland = hIsland.sub(rect(9.025260635698889e-09, -1.3924192324813908e-09).transl(-6.772178548854813e-08, -3.9362881241008394e-08, 0))
hIsland = hIsland.add(rect(9.955162019593506e-09, 9.802060895349578e-10).transl(9.90554329968954e-09, -4e-08, 0))
hIsland = hIsland.sub(rect(4.94320994841968e-09, -1.2288452214506692e-09).transl(5.6344322223195876e-08, -4e-08, 0))
hIsland = hIsland.sub(rect(4.55384427386402e-09, -1.2567700777190124e-09).transl(6.865435363015793e-08, -3.924015008054719e-08, 0))
hIsland = hIsland.add(rect(6.4507107530064845e-09, 1.5676568736084866e-09).transl(4.4030298126882253e-08, -4e-08, 0))
hIsland = hIsland.sub(rect(3.748092763405518e-09, -5.342597058796827e-10).transl(-4.9647759950303186e-08, -4e-08, 0))
hIsland = hIsland.add(rect(3.536017926179012e-09, 7.978030725363542e-10).transl(5.502059291177488e-08, -4e-08, 0))
hIsland = hIsland.add(rect(8.513173593437284e-09, 3.816956396702971e-10).transl(5.128803020415443e-08, -4e-08, 0))
hIsland = hIsland.add(rect(6.6371171436885195e-09, 1.6518738823905062e-09).transl(-9.579988715097538e-08, -2.983503392620865e-08, 0))
hIsland = hIsland.add(rect(2.0466911159020737e-09, 1.398238677796498e-09).transl(9.12331142383116e-08, -3.2393250976492316e-08, 0))
hIsland = hIsland.add(rect(5.999172216789473e-09, 4.2145453160400965e-09).transl(3.7322409296388895e-08, -4e-08, 0))
hIsland = hIsland.sub(rect(6.092434922515432e-09, -4.647732215169018e-11).transl(4.760827457496369e-08, -4e-08, 0))
hIsland = hIsland.sub(rect(3.874080485786114e-09, -1.4492059322267903e-09).transl(8.401941681715673e-08, -3.5491697586345095e-08, 0))
hIsland = hIsland.sub(rect(6.995079924555163e-09, -5.522310102859733e-10).transl(-3.383737198849025e-08, -4e-08, 0))
hIsland = hIsland.add(rect(7.679768041755851e-09, 3.455787470730418e-09).transl(-2.0520168164805376e-09, -4e-08, 0))
hIsland = hIsland.add(rect(6.738589037809071e-09, 2.4031606706425503e-09).transl(-8.711280532389363e-08, -3.428747948022129e-08, 0))
hIsland = hIsland.sub(rect(8.959274331331991e-09, -9.660355008601046e-10).transl(2.04065913191986e-08, -4e-08, 0))
hIsland = hIsland.add(rect(2.2011307885323357e-09, 5.606256875274847e-10).transl(-5.935905708680438e-08, -3.997908810945174e-08, 0))
hIsland = hIsland.sub(rect(2.919918768982007e-09, -2.4476692236223417e-09).transl(7.744233590051385e-08, -3.751722047305894e-08, 0))
hIsland = hIsland.add(rect(7.536672009259799e-09, 8.460788545354056e-10).transl(-9.565847753164653e-08, -2.9922591741750796e-08, 0))
hIsland = hIsland.add(rect(9.409237954474259e-09, 9.775180240137591e-10).transl(-8.152315329274108e-08, -3.6341671912532066e-08, 0))
hIsland = hIsland.add(rect(7.007013259989065e-09, 1.2010069890333313e-09).transl(-3.199923387407199e-08, -4e-08, 0))
hIsland = hIsland.add(rect(6.200719468133248e-09, 1.5583462543901376e-09).transl(-3.8599044491658436e-08, -4e-08, 0))
hIsland = hIsland.add(rect(7.424012079978213e-09, 1.3359675301083392e-09).transl(1.01948349223936e-07, -2.5375521014862458e-08, 0))
hIsland = hIsland.add(rect(7.261227141116879e-09, 1.0389849388419475e-09).transl(-1.0522684685179506e-07, -2.2308623665659533e-08, 0))
hIsland = hIsland.add(rect(3.1752255083817453e-09, 1.3804729117475074e-10).transl(8.488603850814585e-10, -4e-08, 0))
hIsland = hIsland.add(rect(7.1432720606046446e-09, 1.4018009309444596e-09).transl(1.0604894304795485e-07, -2.1432976068380357e-08, 0))
hIsland = hIsland.sub(rect(4.8392183379861335e-09, -1.613283851270591e-09).transl(-3.7276861234056706e-08, -4e-08, 0))
hIsland = hIsland.sub(rect(4.324779214267336e-09, -1.535276193156665e-09).transl(-5.2274875730295296e-08, -4e-08, 0))
hIsland = hIsland.sub(rect(9.160806875625116e-09, -1.770232787891525e-09).transl(-3.198000056944806e-08, -4e-08, 0))
hIsland = hIsland.sub(rect(8.186940326506268e-09, -8.949621839627338e-10).transl(4.061465137452655e-08, -4e-08, 0))
hIsland = hIsland.add(rect(5.798444193276834e-09, 1.0378604748330773e-09).transl(7.016448670280164e-08, -3.90177207280104e-08, 0))
hIsland = hIsland.add(rect(2.6555844078721437e-09, 3.3220785006320815e-09).transl(8.449667744891945e-08, -3.53171407567042e-08, 0))
hIsland = hIsland.sub(rect(5.8453589792852905e-09, -2.2159130414192855e-09).transl(-9.608935283750763e-08, -2.9653979065959854e-08, 0))
hIsland = hIsland.add(rect(2.34001451714615e-09, 2.264864493407928e-09).transl(-4.4989326356718474e-08, -4e-08, 0))
hIsland = hIsland.sub(rect(8.183634359945628e-09, -5.029000143556561e-11).transl(-1.9852138471779546e-10, -4e-08, 0))
hIsland = hIsland.add(rect(6.519129068590418e-09, 4.340164393543594e-09).transl(8.717222157602559e-08, -3.4262612300806376e-08, 0))
hIsland = hIsland.sub(rect(5.481248851263056e-09, -5.068497165879178e-10).transl(8.617618343888792e-08, -3.467061276007329e-08, 0))
hIsland = hIsland.add(rect(3.4553046928917017e-09, 1.2460520579312924e-09).transl(-3.792647628789894e-08, -4e-08, 0))
hIsland = hIsland.add(rect(6.232984121942839e-09, 1.922572042329474e-09).transl(-3.4978922529049414e-08, -4e-08, 0))
hIsland = hIsland.sub(rect(6.283896020370161e-09, -4.649375264004152e-09).transl(8.28843831021058e-08, -3.58910889888605e-08, 0))
hIsland = hIsland.add(rect(5.217869117990228e-09, 2.05252708484458e-09).transl(-6.624588679364788e-08, -3.95345897420771e-08, 0))
hIsland = hIsland.sub(rect(3.696793553449519e-09, -2.416648435748731e-10).transl(-1.0730768050711562e-07, -1.9986475124499348e-08, 0))
hIsland = hIsland.add(rect(8.52303282337235e-09, 1.11205041564433e-09).transl(2.785145411806457e-08, -4e-08, 0))
hIsland = hIsland.sub(rect(9.740101709225751e-09, -9.346054472036398e-10).transl(3.933026534553108e-08, -4e-08, 0))
hIsland = hIsland.sub(rect(4.75913353690816e-09, -9.762794150337697e-10).transl(-7.120537628099876e-08, -3.884713002016329e-08, 0))
hIsland = hIsland.add(rect(3.235127408090216e-09, 4.6165351602106074e-09).transl(6.932615786744423e-08, -3.914483670872828e-08, 0))
hIsland = hIsland.add(rect(3.207657346619537e-09, 1.0245861282856889e-09).transl(-7.474706056741346e-08, -3.8158211063449426e-08, 0))
hIsland = hIsland.add(rect(4.30375982956819e-09, 1.1046128237821917e-09).transl(9.102657446373032e-08, -3.249685207992675e-08, 0))
hIsland = hIsland.add(rect(9.474259902646261e-09, 2.2345681009827186e-09).transl(8.158732488756761e-08, -3.632111041338308e-08, 0))
hIsland = hIsland.add(rect(7.417548455146032e-09, 2.2959706415638853e-09).transl(-6.579027362772026e-08, -3.958206686067615e-08, 0))
hIsland = hIsland.sub(rect(6.518009766506561e-09, -3.963348274873129e-10).transl(7.104118400422875e-08, -3.887498507966543e-08, 0))
hIsland = hIsland.sub(rect(5.569991590975979e-09, -2.4776655977416536e-10).transl(7.371254656288705e-08, -3.837707780844903e-08, 0))
hIsland = hIsland.add(rect(8.940618871642035e-09, 2.3708376757108986e-09).transl(-4.179543398636143e-08, -4e-08, 0))
hIsland = hIsland.add(rect(3.6516751308416922e-09, 1.190107917201069e-10).transl(2.7186807074062157e-08, -4e-08, 0))
hIsland = hIsland.sub(rect(4.682649699759452e-09, -4.584540264642393e-09).transl(-9.128603945249106e-08, -3.236654746225498e-08, 0))
hIsland = hIsland.add(rect(6.492429186579457e-09, 5.207580332006668e-09).transl(-6.22272494185059e-08, -3.9864591148433927e-08, 0))
hIsland = hIsland.sub(rect(9.22916019524666e-09, -5.652543025760792e-10).transl(-4.757025602496328e-09, -4e-08, 0))
hIsland = hIsland.sub(rect(4.764353428572334e-09, -3.66217093491544e-09).transl(3.65743201262656e-08, -4e-08, 0))
hIsland = hIsland.add(rect(2.4523548519298608e-09, 3.2255703035641054e-10).transl(9.500141710525895e-08, -3.032192712828505e-08, 0))
hIsland = hIsland.add(rect(9.825367134656116e-09, 7.618327608058059e-10).transl(-2.5049583030928745e-09, -4e-08, 0))
hIsland = hIsland.add(rect(6.963139507111529e-09, 2.334442216092097e-09).transl(1.0372962567167707e-07, -2.3785523938077828e-08, 0))
hIsland = hIsland.add(rect(7.830045763547695e-09, 1.4095576902395007e-09).transl(-1.117621511768246e-07, -1.3233289288562426e-08, 0))
hIsland = hIsland.sub(rect(5.950230584840169e-09, -8.354879871252727e-10).transl(-1.2603979899503344e-08, -4e-08, 0))
hIsland = hIsland.sub(rect(5.356427083393899e-09, -2.6602741257364915e-09).transl(-3.700158412069628e-08, -4e-08, 0))
hIsland = hIsland.add(rect(3.2812342077930654e-09, 1.5747930733761113e-09).transl(-1.0446368425680719e-07, -2.3079117821926363e-08, 0))
hIsland = hIsland.add(rect(9.61380133448428e-09, 1.8241761836418553e-09).transl(-9.982493082504475e-08, -2.707553178868908e-08, 0))
hIsland = hIsland.add(rect(8.004874761944728e-09, 2.2888889790671247e-09).transl(-6.107970730763854e-08, -3.992240910462838e-08, 0))
hIsland = hIsland.add(rect(3.310460435132223e-09, 1.96284542513786e-09).transl(1.437693013733928e-08, -4e-08, 0))
hIsland = hIsland.add(rect(5.653102519141946e-09, 2.9620411035419277e-10).transl(9.397753756374237e-09, -4e-08, 0))
hIsland = hIsland.add(rect(6.9288493709546715e-09, 2.4899429187600906e-09).transl(1.0924539799829035e-07, -1.7442204276140977e-08, 0))
hIsland = hIsland.sub(rect(7.781145852062383e-09, -6.091859919729651e-10).transl(-8.862711682922388e-08, -3.363212145688499e-08, 0))
hIsland = hIsland.add(rect(4.735555601650887e-09, 3.04635415808044e-09).transl(-7.105716641995202e-08, -3.8872289299968164e-08, 0))
hIsland = hIsland.sub(rect(6.152545074618153e-09, -3.317033941451775e-09).transl(3.328860526780238e-08, -4e-08, 0))
hIsland = hIsland.add(rect(9.941532458862348e-09, 1.2491381910929913e-09).transl(1.7744778777205238e-09, -4e-08, 0))
hIsland = hIsland.add(rect(6.180461912657651e-09, 8.813464259479873e-10).transl(-9.93673056557225e-08, -2.7417687486691517e-08, 0))
hIsland = hIsland.sub(rect(5.704167626398047e-09, -1.5463946967827579e-09).transl(1.0767437597295e-08, -4e-08, 0))
hIsland = hIsland.add(rect(6.526321017204647e-09, 1.980963723331866e-11).transl(-1.1387244289285391e-07, -7.882622684792118e-09, 0))
hIsland = hIsland.sub(rect(6.729552816194785e-09, -1.666677589604796e-10).transl(-3.540618232382111e-08, -4e-08, 0))
hIsland = hIsland.add(rect(6.393434557233913e-09, 9.274689372769365e-11).transl(7.493804587595604e-08, -3.811618211498927e-08, 0))
hIsland = hIsland.add(rect(2.7422082239552035e-09, 3.5895746687604377e-10).transl(4.502879546928563e-08, -4e-08, 0))
hIsland = hIsland.add(rect(9.611443035907606e-09, 2.781195471039223e-09).transl(-1.9803841857187617e-09, -4e-08, 0))
hIsland = hIsland.add(rect(9.049384319658646e-09, 3.1062187357225165e-09).transl(3.776808965398178e-08, -4e-08, 0))
hIsland = hIsland.add(rect(2.9874716855363143e-09, 2.740776723659986e-09).transl(9.901151452851409e-08, -2.767825217379335e-08, 0))
hIsland = hIsland.sub(rect(8.07318560598918e-09, -1.8499863549822557e-09).transl(1.1040906952848181e-07, -1.5661915602353945e-08, 0))
hIsland = hIsland.sub(rect(7.562065770091291e-09, -1.3887146488713361e-09).transl(1.1420271922627947e-08, -4e-08, 0))
hIsland = hIsland.add(rect(6.723120802595401e-09, 1.7892191876340474e-09).transl(-1.1266721169172969e-07, -1.1277908970485626e-08, 0))
hIsland = hIsland.sub(rect(9.352718782405811e-09, -7.527317491117765e-12).transl(1.4741107783838232e-08, -4e-08, 0))
hIsland = hIsland.sub(rect(9.274336069505727e-09, -5.264724832097429e-10).transl(9.188048767424568e-08, -3.206218583234345e-08, 0))
hIsland = hIsland.sub(rect(9.631320796953368e-09, -2.4322694711359856e-09).transl(4.862844170746176e-08, -4e-08, 0))
hIsland = hIsland.sub(rect(2.9354991798967084e-09, -2.564577802803703e-09).transl(-3.2012637129386086e-08, -4e-08, 0))
hIsland = hIsland.add(rect(6.288533132532748e-09, 2.3482053719348314e-10).transl(4.8973032064940674e-08, -4e-08, 0))
hIsland = hIsland.add(rect(5.384093166602059e-09, 1.0820134871762473e-10).transl(1.1028298334537782e-07, -1.5866462311622213e-08, 0))
hIsland = hIsland.sub(rect(3.5977281912271482e-09, -1.3600668087850172e-10).transl(-7.587384043004028e-08, -3.790284338481737e-08, 0))
hIsland = hIsland.sub(rect(5.81307913927028e-09, -3.0318984588664135e-09).transl(1.0212619029877512e-07, -2.5224017258847492e-08, 0))
hIsland = hIsland.sub(rect(9.582758825962565e-09, -6.046754890078358e-10).transl(4.16708547842028e-08, -4e-08, 0))
hIsland = hIsland.sub(rect(5.305246793366096e-09, -1.5031113403915697e-09).transl(3.3720027792259805e-09, -4e-08, 0))
hIsland = hIsland.add(rect(2.0487512953740172e-09, 2.554256578124465e-10).transl(3.8468075801955235e-08, -4e-08, 0))
hIsland = hIsland.add(rect(9.141018252581764e-09, 2.1054052300807938e-09).transl(1.0967510672449284e-07, -1.6811312972504385e-08, 0))
hIsland = hIsland.add(rect(7.887243035001087e-09, 3.991909254571352e-09).transl(-1.6423516682362192e-08, -4e-08, 0))
hIsland = hIsland.sub(rect(6.072607126384478e-09, -3.0612627702842606e-09).transl(6.361178320919216e-08, -3.9773398865922843e-08, 0))
hIsland = hIsland.add(rect(3.62309679486042e-09, 1.642099777756518e-09).transl(8.039707606223303e-08, -3.66917708744016e-08, 0))
hIsland = hIsland.sub(rect(8.144161289826784e-09, -9.915426844216807e-10).transl(2.723327911225084e-08, -4e-08, 0))
hIsland = hIsland.add(rect(4.0499593769719355e-09, 2.290068572889571e-09).transl(9.533369839349325e-08, -3.012150831015237e-08, 0))
hIsland = hIsland.add(rect(7.976880479981333e-09, 8.57992697944678e-10).transl(-4.2695919308303355e-08, -4e-08, 0))
hIsland = hIsland.add(rect(9.749711659177578e-09, 3.010106162861224e-09).transl(1.7359429798135096e-08, -4e-08, 0))
hIsland = hIsland.add(rect(7.59006599098168e-09, 1.5322397248754752e-09).transl(-9.082437275733321e-08, -3.2597344753816476e-08, 0))
hIsland = hIsland.add(rect(3.5758350921550443e-09, 8.483944481608891e-11).transl(8.764796537346604e-08, -3.4061038479093967e-08, 0))
hIsland = hIsland.sub(rect(6.706250574561385e-09, -1.0646369613311742e-09).transl(3.3393462373910064e-08, -4e-08, 0))
hIsland = hIsland.sub(rect(6.7211968761651275e-09, -1.4558188649844286e-09).transl(-1.1767285427112304e-08, -4e-08, 0))
hIsland = hIsland.add(rect(3.767794745498554e-09, 5.661718266505447e-10).transl(-3.486616813785529e-08, -4e-08, 0))
hIsland = hIsland.sub(rect(7.471286484865144e-09, -8.130064706551351e-10).transl(-8.697024473799442e-08, -3.4346868363675225e-08, 0))
hIsland = hIsland.add(rect(2.52857853611837e-09, 1.309059318059634e-09).transl(-6.318943346550385e-09, -4e-08, 0))
hIsland = hIsland.sub(rect(7.613535904787317e-09, -3.948104652708814e-10).transl(-5.083260716425992e-08, -4e-08, 0))
hIsland = hIsland.sub(rect(7.3895226085235415e-09, -1.3601835283265036e-09).transl(-8.230407842382216e-09, -4e-08, 0))
hIsland = hIsland.add(rect(9.379669836176472e-09, 1.3772517012061473e-09).transl(-3.9854633983903705e-09, -4e-08, 0))
hIsland = hIsland.sub(rect(7.650846522936828e-09, -3.967326939861291e-09).transl(-1.1270667776196733e-07, -1.1184060610025383e-08, 0))
hIsland = hIsland.add(rect(3.7360658049121755e-09, 1.8204266682366624e-09).transl(-8.940317970377748e-08, -3.3278338803883114e-08, 0))
hIsland = hIsland.add(rect(6.7322946779770085e-09, 1.8144582401748982e-09).transl(3.5977676334125906e-08, -4e-08, 0))
hIsland = hIsland.add(rect(6.086846725142225e-09, 1.425953566971155e-09).transl(8.20279815330136e-08, -3.6178114283901024e-08, 0))
hIsland = hIsland.sub(rect(3.2488524916193758e-09, -1.1358663425365646e-09).transl(9.985260046673754e-08, -2.705458501925668e-08, 0))
hIsland = hIsland.sub(rect(3.2179666624229297e-09, -4.756078388193555e-10).transl(3.0654156213797245e-08, -4e-08, 0))
hIsland = hIsland.add(rect(9.822585102265422e-09, 6.45636731667171e-11).transl(3.846235029358775e-08, -4e-08, 0))
hIsland = hIsland.add(rect(9.985953146650648e-09, 2.6929554373170464e-09).transl(9.320741208254228e-08, -3.135247100985181e-08, 0))
hIsland = hIsland.sub(rect(6.568491048579801e-09, -2.451009633397263e-09).transl(-9.862352946158044e-08, -2.7957129045515605e-08, 0))
hIsland = hIsland.sub(rect(4.681363263051978e-09, -3.3568015062358916e-09).transl(-9.891977966299211e-08, -2.7744679637231563e-08, 0))
hIsland = hIsland.sub(rect(6.3268164995876575e-09, -9.756274358874603e-10).transl(4.329921021624581e-08, -4e-08, 0))
hIsland = hIsland.sub(rect(2.57296651691937e-09, -3.231830925077309e-10).transl(4.720128403326351e-09, -4e-08, 0))
hIsland = hIsland.add(rect(9.961855897931419e-09, 3.53479609181466e-09).transl(-1.929218247707308e-09, -4e-08, 0))
hIsland = hIsland.add(rect(4.127708537164139e-09, 7.328990169149872e-10).transl(1.1078990167659712e-07, -1.5024096153121233e-08, 0))
hIsland = hIsland.add(rect(3.2313511370792237e-09, 4.1579163188104556e-10).transl(5.736641922413529e-08, -4e-08, 0))
hIsland = hIsland.sub(rect(3.3844863288264753e-09, -4.129359283914804e-10).transl(5.497281397458667e-08, -4e-08, 0))
hIsland = hIsland.add(rect(6.020887161396191e-09, 1.1766639042170984e-09).transl(-2.833800757088071e-08, -4e-08, 0))
hIsland = hIsland.add(rect(6.898366788312134e-09, 2.162589813276818e-10).transl(-1.0104505548609199e-08, -4e-08, 0))
hIsland = hIsland.sub(rect(4.655855660093159e-09, -1.6664781424444726e-09).transl(-1.1424837880259659e-07, -6.446391531598512e-09, 0))
hIsland = hIsland.add(rect(7.226527256709756e-09, 1.6089309776848379e-09).transl(-4.913439518523741e-08, -4e-08, 0))
hIsland = hIsland.sub(rect(9.394639201537836e-09, -5.623194228459846e-11).transl(2.6826483983434087e-08, -4e-08, 0))
hIsland = hIsland.sub(rect(3.1791360898480784e-09, -5.126517438894052e-10).transl(-3.34814381675749e-08, -4e-08, 0))
hIsland = hIsland.sub(rect(3.36381446699703e-09, -3.3318735096202547e-10).transl(-4.657262106146725e-09, -4e-08, 0))
hIsland = hIsland.add(rect(4.946391313997624e-09, 8.800325242528042e-10).transl(5.462869518773854e-09, -4e-08, 0))
hIsland = hIsland.add(rect(5.945611897962276e-09, 2.571506742531541e-09).transl(-8.500594879284438e-08, -3.5126458877934046e-08, 0))
hIsland = hIsland.add(rect(2.4793157598532476e-09, 1.9671560457459268e-09).transl(-5.6022907358507123e-08, -4e-08, 0))
hIsland = hIsland.add(rect(5.695804479543897e-09, 2.080452370835238e-09).transl(-1.005044084777125e-07, -2.655233224760407e-08, 0))
hIsland = hIsland.add(rect(7.998359972417544e-09, 2.720759780674317e-09).transl(-5.3371603440431615e-08, -4e-08, 0))
hIsland = hIsland.sub(rect(7.564887181732135e-09, -2.1064415127599492e-09).transl(3.8627280739713505e-08, -4e-08, 0))
hIsland = hIsland.sub(rect(5.996961225993329e-09, -1.6333210886140068e-09).transl(-1.571715921229371e-08, -4e-08, 0))
hIsland = hIsland.sub(rect(5.496856166705984e-09, -1.6514975491747527e-09).transl(-7.855492028921811e-08, -3.7221879171038066e-08, 0))
hIsland = hIsland.sub(rect(7.898547552744114e-09, -4.027712731792041e-11).transl(-3.813031272429343e-09, -4e-08, 0))
hIsland = hIsland.sub(rect(9.051189098105356e-09, -2.146442949659564e-09).transl(-2.672392030367429e-08, -4e-08, 0))
hIsland = hIsland.add(rect(8.08259149154106e-09, 7.623296267146971e-10).transl(7.194754484404482e-08, -3.871676811945566e-08, 0))
hIsland = hIsland.sub(rect(5.422838653528292e-09, -2.024022119807403e-09).transl(-1.0226389602867597e-07, -2.5105658192239236e-08, 0))
hIsland = hIsland.add(rect(6.720879141423584e-09, 7.338036541689623e-10).transl(4.02067770358279e-08, -4e-08, 0))
hIsland = hIsland.sub(rect(8.278940038992928e-09, -1.2465382289600178e-09).transl(3.236110581281479e-08, -4e-08, 0))
hIsland = hIsland.sub(rect(3.657325778789536e-09, -1.0184189542247443e-09).transl(8.972393657814816e-08, -3.312844297676651e-08, 0))
hIsland = hIsland.sub(rect(5.95818752092075e-09, -1.959297883295463e-10).transl(-9.990897592768283e-08, -2.701181435687846e-08, 0))
hIsland = hIsland.sub(rect(4.760602484757432e-09, -1.866099871629159e-09).transl(9.784688716830746e-08, -2.8499492455001582e-08, 0))
hIsland = hIsland.sub(rect(3.3068785684191814e-09, -4.065585080084843e-10).transl(-7.09910977390372e-08, -3.8883411407485376e-08, 0))
hIsland = hIsland.sub(rect(9.992028887648374e-09, -2.408128879686715e-09).transl(4.9415387436239964e-08, -4e-08, 0))
hIsland = hIsland.sub(rect(4.743860065008775e-09, -1.4825679315599682e-09).transl(-4.009063696153751e-08, -4e-08, 0))
hIsland = hIsland.sub(rect(9.37053287668205e-09, -2.025647209343508e-09).transl(-9.700801125988139e-09, -4e-08, 0))
hIsland = hIsland.sub(rect(9.784799391279894e-09, -1.0268866239095577e-09).transl(5.965048566504127e-08, -3.997201538372264e-08, 0))
hIsland = hIsland.sub(rect(4.75934440408795e-09, -1.2931297984249166e-09).transl(9.75664938513548e-08, -2.8690285204218865e-08, 0))
hIsland = hIsland.sub(rect(2.146513638930757e-09, -4.768409128394507e-10).transl(-2.9779286086186764e-08, -4e-08, 0))
hIsland = hIsland.add(rect(3.435517118441353e-09, 1.003651925814295e-09).transl(-2.4174693894223576e-08, -4e-08, 0))
hIsland = hIsland.sub(rect(9.291316300746733e-09, -1.352500273223018e-09).transl(-1.0805198105467032e-07, -1.9060707221755555e-08, 0))
hIsland = hIsland.add(rect(5.8911036339012955e-09, 8.430506599841713e-10).transl(-3.9760483919645666e-08, -4e-08, 0))
hIsland = hIsland.add(rect(2.6228029563249085e-09, 6.25098590036826e-10).transl(3.032328496413766e-08, -4e-08, 0))
hIsland = hIsland.add(rect(3.912601761186706e-09, 2.5593244693329596e-09).transl(-1.7265916885824466e-08, -4e-08, 0))
hIsland = hIsland.sub(rect(8.747415086635048e-09, -4.410724264619714e-09).transl(-4.208182100343037e-08, -4e-08, 0))
hIsland = hIsland.sub(rect(6.642973619603422e-09, -8.073963827034132e-11).transl(-9.363262188773791e-08, -3.111582759958482e-08, 0))
hIsland = hIsland.sub(rect(3.5054697353504562e-09, -2.8163775462359053e-09).transl(-5.954979720744547e-08, -3.9974575399089604e-08, 0))
hIsland = hIsland.sub(rect(6.998132465202215e-09, -5.684149167799992e-10).transl(-1.0643458753716346e-07, -2.100427413959013e-08, 0))
hIsland = hIsland.sub(rect(6.332577869485189e-09, -3.4284293469763766e-09).transl(4.3261424693116243e-08, -4e-08, 0))
hIsland = hIsland.sub(rect(8.154433194165027e-09, -2.3965123212468784e-09).transl(-1.991736051380791e-08, -4e-08, 0))
hIsland = hIsland.sub(rect(8.362310421486253e-09, -3.2254745826955043e-09).transl(5.248223678591247e-08, -4e-08, 0))
hIsland = hIsland.sub(rect(9.41855324418413e-09, -2.5080156321455303e-09).transl(7.78157942310152e-08, -3.7420128859918345e-08, 0))
hIsland = hIsland.add(rect(4.113671578400451e-09, 9.659753214374088e-10).transl(-3.388087531465464e-08, -4e-08, 0))
hIsland = hIsland.sub(rect(2.0560292839563276e-09, -1.930042207100073e-09).transl(-2.3683825096451075e-09, -4e-08, 0))
hIsland = hIsland.add(rect(9.986336832865839e-09, 4.228434059462895e-09).transl(9.826530902186231e-08, -2.8209871462994268e-08, 0))
hIsland = hIsland.sub(rect(8.744777798843671e-09, -2.0257819107747142e-09).transl(3.213799957714577e-08, -4e-08, 0))
hIsland = hIsland.add(rect(3.5822263198231526e-09, 1.2022617164065016e-09).transl(-3.8485824237298174e-08, -4e-08, 0))
hIsland = hIsland.sub(rect(9.547296926189163e-09, -2.9794025956966916e-09).transl(-8.168224441051889e-08, -3.629057479301445e-08, 0))
hIsland = hIsland.sub(rect(9.8887318540109e-09, -3.485698012199611e-09).transl(-1.0711224075712544e-07, -2.022034317705135e-08, 0))
hIsland = hIsland.sub(rect(4.46714213709149e-09, -2.1030886026367916e-09).transl(-6.965885245982385e-08, -3.90954807785829e-08, 0))
hIsland = hIsland.sub(rect(7.462390111713334e-09, -2.617142213123308e-09).transl(4.8962366887060485e-08, -4e-08, 0))
hIsland = hIsland.sub(rect(7.747363157603792e-09, -9.346142827115892e-10).transl(-9.598108304257128e-08, -2.9721988431514423e-08, 0))
hIsland = hIsland.sub(rect(2.4719503376727606e-09, -2.828144442474336e-09).transl(-1.970359262070187e-08, -4e-08, 0))
hIsland = hIsland.add(rect(4.131802280642306e-09, 5.10783025703049e-10).transl(7.20584689450416e-08, -3.8696654881632974e-08, 0))
hIsland = hIsland.add(rect(8.335074697452549e-09, 1.5092856897591512e-09).transl(-6.67210171258112e-08, -3.948230796748409e-08, 0))
hIsland = hIsland.sub(rect(6.039649929756628e-09, -2.552223435625895e-09).transl(7.635231947035074e-08, -3.7788963616020765e-08, 0))
hIsland = hIsland.add(rect(9.944581863895424e-09, 2.1898267363199488e-09).transl(-5.7773260505981226e-08, -3.999954829957962e-08, 0))
hIsland = hIsland.add(rect(9.333469615013289e-09, 1.0672391711954961e-10).transl(-8.479818273127785e-08, -3.520480613052465e-08, 0))
hIsland = hIsland.sub(rect(3.45961001602697e-09, -3.4268673393547866e-09).transl(-7.947068821325258e-08, -3.6964857065522814e-08, 0))
hIsland = hIsland.add(rect(4.4580043499974596e-09, 1.0072554984847167e-09).transl(-7.569413557888924e-08, -3.794477128285115e-08, 0))
hIsland = hIsland.sub(rect(9.211625850376252e-09, -1.1172196921687312e-10).transl(9.611625414201927e-08, -2.9637027194350566e-08, 0))
hIsland = hIsland.add(rect(3.977917225004381e-09, 4.328493499114386e-10).transl(9.229952210765803e-08, -3.184266243452257e-08, 0))
hIsland = hIsland.add(rect(6.599892724859467e-09, 1.3662301980167741e-09).transl(-2.8793332964895145e-08, -4e-08, 0))
hIsland = hIsland.add(rect(5.304570892653335e-09, 2.284027469713699e-09).transl(-5.0348510382714055e-08, -4e-08, 0))
hIsland = hIsland.sub(rect(5.967585239834509e-09, -1.749705863858749e-10).transl(6.177231178732879e-08, -3.9889434196416406e-08, 0))
hIsland = hIsland.add(rect(9.219305636558784e-09, 1.1107882739111968e-09).transl(1.0496257147298012e-07, -2.2579827018417532e-08, 0))
hIsland = hIsland.sub(rect(4.0074786592004755e-09, -1.6879251808390916e-09).transl(8.163244946369446e-08, 3.630661201004733e-08, 0))
hIsland = hIsland.add(rect(7.510201839733128e-09, 1.0222053862243457e-09).transl(-5.965097999468294e-08, 3.9972002512155245e-08, 0))
hIsland = hIsland.sub(rect(9.680825664682683e-09, -3.512766172477691e-09).transl(8.395539417326436e-08, 3.551481233349564e-08, 0))
hIsland = hIsland.add(rect(3.725125851465892e-09, 2.5807395881244345e-09).transl(-9.170411227188406e-08, 3.215334678006703e-08, 0))
hIsland = hIsland.sub(rect(3.460717316051702e-09, -6.274381767871038e-10).transl(-9.465744676531383e-08, 3.0526166604740395e-08, 0))
hIsland = hIsland.sub(rect(6.831996831924665e-09, -3.331078431770423e-09).transl(-2.2640131578889615e-08, 4e-08, 0))
hIsland = hIsland.add(rect(4.707957280357691e-09, 1.1550246100465974e-09).transl(-1.2259661793819962e-08, 4e-08, 0))
hIsland = hIsland.sub(rect(6.151649106260571e-09, -1.4416797510056658e-09).transl(-8.759152202980473e-08, 3.40851839960067e-08, 0))
hIsland = hIsland.add(rect(8.633034901211654e-09, 2.221715698813235e-09).transl(8.861292595046802e-09, 4e-08, 0))
hIsland = hIsland.sub(rect(3.506262748204148e-09, -4.040373731424102e-09).transl(-9.180158929446908e-09, 4e-08, 0))
hIsland = hIsland.sub(rect(2.7808584568453797e-09, -3.762908283761249e-12).transl(-1.1355957134894341e-07, 8.897129143847544e-09, 0))
hIsland = hIsland.sub(rect(3.5724381930733744e-09, -3.333247170719463e-09).transl(9.714145720090494e-08, 2.8974600929159364e-08, 0))
hIsland = hIsland.sub(rect(6.619176298747864e-09, -1.6789548723075569e-09).transl(1.1272138391293503e-07, 1.1148870791235468e-08, 0))
hIsland = hIsland.sub(rect(7.204757108192481e-09, -8.930500396292479e-10).transl(-7.320461626006824e-08, 3.8479156147770536e-08, 0))
hIsland = hIsland.add(rect(8.128419160858119e-09, 1.9258373430982523e-09).transl(7.590152099260762e-08, 3.7896344308996674e-08, 0))
hIsland = hIsland.add(rect(9.096158491269044e-09, 3.1166419775982743e-10).transl(9.139803110388551e-09, 4e-08, 0))
hIsland = hIsland.add(rect(7.716911553031785e-09, 2.226833915286605e-09).transl(-1.7588380834809786e-08, 4e-08, 0))
hIsland = hIsland.add(rect(7.990123752071022e-09, 1.6272589638416935e-10).transl(-3.867654309503746e-08, 4e-08, 0))
hIsland = hIsland.sub(rect(4.862869032508283e-09, -1.0045323787113877e-10).transl(-1.1226180545086183e-07, 1.2196642905047112e-08, 0))
hIsland = hIsland.add(rect(3.457626557005128e-09, 2.2719563722401487e-10).transl(-2.0020164050787992e-08, 4e-08, 0))
hIsland = hIsland.add(rect(7.16133766259964e-09, 2.9960471420657114e-09).transl(-5.3411844314027716e-08, 4e-08, 0))
hIsland = hIsland.add(rect(6.199845893255245e-09, 1.111919256298058e-09).transl(9.639586673733162e-09, 4e-08, 0))
hIsland = hIsland.add(rect(8.016182730007359e-09, 3.828435545774106e-11).transl(1.2069828012282123e-08, 4e-08, 0))
hIsland = hIsland.sub(rect(2.6262703220976507e-09, -1.6308636243764876e-09).transl(-7.831789734699225e-08, 3.728634100757443e-08, 0))
hIsland = hIsland.add(rect(8.307416316687492e-09, 3.6858762655028202e-09).transl(-4.322847343290351e-08, 4e-08, 0))
hIsland = hIsland.sub(rect(6.7170343074602e-09, -2.202903598156656e-09).transl(-4.1427964911021794e-08, 4e-08, 0))
hIsland = hIsland.sub(rect(3.1022887625592504e-09, -3.5453057778051493e-09).transl(-1.095205698019794e-07, 1.7041495075068824e-08, 0))
[...]
hIsland = hIsland.sub(rect(8.547599056605966e-09, -2.520320753481753e-09).transl(-1.0316293110261112e-07, 2.4309502491344146e-08, 0))
hIsland = hIsland.add(rect(2.7440286627546524e-09, 6.287826714655815e-10).transl(7.053331933390775e-09, 4e-08, 0))
hIsland = hIsland.sub(rect(4.2827650288198086e-09, -2.5482184531862786e-10).transl(-5.06739632105669e-09, 4e-08, 0))
hIsland = hIsland.add(rect(7.139303787330481e-09, 1.315071887722143e-09).transl(-4.977965812544067e-08, 4e-08, 0))
hIsland = hIsland.add(rect(6.4831904696289334e-09, 2.9248137856750894e-10).transl(-4.3932595115088074e-08, 4e-08, 0))
hIsland = hIsland.add(rect(9.921449181242622e-09, 5.82313166062598e-10).transl(5.278559200438743e-08, 4e-08, 0))
hIsland = hIsland.add(rect(6.366143479718091e-09, 9.620781631295143e-10).transl(1.0356614638549908e-07, 2.3938523983560388e-08, 0))
hIsland = hIsland.add(rect(3.52959802983897e-09, 3.6715530784082575e-09).transl(4.687001989288452e-08, 4e-08, 0))
hIsland = hIsland.sub(rect(9.375769315134168e-09, -1.9177586236760054e-09).transl(1.0005758837864662e-07, 2.68984658095043e-08, 0))
hIsland = hIsland.sub(rect(5.377760678427283e-09, -9.618900945726359e-10).transl(1.661908567062795e-08, 4e-08, 0))
hIsland = hIsland.sub(rect(2.1314475150955037e-09, -2.5467262935105543e-09).transl(-3.24108327685105e-08, 4e-08, 0))
hIsland = hIsland.add(rect(8.270369638497375e-09, 1.4617796549474952e-09).transl(-1.1266845330720547e-07, 1.1274969390040296e-08, 0))
hIsland = hIsland.add(rect(7.889036565133335e-09, 1.8613007869171239e-09).transl(5.6034515956681626e-08, 4e-08, 0))
hIsland = hIsland.add(rect(9.1105589136399e-09, 1.1638681161692182e-09).transl(3.665971567954193e-08, 4e-08, 0))
hIsland = hIsland.add(rect(3.009155106119179e-09, 5.994150482358458e-10).transl(-8.413505817846445e-08, 3.544976639756106e-08, 0))
hIsland = hIsland.add(rect(6.045858367860114e-09, 5.282614053465273e-10).transl(5.239499238529775e-08, 4e-08, 0))
hIsland = hIsland.add(rect(2.1208691675890458e-09, 3.3638257681576263e-09).transl(9.356591595899004e-08, 3.115325629194619e-08, 0))
hIsland = hIsland.sub(rect(8.484349798672252e-09, -1.8665882975836583e-09).transl(3.40346351202318e-08, 4e-08, 0))
hIsland = hIsland.sub(rect(8.078271193137493e-09, -2.833449089171986e-10).transl(1.0425004535102631e-07, 2.32880748861767e-08, 0))
hIsland = hIsland.sub(rect(3.4526020287241554e-09, -2.1769364519752033e-09).transl(8.601892234850216e-08, 3.473332904240087e-08, 0))
hIsland = hIsland.sub(rect(9.967268597133406e-09, -1.7402507362491297e-09).transl(9.899511726255787e-08, 2.7690148326981078e-08, 0))
hIsland = hIsland.sub(rect(6.863208522724011e-09, -2.371846684532799e-09).transl(1.0163675450633547e-07, 2.56373725470967e-08, 0))
hIsland = hIsland.add(rect(3.939841879833241e-09, 1.7487675635431745e-10).transl(-7.377495867731766e-08, 3.836429165220991e-08, 0))
hIsland = hIsland.sub(rect(8.109669173638736e-09, -6.819052102267421e-10).transl(-2.7358522821576206e-08, 4e-08, 0))
hIsland = hIsland.sub(rect(5.955505755787562e-09, -1.3307666046572838e-09).transl(2.1148202642184134e-08, 4e-08, 0))
hIsland = hIsland.add(rect(3.8289119791834994e-09, 2.1356840526992126e-09).transl(1.1038877162721589e-07, 1.5695057555618294e-08, 0))
hIsland = hIsland.sub(rect(4.128432504650145e-09, -3.163754354391587e-10).transl(-6.920501249140069e-08, 3.916245372951302e-08, 0))
hIsland = hIsland.sub(rect(7.87955992131395e-09, -1.5490612064797716e-09).transl(5.364094963790109e-08, 4e-08, 0))
hIsland = hIsland.sub(rect(7.330590938615245e-09, -2.1573764886569037e-09).transl(9.575268257651194e-09, 4e-08, 0))
hIsland = hIsland.add(rect(2.1280140213584354e-09, 9.582465355234358e-10).transl(2.5479100366812202e-08, 4e-08, 0))
hIsland = hIsland.add(rect(8.640951179084145e-09, 2.530996872941918e-09).transl(1.0231759998585736e-07, 2.5059248479158352e-08, 0))
hIsland = hIsland.add(rect(3.832135570423959e-09, 3.779567986217098e-09).transl(-8.999996421073646e-08, 3.2997696990527566e-08, 0))
hIsland = hIsland.add(rect(4.514642871067851e-09, 1.0325470177466768e-09).transl(9.948944656975894e-08, 2.7327147516755535e-08, 0))
hIsland = hIsland.add(rect(4.980380485217523e-09, 1.4094953471253064e-09).transl(6.948672285062155e-08, 3.9121195278200616e-08, 0))
hIsland = hIsland.add(rect(9.76884586335055e-09, 2.583063334043667e-09).transl(-1.397513194219967e-08, 4e-08, 0))
hIsland = hIsland.sub(rect(5.6936882153503565e-09, -1.0297098479543973e-09).transl(-1.7659073628264096e-08, 4e-08, 0))
hIsland = hIsland.sub(rect(8.388435728109393e-09, -3.70794995964284e-10).transl(7.0936222182282475e-09, 4e-08, 0))
hIsland = hIsland.add(rect(5.211252144659445e-09, 2.455777446900641e-10).transl(-5.2565474469235785e-08, 4e-08, 0))
hIsland = hIsland.sub(rect(4.080264981904862e-09, -9.31812132701176e-10).transl(-1.0304954923650146e-07, 2.441222355175794e-08, 0))
hIsland = hIsland.add(rect(7.489686075903521e-09, 9.68376292452803e-10).transl(-4.167115171638826e-08, 4e-08, 0))
hIsland = hIsland.add(rect(5.349040881007138e-09, 1.109464422755034e-09).transl(6.156186552339446e-08, 3.990007176745169e-08, 0))
hIsland = hIsland.add(rect(9.67724483045953e-09, 1.0235908585332707e-09).transl(2.7134658524340514e-08, 4e-08, 0))
hIsland = hIsland.add(rect(9.039875624653022e-09, 2.5075025905881718e-09).transl(-4.110967260790099e-08, 4e-08, 0))
hIsland = hIsland.add(rect(3.3924153836527202e-09, 3.054268347283748e-09).transl(8.969418601645054e-09, 4e-08, 0))
hIsland = hIsland.sub(rect(8.51962282812465e-09, -4.192147254955279e-10).transl(-4.61600792804895e-08, 4e-08, 0))
hIsland = hIsland.add(rect(5.0991846634695965e-09, 1.6342995726220862e-09).transl(-9.881213906639182e-08, 2.7822235957512174e-08, 0))
hIsland = hIsland.sub(rect(2.378647320716638e-09, -2.390041131680381e-09).transl(1.0708322173698427e-07, 2.0254760008048644e-08, 0))
hIsland = hIsland.add(rect(5.86183455332516e-09, 2.1747735772330537e-09).transl(-1.054822201970262e-07, 2.2041929261706794e-08, 0))
hIsland = hIsland.add(rect(4.680867250408466e-09, 1.351623074338819e-09).transl(1.0930953349997212e-08, 4e-08, 0))
hIsland = hIsland.sub(rect(3.910196955425775e-09, -1.064804629423031e-09).transl(-5.693611815557195e-08, 4e-08, 0))
hIsland = hIsland.add(rect(4.322549661019117e-09, 8.28295387834329e-10).transl(-1.5093950988997065e-09, 4e-08, 0))
hIsland = hIsland.sub(rect(2.2319982908951056e-09, -1.629741794773212e-09).transl(-1.0562784114329315e-07, 2.188775249294545e-08, 0))
hIsland = hIsland.add(rect(9.66978744684693e-09, 9.262856575886744e-10).transl(1.6412319526303916e-08, 4e-08, 0))
hIsland = hIsland.sub(rect(9.779390558932916e-09, -1.733800658503251e-10).transl(-4.3373970299454693e-08, 4e-08, 0))
hIsland = hIsland.sub(rect(6.421829909330074e-09, -1.1304683399946984e-09).transl(-3.604640429699332e-08, 4e-08, 0))
hIsland = hIsland.add(rect(5.160950033281045e-09, 1.1189036226885024e-09).transl(-1.7964653833526717e-08, 4e-08, 0))
hIsland = hIsland.sub(rect(5.530372165655416e-09, -4.484282485436438e-10).transl(-9.543781728271543e-08, 3.005806721461302e-08, 0))
hIsland = hIsland.add(rect(2.720258208587616e-09, 6.473908314864747e-10).transl(4.5679592649318436e-09, 4e-08, 0))
hIsland = hIsland.add(rect(2.0331233333543202e-09, 3.037000983236332e-10).transl(9.121119500389723e-08, 3.24042916724252e-08, 0))
hIsland = hIsland.add(rect(6.6393783208414125e-09, 1.152671657403907e-09).transl(8.570447459981234e-08, 3.4857363928749656e-08, 0))
hIsland = hIsland.sub(rect(2.6646559360251977e-09, -1.5807809999272152e-09).transl(-9.46093759121544e-08, 3.055445169329681e-08, 0))
hIsland = hIsland.sub(rect(2.0604601494805854e-09, -2.2580376364170647e-09).transl(-1.1450745773500966e-07, 5.224332198950211e-09, 0))
hIsland = hIsland.add(rect(2.8580406960810408e-09, 2.390158495575079e-10).transl(-4.3787583852744534e-08, 4e-08, 0))
hIsland = hIsland.sub(rect(4.287644481833856e-09, -4.912677544696865e-10).transl(-8.290362591906858e-08, 3.58844997178972e-08, 0))
hIsland = hIsland.add(rect(7.969793525647134e-09, 1.055136395275098e-09).transl(3.122402659659424e-08, 4e-08, 0))
hIsland = hIsland.sub(rect(5.025948868799946e-09, -1.2061460022945978e-09).transl(1.2636492869364487e-08, 4e-08, 0))
hIsland = hIsland.sub(rect(5.342420431889394e-09, -1.2023047790178333e-09).transl(-3.09983955639858e-08, 4e-08, 0))
hIsland = hIsland.add(rect(4.955075387027246e-09, 3.261683982569827e-09).transl(3.058056401795827e-08, 4e-08, 0))
hIsland = hIsland.add(rect(7.09136898607104e-09, 6.300546155524742e-10).transl(-9.304626812187087e-08, 3.144096044254153e-08, 0))
hIsland = hIsland.sub(rect(9.624061151722466e-09, -3.059775583054215e-09).transl(1.0169532195314813e-07, 2.5588499472119734e-08, 0))
hIsland = hIsland.add(rect(4.492933545352713e-09, 3.726027324075886e-10).transl(1.950510012981183e-08, 4e-08, 0))
hIsland = hIsland.sub(rect(9.88045405852607e-09, -3.1619700415693256e-09).transl(2.7449100959927975e-08, 4e-08, 0))
hIsland = hIsland.add(rect(9.828518018835187e-09, 1.3232692488972602e-10).transl(-7.773540279450073e-08, 3.7441202531828266e-08, 0))
hIsland = hIsland.add(rect(8.3304258042552e-09, 2.5636908609861684e-09).transl(-9.492038689269556e-08, 3.03703339067092e-08, 0))
hIsland = hIsland.add(rect(5.742175275100946e-09, 4.362932180131316e-11).transl(-8.075755155027024e-08, 3.6581888660531863e-08, 0))
hIsland = hIsland.add(rect(4.1743808818975854e-09, 1.3737264663168786e-09).transl(-2.6090664366561717e-08, 4e-08, 0))
hIsland = hIsland.add(rect(7.878067716557138e-09, 2.1453740892150038e-09).transl(2.9718816387251205e-08, 4e-08, 0))
hIsland = hIsland.sub(rect(8.510740199285704e-09, -2.3181180187535332e-09).transl(-9.780858742053334e-08, 2.852570729690669e-08, 0))
hIsland = hIsland.add(rect(3.861913294349606e-09, 1.6541143730210468e-09).transl(1.8762011754278743e-08, 4e-08, 0))
hIsland = hIsland.add(rect(4.351653750398883e-09, 1.2958933894363442e-09).transl(-1.546940171839472e-08, 4e-08, 0))
hIsland = hIsland.add(rect(7.930413271594934e-09, 8.57025175635715e-10).transl(1.0319113202021184e-08, 4e-08, 0))
hIsland = hIsland.add(rect(3.399401077974042e-09, 3.777089385678811e-09).transl(1.0717458942190454e-07, 2.014612978334639e-08, 0))
hIsland = hIsland.add(rect(9.697598943584786e-09, 1.986131369492531e-09).transl(-1.2407806320678335e-08, 4e-08, 0))
hIsland = hIsland.add(rect(8.886253879441758e-09, 1.6483503953348491e-09).transl(4.2135438243884715e-08, 4e-08, 0))
hIsland = hIsland.add(rect(3.121299154292734e-09, 1.8639385581209255e-09).transl(4.65067125322147e-08, 4e-08, 0))
hIsland = hIsland.sub(rect(5.124751603009066e-09, -2.018514424323212e-09).transl(1.144653521910721e-07, 5.442056755508412e-09, 0))
hIsland = hIsland.sub(rect(6.6836201571022225e-09, -2.1398973320852077e-11).transl(1.0016730584345301e-07, 2.6814219737444077e-08, 0))
hIsland = hIsland.sub(rect(9.698490130453522e-09, -3.58302026638939e-10).transl(2.4056547916326025e-08, 4e-08, 0))
hIsland = hIsland.sub(rect(7.1599524131383585e-09, -4.23380387239902e-09).transl(-2.891344933992118e-08, 4e-08, 0))
hIsland = hIsland.add(rect(4.363127346821715e-09, 8.079553943087355e-10).transl(-5.272760954304589e-08, 4e-08, 0))
hIsland = hIsland.add(rect(5.819746666003082e-09, 6.495743723891483e-10).transl(8.23229192279013e-08, 3.608063345173495e-08, 0))
hIsland = hIsland.add(rect(9.56542304884815e-09, 1.6596873786143716e-09).transl(9.37732013057188e-08, 3.103657352151409e-08, 0))
hIsland = hIsland.sub(rect(9.983749862376858e-09, -1.1572739960769825e-09).transl(7.458067314897007e-08, 3.819441251169816e-08, 0))
hIsland = hIsland.sub(rect(3.6497360174746448e-09, -1.469013758724926e-09).transl(-1.0352501096384054e-08, 4e-08, 0))
hIsland = hIsland.sub(rect(9.093205652408984e-09, -2.0411740889113064e-09).transl(5.93255526717858e-08, 3.997983526477164e-08, 0))
hIsland = hIsland.sub(rect(4.16173312844027e-09, -1.2655292768990008e-09).transl(-6.81575907755687e-08, 3.9306907243242964e-08, 0))
hIsland = hIsland.sub(rect(8.281523287989977e-09, -7.296944608804408e-10).transl(-2.8614757107059433e-08, 4e-08, 0))
hIsland = hIsland.add(rect(9.224696469117082e-09, 2.197884353614852e-09).transl(2.7964041587728886e-09, 4e-08, 0))
hIsland = hIsland.sub(rect(6.21325629880694e-09, -2.473983942250981e-10).transl(7.422446528525715e-08, 3.827062175112344e-08, 0))
hIsland = hIsland.add(rect(4.466208712187189e-09, 3.099210648914922e-09).transl(-3.379926607190428e-08, 4e-08, 0))
hIsland = hIsland.add(rect(5.1756882890146976e-09, 6.29345733694097e-10).transl(-1.5455230084390477e-08, 4e-08, 0))
hIsland = hIsland.add(rect(5.186352687252245e-09, 8.849286492673104e-10).transl(-9.513876799597924e-08, 3.0239457842089677e-08, 0))
hIsland = hIsland.sub(rect(2.3855980619145854e-09, -1.278397117579741e-09).transl(6.455473740063643e-08, 3.969779636414017e-08, 0))
hIsland = hIsland.sub(rect(2.9460015272591866e-09, -1.4681351267992981e-09).transl(-8.250935848352983e-08, 3.6018273795951517e-08, 0))
hIsland = hIsland.add(rect(9.14799656473436e-09, 4.289269890359094e-09).transl(3.463751027714507e-08, 4e-08, 0))
hIsland = hIsland.sub(rect(7.470069016094288e-09, -8.658969724998423e-10).transl(1.0033419728956957e-08, 4e-08, 0))
hIsland = hIsland.add(rect(5.962270583903473e-09, 2.634483651495137e-09).transl(-1.0328511175852432e-07, 2.4198034046690538e-08, 0))
hIsland = hIsland.add(rect(9.056380279331694e-09, 2.6251188712914273e-09).transl(-2.3183176425101477e-08, 4e-08, 0))
hIsland = hIsland.sub(rect(5.084097770182577e-09, -1.8267733425954544e-09).transl(9.278258333288478e-08, 3.158436550071143e-08, 0))
hIsland = hIsland.sub(rect(2.6341375184002297e-09, -2.7438985218778497e-09).transl(9.088425726586915e-09, 4e-08, 0))
hIsland = hIsland.sub(rect(7.713975226775131e-09, -4.571341380137916e-09).transl(1.8569509471226722e-08, 4e-08, 0))
hIsland = hIsland.add(rect(4.1346154068486346e-09, 2.530649601764671e-09).transl(-1.0522647339134591e-07, 2.230901031156153e-08, 0))
hIsland = hIsland.add(rect(3.437962796195417e-09, 4.598744433751974e-09).transl(6.011572089679015e-08, 3.995859031104411e-08, 0))
hIsland = hIsland.add(rect(4.128899903035941e-09, 4.810927946423042e-10).transl(-3.8762339472323186e-08, 4e-08, 0))
hIsland = hIsland.add(rect(8.456168088868272e-09, 1.135484886448533e-09).transl(-8.919825986638796e-08, 3.3372968309390305e-08, 0))
hIsland = hIsland.add(rect(6.107216280007187e-09, 7.371847337307709e-10).transl(2.286569401154579e-08, 4e-08, 0))
hIsland = hIsland.add(rect(9.524454921771562e-09, 5.25449442352819e-10).transl(9.796042390125715e-08, 2.842149167570005e-08, 0))
hIsland = hIsland.sub(rect(4.3741045119500204e-09, -1.2966267917750482e-09).transl(3.2119367007043164e-08, 4e-08, 0))
hIsland = hIsland.sub(rect(3.067514411683897e-09, -1.779742497056109e-09).transl(-8.109427068346834e-09, 4e-08, 0))
hIsland = hIsland.sub(rect(2.2336077369759186e-09, -2.2933680813153744e-09).transl(-1.0046840591515046e-07, 2.6580523585799405e-08, 0))
hIsland = hIsland.add(rect(2.4779402571523432e-09, 5.198857795194356e-10).transl(3.4604203836745526e-09, 4e-08, 0))
hIsland = hIsland.sub(rect(5.9315464038140495e-09, -5.273551294563912e-11).transl(-1.0185874618729016e-07, 2.5451284835894072e-08, 0))
hIsland = hIsland.add(rect(9.219371978145987e-09, 6.495523465254907e-10).transl(-4.134565282430672e-08, 4e-08, 0))
hIsland = hIsland.sub(rect(9.325038678230595e-09, -4.1358406760197576e-10).transl(8.993504512754479e-08, 3.3028594158643316e-08, 0))
hIsland = hIsland.sub(rect(6.180951791444843e-09, -2.723460307950225e-09).transl(-5.0349438719362103e-08, 4e-08, 0))
hIsland = hIsland.sub(rect(8.275394524501806e-09, -3.882687341367427e-09).transl(6.510934695063931e-09, 4e-08, 0))
hIsland = hIsland.add(rect(2.163286114410543e-09, 1.0619001422283675e-09).transl(4.9164026383934245e-08, 4e-08, 0))
hIsland = hIsland.sub(rect(6.9574613607284e-09, -1.8013650563255852e-09).transl(3.9693552065541266e-08, 4e-08, 0))
hIsland = hIsland.add(rect(5.372011413034153e-09, 2.7713323696272856e-10).transl(3.2476063664088014e-08, 4e-08, 0))
hIsland = hIsland.add(rect(5.185644734539109e-09, 1.154178585272581e-09).transl(9.119654148465115e-08, 3.241166653667419e-08, 0))
hIsland = hIsland.add(rect(7.0950725815468024e-09, 1.2389075149727612e-09).transl(3.2136140653070524e-08, 4e-08, 0))
hIsland = hIsland.sub(rect(2.676257470959682e-09, -1.0322783330576728e-09).transl(-6.30123316234521e-08, 3.981576748824632e-08, 0))
hIsland = hIsland.add(rect(9.43877783016961e-09, 9.976313421775684e-10).transl(5.056860679669109e-08, 4e-08, 0))
hIsland = hIsland.add(rect(6.132937894127955e-09, 2.9888984121205793e-10).transl(-7.45784400456766e-08, 3.819489575641579e-08, 0))
hIsland = hIsland.sub(rect(9.637360351088415e-09, -1.942026980919685e-09).transl(3.9627873429779864e-08, 4e-08, 0))
hIsland = hIsland.sub(rect(8.483284187232916e-09, -4.11985812528082e-09).transl(5.62069633060583e-08, 4e-08, 0))
hIsland = hIsland.sub(rect(3.5651728925457863e-09, -3.1909562476390528e-09).transl(-8.089640107147866e-08, 3.653901648076935e-08, 0))
hIsland = hIsland.sub(rect(7.195204745768344e-09, -2.9331259101878787e-09).transl(5.809371504838328e-08, 3.999786763278878e-08, 0))
hIsland = hIsland.add(rect(8.199221613214964e-09, 2.277714433920747e-09).transl(-1.0612721270003552e-07, 2.134693663986668e-08, 0))
hIsland = hIsland.sub(rect(8.386298731977622e-09, -3.078968329458793e-10).transl(7.018710822811726e-08, 3.901416409243558e-08, 0))
hIsland = hIsland.sub(rect(2.029866953703157e-09, -8.570039359616013e-10).transl(-3.880218111584253e-08, 4e-08, 0))
hIsland = hIsland.add(rect(3.861193148156398e-09, 4.962247406941145e-09).transl(-9.699176119396796e-08, 2.9073357587832024e-08, 0))
hIsland = hIsland.add(rect(7.538927875804736e-09, 9.903906455914318e-11).transl(-9.594212450393054e-08, 2.9746375429717692e-08, 0))
hIsland = hIsland.add(rect(4.55948560299995e-09, 5.0826899209118574e-09).transl(9.976976267416645e-08, 2.7117206705781167e-08, 0))
hIsland = hIsland.add(rect(5.401105597275157e-09, 3.954461385880473e-10).transl(-6.028776961595651e-08, 3.995296041245601e-08, 0))
hIsland = hIsland.add(rect(5.728423523871354e-09, 1.866551696014448e-09).transl(5.5583700625225724e-08, 4e-08, 0))
hIsland = hIsland.add(rect(7.116955813406139e-09, 5.733806651011745e-10).transl(9.895296677209582e-08, 2.7720683375599948e-08, 0))
hIsland = hIsland.sub(rect(3.914905016896068e-09, -1.8340645351407593e-09).transl(-2.8979944062705923e-08, 4e-08, 0))
hIsland = hIsland.sub(rect(5.320770412465945e-09, -2.9625787358249764e-09).transl(3.261479357982806e-08, 4e-08, 0))
hIsland = hIsland.sub(rect(9.164864008248421e-09, -1.0405210136839738e-09).transl(-1.0490162903654105e-07, 2.2641694336269764e-08, 0))
hIsland = hIsland.add(rect(7.2768006680138775e-09, 1.6141814805281475e-09).transl(9.366313900654067e-08, 3.109866634311737e-08, 0))
hIsland = hIsland.add(rect(3.1201939050882884e-09, 2.6004363905005543e-09).transl(4.1658355453858205e-08, 4e-08, 0))
hIsland = hIsland.add(rect(8.283637303850731e-09, 9.047754687442216e-10).transl(-4.777666618210315e-08, 4e-08, 0))
hIsland = hIsland.add(rect(5.160059299824739e-09, 1.7692237260800753e-09).transl(-5.205860223485103e-08, 4e-08, 0))
hIsland = hIsland.add(rect(9.36065128784951e-09, 2.1546652580158687e-09).transl(-7.930852110622423e-08, 3.701130038012172e-08, 0))
vIsland = hIsland.rotz(pi / 2)
vIslands = vIslands.add(vIsland.transl(0, -a/2, 0))
DefRegion(1, hIslands)
DefRegion(2, vIslands)
TableAdd(m_full.Region(1))
TableAdd(m_full.Region(2))
setgeom(hIslands.add(vIslands))
save(m)
r2o2 := sqrt(2) / 2
m = RandomMagSeed(4)
B_ext = vector(Bmax*r2o2, Bmax*r2o2, 0)
relax()
minimize()
for B := Bmax; B >= -Bmax; B -= Bstep {
	B_ext = vector(B*r2o2, B*r2o2, 0)
	minimize()
	tablesave()
}
//********************************************************************//
//Please cite the following references, relevant for your simulation. //
//See bibtex file in output folder for justification.                 //
//********************************************************************//
//   * Vansteenkiste et al., AIP Adv. 4, 107133 (2014).
//   * Exl et al., J. Appl. Phys. 115, 17D118 (2014).
