# t (s)	mx ()	my ()	mz ()	B_extx (T)	B_exty (T)	B_extz (T)	m_fullx (A/m)	m_fully (A/m)	m_fullz (A/m)	m_full.region1x (A/m)	m_full.region1y (A/m)	m_full.region1z (A/m)	m_full.region2x (A/m)	m_full.region2y (A/m)	m_full.region2z (A/m)
0	0.6483277	0.6483237	-3.5950354e-10	0.07071067	0.07071067	0	158932.89	158931.95	-9.2793365e-05	644431.7	263223.7	-0.0002667905	263227.16	644429.56	-0.0002440268
0	0.6482315	0.6482293	-1.5109569e-10	0.07056918	0.07056919	0	158909.33	158908.78	-3.8584185e-05	644517.7	263004.44	-0.0001620775	263006.34	644516.56	-1.8210956e-05
0	0.64813274	0.6481308	-1.1288759e-10	0.07042789	0.07042789	0	158885.11	158884.62	-2.7104592e-05	644608.44	262775.66	-7.1022725e-05	262777.38	644607.4	-6.920163e-05
0	0.6480335	0.6480315	-2.9524445e-11	0.070286386	0.070286386	0	158860.77	158860.28	-8.290816e-06	644699.3	262545.78	3.733246e-05	262547.5	644698.25	-7.6486016e-05
0	0.6479342	0.64793223	-9.899373e-11	0.07014502	0.07014502	0	158836.45	158835.94	-2.2640306e-05	644790	262316.12	-0.00010835518	262317.84	644788.94	-3.6421911e-06
0	0.6478348	0.64783275	-3.3866276e-10	0.07000352	0.07000352	0	158812.06	158811.58	-8.067602e-05	644880.5	262086.39	-0.00018575175	262088.14	644879.5	-0.00028044873
0	0.6477341	0.647732	-4.498136e-10	0.06986222	0.06986222	0	158787.38	158786.89	-0.00010395408	644972.1	261853.81	-0.00028864364	261855.56	644971.1	-0.000324155
0	0.6476344	0.6476325	-1.0073046e-10	0.069720745	0.069720745	0	158762.95	158762.47	-2.1683674e-05	645062.9	261623.53	2.7316435e-06	261625.25	645061.9	-0.00015297203
0	0.6475338	0.64753187	-5.05389e-10	0.06957926	0.06957926	0	158738.28	158737.8	-0.00012149235	645154.4	261391.25	-0.0004097465	261393	645153.3	-0.00030958623
0	0.64743286	0.64743084	-1.5283243e-10	0.06943794	0.06943794	0	158713.55	158713.05	-4.4961736e-05	645245.94	261158.38	-0.00013020834	261160.1	645244.8	-0.00010562354
0	0.6473324	0.6473304	3.3866274e-11	0.0692964	0.0692964	0	158688.92	158688.42	7.3341835e-06	645336.6	260926.95	5.8275058e-05	260928.72	645335.6	-7.2843823e-06
0	0.6472313	0.64722925	-3.5603007e-10	0.0691551	0.069155104	0	158664.12	158663.62	-9.247449e-05	645428.1	260693.95	-0.00018757285	260695.72	645427	-0.00035693473
0	0.6471296	0.64712757	-2.8482405e-10	0.0690136	0.0690136	0	158639.2	158638.7	-7.653061e-05	645519.56	260460.19	-0.00026223777	260461.95	645518.5	-0.00016025642
0	0.6470281	0.64702606	1.2157124e-11	0.068872124	0.068872124	0	158614.31	158613.81	-6.377551e-07	645610.9	260226.66	-9.105478e-06	260228.45	645609.8	0
0	0.646926	0.646924	-2.2577516e-11	0.06873082	0.06873082	0	158589.3	158588.8	-8.290816e-06	645702.56	259992.14	-8.19493e-06	259993.92	645701.44	-1.0926574e-05
0	0.6468234	0.6468214	-2.483527e-10	0.06858932	0.06858932	0	158564.14	158563.62	-6.0586735e-05	645794.8	259756.28	-0.00018028847	259758.03	645793.7	-0.00017118298
0	0.6467211	0.6467191	-2.0319765e-10	0.068447955	0.068447955	0	158539.06	158538.58	-5.3252552e-05	645886.3	259521.52	-4.5527388e-05	259523.28	645885.25	-0.00022581585
0	0.6466194	0.64661723	-2.7266694e-10	0.06830648	0.06830648	0	158514.11	158513.61	-7.1109695e-05	645977.5	259287.72	-0.00021853147	259289.52	645976.44	-0.00018939393
0	0.64651644	0.6465143	-4.3070955e-10	0.06816515	0.06816515	0	158488.88	158488.36	-0.00011065051	646069.44	259051.66	-0.00027862762	259053.44	646068.4	-0.0003350816
0	0.6464137	0.6464117	-1.6325281e-10	0.068023674	0.068023674	0	158463.7	158463.19	-3.603316e-05	646160.94	258816.45	-9.833916e-05	258818.23	646159.9	-0.000116550116
0	0.64631003	0.64630795	-2.1535478e-10	0.06788219	0.06788219	0	158438.28	158437.78	-4.9744896e-05	646253	258579.16	-0.0001638986	258580.92	646252.06	-0.00010562354
0	0.64620656	0.64620453	-1.5804262e-10	0.06774088	0.06774088	0	158412.94	158412.44	-3.5714285e-05	646345.06	258342.38	-0.00014477709	258344.19	646344	-8.37704e-05
0	0.6461028	0.6461007	-2.91771e-10	0.067599334	0.067599334	0	158387.47	158386.97	-7.429847e-05	646437.3	258104.84	-0.00022854749	258106.6	646436.2	-0.00017846737
0	0.6459984	0.64599633	4.8628497e-11	0.06745803	0.06745803	0	158361.89	158361.39	1.3392857e-05	646529.4	257866.69	-3.0958625e-05	257868.5	646528.2	9.469697e-05
0	0.6458944	0.6458923	-1.4935896e-10	0.06731653	0.06731653	0	158336.4	158335.89	-3.3163265e-05	646621.25	257629.16	-0.00012292396	257630.94	646620.2	-0.000112907925
0	0.6457891	0.645787	-1.2851817e-10	0.06717506	0.06717506	0	158310.6	158310.08	-3.0612246e-05	646713.94	257389.05	-5.8275058e-05	257390.88	646712.8	-0.0001238345
0	0.6456854	0.64568335	-1.8235687e-10	0.06703376	0.06703376	0	158285.16	158284.66	-4.177296e-05	646805.6	257152	-0.00010744464	257153.81	646804.6	-0.00013840327
0	0.64558035	0.6455783	-4.1507897e-10	0.066892266	0.066892266	0	158259.45	158258.92	-0.000108737244	646897.94	256912.89	-0.00022672639	256914.73	646896.8	-0.000324155
0	0.64547527	0.6454731	-4.8628496e-10	0.066750884	0.066750884	0	158233.64	158233.12	-0.00011607143	646990.1	256673.33	-0.00018028847	256675.14	646989.1	-0.0004880536
0	0.64536893	0.6453668	-1.1462432e-10	0.06660941	0.06660941	0	158207.58	158207.08	-2.9336734e-05	647083.25	256431.38	-7.1022725e-05	256433.2	647082.2	-0.00010562354
0	0.64526373	0.6452617	-2.6224653e-10	0.06646809	0.06646809	0	158181.8	158181.3	-6.792092e-05	647175.4	256192.03	-0.00020942598	256193.81	647174.3	-0.00017482518
0	0.6451577	0.6451556	-2.8221897e-10	0.06632662	0.06632662	0	158155.78	158155.28	-6.441327e-05	647268.06	255950.86	-0.00020032052	255952.66	647267	-0.00019667832
0	0.6450515	0.64504933	5.3838694e-11	0.06618514	0.06618514	0	158129.77	158129.27	9.885204e-06	647360.3	255709.92	8.285985e-05	255711.75	647359.2	0
0	0.64494526	0.6449432	-4.5676055e-10	0.066043824	0.066043824	0	158103.73	158103.23	-0.00011543367	647453	255468.67	-0.00036239802	255470.48	647451.9	-0.00026952213
0	0.64483833	0.64483625	-1.9625072e-10	0.06590227	0.06590227	0	158077.5	158076.98	-4.655612e-05	647545.9	255225.97	-9.2875875e-05	255227.83	647544.75	-0.00015661422
0	0.64473134	0.6447293	-1.484906e-10	0.06576097	0.06576097	0	158051.28	158050.77	-3.6670917e-05	647638.56	254983.4	-9.833916e-05	254985.22	647637.5	-0.00010926573
0	0.6446237	0.64462155	-2.0493439e-10	0.065619476	0.065619476	0	158024.89	158024.38	-4.9744896e-05	647731.75	254739.52	-0.00019576777	254741.33	647730.7	-9.1054775e-05
0	0.644517	0.644515	-3.5342498e-10	0.06547817	0.06547816	0	157998.75	157998.23	-9.024235e-05	647823.94	254498.11	-0.0003314394	254499.92	647822.9	-0.00014204545
0	0.6444088	0.6444067	-2.1882825e-10	0.0653367	0.0653367	0	157972.22	157971.7	-5.5484696e-05	647917.25	254253.17	-0.0001256556	254255.02	647916.2	-0.00017482518
0	0.6443011	0.64429903	-2.6398328e-10	0.06519521	0.06519521	0	157945.83	157945.3	-6.0586735e-05	648010.06	254009.64	-0.0001220134	254011.5	648008.94	-0.00021488928
0	0.6441927	0.6441906	-8.336314e-11	0.0650539	0.0650539	0	157919.22	157918.7	-1.6581633e-05	648103.25	253764.62	-0.0001238345	253766.5	648102.1	0
0	0.6440837	0.64408153	-2.1882825e-10	0.06491236	0.06491236	0	157892.52	157891.98	-5.229592e-05	648196.56	253518.77	-0.00013111888	253520.62	648195.44	-0.00017118298
0	0.6439754	0.64397323	-5.071258e-10	0.06477103	0.06477103	0	157865.95	157865.44	-0.000125	648289.6	253274.02	-0.00046255827	253275.88	648288.5	-0.0002513112
0	0.6438664	0.6438644	-4.3244627e-10	0.06462956	0.06462956	0	157839.28	157838.75	-0.000104910716	648382.7	253028.55	-0.0002704327	253030.45	648381.5	-0.00034236597
0	0.64375716	0.64375514	-5.210196e-11	0.06448809	0.06448809	0	157812.5	157811.97	-1.1798469e-05	648475.9	252782.39	-0.00013293998	252784.31	648474.75	0.00010198135
0	0.6436468	0.6436447	-4.5328707e-10	0.06434675	0.06434676	0	157785.42	157784.9	-0.00011352041	648569.6	252534.03	-0.0003277972	252535.89	648568.56	-0.0003350816
0	0.64353794	0.6435358	-2.2577516e-11	0.06420529	0.06420529	0	157758.75	157758.22	-2.2321428e-06	648662.44	252288.75	4.461684e-05	252290.62	648661.4	-2.1853148e-05
0	0.64342815	0.64342594	-2.483527e-10	0.06406391	0.06406391	0	157731.81	157731.28	-6.186224e-05	648755.75	252041.61	-0.00017118298	252043.55	648754.75	-0.0001675408
0	0.64331746	0.6433154	-2.3098537e-10	0.06392241	0.06392241	0	157704.69	157704.16	-5.4209184e-05	648849.2	251793.42	-0.00011563957	251795.3	648848.1	-0.00019667832
0	0.6432063	0.64320415	-3.5776682e-10	0.063781105	0.063781105	0	157677.4	157676.88	-8.0357146e-05	648943.44	251543.42	-0.00023310023	251545.3	648942.3	-0.00023310023
0	0.64309615	0.64309394	-3.8208106e-10	0.06363964	0.06363964	0	157650.44	157649.92	-8.7691325e-05	649036.5	251296.28	-0.00019576777	251298.14	649035.44	-0.00032051283
0	0.6429844	0.6429823	-1.2504471e-10	0.06349814	0.06349814	0	157623.03	157622.48	-3.0293368e-05	649130.7	251045.6	-0.00014022437	251047.47	649129.56	-2.1853148e-05
0	0.6428737	0.64287156	-2.6572e-10	0.06335683	0.06335683	0	157595.89	157595.36	-5.994898e-05	649224.06	250797.2	-8.285985e-05	250799.11	649222.9	-0.00027680653
0	0.64276177	0.64275956	-4.689177e-10	0.06321529	0.06321529	0	157568.45	157567.92	-0.00011447704	649318.1	250546.45	-0.00035693473	250548.36	649316.94	-0.00031322843
0	0.6426502	0.642648	-2.987179e-10	0.06307396	0.06307396	0	157541.11	157540.56	-7.015306e-05	649411.44	250296.88	-0.00012929778	250298.78	649410.4	-0.0002840909
0	0.64253736	0.6425352	-2.709302e-10	0.06293249	0.06293249	0	157513.45	157512.92	-6.792092e-05	649505.75	250044.64	-0.00016025642	250046.53	649504.7	-0.00022945805
0	0.64242554	0.6424234	-1.1809778e-10	0.06279103	0.06279103	0	157486.03	157485.5	-2.742347e-05	649599.3	249794.53	-5.8275058e-05	249796.47	649598.2	-9.1054775e-05
0	0.64231294	0.6423108	-1.09414124e-10	0.06264969	0.06264969	0	157458.42	157457.9	-2.4553572e-05	649693.3	249542.84	-0.00017118298	249544.75	649692.25	1.0926574e-05
0	0.64219946	0.6421973	-1.1896614e-10	0.062508225	0.062508225	0	157430.62	157430.08	-2.997449e-05	649787.6	249289.73	-6.555944e-05	249291.66	649786.56	-0.00010562354
0	0.64208657	0.6420844	-3.8208106e-10	0.06236684	0.06236684	0	157402.94	157402.4	-9.2793365e-05	649881.7	249037.66	-0.00021488928	249039.58	649880.5	-0.00030958623
0	0.64197284	0.64197063	-2.605098e-10	0.062225346	0.062225346	0	157375.06	157374.53	-7.52551e-05	649975.75	248784.3	-0.00010744464	248786.2	649974.7	-0.00029865967
0	0.64185905	0.64185685	-3.5255662e-10	0.062084038	0.062084038	0	157347.16	157346.62	-8.418367e-05	650070.1	248530.67	-0.0002649694	248532.62	650068.94	-0.00019667832
0	0.64174545	0.64174324	-7.120601e-11	0.061942577	0.061942577	0	157319.31	157318.8	-1.7857143e-05	650164	248277.81	2.3674242e-05	248279.75	650162.8	-0.000112907925
0	0.6416311	0.641629	-2.7961386e-10	0.061801083	0.06180108	0	157291.3	157290.75	-7.015306e-05	650258.2	248023.52	-0.00027498542	248025.45	650257	-0.00013840327
0	0.6415159	0.64151376	-8.6836606e-12	0.061659772	0.061659772	0	157263.06	157262.53	-2.2321428e-06	650352.75	247767.7	1.2747669e-05	247769.64	650351.56	-2.9137529e-05
0	0.6414008	0.64139855	-8.2494775e-11	0.061518237	0.061518237	0	157234.8	157234.28	-1.307398e-05	650447.5	247511.67	-8.741259e-05	247513.64	650446.3	1.0926574e-05
0	0.6412859	0.64128375	-2.275119e-10	0.061376892	0.061376892	0	157206.66	157206.12	-6.377551e-05	650542.06	247256.25	-0.00018028847	247258.23	650540.94	-0.00018939393
0	0.6411711	0.641169	-1.8062013e-10	0.06123543	0.06123543	0	157178.55	157177.98	-4.3686225e-05	650636	247001.62	-7.830711e-05	247003.61	650634.9	-0.0001638986
0	0.64105487	0.64105254	-2.587731e-10	0.061093967	0.061093967	0	157150.02	157149.45	-6.632653e-05	650731.06	246743.67	-0.00018848339	246745.62	650730	-0.0001675408
0	0.6409394	0.6409372	-2.3793228e-10	0.060952656	0.060952656	0	157121.7	157121.17	-5.484694e-05	650825.3	246487.9	-0.0001256556	246489.88	650824.2	-0.00021853147
0	0.6408231	0.6408208	-1.2851817e-10	0.060811166	0.060811166	0	157093.17	157092.64	-3.6670917e-05	650920.06	246230.31	-0.00013749271	246232.25	650918.94	-5.4632867e-05
0	0.6407064	0.6407042	3.994484e-11	0.060669772	0.060669772	0	157064.62	157064.06	7.3341835e-06	651014.7	245972.39	-8.923368e-05	245974.38	651013.56	0.00015297203
0	0.64059	0.6405878	-3.1608524e-10	0.060528316	0.060528316	0	157036.06	157035.52	-7.461735e-05	651109.2	245714.8	-0.00025677448	245716.77	651108.1	-0.00018939393
0	0.6404722	0.64046997	-1.8235687e-10	0.060386974	0.060386974	0	157007.2	157006.66	-4.432398e-05	651204.56	245454.62	-5.008013e-05	245456.62	651203.4	-0.00017846737
0	0.6403553	0.640353	-2.1535478e-10	0.06024551	0.06024551	0	156978.53	156977.98	-5.1658164e-05	651299.2	245196.3	-0.00028318036	245198.27	651298.06	-4.0064104e-05
0	0.6402368	0.64023453	1.1115085e-10	0.06010405	0.060104053	0	156949.47	156948.92	2.5510204e-05	651394.56	244934.92	5.5543416e-05	244936.92	651393.4	0.0001238345
0	0.6401197	0.64011747	-1.0594066e-10	0.059962712	0.059962712	0	156920.78	156920.22	-3.0612246e-05	651489.2	244676.4	-3.6421912e-05	244678.39	651488.06	-0.00013111888
0	0.6400015	0.6399993	-6.078562e-11	0.05982117	0.059821166	0	156891.8	156891.23	-5.739796e-06	651584.2	244415.94	5.463287e-06	244417.94	651583.06	-5.0990675e-05
0	0.63988274	0.6398805	-3.786076e-10	0.05967986	0.05967986	0	156862.69	156862.12	-9.375e-05	651679.3	244154.45	-0.00028955418	244156.48	651678.25	-0.00023310023
0	0.6397635	0.6397612	-2.5703634e-10	0.059538368	0.059538368	0	156833.44	156832.89	-6.345663e-05	651774.75	243892.03	-9.6518066e-05	243894.02	651773.6	-0.00024038462
0	0.6396449	0.6396428	-2.9524444e-10	0.059396908	0.059396908	0	156804.39	156803.83	-7.3341835e-05	651869.75	243631.11	-0.00022399475	243633.11	651868.7	-0.00020032052
0	0.6395258	0.6395235	6.773255e-11	0.059255596	0.059255596	0	156775.17	156774.62	1.8494899e-05	651964.8	243369.31	-1.7300408e-05	243371.33	651963.6	0.00016025642
0	0.6394053	0.6394031	-2.9350772e-10	0.059114102	0.059114102	0	156745.64	156745.1	-7.142857e-05	652060.4	243104.98	-0.00025586394	243107.02	652059.25	-0.00017846737
0	0.639286	0.6392837	-3.6471373e-10	0.058972713	0.058972713	0	156716.39	156715.83	-8.354592e-05	652155.44	242842.86	-0.0002877331	242844.86	652154.3	-0.00018939393
0	0.6391647	0.6391624	-6.009093e-10	0.05883125	0.058831252	0	156686.67	156686.11	-0.00015433674	652251.6	242577	-0.0005426865	242579.03	652250.44	-0.0003350816
0	0.6390448	0.63904256	-3.421362e-10	0.0586899	0.0586899	0	156657.28	156656.72	-8.290816e-05	652346.8	242313.92	-0.00023401077	242315.97	652345.6	-0.0002440268
0	0.6389247	0.63892245	-3.421362e-10	0.05854845	0.05854845	0	156627.83	156627.27	-8.8329085e-05	652441.8	242050.7	-0.00024129516	242052.73	652440.6	-0.00024038462
0	0.63880336	0.63880104	-2.1882825e-10	0.058406986	0.058406986	0	156598.08	156597.53	-5.5484696e-05	652537.4	241785.3	-8.012821e-05	241787.33	652536.25	-0.00021488928
0	0.63868076	0.63867855	3.994484e-11	0.05826565	0.05826565	0	156568.05	156567.48	5.1020406e-06	652633.75	241517.33	-3.6421911e-06	241519.36	652632.6	5.0990675e-05
0	0.6385599	0.63855755	-1.4414876e-10	0.058124106	0.058124106	0	156538.39	156537.81	-3.5714285e-05	652729.06	241252.64	-8.650204e-05	241254.69	652727.94	-9.469697e-05
0	0.6384383	0.6384359	-2.9350772e-10	0.05798278	0.05798278	0	156508.56	156508.02	-6.8239795e-05	652824.44	240986.95	-0.0002995702	240989.02	652823.25	-8.37704e-05
0	0.6383151	0.63831276	-2.9003425e-10	0.05784131	0.05784131	0	156478.36	156477.81	-7.461735e-05	652920.56	240718.44	-0.00026041668	240720.48	652919.44	-0.00014204545
0	0.6381935	0.6381913	-1.9538236e-10	0.057699848	0.057699848	0	156448.58	156448.02	-5.452806e-05	653015.75	240453.08	-0.00014477709	240455.14	653014.7	-0.00014932983
0	0.6380697	0.6380675	-1.0073046e-10	0.05755853	0.05755853	0	156418.25	156417.69	-2.7104592e-05	653112	240183.62	-0.00012929778	240185.69	653110.8	-1.45687645e-05
0	0.63794696	0.6379447	-2.91771e-10	0.05741706	0.05741706	0	156388.16	156387.56	-6.919643e-05	653207.9	239915.78	-0.00018393065	239917.84	653206.75	-0.00019303613
0	0.6378237	0.6378215	-2.6745675e-10	0.057275645	0.057275645	0	156357.94	156357.38	-6.760204e-05	653303.7	239647.47	-0.00021671037	239649.53	653302.5	-0.00019667832
0	0.63769954	0.6376972	-2.6919347e-10	0.05713419	0.05713419	0	156327.47	156326.9	-6.154337e-05	653399.75	239377.38	-0.000116550116	239379.44	653398.56	-0.00023310023
0	0.63757545	0.6375731	-2.9003425e-10	0.056992844	0.056992844	0	156297.08	156296.5	-7.3341835e-05	653495.6	239108.02	-0.00022399475	239110.08	653494.44	-0.00018210955
0	0.63745075	0.63744843	1.354651e-10	0.056851387	0.056851387	0	156266.52	156265.94	3.4757653e-05	653592.06	238837.05	0.00013476107	238839.12	653590.9	6.920163e-05
0	0.637327	0.63732463	-3.733974e-10	0.056709927	0.056709927	0	156236.16	156235.56	-9.502551e-05	653687.6	238568	-0.00030594406	238570.06	653686.44	-0.00022581585
0	0.6372009	0.6371986	-3.4387296e-10	0.056568585	0.056568585	0	156205.27	156204.69	-8.163265e-05	653784.44	238294.8	-0.0002076049	238296.89	653783.3	-0.0002950175
0	0.6370766	0.6370743	-8.075804e-11	0.056427047	0.056427047	0	156174.78	156174.2	-1.9770408e-05	653880.2	238024.89	-3.5511363e-05	238026.98	653879.06	-0.00010198135
0	0.63695043	0.6369481	-3.091383e-10	0.05628571	0.05628571	0	156143.84	156143.27	-6.983418e-05	653976.7	237751.73	-0.00021488928	237753.84	653975.5	-0.00021124708
0	0.63682514	0.6368227	-4.498136e-10	0.05614425	0.05614424	0	156113.11	156112.55	-0.00010905612	654072.75	237480.22	-0.00033963434	237482.31	654071.56	-0.00030230187
0	0.6366988	0.6366966	-6.6343164e-10	0.056002792	0.056002792	0	156082.17	156081.6	-0.00016964285	654169.1	237207.08	-0.0005281177	237209.19	654167.94	-0.00039699883
0	0.6365722	0.63656986	-3.1261178e-11	0.05586147	0.05586147	0	156051.12	156050.56	-1.8494899e-05	654265.5	236933.45	5.463287e-06	236935.56	654264.4	-9.1054775e-05
0	0.63644457	0.63644224	-3.7166067e-10	0.055719994	0.055719994	0	156019.83	156019.27	-9.311224e-05	654362.7	236657.66	-0.00032051283	236659.77	654361.5	-0.00021853147
0	0.6363183	0.63631594	2.5182615e-11	0.055578664	0.055578664	0	155988.88	155988.31	8.609694e-06	654458.6	236384.92	0.00010926573	236387.02	654457.4	-5.8275058e-05
0	0.6361902	0.6361879	-4.8975846e-10	0.055437125	0.055437125	0	155957.48	155956.9	-0.00011352041	654555.4	236108.83	-0.00037969844	236110.97	654554.25	-0.0002877331
0	0.63606185	0.63605946	-1.6672629e-10	0.05529578	0.05529578	0	155926.03	155925.45	-3.890306e-05	654652.4	235832.12	-0.00014386655	235834.23	654651.2	-8.741259e-05
0	0.6359349	0.63593245	-1.9972418e-10	0.055154327	0.055154327	0	155894.89	155894.31	-4.7512756e-05	654748.44	235558.12	-0.0002039627	235560.27	654747.3	-7.6486016e-05
0	0.6358068	0.6358045	2.1535478e-10	0.05501287	0.05501287	0	155863.48	155862.92	5.1658164e-05	654844.8	235282.56	7.011218e-05	235284.67	654843.6	0.000247669
0	0.6356774	0.635675	-2.7787714e-10	0.054871522	0.054871522	0	155831.77	155831.19	-6.377551e-05	654941.94	235004.22	-0.00014022437	235006.38	654940.75	-0.000247669
0	0.6355478	0.6355454	-1.3893857e-10	0.05473008	0.05473008	0	155800.02	155799.42	-3.3163265e-05	655039.06	234725.72	-0.00016298806	234727.84	655037.9	-1.0926574e-05
0	0.63541937	0.635417	-2.8829752e-10	0.05458865	0.05458865	0	155768.52	155767.94	-6.855867e-05	655135.4	234449.48	-0.000142956	234451.62	655134.25	-0.00026587996
0	0.6352898	0.63528746	-2.4487923e-10	0.054447193	0.054447185	0	155736.78	155736.19	-5.7716836e-05	655232.25	234171.38	-0.00016480914	234173.53	655231.06	-0.00017118298
0	0.6351591	0.6351567	-4.2723608e-10	0.054305855	0.054305855	0	155704.72	155704.16	-0.00010841837	655329.44	233891.19	-0.00028318036	233893.38	655328.25	-0.000324155
0	0.6350291	0.6350267	1.5630589e-11	0.054164406	0.054164406	0	155672.84	155672.25	9.566326e-06	655426.1	233612.44	2.0032052e-05	233614.56	655425	3.6421912e-05
0	0.63489836	0.634896	-2.2143334e-10	0.054022938	0.054022938	0	155640.8	155640.2	-5.6760204e-05	655523.25	233332.25	-0.00011108683	233334.42	655522.06	-0.0002039627
0	0.63476694	0.6347646	-2.605098e-11	0.0538816	0.0538816	0	155608.6	155607.98	-7.653061e-06	655620.6	233050.94	7.2843823e-06	233053.11	655619.44	-4.7348483e-05
0	0.63463587	0.6346335	-3.421362e-10	0.05374007	0.05374007	0	155576.45	155575.88	-8.1313774e-05	655717.7	232770.36	-0.00040064103	232772.53	655716.5	-7.6486016e-05
0	0.63450485	0.6345024	-1.840936e-10	0.05359871	0.05359871	0	155544.33	155543.73	-4.815051e-05	655814.6	232489.98	-0.0001830201	232492.16	655813.4	-7.2843824e-05
0	0.63437307	0.63437074	-2.813506e-10	0.053457264	0.053457264	0	155512.03	155511.44	-6.8877554e-05	655911.56	232208.66	-0.00023218969	232210.86	655910.3	-0.00013840327
0	0.6342403	0.63423795	-3.7166067e-10	0.053315822	0.053315822	0	155479.48	155478.89	-9.406888e-05	656008.94	231925.23	-0.00029410693	231927.42	656007.8	-0.00024038462
0	0.6341086	0.63410616	-3.3692601e-10	0.053174462	0.053174462	0	155447.2	155446.61	-8.067602e-05	656105.8	231644.05	-0.0002039627	231646.23	656104.6	-0.00026587996
0	0.6339748	0.6339724	-3.421362e-10	0.053033024	0.053033024	0	155414.4	155413.8	-8.290816e-05	656203.6	231358.98	-0.00025768502	231361.17	656202.4	-0.00024038462
0	0.63384175	0.63383937	-2.1188132e-10	0.052891586	0.052891586	0	155381.78	155381.19	-5.6441328e-05	656301.06	231075.25	-0.00021579982	231077.44	656299.9	-0.00010926573
0	0.6337082	0.63370574	-2.761404e-10	0.052750118	0.052750126	0	155349.06	155348.45	-6.951531e-05	656398.3	230790.95	-0.00017482518	230793.12	656397.1	-0.0002039627
0	0.633575	0.6335726	-4.037902e-10	0.052608773	0.052608777	0	155316.39	155315.78	-9.375e-05	656495.25	230507.62	-0.0002913753	230509.83	656494.06	-0.00024038462
0	0.63343954	0.6334371	-3.62977e-10	0.05246734	0.05246734	0	155283.16	155282.58	-9.215561e-05	656593.44	230219.64	-0.00021853147	230221.83	656592.25	-0.00030230187
0	0.6333059	0.63330346	-1.3372838e-10	0.052325882	0.052325882	0	155250.42	155249.81	-3.4119897e-05	656690.5	229935.62	-8.923368e-05	229937.83	656689.3	-0.00010198135
0	0.6331707	0.63316834	-2.969812e-10	0.05218454	0.05218454	0	155217.3	155216.7	-6.760204e-05	656788.1	229648.75	-0.00025677448	229650.97	656786.94	-0.00017482518
0	0.63303584	0.63303334	-6.7558875e-10	0.052043002	0.052043002	0	155184.2	155183.61	-0.00016517857	656885.56	229362.33	-0.0004880536	229364.53	656884.4	-0.0004880536
0	0.6328997	0.6328973	-1.6325281e-10	0.051901635	0.051901635	0	155150.83	155150.22	-4.2091837e-05	656983.44	229073.84	-0.0001675408	229076.08	656982.25	-6.920163e-05
0	0.63276404	0.6327616	-2.9263936e-10	0.0517602	0.0517602	0	155117.6	155117	-7.3979594e-05	657081.06	228786.47	-0.00020305216	228788.69	657079.8	-0.00020032052
0	0.63262784	0.6326254	-2.587731e-10	0.051618766	0.051618766	0	155084.19	155083.6	-5.580357e-05	657179	228497.81	-0.00013658217	228500.03	657177.75	-0.0002039627
0	0.63249177	0.6324893	-2.223017e-10	0.05147742	0.05147742	0	155050.84	155050.22	-4.4642857e-05	657276.1	228210.08	-9.014423e-05	228212.3	657274.94	-0.00018939393
0	0.6323537	0.6323512	-1.8756706e-10	0.05133596	0.05133596	0	155016.98	155016.39	-4.815051e-05	657374.4	227918.5	-0.0001238345	227920.73	657373.2	-0.00013840327
0	0.63221717	0.63221467	-1.7714667e-10	0.051194515	0.051194515	0	154983.53	154982.9	-3.9540817e-05	657471.94	227629.84	-0.00013840327	227632.06	657470.75	-0.00010198135
0	0.6320788	0.6320764	-1.2764981e-10	0.05105309	0.05105309	0	154949.62	154949.02	-3.6670917e-05	657570	227338.16	-7.011218e-05	227340.39	657568.8	-0.00010926573
0	0.63194185	0.6319394	-4.550238e-10	0.050911706	0.050911706	0	154916.03	154915.42	-0.00011383928	657667.56	227048.66	-0.00038151952	227050.9	657666.44	-0.00028044873
0	0.6318033	0.6318009	-5.731216e-11	0.05077028	0.05077028	0	154882.06	154881.45	-1.7857143e-05	657765.75	226756.62	-5.1901225e-05	226758.88	657764.56	-4.3706295e-05
0	0.63166475	0.63166225	-4.0986878e-10	0.050628845	0.050628845	0	154848.1	154847.5	-9.5663265e-05	657863.6	226464.78	-0.0003715035	226467.03	657862.4	-0.00022581585
0	0.63152593	0.6315234	-1.3199164e-10	0.050487474	0.050487474	0	154814.06	154813.45	-3.635204e-05	657961.6	226172.44	-0.00012656614	226174.67	657960.44	-5.8275058e-05
0	0.63138616	0.63138366	-2.4487923e-10	0.050345946	0.050345946	0	154779.81	154779.19	-5.452806e-05	658060	225878.34	-0.00017118298	225880.61	658058.8	-0.00014932983
0	0.63124657	0.63124406	-1.406753e-10	0.050204594	0.05020459	0	154745.58	154744.98	-3.125e-05	658158	225584.98	-0.00013840327	225587.22	658156.8	-5.8275058e-05
0	0.63110673	0.63110423	-2.813506e-10	0.050063137	0.050063137	0	154711.31	154710.69	-6.8239795e-05	658255.94	225291.16	-0.00027134325	225293.44	658254.75	-0.0001238345
0	0.63096654	0.630964	-2.3098537e-10	0.04992171	0.04992171	0	154676.92	154676.31	-5.4209184e-05	658354.06	224996.73	-0.00021579982	224999.02	658352.9	-0.00010562354
0	0.63082546	0.630823	-2.7266694e-10	0.049780354	0.049780354	0	154642.36	154641.75	-6.983418e-05	658452.5	224700.92	-0.00018757285	224703.2	658451.25	-0.00022217366
0	0.6306843	0.6306818	-2.3619556e-10	0.0496389	0.0496389	0	154607.75	154607.16	-5.739796e-05	658550.7	224405.11	-0.00021033654	224407.36	658549.44	-0.00013111888
0	0.6305433	0.6305408	-3.6124026e-10	0.049497455	0.049497455	0	154573.17	154572.56	-8.322704e-05	658648.8	224109.53	-0.00032688666	224111.81	658647.6	-0.00016025642
0	0.6304014	0.6303988	-3.299791e-10	0.04935602	0.04935602	0	154538.38	154537.77	-8.450255e-05	658747.06	223812.56	-0.00021124708	223814.83	658745.75	-0.0002440268
0	0.63025856	0.6302561	-3.5776682e-10	0.04921464	0.04921464	0	154503.39	154502.78	-8.5459185e-05	658845.7	223513.98	-0.00026770105	223516.28	658844.56	-0.00020032052
0	0.63011605	0.63011354	-3.8555453e-10	0.04907321	0.04907321	0	154468.44	154467.84	-9.375e-05	658944.2	223215.98	-0.00023036859	223218.28	658943.06	-0.0003277972
0	0.629974	0.62997144	-4.967054e-10	0.04893179	0.04893179	0	154433.61	154433	-0.00012436224	659042.25	222918.97	-0.00037423513	222921.3	659041	-0.00035329253
0	0.62983	0.62982756	-5.175462e-10	0.048790418	0.048790418	0	154398.33	154397.7	-0.00012595663	659140.9	222618.86	-0.00040337266	222621.19	659139.6	-0.00031322843
0	0.6296862	0.6296836	-1.840936e-10	0.048648883	0.048648883	0	154363.06	154362.47	-4.3686225e-05	659239.4	222318.98	-9.833916e-05	222321.31	659238.2	-0.00016310187
0	0.62954193	0.6295395	-4.498136e-10	0.04850753	0.04850753	0	154327.72	154327.11	-0.00011352041	659338.2	222018.3	-0.00038607226	222020.61	659336.94	-0.00026223777
0	0.6293986	0.62939614	-3.9076473e-10	0.048366077	0.048366077	0	154292.56	154291.97	-9.725765e-05	659436.44	221719.31	-0.00022581585	221721.61	659435.25	-0.0003678613
0	0.6292541	0.6292516	-4.1507897e-10	0.048224654	0.048224654	0	154257.16	154256.55	-0.000104910716	659534.94	221418.58	-0.00029046476	221420.89	659533.7	-0.00031687063
0	0.62910914	0.62910664	-5.088625e-10	0.04808329	0.04808329	0	154221.6	154220.98	-0.00012563776	659633.44	221117.02	-0.0003432765	221119.34	659632.25	-0.00038607226
0	0.6289632	0.6289607	-1.4935896e-10	0.04794185	0.04794185	0	154185.83	154185.2	-4.336735e-05	659732.44	220813.75	-0.00013476107	220816.08	659731.1	-8.37704e-05
0	0.62881786	0.62881535	1.09414124e-10	0.047800384	0.047800384	0	154150.22	154149.58	2.742347e-05	659830.9	220511.86	3.5511363e-05	220514.2	659829.7	9.469697e-05
0	0.62867147	0.62866884	-2.709302e-10	0.047658965	0.047658965	0	154114.31	154113.69	-6.632653e-05	659929.8	220207.83	-0.00017209353	220210.16	659928.6	-0.00023310023
0	0.62852544	0.6285229	-1.406753e-10	0.04751758	0.04751758	0	154078.52	154077.88	-3.4757653e-05	660028.25	219905	-0.00016936188	219907.38	660027	-2.9137529e-05
0	0.62837774	0.6283752	2.4314249e-11	0.047376156	0.047376156	0	154042.31	154041.67	7.3341835e-06	660127	219599.36	4.5527388e-05	219601.7	660125.8	3.6421911e-06
0	0.6282305	0.62822795	-2.3966903e-10	0.047234733	0.047234733	0	154006.22	154005.6	-5.8673468e-05	660226.06	219294.2	-0.00012292396	219296.58	660224.9	-0.00021853147
0	0.6280831	0.6280806	-1.406753e-10	0.047093347	0.047093347	0	153970.11	153969.47	-3.380102e-05	660324.75	218989.28	-0.00017937791	218991.64	660323.6	-2.1853148e-05
0	0.6279353	0.6279327	-1.2330797e-10	0.046951823	0.046951823	0	153933.84	153933.22	-2.3596938e-05	660423.7	218683.34	-0.00015206148	218685.72	660422.5	1.0926574e-05
0	0.6277869	0.6277844	1.1462432e-10	0.046810456	0.046810463	0	153897.48	153896.86	2.2959184e-05	660522.6	218376.72	9.1054775e-05	218379.05	660521.44	5.4632867e-05
0	0.62763745	0.6276349	-6.599582e-11	0.046669025	0.04666902	0	153860.83	153860.22	-1.4030612e-05	660621.9	218068.2	-0.00013749271	218070.6	660620.6	6.191725e-05
0	0.62748957	0.627487	-2.0319765e-10	0.046527658	0.046527658	0	153824.56	153823.94	-5.8035715e-05	660720.1	217762.81	-4.7348483e-05	217765.2	660718.94	-0.00027680653
0	0.627339	0.62733644	-3.0219138e-10	0.046386234	0.046386234	0	153787.69	153787.06	-7.366071e-05	660819.5	217452.83	-0.00015661422	217455.22	660818.3	-0.00023310023
0	0.62718904	0.6271864	-1.0420393e-11	0.0462448	0.0462448	0	153750.9	153750.27	9.566327e-07	660918.75	217143.52	2.2763694e-05	217145.89	660917.44	-1.0926574e-05
0	0.6270393	0.6270368	-2.4487923e-10	0.04610342	0.04610342	0	153714.2	153713.58	-5.994898e-05	661017.5	216835.25	-0.00020942598	216837.67	661016.25	-0.00013476107
0	0.62688863	0.62688607	-2.1882825e-10	0.045961898	0.045961898	0	153677.28	153676.64	-5.4209184e-05	661116.4	216525.34	-0.00020032052	216527.73	661115.2	-9.469697e-05
0	0.6267374	0.6267348	1.4762222e-10	0.045820512	0.045820512	0	153640.2	153639.56	3.523597e-05	661215.7	216214.33	8.012821e-05	216216.75	661214.44	0.00013111888
0	0.6265858	0.6265832	-1.9104053e-10	0.0456791	0.0456791	0	153603.03	153602.39	-5.1020408e-05	661315	215902.7	-0.00018939393	215905.11	661313.75	-8.741259e-05
0	0.6264337	0.62643105	-9.378353e-11	0.045537677	0.045537677	0	153565.73	153565.1	-2.0089286e-05	661414.4	215590.33	-4.3706295e-05	215592.75	661413.2	-0.000116550116
0	0.62628245	0.6262798	-2.9524444e-10	0.045396283	0.045396283	0	153528.66	153528.02	-7.3341835e-05	661513.2	215279.73	-0.000285912	215282.16	661512	-0.00017118298
0	0.6261296	0.62612695	-4.2897283e-10	0.04525487	0.04525487	0	153491.2	153490.56	-0.000109375	661612.56	214966.56	-0.00030412295	214968.97	661611.4	-0.00030594406
0	0.6259771	0.6259745	-2.1882825e-10	0.045113385	0.045113385	0	153453.8	153453.19	-4.815051e-05	661711.56	214653.92	-5.463287e-06	214656.34	661710.4	-0.00028044873