//mumax 3.10 [windows_amd64 go1.11.6(gc) CUDA-11.0]
//GPU info: NVIDIA GeForce RTX 3090(24575MB), CUDA Driver 12.1, cc=8.6, using cc=80 PTX
//(c) Arne Vansteenkiste, Dynamat LAB, Ghent University, Belgium
//This is free software without any warranty. See license.txt
//********************************************************************//
//  If you use mumax in any work or publication,                      //
//  we kindly ask you to cite the references in references.bib        //
//********************************************************************//
//output directory: r1;p0.1;a2.8e-07;l1.8000000000000002e-07;s5.out/
randSeed(5)
ThermSeed(5)
resolution := 2e-09
zResolution := 5e-09
a := 2.8e-07
gridSize := 280
gridDepth := 5
SetCellsize(resolution, resolution, zResolution)
SetGridsize(gridSize, gridSize, gridDepth)
SetPBC(16, 16, 0)
//resizing...
Msat = 700e3
Aex = 13e-12
alpha = 0.2
Bmax := 0.1
Bstep := Bmax / 500.0
TableAdd(B_ext)
TableAdd(m_full)
islandWidth := 8e-08
islandLength := 1.8000000000000002e-07
ellipseConstant := 9.000000000000001e-09
hIsland := Universe().Inverse()
vIsland := Universe().Inverse()
vIslands := Universe().Inverse()
hIslands := Universe().Inverse()
hIsland = rect(islandLength-2*ellipseConstant, islandWidth)
hIsland = hIsland.add(ellipse(ellipseConstant*2, islandWidth).transl(islandLength/2-ellipseConstant, 0, 0))
hIsland = hIsland.add(ellipse(ellipseConstant*2, islandWidth).transl(-islandLength/2+ellipseConstant, 0, 0))
hIsland = hIsland.add(rect(9.078668896424085e-09, 2.4597455344786417e-09).transl(-5.1771343240988094e-08, -4e-08, 0))
hIsland = hIsland.sub(rect(6.816857492701148e-09, -2.1843518208797976e-09).transl(3.707993150184354e-08, -4e-08, 0))
hIsland = hIsland.sub(rect(2.073297169672002e-09, -7.530770767465775e-11).transl(6.272345279012294e-08, -4e-08, 0))
hIsland = hIsland.sub(rect(4.455740361401611e-09, -6.602001347383697e-10).transl(8.092664273468638e-08, -4e-08, 0))
hIsland = hIsland.sub(rect(9.023410246389396e-09, -4.3597932360769277e-10).transl(-2.4099600393258752e-08, -4e-08, 0))
hIsland = hIsland.add(rect(6.532385929242159e-09, 1.9466426371280202e-09).transl(3.1752343849033406e-08, -4e-08, 0))
hIsland = hIsland.add(rect(5.779967023235183e-09, 1.379822411975753e-10).transl(6.922309775704561e-08, -4e-08, 0))
hIsland = hIsland.sub(rect(7.658421671973392e-09, -4.295309975822187e-09).transl(5.725729041311916e-08, -4e-08, 0))
hIsland = hIsland.sub(rect(2.4180818235069855e-09, -3.326644521998955e-10).transl(-4.913177862199003e-08, -4e-08, 0))
hIsland = hIsland.sub(rect(8.219644067928837e-09, -1.6825697100868114e-09).transl(3.9631267240033e-08, -4e-08, 0))
hIsland = hIsland.add(rect(3.6282019501435425e-09, 1.0824264049447937e-09).transl(4.9893336967616965e-08, -4e-08, 0))
hIsland = hIsland.sub(rect(4.689987895663097e-09, -4.2541898617145193e-10).transl(-4.489356934058514e-08, -4e-08, 0))
hIsland = hIsland.add(rect(2.9871204682813926e-09, 1.5789793979143487e-09).transl(-6.940716752073294e-08, -4e-08, 0))
hIsland = hIsland.sub(rect(4.733632339670748e-09, -3.0528343896710936e-09).transl(-8.482647272925017e-08, -3.6204660078552767e-08, 0))
hIsland = hIsland.sub(rect(6.518710228587536e-09, -5.561248921319504e-10).transl(7.113939470006483e-08, -4e-08, 0))
hIsland = hIsland.add(rect(7.676256921928248e-09, 8.116536030370142e-11).transl(8.328574982402908e-08, -3.868846071419231e-08, 0))
hIsland = hIsland.sub(rect(3.993893773866559e-09, -2.919298742329679e-09).transl(7.924660816915253e-08, -4e-08, 0))
hIsland = hIsland.sub(rect(8.360968462295724e-09, -2.3559188729709664e-09).transl(1.834999422843783e-08, -4e-08, 0))
hIsland = hIsland.sub(rect(5.51612432575673e-09, -3.787317484657677e-10).transl(-7.338474243118025e-09, -4e-08, 0))
hIsland = hIsland.sub(rect(8.374508607016549e-09, -1.9996490978115944e-09).transl(5.119541745446145e-08, -4e-08, 0))
hIsland = hIsland.add(rect(7.020276784593358e-09, 1.981729321802532e-09).transl(5.073958924172836e-08, -4e-08, 0))
hIsland = hIsland.sub(rect(5.456439188782744e-09, -6.566755700184135e-10).transl(-1.862886414915293e-08, -4e-08, 0))
hIsland = hIsland.sub(rect(6.244938829167845e-09, -2.0658943500820815e-09).transl(1.3668920269690542e-08, -4e-08, 0))
hIsland = hIsland.add(rect(3.267404539073672e-09, 6.567688228706942e-10).transl(2.1722565350239044e-08, -4e-08, 0))
hIsland = hIsland.sub(rect(3.812231637373015e-09, -2.760545970753789e-10).transl(-4.514017561525396e-08, -4e-08, 0))
hIsland = hIsland.add(rect(7.2262385597840664e-09, 3.145940070866592e-09).transl(5.651878566929022e-08, -4e-08, 0))
hIsland = hIsland.sub(rect(6.104270297823251e-09, -5.878293490023128e-10).transl(-2.75047974445593e-08, -4e-08, 0))
hIsland = hIsland.sub(rect(4.4883979356063465e-09, -2.8295074210429546e-09).transl(-5.870839615373158e-08, -4e-08, 0))
hIsland = hIsland.sub(rect(2.465184908469201e-09, -5.882989040282263e-10).transl(-1.336606517195453e-08, -4e-08, 0))
hIsland = hIsland.add(rect(5.145153228835226e-09, 1.492064576687906e-09).transl(-3.947623072135091e-08, -4e-08, 0))
hIsland = hIsland.sub(rect(4.2000611449944224e-09, -9.669906761919296e-10).transl(1.8011842057220264e-08, -4e-08, 0))
hIsland = hIsland.sub(rect(7.876564739334169e-09, -2.852925854630101e-09).transl(1.6403758189135285e-08, -4e-08, 0))
hIsland = hIsland.add(rect(2.0564882043908116e-09, 1.3615010515499272e-09).transl(1.64109846442068e-09, -4e-08, 0))
hIsland = hIsland.add(rect(2.9759576621140326e-09, 5.902053660822423e-10).transl(-2.3694841179595966e-08, -4e-08, 0))
hIsland = hIsland.sub(rect(5.143139233807346e-09, -4.3022473272916716e-10).transl(-7.03176275714944e-08, -4e-08, 0))
hIsland = hIsland.sub(rect(7.916594523975111e-09, -1.6952135548956627e-09).transl(6.992956785410955e-08, -4e-08, 0))
hIsland = hIsland.add(rect(4.360921520500947e-09, 4.425559056227418e-10).transl(-2.5571173728740366e-08, -4e-08, 0))
hIsland = hIsland.add(rect(9.912808990366226e-09, 1.223109028566926e-09).transl(2.0504869549340543e-08, -4e-08, 0))
hIsland = hIsland.sub(rect(5.461417212225505e-09, -2.0145897466900973e-09).transl(6.38977802836895e-08, -4e-08, 0))
hIsland = hIsland.add(rect(2.7291651556530996e-09, 1.8320638018576367e-09).transl(6.490814272940636e-08, -4e-08, 0))
hIsland = hIsland.sub(rect(6.491300243897726e-09, -4.688775265289925e-09).transl(2.6808323715505808e-08, -4e-08, 0))
hIsland = hIsland.sub(rect(4.888069941695316e-09, -2.761893570849604e-09).transl(8.397015194318918e-08, -3.775900119896054e-08, 0))
hIsland = hIsland.add(rect(7.299245017953271e-09, 1.143353805652821e-09).transl(-2.9486426144459405e-08, -4e-08, 0))
hIsland = hIsland.sub(rect(8.467080579115484e-09, -1.5954254150387944e-09).transl(-6.361570201086943e-08, -4e-08, 0))
hIsland = hIsland.sub(rect(9.383935270063127e-09, -7.734185937423451e-13).transl(5.084511558530106e-09, -4e-08, 0))
hIsland = hIsland.sub(rect(7.307016846688002e-09, -7.787877006763989e-10).transl(4.6721292355416175e-08, -4e-08, 0))
hIsland = hIsland.add(rect(6.844080822964612e-09, 1.3714935294168461e-09).transl(2.5572112666505234e-08, -4e-08, 0))
hIsland = hIsland.add(rect(4.286880266854207e-09, 6.330975765707128e-10).transl(2.7479194664161095e-08, -4e-08, 0))
hIsland = hIsland.add(rect(7.316154647774777e-09, 6.726847486392139e-10).transl(8.3292215062453e-08, -3.8680904175080383e-08, 0))
hIsland = hIsland.sub(rect(3.6647834800005034e-09, -3.6061801621132702e-09).transl(-5.14221911682826e-08, -4e-08, 0))
hIsland = hIsland.sub(rect(7.730085664640924e-09, -4.0630266657240744e-10).transl(8.490596118515351e-08, -3.603659791839861e-08, 0))
hIsland = hIsland.sub(rect(2.8281624586118276e-09, -6.803648109845206e-10).transl(-3.593571363776463e-08, -4e-08, 0))
hIsland = hIsland.add(rect(3.858261681735935e-09, 1.8557226615767739e-09).transl(1.684627253742484e-08, -4e-08, 0))
hIsland = hIsland.sub(rect(5.563213600061724e-09, -2.2245030554676685e-09).transl(2.3490911168679785e-08, -4e-08, 0))
hIsland = hIsland.sub(rect(9.011772782143151e-09, -3.6836399306998082e-09).transl(-4.284871986435856e-08, -4e-08, 0))
hIsland = hIsland.add(rect(6.417220241374037e-09, 1.570653448473179e-09).transl(3.0622013253654884e-08, -4e-08, 0))
hIsland = hIsland.add(rect(5.066078766628968e-09, 1.360741129926363e-09).transl(8.113732616030134e-08, -3.999534331553295e-08, 0))
hIsland = hIsland.add(rect(7.272346656701759e-09, 6.463611673951165e-10).transl(3.456665580984382e-08, -4e-08, 0))
hIsland = hIsland.sub(rect(4.0914090726545395e-09, -4.759891678951342e-09).transl(8.604166705181632e-09, -4e-08, 0))
hIsland = hIsland.add(rect(2.1242411088282005e-09, 8.073352786730274e-11).transl(4.901248751922525e-08, -4e-08, 0))
hIsland = hIsland.add(rect(6.636560280088431e-09, 2.293990388261245e-09).transl(-3.8262858311496384e-08, -4e-08, 0))
hIsland = hIsland.sub(rect(7.993754213357173e-09, -5.38092628359478e-09).transl(2.2230353822850492e-08, -4e-08, 0))
hIsland = hIsland.add(rect(9.256589695621753e-09, 9.960077622953237e-10).transl(-6.710616025990312e-08, -4e-08, 0))
hIsland = hIsland.sub(rect(4.564016145377831e-09, -1.824753701663205e-12).transl(-1.6442576295202742e-08, -4e-08, 0))
hIsland = hIsland.sub(rect(4.353551036592012e-09, -4.341978931483402e-10).transl(-3.7615543934704226e-08, -4e-08, 0))
hIsland = hIsland.sub(rect(3.111943707568326e-09, -2.3681356188855817e-09).transl(-3.1643245638527465e-08, -4e-08, 0))
hIsland = hIsland.add(rect(7.226167207038023e-09, 7.212406641699192e-10).transl(-4.6206604676738394e-08, -4e-08, 0))
hIsland = hIsland.add(rect(7.982256660059957e-09, 2.1864321061407073e-09).transl(2.3269130964371035e-08, -4e-08, 0))
hIsland = hIsland.sub(rect(6.2238054972209065e-09, -2.2348470598001595e-09).transl(4.8342676650234094e-08, -4e-08, 0))
hIsland = hIsland.add(rect(7.018344996563813e-09, 2.665450393550871e-09).transl(8.938063209485132e-08, -1.4582252491247123e-08, 0))
hIsland = hIsland.add(rect(4.56566653236263e-09, 5.511997803765616e-10).transl(5.763842553675939e-08, -4e-08, 0))
hIsland = hIsland.sub(rect(7.552188665023547e-09, -2.612775432989873e-09).transl(-6.1789938931552475e-09, -4e-08, 0))
hIsland = hIsland.add(rect(2.105623861647197e-09, 1.4509959201529059e-09).transl(1.4772004495849788e-08, -4e-08, 0))
hIsland = hIsland.add(rect(2.3416763972757127e-09, 3.283137073640201e-09).transl(4.5479326633037085e-08, -4e-08, 0))
hIsland = hIsland.sub(rect(2.9800652190908183e-09, -1.58841737160594e-09).transl(2.3470934640334605e-08, -4e-08, 0))
hIsland = hIsland.sub(rect(8.36769065892991e-09, -1.1194895715607914e-09).transl(7.792421827877556e-08, -4e-08, 0))
hIsland = hIsland.add(rect(7.9536592160128e-09, 3.781001449606782e-09).transl(8.702045357157293e-08, -2.9732681870469823e-08, 0))
hIsland = hIsland.sub(rect(8.650863876719498e-09, -8.422282585693102e-10).transl(-1.3937735761346876e-09, -4e-08, 0))
hIsland = hIsland.sub(rect(8.692181461258592e-09, -2.9097850867383458e-09).transl(-5.0632837527826866e-08, -4e-08, 0))
hIsland = hIsland.sub(rect(2.3897069001327917e-09, -2.7666940701999943e-09).transl(3.970528126576245e-08, -4e-08, 0))
hIsland = hIsland.sub(rect(6.2189300631974336e-09, -3.312724548152109e-10).transl(4.4924121672308183e-08, -4e-08, 0))
hIsland = hIsland.add(rect(3.299193781511731e-09, 5.920997314454191e-10).transl(-6.735252021361358e-08, -4e-08, 0))
hIsland = hIsland.add(rect(9.47876229062527e-09, 3.4968634308004283e-10).transl(2.713436227924151e-08, -4e-08, 0))
hIsland = hIsland.sub(rect(2.0016202771008357e-09, -2.2418269994629403e-09).transl(6.52317385857059e-08, -4e-08, 0))
hIsland = hIsland.add(rect(3.563428724574105e-09, 3.0491021096108875e-09).transl(-7.124325581356901e-08, -4e-08, 0))
hIsland = hIsland.add(rect(7.526148589356459e-09, 2.496232516715553e-09).transl(8.856771981621851e-08, -2.1650246442626137e-08, 0))
hIsland = hIsland.sub(rect(3.2607510566979505e-09, -4.0163619082332e-09).transl(1.3908541427906723e-09, -4e-08, 0))
hIsland = hIsland.sub(rect(9.427190649909706e-09, -9.394597425439186e-10).transl(2.1773011422029553e-08, -4e-08, 0))
hIsland = hIsland.sub(rect(4.523534036071035e-09, -5.36140040192576e-10).transl(-2.4117094501929848e-08, -4e-08, 0))
hIsland = hIsland.sub(rect(4.537652429837937e-09, -1.25411966963213e-09).transl(-1.088751143037135e-08, -4e-08, 0))
hIsland = hIsland.sub(rect(2.8817771290022946e-09, -5.798403800895822e-10).transl(-3.320938968324983e-08, -4e-08, 0))
hIsland = hIsland.add(rect(4.838433712508623e-09, 2.098811021647079e-09).transl(2.84739821045543e-08, -4e-08, 0))
hIsland = hIsland.sub(rect(2.179027255349663e-09, -6.806175945105259e-10).transl(-5.065475120419862e-08, -4e-08, 0))
hIsland = hIsland.add(rect(8.868573598050287e-09, 8.170461165908467e-10).transl(-6.225843564201882e-08, -4e-08, 0))
hIsland = hIsland.add(rect(2.8521005762579493e-09, 4.0751655101052126e-11).transl(-4.666727039304581e-08, -4e-08, 0))
hIsland = hIsland.sub(rect(2.5203384434112313e-09, -1.8769791465836953e-09).transl(7.250021841942535e-08, -4e-08, 0))
hIsland = hIsland.add(rect(2.2330221359498907e-09, 1.4855412920482487e-09).transl(7.022606588163356e-08, -4e-08, 0))
hIsland = hIsland.sub(rect(7.820841288409052e-09, -1.4690742019899677e-09).transl(-3.217376280282263e-08, -4e-08, 0))
hIsland = hIsland.add(rect(3.5320535229603057e-09, 1.1597116657286417e-09).transl(-7.389814063626814e-10, -4e-08, 0))
hIsland = hIsland.sub(rect(6.9094176203036535e-09, -1.5588982635768882e-09).transl(-5.599244958629374e-09, -4e-08, 0))
hIsland = hIsland.sub(rect(8.654194246028568e-09, -1.4963557716775746e-09).transl(3.391121265068128e-08, -4e-08, 0))
hIsland = hIsland.add(rect(9.792317324519896e-09, 1.2226181467819989e-09).transl(5.882503640689565e-09, -4e-08, 0))
hIsland = hIsland.add(rect(4.892715867025119e-09, 1.9440717124297995e-09).transl(-5.189282640412321e-08, -4e-08, 0))
hIsland = hIsland.sub(rect(6.039407519348771e-09, -8.23284630918685e-10).transl(-8.561857120824906e-08, -3.4331369953018494e-08, 0))
hIsland = hIsland.sub(rect(8.104184295493026e-09, -2.042274733930142e-09).transl(7.760924567977574e-08, -4e-08, 0))
hIsland = hIsland.sub(rect(3.791539138590696e-09, -4.839738984679744e-10).transl(6.785700206381028e-08, -4e-08, 0))
hIsland = hIsland.add(rect(9.493006308834148e-09, 4.60196575414984e-09).transl(4.492077580343956e-08, -4e-08, 0))
hIsland = hIsland.add(rect(8.854046961319567e-09, 1.6111041781320473e-10).transl(3.9245044142892585e-08, -4e-08, 0))
hIsland = hIsland.sub(rect(9.429243400239758e-09, -1.2164895097690736e-09).transl(8.348913120655781e-08, -3.84397494465287e-08, 0))
hIsland = hIsland.add(rect(6.9124089738472e-09, 2.619879554768529e-09).transl(4.324094899858901e-09, -4e-08, 0))
hIsland = hIsland.sub(rect(9.457948789775098e-09, -3.712832541815427e-10).transl(-4.0914122081790154e-08, -4e-08, 0))
hIsland = hIsland.add(rect(8.062825209299437e-09, 4.237534853966438e-10).transl(3.206597622647142e-08, -4e-08, 0))
hIsland = hIsland.add(rect(8.184502310745116e-09, 2.4957787616061334e-09).transl(-8.549605868552544e-08, -3.4651123665548885e-08, 0))
hIsland = hIsland.sub(rect(3.152408559991284e-09, -3.7459770135897024e-10).transl(6.888873281974666e-08, -4e-08, 0))
hIsland = hIsland.sub(rect(6.699496919187281e-09, -1.1741880086057315e-09).transl(-1.8454519420051743e-08, -4e-08, 0))
hIsland = hIsland.sub(rect(2.5876115111844025e-09, -2.429559992669442e-09).transl(-3.590772243502341e-08, -4e-08, 0))
hIsland = hIsland.add(rect(7.636461216425411e-09, 1.6788432757834597e-09).transl(-2.3366508791672332e-08, -4e-08, 0))
hIsland = hIsland.sub(rect(6.0500592264970015e-09, -4.2408256353660774e-10).transl(-1.797571884974116e-08, -4e-08, 0))
hIsland = hIsland.add(rect(3.786104240608538e-09, 1.937996983900048e-09).transl(-4.790056876047038e-09, -4e-08, 0))
hIsland = hIsland.sub(rect(9.474264558265511e-09, -4.501574119283924e-09).transl(1.4647015215344852e-09, -4e-08, 0))
hIsland = hIsland.sub(rect(5.19375187928131e-09, -4.0877176439839286e-10).transl(-8.34703252719672e-09, -4e-08, 0))
hIsland = hIsland.add(rect(6.60807855897856e-09, 1.2841003252040823e-09).transl(5.529207737180882e-08, -4e-08, 0))
hIsland = hIsland.sub(rect(6.608434816270001e-09, -2.391246848418497e-09).transl(3.509921536450591e-08, -4e-08, 0))
hIsland = hIsland.sub(rect(8.547601395776628e-09, -1.985783665288123e-09).transl(-7.099434642519756e-08, -4e-08, 0))
hIsland = hIsland.sub(rect(2.5507106041318627e-09, -8.522391434596501e-10).transl(-7.038194926864271e-08, -4e-08, 0))
hIsland = hIsland.add(rect(2.106412741462165e-09, 1.3034965907196165e-09).transl(6.168365792141839e-08, -4e-08, 0))
hIsland = hIsland.add(rect(9.235784258623698e-09, 2.875408899336366e-09).transl(6.770764196060753e-08, -4e-08, 0))
hIsland = hIsland.add(rect(2.6747400103604097e-09, 4.056001956486886e-09).transl(-4.02511674633193e-08, -4e-08, 0))
hIsland = hIsland.sub(rect(3.977462563033033e-09, -4.024631523128631e-09).transl(2.1955440557839642e-08, -4e-08, 0))
hIsland = hIsland.add(rect(4.723098104346024e-09, 8.746410170039941e-10).transl(8.408882955733674e-08, -3.757044595422665e-08, 0))
hIsland = hIsland.sub(rect(4.807983839193363e-09, -9.899925383967953e-10).transl(-8.886619620483482e-08, -1.9435468286026316e-08, 0))
hIsland = hIsland.add(rect(9.025759539857425e-09, 2.5036569904063304e-10).transl(-5.4922093006222006e-08, -4e-08, 0))
hIsland = hIsland.sub(rect(3.269485729818586e-09, -2.75419598565098e-09).transl(-8.662869641034036e-08, -3.121182957765575e-08, 0))
hIsland = hIsland.add(rect(7.691330465262152e-09, 4.205346550706381e-10).transl(7.362579658140556e-09, -4e-08, 0))
hIsland = hIsland.add(rect(8.93169850844118e-09, 1.0079761272066179e-09).transl(-4.10769242262082e-08, -4e-08, 0))
hIsland = hIsland.add(rect(9.336359520409407e-09, 2.0810939964836647e-09).transl(5.045080869407108e-08, -4e-08, 0))
hIsland = hIsland.add(rect(5.016205260977378e-09, 7.951249078239493e-10).transl(5.96176968834217e-08, -4e-08, 0))
hIsland = hIsland.add(rect(9.346780042904669e-09, 7.293538731398452e-10).transl(-3.504567819417086e-08, -4e-08, 0))
hIsland = hIsland.add(rect(9.375699786083953e-09, 2.717603887453618e-09).transl(-1.671182266805625e-09, -4e-08, 0))
hIsland = hIsland.add(rect(3.0489452393289264e-09, 2.253407689795112e-09).transl(-1.2670739350096916e-08, -4e-08, 0))
hIsland = hIsland.sub(rect(3.95355642696161e-09, -1.0777531654010435e-09).transl(1.4034721582268394e-08, -4e-08, 0))
hIsland = hIsland.add(rect(4.089296499079068e-09, 8.305472651159941e-10).transl(6.493534960306108e-08, -4e-08, 0))
hIsland = hIsland.add(rect(3.812675243319084e-09, 3.285055504699647e-09).transl(-8.423209462344144e-08, -3.733163074030902e-08, 0))
hIsland = hIsland.sub(rect(6.00466080471957e-09, -1.0321229864908875e-09).transl(5.276520637025813e-08, -4e-08, 0))
hIsland = hIsland.sub(rect(7.268679986870711e-09, -4.889521418700783e-10).transl(6.380503801311023e-08, -4e-08, 0))
hIsland = hIsland.sub(rect(5.6799683934318775e-09, -3.587866838768288e-10).transl(-5.371095885138473e-08, -4e-08, 0))
hIsland = hIsland.sub(rect(6.747091701284918e-09, -3.581018869516675e-10).transl(5.764876267140797e-08, -4e-08, 0))
hIsland = hIsland.sub(rect(4.924412083853656e-09, -1.3534182681959189e-09).transl(-6.044405053303066e-08, -4e-08, 0))
hIsland = hIsland.sub(rect(7.841344167552118e-09, -4.023961051719831e-09).transl(3.380280243637798e-08, -4e-08, 0))
hIsland = hIsland.add(rect(8.921985145126124e-09, 6.015083755843013e-10).transl(7.897044976099802e-08, -4e-08, 0))
hIsland = hIsland.add(rect(9.404394806872365e-09, 9.24965111278224e-11).transl(-4.699080846755406e-08, -4e-08, 0))
hIsland = hIsland.add(rect(4.1173226931217434e-09, 1.4260479471748244e-09).transl(-2.4958241328759697e-08, -4e-08, 0))
hIsland = hIsland.add(rect(8.792048690455602e-09, 1.9248179719039223e-09).transl(1.078228761129925e-08, -4e-08, 0))
hIsland = hIsland.add(rect(4.467362193614931e-09, 1.956931658485643e-09).transl(-5.99686126592886e-08, -4e-08, 0))
hIsland = hIsland.add(rect(6.8321640087738e-09, 8.707441321159697e-10).transl(3.104317975565017e-08, -4e-08, 0))
hIsland = hIsland.sub(rect(3.649117829527505e-09, -9.124901947977714e-11).transl(-2.122992333541635e-08, -4e-08, 0))
hIsland = hIsland.sub(rect(2.622179403279738e-09, -2.6916203569878534e-09).transl(-3.6514732461245386e-08, -4e-08, 0))
hIsland = hIsland.add(rect(6.162745793318449e-09, 8.011385674622354e-10).transl(-5.7674602661192354e-08, -4e-08, 0))
hIsland = hIsland.add(rect(7.459726689248799e-09, 1.5537626765069864e-09).transl(-7.84767258640397e-08, -4e-08, 0))
hIsland = hIsland.sub(rect(6.505336964779513e-09, -6.870071582886066e-10).transl(-7.987023946741288e-08, -4e-08, 0))
hIsland = hIsland.sub(rect(3.988528026566037e-09, -1.399946445488787e-09).transl(-3.031982788700428e-08, -4e-08, 0))
hIsland = hIsland.sub(rect(4.719398550839196e-09, -3.748688716289052e-09).transl(7.671410945439792e-08, -4e-08, 0))
hIsland = hIsland.add(rect(9.665338768103111e-09, 1.1809353997627212e-09).transl(-7.759798574573702e-09, -4e-08, 0))
hIsland = hIsland.add(rect(3.5729623508092986e-09, 2.304031681334907e-09).transl(5.4050624111818194e-08, -4e-08, 0))
hIsland = hIsland.sub(rect(2.7526613854750235e-09, -1.1124649610905302e-09).transl(7.625599009555864e-08, -4e-08, 0))
hIsland = hIsland.sub(rect(5.639685060721722e-09, -3.511554616332637e-09).transl(5.1786341350956565e-08, -4e-08, 0))
hIsland = hIsland.add(rect(8.490838995803792e-09, 1.664601721461359e-09).transl(-7.505119168065411e-08, -4e-08, 0))
hIsland = hIsland.sub(rect(5.2290844423957035e-09, -2.311674900119917e-09).transl(6.410946799928125e-08, -4e-08, 0))
hIsland = hIsland.add(rect(8.643641141079906e-09, 1.1719133442667628e-09).transl(-3.397626395552974e-08, -4e-08, 0))
hIsland = hIsland.sub(rect(4.902101388899461e-09, -5.371680207060808e-10).transl(-4.9596975405978e-09, -4e-08, 0))
hIsland = hIsland.add(rect(4.277248999884936e-09, 1.8509219537173812e-09).transl(-5.566673727569791e-08, -4e-08, 0))
hIsland = hIsland.sub(rect(4.629680078721977e-09, -1.2001512738287359e-09).transl(5.8403824437008645e-08, -4e-08, 0))
hIsland = hIsland.sub(rect(3.704109745932655e-09, -1.47083058768263e-09).transl(1.8769176404686763e-08, -4e-08, 0))
hIsland = hIsland.add(rect(4.36230801528722e-09, 2.755572756211914e-10).transl(5.8675406387482744e-08, -4e-08, 0))
hIsland = hIsland.add(rect(5.264820648517188e-09, 3.3866444013848364e-09).transl(-8.440015826115174e-08, -3.7035564835691376e-08, 0))
hIsland = hIsland.add(rect(7.421668916904933e-09, 2.205727293511013e-09).transl(1.75543567826573e-09, -4e-08, 0))
hIsland = hIsland.add(rect(7.240168303167358e-09, 1.230677945706707e-09).transl(5.999190930807246e-08, -4e-08, 0))
hIsland = hIsland.add(rect(5.042103575331783e-09, 8.235790484177811e-10).transl(5.188356073964723e-08, -4e-08, 0))
hIsland = hIsland.add(rect(6.615253775645148e-09, 1.2622443062319007e-09).transl(-4.0692083793670263e-08, -4e-08, 0))
hIsland = hIsland.sub(rect(7.463442048724294e-09, -8.441370889548645e-10).transl(-2.166161893092508e-08, -4e-08, 0))
hIsland = hIsland.add(rect(6.350710538508236e-09, 1.8123755923193992e-09).transl(8.516573060510714e-08, -3.545727765605732e-08, 0))
hIsland = hIsland.add(rect(2.168210636178058e-09, 1.1573838355153004e-09).transl(7.76722417719964e-08, -4e-08, 0))
hIsland = hIsland.add(rect(9.519598156038674e-09, 2.882438087019716e-09).transl(7.481418241995382e-08, -4e-08, 0))
hIsland = hIsland.add(rect(4.302143205242667e-09, 2.197025970509336e-09).transl(6.479597964829916e-08, -4e-08, 0))
hIsland = hIsland.add(rect(3.2720821505624216e-09, 2.88131139230986e-09).transl(-5.4627219803606485e-08, -4e-08, 0))
hIsland = hIsland.sub(rect(7.501886374995745e-09, -2.2858792199021187e-09).transl(7.665055554927852e-08, -4e-08, 0))
hIsland = hIsland.sub(rect(4.713062226762341e-09, -2.8321253199884965e-09).transl(-7.039917894775503e-08, -4e-08, 0))
hIsland = hIsland.add(rect(4.686771488840769e-09, 1.1574313175886848e-10).transl(-3.1353364431360356e-08, -4e-08, 0))
hIsland = hIsland.sub(rect(9.250134897899952e-09, -2.9393313289541715e-09).transl(5.0309391641636556e-08, -4e-08, 0))
hIsland = hIsland.sub(rect(9.938626097996164e-09, -2.158613463468755e-09).transl(7.635905561432993e-08, -4e-08, 0))
hIsland = hIsland.add(rect(3.840036254669466e-09, 4.748775324591091e-11).transl(1.9117023625430178e-08, -4e-08, 0))
hIsland = hIsland.add(rect(2.1499271764201336e-09, 2.2738933770621023e-10).transl(2.9784930279608973e-08, -4e-08, 0))
hIsland = hIsland.add(rect(5.28028134888598e-09, 1.0686634889904322e-09).transl(-6.365376796919507e-08, -4e-08, 0))
hIsland = hIsland.sub(rect(3.784251939361134e-09, -7.878727443913963e-10).transl(-4.9823955561727097e-08, -4e-08, 0))
hIsland = hIsland.sub(rect(7.331262670222253e-09, -5.115399425210905e-10).transl(-2.097541287444779e-08, -4e-08, 0))
hIsland = hIsland.add(rect(6.237886865369049e-09, 2.6516476032731315e-09).transl(6.150985209756289e-08, -4e-08, 0))
hIsland = hIsland.sub(rect(2.0370819275752895e-09, -8.860943216254557e-10).transl(-6.494741043403323e-08, -4e-08, 0))
hIsland = hIsland.sub(rect(3.421235133862914e-09, -1.6176141930974802e-09).transl(-7.269299729365796e-08, -4e-08, 0))
hIsland = hIsland.add(rect(4.957148727245231e-09, 2.599540962672124e-09).transl(6.678842698096205e-09, -4e-08, 0))
hIsland = hIsland.sub(rect(5.8352697878237994e-09, -2.7685859771649966e-09).transl(-3.583434295074099e-08, -4e-08, 0))
hIsland = hIsland.sub(rect(2.021707659905526e-09, -2.9017750165712313e-09).transl(-7.009352813177752e-08, 4e-08, 0))
hIsland = hIsland.add(rect(2.6974855356455657e-09, 2.5968803919168113e-09).transl(-5.4704500363196966e-08, 4e-08, 0))
hIsland = hIsland.sub(rect(9.25649789372523e-09, -1.8601835139233702e-09).transl(5.0174698177250856e-08, 4e-08, 0))
hIsland = hIsland.sub(rect(7.497329498631372e-09, -1.2229708051906719e-09).transl(-8.505969539581146e-08, 3.5699396071449434e-08, 0))
hIsland = hIsland.sub(rect(2.8779370985234334e-09, -3.2018732749840483e-09).transl(-2.6107603843478837e-08, 4e-08, 0))
hIsland = hIsland.add(rect(3.013693441964785e-09, 1.9517973715497922e-09).transl(-6.136581884392433e-08, 4e-08, 0))
hIsland = hIsland.add(rect(3.7242917485452535e-09, 2.6259626697620884e-09).transl(3.591221079312812e-08, 4e-08, 0))
hIsland = hIsland.sub(rect(4.790154191652687e-09, -1.0019858998089696e-09).transl(-1.4579757087134048e-08, 4e-08, 0))
hIsland = hIsland.sub(rect(7.745970748659225e-09, -1.1870809624794879e-09).transl(-8.653892674099872e-08, 3.1527464979859794e-08, 0))
hIsland = hIsland.add(rect(5.0240658721592284e-09, 1.7688240403291213e-10).transl(6.274805246131749e-09, 4e-08, 0))
hIsland = hIsland.add(rect(2.9666757594130327e-09, 1.7004209890287775e-09).transl(-5.47961032426579e-08, 4e-08, 0))
hIsland = hIsland.sub(rect(7.800451637866962e-09, -1.99834573619033e-09).transl(7.051397747687943e-08, 4e-08, 0))
hIsland = hIsland.add(rect(8.354880624990193e-09, 6.952838332993996e-10).transl(7.29600640633653e-08, 4e-08, 0))
hIsland = hIsland.sub(rect(4.616700966860985e-09, -8.864340020797446e-11).transl(7.473428380926418e-08, 4e-08, 0))
hIsland = hIsland.add(rect(5.951881885635473e-09, 3.219708537434371e-09).transl(-6.213196873287451e-08, 4e-08, 0))
hIsland = hIsland.sub(rect(2.7212288489181207e-09, -2.004875196222599e-09).transl(2.350058193441032e-08, 4e-08, 0))
hIsland = hIsland.sub(rect(8.562819575419148e-09, -1.1076578831712688e-09).transl(1.3930539260654897e-08, 4e-08, 0))
hIsland = hIsland.sub(rect(6.80243947895475e-09, -2.2445302174947276e-09).transl(9.50460339786254e-10, 4e-08, 0))
hIsland = hIsland.sub(rect(8.40035250155387e-09, -9.606223179317173e-10).transl(1.7764788362578368e-08, 4e-08, 0))
hIsland = hIsland.sub(rect(2.428233050520314e-09, -2.0853270914679647e-09).transl(6.326387613865316e-08, 4e-08, 0))
hIsland = hIsland.sub(rect(6.668146716351011e-09, -2.3100812076801287e-09).transl(-2.8177851508614504e-08, 4e-08, 0))
hIsland = hIsland.add(rect(5.061277777771826e-09, 1.1066538725983755e-09).transl(-4.2982898641230526e-08, 4e-08, 0))
hIsland = hIsland.sub(rect(9.397228629108365e-09, -7.912051335268587e-10).transl(1.3249730905441655e-08, 4e-08, 0))
hIsland = hIsland.sub(rect(4.579925811177393e-09, -1.1351888428142834e-09).transl(8.809745326028936e-08, 2.459595759941578e-08, 0))
hIsland = hIsland.add(rect(4.71990859705215e-09, 3.793062198925993e-09).transl(4.862967400637637e-08, 4e-08, 0))
hIsland = hIsland.sub(rect(5.222721533997035e-09, -6.551044106837782e-09).transl(7.10657379964268e-08, 4e-08, 0))
hIsland = hIsland.sub(rect(6.463051069355939e-09, -1.1886181910877803e-09).transl(-1.7475969655732128e-08, 4e-08, 0))
hIsland = hIsland.add(rect(9.707149087233261e-09, 4.968495371770118e-10).transl(-1.51926730025285e-08, 4e-08, 0))
hIsland = hIsland.sub(rect(3.3017173053941697e-09, -2.989052308415436e-09).transl(1.323911154819031e-08, 4e-08, 0))
hIsland = hIsland.sub(rect(6.594957812089697e-09, -7.529680013839054e-10).transl(5.390585878923859e-09, 4e-08, 0))
hIsland = hIsland.add(rect(8.201584230263762e-09, 3.5929321603418567e-10).transl(5.517149957506432e-08, 4e-08, 0))
hIsland = hIsland.sub(rect(4.469452429452387e-09, -9.768633257352557e-10).transl(1.0174964230316793e-08, 4e-08, 0))
hIsland = hIsland.add(rect(9.269452399358547e-09, 9.116337753716139e-10).transl(-7.070129037352672e-08, 4e-08, 0))
hIsland = hIsland.add(rect(3.689287754608959e-09, 1.11706260696202e-09).transl(-4.116899122532786e-08, 4e-08, 0))
hIsland = hIsland.sub(rect(7.509649866466707e-09, -3.134317881036184e-09).transl(8.538640790380167e-08, 3.4927629079503595e-08, 0))
hIsland = hIsland.sub(rect(7.2435497055010346e-09, -2.9198116535927177e-09).transl(-8.932045429302947e-08, 1.524777440637827e-08, 0))
hIsland = hIsland.add(rect(5.4794188475691694e-09, 4.368539084646308e-10).transl(-4.060097256902049e-08, 4e-08, 0))
hIsland = hIsland.sub(rect(5.379758101042371e-09, -1.9797463064014453e-09).transl(-5.089605814178587e-08, 4e-08, 0))
hIsland = hIsland.add(rect(6.866173987480344e-09, 3.090612107229268e-09).transl(6.424349651419665e-08, 4e-08, 0))
hIsland = hIsland.add(rect(7.711953901478162e-09, 2.331614879393894e-09).transl(1.366745210838955e-08, 4e-08, 0))
hIsland = hIsland.sub(rect(9.315429723575005e-09, -4.5481058792996655e-10).transl(-6.54412047439375e-08, 4e-08, 0))
hIsland = hIsland.add(rect(4.606034014069867e-09, 2.8733417566118297e-09).transl(6.093235836142529e-08, 4e-08, 0))
hIsland = hIsland.add(rect(4.739979897031601e-09, 8.783065889120105e-10).transl(-3.037348055342864e-09, 4e-08, 0))
hIsland = hIsland.sub(rect(8.810240669890774e-09, -1.8075742200328628e-09).transl(7.055885552426916e-08, 4e-08, 0))
hIsland = hIsland.add(rect(6.195933841108602e-09, 2.4283120845549693e-09).transl(-4.6034176397271975e-08, 4e-08, 0))
hIsland = hIsland.sub(rect(2.6080056658377714e-09, -3.070058809881969e-09).transl(-2.152741641797429e-08, 4e-08, 0))
hIsland = hIsland.add(rect(4.690398771497495e-09, 7.018831330002895e-10).transl(2.3837613370900445e-08, 4e-08, 0))
hIsland = hIsland.add(rect(6.748548295205127e-09, 2.7275008193803543e-09).transl(1.5308534297864084e-08, 4e-08, 0))
hIsland = hIsland.add(rect(2.11289808059673e-09, 3.3233811151181093e-09).transl(-6.9498476066737896e-09, 4e-08, 0))
hIsland = hIsland.add(rect(7.769529848180023e-09, 5.98799466747455e-10).transl(-2.2484346165282216e-08, 4e-08, 0))
hIsland = hIsland.add(rect(5.453463591707004e-09, 2.380319837431741e-10).transl(-8.852463746481944e-08, 2.1944860653396816e-08, 0))
hIsland = hIsland.sub(rect(3.918577467348981e-09, -3.5808247512276087e-09).transl(4.77117386862914e-09, 4e-08, 0))
hIsland = hIsland.add(rect(5.892036665981242e-09, 1.2159895403223515e-09).transl(1.0450372250187993e-08, 4e-08, 0))
hIsland = hIsland.sub(rect(7.0889546067315415e-09, -4.411296729683961e-09).transl(-2.206124393667796e-08, 4e-08, 0))
hIsland = hIsland.sub(rect(5.126305706162945e-09, -6.570024468821368e-10).transl(7.159059651155325e-08, 4e-08, 0))
hIsland = hIsland.sub(rect(9.105136833392727e-09, -1.3969840196265097e-09).transl(6.749155382501427e-08, 4e-08, 0))
hIsland = hIsland.add(rect(7.993713289735157e-09, 8.845172624369263e-10).transl(-4.182203006427044e-08, 4e-08, 0))
hIsland = hIsland.add(rect(5.26194450150225e-09, 4.082929714238548e-11).transl(-8.163166725368761e-08, 3.9901358986880095e-08, 0))
hIsland = hIsland.sub(rect(5.2223749475957135e-09, -3.4057195522777613e-09).transl(-2.6149010200808127e-08, 4e-08, 0))
hIsland = hIsland.add(rect(4.20473606105744e-09, 1.5741240587188255e-09).transl(5.5790699728810964e-08, 4e-08, 0))
hIsland = hIsland.sub(rect(3.5340552870867613e-09, -2.57289946932596e-09).transl(4.343987236297795e-08, 4e-08, 0))
hIsland = hIsland.sub(rect(8.17043001916535e-09, -8.795593670345611e-10).transl(9.930823069194152e-09, 4e-08, 0))
hIsland = hIsland.add(rect(8.725938885240734e-09, 3.4470183354085603e-09).transl(-3.529289258068466e-08, 4e-08, 0))
hIsland = hIsland.add(rect(5.02339464446304e-09, 5.539495564338466e-10).transl(8.754695231262921e-08, 2.744688803018322e-08, 0))
hIsland = hIsland.add(rect(8.345951428910295e-09, 1.485848737273193e-09).transl(-6.806504126203683e-08, 4e-08, 0))
hIsland = hIsland.sub(rect(3.214976515551247e-09, -4.4930753808744533e-10).transl(7.513014308739795e-08, 4e-08, 0))
hIsland = hIsland.add(rect(4.077067508803843e-09, 1.6913051548446832e-09).transl(-5.69402150614487e-08, 4e-08, 0))
hIsland = hIsland.add(rect(3.6577083830808292e-09, 1.1283467586163173e-09).transl(1.9888070693520933e-08, 4e-08, 0))
hIsland = hIsland.add(rect(5.10600822613659e-09, 5.25091225641419e-10).transl(-2.03812523886992e-09, 4e-08, 0))
hIsland = hIsland.add(rect(9.586862391981367e-09, 2.6160437259957256e-09).transl(-2.9123872858010457e-08, 4e-08, 0))
hIsland = hIsland.sub(rect(2.811642685688945e-09, -3.766317129317879e-09).transl(-2.7633414324984638e-08, 4e-08, 0))
hIsland = hIsland.add(rect(3.927896415816213e-09, 1.196049761136162e-09).transl(6.281182464891934e-08, 4e-08, 0))
hIsland = hIsland.sub(rect(3.201021437206568e-09, -1.0429220952633963e-09).transl(2.075141410127563e-08, 4e-08, 0))
hIsland = hIsland.add(rect(3.6371027792037867e-09, 2.290094670695567e-09).transl(-7.320732900208061e-08, 4e-08, 0))
hIsland = hIsland.add(rect(2.997751227020449e-09, 1.5251126038652472e-09).transl(6.63616657052436e-08, 4e-08, 0))
hIsland = hIsland.sub(rect(3.2926269298852752e-09, -5.701579941875294e-11).transl(3.6453246455090693e-08, 4e-08, 0))
hIsland = hIsland.add(rect(7.571455880327703e-09, 3.3282792960818127e-09).transl(1.5552107215767373e-09, 4e-08, 0))
hIsland = hIsland.add(rect(3.7648964751464794e-09, 1.6911309683537883e-09).transl(-1.0306701168319808e-09, 4e-08, 0))
hIsland = hIsland.sub(rect(5.249194112225809e-09, -1.3358049393837237e-09).transl(1.89645729356308e-08, 4e-08, 0))
hIsland = hIsland.sub(rect(2.8940804054961645e-09, -3.3464042285339476e-09).transl(-1.4725430471412765e-08, 4e-08, 0))
hIsland = hIsland.add(rect(7.68072127520617e-09, 6.248776474800681e-10).transl(5.792874342367504e-08, 4e-08, 0))
hIsland = hIsland.add(rect(2.876334796932769e-09, 3.3076372643399055e-11).transl(-3.308027370323687e-08, 4e-08, 0))
hIsland = hIsland.add(rect(2.924285617378079e-09, 2.1920943987520704e-09).transl(-3.2335804199421106e-08, 4e-08, 0))
hIsland = hIsland.sub(rect(2.632168336722743e-09, -4.942620691111223e-10).transl(-3.9104807187208204e-08, 4e-08, 0))
hIsland = hIsland.add(rect(8.413797273420655e-09, 1.4095741951772248e-10).transl(3.814684871762252e-08, 4e-08, 0))
hIsland = hIsland.add(rect(2.1417602724807523e-09, 6.105421967186627e-09).transl(-2.3287153798233713e-08, 4e-08, 0))
hIsland = hIsland.sub(rect(6.104825233803661e-09, -1.3664487860778203e-09).transl(-7.03524172852589e-08, 4e-08, 0))
hIsland = hIsland.add(rect(6.1867163750999495e-09, 1.1433772069615568e-09).transl(-3.238122553051681e-08, 4e-08, 0))
hIsland = hIsland.add(rect(5.01243902510871e-09, 2.5163637220145903e-11).transl(8.79954337968972e-08, 2.5166666565897923e-08, 0))
hIsland = hIsland.add(rect(3.2573240346277947e-09, 2.4489607692859224e-09).transl(2.7192036376267938e-08, 4e-08, 0))
hIsland = hIsland.add(rect(6.970006168310607e-09, 8.099740414722438e-10).transl(-3.4623798328548954e-08, 4e-08, 0))
hIsland = hIsland.add(rect(9.476786480395686e-09, 8.040637689486986e-11).transl(1.2370171200353715e-08, 4e-08, 0))
hIsland = hIsland.sub(rect(2.148264401725797e-09, -2.3278473274163666e-09).transl(8.18592064047153e-08, 3.981730236327318e-08, 0))
hIsland = hIsland.add(rect(8.72616805127028e-09, 1.5377714524408214e-09).transl(-6.883271453849769e-09, 4e-08, 0))
hIsland = hIsland.add(rect(2.950118650850828e-09, 2.2854153653888005e-10).transl(-1.2451415868566834e-09, 4e-08, 0))
hIsland = hIsland.sub(rect(7.758129665765947e-09, -1.4461512321384427e-09).transl(8.714663785807793e-08, 2.921823987791403e-08, 0))
hIsland = hIsland.add(rect(7.096676545348737e-09, 5.861729036903761e-10).transl(7.43929766847888e-08, 4e-08, 0))
hIsland = hIsland.add(rect(4.936373724850102e-09, 1.0558820755144035e-09).transl(6.197861368703224e-08, 4e-08, 0))
hIsland = hIsland.sub(rect(7.756305193318662e-09, -3.851045405121889e-09).transl(5.384397873676198e-08, 4e-08, 0))
hIsland = hIsland.add(rect(5.4316360648029935e-09, 2.0610124462179775e-10).transl(-4.167063754296308e-08, 4e-08, 0))
hIsland = hIsland.sub(rect(9.658536805669976e-09, -5.492773392671991e-10).transl(-6.217905219246209e-08, 4e-08, 0))
hIsland = hIsland.sub(rect(9.213211737124525e-09, -6.503726509535664e-10).transl(2.137884023687043e-09, 4e-08, 0))
hIsland = hIsland.add(rect(9.994947049097561e-09, 3.6848476364377984e-09).transl(3.160537568158929e-08, 4e-08, 0))
hIsland = hIsland.sub(rect(3.1502453949215905e-09, -1.435401087130097e-09).transl(-2.4911416611161182e-08, 4e-08, 0))
hIsland = hIsland.sub(rect(3.6877203268227e-09, -1.809307980479846e-09).transl(-8.424119479134938e-08, 3.7316042642665485e-08, 0))
hIsland = hIsland.add(rect(6.510268623068596e-09, 2.901966067395286e-09).transl(-3.2191085751610236e-08, 4e-08, 0))
hIsland = hIsland.add(rect(2.7189104794369606e-09, 2.138595591495421e-09).transl(7.468828093512924e-10, 4e-08, 0))
hIsland = hIsland.sub(rect(9.61875262312989e-09, -2.9743311334486515e-09).transl(-6.349726020753638e-08, 4e-08, 0))
hIsland = hIsland.sub(rect(7.0155627437776755e-09, -3.124035376174133e-09).transl(1.693766136813847e-09, 4e-08, 0))
hIsland = hIsland.add(rect(9.446733558797477e-09, 1.6237677147385825e-09).transl(-1.5346853364965633e-08, 4e-08, 0))
hIsland = hIsland.add(rect(8.914895566850782e-09, 2.3091820406501078e-09).transl(8.767450089356969e-08, 2.6833197725624713e-08, 0))
hIsland = hIsland.sub(rect(6.003787237043235e-09, -2.787960862150376e-09).transl(-8.333434429374154e-08, 3.8631104136184975e-08, 0))
hIsland = hIsland.add(rect(3.972889205517608e-09, 7.16461607732193e-10).transl(8.06629995758853e-08, 4e-08, 0))
hIsland = hIsland.add(rect(5.129781547488325e-09, 7.917442892595793e-10).transl(-8.589393864041033e-08, 3.356934656524841e-08, 0))
hIsland = hIsland.add(rect(2.5433324920389223e-09, 1.2743557745224091e-09).transl(3.627098104065237e-08, 4e-08, 0))
hIsland = hIsland.sub(rect(7.527211472800956e-09, -1.0689039923778989e-09).transl(-7.737625426457505e-08, 4e-08, 0))
hIsland = hIsland.add(rect(6.069251056238447e-09, 3.553422245364026e-09).transl(-3.050109036097497e-08, 4e-08, 0))
hIsland = hIsland.add(rect(3.6656823053566455e-09, 3.5870591232605574e-09).transl(-4.285682513056301e-09, 4e-08, 0))
hIsland = hIsland.sub(rect(2.478426411627748e-09, -2.674279698848496e-09).transl(-5.6463321812013244e-08, 4e-08, 0))
hIsland = hIsland.add(rect(3.853289462528723e-09, 9.605220458087976e-10).transl(1.1301132910274285e-08, 4e-08, 0))
hIsland = hIsland.add(rect(2.024047962614798e-09, 2.6815658106017044e-09).transl(3.956151814821321e-08, 4e-08, 0))
hIsland = hIsland.sub(rect(7.12004299225889e-09, -1.1063210258871194e-09).transl(-7.122062072769179e-08, 4e-08, 0))
hIsland = hIsland.sub(rect(6.55691787933559e-09, -4.578111043290991e-09).transl(5.071261748987322e-08, 4e-08, 0))
hIsland = hIsland.sub(rect(2.2001836595493114e-09, -2.526662868988985e-10).transl(3.2089480706818486e-08, 4e-08, 0))
hIsland = hIsland.add(rect(9.638185730522501e-09, 1.1230662999805661e-10).transl(8.602911750675539e-08, 3.317234519882572e-08, 0))
hIsland = hIsland.add(rect(9.221582595890653e-09, 1.4901414043441532e-09).transl(9.703431254390761e-09, 4e-08, 0))
hIsland = hIsland.add(rect(8.299046834697799e-09, 3.4362162272108453e-09).transl(-5.672989100055996e-08, 4e-08, 0))
hIsland = hIsland.sub(rect(7.242868827349264e-09, -1.093875850124355e-09).transl(-2.6799571874372253e-08, 4e-08, 0))
hIsland = hIsland.add(rect(7.90352953843039e-09, 3.2367645063074227e-09).transl(6.064711255830251e-08, 4e-08, 0))
hIsland = hIsland.sub(rect(8.25801903856611e-09, -3.990405326233257e-11).transl(6.979734849468714e-08, 4e-08, 0))
hIsland = hIsland.sub(rect(6.400890987151744e-09, -3.0754585544764293e-09).transl(-8.255168128523622e-08, 3.9401017769407174e-08, 0))
hIsland = hIsland.sub(rect(5.575373791457462e-09, -1.2021955930261332e-09).transl(-7.226112923781051e-08, 4e-08, 0))
hIsland = hIsland.sub(rect(7.65074896677064e-09, -2.275727877494237e-09).transl(-3.412042862740969e-08, 4e-08, 0))
hIsland = hIsland.add(rect(2.513719827252639e-09, 3.0275729025952877e-09).transl(-1.887645259863625e-08, 4e-08, 0))
hIsland = hIsland.sub(rect(8.407953692202754e-09, -3.32902179570786e-09).transl(2.5556354609503463e-08, 4e-08, 0))
hIsland = hIsland.add(rect(7.874456126357572e-09, 3.9014425434419957e-10).transl(-1.059588699630839e-08, 4e-08, 0))
hIsland = hIsland.sub(rect(9.613961196373008e-09, -1.2811108162057762e-09).transl(-8.742087208723165e-08, 2.802905076352727e-08, 0))
hIsland = hIsland.sub(rect(8.486012113418431e-09, -1.182812534613147e-09).transl(-6.446641051812993e-08, 4e-08, 0))
hIsland = hIsland.sub(rect(2.624124395775998e-09, -1.3322878407497373e-09).transl(2.6518933290937814e-08, 4e-08, 0))
hIsland = hIsland.sub(rect(3.985765792983096e-09, -2.682112434136124e-10).transl(1.091341797739189e-09, 4e-08, 0))
hIsland = hIsland.sub(rect(8.935451499730449e-09, -9.289403537887939e-10).transl(-6.796902727225286e-08, 4e-08, 0))
hIsland = hIsland.add(rect(3.473598209943523e-09, 2.615029733495106e-10).transl(-2.9501465017312017e-08, 4e-08, 0))
hIsland = hIsland.sub(rect(5.415195260699478e-09, -1.4909129172197518e-09).transl(-6.773264835136049e-08, 4e-08, 0))
hIsland = hIsland.add(rect(6.325091609400044e-09, 2.71012397936626e-09).transl(6.563447945220837e-08, 4e-08, 0))
hIsland = hIsland.add(rect(8.204504375459522e-09, 4.466769056237176e-09).transl(-3.374108093061122e-08, 4e-08, 0))
hIsland = hIsland.add(rect(3.447919224692686e-09, 1.1830129717397937e-09).transl(-4.012269178485068e-09, 4e-08, 0))
hIsland = hIsland.add(rect(7.818408566539057e-09, 4.866137822686011e-11).transl(6.230949191990143e-08, 4e-08, 0))
hIsland = hIsland.add(rect(9.510352249281912e-09, 2.0687139286852857e-09).transl(6.088052825660168e-08, 4e-08, 0))
hIsland = hIsland.sub(rect(2.700593574009993e-09, -3.4619279792984836e-10).transl(7.931327925954953e-08, 4e-08, 0))
hIsland = hIsland.sub(rect(3.042410385705031e-09, -1.5582128394932904e-09).transl(8.57357828025926e-08, 3.4014480938483194e-08, 0))
hIsland = hIsland.sub(rect(8.28707904947272e-09, -1.1555639973812838e-09).transl(-3.7634400568197384e-08, 4e-08, 0))
hIsland = hIsland.add(rect(4.458685283558022e-09, 3.6367752359591956e-09).transl(2.1023887767618027e-10, 4e-08, 0))
hIsland = hIsland.sub(rect(5.259962851564332e-09, -4.7921961115548397e-11).transl(5.933721323211959e-08, 4e-08, 0))
hIsland = hIsland.sub(rect(3.2740882739595475e-09, -3.3212450538159558e-09).transl(-5.347930964552582e-08, 4e-08, 0))
hIsland = hIsland.add(rect(8.771566676885033e-09, 1.924524149056825e-09).transl(-8.28620013982674e-09, 4e-08, 0))
hIsland = hIsland.sub(rect(2.9202935291433844e-09, -2.359525261007493e-09).transl(-8.868749157674328e-08, 2.0800034785109252e-08, 0))
hIsland = hIsland.sub(rect(3.6490716179862465e-09, -1.2208594149450089e-09).transl(1.6715093242634064e-08, 4e-08, 0))
hIsland = hIsland.sub(rect(7.657865837621195e-09, -1.2991425594801233e-09).transl(-6.191826636996374e-08, 4e-08, 0))
hIsland = hIsland.add(rect(8.32788282874875e-09, 1.8172646117995284e-09).transl(7.87410447485196e-08, 4e-08, 0))
hIsland = hIsland.add(rect(4.805476049751402e-09, 9.642628381178932e-10).transl(-2.377474167518121e-08, 4e-08, 0))
hIsland = hIsland.sub(rect(9.105590721755516e-09, -5.45946402718907e-10).transl(2.8135491395391884e-08, 4e-08, 0))
hIsland = hIsland.add(rect(5.080504821992065e-09, 9.477118125047825e-10).transl(3.6030898359032134e-08, 4e-08, 0))
hIsland = hIsland.sub(rect(9.97531613538767e-09, -6.565547244044012e-10).transl(-3.832806419948079e-08, 4e-08, 0))
hIsland = hIsland.add(rect(8.825603669145245e-09, 1.0184773729935152e-09).transl(3.0190933733341674e-08, 4e-08, 0))
hIsland = hIsland.add(rect(2.2611815573477e-09, 1.456054271324459e-09).transl(7.941082089988921e-08, 4e-08, 0))
hIsland = hIsland.sub(rect(4.582116482849193e-09, -1.4958740410979213e-09).transl(-6.521203752061714e-08, 4e-08, 0))
hIsland = hIsland.sub(rect(3.458695677414167e-09, -4.675655580184121e-10).transl(2.2966620827778626e-08, 4e-08, 0))
hIsland = hIsland.add(rect(9.491885934821928e-09, 1.4591391320881234e-09).transl(-3.699586767082811e-08, 4e-08, 0))
hIsland = hIsland.sub(rect(6.8313855737271e-09, -5.981807786030418e-10).transl(-2.8777698616264417e-08, 4e-08, 0))
hIsland = hIsland.add(rect(2.7114776870656414e-09, 6.313651379477145e-10).transl(-8.849370847075965e-08, 2.21529290119322e-08, 0))
hIsland = hIsland.add(rect(7.758902103114238e-09, 9.555699569327955e-12).transl(-1.9371971361617368e-08, 4e-08, 0))
hIsland = hIsland.sub(rect(4.570126947478304e-09, -1.3865231469293423e-10).transl(-3.787560627985197e-08, 4e-08, 0))
hIsland = hIsland.sub(rect(9.500442108620032e-09, -4.999611124583491e-10).transl(-4.375434823437132e-08, 4e-08, 0))
hIsland = hIsland.add(rect(2.6292154462599433e-09, 9.978406309981415e-10).transl(2.0113745138533673e-08, 4e-08, 0))
hIsland = hIsland.sub(rect(7.279187185649011e-09, -2.2276744482302503e-10).transl(3.515963526269989e-08, 4e-08, 0))
hIsland = hIsland.sub(rect(6.511280697131403e-09, -1.7894994293629094e-09).transl(5.544640876545386e-08, 4e-08, 0))
hIsland = hIsland.add(rect(5.164876307456287e-09, 1.5641465736947739e-09).transl(-4.8929430600170647e-08, 4e-08, 0))
hIsland = hIsland.sub(rect(3.6024563843544036e-09, -4.271198475028126e-10).transl(2.2087032931862518e-08, 4e-08, 0))
hIsland = hIsland.add(rect(7.218086223135395e-09, 4.967364703168231e-09).transl(6.231486630914064e-08, 4e-08, 0))
hIsland = hIsland.sub(rect(7.281788126266294e-09, -1.4178214040766784e-09).transl(2.3558054886669247e-08, 4e-08, 0))
hIsland = hIsland.add(rect(7.205820015359043e-09, 5.577007318116975e-09).transl(-6.607294960785087e-08, 4e-08, 0))
hIsland = hIsland.sub(rect(4.933399065016749e-09, -9.92913083568235e-10).transl(-8.300079640177212e-08, 3.8999034811394514e-08, 0))
hIsland = hIsland.sub(rect(5.878281160414317e-09, -3.513122207541245e-10).transl(-8.699315363601592e-08, 2.984142766091571e-08, 0))
hIsland = hIsland.sub(rect(9.525390232786828e-09, -6.987575237615254e-11).transl(-3.0494342899311223e-08, 4e-08, 0))
hIsland = hIsland.add(rect(8.546089005797473e-09, 3.5680924679543115e-09).transl(5.789708606788236e-08, 4e-08, 0))
hIsland = hIsland.sub(rect(2.858280755406784e-09, -8.494320608532683e-10).transl(-2.288736842551425e-08, 4e-08, 0))
hIsland = hIsland.add(rect(6.979864380154617e-09, 6.128737997176458e-10).transl(5.1187196705112646e-08, 4e-08, 0))
hIsland = hIsland.sub(rect(7.227998461651808e-09, -1.5142709032591469e-09).transl(-7.116936438891481e-08, 4e-08, 0))
hIsland = hIsland.add(rect(4.295416482687548e-09, 9.300109472038614e-11).transl(2.5318796547779017e-08, 4e-08, 0))
hIsland = hIsland.add(rect(4.470939803406136e-09, 1.949582426992256e-09).transl(6.82860867238626e-08, 4e-08, 0))
hIsland = hIsland.add(rect(4.179977314122809e-09, 1.865689635283157e-09).transl(-8.232437513631587e-08, 3.956455091183866e-08, 0))
hIsland = hIsland.add(rect(2.622318030437006e-09, 2.2442867923588985e-09).transl(-1.4216438436900627e-08, 4e-08, 0))
hIsland = hIsland.sub(rect(4.428690701734224e-09, -3.547570641522744e-09).transl(6.665362830413584e-08, 4e-08, 0))
hIsland = hIsland.sub(rect(3.665535398254604e-09, -8.954569412935869e-10).transl(7.389608568298933e-08, 4e-08, 0))
hIsland = hIsland.add(rect(3.152938056583983e-09, 6.905626876360727e-10).transl(5.991537020004807e-08, 4e-08, 0))
hIsland = hIsland.add(rect(3.973557478761276e-09, 1.1674989552099214e-09).transl(-2.7877861465001678e-08, 4e-08, 0))
hIsland = hIsland.add(rect(9.227257494355869e-09, 9.518278965064519e-10).transl(1.2294778063302432e-08, 4e-08, 0))
hIsland = hIsland.sub(rect(7.388849712496546e-09, -9.14085145330474e-10).transl(2.7275847600638567e-08, 4e-08, 0))
hIsland = hIsland.add(rect(4.141469939099787e-09, 3.0100647167681646e-09).transl(1.4911409574145105e-08, 4e-08, 0))
hIsland = hIsland.sub(rect(6.251139607731801e-09, -3.7327879688590835e-10).transl(-1.513125908756631e-08, 4e-08, 0))
vIsland = hIsland.rotz(pi / 2)
hIslands = hIslands.add(hIsland.transl(-a/2, a, 0))
hIsland = rect(islandLength-2*ellipseConstant, islandWidth)
hIsland = hIsland.add(ellipse(ellipseConstant*2, islandWidth).transl(islandLength/2-ellipseConstant, 0, 0))
hIsland = hIsland.add(ellipse(ellipseConstant*2, islandWidth).transl(-islandLength/2+ellipseConstant, 0, 0))
hIsland = hIsland.sub(rect(3.6597895679995933e-09, -2.6259347192585465e-09).transl(-8.11931975643231e-08, -3.999078281486833e-08, 0))
hIsland = hIsland.sub(rect(9.26906120663331e-09, -7.7061682125808e-10).transl(8.68469312626201e-08, -3.040902881197982e-08, 0))
hIsland = hIsland.add(rect(9.627445140477776e-09, 3.5408169931619456e-10).transl(-5.6484267574828415e-08, -4e-08, 0))
hIsland = hIsland.add(rect(3.970710984847149e-09, 7.438916067023548e-10).transl(-4.6458402581663574e-08, -4e-08, 0))
hIsland = hIsland.sub(rect(5.853443690266934e-09, -1.0444748664341358e-09).transl(-8.141726005439453e-08, -3.995698775013364e-08, 0))
hIsland = hIsland.sub(rect(4.488467382184593e-09, -6.828142393140082e-10).transl(5.870017150937639e-09, -4e-08, 0))
hIsland = hIsland.add(rect(2.3173463799663185e-09, 4.1020082592086905e-10).transl(1.205592447567016e-08, -4e-08, 0))
hIsland = hIsland.sub(rect(7.817489724589491e-09, -5.799241531030816e-10).transl(1.7839151784205003e-08, -4e-08, 0))
hIsland = hIsland.add(rect(3.701385760044745e-09, 1.268139665520292e-09).transl(3.844745896711744e-08, -4e-08, 0))
hIsland = hIsland.add(rect(2.047974509592981e-09, 2.173063036458656e-09).transl(1.7724890321154375e-09, -4e-08, 0))
hIsland = hIsland.add(rect(9.652466327189825e-09, 9.758095977790083e-10).transl(-6.593141541581381e-08, -4e-08, 0))
hIsland = hIsland.add(rect(6.426424772844245e-09, 8.655995306420401e-10).transl(7.11088765581804e-08, -4e-08, 0))
hIsland = hIsland.add(rect(2.4731568178931946e-09, 4.456068308095626e-10).transl(1.3995486223503622e-08, -4e-08, 0))
hIsland = hIsland.add(rect(8.41588119540386e-09, 2.568894484498045e-09).transl(8.592516965805847e-08, -3.347900136845401e-08, 0))
hIsland = hIsland.sub(rect(9.748808226718114e-09, -2.4532878421438137e-10).transl(6.87761213177941e-08, -4e-08, 0))
hIsland = hIsland.add(rect(3.0126139226640076e-09, 3.513279567023856e-10).transl(-5.9640628774233905e-09, -4e-08, 0))
hIsland = hIsland.sub(rect(9.046077056714438e-09, -1.4609205351671862e-09).transl(-6.157725179058606e-08, -4e-08, 0))
hIsland = hIsland.add(rect(7.0461911378828186e-09, 2.8386321235374553e-09).transl(-4.1403674908978584e-08, -4e-08, 0))
hIsland = hIsland.add(rect(3.24245624378929e-09, 5.484811783895265e-10).transl(-6.465433400420797e-08, -4e-08, 0))
hIsland = hIsland.sub(rect(4.495256799906434e-09, -3.5342107705887647e-10).transl(-6.468745038093572e-08, -4e-08, 0))
hIsland = hIsland.add(rect(3.254301604204531e-09, 2.2069979024830739e-10).transl(-8.162562913457196e-08, -3.990323807176364e-08, 0))
hIsland = hIsland.add(rect(3.443508282839707e-09, 6.714264403493768e-10).transl(2.100681407738719e-09, -4e-08, 0))
hIsland = hIsland.sub(rect(3.748971669070406e-09, -4.5910935492140114e-10).transl(4.814416238655941e-08, -4e-08, 0))
hIsland = hIsland.sub(rect(4.406728429045376e-09, -9.184983044770067e-10).transl(-7.989007591194177e-08, -4e-08, 0))
hIsland = hIsland.add(rect(6.755983750550428e-09, 8.796436135967716e-10).transl(-4.355750729683281e-08, -4e-08, 0))
hIsland = hIsland.sub(rect(3.782498484445386e-09, -4.674372100373381e-09).transl(1.7435071097985846e-08, -4e-08, 0))
hIsland = hIsland.add(rect(3.186645812855585e-09, 4.1585546075936834e-10).transl(4.9627360675795556e-08, -4e-08, 0))
hIsland = hIsland.sub(rect(6.771544285555845e-09, -8.836922479187953e-10).transl(3.66656116546357e-08, -4e-08, 0))
hIsland = hIsland.add(rect(5.2582927567384355e-09, 3.4543386753054905e-09).transl(-1.5454306712940854e-08, -4e-08, 0))
hIsland = hIsland.sub(rect(2.948247184128708e-09, -1.422488080575452e-09).transl(-7.373092781315876e-08, -4e-08, 0))
hIsland = hIsland.add(rect(9.004283516072966e-09, 1.8020630524872397e-09).transl(7.335870605746593e-08, -4e-08, 0))
hIsland = hIsland.add(rect(3.6543851958562536e-09, 7.417842612337874e-10).transl(-2.8372659042493902e-08, -4e-08, 0))
hIsland = hIsland.sub(rect(4.248084841007441e-09, -3.6906613194286014e-10).transl(-5.3564894443498004e-08, -4e-08, 0))
hIsland = hIsland.add(rect(8.365359529261878e-09, 3.1162047318463542e-09).transl(7.554418737389635e-08, -4e-08, 0))
hIsland = hIsland.add(rect(3.115976959393554e-09, 2.099737712935183e-09).transl(4.540244803673339e-08, -4e-08, 0))
hIsland = hIsland.sub(rect(3.071783250114864e-09, -8.642772476665084e-10).transl(4.360713894510732e-09, -4e-08, 0))
hIsland = hIsland.sub(rect(5.8138156886015e-09, -3.132515461989721e-09).transl(-2.3674847305663598e-09, -4e-08, 0))
hIsland = hIsland.add(rect(5.922025672027626e-09, 1.9591918964009234e-10).transl(-6.24463898335726e-09, -4e-08, 0))
hIsland = hIsland.sub(rect(7.44001123144195e-09, -8.884974993043844e-10).transl(-4.347607159831763e-08, -4e-08, 0))
hIsland = hIsland.add(rect(9.147260815963656e-09, 1.4836401599637118e-11).transl(-3.8401615721864654e-08, -4e-08, 0))
hIsland = hIsland.sub(rect(2.6319060216214398e-09, -8.310512097421632e-10).transl(-2.6414444440550713e-08, -4e-08, 0))
hIsland = hIsland.add(rect(5.335127129968549e-09, 1.2677445397871724e-09).transl(7.963666126858642e-08, -4e-08, 0))
hIsland = hIsland.add(rect(6.543735626088947e-09, 1.4053920073873168e-10).transl(6.915817477788275e-09, -4e-08, 0))
hIsland = hIsland.add(rect(3.4903361022365245e-09, 2.214527430745364e-09).transl(-1.5545454216705178e-09, -4e-08, 0))
hIsland = hIsland.add(rect(3.4912789661399606e-09, 2.116831241458759e-09).transl(-1.6896500215822164e-08, -4e-08, 0))
hIsland = hIsland.add(rect(9.469423434906287e-09, 2.260210664106524e-09).transl(3.5202173936589945e-08, -4e-08, 0))
hIsland = hIsland.sub(rect(9.879811826005095e-09, -2.372506965659446e-10).transl(6.713231406203799e-08, -4e-08, 0))
hIsland = hIsland.add(rect(6.7495391925116435e-09, 8.574751289745859e-10).transl(-8.234594354618013e-08, -3.9550170912023795e-08, 0))
hIsland = hIsland.sub(rect(2.2502839839767843e-09, -4.752571596210826e-10).transl(-4.887255740944324e-08, -4e-08, 0))
hIsland = hIsland.sub(rect(5.216216662476038e-09, -3.2678183448235776e-09).transl(3.909610358716289e-08, -4e-08, 0))
hIsland = hIsland.sub(rect(8.340346688527382e-09, -1.0122041468699452e-09).transl(-2.287410984709569e-08, -4e-08, 0))
hIsland = hIsland.add(rect(4.940998955758077e-09, 1.1805343504364707e-09).transl(-3.69682256738879e-08, -4e-08, 0))
hIsland = hIsland.add(rect(3.6356538985389037e-09, 2.3090799554379396e-09).transl(-7.489180290226888e-08, -4e-08, 0))
hIsland = hIsland.add(rect(3.871471907302328e-09, 1.6328191039105605e-09).transl(1.1213262263230093e-08, -4e-08, 0))
hIsland = hIsland.sub(rect(7.328792003390291e-09, -3.4147417379487207e-09).transl(4.289422266354216e-08, -4e-08, 0))
hIsland = hIsland.sub(rect(8.991696178697425e-09, -3.4452605206712136e-09).transl(-8.626848154713138e-08, -3.2430164951263335e-08, 0))
hIsland = hIsland.add(rect(6.573170836169958e-09, 5.547895701542122e-10).transl(1.861992375940109e-08, -4e-08, 0))
hIsland = hIsland.sub(rect(2.4965338169130843e-09, -2.0248669529595407e-09).transl(8.375113715311361e-08, -3.808534778424732e-08, 0))
hIsland = hIsland.sub(rect(7.910793587307813e-09, -7.456697059287938e-10).transl(3.475918305703044e-08, -4e-08, 0))
hIsland = hIsland.add(rect(4.131128690430058e-09, 4.5718109708775427e-10).transl(6.634010803431989e-08, -4e-08, 0))
hIsland = hIsland.add(rect(9.479945015943873e-09, 7.434775196341369e-10).transl(3.763832311716373e-08, -4e-08, 0))
hIsland = hIsland.sub(rect(6.406385140957517e-09, -3.6613148639690915e-09).transl(7.26096091922716e-08, -4e-08, 0))
hIsland = hIsland.add(rect(7.161924058931593e-09, 6.55520429443769e-10).transl(6.65572001545426e-08, -4e-08, 0))
hIsland = hIsland.sub(rect(9.343988751439402e-09, -2.285037155520458e-09).transl(-4.8657446224301094e-08, -4e-08, 0))
hIsland = hIsland.sub(rect(4.929496013741829e-09, -2.820960514028169e-09).transl(-5.762959039864976e-08, -4e-08, 0))
hIsland = hIsland.add(rect(2.928405058352515e-09, 2.053322177370165e-09).transl(2.1972343532794874e-09, -4e-08, 0))
hIsland = hIsland.add(rect(9.730160390203306e-09, 1.6454274913127507e-09).transl(-8.19968613088661e-08, -3.975387675006643e-08, 0))
hIsland = hIsland.add(rect(6.90975049886034e-09, 1.3410929431515534e-09).transl(-1.1898257300508851e-08, -4e-08, 0))
hIsland = hIsland.add(rect(7.384681748008677e-09, 2.4144652423785902e-09).transl(3.0557435715951756e-08, -4e-08, 0))
hIsland = hIsland.add(rect(8.436265509000882e-09, 3.383485448677676e-09).transl(5.5491361532041474e-08, -4e-08, 0))
hIsland = hIsland.sub(rect(8.78935269104694e-09, -1.1750478039328843e-09).transl(8.656000887783565e-09, -4e-08, 0))
hIsland = hIsland.add(rect(3.4452336700490904e-09, 1.7542789701060893e-09).transl(3.416074246000467e-08, -4e-08, 0))
hIsland = hIsland.add(rect(7.457458647058387e-09, 3.6078229879862245e-10).transl(-7.204831007791995e-08, -4e-08, 0))
hIsland = hIsland.add(rect(7.578348419400238e-09, 7.836222472499954e-10).transl(-6.799970030458717e-08, -4e-08, 0))
hIsland = hIsland.sub(rect(5.9440220085320294e-09, -1.9557362943599706e-11).transl(4.460470246120232e-09, -4e-08, 0))
hIsland = hIsland.add(rect(5.3051264806904885e-09, 9.091171997469562e-10).transl(1.9423936127293615e-08, -4e-08, 0))
hIsland = hIsland.add(rect(4.267822004941914e-09, 8.279960062316603e-10).transl(-4.015788016682821e-08, -4e-08, 0))
hIsland = hIsland.sub(rect(6.890849202019533e-09, -1.302255297677051e-10).transl(-3.4580716477873654e-08, -4e-08, 0))
hIsland = hIsland.sub(rect(5.278327138565518e-09, -3.3354286125972555e-09).transl(6.131308926349476e-08, -4e-08, 0))
hIsland = hIsland.add(rect(4.071674665618128e-09, 1.815039003774952e-09).transl(-9.063954651668622e-09, -4e-08, 0))
hIsland = hIsland.sub(rect(2.9236932657045476e-09, -1.827598173836619e-09).transl(3.063952801519013e-08, -4e-08, 0))
hIsland = hIsland.sub(rect(4.655405112455676e-09, -1.1020596521943277e-09).transl(-3.214248453520807e-09, -4e-08, 0))
hIsland = hIsland.sub(rect(7.440188141844097e-09, -9.365191854159316e-10).transl(5.3893750997812686e-09, -4e-08, 0))
hIsland = hIsland.add(rect(5.278250447081712e-09, 1.5427898282128333e-09).transl(-4.769685116845712e-08, -4e-08, 0))
hIsland = hIsland.add(rect(3.779797582370851e-09, 3.4839022447473392e-09).transl(1.3103850012186522e-09, -4e-08, 0))
hIsland = hIsland.add(rect(3.2865367782678385e-09, 4.398219035196877e-10).transl(-1.0264530991087584e-09, -4e-08, 0))
hIsland = hIsland.add(rect(3.0685195342534614e-09, 5.057761381903364e-09).transl(-2.1637958089323057e-08, -4e-08, 0))
hIsland = hIsland.add(rect(2.628145859582996e-09, 1.8450674825289472e-09).transl(-5.961771364845014e-08, -4e-08, 0))
hIsland = hIsland.add(rect(8.289380905985917e-09, 1.451329063168753e-09).transl(-4.904319203016654e-08, -4e-08, 0))
hIsland = hIsland.add(rect(7.522733104590184e-09, 1.676658377828379e-09).transl(-4.959436119899588e-08, -4e-08, 0))
hIsland = hIsland.sub(rect(2.593052598529262e-09, -6.307352070666599e-10).transl(3.447983706342823e-08, -4e-08, 0))
hIsland = hIsland.sub(rect(2.4223906694006384e-09, -2.307452294739459e-09).transl(-5.704424258246081e-08, -4e-08, 0))
hIsland = hIsland.sub(rect(6.292888972714948e-09, -1.3908052866397204e-09).transl(-8.094993140669827e-09, -4e-08, 0))
hIsland = hIsland.add(rect(7.707813541977302e-09, 4.25607963095442e-09).transl(-7.064024510559898e-08, -4e-08, 0))
hIsland = hIsland.add(rect(4.803809621997304e-09, 3.841703325967524e-09).transl(4.18102387343e-08, -4e-08, 0))
hIsland = hIsland.add(rect(8.490271676720154e-09, 1.441982968126367e-09).transl(8.426998169990916e-08, -3.7266400232867045e-08, 0))
hIsland = hIsland.sub(rect(7.812967513623774e-09, -1.994871979029769e-09).transl(-8.837363345096221e-08, -2.293502566143955e-08, 0))
hIsland = hIsland.sub(rect(8.16231934646092e-09, -6.355538003751502e-09).transl(6.069797051812987e-08, -4e-08, 0))
hIsland = hIsland.sub(rect(9.62816744348314e-09, -1.7178475523767263e-09).transl(-3.404033019213822e-08, -4e-08, 0))
hIsland = hIsland.add(rect(5.2393776726994956e-09, 4.062482219122324e-09).transl(2.508970922502219e-08, -4e-08, 0))
hIsland = hIsland.sub(rect(3.936406929131198e-09, -5.424353821281338e-10).transl(3.817609352731809e-08, -4e-08, 0))
hIsland = hIsland.add(rect(4.111615294568027e-09, 2.8036676731893614e-09).transl(-8.46721952652184e-09, -4e-08, 0))
hIsland = hIsland.sub(rect(6.739190643298691e-09, -1.458385302983433e-09).transl(-5.7102917851004614e-08, -4e-08, 0))
hIsland = hIsland.add(rect(5.4247245930778e-09, 4.702735424580108e-09).transl(8.576968897501157e-09, -4e-08, 0))
hIsland = hIsland.sub(rect(9.730639550754823e-09, -4.201481419685849e-09).transl(3.265734974480385e-08, -4e-08, 0))
hIsland = hIsland.sub(rect(3.808754287832538e-09, -7.358160874436116e-10).transl(-7.874143133790519e-08, -4e-08, 0))
hIsland = hIsland.sub(rect(5.469957390231847e-09, -9.052391976349425e-10).transl(-7.697583486602865e-08, -4e-08, 0))
hIsland = hIsland.add(rect(3.838495551100451e-09, 1.1154222023344043e-09).transl(5.424335651590139e-08, -4e-08, 0))
hIsland = hIsland.sub(rect(3.923869747446528e-09, -5.909602853522194e-10).transl(4.079809218486797e-08, -4e-08, 0))
hIsland = hIsland.add(rect(2.8737110587739977e-09, 1.7491505249719349e-09).transl(-4.1795125408579115e-09, -4e-08, 0))
hIsland = hIsland.add(rect(9.280947601373284e-09, 2.6388284253980443e-09).transl(-3.787315448535121e-08, -4e-08, 0))
hIsland = hIsland.add(rect(7.321402761059524e-09, 6.757696060557047e-10).transl(-2.2622682403739645e-10, -4e-08, 0))
hIsland = hIsland.sub(rect(9.57088852753818e-09, -2.252094674922583e-09).transl(-6.535766838157756e-08, -4e-08, 0))
hIsland = hIsland.sub(rect(9.518255408831242e-09, -1.5905090672868736e-09).transl(3.245779172125077e-08, -4e-08, 0))
hIsland = hIsland.add(rect(5.352305403929199e-09, 2.6722466211149878e-09).transl(5.984995787095231e-08, -4e-08, 0))
hIsland = hIsland.add(rect(3.910544699125175e-09, 1.7433705891519452e-09).transl(-1.3763516151913488e-08, -4e-08, 0))
hIsland = hIsland.add(rect(4.386349008771323e-09, 1.107602285673161e-09).transl(7.625300484757574e-08, -4e-08, 0))
hIsland = hIsland.add(rect(3.446391548033476e-09, 8.112616406446503e-10).transl(1.093816244816825e-08, -4e-08, 0))
hIsland = hIsland.sub(rect(6.332765422241639e-09, -1.2948593548394223e-09).transl(2.6420642606543995e-08, -4e-08, 0))
hIsland = hIsland.sub(rect(8.407816432986031e-09, -1.1032379854975651e-10).transl(-2.071853476048637e-08, -4e-08, 0))
hIsland = hIsland.add(rect(5.335230286571074e-09, 1.0148657494072888e-09).transl(-4.141154842100698e-08, -4e-08, 0))
hIsland = hIsland.sub(rect(3.1082645431923875e-09, -1.3519286108033993e-09).transl(5.526413070584786e-08, -4e-08, 0))
hIsland = hIsland.add(rect(2.2920240006122904e-09, 7.382236884946439e-11).transl(-7.517059484030483e-08, -4e-08, 0))
hIsland = hIsland.add(rect(9.705614292723784e-09, 2.135732490131305e-09).transl(-7.758444000200262e-08, -4e-08, 0))
hIsland = hIsland.add(rect(2.207314487368917e-09, 2.1166253303510596e-10).transl(-3.014347340472386e-08, -4e-08, 0))
hIsland = hIsland.add(rect(8.167201044316905e-09, 3.1869642526185544e-09).transl(-5.99080965430408e-08, -4e-08, 0))
hIsland = hIsland.sub(rect(6.923809084401007e-09, -1.5914806577024841e-09).transl(-6.105821194152734e-08, -4e-08, 0))
hIsland = hIsland.sub(rect(7.11763260718071e-09, -3.5555159086356966e-10).transl(-3.305214897422658e-08, -4e-08, 0))
hIsland = hIsland.sub(rect(6.84614216643075e-09, -1.6975018352629227e-09).transl(-3.575286845414075e-08, -4e-08, 0))
hIsland = hIsland.add(rect(9.668470940396492e-09, 7.243087363379878e-10).transl(4.624818829914853e-09, -4e-08, 0))
hIsland = hIsland.add(rect(2.751287920262345e-09, 1.5988380696514887e-09).transl(2.2507998933087522e-08, -4e-08, 0))
hIsland = hIsland.add(rect(3.781645473288888e-09, 3.2573341140677186e-10).transl(-4.956371309827032e-08, -4e-08, 0))
hIsland = hIsland.sub(rect(5.125532698173751e-09, -2.5746853348165164e-09).transl(-7.496962567423206e-08, -4e-08, 0))
hIsland = hIsland.sub(rect(6.68986471284754e-09, -2.1527827616890048e-09).transl(1.896568215959756e-08, -4e-08, 0))
hIsland = hIsland.add(rect(6.137072029181052e-09, 5.418765602941129e-10).transl(-8.686467457412113e-08, -3.034146155310281e-08, 0))
hIsland = hIsland.add(rect(2.70971176677515e-09, 3.5781272524643136e-09).transl(6.641887885810959e-08, -4e-08, 0))
hIsland = hIsland.add(rect(9.375544622258563e-09, 1.5614811669005773e-09).transl(5.431030136285933e-08, -4e-08, 0))
hIsland = hIsland.add(rect(8.473207097370941e-09, 1.3962993739427888e-09).transl(1.807444893215137e-08, -4e-08, 0))
hIsland = hIsland.add(rect(9.326774635603337e-09, 1.961246833452357e-09).transl(-1.7361035918153566e-08, -4e-08, 0))
hIsland = hIsland.sub(rect(2.095673047473498e-09, -9.050679588967938e-10).transl(-3.013998844004848e-08, -4e-08, 0))
hIsland = hIsland.sub(rect(4.412877213417114e-09, -3.4691750005414235e-09).transl(4.995740577985666e-08, -4e-08, 0))
hIsland = hIsland.add(rect(6.941077933135863e-09, 4.902477790184485e-10).transl(3.0754139285077104e-08, -4e-08, 0))
hIsland = hIsland.sub(rect(4.341823429483359e-09, -5.326990678959979e-10).transl(-3.5389973398374494e-08, -4e-08, 0))
hIsland = hIsland.add(rect(5.7765424018632516e-09, 2.3835940172777293e-09).transl(8.907058068975627e-09, -4e-08, 0))
hIsland = hIsland.sub(rect(8.213386701156393e-09, -5.665107139461445e-10).transl(-4.409371250537042e-08, -4e-08, 0))
hIsland = hIsland.add(rect(2.213888714202268e-09, 2.0812298302153016e-10).transl(4.193943319476101e-09, -4e-08, 0))
hIsland = hIsland.add(rect(7.730784864876339e-09, 2.903981355645508e-10).transl(7.885932065815029e-10, -4e-08, 0))
hIsland = hIsland.sub(rect(5.1935810755052925e-09, -3.0709368502340747e-09).transl(8.19092003200179e-08, -3.979536663347789e-08, 0))
hIsland = hIsland.add(rect(3.3240438997597645e-09, 4.4480905231435446e-10).transl(-8.959118732140645e-08, -1.191865466639976e-08, 0))
hIsland = hIsland.sub(rect(5.927901645875797e-09, -6.328501755153589e-09).transl(3.1802746608871676e-08, -4e-08, 0))
hIsland = hIsland.sub(rect(2.530526481350644e-09, -1.095400049695285e-09).transl(-2.5295287073860186e-09, -4e-08, 0))
hIsland = hIsland.sub(rect(8.534721151911157e-09, -1.30331673676938e-09).transl(-5.499223983801831e-08, -4e-08, 0))
hIsland = hIsland.add(rect(8.248129266019952e-09, 2.132981664310228e-09).transl(8.138984919492658e-08, -3.99624558632416e-08, 0))
hIsland = hIsland.add(rect(8.496881649353917e-09, 1.7318671524987001e-09).transl(-6.713714858805323e-08, -4e-08, 0))
hIsland = hIsland.add(rect(4.277024902620203e-09, 2.39845535410055e-10).transl(-1.893940294506965e-08, -4e-08, 0))
hIsland = hIsland.sub(rect(9.963998588807595e-09, -9.779285214753684e-10).transl(-2.320045220304152e-08, -4e-08, 0))
hIsland = hIsland.sub(rect(7.408354342270241e-09, -1.5760779821656272e-09).transl(-1.1725419281866365e-08, -4e-08, 0))
hIsland = hIsland.sub(rect(4.069199488797201e-09, -2.2100537009264098e-09).transl(3.525016538375896e-08, -4e-08, 0))
hIsland = hIsland.sub(rect(3.9925157123700295e-09, -1.383698093492642e-09).transl(7.410375061056941e-08, -4e-08, 0))
hIsland = hIsland.sub(rect(7.037752987880746e-09, -6.916355977855404e-10).transl(-6.697165728151837e-08, -4e-08, 0))
hIsland = hIsland.sub(rect(4.212221323084344e-09, -8.420510041138968e-10).transl(-1.408288873200034e-08, -4e-08, 0))
hIsland = hIsland.sub(rect(7.5877900740868e-09, -1.4236659724202123e-09).transl(8.695963455691114e-08, -2.9973735316953395e-08, 0))
hIsland = hIsland.add(rect(9.462185730870705e-09, 3.697788876096853e-10).transl(-8.594767410766305e-10, -4e-08, 0))
hIsland = hIsland.add(rect(5.499723499758514e-09, 8.657786899890787e-10).transl(3.2295383477316855e-08, -4e-08, 0))
hIsland = hIsland.sub(rect(6.312344474667742e-09, -1.9205039307017593e-11).transl(-4.48894521284786e-08, -4e-08, 0))
hIsland = hIsland.add(rect(5.215954731480357e-09, 5.50979240063713e-10).transl(-8.869579094733211e-08, -2.073932351002695e-08, 0))
hIsland = hIsland.add(rect(3.407361507347662e-09, 4.5908292078531424e-09).transl(2.0611378004856112e-08, -4e-08, 0))
hIsland = hIsland.sub(rect(3.4816113011482168e-09, -1.6762175709067235e-09).transl(1.2505706918469812e-08, -4e-08, 0))
hIsland = hIsland.add(rect(9.98033850855169e-09, 3.005721971855805e-09).transl(8.880141338816266e-08, -1.9944589487307497e-08, 0))
hIsland = hIsland.add(rect(2.970465895956365e-09, 6.049419278538353e-10).transl(6.998489254570792e-08, -4e-08, 0))
hIsland = hIsland.sub(rect(9.582685824912775e-09, -2.253571794622221e-09).transl(-7.862265930248777e-08, -4e-08, 0))
hIsland = hIsland.add(rect(3.814878661374781e-09, 7.119045139428039e-10).transl(4.046046597692497e-09, -4e-08, 0))
hIsland = hIsland.add(rect(3.1857146775139135e-09, 1.0530806597251346e-09).transl(6.965961644768501e-08, -4e-08, 0))
hIsland = hIsland.add(rect(2.600849854419298e-09, 2.018895338609964e-09).transl(5.489267924966178e-09, -4e-08, 0))
hIsland = hIsland.sub(rect(5.864014925565718e-09, -8.727821132996472e-10).transl(8.95847772479207e-08, -1.2009543204136318e-08, 0))
hIsland = hIsland.add(rect(5.819881899275055e-09, 2.5209630216721896e-09).transl(-8.616054360806491e-08, -3.277119773328832e-08, 0))
hIsland = hIsland.add(rect(2.1564740375812113e-09, 1.9886556346152354e-09).transl(-2.956449274269626e-08, -4e-08, 0))
hIsland = hIsland.sub(rect(8.436309826655538e-09, -2.0773339759516075e-10).transl(-5.308754308108397e-08, -4e-08, 0))
hIsland = hIsland.sub(rect(5.335113058454916e-09, -1.7867070967122408e-09).transl(-4.1655522996146724e-08, -4e-08, 0))
hIsland = hIsland.add(rect(4.4715845985542556e-09, 1.9799821426173095e-09).transl(3.2569325647853725e-08, -4e-08, 0))
hIsland = hIsland.add(rect(4.051420326428263e-09, 9.393336004833407e-10).transl(6.647525152075845e-08, -4e-08, 0))
hIsland = hIsland.sub(rect(7.512228875373308e-09, -3.0231088255401013e-09).transl(4.5712761059893025e-08, -4e-08, 0))
hIsland = hIsland.sub(rect(3.3447031374568983e-09, -7.691245005764655e-10).transl(8.51385393132051e-08, -3.5520119105866365e-08, 0))
hIsland = hIsland.sub(rect(5.251571756720875e-09, -3.997271736342822e-09).transl(1.4095407236320037e-08, -4e-08, 0))
hIsland = hIsland.sub(rect(8.40396212371412e-09, -3.6869480225842275e-09).transl(7.309863082358593e-08, -4e-08, 0))
hIsland = hIsland.sub(rect(3.834757918750546e-09, -4.219319479241863e-10).transl(1.4172508937269332e-08, -4e-08, 0))
hIsland = hIsland.add(rect(7.2084520039312644e-09, 2.6099102980530834e-09).transl(3.170110012000341e-08, -4e-08, 0))
hIsland = hIsland.sub(rect(2.407466995014926e-09, -2.6969279920764285e-09).transl(-5.639638743794732e-09, -4e-08, 0))
hIsland = hIsland.sub(rect(8.40403453727853e-09, -2.7244404412295672e-09).transl(-7.2751627141461926e-09, -4e-08, 0))
hIsland = hIsland.add(rect(7.188173419383768e-09, 4.4551790479793e-09).transl(6.44193975597252e-08, -4e-08, 0))
hIsland = hIsland.add(rect(5.2864411649470455e-09, 1.6701886167342923e-10).transl(7.344771497285178e-08, -4e-08, 0))
hIsland = hIsland.add(rect(2.567428311255269e-09, 1.2756794566899664e-09).transl(-8.083692394479214e-08, -4e-08, 0))
hIsland = hIsland.add(rect(9.356580602163353e-09, 2.089694342794007e-09).transl(7.472598788746261e-08, -4e-08, 0))
hIsland = hIsland.add(rect(6.781656328780367e-09, 2.3602480087681205e-09).transl(-7.973558947801206e-08, -4e-08, 0))
hIsland = hIsland.add(rect(4.8296091313738096e-09, 3.647125214923913e-10).transl(-4.388203961513453e-08, -4e-08, 0))
hIsland = hIsland.add(rect(6.6634396062117246e-09, 4.110331980783258e-09).transl(-4.842751942559227e-08, -4e-08, 0))
hIsland = hIsland.sub(rect(6.588140453522381e-09, -6.000068256227675e-11).transl(-3.006729451960632e-08, -4e-08, 0))
hIsland = hIsland.add(rect(6.7041020906730624e-09, 1.9548084040681277e-09).transl(5.5106732508562286e-08, -4e-08, 0))
hIsland = hIsland.add(rect(9.232313278610008e-09, 5.310710717053384e-10).transl(-7.39609464234741e-08, -4e-08, 0))
hIsland = hIsland.add(rect(3.364711629169566e-09, 4.464017753356682e-09).transl(7.703760668883756e-08, -4e-08, 0))
hIsland = hIsland.sub(rect(2.4340843183234643e-09, -1.9923091254694836e-09).transl(-2.5061808117952046e-08, 4e-08, 0))
hIsland = hIsland.add(rect(4.1752572463239484e-09, 1.410546444413952e-09).transl(6.451058789872808e-08, 4e-08, 0))
hIsland = hIsland.add(rect(6.255203497173932e-09, 2.5136904899046655e-09).transl(-6.1107525073752315e-09, 4e-08, 0))
hIsland = hIsland.add(rect(8.112156284542316e-09, 1.7452202687705656e-10).transl(4.8595902235248455e-08, 4e-08, 0))
hIsland = hIsland.sub(rect(8.871861704514453e-09, -2.4290671220607283e-09).transl(-4.4356386563445656e-08, 4e-08, 0))
hIsland = hIsland.add(rect(5.938625931581956e-09, 3.8988298144205104e-10).transl(8.741257834034673e-08, 2.8066530844719718e-08, 0))
hIsland = hIsland.add(rect(9.112950044214012e-09, 2.849255152974787e-09).transl(-3.795956229875902e-08, 4e-08, 0))
hIsland = hIsland.sub(rect(9.603681736565804e-09, -1.3319532536513917e-09).transl(1.4477203616824122e-08, 4e-08, 0))
hIsland = hIsland.add(rect(3.018249713922411e-09, 4.196693266388693e-09).transl(3.172964354735913e-08, 4e-08, 0))
hIsland = hIsland.sub(rect(8.26614202762482e-09, -4.887127829697173e-10).transl(-2.8660321330060092e-08, 4e-08, 0))
hIsland = hIsland.sub(rect(2.7822661551887577e-09, -2.0682502820634944e-09).transl(4.7708629793854893e-08, 4e-08, 0))
hIsland = hIsland.sub(rect(8.051635575049016e-09, -3.5523993993200105e-10).transl(-5.26485145616788e-08, 4e-08, 0))
hIsland = hIsland.sub(rect(7.912256506288482e-09, -5.264208729294141e-10).transl(-4.2753779521645326e-08, 4e-08, 0))
hIsland = hIsland.add(rect(8.465078936441973e-09, 1.5317089021854277e-09).transl(5.486597749744107e-08, 4e-08, 0))
hIsland = hIsland.add(rect(5.267229576796005e-09, 7.922959630025295e-10).transl(-8.651233920703255e-08, 3.161937723334274e-08, 0))
hIsland = hIsland.add(rect(8.116555348004707e-09, 2.096879922702598e-09).transl(2.7630128560470826e-08, 4e-08, 0))
hIsland = hIsland.sub(rect(3.802739129460514e-09, -2.1530714497137024e-09).transl(6.892318532122321e-08, 4e-08, 0))
hIsland = hIsland.sub(rect(5.3177077345869306e-09, -4.4288916082222306e-11).transl(-5.836727564593626e-08, 4e-08, 0))
hIsland = hIsland.sub(rect(3.481242440414801e-09, -4.108220226722229e-09).transl(-8.901129899892285e-08, 1.8227147491481083e-08, 0))
hIsland = hIsland.sub(rect(4.3828804932072e-09, -3.4931654824687697e-09).transl(8.541804645995338e-08, 3.484877112527921e-08, 0))
hIsland = hIsland.sub(rect(5.3196781463311775e-09, -4.126797050217236e-11).transl(3.4270078439724284e-08, 4e-08, 0))
hIsland = hIsland.add(rect(9.087012478547231e-09, 9.783217732867102e-10).transl(-1.4151528143353618e-08, 4e-08, 0))
hIsland = hIsland.sub(rect(6.457728192198354e-09, -3.4983587071166727e-09).transl(-6.171287705239895e-08, 4e-08, 0))
hIsland = hIsland.add(rect(3.49879907278151e-09, 1.8916976422224377e-09).transl(-1.7317740437127373e-08, 4e-08, 0))
hIsland = hIsland.add(rect(5.77788261955145e-09, 2.7473129709766893e-09).transl(1.3229661060474243e-08, 4e-08, 0))
hIsland = hIsland.add(rect(5.719465217320006e-09, 1.8307954551318388e-09).transl(-3.921066675838908e-08, 4e-08, 0))
hIsland = hIsland.sub(rect(2.632527920367916e-09, -1.4842662046102454e-09).transl(1.6551265601397054e-08, 4e-08, 0))
hIsland = hIsland.add(rect(7.280457696502233e-09, 7.579400475409133e-10).transl(-7.535683405106105e-08, 4e-08, 0))
hIsland = hIsland.add(rect(8.785781139879345e-09, 1.6915497858014207e-09).transl(6.470718498424834e-08, 4e-08, 0))
hIsland = hIsland.add(rect(9.104277600035798e-09, 8.612642342934671e-11).transl(-7.671779469395245e-08, 4e-08, 0))
hIsland = hIsland.sub(rect(6.152080728636656e-09, -8.484108973233533e-10).transl(-1.1475575042702395e-08, 4e-08, 0))
hIsland = hIsland.sub(rect(4.85071204330227e-09, -2.5805808803031757e-09).transl(-7.937617905505016e-08, 4e-08, 0))
hIsland = hIsland.add(rect(3.73349055646275e-09, 1.6104753244367683e-09).transl(6.418675692598974e-09, 4e-08, 0))
hIsland = hIsland.add(rect(7.697793582533546e-09, 3.973841068528493e-10).transl(6.39573281578029e-08, 4e-08, 0))
hIsland = hIsland.sub(rect(5.119553920698135e-09, -4.403972030152102e-09).transl(-3.0224061656164107e-09, 4e-08, 0))
hIsland = hIsland.sub(rect(3.990097257556111e-09, -1.6205871527951705e-09).transl(-8.310957748199299e-08, 3.8885633602793836e-08, 0))
hIsland = hIsland.add(rect(6.839582453819697e-09, 2.7728659267584715e-09).transl(6.358424530010807e-08, 4e-08, 0))
hIsland = hIsland.sub(rect(8.944533303840623e-09, -3.964946186712768e-10).transl(3.461556034674023e-08, 4e-08, 0))
hIsland = hIsland.add(rect(2.6403300509049556e-09, 2.19412320466105e-09).transl(4.442291312736149e-08, 4e-08, 0))
hIsland = hIsland.sub(rect(6.185213877645577e-09, -9.735761299112876e-10).transl(3.92861303682891e-08, 4e-08, 0))
hIsland = hIsland.sub(rect(4.584787803007734e-09, -6.360503485934024e-10).transl(8.962413185434346e-08, 1.1439027636219603e-08, 0))
hIsland = hIsland.sub(rect(6.1005230094640725e-09, -1.591574037884709e-09).transl(1.3145866454642666e-08, 4e-08, 0))
hIsland = hIsland.sub(rect(2.094551710168168e-09, -5.441907310779374e-09).transl(1.2872069704732917e-09, 4e-08, 0))
hIsland = hIsland.add(rect(7.929698913475416e-09, 5.936538464590397e-10).transl(-7.612929761434812e-08, 4e-08, 0))
hIsland = hIsland.add(rect(5.544156767226476e-09, 1.6185660832435713e-09).transl(8.203822678290833e-08, 3.9732956783513234e-08, 0))
hIsland = hIsland.add(rect(4.7223774579772475e-09, 2.4170288426895985e-09).transl(5.884284595777008e-09, 4e-08, 0))
hIsland = hIsland.sub(rect(5.9969435152402635e-09, -4.324316424103899e-09).transl(-9.970233664085333e-09, 4e-08, 0))
hIsland = hIsland.add(rect(3.0321673795294387e-09, 1.2841478064128206e-09).transl(-4.178679638157606e-08, 4e-08, 0))
hIsland = hIsland.add(rect(8.219488477846618e-09, 2.43914631062585e-11).transl(4.362412561428195e-08, 4e-08, 0))
hIsland = hIsland.sub(rect(7.3624647686441655e-09, -1.1009383157145939e-09).transl(3.605308261964848e-08, 4e-08, 0))
hIsland = hIsland.add(rect(3.785348985882897e-09, 3.166567958083508e-10).transl(-8.937805730880475e-08, 1.4611448736535841e-08, 0))
hIsland = hIsland.sub(rect(5.787594150509452e-09, -3.0131888086468147e-09).transl(3.2550475350692114e-08, 4e-08, 0))
hIsland = hIsland.sub(rect(3.2312365292145756e-09, -1.2645930930525233e-09).transl(-1.2427971247121768e-08, 4e-08, 0))
hIsland = hIsland.sub(rect(8.687904149093345e-09, -9.514053190717412e-11).transl(5.58174616207719e-08, 4e-08, 0))
hIsland = hIsland.sub(rect(4.1655166388115026e-09, -3.5571421486392174e-09).transl(-6.675929309164814e-08, 4e-08, 0))
hIsland = hIsland.add(rect(3.825198892530508e-09, 2.409516882312613e-09).transl(8.117649727508527e-08, 3.999230758425708e-08, 0))
hIsland = hIsland.sub(rect(2.3645703459780584e-09, -2.3980953970438455e-09).transl(2.6366027306390377e-09, 4e-08, 0))
hIsland = hIsland.sub(rect(4.494097680260578e-09, -5.926716845233517e-11).transl(-4.1583042707364906e-08, 4e-08, 0))
hIsland = hIsland.add(rect(7.95562723366405e-09, 2.7331540767010894e-09).transl(5.3827471259967366e-08, 4e-08, 0))
hIsland = hIsland.sub(rect(5.15202723114179e-09, -3.3911424305542987e-10).transl(2.084346444943015e-08, 4e-08, 0))
hIsland = hIsland.add(rect(2.8794727016633488e-09, 1.7150955618681778e-09).transl(1.4809223285389711e-08, 4e-08, 0))
hIsland = hIsland.add(rect(9.222697099115895e-09, 3.731531594239804e-09).transl(2.0785432093317464e-08, 4e-08, 0))
[...]
hIsland = hIsland.add(rect(7.469753767908239e-09, 1.5242267270205425e-09).transl(-8.500083263478992e-08, 3.5830420409671825e-08, 0))
hIsland = hIsland.sub(rect(5.038171335584087e-09, -2.4193342623620304e-10).transl(-1.0017839009852173e-08, 4e-08, 0))
hIsland = hIsland.add(rect(5.438898818534984e-09, 2.7036790202312897e-09).transl(-6.860751912354962e-08, 4e-08, 0))
hIsland = hIsland.sub(rect(8.697425166045798e-09, -4.474427892017469e-09).transl(8.266339634486746e-09, 4e-08, 0))
hIsland = hIsland.add(rect(6.149520680543736e-09, 2.0078741687122582e-09).transl(-6.55159697474411e-09, 4e-08, 0))
hIsland = hIsland.add(rect(5.142312939346872e-09, 1.3749008017131036e-09).transl(-1.98160726495225e-08, 4e-08, 0))
hIsland = hIsland.add(rect(7.021673267596856e-09, 2.6852236677496104e-09).transl(4.4706707207726546e-08, 4e-08, 0))
hIsland = hIsland.add(rect(2.6359602871535916e-09, 8.293697664647347e-11).transl(4.111493493017964e-08, 4e-08, 0))
hIsland = hIsland.sub(rect(9.535714112931778e-09, -1.0244758633729585e-09).transl(4.838021578856851e-08, 4e-08, 0))
hIsland = hIsland.add(rect(5.7475949497379876e-09, 2.8924721830544445e-09).transl(1.1037458310916323e-08, 4e-08, 0))
hIsland = hIsland.add(rect(7.470753058436732e-09, 2.7444902382180116e-09).transl(8.16583941704386e-08, 3.989282360447091e-08, 0))
hIsland = hIsland.sub(rect(2.3372845828914075e-09, -3.915120085905831e-09).transl(-8.069829012825407e-08, 4e-08, 0))
hIsland = hIsland.add(rect(2.8906364382612326e-09, 7.864392363815771e-12).transl(1.2514883210162919e-08, 4e-08, 0))
hIsland = hIsland.add(rect(2.5876825973451993e-09, 9.90827722353128e-10).transl(-2.5215561157310166e-10, 4e-08, 0))
hIsland = hIsland.sub(rect(3.6347630616480597e-09, -1.4244655626437315e-09).transl(2.2019456710898494e-08, 4e-08, 0))
hIsland = hIsland.sub(rect(7.776746770315152e-09, -1.0599323142073527e-09).transl(-3.708803361666414e-08, 4e-08, 0))
hIsland = hIsland.add(rect(3.1746813955480234e-09, 9.005156526860167e-10).transl(6.203508839064192e-08, 4e-08, 0))
hIsland = hIsland.sub(rect(8.313537883107611e-09, -8.351343709960836e-10).transl(8.648889874670515e-08, 3.169982374789768e-08, 0))
hIsland = hIsland.add(rect(9.246861767846916e-09, 6.333126328292993e-10).transl(1.8790438132235884e-08, 4e-08, 0))
hIsland = hIsland.add(rect(2.9042456524933168e-09, 1.3371247902264292e-09).transl(-4.378095392593347e-08, 4e-08, 0))
hIsland = hIsland.add(rect(6.935913961687935e-09, 1.9065861392188994e-09).transl(-1.738998443179215e-08, 4e-08, 0))
hIsland = hIsland.add(rect(3.27959314275651e-09, 2.7880220289126663e-09).transl(2.3927396517066042e-08, 4e-08, 0))
hIsland = hIsland.sub(rect(7.144265586188082e-09, -3.9343787424507044e-10).transl(-4.036359779414395e-08, 4e-08, 0))
hIsland = hIsland.add(rect(2.056555415860557e-09, 3.3414870734323957e-10).transl(-5.7871977841326665e-08, 4e-08, 0))
hIsland = hIsland.add(rect(8.561180691206532e-09, 1.1511247646344574e-09).transl(-5.793194851465331e-08, 4e-08, 0))
hIsland = hIsland.sub(rect(2.1423605743710754e-09, -1.9543494744502121e-10).transl(8.044123885059005e-08, 4e-08, 0))
hIsland = hIsland.add(rect(7.618775434628166e-09, 2.0112593850639406e-09).transl(6.876999020535932e-08, 4e-08, 0))
hIsland = hIsland.add(rect(5.649489679936008e-09, 2.8002471624793236e-09).transl(7.374998363145901e-08, 4e-08, 0))
hIsland = hIsland.sub(rect(5.907559150326907e-09, -1.7549587800517667e-09).transl(5.4853129496401395e-08, 4e-08, 0))
hIsland = hIsland.sub(rect(7.952092641467598e-09, -9.531889111301173e-10).transl(2.2334756707722652e-08, 4e-08, 0))
hIsland = hIsland.add(rect(9.865030779201855e-09, 1.2395805045872233e-09).transl(-7.353681470436715e-08, 4e-08, 0))
hIsland = hIsland.add(rect(7.51326228307484e-09, 1.64734290635734e-09).transl(-8.50852994759849e-08, 3.5641653587477264e-08, 0))
hIsland = hIsland.add(rect(5.009907096715519e-09, 5.492375688663725e-10).transl(-3.033986434199392e-08, 4e-08, 0))
hIsland = hIsland.sub(rect(8.115056065899497e-09, -5.255786609724063e-09).transl(6.922551884097257e-08, 4e-08, 0))
hIsland = hIsland.add(rect(2.628773659110075e-09, 9.906210521620588e-10).transl(-7.879037429007817e-09, 4e-08, 0))
hIsland = hIsland.add(rect(8.332812420561457e-09, 5.401641534421544e-10).transl(3.965520254051863e-08, 4e-08, 0))
hIsland = hIsland.sub(rect(3.976646896829723e-09, -4.4401385760085725e-09).transl(6.812986602910414e-08, 4e-08, 0))
hIsland = hIsland.sub(rect(8.353196993891817e-09, -1.7172625245932355e-09).transl(-5.2241559857451e-08, 4e-08, 0))
hIsland = hIsland.add(rect(9.616317466266953e-09, 1.4133999286476892e-09).transl(-6.253185600363597e-08, 4e-08, 0))
hIsland = hIsland.add(rect(7.778556755942962e-09, 3.0063337026052394e-10).transl(4.9968292665856956e-08, 4e-08, 0))
hIsland = hIsland.sub(rect(8.51071419781222e-09, -1.0170406708858826e-09).transl(4.6815177230104513e-08, 4e-08, 0))
hIsland = hIsland.add(rect(8.250012762976642e-09, 3.8445485698182845e-09).transl(7.66673864769421e-08, 4e-08, 0))
hIsland = hIsland.add(rect(3.319127531138513e-09, 3.4877880922517163e-10).transl(-6.013420540676035e-08, 4e-08, 0))
hIsland = hIsland.sub(rect(6.186960798828427e-09, -7.806422104912336e-10).transl(-3.105754149607243e-08, 4e-08, 0))
hIsland = hIsland.sub(rect(2.0081366127189675e-09, -4.5810270748812015e-10).transl(-4.0191605632660816e-08, 4e-08, 0))
hIsland = hIsland.add(rect(4.613325298840419e-09, 2.5994553926953957e-09).transl(-8.80855793322834e-08, 2.466348949545093e-08, 0))
hIsland = hIsland.add(rect(2.921940806226216e-09, 1.0004227795320727e-09).transl(1.871542736616073e-09, 4e-08, 0))
hIsland = hIsland.sub(rect(6.916987720428198e-09, -3.633312885966539e-09).transl(-3.324803385973035e-08, 4e-08, 0))
hIsland = hIsland.sub(rect(3.182942470934525e-09, -5.489198489147857e-10).transl(8.61873821564389e-08, 3.2687390663772974e-08, 0))
hIsland = hIsland.add(rect(7.9088194312536e-09, 9.314883362640275e-10).transl(-3.8879738709907356e-08, 4e-08, 0))
hIsland = hIsland.add(rect(2.7149015074558796e-09, 8.785882219600444e-11).transl(8.1594999114919e-08, 3.991249095690594e-08, 0))
hIsland = hIsland.sub(rect(6.972377989635997e-09, -3.0143752155227496e-09).transl(-4.003726236077715e-08, 4e-08, 0))
hIsland = hIsland.sub(rect(8.757985989048063e-09, -2.993147541834493e-09).transl(5.1547571375561106e-08, 4e-08, 0))
hIsland = hIsland.sub(rect(6.05823436376968e-09, -2.2640543781493285e-09).transl(-1.3776945094298488e-08, 4e-08, 0))
hIsland = hIsland.sub(rect(5.054421277157633e-09, -2.177725223443474e-09).transl(-1.2843442440054044e-08, 4e-08, 0))
hIsland = hIsland.add(rect(2.273869892009935e-09, 5.249920368305181e-09).transl(-3.9116577172004155e-08, 4e-08, 0))
hIsland = hIsland.sub(rect(8.637802033731045e-09, -2.8888160261700697e-10).transl(7.299140912728914e-08, 4e-08, 0))
hIsland = hIsland.sub(rect(4.682234583485395e-09, -1.875666443557137e-09).transl(-1.4182865654077812e-08, 4e-08, 0))
hIsland = hIsland.sub(rect(9.65397818616784e-09, -3.2679939098696788e-09).transl(3.268571490415616e-08, 4e-08, 0))
hIsland = hIsland.add(rect(3.0514812064404773e-09, 3.4905367994855127e-09).transl(2.7926929552172152e-08, 4e-08, 0))
hIsland = hIsland.sub(rect(8.746365824167797e-09, -2.29512050881035e-09).transl(7.248288206375331e-08, 4e-08, 0))
hIsland = hIsland.sub(rect(5.181086196876608e-09, -4.785932836354239e-11).transl(-8.072315288155978e-08, 4e-08, 0))
hIsland = hIsland.add(rect(9.61022571702187e-09, 1.3155869053921564e-10).transl(4.604174826323007e-09, 4e-08, 0))
hIsland = hIsland.add(rect(2.6280631234954134e-09, 2.20899977498542e-09).transl(7.747910641156766e-08, 4e-08, 0))
hIsland = hIsland.sub(rect(3.643640294437449e-09, -1.0661071053345528e-09).transl(-6.533781324038216e-08, 4e-08, 0))
hIsland = hIsland.sub(rect(2.487880041005111e-09, -1.3961071965930738e-09).transl(3.8960637295563366e-08, 4e-08, 0))
hIsland = hIsland.sub(rect(2.0573152147766765e-09, -1.0921524752435296e-09).transl(-5.606462929575965e-08, 4e-08, 0))
hIsland = hIsland.sub(rect(9.136645418130843e-09, -9.74796780967023e-10).transl(1.0175331340988578e-08, 4e-08, 0))
hIsland = hIsland.add(rect(5.811591020925791e-09, 1.5183719519465675e-09).transl(-2.0600369310355096e-08, 4e-08, 0))
hIsland = hIsland.add(rect(6.399881020971984e-09, 1.5569296338521137e-09).transl(-9.320402180322193e-09, 4e-08, 0))
hIsland = hIsland.sub(rect(6.7779528431508405e-09, -9.94794059665701e-10).transl(-8.01655506021399e-08, 4e-08, 0))
hIsland = hIsland.add(rect(9.162215411006522e-09, 1.5377730645492933e-09).transl(-2.3480261823197906e-08, 4e-08, 0))
hIsland = hIsland.sub(rect(2.1425278738336247e-09, -1.5017351951512785e-09).transl(-6.694167485307865e-08, 4e-08, 0))
hIsland = hIsland.add(rect(9.254148827909932e-09, 7.295877159474389e-10).transl(2.2053319380569638e-08, 4e-08, 0))
hIsland = hIsland.add(rect(4.601618004096196e-09, 1.686358753577163e-09).transl(3.115519815732506e-08, 4e-08, 0))
hIsland = hIsland.add(rect(7.382329976456343e-09, 2.1694482346839516e-10).transl(2.800403420701134e-08, 4e-08, 0))
hIsland = hIsland.add(rect(4.621138767933804e-09, 1.7118203103794833e-09).transl(9.796879332616712e-09, 4e-08, 0))
hIsland = hIsland.add(rect(5.55321380284822e-09, 1.1943012755950505e-09).transl(1.8384750685105535e-08, 4e-08, 0))
hIsland = hIsland.add(rect(8.904172726391906e-09, 4.732970413641517e-09).transl(-7.283657632505207e-08, 4e-08, 0))
hIsland = hIsland.sub(rect(6.0127832513061655e-09, -9.388917102293933e-10).transl(8.55984938343713e-08, 3.438456571791858e-08, 0))
hIsland = hIsland.sub(rect(3.897739048736897e-09, -5.1086723838550523e-11).transl(-2.1146417420940276e-08, 4e-08, 0))
hIsland = hIsland.sub(rect(2.260756518212449e-09, -1.206697237995729e-09).transl(6.157717444013536e-08, 4e-08, 0))
hIsland = hIsland.add(rect(4.098663034142723e-09, 1.357222073625938e-09).transl(-5.661045666391291e-08, 4e-08, 0))
hIsland = hIsland.add(rect(9.896487266608343e-09, 5.724814553022743e-10).transl(6.3016421681097266e-09, 4e-08, 0))
hIsland = hIsland.sub(rect(2.6589955090688424e-09, -3.776483985986457e-10).transl(-7.689766849034511e-08, 4e-08, 0))
hIsland = hIsland.add(rect(4.155978711716991e-09, 2.0507874604174143e-09).transl(-5.926549018564151e-08, 4e-08, 0))
hIsland = hIsland.add(rect(6.181716024025239e-09, 2.3647883063785025e-09).transl(-6.241691976283716e-08, 4e-08, 0))
hIsland = hIsland.add(rect(8.82844460147356e-09, 2.0760064605544568e-09).transl(3.259464084121682e-08, 4e-08, 0))
hIsland = hIsland.add(rect(3.87460035297755e-09, 8.367492047455038e-10).transl(7.969155116043596e-08, 4e-08, 0))
hIsland = hIsland.sub(rect(4.475195977160644e-09, -4.8966103057097815e-11).transl(-3.260398200633709e-08, 4e-08, 0))
hIsland = hIsland.sub(rect(3.433878334333206e-09, -2.2818074171051413e-09).transl(-3.5088149050615804e-08, 4e-08, 0))
hIsland = hIsland.sub(rect(9.48141930568434e-09, -3.8221599323039985e-09).transl(7.387245639108869e-08, 4e-08, 0))
hIsland = hIsland.sub(rect(5.121381583272724e-09, -1.392572776703248e-09).transl(4.9622512429232646e-08, 4e-08, 0))
hIsland = hIsland.add(rect(2.6091283955224134e-09, 6.146100095718865e-10).transl(-1.3124634534635367e-08, 4e-08, 0))
hIsland = hIsland.add(rect(8.276557698358586e-09, 1.0168493320517954e-09).transl(6.836994696008152e-08, 4e-08, 0))
hIsland = hIsland.sub(rect(9.017265722847735e-09, -6.143682919982583e-10).transl(4.109620297965798e-08, 4e-08, 0))
hIsland = hIsland.sub(rect(4.544626878892232e-09, -1.253778087180007e-10).transl(-8.00628405129388e-08, 4e-08, 0))
hIsland = hIsland.add(rect(4.063124768953196e-09, 3.3079469980209867e-09).transl(-2.8701110533722794e-08, 4e-08, 0))
hIsland = hIsland.sub(rect(7.865632658181902e-09, -4.677530550435564e-09).transl(6.847123138680553e-08, 4e-08, 0))
hIsland = hIsland.add(rect(9.30185458081322e-09, 1.1283452637281246e-09).transl(-3.965195285758619e-08, 4e-08, 0))
hIsland = hIsland.add(rect(2.756571982921935e-09, 1.1655341305013278e-10).transl(7.930750218162348e-08, 4e-08, 0))
hIsland = hIsland.add(rect(4.562360848619726e-09, 1.5805856909519573e-09).transl(2.8299695055758287e-08, 4e-08, 0))
hIsland = hIsland.sub(rect(7.547670558431059e-09, -1.268417538707452e-09).transl(-7.326896245095934e-08, 4e-08, 0))
hIsland = hIsland.add(rect(7.045842673639708e-09, 2.4720944731287943e-10).transl(8.9412156964402e-08, 1.4219176900533053e-08, 0))
hIsland = hIsland.sub(rect(8.1459946328489e-09, -1.7369741491056624e-09).transl(-1.4481217669072757e-08, 4e-08, 0))
hIsland = hIsland.sub(rect(7.127535022940192e-09, -1.1343436505149627e-09).transl(7.316039244438254e-08, 4e-08, 0))
hIsland = hIsland.sub(rect(5.98860346982105e-09, -2.200365103697151e-09).transl(-7.604246002664861e-08, 4e-08, 0))
hIsland = hIsland.sub(rect(7.307459220285338e-09, -6.905842884575036e-10).transl(-3.0072977111149096e-08, 4e-08, 0))
hIsland = hIsland.add(rect(3.2231419192915748e-09, 5.047164409304778e-10).transl(-4.196143249813861e-09, 4e-08, 0))
hIsland = hIsland.sub(rect(7.396347862723731e-09, -1.492405588052279e-09).transl(8.787288437832108e-09, 4e-08, 0))
hIsland = hIsland.add(rect(9.059843383634894e-09, 4.743242472541265e-09).transl(-8.430188494057336e-08, 3.72107924976811e-08, 0))
hIsland = hIsland.add(rect(9.388817475578616e-09, 4.781940358469948e-11).transl(-4.440956678919209e-08, 4e-08, 0))
hIsland = hIsland.add(rect(6.9339044609620196e-09, 8.084859577275241e-10).transl(5.587364907715243e-08, 4e-08, 0))
hIsland = hIsland.sub(rect(2.6635828960362098e-09, -5.420611552083037e-10).transl(6.945014751498953e-08, 4e-08, 0))
hIsland = hIsland.add(rect(4.854349630124365e-09, 1.7178950017666542e-09).transl(-6.718086876148087e-08, 4e-08, 0))
hIsland = hIsland.sub(rect(2.0308781964851476e-09, -9.249292599461545e-10).transl(-1.9590187386157115e-08, 4e-08, 0))
hIsland = hIsland.sub(rect(9.70223955659228e-09, -2.363494076554306e-09).transl(6.875517003165385e-08, 4e-08, 0))
hIsland = hIsland.add(rect(4.383457623167416e-09, 1.5457349259351177e-10).transl(-3.96211194079044e-09, 4e-08, 0))
hIsland = hIsland.add(rect(9.22018212501353e-09, 2.232526771073779e-09).transl(-6.105171294195593e-08, 4e-08, 0))
hIsland = hIsland.sub(rect(3.71432350756331e-09, -3.905144542459455e-10).transl(-3.0632123777816434e-08, 4e-08, 0))
hIsland = hIsland.add(rect(4.077067802531361e-09, 5.047887577470324e-10).transl(7.822378873616126e-08, 4e-08, 0))
hIsland = hIsland.add(rect(5.097771035146212e-09, 3.4555990632275854e-09).transl(-2.045847144422505e-08, 4e-08, 0))
hIsland = hIsland.add(rect(6.318898697536254e-09, 1.33219953122035e-09).transl(-4.8715404746279536e-08, 4e-08, 0))
hIsland = hIsland.sub(rect(7.946781986160506e-09, -2.7036854964210985e-09).transl(5.166181327286498e-08, 4e-08, 0))
hIsland = hIsland.sub(rect(5.9357387977223165e-09, -4.489488291849109e-10).transl(1.9885154586520578e-08, 4e-08, 0))
hIsland = hIsland.sub(rect(2.025871029529342e-09, -3.573117883325307e-09).transl(-4.24715784022567e-08, 4e-08, 0))
hIsland = hIsland.sub(rect(3.6616240002961774e-09, -3.3690565606023533e-09).transl(-6.500686011882752e-08, 4e-08, 0))
hIsland = hIsland.add(rect(7.3560551242913416e-09, 1.3641915206043788e-10).transl(-6.744037576239332e-09, 4e-08, 0))
hIsland = hIsland.sub(rect(9.556258982821695e-09, -7.218535211163667e-11).transl(-5.1201903760481536e-08, 4e-08, 0))
hIsland = hIsland.sub(rect(9.120804188494445e-09, -4.76002023800898e-10).transl(-3.2308570163051503e-08, 4e-08, 0))
hIsland = hIsland.add(rect(8.063368583743268e-09, 4.835463956547982e-09).transl(-2.3395314338151176e-08, 4e-08, 0))
hIsland = hIsland.add(rect(3.7427463895148226e-09, 9.694630007728599e-11).transl(5.926723463827027e-08, 4e-08, 0))
hIsland = hIsland.add(rect(3.306142110988938e-09, 1.0022014237825164e-09).transl(-1.1590302063416454e-08, 4e-08, 0))
hIsland = hIsland.sub(rect(6.4765684803340105e-09, -4.048169221511434e-09).transl(-2.1949846007344628e-08, 4e-08, 0))
hIsland = hIsland.sub(rect(5.670630104110857e-09, -1.6743989008100427e-09).transl(1.75776767221061e-08, 4e-08, 0))
hIsland = hIsland.sub(rect(7.493504410530448e-09, -9.372443400770674e-10).transl(5.315627765615574e-09, 4e-08, 0))
hIsland = hIsland.sub(rect(6.195777022472605e-09, -2.297213498722073e-09).transl(3.108955295697302e-08, 4e-08, 0))
hIsland = hIsland.sub(rect(9.859677726583e-09, -1.2017112347949674e-09).transl(-7.596554744206903e-08, 4e-08, 0))
hIsland = hIsland.add(rect(6.501613876039306e-09, 1.8860634333888173e-09).transl(-2.2584020086163082e-08, 4e-08, 0))
hIsland = hIsland.sub(rect(2.4451231374917537e-09, -2.2131115894817394e-10).transl(2.6234619323012855e-08, 4e-08, 0))
hIsland = hIsland.add(rect(9.194207565733502e-09, 1.2629626058114452e-09).transl(8.665820281224067e-08, 3.110626658648018e-08, 0))
hIsland = hIsland.sub(rect(7.985658871684954e-09, -8.722204145459159e-10).transl(-4.829168914332137e-08, 4e-08, 0))
hIsland = hIsland.add(rect(6.266401618896089e-09, 5.3827979627857e-10).transl(1.5483559619820723e-08, 4e-08, 0))
hIsland = hIsland.sub(rect(9.91151685440186e-09, -9.374898060344163e-10).transl(-1.3890027429247385e-08, 4e-08, 0))
hIsland = hIsland.add(rect(9.572524888936244e-09, 2.8033365438356826e-10).transl(8.129710606705426e-08, 3.997819849940302e-08, 0))
hIsland = hIsland.add(rect(3.393399502955677e-09, 2.402639376292129e-09).transl(-8.564372906966309e-08, 3.426426863710756e-08, 0))
hIsland = hIsland.sub(rect(7.232928869290502e-09, -1.2780144456404603e-10).transl(7.558161540487312e-08, 4e-08, 0))
hIsland = hIsland.sub(rect(3.6700389967418873e-09, -2.277140045949179e-09).transl(5.53575791136463e-08, 4e-08, 0))
hIsland = hIsland.sub(rect(8.075669281551658e-09, -4.244047325059064e-09).transl(-6.510896226381095e-08, 4e-08, 0))
hIsland = hIsland.sub(rect(8.26320048908397e-09, -5.886671991151856e-10).transl(-6.961716198526974e-08, 4e-08, 0))
hIsland = hIsland.add(rect(5.970245324148441e-09, 6.577431614378121e-10).transl(-8.510237321795228e-08, 3.560289459188742e-08, 0))
hIsland = hIsland.add(rect(7.262110171020644e-09, 3.701901206005987e-09).transl(-1.7162618225684726e-09, 4e-08, 0))
hIsland = hIsland.add(rect(2.5543212107242894e-09, 3.048407146451548e-10).transl(7.390672050638956e-09, 4e-08, 0))
hIsland = hIsland.add(rect(7.507796267405988e-09, 2.6787737674332332e-09).transl(-2.8398352520466733e-08, 4e-08, 0))
hIsland = hIsland.sub(rect(3.7128806120199764e-09, -1.9034353718197887e-09).transl(-5.4607123011289986e-08, 4e-08, 0))
hIsland = hIsland.sub(rect(6.301562615261642e-09, -2.5095694416810764e-11).transl(1.9955040756992003e-08, 4e-08, 0))
hIsland = hIsland.add(rect(5.228137936033059e-09, 3.0851548691082693e-09).transl(-1.4858102329113923e-08, 4e-08, 0))
hIsland = hIsland.add(rect(6.655958095778395e-09, 1.8817326942532684e-10).transl(4.738214132487004e-08, 4e-08, 0))
hIsland = hIsland.sub(rect(5.660944810082611e-09, -5.183111063437271e-10).transl(-5.958863351095113e-08, 4e-08, 0))
hIsland = hIsland.sub(rect(7.492698719565428e-09, -9.973252623525537e-10).transl(-5.916367031210335e-08, 4e-08, 0))
hIsland = hIsland.add(rect(3.8953641012526945e-09, 1.2284196510923159e-09).transl(7.375724742112539e-08, 4e-08, 0))
hIsland = hIsland.sub(rect(3.0171496481350042e-09, -2.530437698763003e-09).transl(-4.973636503923308e-08, 4e-08, 0))
hIsland = hIsland.add(rect(4.339214073554373e-09, 2.922162741011402e-09).transl(8.684179714753105e-08, 3.042851362171068e-08, 0))
vIsland = hIsland.rotz(pi / 2)
vIslands = vIslands.add(vIsland.transl(0, -a/2, 0))
DefRegion(1, hIslands)
DefRegion(2, vIslands)
TableAdd(m_full.Region(1))
TableAdd(m_full.Region(2))
setgeom(hIslands.add(vIslands))
save(geom)
r2o2 := sqrt(2) / 2
m = RandomMagSeed(4)
B_ext = vector(Bmax*r2o2, Bmax*r2o2, 0)
relax()
minimize()
for B := Bmax; B >= -Bmax; B -= Bstep {
	B_ext = vector(B*r2o2, B*r2o2, 0)
	minimize()
	tablesave()
}
//********************************************************************//
//Please cite the following references, relevant for your simulation. //
//See bibtex file in output folder for justification.                 //
//********************************************************************//
//   * Vansteenkiste et al., AIP Adv. 4, 107133 (2014).
//   * Exl et al., J. Appl. Phys. 115, 17D118 (2014).
