//mumax 3.10 [windows_amd64 go1.11.6(gc) CUDA-11.0]
//GPU info: NVIDIA GeForce RTX 3090(24575MB), CUDA Driver 12.1, cc=8.6, using cc=80 PTX
//(c) Arne Vansteenkiste, Dynamat LAB, Ghent University, Belgium
//This is free software without any warranty. See license.txt
//********************************************************************//
//  If you use mumax in any work or publication,                      //
//  we kindly ask you to cite the references in references.bib        //
//********************************************************************//
//output directory: r1;p0.5;a4.0000000000000003e-07;l3.0000000000000004e-07;s6.out/
randSeed(6)
ThermSeed(6)
resolution := 2e-09
zResolution := 5e-09
a := 4.0000000000000003e-07
gridSize := 400
gridDepth := 5
SetCellsize(resolution, resolution, zResolution)
SetGridsize(gridSize, gridSize, gridDepth)
SetPBC(16, 16, 0)
//resizing...
Msat = 700e3
Aex = 13e-12
alpha = 0.2
Bmax := 0.1
Bstep := Bmax / 500.0
TableAdd(B_ext)
TableAdd(m_full)
islandWidth := 8e-08
islandLength := 3.0000000000000004e-07
ellipseConstant := 7.500000000000001e-08
hIsland := Universe().Inverse()
vIsland := Universe().Inverse()
vIslands := Universe().Inverse()
hIslands := Universe().Inverse()
hIsland = rect(islandLength-2*ellipseConstant, islandWidth)
hIsland = hIsland.add(ellipse(ellipseConstant*2, islandWidth).transl(islandLength/2-ellipseConstant, 0, 0))
hIsland = hIsland.add(ellipse(ellipseConstant*2, islandWidth).transl(-islandLength/2+ellipseConstant, 0, 0))
hIsland = hIsland.add(rect(6.482576092441063e-09, 3.1188456090746073e-09).transl(-7.899780937016977e-08, -3.994313298207541e-08, 0))
hIsland = hIsland.add(rect(5.35333912480317e-09, 1.8269685074777573e-09).transl(3.2310021302049196e-08, -4e-08, 0))
hIsland = hIsland.add(rect(9.039910477421278e-09, 3.416553984084181e-09).transl(-3.4830473886111484e-08, -4e-08, 0))
hIsland = hIsland.add(rect(7.246315764687389e-09, 8.993717537759649e-10).transl(-9.030352588406818e-08, -3.9158443625467265e-08, 0))
hIsland = hIsland.add(rect(4.304130734298847e-09, 1.0632870029251664e-10).transl(1.8409988810521486e-08, -4e-08, 0))
hIsland = hIsland.sub(rect(6.409452233007434e-09, -1.0644481362474382e-09).transl(-6.712283390532216e-08, -4e-08, 0))
hIsland = hIsland.add(rect(2.189101610995772e-09, 1.3228076341852456e-10).transl(1.2553685170763555e-07, -2.955565023226893e-08, 0))
hIsland = hIsland.sub(rect(5.414326021950316e-09, -2.5358182920634484e-09).transl(3.693482340235664e-08, -4e-08, 0))
hIsland = hIsland.sub(rect(3.2393550946462418e-09, -3.032893986822927e-09).transl(-8.208827853693477e-08, -3.9820955045888485e-08, 0))
hIsland = hIsland.sub(rect(2.561216505157665e-09, -3.297357098067688e-09).transl(-8.674708193387735e-08, -3.9506308257260584e-08, 0))
hIsland = hIsland.add(rect(9.763644883492095e-09, 1.6248294787886836e-09).transl(9.874917615431313e-09, -4e-08, 0))
hIsland = hIsland.add(rect(2.7808117126238384e-09, 2.8453865100508644e-09).transl(6.15928011924159e-08, -4e-08, 0))
hIsland = hIsland.sub(rect(6.2786183907020865e-09, -2.835855658743813e-09).transl(2.4236674839310643e-08, -4e-08, 0))
hIsland = hIsland.add(rect(7.511426931652563e-09, 2.3057458162607336e-09).transl(-1.4914994329131476e-07, -6.005293307026083e-09, 0))
hIsland = hIsland.add(rect(8.61709451060004e-09, 1.4202133553882636e-09).transl(1.4580090105657111e-07, -1.3196442990942387e-08, 0))
hIsland = hIsland.sub(rect(4.187043569091004e-09, -1.0387993335089424e-09).transl(-1.0815136417059648e-07, -3.5880243491817395e-08, 0))
hIsland = hIsland.add(rect(4.303900063980485e-09, 1.2925924682118458e-09).transl(2.2024998557486387e-08, -4e-08, 0))
hIsland = hIsland.sub(rect(5.6372176006571794e-09, -8.124094291871159e-10).transl(-2.6518288164978472e-08, -4e-08, 0))
hIsland = hIsland.add(rect(5.092934994178662e-09, 2.3616412862056207e-09).transl(7.20381364911558e-08, -4e-08, 0))
hIsland = hIsland.add(rect(3.732682093186814e-09, 1.8370459479468758e-09).transl(-2.026076584246034e-08, -4e-08, 0))
hIsland = hIsland.add(rect(2.684209537715437e-09, 3.775932621326006e-09).transl(9.741572293266623e-08, -3.8171674395550326e-08, 0))
hIsland = hIsland.add(rect(8.775763271990623e-09, 1.706368046337094e-09).transl(7.837062892688595e-08, -3.995958442008255e-08, 0))
hIsland = hIsland.add(rect(7.866060966422958e-09, 3.8132778611832875e-09).transl(7.261563551611265e-08, -4e-08, 0))
hIsland = hIsland.add(rect(3.465289106368775e-09, 5.278088331891558e-10).transl(-1.4583058373301712e-07, -1.3151057095587132e-08, 0))
hIsland = hIsland.sub(rect(4.99340377032411e-09, -6.729707090381955e-10).transl(-7.863630130078113e-09, -4e-08, 0))
hIsland = hIsland.add(rect(7.126736616890588e-09, 1.5887159200164786e-09).transl(-1.2698651774526037e-07, -2.8831597346907115e-08, 0))
hIsland = hIsland.add(rect(5.666627828989412e-09, 3.215824927679125e-10).transl(-5.976795576954996e-08, -4e-08, 0))
hIsland = hIsland.sub(rect(7.060010528547267e-09, -2.2339651132847522e-09).transl(1.1056203407699042e-07, -3.521753798370896e-08, 0))
hIsland = hIsland.sub(rect(5.2270589809304975e-09, -4.102637230387829e-09).transl(-7.0165088460006e-08, -4e-08, 0))
hIsland = hIsland.add(rect(8.319429132898926e-09, 2.121027225284008e-10).transl(-6.082714748029323e-08, -4e-08, 0))
hIsland = hIsland.add(rect(6.345057319827948e-09, 2.164292952296081e-09).transl(1.3524602626636942e-07, -2.3824044289859154e-08, 0))
hIsland = hIsland.add(rect(9.070678789181564e-09, 1.8284701821884567e-10).transl(-3.750718280879303e-09, -4e-08, 0))
hIsland = hIsland.sub(rect(4.562462470287362e-09, -1.2009779423968843e-09).transl(4.343416893231719e-08, -4e-08, 0))
hIsland = hIsland.add(rect(2.6252824866741255e-09, 2.8114847061749915e-09).transl(-1.1166207196150562e-07, -3.4895215761688e-08, 0))
hIsland = hIsland.add(rect(4.0608406114005345e-09, 1.9763099745559498e-09).transl(-5.991703845026225e-08, -4e-08, 0))
hIsland = hIsland.add(rect(4.491907548900632e-09, 2.9366038288882422e-09).transl(-1.006905730180319e-08, -4e-08, 0))
hIsland = hIsland.sub(rect(6.263313080251184e-09, -3.9739976090867994e-10).transl(1.3712162426732946e-07, -2.241208434918584e-08, 0))
hIsland = hIsland.sub(rect(4.718665616841451e-09, -1.3394884578507249e-09).transl(9.021067139856827e-08, -3.916873302002821e-08, 0))
hIsland = hIsland.add(rect(9.997766465772685e-09, 7.761527036614851e-10).transl(-2.3765408497450485e-08, -4e-08, 0))
hIsland = hIsland.sub(rect(4.332858256097354e-09, -1.3121331993370192e-09).transl(1.0897396415244709e-07, -3.5660701346949134e-08, 0))
hIsland = hIsland.add(rect(8.645435693743158e-09, 2.1801930166392726e-09).transl(-4.29427283224049e-08, -4e-08, 0))
hIsland = hIsland.sub(rect(2.575308680314241e-09, -1.1867051184304497e-09).transl(-7.765381592735071e-10, -4e-08, 0))
hIsland = hIsland.add(rect(8.16009878561355e-09, 1.7687644892399161e-10).transl(-1.1930298505039914e-07, -3.2275461129329484e-08, 0))
hIsland = hIsland.add(rect(2.880344085986779e-09, 4.039042106070634e-09).transl(-2.243360198902056e-08, -4e-08, 0))
hIsland = hIsland.sub(rect(6.419655120989263e-09, -6.795791254562318e-10).transl(-3.7237468660387776e-08, -4e-08, 0))
hIsland = hIsland.sub(rect(6.852027861695466e-09, -5.657806417437804e-10).transl(-1.465335424079591e-07, -1.2020158600617168e-08, 0))
hIsland = hIsland.sub(rect(8.199371676879583e-09, -2.2028251032621708e-10).transl(-1.1153307052689593e-07, -3.4933678401865594e-08, 0))
hIsland = hIsland.sub(rect(7.723060022676333e-09, -6.640022001077607e-10).transl(1.4545459686090893e-07, -1.3713510936246696e-08, 0))
hIsland = hIsland.sub(rect(7.314634673322301e-09, -3.478868602277484e-10).transl(-1.4514450797641753e-08, -4e-08, 0))
hIsland = hIsland.sub(rect(7.682323099850986e-09, -1.1586480340578408e-09).transl(2.1851002813303998e-08, -4e-08, 0))
hIsland = hIsland.sub(rect(9.15001566884403e-09, -2.05172360729595e-09).transl(1.2156395846697442e-07, -3.13570872655748e-08, 0))
hIsland = hIsland.sub(rect(3.4366546837538295e-09, -6.142363744681639e-09).transl(1.4229571209592262e-08, -4e-08, 0))
hIsland = hIsland.sub(rect(9.964722516551716e-09, -3.785178720043266e-09).transl(-1.098883445026856e-07, -3.540868812048901e-08, 0))
hIsland = hIsland.sub(rect(9.196125257014807e-09, -5.417161596962057e-10).transl(-2.3212316705486057e-09, -4e-08, 0))
hIsland = hIsland.sub(rect(3.080560586891359e-09, -1.6350654525961808e-10).transl(-1.2206513087390273e-08, -4e-08, 0))
hIsland = hIsland.add(rect(7.227603634080231e-09, 2.9890963069214747e-09).transl(-2.865242786115407e-08, -4e-08, 0))
hIsland = hIsland.add(rect(4.632763305743415e-09, 2.7710165886487683e-09).transl(-1.2120825870939347e-07, -3.1506401249476544e-08, 0))
hIsland = hIsland.sub(rect(9.171584193031512e-09, -6.820520853850058e-10).transl(-9.370039717088782e-08, -3.873665443717601e-08, 0))
hIsland = hIsland.sub(rect(9.566533729061231e-09, -3.6958824233464803e-10).transl(1.2897248849746877e-07, -2.777417754077806e-08, 0))
hIsland = hIsland.add(rect(6.6196132668681035e-09, 3.156871001425267e-10).transl(4.1737276766825777e-08, -4e-08, 0))
hIsland = hIsland.sub(rect(4.00489125851742e-09, -1.2255723523702117e-09).transl(3.220461678160455e-08, -4e-08, 0))
hIsland = hIsland.add(rect(9.26598539101479e-09, 2.230571308803425e-09).transl(-1.3837099718332734e-07, -2.1394025108105512e-08, 0))
hIsland = hIsland.add(rect(9.316987847399253e-09, 1.3399564355699344e-09).transl(2.2914228119771778e-08, -4e-08, 0))
hIsland = hIsland.sub(rect(6.93447877279474e-09, -6.765853617927794e-10).transl(2.0174631216768005e-08, -4e-08, 0))
hIsland = hIsland.sub(rect(9.796267202041496e-09, -1.1442289630822212e-09).transl(6.264367847038266e-08, -4e-08, 0))
hIsland = hIsland.add(rect(8.261736665332537e-09, 9.574665380526333e-10).transl(7.452138060635016e-10, -4e-08, 0))
hIsland = hIsland.add(rect(2.887952660656244e-09, 1.8002638190797872e-09).transl(-5.2146452335433604e-08, -4e-08, 0))
hIsland = hIsland.add(rect(4.32746062790541e-09, 1.816614068623907e-10).transl(6.017312455876306e-08, -4e-08, 0))
hIsland = hIsland.sub(rect(8.307685115522763e-09, -1.1123589446329475e-09).transl(8.045592580561897e-08, -3.989402093383748e-08, 0))
hIsland = hIsland.add(rect(6.820829073993465e-09, 2.2245110911176475e-09).transl(5.3597907115026765e-08, -4e-08, 0))
hIsland = hIsland.add(rect(5.2939884645359206e-09, 1.4756409656155902e-09).transl(-2.706084399878612e-08, -4e-08, 0))
hIsland = hIsland.add(rect(5.436848348241444e-09, 7.520361090371006e-11).transl(1.3652881380937474e-07, -2.2872508928845187e-08, 0))
hIsland = hIsland.add(rect(7.952968650038816e-09, 2.072526366713376e-09).transl(1.099681121179526e-07, -3.538629946016478e-08, 0))
hIsland = hIsland.add(rect(7.675897512978e-09, 1.9650659920136718e-09).transl(-9.365067908584665e-08, -3.874347192936023e-08, 0))
hIsland = hIsland.sub(rect(2.260823450878279e-09, -4.036528188699293e-09).transl(-7.643344040773702e-08, -3.9992693549932784e-08, 0))
hIsland = hIsland.add(rect(8.29100458819465e-09, 1.689357900355496e-10).transl(1.1001789933848549e-07, -3.537229238692408e-08, 0))
hIsland = hIsland.sub(rect(3.754641008100077e-09, -1.4066158718569833e-10).transl(1.0680737131810397e-07, -3.622464675446291e-08, 0))
hIsland = hIsland.add(rect(7.849491426821058e-09, 1.4316849391316636e-10).transl(-2.9334688787939823e-08, -4e-08, 0))
hIsland = hIsland.add(rect(7.016515599165214e-09, 9.809040808279259e-10).transl(5.619269922631585e-08, -4e-08, 0))
hIsland = hIsland.sub(rect(4.575574118950294e-09, -3.0574042603126613e-10).transl(-1.1786285637271608e-07, -3.282395025239294e-08, 0))
hIsland = hIsland.sub(rect(3.2447331225625746e-09, -6.419318334988617e-10).transl(-1.3725541589346596e-07, -2.2306236724649366e-08, 0))
hIsland = hIsland.sub(rect(5.196927877356906e-09, -1.1513211204487587e-09).transl(9.795842103817014e-08, -3.807981663236564e-08, 0))
hIsland = hIsland.add(rect(9.806122438906582e-09, 8.778654648100774e-10).transl(-1.4220930106888202e-07, -1.7752149214393684e-08, 0))
hIsland = hIsland.add(rect(6.167891404640953e-09, 8.112137074159614e-10).transl(-9.129237314163023e-08, -3.904480326522276e-08, 0))
hIsland = hIsland.sub(rect(5.361059949517768e-09, -1.2144252991333222e-09).transl(-6.245308628891781e-09, -4e-08, 0))
hIsland = hIsland.sub(rect(7.231886608843773e-09, -6.779594269211278e-10).transl(6.849961836489817e-08, -4e-08, 0))
hIsland = hIsland.sub(rect(6.167571587763502e-09, -1.2166678251981056e-09).transl(-5.601761678530304e-08, -4e-08, 0))
hIsland = hIsland.add(rect(9.642136163881706e-09, 1.3745783254083852e-10).transl(5.7378906201267526e-08, -4e-08, 0))
hIsland = hIsland.sub(rect(2.181114014255789e-09, -2.9531136219217055e-09).transl(1.9227856106001514e-08, -4e-08, 0))
hIsland = hIsland.sub(rect(2.4980006562199214e-09, -4.1710447609684647e-10).transl(-6.586267196614359e-08, -4e-08, 0))
hIsland = hIsland.sub(rect(8.652108332947787e-09, -7.860445305408415e-10).transl(1.8935585625479947e-08, -4e-08, 0))
hIsland = hIsland.sub(rect(9.094612451598387e-09, -1.0624639528929557e-09).transl(-8.053559158459654e-08, -3.98908991264784e-08, 0))
hIsland = hIsland.add(rect(6.853648431522512e-09, 1.7317382697220727e-09).transl(6.422553055370766e-08, -4e-08, 0))
hIsland = hIsland.add(rect(9.117485257077476e-09, 1.1654370268716549e-09).transl(5.459566157622932e-08, -4e-08, 0))
hIsland = hIsland.sub(rect(4.005508512187269e-09, -1.0173916087096085e-09).transl(4.000220469710268e-08, -4e-08, 0))
hIsland = hIsland.sub(rect(2.3669563347656483e-09, -2.752174887353574e-09).transl(-5.131343488102343e-08, -4e-08, 0))
hIsland = hIsland.sub(rect(7.116666888874768e-09, -6.250454023517061e-10).transl(1.196480235937893e-07, -3.213993399058283e-08, 0))
hIsland = hIsland.add(rect(5.479223157959004e-09, 2.4431787653100633e-09).transl(2.12277773404147e-08, -4e-08, 0))
hIsland = hIsland.sub(rect(9.14813368894534e-09, -1.0690957873417881e-09).transl(-1.3026353871196068e-07, -2.704237353964856e-08, 0))
hIsland = hIsland.add(rect(3.806410301927072e-09, 1.426537558316078e-09).transl(-8.029084017837233e-08, -3.990034523121283e-08, 0))
hIsland = hIsland.sub(rect(7.150216588818707e-09, -2.1284880519755854e-10).transl(-6.201893257273836e-08, -4e-08, 0))
hIsland = hIsland.sub(rect(2.0290695265577637e-09, -1.1771798362393031e-09).transl(3.4065606056997306e-08, -4e-08, 0))
hIsland = hIsland.add(rect(7.411134328993258e-09, 1.8084480900705867e-09).transl(9.804147023582314e-08, -3.806554590059318e-08, 0))
hIsland = hIsland.add(rect(6.039817933435029e-09, 1.3797049525416268e-09).transl(-6.022266458583168e-08, -4e-08, 0))
hIsland = hIsland.sub(rect(4.961983838465408e-09, -1.6147813537665844e-09).transl(1.3930661341611432e-07, -2.0584590368183173e-08, 0))
hIsland = hIsland.sub(rect(8.782029176449349e-09, -6.142285486270123e-10).transl(-7.1657262585284e-08, -4e-08, 0))
hIsland = hIsland.add(rect(2.821768442949101e-09, 1.9290440869239614e-09).transl(-8.680195028861555e-08, -3.950165645138009e-08, 0))
hIsland = hIsland.sub(rect(9.439321014193249e-09, -5.2706284125317596e-11).transl(-4.762668211964423e-08, -4e-08, 0))
hIsland = hIsland.add(rect(7.542944087999421e-09, 1.2042534179858388e-09).transl(-2.1971421367126708e-08, -4e-08, 0))
hIsland = hIsland.add(rect(3.2438727965452235e-09, 1.349397348723401e-09).transl(-1.391118341471334e-07, -2.0756691475451114e-08, 0))
hIsland = hIsland.add(rect(3.0073082198536477e-09, 2.173862953559745e-09).transl(-3.1704926833678376e-08, -4e-08, 0))
hIsland = hIsland.sub(rect(8.170004552385106e-09, -1.1707647654587993e-09).transl(-1.652367015347021e-09, -4e-08, 0))
hIsland = hIsland.add(rect(7.7359250093056e-09, 1.2707806406310054e-09).transl(-1.464318625519867e-07, -1.2190943230422464e-08, 0))
hIsland = hIsland.sub(rect(8.570474427592739e-09, -5.794777115078803e-10).transl(1.0603032156924524e-07, -3.641584668317358e-08, 0))
hIsland = hIsland.sub(rect(5.817765812963064e-09, -1.1481777170514663e-10).transl(1.1924855783551467e-07, -3.229669183516654e-08, 0))
hIsland = hIsland.add(rect(8.149499491744752e-09, 1.4157474407569004e-09).transl(9.592425690301609e-08, -3.8411759210812365e-08, 0))
hIsland = hIsland.sub(rect(7.088454229808887e-09, -3.0704194823602427e-10).transl(6.010386008210467e-08, -4e-08, 0))
hIsland = hIsland.sub(rect(3.590862807883013e-09, -1.7961586032534976e-10).transl(-7.9786989202014e-08, -3.9918440350311355e-08, 0))
hIsland = hIsland.sub(rect(6.570991865310462e-09, -3.3102964576844046e-10).transl(1.4751686804412092e-07, -1.020750189062047e-08, 0))
hIsland = hIsland.add(rect(2.9526037710139125e-09, 8.823616876093773e-10).transl(-6.218503256243857e-08, -4e-08, 0))
hIsland = hIsland.sub(rect(2.4756413556154433e-09, -1.5260648695246443e-09).transl(1.3389718581374324e-08, -4e-08, 0))
hIsland = hIsland.sub(rect(5.10972032662701e-09, -2.0525348983864577e-09).transl(1.1588298429856196e-07, -3.353467340397176e-08, 0))
hIsland = hIsland.add(rect(8.752554000078538e-09, 2.0637133298999636e-10).transl(1.4515598304347613e-08, -4e-08, 0))
hIsland = hIsland.sub(rect(8.919129393784577e-09, -7.131158571562257e-10).transl(-3.613034034742366e-08, -4e-08, 0))
hIsland = hIsland.sub(rect(3.7246885369551564e-09, -2.480747221001121e-10).transl(-1.3707978618866203e-07, -2.244503502566813e-08, 0))
hIsland = hIsland.sub(rect(5.8160349778158665e-09, -1.150302993345082e-09).transl(1.4785986164463697e-07, -9.487347343104265e-09, 0))
hIsland = hIsland.add(rect(8.677588700875411e-09, 1.293745208982197e-09).transl(7.382023382540034e-08, -4e-08, 0))
hIsland = hIsland.add(rect(9.50154965680461e-09, 2.2346314944091081e-10).transl(-1.210785796873268e-07, -3.1560377945625654e-08, 0))
hIsland = hIsland.add(rect(8.527314570794456e-09, 3.791333918721219e-09).transl(5.0927858386799957e-08, -4e-08, 0))
hIsland = hIsland.add(rect(6.929768343985498e-09, 6.924808845972725e-11).transl(-2.311038156158576e-08, -4e-08, 0))
hIsland = hIsland.add(rect(6.7457080523218894e-09, 2.013837665390807e-10).transl(1.1541219430250156e-07, -3.3696599980547933e-08, 0))
hIsland = hIsland.sub(rect(4.0709929596077805e-09, -2.415399895322919e-09).transl(-1.0742128780558302e-07, -3.606950365981788e-08, 0))
hIsland = hIsland.add(rect(6.130990680027669e-09, 1.7530353367773158e-09).transl(-1.3200324252966635e-07, -2.599490051107533e-08, 0))
hIsland = hIsland.sub(rect(3.841680147497981e-09, -2.415439672644237e-09).transl(3.986468287573223e-08, -4e-08, 0))
hIsland = hIsland.add(rect(8.331243689036638e-09, 1.0217214924977412e-09).transl(2.4843174707070522e-08, -4e-08, 0))
hIsland = hIsland.add(rect(6.656210203270572e-09, 1.063143178615022e-09).transl(-9.70324992348037e-08, -3.823508653684327e-08, 0))
hIsland = hIsland.add(rect(9.635837184918498e-09, 2.1598904765504267e-10).transl(-8.279604484532114e-08, -3.97833124047013e-08, 0))
hIsland = hIsland.sub(rect(4.596434483419052e-09, -1.0097710520413104e-09).transl(1.3690860390338432e-07, -2.2579123574661985e-08, 0))
hIsland = hIsland.sub(rect(5.3528667333185684e-09, -4.701356567829863e-09).transl(6.537975670688516e-08, -4e-08, 0))
hIsland = hIsland.add(rect(4.809529819060149e-09, 4.774356879510762e-10).transl(-1.2430450714501825e-07, -3.014190120170172e-08, 0))
hIsland = hIsland.add(rect(2.1537006000546513e-09, 1.1572768305735442e-09).transl(1.1413509381746954e-07, -3.4122683471488445e-08, 0))
hIsland = hIsland.sub(rect(8.93346878285608e-09, -7.738275530465366e-10).transl(-7.849914976781547e-09, -4e-08, 0))
hIsland = hIsland.sub(rect(6.093561830825801e-09, -4.239010013833181e-09).transl(-4.921643547451586e-08, -4e-08, 0))
hIsland = hIsland.add(rect(8.617383661457354e-09, 4.406020883964098e-09).transl(9.68182884526714e-08, -3.827001068407049e-08, 0))
hIsland = hIsland.add(rect(9.659573810171666e-09, 1.4831502990223588e-09).transl(-1.2664395485565148e-07, -2.9006185035418892e-08, 0))
hIsland = hIsland.add(rect(8.413447338005064e-09, 2.711188724000844e-09).transl(9.116697618504557e-08, -3.905962669139802e-08, 0))
hIsland = hIsland.add(rect(9.960510149626451e-09, 4.524381931314862e-11).transl(-4.171017289738409e-08, -4e-08, 0))
hIsland = hIsland.add(rect(7.788058452582266e-09, 6.590755524873728e-10).transl(-1.0736144652922232e-07, -3.608478619562065e-08, 0))
hIsland = hIsland.sub(rect(4.956746129512173e-09, -3.6742052499397737e-10).transl(5.3097528027811e-09, -4e-08, 0))
hIsland = hIsland.sub(rect(4.056858497556365e-09, -2.186684358469352e-09).transl(8.225587530912059e-08, -3.98123680115114e-08, 0))
hIsland = hIsland.sub(rect(9.140835027426206e-09, -4.5412225926737065e-10).transl(-3.4180846570791406e-08, -4e-08, 0))
hIsland = hIsland.sub(rect(3.030554527037226e-09, -2.573340657767889e-09).transl(-1.1106148115921375e-07, -3.5072778485292235e-08, 0))
hIsland = hIsland.add(rect(8.308366295274046e-09, 5.569021986547773e-10).transl(1.3864335914266143e-07, -2.1162804011907916e-08, 0))
hIsland = hIsland.sub(rect(9.668157075149942e-09, -1.9126479672696144e-09).transl(-9.431728029240339e-08, -3.865045244264159e-08, 0))
hIsland = hIsland.add(rect(8.207296999908996e-09, 2.3496373196984015e-09).transl(7.349120796511169e-08, -4e-08, 0))
hIsland = hIsland.sub(rect(8.860184174654462e-09, -2.4454836918547295e-10).transl(9.42385543217345e-08, -3.866162000209964e-08, 0))
hIsland = hIsland.add(rect(5.83327659669062e-09, 1.3786725775162186e-09).transl(-6.260518329479215e-08, -4e-08, 0))
hIsland = hIsland.sub(rect(8.48818823335801e-09, -1.1730575193701938e-10).transl(8.12454221938162e-09, -4e-08, 0))
hIsland = hIsland.add(rect(2.3523234503622946e-09, 9.804173964890166e-10).transl(-1.1045848071892995e-07, -3.524722547232067e-08, 0))
hIsland = hIsland.add(rect(9.629116932445929e-09, 1.611800284831589e-10).transl(-1.2799509079329097e-07, -2.8304479623149904e-08, 0))
hIsland = hIsland.add(rect(9.644147908839397e-09, 3.693116612232348e-10).transl(3.255401391107259e-08, -4e-08, 0))
hIsland = hIsland.sub(rect(2.779840885192611e-09, -9.652447488562984e-10).transl(-3.343555054601756e-08, -4e-08, 0))
hIsland = hIsland.add(rect(9.883195862202438e-09, 3.168120420058919e-10).transl(7.464493183821695e-09, -4e-08, 0))
hIsland = hIsland.sub(rect(4.261576351623862e-09, -3.252553443571524e-09).transl(1.1117292320420392e-07, -3.504012025088556e-08, 0))
hIsland = hIsland.sub(rect(6.905603197169885e-09, -4.434397795117658e-09).transl(-1.4286791054667652e-07, -1.7024503902553362e-08, 0))
hIsland = hIsland.add(rect(6.552975795247961e-09, 1.2519549633083022e-10).transl(5.0586381327436236e-08, -4e-08, 0))
hIsland = hIsland.sub(rect(4.087770653525464e-09, -3.246305554986341e-10).transl(-1.0915660339874799e-07, -3.561104026267265e-08, 0))
hIsland = hIsland.sub(rect(8.626923311681736e-09, -1.7263666884106742e-09).transl(4.342674633896833e-08, -4e-08, 0))
hIsland = hIsland.add(rect(5.065893032030383e-09, 2.4936897588539885e-09).transl(-4.2827251486686206e-08, -4e-08, 0))
hIsland = hIsland.sub(rect(5.395405151269377e-09, -1.7497694446447515e-09).transl(-9.295834897124921e-08, -3.883640061949427e-08, 0))
hIsland = hIsland.sub(rect(8.420298597720081e-09, -3.5632101693653687e-09).transl(-9.159401039450195e-08, -3.9008653422755e-08, 0))
hIsland = hIsland.sub(rect(7.198500367969673e-09, -2.4890690345738286e-09).transl(1.2097262453794967e-08, -4e-08, 0))
hIsland = hIsland.sub(rect(8.095842507098152e-09, -2.069128032501576e-09).transl(4.3999303584160093e-08, -4e-08, 0))
hIsland = hIsland.sub(rect(4.092584179119701e-09, -1.4276019961874415e-10).transl(-5.3091499892502026e-08, -4e-08, 0))
hIsland = hIsland.add(rect(6.081896630689941e-09, 3.389741418221948e-09).transl(-9.803812263565139e-08, -3.8066122234704535e-08, 0))
hIsland = hIsland.add(rect(6.5031851785043385e-09, 5.999061033268166e-10).transl(-5.700576015903408e-08, -4e-08, 0))
hIsland = hIsland.add(rect(2.504720498540522e-09, 2.604349171571182e-09).transl(4.1778118554697945e-09, -4e-08, 0))
hIsland = hIsland.add(rect(6.574976617667425e-09, 3.2335427145362885e-09).transl(-1.4403278537804636e-07, -1.5635624671983998e-08, 0))
hIsland = hIsland.add(rect(5.635231262932224e-09, 1.9246513794067456e-09).transl(-9.74787236833221e-08, -3.816113478515408e-08, 0))
hIsland = hIsland.sub(rect(8.105404781196726e-09, -2.674008829735178e-09).transl(-1.5459056963362994e-08, -4e-08, 0))
hIsland = hIsland.add(rect(2.873266784709279e-09, 3.2490997199256895e-10).transl(1.4443700654250486e-07, -1.511792693528417e-08, 0))
hIsland = hIsland.sub(rect(2.1702868158208526e-09, -1.5923314472593753e-09).transl(-5.117562114090894e-08, -4e-08, 0))
hIsland = hIsland.add(rect(7.215408826310681e-09, 1.8448898688289448e-09).transl(-8.008335427543186e-08, -3.990801693872597e-08, 0))
hIsland = hIsland.sub(rect(2.317833865367819e-09, -1.6321527327501563e-09).transl(-1.84481355573828e-08, -4e-08, 0))
hIsland = hIsland.add(rect(2.185620300262249e-09, 2.595190001700303e-09).transl(1.439574278986887e-07, -1.572992629865021e-08, 0))
hIsland = hIsland.sub(rect(9.951828292530356e-09, -1.3281666860062296e-09).transl(-2.1250179410686144e-08, -4e-08, 0))
hIsland = hIsland.sub(rect(9.365083450388885e-09, -1.6442519707043959e-09).transl(-8.160955051510171e-08, -3.9844368674311495e-08, 0))
hIsland = hIsland.sub(rect(9.354190834914637e-09, -1.0873705885639972e-09).transl(-9.764374477962118e-08, -3.813337369640896e-08, 0))
hIsland = hIsland.add(rect(3.5021849812195916e-09, 2.6214844423003887e-09).transl(1.2814690281852484e-07, -2.8223396923757332e-08, 0))
hIsland = hIsland.add(rect(5.847257993673052e-09, 1.6747483249827136e-10).transl(-7.930269445470233e-09, -4e-08, 0))
hIsland = hIsland.sub(rect(6.8911692572165764e-09, -1.3869264855940067e-09).transl(-4.1725524964466634e-08, -4e-08, 0))
hIsland = hIsland.sub(rect(3.84179781826909e-09, -1.8210280986533538e-09).transl(7.733958457127963e-08, -3.9980533375251794e-08, 0))
hIsland = hIsland.add(rect(2.114394510171903e-09, 1.3166973862350274e-09).transl(-1.2716755606411007e-07, -2.8738433424795663e-08, 0))
hIsland = hIsland.sub(rect(5.724307396837953e-09, -1.1388257868958254e-09).transl(1.0436816464062654e-07, -3.68058387856557e-08, 0))
hIsland = hIsland.add(rect(8.867418881859218e-09, 6.396771839033576e-10).transl(-1.428002591684245e-07, -1.71010059260262e-08, 0))
hIsland = hIsland.add(rect(8.559648857061997e-09, 1.4079562887606154e-09).transl(1.2501607828314411e-08, -4e-08, 0))
hIsland = hIsland.sub(rect(6.125937589866034e-09, -6.817572651935168e-10).transl(7.866107614982526e-08, -3.99523147637676e-08, 0))
hIsland = hIsland.sub(rect(5.587990920446811e-09, -2.868028128485013e-09).transl(1.2384984924450431e-07, -3.0351738199722344e-08, 0))
hIsland = hIsland.sub(rect(5.139324969606327e-09, -1.3575675519867966e-09).transl(1.3279752387945786e-07, -2.5491136493370838e-08, 0))
hIsland = hIsland.sub(rect(5.865265156816904e-09, -2.5618383981926673e-09).transl(6.817868779929472e-08, -4e-08, 0))
hIsland = hIsland.add(rect(6.483417790257951e-09, 6.008235774578194e-11).transl(-1.3667073989803553e-07, 2.2763525384795003e-08, 0))
hIsland = hIsland.sub(rect(6.05594877082528e-09, -6.7864425783018035e-09).transl(-5.8477588576123253e-08, 4e-08, 0))
hIsland = hIsland.add(rect(4.702167233852942e-09, 1.28189166383106e-09).transl(5.963907239685838e-08, 4e-08, 0))
hIsland = hIsland.add(rect(8.045182895191548e-09, 1.0533483766255433e-09).transl(1.4048719136413625e-07, 1.9497165275799925e-08, 0))
hIsland = hIsland.add(rect(9.122218780476234e-09, 1.7489571204239411e-09).transl(1.631912285342632e-08, 4e-08, 0))
hIsland = hIsland.sub(rect(8.186010977058189e-09, -5.704012842306343e-10).transl(3.738683695203642e-08, 4e-08, 0))
hIsland = hIsland.add(rect(3.3958710861239353e-09, 1.3285743555786384e-09).transl(-4.496098533623415e-08, 4e-08, 0))
hIsland = hIsland.sub(rect(9.238478047490785e-09, -3.875673966411337e-10).transl(4.435344278003885e-08, 4e-08, 0))
hIsland = hIsland.sub(rect(7.915720610905198e-09, -5.262917309284726e-10).transl(1.4582571983670847e-08, 4e-08, 0))
hIsland = hIsland.sub(rect(6.816781317885313e-09, -5.276643254390581e-10).transl(-1.2751023988606492e-07, 2.856035957250358e-08, 0))
hIsland = hIsland.sub(rect(7.4361469201060914e-09, -6.849669386489531e-10).transl(3.382181282153059e-08, 4e-08, 0))
hIsland = hIsland.add(rect(3.09297873719935e-09, 2.2894116564416702e-09).transl(3.773024720843485e-09, 4e-08, 0))
hIsland = hIsland.sub(rect(2.7144145383213775e-09, -1.7191573038046508e-09).transl(1.250777191379209e-07, 2.977711357852498e-08, 0))
hIsland = hIsland.sub(rect(7.0303485557335315e-09, -1.5649376857367868e-09).transl(7.670931756643281e-08, 3.9989610147373334e-08, 0))
hIsland = hIsland.add(rect(3.588205074591352e-09, 1.6775136006411202e-09).transl(-1.4330500531028476e-07, 1.651979014824561e-08, 0))
hIsland = hIsland.sub(rect(4.0415283834122305e-09, -5.136756471670694e-10).transl(-1.214564765920114e-07, 3.140240118844258e-08, 0))
hIsland = hIsland.sub(rect(6.752951030020433e-09, -5.942633695944082e-10).transl(6.105957557341022e-08, 4e-08, 0))
hIsland = hIsland.add(rect(9.036637495008822e-09, 1.9382595983524045e-09).transl(-1.264287316490388e-07, 2.911475196163195e-08, 0))
hIsland = hIsland.add(rect(7.056435226931081e-09, 8.644279276322241e-10).transl(-9.794934410830492e-08, 3.808137291642208e-08, 0))
hIsland = hIsland.add(rect(4.981170267650375e-09, 2.0993883459389125e-09).transl(-1.2058178272962626e-07, 3.1764919107167784e-08, 0))
hIsland = hIsland.sub(rect(7.375754071029331e-09, -2.6889805720175632e-09).transl(-9.888888404981076e-08, 3.7916666403323116e-08, 0))
hIsland = hIsland.sub(rect(5.36984750605653e-09, -6.446172715170177e-09).transl(7.094141755193803e-09, 4e-08, 0))
hIsland = hIsland.add(rect(6.707883113247041e-09, 1.799635797679592e-09).transl(-1.0472431885874315e-07, 3.6724424302366835e-08, 0))
hIsland = hIsland.sub(rect(4.2111641414244985e-09, -3.161297815704086e-09).transl(-3.861024335905545e-09, 4e-08, 0))
hIsland = hIsland.add(rect(4.268186033627667e-09, 1.0332242843244753e-09).transl(7.886666927025045e-08, 3.994680505095568e-08, 0))
hIsland = hIsland.add(rect(4.34040798582708e-09, 3.3841065078115967e-09).transl(5.784466777700575e-08, 4e-08, 0))
hIsland = hIsland.sub(rect(2.8897497863973033e-09, -3.248350725140006e-09).transl(1.1901458954838591e-07, 3.238750225632485e-08, 0))
hIsland = hIsland.add(rect(6.352499832222035e-09, 1.868052652618852e-09).transl(-1.251674148277304e-07, 2.97341368597072e-08, 0))
hIsland = hIsland.add(rect(5.467668351493592e-09, 1.69512678158307e-09).transl(-1.495403127017952e-07, 4.421902088664232e-09, 0))
hIsland = hIsland.sub(rect(3.951545843947769e-09, -4.636756097095302e-10).transl(1.4681693189403472e-08, 4e-08, 0))
hIsland = hIsland.sub(rect(5.725869145256423e-09, -1.09663254988803e-09).transl(1.4285614705274318e-07, 1.703783654210902e-08, 0))
hIsland = hIsland.sub(rect(8.869939761347539e-09, -1.1947439987686387e-09).transl(1.0318485790387179e-07, 3.706806245789659e-08, 0))
hIsland = hIsland.add(rect(9.698803508584902e-09, 2.303526621816023e-09).transl(-1.0319613766051093e-07, 3.706562232017331e-08, 0))
hIsland = hIsland.add(rect(7.192991590081713e-09, 9.970374889488624e-10).transl(4.058037956096216e-08, 4e-08, 0))
hIsland = hIsland.add(rect(2.8319792471727787e-09, 2.926776871525588e-09).transl(3.2657702616053896e-08, 4e-08, 0))
hIsland = hIsland.add(rect(3.3113573321266552e-09, 2.8880393944787e-10).transl(-7.596302982535691e-08, 3.9996702347821416e-08, 0))
hIsland = hIsland.sub(rect(9.4493353060411e-09, -2.1913429411130475e-09).transl(1.3795440471317776e-07, 2.1741056638065443e-08, 0))
hIsland = hIsland.sub(rect(5.73552347147031e-09, -7.396198420782776e-10).transl(7.296947663603516e-08, 4e-08, 0))
hIsland = hIsland.add(rect(9.835052175949414e-09, 3.767508007280039e-09).transl(1.3854287935794136e-07, 2.124851460489364e-08, 0))
hIsland = hIsland.add(rect(4.351153745521103e-09, 1.1526602940542342e-09).transl(-3.802996003503914e-08, 4e-08, 0))
hIsland = hIsland.add(rect(9.61112125322957e-09, 4.364558229784064e-09).transl(1.4166089225276373e-07, 1.8330888130291916e-08, 0))
hIsland = hIsland.add(rect(7.545316081244898e-09, 1.4432698717279726e-09).transl(8.197565010531464e-08, 3.982661196062119e-08, 0))
hIsland = hIsland.sub(rect(4.326749797537024e-09, -3.65190110744903e-09).transl(7.030987201918168e-08, 4e-08, 0))
hIsland = hIsland.add(rect(6.025316652269056e-09, 3.2081102690879153e-09).transl(-1.0741946846712319e-07, 3.606996880236393e-08, 0))
hIsland = hIsland.sub(rect(5.143142648408617e-09, -2.04595489558807e-09).transl(2.7455142442194307e-08, 4e-08, 0))
hIsland = hIsland.add(rect(7.0033831508147634e-09, 1.623663827763085e-09).transl(-7.36142672111504e-08, 4e-08, 0))
hIsland = hIsland.add(rect(2.5277937789303276e-09, 2.9726767722668484e-09).transl(1.0691745416283452e-07, 3.6197094522127043e-08, 0))
hIsland = hIsland.add(rect(8.545597338986346e-09, 3.7930569868274494e-09).transl(2.27112365597981e-08, 4e-08, 0))
hIsland = hIsland.add(rect(9.325701618625394e-09, 5.0224508890995306e-09).transl(-5.062945248290686e-08, 4e-08, 0))
hIsland = hIsland.sub(rect(4.968655660458682e-09, -1.028183820882742e-09).transl(-1.3318514702870175e-07, 2.5239059198516115e-08, 0))
hIsland = hIsland.add(rect(8.249047392924105e-09, 3.518171642612142e-09).transl(-5.698723656788333e-08, 4e-08, 0))
hIsland = hIsland.add(rect(9.242193846006113e-09, 3.401418814495847e-10).transl(-9.856686640418644e-08, 3.797394309580556e-08, 0))
hIsland = hIsland.sub(rect(5.333300972259233e-09, -6.44594324103286e-10).transl(2.2848617341212144e-08, 4e-08, 0))
hIsland = hIsland.add(rect(4.663568880354727e-09, 1.218702472973238e-09).transl(-2.4331850947899134e-08, 4e-08, 0))
hIsland = hIsland.sub(rect(3.621144965722363e-09, -8.906714260363699e-10).transl(-2.13087329469565e-08, 4e-08, 0))
hIsland = hIsland.sub(rect(2.616508807217228e-09, -1.9302264237407457e-09).transl(-9.02287615479323e-08, 3.9166733536955004e-08, 0))
hIsland = hIsland.add(rect(7.534334893455091e-09, 3.91990107789434e-09).transl(-4.569596585473882e-08, 4e-08, 0))
hIsland = hIsland.sub(rect(5.062260379423183e-09, -5.297755500013726e-10).transl(1.4828825815770067e-07, 8.497110054458208e-09, 0))
hIsland = hIsland.sub(rect(6.988905509894744e-09, -2.188749086698745e-09).transl(-1.3438924690518585e-07, 2.442828147230009e-08, 0))
hIsland = hIsland.sub(rect(9.811723029854588e-09, -1.5485021818542705e-09).transl(-1.3676522852342822e-08, 4e-08, 0))
hIsland = hIsland.sub(rect(5.220165208527536e-09, -2.2983573759853515e-09).transl(-7.089218833413413e-09, 4e-08, 0))
hIsland = hIsland.sub(rect(6.3539131196657374e-09, -8.118063059560387e-10).transl(-2.109358028709221e-08, 4e-08, 0))
hIsland = hIsland.sub(rect(2.6461220229716818e-09, -1.086564686670818e-09).transl(-1.210620695110606e-07, 3.1567232529312293e-08, 0))
hIsland = hIsland.add(rect(2.9535536773797526e-09, 2.921175744480944e-09).transl(-1.3954085730832907e-07, 2.037499286718109e-08, 0))
hIsland = hIsland.sub(rect(8.973920395668721e-09, -3.3551655536150466e-10).transl(2.1309061089893918e-08, 4e-08, 0))
hIsland = hIsland.add(rect(8.180341015409482e-09, 2.8488401559492404e-09).transl(1.0073818481438628e-07, 3.757084767727185e-08, 0))
hIsland = hIsland.add(rect(9.602427305618473e-09, 4.559121485997397e-11).transl(4.448027470537958e-08, 4e-08, 0))
hIsland = hIsland.sub(rect(2.4643229584429404e-09, -1.4407283771505277e-09).transl(-3.555236338270683e-08, 4e-08, 0))
hIsland = hIsland.sub(rect(3.668551086964385e-09, -3.661650612754361e-10).transl(6.98010350511668e-08, 4e-08, 0))
hIsland = hIsland.add(rect(5.46653349638375e-09, 5.444281391737089e-10).transl(6.520322670038857e-08, 4e-08, 0))
hIsland = hIsland.sub(rect(5.587034638809061e-09, -1.4682606573665794e-09).transl(4.5761491105108123e-10, 4e-08, 0))
hIsland = hIsland.sub(rect(4.678652126035945e-09, -2.328992114726029e-10).transl(-2.9109547019527602e-08, 4e-08, 0))
hIsland = hIsland.add(rect(6.585256974245549e-09, 7.17578734898145e-10).transl(7.201528292757055e-09, 4e-08, 0))
hIsland = hIsland.sub(rect(5.152896137766761e-09, -2.293436688016457e-10).transl(-5.922367853037725e-08, 4e-08, 0))
hIsland = hIsland.sub(rect(2.3978307853645363e-09, -3.876890252476409e-09).transl(9.467620669658494e-08, 3.859891771436828e-08, 0))
hIsland = hIsland.sub(rect(5.554059257302362e-09, -1.6397740451669158e-10).transl(-3.292231200816732e-08, 4e-08, 0))
hIsland = hIsland.sub(rect(4.29724404216099e-09, -1.4002879087121029e-09).transl(4.8031473683291774e-09, 4e-08, 0))
hIsland = hIsland.add(rect(6.998334227173958e-09, 1.5084767963993735e-09).transl(9.873555991937256e-09, 4e-08, 0))
hIsland = hIsland.add(rect(3.0800746188819546e-09, 3.0664589745205904e-09).transl(4.203189186218466e-08, 4e-08, 0))
hIsland = hIsland.add(rect(6.325335509231703e-09, 4.074295757754418e-09).transl(3.6499216017934286e-08, 4e-08, 0))
hIsland = hIsland.sub(rect(9.60113084801126e-09, -4.215701424991929e-10).transl(2.261381024141632e-09, 4e-08, 0))
hIsland = hIsland.sub(rect(3.339416450043108e-09, -3.400660385799452e-09).transl(9.067945768291333e-09, 4e-08, 0))
hIsland = hIsland.sub(rect(4.403453025350161e-09, -2.0009117113454513e-09).transl(-4.91703920330265e-10, 4e-08, 0))
hIsland = hIsland.sub(rect(8.663163492507304e-09, -5.352171192907935e-10).transl(-8.220957102778547e-08, 3.9814760717776255e-08, 0))
hIsland = hIsland.sub(rect(6.963986145245649e-09, -3.850757406996171e-09).transl(-1.0966181146851185e-07, 3.5471914702333535e-08, 0))
hIsland = hIsland.sub(rect(4.507952392969679e-09, -4.793191489738509e-10).transl(6.542500903151889e-08, 4e-08, 0))
hIsland = hIsland.add(rect(3.6264659429864974e-09, 1.3812290172144945e-09).transl(-2.6969821855710848e-08, 4e-08, 0))
hIsland = hIsland.sub(rect(6.700744945784091e-09, -9.157110653243752e-12).transl(-8.746734153973095e-08, 3.944347208492054e-08, 0))
hIsland = hIsland.sub(rect(4.890984722179799e-09, -9.935734604626372e-10).transl(-1.3044787585598712e-07, 2.693482801428323e-08, 0))
hIsland = hIsland.sub(rect(8.961769025427532e-09, -1.6930756960965806e-10).transl(4.111841619554752e-08, 4e-08, 0))
hIsland = hIsland.add(rect(9.169240137907303e-09, 1.7365775411494258e-09).transl(-1.2073272732370832e-07, 3.170314598467491e-08, 0))
hIsland = hIsland.add(rect(6.78398728322277e-09, 6.478378041277783e-10).transl(-6.286636993361297e-08, 4e-08, 0))
hIsland = hIsland.sub(rect(5.204589487838685e-09, -1.9896026875683066e-09).transl(-1.3486230216252187e-07, 2.4097607618220588e-08, 0))
hIsland = hIsland.add(rect(5.205723782837094e-09, 1.078793737435004e-09).transl(-1.544408855789848e-08, 4e-08, 0))
hIsland = hIsland.add(rect(3.283526980709011e-09, 2.6154274717742553e-09).transl(1.1296759623106469e-07, 3.449583193706677e-08, 0))
hIsland = hIsland.sub(rect(9.507883229736561e-09, -9.38439866121739e-10).transl(-1.2152617511015907e-07, 3.137303597363006e-08, 0))
hIsland = hIsland.add(rect(7.634151216707812e-09, 3.051155593649699e-09).transl(1.1368718460910942e-07, 3.426765963602313e-08, 0))
hIsland = hIsland.add(rect(4.179163616377036e-09, 8.852264555293514e-11).transl(2.0799465618127527e-09, 4e-08, 0))
hIsland = hIsland.add(rect(9.360723488084542e-09, 7.211945432676876e-10).transl(1.25002704945427e-07, 2.9812949302908e-08, 0))
hIsland = hIsland.sub(rect(2.357927809418338e-09, -1.7239398888042379e-10).transl(-9.377116404430299e-08, 3.872691729000211e-08, 0))
hIsland = hIsland.add(rect(9.409824633680761e-09, 9.33892365287996e-10).transl(-1.0303299933212166e-07, 3.71008032677639e-08, 0))
hIsland = hIsland.add(rect(9.525468524182977e-09, 2.813823080064516e-09).transl(-6.292137580970053e-08, 4e-08, 0))
hIsland = hIsland.add(rect(6.824042845707166e-09, 3.674924871009549e-10).transl(5.4637054989494094e-08, 4e-08, 0))
hIsland = hIsland.sub(rect(6.880410170122842e-09, -1.8189750399594835e-09).transl(1.4485180550504624e-07, 1.4564251078407697e-08, 0))
hIsland = hIsland.add(rect(4.2797247506962214e-09, 6.354238390190298e-10).transl(-4.5535331471367046e-08, 4e-08, 0))
hIsland = hIsland.sub(rect(4.441625960413755e-09, -9.085276823455965e-10).transl(5.144672851548148e-09, 4e-08, 0))
hIsland = hIsland.sub(rect(4.320845992364686e-09, -1.110518451851421e-09).transl(1.0758623856430697e-07, 3.602719784944732e-08, 0))
hIsland = hIsland.add(rect(2.7014039053038686e-09, 2.2895831770977954e-09).transl(7.559673691369233e-08, 3.999873386460424e-08, 0))
hIsland = hIsland.sub(rect(9.257622244684185e-09, -5.183379285579246e-09).transl(5.1682637642225205e-08, 4e-08, 0))
hIsland = hIsland.sub(rect(6.307498866852044e-09, -8.575448893590037e-10).transl(5.3770334164292024e-08, 4e-08, 0))
hIsland = hIsland.add(rect(2.638216240253573e-09, 2.707519288599661e-09).transl(-4.9891369224409066e-08, 4e-08, 0))
hIsland = hIsland.sub(rect(9.835890380251496e-09, -1.548427049428484e-09).transl(-9.138776332386617e-08, 3.903344649271503e-08, 0))
hIsland = hIsland.sub(rect(6.3016734756876126e-09, -5.922095661115067e-10).transl(8.571569243880523e-08, 3.9589624447470445e-08, 0))
hIsland = hIsland.sub(rect(8.445645752805309e-09, -3.588554681774645e-09).transl(3.4879959524950326e-08, 4e-08, 0))
hIsland = hIsland.add(rect(2.133955785616891e-09, 1.9387373058529776e-09).transl(-7.395502478092656e-08, 4e-08, 0))
hIsland = hIsland.add(rect(3.3874664776485457e-09, 3.6587638995035985e-09).transl(1.7419971318779427e-08, 4e-08, 0))
hIsland = hIsland.sub(rect(2.0242468554005486e-09, -2.5777315475822094e-09).transl(-9.564689361438154e-08, 3.8454427294938806e-08, 0))
hIsland = hIsland.sub(rect(9.7830341293174e-09, -4.829090146151502e-10).transl(-1.0099296804844303e-07, 3.752092152209293e-08, 0))
hIsland = hIsland.add(rect(3.3075593967896425e-09, 4.025936186448628e-09).transl(-4.4694405427826445e-08, 4e-08, 0))
hIsland = hIsland.add(rect(5.9227597406573414e-09, 4.1112919368027295e-09).transl(9.540945037503964e-08, 3.849046505102171e-08, 0))
hIsland = hIsland.add(rect(4.794497007555833e-09, 1.2831587986583879e-09).transl(1.0284867296757015e-07, 3.714026808330824e-08, 0))
hIsland = hIsland.add(rect(4.792575327789751e-09, 1.6851887225447295e-09).transl(2.7036370878224456e-08, 4e-08, 0))
hIsland = hIsland.sub(rect(2.615042918022464e-09, -4.211199524882851e-09).transl(6.625163358945356e-08, 4e-08, 0))
hIsland = hIsland.sub(rect(4.107814541667013e-09, -1.78771336134217e-09).transl(-1.3557477085417114e-07, 2.3585741144620814e-08, 0))
hIsland = hIsland.add(rect(3.982871011724098e-09, 8.345419651385262e-10).transl(7.657328237999475e-09, 4e-08, 0))
hIsland = hIsland.add(rect(7.963058224043838e-09, 1.7602908113998922e-09).transl(1.413959709597077e-07, 1.8602365749230196e-08, 0))
hIsland = hIsland.add(rect(3.866895357610153e-09, 8.941570318395817e-10).transl(-9.018774858492403e-08, 3.917126309182127e-08, 0))
hIsland = hIsland.add(rect(4.20234899479961e-09, 9.432301822905952e-11).transl(9.795969126804297e-08, 3.807959879107469e-08, 0))
hIsland = hIsland.add(rect(2.5246632122063276e-09, 1.5294758525940288e-09).transl(4.1412608328004836e-08, 4e-08, 0))
hIsland = hIsland.sub(rect(6.841996574178021e-09, -5.078550160461643e-10).transl(-1.3136901826714684e-07, 2.638536310526698e-08, 0))
hIsland = hIsland.sub(rect(4.985174438212386e-09, -8.82840192314047e-10).transl(-9.987811414359443e-08, 3.773528168975321e-08, 0))
hIsland = hIsland.sub(rect(9.054334665602729e-09, -1.4651714095646915e-10).transl(9.366888932662118e-08, 3.8740977132394676e-08, 0))
hIsland = hIsland.sub(rect(4.460354550022732e-09, -3.584839544821565e-10).transl(-2.5165075058086298e-08, 4e-08, 0))
hIsland = hIsland.sub(rect(5.165601912063411e-09, -2.9706409537587036e-09).transl(1.4611568409020464e-07, 1.2705870294817262e-08, 0))
hIsland = hIsland.sub(rect(7.395595204699234e-09, -1.555156826851106e-09).transl(1.0877321323308057e-07, 3.5714900988953794e-08, 0))
hIsland = hIsland.sub(rect(7.607418994754038e-09, -3.9965360593442884e-11).transl(9.470323264474112e-08, 3.8594996100198235e-08, 0))
hIsland = hIsland.add(rect(9.235458863952773e-09, 3.2139117024700757e-09).transl(1.0103878906771847e-07, 3.751188337276954e-08, 0))
hIsland = hIsland.add(rect(3.762465180209829e-09, 1.5620784199522382e-09).transl(-5.574414814294383e-08, 4e-08, 0))
hIsland = hIsland.add(rect(5.23498293007804e-09, 1.4049541295462259e-09).transl(1.1574053158461181e-07, 3.3583949970650363e-08, 0))
hIsland = hIsland.add(rect(4.688291492068188e-09, 8.558673194057991e-10).transl(9.006109728547793e-08, 3.9185170341607075e-08, 0))
hIsland = hIsland.add(rect(8.202419519763258e-09, 2.5970948444426103e-09).transl(-6.610007149996927e-08, 4e-08, 0))
hIsland = hIsland.sub(rect(8.746069057014883e-09, -1.6147616943230622e-09).transl(9.642775039053708e-08, 3.8332724449938404e-08, 0))
hIsland = hIsland.add(rect(4.089633058980189e-09, 3.898984986525141e-09).transl(6.4946827184542e-08, 4e-08, 0))
hIsland = hIsland.add(rect(9.896060785339318e-09, 3.3612267235019494e-10).transl(-1.0805122256801446e-07, 3.5906512436394394e-08, 0))
hIsland = hIsland.sub(rect(7.277621737969376e-09, -1.1615213788748e-09).transl(-1.0835397448177297e-08, 4e-08, 0))
hIsland = hIsland.sub(rect(9.482227463345379e-09, -4.0889095036189877e-10).transl(-8.099993484559532e-08, 3.9871797330851466e-08, 0))
hIsland = hIsland.add(rect(2.1695144194409013e-09, 1.7175727344301172e-09).transl(3.3509617053443015e-08, 4e-08, 0))
hIsland = hIsland.sub(rect(7.751620322884908e-09, -1.094020581506314e-09).transl(7.775859373565498e-08, 3.9972933635899336e-08, 0))
hIsland = hIsland.sub(rect(6.0347241142322724e-09, -3.0601302327647625e-09).transl(-1.0973140076013983e-07, 3.545254777111812e-08, 0))
hIsland = hIsland.sub(rect(2.0220600376112138e-09, -8.934671094487583e-10).transl(1.0307343366899861e-07, 3.709210569560109e-08, 0))
hIsland = hIsland.add(rect(8.364890828853195e-09, 1.2813113379961752e-09).transl(-8.206638244411065e-09, 4e-08, 0))
hIsland = hIsland.add(rect(8.710611267411565e-09, 2.7774949210634667e-10).transl(7.475713426359953e-08, 4e-08, 0))
hIsland = hIsland.sub(rect(3.3093441757444507e-09, -3.235608123034261e-09).transl(1.4813320094796452e-07, 8.868980856570264e-09, 0))
hIsland = hIsland.sub(rect(9.243726178314369e-09, -6.337180380956296e-10).transl(-1.2392333990309817e-07, 3.0318050070284256e-08, 0))
hIsland = hIsland.add(rect(9.120766838007971e-09, 1.4329897136901807e-09).transl(1.3215545161504203e-07, 2.5899659237874828e-08, 0))
hIsland = hIsland.sub(rect(4.084249579326052e-09, -9.625454354913457e-11).transl(-6.226135398260364e-08, 4e-08, 0))
hIsland = hIsland.sub(rect(8.296649747148233e-09, -1.7659886791010436e-09).transl(-8.373900750776371e-08, 3.9727533349491846e-08, 0))
hIsland = hIsland.sub(rect(3.5038712337180045e-09, -9.941175000176153e-10).transl(-1.4444356943107552e-07, 1.510934994395036e-08, 0))
hIsland = hIsland.sub(rect(4.59801717923382e-09, -1.1591422087047711e-09).transl(7.272753561079029e-08, 4e-08, 0))
hIsland = hIsland.sub(rect(6.377250779538404e-09, -3.7594117155421146e-10).transl(-6.604676161555299e-08, 4e-08, 0))
hIsland = hIsland.add(rect(9.68350876345492e-09, 2.8346576093435827e-09).transl(1.403329998173656e-07, 1.9643754408214213e-08, 0))
hIsland = hIsland.add(rect(7.69873400089043e-09, 1.69545501641666e-09).transl(-1.0816072672597177e-07, 3.5877782477761114e-08, 0))
hIsland = hIsland.add(rect(6.166341295552495e-09, 3.0374316441208908e-09).transl(3.269357565631163e-08, 4e-08, 0))
hIsland = hIsland.add(rect(9.835021588350626e-09, 3.648624110242429e-10).transl(-6.277376689993467e-08, 4e-08, 0))
hIsland = hIsland.sub(rect(9.959347307244337e-09, -1.279542690068649e-09).transl(-8.823227308084447e-08, 3.937252537512215e-08, 0))
hIsland = hIsland.add(rect(2.2636164373030222e-09, 1.22639460492419e-09).transl(-4.3546507271077725e-08, 4e-08, 0))
hIsland = hIsland.sub(rect(8.50147724598562e-09, -4.383763783302296e-09).transl(5.250759080866755e-08, 4e-08, 0))
hIsland = hIsland.add(rect(2.6294710110882092e-09, 2.0695170624394508e-10).transl(1.4130396226117766e-07, 1.869547938964844e-08, 0))
hIsland = hIsland.add(rect(7.204541341394611e-09, 2.529063416460326e-10).transl(-1.1281667897073649e-07, 3.45429537863257e-08, 0))
hIsland = hIsland.add(rect(5.065669293433344e-09, 1.814608377672801e-09).transl(-7.997473259322774e-08, 3.991191024020865e-08, 0))
hIsland = hIsland.sub(rect(8.854842497775369e-09, -2.7744873593297064e-09).transl(-5.623162024637238e-08, 4e-08, 0))
hIsland = hIsland.sub(rect(3.544573822643624e-09, -3.248162841946542e-10).transl(3.221165513228012e-08, 4e-08, 0))
hIsland = hIsland.sub(rect(4.255831867011851e-09, -1.0540750236338666e-09).transl(1.77137804311481e-08, 4e-08, 0))
hIsland = hIsland.sub(rect(5.101363835482356e-09, -3.1490142827687705e-09).transl(1.0954050388642026e-07, 3.550555698863177e-08, 0))
hIsland = hIsland.add(rect(6.570197066201895e-09, 1.4898143021137397e-09).transl(9.695211775783657e-08, 3.824823537893532e-08, 0))
hIsland = hIsland.add(rect(8.767255687707613e-09, 7.2159771547198e-10).transl(-1.2379351507698817e-07, 3.037750225498621e-08, 0))
hIsland = hIsland.add(rect(3.1127406711507187e-09, 1.0332818758943613e-09).transl(-1.2612144752711882e-07, 2.9268279877699263e-08, 0))
hIsland = hIsland.sub(rect(9.765077992041566e-09, -4.97032448666307e-10).transl(-1.5569655796335953e-08, 4e-08, 0))
hIsland = hIsland.add(rect(8.295595939403841e-09, 9.379925209838232e-10).transl(-5.788021816178273e-08, 4e-08, 0))
hIsland = hIsland.add(rect(6.55890327435043e-09, 2.6330546848018855e-09).transl(-1.478161693731182e-07, 9.582287034088434e-09, 0))
hIsland = hIsland.add(rect(2.5346017561444445e-09, 1.4738310644970667e-09).transl(5.375011519587659e-09, 4e-08, 0))
hIsland = hIsland.sub(rect(9.633814120596075e-09, -6.981779498861458e-10).transl(-5.994115834863994e-08, 4e-08, 0))
hIsland = hIsland.add(rect(8.402850585178035e-09, 8.623846670392115e-10).transl(7.934013514891383e-08, 3.9932968641679544e-08, 0))
hIsland = hIsland.add(rect(7.717538617769674e-09, 2.2838100811379914e-09).transl(-3.8629650117793004e-08, 4e-08, 0))
hIsland = hIsland.add(rect(9.189200454037157e-09, 3.793408697971091e-10).transl(1.1445353418344177e-07, 3.401821688369686e-08, 0))
hIsland = hIsland.add(rect(8.554761778424802e-09, 1.8341137814726014e-09).transl(-1.3929892909983495e-07, 2.0591417183252907e-08, 0))
hIsland = hIsland.add(rect(6.8340703899639875e-09, 2.0626872628861968e-09).transl(3.086103293282191e-08, 4e-08, 0))
hIsland = hIsland.add(rect(8.906238708683114e-09, 4.355732432706549e-11).transl(-1.3298382016133845e-07, 2.537050801995139e-08, 0))
hIsland = hIsland.sub(rect(2.3996220562473253e-09, -1.1744887337343053e-09).transl(1.4239678795006945e-07, 1.7548798038847256e-08, 0))
hIsland = hIsland.add(rect(8.650776261931938e-09, 1.0055957081187392e-09).transl(7.187404589455293e-08, 4e-08, 0))
hIsland = hIsland.add(rect(8.341717073946245e-09, 1.479581467686195e-11).transl(1.8738574153436852e-08, 4e-08, 0))
hIsland = hIsland.add(rect(2.195828057769279e-09, 2.693094637435326e-09).transl(-6.3339342988778e-08, 4e-08, 0))
hIsland = hIsland.add(rect(6.908379562946247e-09, 4.674290471859498e-09).transl(1.8900812983247807e-08, 4e-08, 0))
hIsland = hIsland.add(rect(5.587005763037979e-09, 2.3181067412584756e-10).transl(1.4399259250001362e-07, 1.5686005019072436e-08, 0))
hIsland = hIsland.sub(rect(4.06520902601196e-09, -4.61691677598855e-10).transl(-6.665103713953312e-08, 4e-08, 0))
hIsland = hIsland.add(rect(2.3584804916772983e-09, 4.210276275480347e-09).transl(1.1979161501782933e-08, 4e-08, 0))
hIsland = hIsland.add(rect(9.268672914422567e-09, 2.043247758565184e-09).transl(4.040082174205039e-09, 4e-08, 0))
hIsland = hIsland.add(rect(8.571710727359385e-09, 2.708413646739549e-10).transl(7.967632475656251e-08, 3.992217134783652e-08, 0))
hIsland = hIsland.sub(rect(4.347140201190607e-09, -7.978153374804311e-10).transl(7.038114438115079e-08, 4e-08, 0))
hIsland = hIsland.sub(rect(6.3969367151690695e-09, -1.1291060935459486e-10).transl(9.160367591301392e-08, 3.900748353017169e-08, 0))
vIsland = hIsland.rotz(pi / 2)
hIslands = hIslands.add(hIsland.transl(-a/2, a, 0))
hIsland = rect(islandLength-2*ellipseConstant, islandWidth)
hIsland = hIsland.add(ellipse(ellipseConstant*2, islandWidth).transl(islandLength/2-ellipseConstant, 0, 0))
hIsland = hIsland.add(ellipse(ellipseConstant*2, islandWidth).transl(-islandLength/2+ellipseConstant, 0, 0))
hIsland = hIsland.add(rect(7.023388584603594e-09, 3.5007726437507933e-09).transl(1.240770094279553e-07, -3.0247322549566215e-08, 0))
hIsland = hIsland.add(rect(4.960510684225691e-09, 1.1699371048956357e-09).transl(-8.875006147641489e-08, -3.9322026160142975e-08, 0))
hIsland = hIsland.sub(rect(7.471279734454907e-09, -1.035098347365181e-09).transl(-1.3813773183584713e-07, -2.1589309740597505e-08, 0))
hIsland = hIsland.sub(rect(3.6030169512486644e-09, -9.087078621534437e-10).transl(5.529137255820005e-08, -4e-08, 0))
hIsland = hIsland.sub(rect(9.635091296914713e-09, -1.0113306858098412e-09).transl(1.1271958145013725e-07, -3.4573138141529834e-08, 0))
hIsland = hIsland.add(rect(9.617231197286954e-09, 3.4963627426952864e-10).transl(-1.597371697290404e-08, -4e-08, 0))
hIsland = hIsland.sub(rect(8.341026402469151e-09, -4.197596885940965e-10).transl(-1.1435159588908065e-08, -4e-08, 0))
hIsland = hIsland.add(rect(4.523420064515439e-09, 1.3093203124151872e-09).transl(1.2941840674144721e-08, -4e-08, 0))
hIsland = hIsland.sub(rect(4.804372459065531e-09, -1.4286541703732892e-09).transl(5.175470890294951e-08, -4e-08, 0))
hIsland = hIsland.sub(rect(9.134840529608021e-09, -4.1659880212037805e-10).transl(-2.2709564934545535e-08, -4e-08, 0))
hIsland = hIsland.sub(rect(5.7785820038245415e-09, -1.0008946024945563e-09).transl(-9.802294683571608e-08, -3.806873379185991e-08, 0))
hIsland = hIsland.add(rect(5.236897103460544e-09, 1.2474626360357122e-09).transl(-8.125623169281669e-08, -3.986059107329895e-08, 0))
hIsland = hIsland.add(rect(3.7661121776993155e-09, 1.690862679932337e-09).transl(-4.922396457241861e-08, -4e-08, 0))
hIsland = hIsland.add(rect(9.03930370895726e-09, 3.2052854746313897e-09).transl(6.628839374407235e-08, -4e-08, 0))
hIsland = hIsland.sub(rect(3.9678028901030615e-09, -1.767798170534627e-09).transl(-7.73903197165641e-08, -3.9979679715562546e-08, 0))
hIsland = hIsland.add(rect(5.993350827250752e-09, 4.50975101146683e-09).transl(3.496177157165828e-08, -4e-08, 0))
hIsland = hIsland.add(rect(4.397922682113692e-09, 2.220190278366241e-10).transl(-8.158981912145661e-08, -3.984529829631792e-08, 0))
hIsland = hIsland.sub(rect(4.827489717331524e-09, -1.0606214452378768e-09).transl(1.4601522528833771e-08, -4e-08, 0))
hIsland = hIsland.sub(rect(2.4218470247640866e-09, -2.1717638768695514e-09).transl(-7.44319477685367e-08, -4e-08, 0))
hIsland = hIsland.sub(rect(2.4127077609833275e-09, -1.0744166650055713e-09).transl(-1.1869326328193401e-07, -3.251102511126124e-08, 0))
hIsland = hIsland.sub(rect(5.857541681928943e-09, -3.201232083237744e-09).transl(-2.7294765486368438e-08, -4e-08, 0))
hIsland = hIsland.sub(rect(3.137740310384614e-09, -1.388347219056388e-10).transl(-9.731235846103562e-08, -3.8188896247411454e-08, 0))
hIsland = hIsland.sub(rect(4.137687799409172e-09, -6.407770149206373e-10).transl(1.4825108870530615e-07, -8.587792944559782e-09, 0))
hIsland = hIsland.sub(rect(9.377189966674903e-09, -1.9943649486968945e-09).transl(-1.1108920804744669e-07, -3.506466534216265e-08, 0))
hIsland = hIsland.add(rect(5.7621362193735255e-09, 4.379112131258173e-10).transl(3.8699363359914663e-08, -4e-08, 0))
hIsland = hIsland.sub(rect(9.969805033171547e-09, -2.2405431591772438e-09).transl(-6.729896706290337e-08, -4e-08, 0))
hIsland = hIsland.sub(rect(3.3620098475332506e-09, -2.0568002879004655e-09).transl(-4.904843564386301e-09, -4e-08, 0))
hIsland = hIsland.add(rect(5.174770842038731e-09, 2.1391294762463412e-09).transl(-5.53318452191756e-08, -4e-08, 0))
hIsland = hIsland.add(rect(3.047106793068214e-09, 1.2297342993068716e-09).transl(-1.3783491881849112e-07, -2.1839156529572438e-08, 0))
hIsland = hIsland.add(rect(8.417937803603334e-09, 1.4068353759305174e-09).transl(-9.368262393427475e-08, -3.87390937786251e-08, 0))
hIsland = hIsland.sub(rect(5.9132422766709955e-09, -3.833320428927057e-09).transl(-5.9439996922080576e-08, -4e-08, 0))
hIsland = hIsland.add(rect(9.785081138415972e-09, 1.084305054311739e-10).transl(2.0521840864357794e-08, -4e-08, 0))
hIsland = hIsland.sub(rect(7.029558833688045e-09, -5.6202638580428746e-09).transl(2.5306358287654325e-08, -4e-08, 0))
hIsland = hIsland.add(rect(6.104789221903338e-09, 4.997404541474783e-10).transl(-1.7933927840050014e-08, -4e-08, 0))
hIsland = hIsland.sub(rect(7.647389419957336e-09, -9.341304992804977e-10).transl(3.2182179685178746e-08, -4e-08, 0))
hIsland = hIsland.sub(rect(9.665929888864853e-09, -2.9578045971023136e-09).transl(1.4513433583561177e-07, -1.4172774520411863e-08, 0))
hIsland = hIsland.add(rect(5.78659170061736e-09, 2.455676246235357e-09).transl(-1.0632073249689168e-07, -3.6345059258594746e-08, 0))
hIsland = hIsland.sub(rect(9.537915572166008e-09, -5.232637485942983e-10).transl(5.903756805919847e-08, -4e-08, 0))
hIsland = hIsland.add(rect(3.200424918734946e-09, 1.4350151359966712e-09).transl(-1.132492004066477e-07, -3.440722887663996e-08, 0))
hIsland = hIsland.sub(rect(4.1332555689378585e-09, -2.7240267538794497e-09).transl(4.032008791955869e-09, -4e-08, 0))
hIsland = hIsland.add(rect(8.780013942961777e-09, 3.9292595906578837e-10).transl(-9.95678377884964e-08, -3.779306027827979e-08, 0))
hIsland = hIsland.sub(rect(9.08270339115088e-09, -1.6258643566321765e-09).transl(-7.51375788892176e-09, -4e-08, 0))
hIsland = hIsland.sub(rect(5.967907269218116e-09, -6.921211829770026e-10).transl(1.4636070643278697e-07, -1.2308907877264304e-08, 0))
hIsland = hIsland.add(rect(3.849113706060384e-09, 1.8535187035433425e-09).transl(-8.520122486321558e-08, -3.9628263803758785e-08, 0))
hIsland = hIsland.add(rect(2.7706910653653687e-09, 2.6280668760948888e-09).transl(1.1594794156197512e-07, -3.351212246586284e-08, 0))
hIsland = hIsland.add(rect(4.332716566893351e-09, 6.198170592069863e-10).transl(-1.261202064903157e-07, -2.9268896441770873e-08, 0))
hIsland = hIsland.add(rect(7.933308198041603e-09, 2.152127646985472e-09).transl(-3.1416632713894956e-08, -4e-08, 0))
hIsland = hIsland.sub(rect(6.515564123051928e-09, -4.6498218090695673e-10).transl(-1.1148050441415e-07, -3.4949300361912046e-08, 0))
hIsland = hIsland.sub(rect(2.282817232458619e-09, -5.16365719561388e-10).transl(1.493320926176618e-07, -5.326395676493771e-09, 0))
hIsland = hIsland.add(rect(4.4614564172531174e-09, 1.240394601162289e-09).transl(-1.0331835070774232e-07, -3.7039111151104514e-08, 0))
hIsland = hIsland.add(rect(9.550990462114424e-09, 1.704382185976784e-10).transl(1.4876652028109228e-08, -4e-08, 0))
hIsland = hIsland.add(rect(6.258455909424569e-09, 3.859914307145326e-09).transl(7.188522289399753e-08, -4e-08, 0))
hIsland = hIsland.sub(rect(3.103343864759781e-09, -1.0720751157922446e-09).transl(6.097477200655039e-08, -4e-08, 0))
hIsland = hIsland.sub(rect(5.0075517446931974e-09, -8.231063166037845e-11).transl(-1.5170819862606498e-08, -4e-08, 0))
hIsland = hIsland.sub(rect(7.694576712149686e-09, -1.0618418057776559e-09).transl(-5.76101097030557e-08, -4e-08, 0))
hIsland = hIsland.add(rect(9.546186071865008e-09, 4.151351299629734e-09).transl(1.2549151461593283e-07, -2.957768264639922e-08, 0))
hIsland = hIsland.sub(rect(6.525506224579142e-09, -2.129144903133296e-09).transl(-2.648276593867374e-08, -4e-08, 0))
hIsland = hIsland.add(rect(3.2485288429376525e-09, 1.3000937850015059e-09).transl(9.189223731115835e-08, -3.897222648627294e-08, 0))
hIsland = hIsland.add(rect(6.7888880194726624e-09, 9.987253254242606e-10).transl(-7.319984463283537e-08, -4e-08, 0))
hIsland = hIsland.sub(rect(4.55050618157296e-09, -5.665429497122688e-10).transl(6.590565160580242e-08, -4e-08, 0))
hIsland = hIsland.add(rect(5.761677734865879e-09, 9.91029581658157e-10).transl(-1.2206556664079135e-07, -3.11433442829906e-08, 0))
hIsland = hIsland.sub(rect(3.5176798489812544e-09, -3.011179627909109e-09).transl(1.0834676539889344e-09, -4e-08, 0))
hIsland = hIsland.sub(rect(6.63699035849415e-09, -2.3868738259515286e-10).transl(1.6985522118719268e-08, -4e-08, 0))
hIsland = hIsland.add(rect(2.9781542957175464e-09, 4.50033513677124e-09).transl(-1.1904807898615998e-08, -4e-08, 0))
hIsland = hIsland.sub(rect(4.943516005187831e-09, -3.127075279153543e-10).transl(2.4082588923955985e-08, -4e-08, 0))
hIsland = hIsland.sub(rect(8.892609286410945e-09, -1.9976938953440075e-09).transl(-5.796871816714876e-09, -4e-08, 0))
hIsland = hIsland.add(rect(4.4375547479713504e-09, 2.866381152558058e-09).transl(6.10259106036952e-08, -4e-08, 0))
hIsland = hIsland.add(rect(4.0269397261843486e-09, 1.2957530860102144e-09).transl(6.40386648284698e-08, -4e-08, 0))
hIsland = hIsland.add(rect(9.343078974306384e-09, 1.918847305145531e-09).transl(-1.1394433578408493e-07, -3.418470596701477e-08, 0))
hIsland = hIsland.add(rect(6.665334749280351e-09, 3.4048429743811227e-10).transl(5.738853897107595e-08, -4e-08, 0))
hIsland = hIsland.sub(rect(7.351151409953947e-09, -6.428211982451169e-10).transl(-8.77746267655524e-09, -4e-08, 0))
hIsland = hIsland.add(rect(2.331335599600643e-09, 3.3238516099785405e-10).transl(9.717468806174727e-08, -3.8211698348327776e-08, 0))
hIsland = hIsland.add(rect(4.972219902812665e-09, 1.0088188621935597e-09).transl(5.013364547819457e-08, -4e-08, 0))
hIsland = hIsland.add(rect(3.1895062303854157e-09, 1.212636044074373e-10).transl(3.913547657724196e-09, -4e-08, 0))
hIsland = hIsland.sub(rect(7.240046483927277e-09, -2.380573754942276e-09).transl(1.075887397220089e-07, -3.602655432829724e-08, 0))
hIsland = hIsland.add(rect(6.127248119620016e-09, 5.324559751966722e-10).transl(-4.885213842700722e-08, -4e-08, 0))
hIsland = hIsland.add(rect(2.8750385655583566e-09, 6.587283592835385e-10).transl(8.352368364433708e-10, -4e-08, 0))
hIsland = hIsland.add(rect(9.079207717254562e-09, 1.353114557150547e-09).transl(-1.4255442460928917e-07, -1.737553603397651e-08, 0))
hIsland = hIsland.add(rect(6.5562024143082345e-09, 1.7189787105893867e-09).transl(-1.0540179450202011e-07, -3.656633406276229e-08, 0))
hIsland = hIsland.add(rect(6.2197242361817884e-09, 8.815825026488112e-10).transl(3.1867081846684664e-08, -4e-08, 0))
hIsland = hIsland.sub(rect(4.152493144911228e-09, -1.7560395116052047e-09).transl(-1.2571403631029012e-07, -2.9469195770166438e-08, 0))
hIsland = hIsland.add(rect(4.966754112689006e-09, 3.1089434189450943e-10).transl(9.113419901491785e-08, -3.906348154350298e-08, 0))
hIsland = hIsland.add(rect(2.8852378553772447e-09, 3.906186043132645e-09).transl(6.403592545905273e-08, -4e-08, 0))
hIsland = hIsland.sub(rect(8.66566818739817e-09, -2.1643141048408336e-10).transl(2.1085070714732882e-08, -4e-08, 0))
hIsland = hIsland.sub(rect(4.469146173036563e-09, -1.0616714884340232e-09).transl(-4.161809825481735e-08, -4e-08, 0))
hIsland = hIsland.add(rect(9.28549506274295e-09, 3.8746356118498044e-09).transl(-1.4357376728881284e-07, -1.619998081596445e-08, 0))
hIsland = hIsland.sub(rect(8.060609064567182e-09, -4.05120575800814e-10).transl(1.697367640775726e-08, -4e-08, 0))
hIsland = hIsland.add(rect(8.32107719615231e-09, 1.117601203718586e-09).transl(8.309816842128218e-08, -3.976614186667486e-08, 0))
hIsland = hIsland.sub(rect(2.251499042225062e-09, -3.1916732988312097e-10).transl(-1.4371162141441914e-07, -1.6032971206790438e-08, 0))
hIsland = hIsland.add(rect(9.695115650284652e-09, 6.980557638364313e-10).transl(-3.8128363177972556e-08, -4e-08, 0))
hIsland = hIsland.add(rect(4.0322993673488945e-09, 1.478815289892023e-09).transl(-1.0874497635305669e-07, -3.572249217009893e-08, 0))
hIsland = hIsland.sub(rect(3.5279101583208804e-09, -2.6309164084801356e-09).transl(-1.0403552860933115e-07, -3.688083133650323e-08, 0))
hIsland = hIsland.add(rect(2.2229916143956336e-09, 1.8547664780409386e-09).transl(-1.0725360384147123e-07, -3.611224000013758e-08, 0))
hIsland = hIsland.add(rect(7.2727151040581565e-09, 4.1937079927501085e-10).transl(-3.5354263581774205e-08, -4e-08, 0))
hIsland = hIsland.add(rect(5.653674871498109e-09, 5.187695073746126e-10).transl(7.638968841807563e-08, -3.999313280109989e-08, 0))
hIsland = hIsland.add(rect(4.852173124901948e-09, 7.790982566123445e-10).transl(3.209574512166538e-08, -4e-08, 0))
hIsland = hIsland.add(rect(7.170177450058959e-09, 7.801375240363335e-12).transl(7.717974606579322e-08, -3.998310294521225e-08, 0))
hIsland = hIsland.sub(rect(8.033521550684381e-09, -2.1622267457727076e-09).transl(-1.4919752776630744e-07, -5.835721376166146e-09, 0))
hIsland = hIsland.sub(rect(6.9055230387496514e-09, -4.260318080191003e-09).transl(-1.4226483983757332e-07, -1.7692213552111208e-08, 0))
hIsland = hIsland.sub(rect(7.731838803780455e-09, -5.9892201876587215e-09).transl(-5.986742452556702e-08, -4e-08, 0))
hIsland = hIsland.sub(rect(9.524990692202684e-09, -4.732217681446606e-11).transl(8.206058927100645e-08, -3.982235425069992e-08, 0))
hIsland = hIsland.sub(rect(3.7878621111412754e-09, -1.8101683212311896e-09).transl(6.262179958708823e-08, -4e-08, 0))
hIsland = hIsland.sub(rect(2.6242106078523016e-09, -1.7739483579546005e-10).transl(-7.248131407904547e-08, -4e-08, 0))
hIsland = hIsland.add(rect(4.096421112359867e-09, 2.3630195486217984e-10).transl(-8.994370275811415e-08, -3.9197952773306726e-08, 0))
hIsland = hIsland.sub(rect(6.202458943838104e-09, -3.298934969101659e-09).transl(-1.0145687361744992e-07, -3.742857884065349e-08, 0))
hIsland = hIsland.sub(rect(6.608654502057241e-09, -1.849162572307336e-09).transl(-1.255990844587545e-07, -2.952534803436932e-08, 0))
hIsland = hIsland.sub(rect(3.003227796833028e-09, -1.1137004081882318e-09).transl(-1.41434444862389e-07, -1.8563252863041797e-08, 0))
hIsland = hIsland.add(rect(9.80839539406465e-09, 7.015944465914335e-10).transl(-1.0310095411326046e-08, -4e-08, 0))
hIsland = hIsland.sub(rect(9.144813832004086e-09, -1.8198699954399428e-09).transl(7.174672974803148e-08, -4e-08, 0))
hIsland = hIsland.add(rect(5.368565545850659e-09, 1.8375861753616107e-10).transl(-1.2038380917285266e-07, -3.184544840022575e-08, 0))
hIsland = hIsland.sub(rect(3.412255365245341e-09, -5.68887774470498e-10).transl(4.48166304286801e-08, -4e-08, 0))
hIsland = hIsland.add(rect(9.73495332933878e-09, 1.5506447495643885e-09).transl(8.906011063182981e-08, -3.929082734330553e-08, 0))
hIsland = hIsland.add(rect(7.148802358068824e-09, 1.7937660103264014e-09).transl(-8.056897731827106e-08, -3.988957733344663e-08, 0))
hIsland = hIsland.sub(rect(5.445096129309185e-09, -2.2916956908576745e-09).transl(-7.589148822229775e-08, -3.99971741179559e-08, 0))
hIsland = hIsland.add(rect(3.113453427779259e-09, 6.838518040843881e-10).transl(4.704634061434143e-08, -4e-08, 0))
hIsland = hIsland.add(rect(3.7929220017450545e-09, 8.149929768211229e-10).transl(1.1843332997011855e-07, -3.260994628454709e-08, 0))
hIsland = hIsland.sub(rect(8.664594414886922e-09, -7.824086387624157e-12).transl(-7.151613863876044e-08, -4e-08, 0))
hIsland = hIsland.add(rect(2.8699313589749194e-09, 6.584234885137381e-10).transl(4.238791901133409e-08, -4e-08, 0))
hIsland = hIsland.add(rect(8.828517182006791e-09, 4.350012759552792e-10).transl(-1.3795070287027574e-07, -2.174410535916432e-08, 0))
hIsland = hIsland.sub(rect(6.7963289897488656e-09, -2.558966027183061e-09).transl(7.373861810128083e-08, -4e-08, 0))
hIsland = hIsland.add(rect(7.390682687651123e-09, 1.920308924509167e-09).transl(7.551027672554986e-08, -3.9999074185422246e-08, 0))
hIsland = hIsland.add(rect(4.977729589356471e-09, 8.998673163636695e-10).transl(-6.54366314260635e-08, -4e-08, 0))
hIsland = hIsland.sub(rect(9.730179584275814e-09, -2.837820120366486e-09).transl(1.3933139560086645e-07, -2.0562552647726578e-08, 0))
hIsland = hIsland.add(rect(3.5923179806533105e-09, 3.695533792266936e-10).transl(-5.222677724266612e-08, -4e-08, 0))
hIsland = hIsland.add(rect(6.855196715284657e-09, 2.8699599142151197e-10).transl(-3.394380131636974e-08, -4e-08, 0))
hIsland = hIsland.sub(rect(9.706435610322317e-09, -4.145138230669238e-09).transl(1.654394449190422e-08, -4e-08, 0))
hIsland = hIsland.sub(rect(6.537450009125174e-09, -1.3081145838901166e-09).transl(1.3886705965411995e-07, -2.097023459125641e-08, 0))
hIsland = hIsland.add(rect(2.7957807053129164e-09, 9.801198098005966e-10).transl(-7.479588455673442e-08, -4e-08, 0))
hIsland = hIsland.sub(rect(6.341589849390374e-09, -2.1195985141587525e-09).transl(-1.3519854084127423e-07, -2.385816268954806e-08, 0))
hIsland = hIsland.add(rect(6.023091686397524e-09, 9.130232488013729e-10).transl(-2.1741345862236755e-08, -4e-08, 0))
hIsland = hIsland.add(rect(5.131290993254113e-09, 1.563360006321575e-09).transl(7.806365709412741e-08, -3.996661364096647e-08, 0))
hIsland = hIsland.add(rect(3.7207954619032357e-09, 1.320633004299827e-09).transl(-1.1160171375754946e-08, -4e-08, 0))
hIsland = hIsland.add(rect(2.3461241919730508e-09, 1.2276033491154484e-09).transl(4.348370290115724e-08, -4e-08, 0))
hIsland = hIsland.sub(rect(3.74623903955363e-09, -4.961429146599889e-10).transl(-9.597269311903378e-08, -3.8404244740707114e-08, 0))
hIsland = hIsland.sub(rect(4.6293762384872105e-09, -7.423284642760554e-10).transl(1.0374024650245996e-07, -3.694656121617225e-08, 0))
hIsland = hIsland.add(rect(4.435028052500814e-09, 1.209453710217163e-10).transl(1.4128504533584794e-07, -1.8714550126545734e-08, 0))
hIsland = hIsland.add(rect(5.1640760752653536e-09, 1.6373168529598862e-09).transl(1.8894840854399633e-08, -4e-08, 0))
hIsland = hIsland.add(rect(4.214517436274699e-09, 1.7563204424235408e-09).transl(-3.9946695497780814e-08, -4e-08, 0))
hIsland = hIsland.sub(rect(7.494766155398774e-09, -3.2558739837479295e-09).transl(-4.920233655601246e-08, -4e-08, 0))
hIsland = hIsland.add(rect(3.5470547508287063e-09, 4.391114112049244e-09).transl(-8.834418572083545e-08, -3.9361780293785974e-08, 0))
hIsland = hIsland.sub(rect(5.311550785396149e-09, -4.293539841478992e-09).transl(7.7520640750056e-08, -3.997740293345652e-08, 0))
hIsland = hIsland.sub(rect(8.76021859839866e-09, -3.647728200169913e-09).transl(-5.779500691525763e-08, -4e-08, 0))
hIsland = hIsland.sub(rect(9.047579147054059e-09, -2.7126673065056894e-09).transl(-1.3254191038844805e-07, -2.5655099309126764e-08, 0))
hIsland = hIsland.add(rect(8.546083335492864e-09, 4.164565689436023e-10).transl(1.8701255501760032e-08, -4e-08, 0))
hIsland = hIsland.add(rect(5.4309529840429315e-09, 8.341354068657322e-10).transl(-1.3489336164671085e-07, -2.407564511765215e-08, 0))
hIsland = hIsland.sub(rect(8.584991733825398e-09, -2.0263063079330743e-09).transl(7.665204348498358e-08, -3.999029483088328e-08, 0))
hIsland = hIsland.sub(rect(8.261848963614742e-09, -2.9262037353347396e-09).transl(1.4648025906051408e-07, -1.2109985620153864e-08, 0))
hIsland = hIsland.add(rect(4.4831219444123564e-09, 2.0100942549063257e-10).transl(-2.2546587735704503e-08, -4e-08, 0))
hIsland = hIsland.add(rect(6.269878400661323e-09, 5.525039386802014e-10).transl(7.381224587417497e-08, -4e-08, 0))
hIsland = hIsland.add(rect(5.5691914667965235e-09, 1.529612421868494e-09).transl(4.8152904282296246e-08, -4e-08, 0))
hIsland = hIsland.add(rect(6.8672667636377725e-09, 8.362262684723651e-10).transl(1.1311260121048453e-07, -3.445031825391566e-08, 0))
hIsland = hIsland.add(rect(5.824995539484288e-09, 8.38855046912932e-11).transl(9.94152909356884e-08, -3.782116916846345e-08, 0))
hIsland = hIsland.add(rect(4.0559441404964835e-09, 2.2398744547064908e-10).transl(2.827894307048822e-08, -4e-08, 0))
hIsland = hIsland.add(rect(8.507575464220312e-09, 3.0220458817356575e-09).transl(-1.340262065009416e-07, -2.4677299019402414e-08, 0))
hIsland = hIsland.sub(rect(8.312355689406752e-09, -3.6064269528094075e-10).transl(-1.1045841602996678e-08, -4e-08, 0))
hIsland = hIsland.sub(rect(9.439346008908914e-09, -1.681321616025899e-10).transl(-2.9887770950989614e-08, -4e-08, 0))
hIsland = hIsland.add(rect(8.005503711659784e-09, 4.031206400075531e-09).transl(-8.313592519726212e-08, -3.976394962250839e-08, 0))
hIsland = hIsland.add(rect(6.780195477688396e-09, 1.895840745791343e-09).transl(4.948910365587863e-08, -4e-08, 0))
hIsland = hIsland.add(rect(4.902106937313024e-09, 1.2831523194958858e-10).transl(7.530370775401094e-08, -3.999967203990052e-08, 0))
hIsland = hIsland.add(rect(5.749591301876398e-09, 2.1889982721286907e-09).transl(1.4699566129353346e-08, -4e-08, 0))
hIsland = hIsland.add(rect(6.408507358925099e-09, 3.249006567814769e-09).transl(2.4026025693077236e-08, -4e-08, 0))
hIsland = hIsland.add(rect(9.642078066282684e-09, 1.2081203847525015e-09).transl(1.191644960587242e-07, -3.232940363915396e-08, 0))
hIsland = hIsland.add(rect(7.298031363601718e-09, 2.8840834463241373e-09).transl(-4.258628662604306e-08, -4e-08, 0))
hIsland = hIsland.add(rect(4.3510367870508735e-09, 1.7684169924402149e-09).transl(-9.548591976395395e-08, -3.8478908153324134e-08, 0))
hIsland = hIsland.add(rect(2.3167672091479174e-09, 3.0711327334938532e-09).transl(7.400498385048114e-08, -4e-08, 0))
hIsland = hIsland.add(rect(5.459962861144155e-09, 6.73688866131784e-10).transl(-9.646236870384501e-08, -3.832721520426699e-08, 0))
hIsland = hIsland.sub(rect(3.664134818251741e-09, -1.7444377737913222e-09).transl(5.841822233170935e-09, -4e-08, 0))
hIsland = hIsland.add(rect(8.526251337498425e-09, 2.1005947365729677e-09).transl(-5.429638789745592e-08, -4e-08, 0))
hIsland = hIsland.add(rect(5.822443187470524e-09, 8.497996147249336e-10).transl(-1.1388431926650229e-07, -3.420413371844378e-08, 0))
hIsland = hIsland.add(rect(9.096336240958267e-09, 8.171078292234259e-10).transl(-1.3428068324214448e-07, -2.450317331268204e-08, 0))
hIsland = hIsland.sub(rect(2.723222695463652e-09, -1.3392728312029333e-09).transl(-2.3595573257277478e-08, -4e-08, 0))
hIsland = hIsland.sub(rect(9.06775206769073e-09, -9.553515108252193e-10).transl(-9.364460016921251e-08, -3.874430416116716e-08, 0))
hIsland = hIsland.sub(rect(8.714343536594032e-09, -3.3440539258116657e-10).transl(1.3717659410755436e-07, -2.2368683792978085e-08, 0))
hIsland = hIsland.sub(rect(3.2662102879788e-09, -2.9829738968121895e-09).transl(-1.2829450445107352e-07, -2.8144115698401592e-08, 0))
hIsland = hIsland.add(rect(4.8159789811080524e-09, 4.195465739400288e-10).transl(8.894724223720489e-08, -3.930226817172604e-08, 0))
hIsland = hIsland.add(rect(3.4212019511949773e-09, 2.9641870870281745e-09).transl(7.204581247560338e-08, -4e-08, 0))
hIsland = hIsland.add(rect(3.4271587795978413e-09, 1.3182757106541957e-09).transl(1.2116956037403597e-07, -3.152253433632433e-08, 0))
hIsland = hIsland.add(rect(2.1195219386549945e-09, 5.26701486039398e-10).transl(1.7076377006476392e-08, -4e-08, 0))
hIsland = hIsland.add(rect(9.2050030353881e-09, 2.4101779708657086e-10).transl(-4.4083590860187946e-08, -4e-08, 0))
hIsland = hIsland.sub(rect(5.4961260209122886e-09, -2.1070027237413606e-09).transl(1.2211197085568343e-07, -3.1123380345826276e-08, 0))
hIsland = hIsland.add(rect(2.6353433567623297e-09, 1.1680945530025387e-09).transl(-1.3217291861445887e-07, -2.588869097885413e-08, 0))
hIsland = hIsland.sub(rect(6.314161505613733e-09, -1.5553856926129922e-09).transl(-9.70625921598285e-08, -3.82301503900376e-08, 0))
hIsland = hIsland.add(rect(3.7854483011702325e-09, 1.8877278830570305e-09).transl(-8.351023405264017e-08, -3.974165788901192e-08, 0))
hIsland = hIsland.add(rect(8.380972273555675e-09, 4.599039529436368e-10).transl(9.701025981048565e-08, -3.8238729734643235e-08, 0))
hIsland = hIsland.add(rect(4.8964121475127675e-09, 4.812853467279308e-10).transl(3.8931669875721514e-08, -4e-08, 0))
hIsland = hIsland.sub(rect(9.921041414113597e-09, -8.881648787031078e-10).transl(4.72063665824867e-08, -4e-08, 0))
hIsland = hIsland.sub(rect(7.865465611105344e-09, -2.1253232352190978e-10).transl(5.0610761776120125e-08, -4e-08, 0))
hIsland = hIsland.add(rect(8.333074502453067e-09, 2.139347335973157e-10).transl(3.655945189300905e-08, -4e-08, 0))
hIsland = hIsland.sub(rect(2.0289509332813323e-09, -8.546416838918392e-10).transl(-6.767125067206869e-08, -4e-08, 0))
hIsland = hIsland.sub(rect(3.070894441641647e-09, -1.0333891106841431e-09).transl(-3.755365942330784e-08, -4e-08, 0))
hIsland = hIsland.add(rect(5.877731230763182e-09, 5.0892232847397476e-11).transl(-8.847689305014897e-08, -3.934891751371455e-08, 0))
hIsland = hIsland.add(rect(7.733200989828656e-09, 2.251788462053465e-09).transl(-6.974444040343094e-08, -4e-08, 0))
hIsland = hIsland.sub(rect(5.642555561861292e-09, -4.085541099008242e-09).transl(1.1249345511764889e-07, -3.4643031218017117e-08, 0))
hIsland = hIsland.sub(rect(8.741998010473391e-09, -2.0772679370414902e-09).transl(5.7372776447195096e-08, -4e-08, 0))
hIsland = hIsland.sub(rect(8.023113931340525e-09, -5.86920055989155e-10).transl(-8.355328510450456e-08, -3.9739028903358857e-08, 0))
hIsland = hIsland.sub(rect(5.966840932840535e-09, -1.8945560466626817e-10).transl(-6.390791957714268e-08, -4e-08, 0))
hIsland = hIsland.sub(rect(7.787896482018369e-09, -4.0749171473964733e-10).transl(1.2335735834979037e-08, -4e-08, 0))
hIsland = hIsland.sub(rect(6.971645204493105e-09, -1.6920784451133868e-09).transl(-2.936022461644571e-08, -4e-08, 0))
hIsland = hIsland.add(rect(8.768646086769741e-09, 2.0560428821246306e-09).transl(2.6594029355407698e-08, -4e-08, 0))
hIsland = hIsland.add(rect(2.6758762335978403e-09, 2.3986687267803515e-09).transl(6.586934137457847e-08, -4e-08, 0))
hIsland = hIsland.sub(rect(6.639508853490902e-09, -1.939858163358146e-09).transl(-3.487518222886269e-08, 4e-08, 0))
hIsland = hIsland.sub(rect(2.0328846408330152e-09, -1.5340506373610666e-09).transl(-1.9987185229441123e-09, 4e-08, 0))
hIsland = hIsland.sub(rect(4.081713693253784e-09, -1.1610412785270422e-09).transl(-5.42376945150751e-08, 4e-08, 0))
hIsland = hIsland.sub(rect(5.721788011067085e-09, -5.760610198834651e-10).transl(1.2214519471836507e-07, 3.1109066871102704e-08, 0))
hIsland = hIsland.sub(rect(5.50351269383819e-09, -9.200568896471227e-10).transl(1.0372113734642313e-07, 3.695078776786381e-08, 0))
hIsland = hIsland.sub(rect(2.4138906091925074e-09, -1.0823515500860075e-09).transl(-1.1893618146979131e-07, 3.241777052465915e-08, 0))
hIsland = hIsland.add(rect(6.249885980372407e-09, 2.236339117687997e-09).transl(2.5876966987165386e-08, 4e-08, 0))
hIsland = hIsland.add(rect(8.851439238659211e-09, 5.287495831716595e-10).transl(1.2084228903881802e-07, 3.165810482736619e-08, 0))
hIsland = hIsland.add(rect(6.209712813017432e-09, 4.959617365902981e-10).transl(2.1133151781807043e-08, 4e-08, 0))
hIsland = hIsland.sub(rect(9.879322942729562e-09, -1.3834551616236299e-09).transl(-4.745626273751845e-08, 4e-08, 0))
hIsland = hIsland.add(rect(4.3231402731846575e-09, 3.841186411860173e-10).transl(8.32762868097454e-09, 4e-08, 0))
hIsland = hIsland.add(rect(9.841382028143786e-09, 1.6873526555410997e-09).transl(-7.92842216781565e-08, 3.993468603469612e-08, 0))
hIsland = hIsland.add(rect(3.351210623665143e-09, 1.883911709195966e-09).transl(-7.039310358330063e-10, 4e-08, 0))
hIsland = hIsland.add(rect(6.12571622011122e-09, 6.143136744282851e-10).transl(-1.0804519133092068e-07, 3.5908091388604395e-08, 0))
hIsland = hIsland.add(rect(8.472130210189728e-09, 1.139467776304462e-09).transl(1.267398496567184e-07, 2.8957534370178184e-08, 0))
hIsland = hIsland.sub(rect(7.735199298925724e-09, -2.2778327432791056e-09).transl(-1.3957247369394751e-07, 2.0346478922991986e-08, 0))
hIsland = hIsland.sub(rect(7.476710962871525e-09, -8.861224268353076e-10).transl(-1.110057535844729e-07, 3.508906036322178e-08, 0))
hIsland = hIsland.sub(rect(9.44407713156197e-09, -4.169173400864983e-11).transl(-1.0812491124081106e-07, 3.58871921652315e-08, 0))
hIsland = hIsland.add(rect(5.2494876760010555e-09, 4.836619257271225e-10).transl(1.2900077325903112e-07, 2.775853463914273e-08, 0))
hIsland = hIsland.sub(rect(3.2128569082376393e-09, -1.636236391761857e-09).transl(9.25874070985175e-08, 3.88846567364024e-08, 0))
hIsland = hIsland.sub(rect(4.972411403585814e-09, -2.521827362515725e-09).transl(-7.526551251524306e-08, 3.999974934358531e-08, 0))
hIsland = hIsland.add(rect(6.725352938910581e-09, 2.2296188886154428e-10).transl(1.2613192268954654e-07, 2.9263074559549557e-08, 0))
hIsland = hIsland.add(rect(4.4983355292796925e-09, 1.6587526677942848e-09).transl(-3.3121480216472614e-08, 4e-08, 0))
hIsland = hIsland.sub(rect(4.294772002318908e-09, -7.933423343491159e-10).transl(-3.353795854625626e-08, 4e-08, 0))
hIsland = hIsland.add(rect(5.3528287616627834e-09, 1.974749964351985e-09).transl(2.4514743603647373e-08, 4e-08, 0))
hIsland = hIsland.sub(rect(3.353306034452497e-09, -4.006818974956143e-09).transl(1.049807248071165e-07, 3.666509044870016e-08, 0))
hIsland = hIsland.add(rect(9.763234358819448e-09, 4.241225921869988e-10).transl(-2.6054187875929893e-08, 4e-08, 0))
[...]
hIsland = hIsland.add(rect(6.260433493151118e-09, 4.4594012187411207e-10).transl(-1.3385306980796113e-07, 2.4794644148146407e-08, 0))
hIsland = hIsland.add(rect(6.1651124120051605e-09, 6.032640182869703e-10).transl(-5.3858674193852835e-08, 4e-08, 0))
hIsland = hIsland.add(rect(3.496345870505575e-09, 1.919169708917436e-09).transl(-3.037553115471957e-08, 4e-08, 0))
hIsland = hIsland.sub(rect(8.866845639306962e-09, -2.141960914226145e-09).transl(-1.4010105173555848e-09, 4e-08, 0))
hIsland = hIsland.add(rect(7.532274291821815e-09, 3.3628718202253966e-09).transl(-1.2288646293660815e-07, 3.078533176800888e-08, 0))
hIsland = hIsland.sub(rect(2.81506125999959e-09, -1.7483268602682398e-09).transl(1.0470113595153886e-07, 3.6729759141542936e-08, 0))
hIsland = hIsland.sub(rect(8.502993323945269e-09, -4.1936372791329195e-10).transl(-3.83115149339862e-08, 4e-08, 0))
hIsland = hIsland.add(rect(3.3407764282249917e-09, 2.706346054505903e-09).transl(3.965384664274402e-08, 4e-08, 0))
hIsland = hIsland.add(rect(7.83441338569699e-09, 6.20031359378157e-11).transl(1.220354068168361e-07, 3.1156302188002756e-08, 0))
hIsland = hIsland.sub(rect(3.4621681952486494e-09, -1.2177041648076184e-09).transl(-7.704322937913733e-08, 3.998515356018313e-08, 0))
hIsland = hIsland.add(rect(2.610342497276541e-09, 3.5208975830295557e-09).transl(3.3710397111407345e-08, 4e-08, 0))
hIsland = hIsland.sub(rect(2.9322282922241794e-09, -9.890159726648755e-10).transl(2.3749876483571332e-09, 4e-08, 0))
hIsland = hIsland.sub(rect(4.447387873332679e-09, -3.0246795420457942e-09).transl(1.4327883433890866e-07, 1.655053540650865e-08, 0))
hIsland = hIsland.add(rect(9.043292993167253e-09, 2.113272246829658e-09).transl(2.426298243673929e-08, 4e-08, 0))
hIsland = hIsland.add(rect(4.338227472780452e-09, 3.780464764783528e-10).transl(1.6123007364842015e-08, 4e-08, 0))
hIsland = hIsland.sub(rect(6.542052540313343e-09, -7.547578630317792e-10).transl(-1.0596121063852832e-07, 3.643257516082049e-08, 0))
hIsland = hIsland.sub(rect(8.338419596230665e-09, -9.664384601923016e-11).transl(-9.118095921796119e-08, 3.905797968048967e-08, 0))
hIsland = hIsland.add(rect(5.576955163088313e-09, 7.311306528092001e-09).transl(9.920996875457238e-08, 3.785869366917918e-08, 0))
hIsland = hIsland.add(rect(4.4753786500029715e-09, 9.46168946215349e-10).transl(1.357574412154838e-07, 2.345171242879102e-08, 0))
hIsland = hIsland.sub(rect(6.974912801254731e-09, -1.8456628594654278e-09).transl(4.8089755840339945e-08, 4e-08, 0))
hIsland = hIsland.add(rect(3.0803640232828793e-09, 1.6464858743178036e-09).transl(3.4983794958023444e-08, 4e-08, 0))
hIsland = hIsland.add(rect(5.151460246657305e-09, 1.4909901524138279e-09).transl(6.667416433056328e-08, 4e-08, 0))
hIsland = hIsland.add(rect(4.097534016358762e-09, 2.260087759680268e-09).transl(-1.0659799878690842e-07, 3.627672986918457e-08, 0))
hIsland = hIsland.add(rect(8.122799191899895e-09, 2.7051496872492187e-09).transl(1.0739543515869237e-07, 3.607611028406184e-08, 0))
hIsland = hIsland.add(rect(8.910672982314967e-09, 1.6847543281969188e-09).transl(-3.6859993240757616e-08, 4e-08, 0))
hIsland = hIsland.sub(rect(4.166208479203654e-09, -3.973879935028362e-09).transl(-1.501785418485505e-08, 4e-08, 0))
hIsland = hIsland.add(rect(6.2889903238551505e-09, 3.5169949044724067e-10).transl(8.229869762969922e-08, 3.9810141467624066e-08, 0))
hIsland = hIsland.sub(rect(3.657970210517226e-09, -3.231809974161832e-10).transl(4.159415081468305e-08, 4e-08, 0))
hIsland = hIsland.sub(rect(6.780801366630764e-09, -1.3374446115065428e-09).transl(-1.3494657479422212e-07, 2.4037944348070202e-08, 0))
hIsland = hIsland.add(rect(3.4649549952056145e-09, 9.001091537755368e-10).transl(-9.570994236543087e-09, 4e-08, 0))
hIsland = hIsland.sub(rect(5.331384374985493e-09, -5.095415088821263e-10).transl(-1.304026680967737e-07, 2.6961275896000598e-08, 0))
hIsland = hIsland.sub(rect(3.006056989628977e-09, -3.0829892536975326e-09).transl(9.801687439763177e-08, 3.80697782470075e-08, 0))
hIsland = hIsland.sub(rect(7.891534092022451e-09, -2.4807358522230034e-09).transl(-4.11248246719456e-08, 4e-08, 0))
hIsland = hIsland.sub(rect(9.353150243376527e-09, -3.3822767641719082e-09).transl(-5.01116703590455e-08, 4e-08, 0))
hIsland = hIsland.sub(rect(8.732103120520073e-09, -1.0922544795627984e-10).transl(2.1171575534822763e-09, 4e-08, 0))
hIsland = hIsland.sub(rect(3.133001045094848e-09, -1.2552373049694148e-09).transl(1.3535405470045005e-07, 2.3746142348485003e-08, 0))
hIsland = hIsland.add(rect(5.587139243898458e-09, 8.781310614522143e-10).transl(-7.735378211150507e-08, 3.998029633736986e-08, 0))
hIsland = hIsland.sub(rect(4.949481395206039e-09, -1.5387081429201752e-09).transl(1.296366293644244e-07, 2.7402325840332864e-08, 0))
hIsland = hIsland.sub(rect(7.90538425028187e-09, -3.1394968937993024e-09).transl(-1.3104632711501433e-07, 2.6580175560215796e-08, 0))
hIsland = hIsland.sub(rect(7.38377654601725e-09, -1.0954443402112092e-09).transl(-1.1646492258644878e-07, 3.333081673657364e-08, 0))
hIsland = hIsland.sub(rect(5.4380217629049224e-09, -2.45789609452034e-09).transl(-2.30886383925249e-08, 4e-08, 0))
hIsland = hIsland.add(rect(8.828272924312707e-09, 3.352022349561725e-09).transl(-7.250586200049623e-08, 4e-08, 0))
hIsland = hIsland.sub(rect(9.03118846078259e-09, -8.700732200201325e-10).transl(-7.977976008655984e-08, 3.991868675110863e-08, 0))
hIsland = hIsland.sub(rect(7.81660440430699e-09, -3.931160680235347e-11).transl(-1.0046843031911725e-08, 4e-08, 0))
hIsland = hIsland.sub(rect(6.692534284814652e-09, -8.620511328324791e-10).transl(1.0660050856559495e-07, 3.627610801967039e-08, 0))
hIsland = hIsland.sub(rect(6.778449239027028e-09, -6.520681323758958e-11).transl(-9.993280228429101e-08, 3.772501343471711e-08, 0))
hIsland = hIsland.sub(rect(6.795331551921146e-09, -4.264624090252843e-09).transl(5.009944750781021e-08, 4e-08, 0))
hIsland = hIsland.sub(rect(5.61364758777154e-09, -3.0239681530538822e-09).transl(-1.0785116667307414e-07, 3.5958695705300906e-08, 0))
hIsland = hIsland.sub(rect(5.37473285634485e-09, -1.2016375379494823e-09).transl(1.0003433829595764e-08, 4e-08, 0))
hIsland = hIsland.sub(rect(7.523160299562432e-09, -4.968752925981134e-09).transl(1.0868637717328527e-07, 3.573822053321169e-08, 0))
hIsland = hIsland.sub(rect(6.540820424711383e-09, -3.1088438044196125e-09).transl(6.165048548178486e-08, 4e-08, 0))
hIsland = hIsland.add(rect(9.334193992392077e-09, 1.1183867498934497e-09).transl(-2.8467922924637334e-08, 4e-08, 0))
hIsland = hIsland.sub(rect(5.7155041774140464e-09, -2.455700742109044e-09).transl(-9.066240828732465e-08, 3.911806027144173e-08, 0))
hIsland = hIsland.add(rect(3.0362505464564554e-09, 1.7081012228131995e-09).transl(1.3610565643260504e-07, 2.3192941466861842e-08, 0))
hIsland = hIsland.add(rect(9.677958284845693e-09, 7.191382883936057e-10).transl(-3.2583978200994574e-08, 4e-08, 0))
hIsland = hIsland.add(rect(3.3188863321345564e-09, 6.043008015146134e-10).transl(1.631387945288044e-08, 4e-08, 0))
hIsland = hIsland.add(rect(3.837666551183813e-09, 2.2881907083412665e-09).transl(-1.4490901689230926e-07, 1.4485959310488283e-08, 0))
hIsland = hIsland.add(rect(4.314275552743503e-09, 3.3582048396741987e-10).transl(4.828032442271943e-08, 4e-08, 0))
hIsland = hIsland.add(rect(8.485466738998065e-09, 2.3991570192842722e-09).transl(-2.45665828538256e-08, 4e-08, 0))
hIsland = hIsland.add(rect(2.1314785366875117e-09, 6.683892658166755e-10).transl(-5.7790551128371116e-08, 4e-08, 0))
hIsland = hIsland.sub(rect(3.1320199760709058e-09, -1.164024694654678e-09).transl(-4.5166743545653414e-08, 4e-08, 0))
hIsland = hIsland.add(rect(7.357479699896556e-09, 8.053262751201284e-10).transl(-4.9270651092473945e-08, 4e-08, 0))
hIsland = hIsland.add(rect(8.02332062638659e-09, 3.5943539175542037e-09).transl(-5.4013817764553386e-08, 4e-08, 0))
hIsland = hIsland.add(rect(8.766391673849944e-09, 2.7689760166749934e-09).transl(-7.67815078819307e-08, 3.99887138910559e-08, 0))
hIsland = hIsland.add(rect(2.3243814469836162e-09, 1.9663424680845703e-09).transl(-3.7413470646138123e-10, 4e-08, 0))
hIsland = hIsland.sub(rect(4.900420933312273e-09, -9.840201237255063e-11).transl(-1.2646342488340808e-07, 2.9097309348939102e-08, 0))
hIsland = hIsland.add(rect(3.3991462677061065e-09, 1.361821067955769e-09).transl(1.075245653112176e-07, 3.604304646664385e-08, 0))
hIsland = hIsland.sub(rect(6.660095885386911e-09, -4.302194301438418e-10).transl(-2.8409861774862034e-08, 4e-08, 0))
hIsland = hIsland.add(rect(3.8220533028703604e-09, 4.87100808291928e-10).transl(-3.583258720676668e-08, 4e-08, 0))
hIsland = hIsland.add(rect(9.101342987529837e-09, 1.8383733881743546e-09).transl(-4.866806076923071e-08, 4e-08, 0))
hIsland = hIsland.add(rect(5.847470084872336e-09, 3.397982664370699e-10).transl(-1.4924610554705847e-07, 5.6572517513496815e-09, 0))
hIsland = hIsland.add(rect(4.2385330780576305e-09, 1.761191887627482e-09).transl(1.4433522213498856e-07, 1.525022785629046e-08, 0))
hIsland = hIsland.add(rect(6.0879192598720825e-09, 2.2768796546439222e-09).transl(7.476211785068212e-08, 4e-08, 0))
hIsland = hIsland.add(rect(3.275792002975628e-09, 6.45859338075493e-11).transl(-1.1468338316808299e-07, 3.394208547390013e-08, 0))
hIsland = hIsland.add(rect(5.361843567729963e-09, 5.865348854767823e-10).transl(4.3942370500497134e-08, 4e-08, 0))
hIsland = hIsland.sub(rect(2.93362350944844e-09, -1.8005150946591737e-09).transl(5.192308068302636e-09, 4e-08, 0))
hIsland = hIsland.sub(rect(8.215971913360793e-09, -1.3061780438905601e-09).transl(-1.213302499972633e-07, 3.145540108027586e-08, 0))
hIsland = hIsland.add(rect(9.07787633208119e-09, 3.195932368314782e-10).transl(-6.107075309373242e-08, 4e-08, 0))
hIsland = hIsland.sub(rect(7.2110618516868586e-09, -3.282589225738322e-09).transl(8.179908277717571e-08, 3.983529636986683e-08, 0))
hIsland = hIsland.sub(rect(3.823691147859618e-09, -6.287195940511341e-10).transl(-1.8048184630796722e-09, 4e-08, 0))
hIsland = hIsland.add(rect(5.348939744183787e-09, 7.384621822779637e-10).transl(1.2887223630119793e-07, 2.7829485400928053e-08, 0))
hIsland = hIsland.sub(rect(6.0047466500251034e-09, -1.7831585768197281e-09).transl(7.935417287313533e-08, 3.993253396138233e-08, 0))
hIsland = hIsland.sub(rect(9.227876945689171e-09, -1.4652365948255026e-09).transl(-1.246727812799592e-08, 4e-08, 0))
hIsland = hIsland.sub(rect(4.678021197775767e-09, -3.401163353343714e-09).transl(8.82361845228799e-08, 3.937215140079945e-08, 0))
hIsland = hIsland.sub(rect(7.770127773353434e-09, -6.47054649694281e-10).transl(-7.705617131970897e-08, 3.998496485254073e-08, 0))
hIsland = hIsland.sub(rect(8.775741151862256e-09, -1.339796616388919e-09).transl(-2.5153392589147367e-08, 4e-08, 0))
hIsland = hIsland.sub(rect(8.958960661366128e-09, -4.302481674989566e-09).transl(-5.172466401137259e-08, 4e-08, 0))
hIsland = hIsland.sub(rect(4.296471674810724e-09, -2.0318022787771548e-10).transl(-7.389704910600774e-08, 4e-08, 0))
hIsland = hIsland.sub(rect(5.4788635881579675e-09, -1.596665617257117e-10).transl(-1.2638756556010214e-08, 4e-08, 0))
hIsland = hIsland.add(rect(3.2633894127251353e-09, 1.435410838561532e-10).transl(3.780417560866595e-08, 4e-08, 0))
hIsland = hIsland.sub(rect(6.412870047723261e-09, -1.8036150874177662e-09).transl(-1.3130979714033002e-07, 2.642130720501942e-08, 0))
hIsland = hIsland.add(rect(7.116273932025056e-09, 4.296558026737876e-09).transl(1.0313738553619359e-07, 3.707831964621234e-08, 0))
hIsland = hIsland.add(rect(4.929976395894178e-09, 2.230736327389357e-09).transl(6.81157920613613e-08, 4e-08, 0))
hIsland = hIsland.sub(rect(6.20930567905475e-09, -9.906793081759536e-10).transl(-4.73934996503364e-08, 4e-08, 0))
hIsland = hIsland.sub(rect(8.165171151887017e-09, -2.700120737376828e-11).transl(-3.050796516454624e-08, 4e-08, 0))
hIsland = hIsland.sub(rect(3.7285938095649634e-09, -2.0044651271594157e-09).transl(8.32867684205531e-08, 3.9755088341003536e-08, 0))
hIsland = hIsland.add(rect(9.92054575389707e-09, 1.97643452674462e-09).transl(-1.2536384188442544e-07, 2.9639533626635152e-08, 0))
hIsland = hIsland.add(rect(7.941015902230231e-09, 1.6238157329096966e-09).transl(6.343709836419465e-08, 4e-08, 0))
hIsland = hIsland.add(rect(3.8107204389783324e-09, 1.2830662530011033e-09).transl(-1.3074199397382695e-07, 2.6761591623535393e-08, 0))
hIsland = hIsland.add(rect(5.353901445789425e-09, 2.7244799020108844e-09).transl(8.099916094243969e-08, 3.9871830454380766e-08, 0))
hIsland = hIsland.add(rect(4.083267784747636e-09, 1.8717868224712977e-09).transl(7.754481756522508e-08, 3.997696724797764e-08, 0))
hIsland = hIsland.sub(rect(5.417365097710007e-09, -2.0803845602241253e-09).transl(-1.4964175221702227e-07, 3.904962576147243e-09, 0))
hIsland = hIsland.add(rect(2.522082934781583e-09, 1.2009917723746232e-09).transl(7.750377044077651e-08, 3.997770448354729e-08, 0))
hIsland = hIsland.add(rect(2.018535800074294e-09, 1.450877753787462e-09).transl(1.1646568826408898e-07, 3.333054578972836e-08, 0))
hIsland = hIsland.sub(rect(7.576344528588012e-09, -2.663734190413572e-09).transl(3.558304797572509e-08, 4e-08, 0))
hIsland = hIsland.sub(rect(5.542937418852327e-09, -1.224812550701283e-09).transl(-4.533753641276996e-08, 4e-08, 0))
hIsland = hIsland.add(rect(2.22644452722862e-09, 8.521728219817179e-10).transl(-1.0090549090454734e-07, 3.7538126077874636e-08, 0))
hIsland = hIsland.add(rect(6.096351955782278e-09, 1.0076593312892021e-10).transl(-1.0621857922913082e-08, 4e-08, 0))
hIsland = hIsland.add(rect(5.701662287173203e-09, 2.024791906937226e-10).transl(1.0221879339549156e-07, 3.727285496085959e-08, 0))
hIsland = hIsland.sub(rect(9.335271932581062e-09, -2.186810686444659e-09).transl(-9.831433273636886e-08, 3.8018257654839956e-08, 0))
hIsland = hIsland.add(rect(2.7152130808513705e-09, 8.09351332024741e-09).transl(-1.2987898345258933e-07, 2.7264223135291537e-08, 0))
hIsland = hIsland.add(rect(7.1507740796926735e-09, 1.6571797043208647e-09).transl(6.58685902168441e-09, 4e-08, 0))
hIsland = hIsland.add(rect(2.034347875946586e-09, 2.121592918678526e-09).transl(5.3828291578463596e-08, 4e-08, 0))
hIsland = hIsland.sub(rect(8.103356050087936e-09, -5.95513789092518e-10).transl(1.461911231789053e-07, 1.2585129629608253e-08, 0))
hIsland = hIsland.add(rect(7.409555152180345e-09, 7.228645632964874e-10).transl(4.414280149588834e-08, 4e-08, 0))
hIsland = hIsland.add(rect(5.901739587034169e-09, 1.4962509083867416e-11).transl(-5.338621110303036e-08, 4e-08, 0))
hIsland = hIsland.add(rect(8.635518782847271e-09, 2.8447329908227046e-09).transl(8.215562193420385e-08, 3.981752895860055e-08, 0))
hIsland = hIsland.sub(rect(5.339621057830311e-09, -2.4266716923593335e-09).transl(8.151764169722156e-08, 3.984867499200918e-08, 0))
hIsland = hIsland.add(rect(5.667947369577376e-09, 2.501875823878679e-10).transl(7.487732344996177e-09, 4e-08, 0))
hIsland = hIsland.sub(rect(6.50700812831414e-09, -7.66663443689564e-10).transl(1.331499122026481e-07, 2.526214678066388e-08, 0))
hIsland = hIsland.sub(rect(5.5551484082969476e-09, -1.151185160088599e-09).transl(-4.04691068126373e-09, 4e-08, 0))
hIsland = hIsland.sub(rect(4.8051174897726505e-09, -1.6838931488397786e-10).transl(3.041025285151789e-08, 4e-08, 0))
hIsland = hIsland.sub(rect(7.10988851469524e-09, -1.3663368913172145e-09).transl(-3.4389826027864402e-09, 4e-08, 0))
hIsland = hIsland.sub(rect(3.143360160035389e-09, -5.372780442904157e-10).transl(-1.4791092369484267e-07, 9.375102057340634e-09, 0))
hIsland = hIsland.sub(rect(7.834065072712883e-09, -2.97588918308915e-09).transl(-1.3279408163953187e-07, 2.549335635950496e-08, 0))
hIsland = hIsland.add(rect(3.396063320225289e-09, 6.496799741196675e-10).transl(-1.2231962197527215e-07, 3.1033645975618856e-08, 0))
hIsland = hIsland.sub(rect(8.227901612578717e-09, -2.378400600148914e-09).transl(-2.7346223634741583e-08, 4e-08, 0))
hIsland = hIsland.add(rect(6.517818043201325e-09, 2.9937665320149013e-09).transl(-2.73929667216488e-08, 4e-08, 0))
hIsland = hIsland.add(rect(6.657304985667847e-09, 4.130214192721378e-10).transl(-4.7052579268631324e-08, 4e-08, 0))
hIsland = hIsland.sub(rect(3.087551013300492e-09, -6.495918386679671e-10).transl(-8.669603544318685e-08, 3.9510616087569845e-08, 0))
hIsland = hIsland.sub(rect(5.266933055416786e-09, -1.251677648907626e-09).transl(7.674199282743931e-08, 3.998920907240995e-08, 0))
hIsland = hIsland.sub(rect(3.6799774926057014e-09, -2.330044926280375e-09).transl(1.3085566881099644e-07, 2.6694088629614193e-08, 0))
hIsland = hIsland.sub(rect(7.353122100524947e-09, -7.161994354744952e-10).transl(8.601530902554384e-08, 3.956622745572533e-08, 0))
hIsland = hIsland.add(rect(2.58907410979671e-09, 2.7313069043852824e-10).transl(-1.1857022754541493e-07, 3.255795908052176e-08, 0))
hIsland = hIsland.add(rect(2.4350532911786804e-09, 2.0110429454808197e-09).transl(-1.389720015997363e-07, 2.087904986393924e-08, 0))
hIsland = hIsland.add(rect(9.770762901535109e-09, 6.015073171232957e-10).transl(-1.399426437575527e-07, 2.000855299270174e-08, 0))
hIsland = hIsland.add(rect(9.58184820106977e-09, 6.102040895672389e-10).transl(2.4912399735498742e-08, 4e-08, 0))
hIsland = hIsland.add(rect(5.564880890831776e-09, 6.266661674830811e-10).transl(7.560609704450798e-08, 3.999869383244346e-08, 0))
hIsland = hIsland.sub(rect(7.269873358757416e-09, -2.4777691039790414e-09).transl(-5.851651746699785e-08, 4e-08, 0))
hIsland = hIsland.add(rect(3.558040998474497e-09, 1.02269314475681e-09).transl(-1.4972749185482873e-07, 3.406742014520008e-09, 0))
hIsland = hIsland.add(rect(7.874591474057548e-09, 9.412018161920561e-10).transl(1.235548865254648e-07, 3.048606761186721e-08, 0))
hIsland = hIsland.add(rect(4.7416333303484395e-09, 6.71043956786472e-10).transl(1.212788127485123e-07, 3.147693161649519e-08, 0))
hIsland = hIsland.sub(rect(4.377485788583836e-09, -1.1075564168696578e-09).transl(-7.225029905703724e-08, 4e-08, 0))
hIsland = hIsland.add(rect(8.537238667781853e-09, 2.3170785873899e-09).transl(-7.531281177397046e-08, 3.9999652083088045e-08, 0))
hIsland = hIsland.add(rect(3.487218181739053e-09, 7.783165420654561e-10).transl(-1.3578848430415898e-07, 2.342881903071924e-08, 0))
hIsland = hIsland.sub(rect(3.387517850911369e-09, -9.573163399425957e-10).transl(-4.828291146723885e-08, 4e-08, 0))
hIsland = hIsland.sub(rect(6.534072561812379e-09, -2.1842184159825005e-09).transl(1.0295118334144892e-07, 3.711835762578424e-08, 0))
hIsland = hIsland.sub(rect(9.739349472344799e-09, -2.2962679752481096e-10).transl(1.1212782870269093e-07, 3.475485945192656e-08, 0))
hIsland = hIsland.add(rect(5.069010293730314e-09, 2.0567881094963723e-09).transl(-9.435536527591716e-08, 3.864503242144627e-08, 0))
hIsland = hIsland.add(rect(4.241783464357565e-09, 5.126322901208599e-09).transl(9.798499375953425e-08, 3.8075256705048226e-08, 0))
hIsland = hIsland.add(rect(5.447404422116465e-09, 1.073053152316575e-09).transl(-8.678091753567358e-08, 3.9503442260650886e-08, 0))
hIsland = hIsland.add(rect(6.536876377742646e-09, 2.701373220880145e-09).transl(-6.988629490134985e-08, 4e-08, 0))
hIsland = hIsland.sub(rect(9.004911470944371e-09, -4.895985203749723e-10).transl(1.5857821676747503e-08, 4e-08, 0))
hIsland = hIsland.sub(rect(9.37274671242021e-09, -2.803416503590168e-09).transl(1.4567771449158813e-07, 1.338295485587139e-08, 0))
vIsland = hIsland.rotz(pi / 2)
vIslands = vIslands.add(vIsland.transl(0, -a/2, 0))
DefRegion(1, hIslands)
DefRegion(2, vIslands)
TableAdd(m_full.Region(1))
TableAdd(m_full.Region(2))
setgeom(hIslands.add(vIslands))
save(geom)
r2o2 := sqrt(2) / 2
m = RandomMagSeed(4)
B_ext = vector(Bmax*r2o2, Bmax*r2o2, 0)
relax()
minimize()
for B := Bmax; B >= -Bmax; B -= Bstep {
	B_ext = vector(B*r2o2, B*r2o2, 0)
	minimize()
	tablesave()
}
//********************************************************************//
//Please cite the following references, relevant for your simulation. //
//See bibtex file in output folder for justification.                 //
//********************************************************************//
//   * Vansteenkiste et al., AIP Adv. 4, 107133 (2014).
//   * Exl et al., J. Appl. Phys. 115, 17D118 (2014).
