# t (s)	mx ()	my ()	mz ()	B_extx (T)	B_exty (T)	B_extz (T)	m_fullx (A/m)	m_fully (A/m)	m_fullz (A/m)	m_full.region1x (A/m)	m_full.region1y (A/m)	m_full.region1z (A/m)	m_full.region2x (A/m)	m_full.region2y (A/m)	m_full.region2z (A/m)
0	0.6427184	0.648523	-3.2933023e-10	0.07071097	0.07071097	0	64695.508	65279.793	-3.2876404e-05	630210.94	274537.66	-0.00017601807	269594.78	633394.5	-0.00028123742
0	0.6426122	0.6484264	-3.1761352e-10	0.070569366	0.070569366	0	64684.82	65270.07	-3.1573072e-05	630288.1	274321.03	-0.00023765242	269368.94	633475.94	-0.00020147592
0	0.64250237	0.6483298	-1.6910111e-10	0.07042761	0.07042761	0	64673.758	65260.355	-2.1735996e-05	630367	274100.9	-0.00012822788	269136.4	633560.9	-0.0001740833
0	0.64239323	0.64823353	-1.9891774e-10	0.07028633	0.07028633	0	64662.78	65250.65	-3.0405648e-05	630445	273882.1	-0.00026884503	268905.56	633644.75	-0.00015404641
0	0.64228046	0.6481347	-1.1847447e-10	0.07014479	0.07014479	0	64651.426	65240.71	-6.224321e-06	630525.6	273656.75	-5.479031e-05	268667.06	633731.9	-3.177954e-05
0	0.6421696	0.6480374	-8.129028e-11	0.07000352	0.07000352	0	64640.26	65230.914	-1.3383111e-05	630604.6	273435.22	-5.5409033e-05	268432.88	633817.06	-0.00013072754
0	0.64205945	0.6479399	-3.701555e-10	0.06986232	0.06986232	0	64629.176	65221.113	-3.0243978e-05	630682.94	273214.7	-0.00019855337	268200.28	633901.3	-0.00022208954
0	0.6419463	0.6478411	-2.0275372e-10	0.0697207	0.0697207	0	64617.78	65211.156	-2.5973623e-05	630763.4	272989.16	-0.0001555796	267961.4	633988.4	-0.00020566983
0	0.6418341	0.64774245	-2.6375951e-10	0.06957944	0.06957944	0	64606.48	65201.227	-2.3930934e-05	630843	272765.25	-0.00016571322	267724.66	634074.25	-0.00016712584
0	0.6417219	0.647644	-2.336597e-10	0.0694377	0.0694377	0	64595.2	65191.305	-2.972717e-05	630922.3	272541.72	-0.00023513632	267488.34	634159.9	-0.00017831865
0	0.6416105	0.64754575	-2.4789565e-10	0.069296405	0.069296405	0	64584	65181.426	-2.1468059e-05	631001	272319.5	-0.00019725357	267253.78	634244.5	-0.000101331054
0	0.6414976	0.6474467	-3.790919e-10	0.06915487	0.06915487	0	64572.625	65171.445	-3.6138714e-05	631080.7	272094.75	-0.00027398465	267016	634330.5	-0.00022864414
0	0.6413851	0.6473474	-7.506478e-11	0.0690136	0.0690136	0	64561.3	65161.46	-1.1790682e-06	631159.9	271870.56	-5.3939624e-05	266779.22	634415.9	3.7540765e-05
0	0.64126986	0.64724654	-2.6937733e-10	0.06887232	0.06887232	0	64549.7	65151.305	-2.9118946e-05	631240.94	271641.66	-0.00016679529	266536.84	634503.5	-0.00023820031
0	0.64115655	0.6471473	-2.0122229e-10	0.06873079	0.06873079	0	64538.293	65141.32	-2.913583e-05	631320.44	271416.88	-0.00016160987	266298.8	634589.4	-0.00024362055
0	0.641043	0.6470476	-1.6107224e-10	0.0685895	0.0685895	0	64526.863	65131.273	-8.240634e-06	631399.8	271191.34	-3.284543e-05	266060.28	634675.2	-8.176794e-05
0	0.6409286	0.64694715	-2.7011926e-10	0.068447776	0.068447776	0	64515.35	65121.168	-2.556578e-05	631479.75	270964.5	-0.00025133794	265820.34	634761.5	-0.00010423903
0	0.64081436	0.64684683	-3.7049208e-10	0.0683065	0.0683065	0	64503.836	65111.062	-2.90528e-05	631559.56	270737.84	-0.00020580526	265580.5	634847.6	-0.00019827035
0	0.6406998	0.6467463	-3.0173694e-10	0.06816496	0.06816496	0	64492.312	65100.95	-2.993992e-05	631639.3	270511.03	-0.00018822447	265340.53	634933.75	-0.00022818948
0	0.640586	0.646646	-2.2421257e-10	0.068023674	0.068023674	0	64480.863	65090.863	-2.3621345e-05	631718.3	270285.47	-0.00014430989	265102.16	635018.94	-0.00018422332
0	0.6404715	0.6465451	-3.2164413e-11	0.067882404	0.067882404	0	64469.332	65080.7	-6.491939e-06	631797.8	270058.56	-2.548744e-05	264862.3	635104.7	-6.480452e-05
0	0.6403541	0.64644253	-3.5005024e-10	0.067740865	0.067740865	0	64457.51	65070.375	-3.5874757e-05	631879.1	269826.78	-0.00027684306	264616.53	635192.75	-0.00022211447
0	0.6402387	0.64634144	-1.4317093e-10	0.06759956	0.06759956	0	64445.9	65060.195	-3.145251e-06	631958.9	269599.03	-8.142193e-05	264375.34	635279.06	3.7676775e-05
0	0.6401229	0.6462399	-2.6018593e-10	0.06745787	0.06745787	0	64434.24	65049.977	-2.6474072e-05	632038.75	269370.4	-0.00018630906	264133.25	635365.4	-0.00018190083
0	0.64000666	0.64613783	-2.7808925e-10	0.067316584	0.067316584	0	64422.543	65039.707	-2.2533524e-05	632118.75	269141.1	-0.00020150264	263890.53	635451.9	-0.00011190081
0	0.63989156	0.64603645	-2.1272772e-10	0.067174956	0.067174956	0	64410.96	65029.5	-2.4581688e-05	632197.8	268913.9	-0.00020497019	263650.44	635537.06	-0.00013691979
0	0.6397747	0.645934	-3.9413509e-10	0.06703376	0.06703376	0	64399.195	65019.188	-3.9601964e-05	632278	268683.66	-0.00026994693	263406.5	635623.94	-0.0002808498
0	0.63965666	0.6458307	-2.5353855e-10	0.06689248	0.06689248	0	64387.305	65008.79	-2.3490538e-05	632358.94	268451.44	-9.965977e-05	263160.34	635711.56	-0.00022705414
0	0.63954085	0.64572865	-7.389514e-12	0.06675091	0.06675091	0	64375.656	64998.51	-7.2397745e-07	632438	268223.28	1.681362e-05	262919.16	635796.75	-2.688293e-05
0	0.6394233	0.64562505	-3.313361e-10	0.06660963	0.06660963	0	64363.824	64988.086	-3.0046776e-05	632518.2	267991.75	-0.00027904	262674.4	635883.3	-0.00013886017
0	0.6393037	0.64552104	-2.8882727e-10	0.066467956	0.066467956	0	64351.78	64977.617	-2.9759529e-05	632599.75	267757.4	-0.00018727184	262425.38	635972	-0.00022663317
0	0.6391859	0.64541787	-1.4880469e-10	0.06632633	0.06632633	0	64339.93	64967.24	-2.372251e-05	632679.75	267526.4	-0.0001481806	262180.5	636058.6	-0.00018175963
0	0.63906753	0.6453141	-2.2254669e-10	0.06618504	0.06618504	0	64328.02	64956.79	-2.384739e-05	632760.06	267294.25	-0.0002190859	261934.5	636145.5	-0.00011259121
0	0.63894874	0.64520997	-1.5018876e-10	0.06604385	0.06604385	0	64316.062	64946.3	-1.8690489e-05	632840.5	267061.4	-6.4555294e-05	261687.81	636232.56	-0.000195398
0	0.63883156	0.6451066	-9.288269e-11	0.06590254	0.06590254	0	64304.26	64935.9	-1.7680377e-05	632919.7	266831.28	-7.8003235e-05	261444.48	636318	-0.00016790109
0	0.638712	0.64500195	-4.623916e-10	0.065760985	0.065760985	0	64292.227	64925.367	-4.932023e-05	633000.3	266597.4	-0.0002726802	261196.5	636405.4	-0.00041328132
0	0.6385914	0.64489657	-2.6034042e-10	0.0656197	0.0656197	0	64280.086	64914.76	-3.0765976e-05	633081.56	266361.75	-0.00020320245	260946.4	636493.44	-0.00022470056
0	0.63847303	0.6447924	-2.825875e-10	0.06547804	0.06547804	0	64268.176	64904.273	-2.5921554e-05	633161.1	266129.97	-0.00017026962	260701.12	636579.4	-0.0001902556
0	0.6383519	0.64468676	-1.2813713e-10	0.06533641	0.06533641	0	64255.99	64893.637	-1.1251822e-05	633242.4	265893.78	-6.0739196e-05	260450.34	636667.6	-9.575473e-05
0	0.6382314	0.6445811	-1.1339635e-10	0.06519513	0.06519513	0	64243.844	64883	-9.368119e-06	633323.1	265658.4	-3.7936374e-05	260200.86	636755.06	-9.2358416e-05
0	0.638111	0.64447564	-3.6777723e-10	0.06505393	0.06505393	0	64231.73	64872.387	-3.427208e-05	633403.56	265423.62	-0.00026416962	259951.83	636842.25	-0.00021249741
0	0.6379915	0.6443704	7.533138e-11	0.06491261	0.06491261	0	64219.707	64861.8	7.5437842e-06	633483.2	265190.34	1.2386776e-05	259705.05	636928.2	9.253458e-05
0	0.63786876	0.6442632	-3.2543604e-10	0.064771056	0.064771056	0	64207.344	64851.008	-3.4446457e-05	633565	264951.38	-0.00020567632	259451.22	637017.1	-0.000273416
0	0.63774925	0.64415807	-3.66816e-10	0.06462978	0.06462978	0	64195.32	64840.418	-4.098761e-05	633644.44	264718.44	-0.00027923207	259204.58	637102.9	-0.00029083667
0	0.63762766	0.6440515	-3.4297656e-10	0.06448806	0.06448806	0	64183.074	64829.7	-3.1103402e-05	633725	264481.84	-0.00024348291	258953.69	637190.2	-0.00018911313
0	0.63750595	0.6439446	-1.3313448e-10	0.0643465	0.0643465	0	64170.824	64818.938	-1.9297626e-05	633805.56	264245.06	-8.678168e-05	258702.72	637277.4	-0.00018161586
0	0.6373814	0.643836	-3.1712197e-10	0.064205214	0.064205214	0	64158.29	64808.008	-3.642987e-05	633888	264003.47	-0.00022683623	258445.95	637367.06	-0.00027984203
0	0.63726074	0.6437303	-4.4236506e-10	0.06406398	0.06406398	0	64146.137	64797.355	-4.7721674e-05	633967.44	263769.25	-0.0002900745	258197.52	637453.2	-0.0003736538
0	0.63713795	0.64362293	-3.5773748e-10	0.063922696	0.063922696	0	64133.79	64786.55	-3.0696614e-05	634048.2	263531.34	-0.00021318572	257945.02	637540.75	-0.00021375257
0	0.63701355	0.6435143	-3.6664677e-10	0.06378113	0.06378113	0	64121.258	64775.617	-3.0220952e-05	634130.06	263290.25	-0.00024381485	257688.89	637629.75	-0.00017650779
0	0.6368917	0.6434071	-3.8420897e-10	0.06363943	0.06363943	0	64109	64764.832	-3.2051503e-05	634209.8	263054	-0.00025715906	257438.66	637715.94	-0.0001886235
0	0.6367663	0.6432977	-2.6177505e-10	0.06349815	0.06349815	0	64096.367	64753.82	-2.0263196e-05	634292	262811.47	-7.05815e-05	257180.88	637805.3	-0.0002112455
0	0.63664424	0.6431904	-3.5253087e-10	0.063356586	0.063356586	0	64084.086	64743.02	-3.0326497e-05	634371.6	262575.06	-0.00023798695	256930.3	637891.56	-0.00018380364
0	0.63651973	0.64308155	-2.0126437e-10	0.06321526	0.06321526	0	64071.543	64732.055	-2.6960424e-05	634452.8	262334.44	-0.00012510696	256674.73	637979.75	-0.0002498672
0	0.63639396	0.64297205	-2.6539748e-10	0.06307407	0.06307407	0	64058.895	64721.04	-2.1813388e-05	634534.6	262092.02	-0.0001435077	256416.9	638068.7	-0.00015987986
0	0.63626903	0.64286256	-3.8107403e-10	0.062932774	0.062932774	0	64046.312	64710.01	-3.7571153e-05	634615.8	261850.73	-0.0002633005	256160.7	638156.8	-0.0002592511
0	0.63614535	0.6427539	-2.323719e-10	0.06279112	0.06279112	0	64033.867	64699.082	-1.9726955e-05	634695.9	261611.92	-0.00014010697	255907.62	638243.5	-0.0001342618
0	0.6360179	0.6426424	-1.3237843e-10	0.06264953	0.06264953	0	64021.04	64687.85	-2.0400084e-05	634778.44	261366.25	-0.00015377988	255646.64	638333.1	-0.000129951
0	0.6358929	0.64253354	-4.8323248e-11	0.06250824	0.06250824	0	64008.46	64676.9	-1.2775534e-05	634859.1	261125.95	-8.849807e-05	255390.98	638421	-8.918814e-05
0	0.63576865	0.6424242	-2.578151e-10	0.062366635	0.062366635	0	63995.945	64665.895	-2.2930193e-05	634939	260886.34	-0.00012427471	255137.03	638507.6	-0.00019464573
0	0.63564205	0.64231366	-1.4620706e-10	0.06222535	0.06222535	0	63983.207	64654.758	-2.8391421e-05	635020.5	260642.94	-0.0001017835	254878.36	638596.06	-0.0002930934
0	0.6355155	0.6422031	-2.3137897e-10	0.06208415	0.06208415	0	63970.46	64643.633	-2.7687842e-05	635101.7	260399.83	-0.00017235622	254619.88	638684.44	-0.0002127351
0	0.63538903	0.6420924	-1.6118541e-10	0.061942477	0.061942477	0	63957.742	64632.492	-1.0278364e-05	635182.7	260157.05	-4.0192393e-05	254362.06	638772.3	-0.00010276237
0	0.63526	0.6419798	-2.7918255e-11	0.061801177	0.061801177	0	63944.742	64621.156	-2.6801238e-06	635265.4	259909.45	2.4690147e-05	254098.69	638862.25	-6.1966166e-05
0	0.6351343	0.64186954	-2.272029e-10	0.061659623	0.061659623	0	63932.086	64610.062	-2.3112854e-05	635345.4	259668.25	-0.00017598917	253842.64	638949.1	-0.00014547176
0	0.6350051	0.6417572	-3.0997566e-10	0.06151831	0.06151831	0	63919.1	64598.76	-3.2541193e-05	635427.6	259421.25	-0.0001725364	253579.62	639038.9	-0.0002800569
0	0.6348786	0.64164585	-2.4407654e-10	0.06137672	0.06137672	0	63906.363	64587.543	-2.4921726e-05	635507.94	259178.31	-0.00018588125	253322.05	639125.9	-0.00016073808
0	0.63475037	0.6415339	-3.260409e-10	0.061235435	0.061235435	0	63893.457	64576.29	-2.697219e-05	635589.25	258933.17	-0.00016733551	253061.3	639214.4	-0.00020780231
0	0.6346218	0.64142144	-3.2743594e-10	0.061094135	0.061094135	0	63880.508	64564.95	-2.7237751e-05	635670.75	258687.17	-0.00020309015	252799.84	639302.9	-0.00017574121
0	0.63449097	0.64130753	-3.001725e-10	0.06095255	0.06095255	0	63867.336	64553.49	-3.1153144e-05	635753.44	258437.45	-0.00023961152	252533.88	639393.06	-0.00019367636
0	0.6343636	0.6411957	-2.7904046e-10	0.06081125	0.06081125	0	63854.52	64542.24	-2.3914174e-05	635833.7	258194	-0.00018927272	252275.42	639480.06	-0.00014333324
0	0.6342336	0.64108163	-2.4188407e-10	0.06066969	0.06066969	0	63841.43	64530.74	-2.6468235e-05	635915.4	257945.42	-0.00013581724	252011.6	639568.8	-0.00023231142
0	0.634104	0.64096886	-3.5375966e-11	0.060528405	0.060528405	0	63828.395	64519.406	-5.7149064e-06	635996.8	257698.81	1.8331399e-05	251748.88	639657.56	-9.781614e-05
0	0.6339742	0.6408556	-2.7885766e-10	0.060386807	0.060386807	0	63815.324	64508	-3.299079e-05	636078.2	257451.61	-0.0001537071	251485.64	639746.3	-0.00030513934
0	0.63384175	0.64074033	-2.6568242e-10	0.060245506	0.060245506	0	63801.99	64496.395	-2.28092e-05	636161.1	257199.66	-0.00016069287	251217.23	639836.75	-0.00015654475
0	0.6337113	0.64062655	-1.8112539e-10	0.06010422	0.06010422	0	63788.855	64484.95	-1.5237334e-05	636242.56	256951.7	-0.00014444685	250953.23	639925.5	-6.747885e-05
0	0.6335819	0.6405127	-1.5458142e-10	0.05996261	0.05996261	0	63775.824	64473.48	-1.5206462e-05	636323.06	256705	-0.0001119528	250691.5	640012.75	-9.954352e-05
0	0.6334503	0.64039814	-3.0519717e-10	0.059821296	0.059821296	0	63762.594	64461.95	-2.1804633e-05	636404.9	256455.4	-0.00012073933	250425.55	640102	-0.00018252646
0	0.63331646	0.6402814	-1.7031454e-10	0.059679788	0.059679788	0	63749.113	64450.195	-1.4117415e-05	636488	256201.25	-4.751804e-05	250154.98	640192.56	-0.00014883149
0	0.6331868	0.640168	-1.7180136e-10	0.05953849	0.05953849	0	63736.062	64438.793	-2.8543418e-05	636568.2	255955.31	-0.00013364537	249893.3	640279.94	-0.00026334557
0	0.63305444	0.6400527	-2.1473355e-10	0.059396796	0.059396796	0	63722.74	64427.176	-1.50110645e-05	636649.94	255704.6	-8.956162e-05	249626.23	640369.06	-0.00011921706
0	0.63292015	0.6399357	-9.637888e-11	0.059255593	0.059255593	0	63709.227	64415.4	-1.593176e-05	636732.9	255450.4	-9.296815e-05	249355.36	640459.56	-0.00012861585
0	0.6327873	0.63981986	-2.8155933e-10	0.05911429	0.05911429	0	63695.844	64403.74	-2.9903527e-05	636814.6	255198.92	-0.0001597156	249087.48	640548.75	-0.00025619223
0	0.63265413	0.63970363	-1.3178117e-10	0.058972668	0.058972668	0	63682.438	64392.043	-6.1195506e-06	636896.44	254947.1	-8.279923e-05	248819.27	640637.94	-2.3134294e-06
0	0.6325205	0.6395869	-9.355219e-11	0.058831364	0.058831364	0	63668.99	64380.293	-1.9809964e-05	636978.3	254694.44	-0.000113034046	248550.31	640727.25	-0.00016248926
0	0.6323888	0.6394711	-4.1383114e-10	0.05868988	0.05868988	0	63655.727	64368.637	-4.093187e-05	637058.75	254445.05	-0.00033720292	248285.45	640814.5	-0.00023209065
0	0.63225216	0.63935256	-2.6929312e-10	0.05854817	0.05854817	0	63641.99	64356.7	-2.3767368e-05	637142.25	254187.69	-0.000120632416	248010.75	640905.9	-0.00020993174
0	0.6321181	0.63923603	-4.0120185e-10	0.05840688	0.05840688	0	63628.49	64344.977	-4.180497e-05	637223.9	253935.31	-0.0002844601	247741.44	640995.1	-0.00029697677
0	0.6319833	0.6391183	-4.190255e-10	0.05826568	0.05826568	0	63614.914	64333.125	-4.3410455e-05	637305.94	253681.1	-0.00031801424	247470.7	641084.5	-0.00028575223
0	0.6318481	0.6390004	-2.2136021e-10	0.058124352	0.058124352	0	63601.32	64321.26	-2.338097e-05	637387.9	253426.64	-0.00015667947	247199.55	641174	-0.00016851052
0	0.63171256	0.6388823	-2.3246668e-10	0.057982735	0.057982735	0	63587.676	64309.363	-2.2087228e-05	637469.94	253171.6	-0.00017593372	246927.75	641263.5	-0.0001312625
0	0.63157696	0.63876396	-1.9222572e-10	0.05784144	0.05784144	0	63574.01	64297.445	-1.6744058e-05	637551.94	252916.42	-0.0001524659	246655.77	641353	-8.04158e-05
0	0.6314408	0.6386453	-1.274519e-10	0.057699878	0.057699878	0	63560.32	64285.508	-1.6207206e-05	637633.94	252660.81	-0.0001113617	246383.25	641442.6	-0.0001140533
0	0.6313044	0.6385263	-3.3620498e-10	0.057558257	0.057558257	0	63546.574	64273.54	-2.9083476e-05	637716.06	252404.61	-0.00020133932	246110.1	641532.25	-0.00020316291
0	0.6311676	0.6384071	-1.8381478e-10	0.057416957	0.057416957	0	63532.812	64261.523	-1.7806791e-05	637798.2	252147.94	-0.000115204304	245836.45	641622	-0.00013245824
0	0.63103265	0.63828856	-2.330839e-10	0.05727573	0.05727573	0	63519.22	64249.605	-1.9754627e-05	637879.06	251894.2	-0.00010313623	245566.62	641709.8	-0.00017161742
0	0.63089293	0.63816756	-3.4626296e-10	0.05713443	0.05713443	0	63505.168	64237.43	-3.4872686e-05	637962.6	251633.1	-0.0001670925	245287.48	641801.5	-0.00031792797
0	0.6307557	0.6380482	-2.2678441e-10	0.05699281	0.05699281	0	63491.35	64225.406	-2.983877e-05	638044.4	251376.42	-0.00022586211	245013.52	641891.1	-0.00018914501
0	0.6306192	0.6379287	-2.453054e-10	0.056851286	0.056851286	0	63477.617	64213.383	-2.7625914e-05	638125.7	251120.7	-0.00019340908	244741.34	641979.5	-0.00019082094
0	0.63047844	0.63780606	-2.371491e-10	0.056709964	0.056709964	0	63463.45	64201.03	-3.0576346e-05	638209.5	250857.44	-0.00012083173	244460.47	642071.06	-0.00030443384
0	0.6303405	0.6376864	-2.1425642e-10	0.056568343	0.056568343	0	63449.555	64188.99	-2.0283314e-05	638291.25	250600.14	-0.00013743962	244185.38	642160.75	-0.00014466721
0	0.6302031	0.637566	-3.021736e-10	0.05642702	0.05642702	0	63435.73	64176.863	-3.121228e-05	638372.44	250343.22	-0.0002680444	243911.95	642249.1	-0.00016606595
0	0.6300623	0.637444	-1.5949374e-10	0.05628581	0.05628581	0	63421.55	64164.586	-2.6402884e-05	638455.75	250081.05	-0.0001697227	243631.5	642340.6	-0.00019749705
0	0.6299244	0.63732326	-7.83107e-11	0.056144506	0.056144506	0	63407.676	64152.438	-8.395388e-06	638536.9	249823.53	-5.304151e-05	243357.34	642428.94	-6.372423e-05
0	0.6297827	0.6372006	-2.5967897e-10	0.056002766	0.056002766	0	63393.414	64140.086	-3.4540408e-05	638620.3	249560.19	-0.00025258615	243075.48	642520.6	-0.00022781288
0	0.6296422	0.6370782	-1.5534324e-10	0.055861373	0.055861373	0	63379.27	64127.77	-1.193339e-05	638702.8	249298.69	-5.5162756e-05	242796.31	642610.9	-0.000110810644
0	0.62950325	0.63695645	-1.4938764e-10	0.05572006	0.05572006	0	63365.28	64115.51	-2.0594423e-05	638784	249039.67	-0.00017292293	242520.56	642699.4	-0.00011351088
0	0.6293606	0.6368331	-1.9106247e-10	0.05557843	0.05557843	0	63350.918	64103.1	-1.8717497e-05	638867.44	248775.23	-0.00013416802	242237.39	642791.1	-0.00012616091
0	0.62922084	0.636711	-2.8576397e-10	0.055437095	0.055437095	0	63336.855	64090.805	-1.6062791e-05	638948.9	248515.39	-0.00012549953	241960.33	642880	-9.7906894e-05
0	0.6290778	0.6365871	-1.1770698e-10	0.055295892	0.055295892	0	63322.457	64078.332	-1.749456e-05	639032.2	248250.38	-0.00016984361	241676.75	642971.44	-7.3476316e-05
0	0.6289356	0.63646317	-3.333887e-10	0.055154584	0.055154584	0	63308.133	64065.855	-3.4191733e-05	639114.75	247986.5	-0.00015354535	241394.97	643061.9	-0.00032200417
0	0.62879324	0.63633937	-2.4469998e-10	0.05501284	0.05501284	0	63293.805	64053.395	-2.6810425e-05	639197.1	247722.86	-0.00012417522	241113.25	643152.2	-0.00024871275
0	0.62865037	0.6362149	-3.7344342e-10	0.054871462	0.054871462	0	63279.426	64040.867	-3.590172e-05	639279.9	247458.23	-0.00033479187	240830.67	643242.6	-0.00016454072
0	0.62850755	0.63609076	-1.9940186e-10	0.05473016	0.05473016	0	63265.055	64028.375	-1.4828425e-05	639362.2	247194.14	-0.00010389836	240548.31	643332.94	-0.000102340106
0	0.6283642	0.6359663	-3.439081e-10	0.054588504	0.054588504	0	63250.625	64015.85	-3.555977e-05	639444.7	246929.36	-0.00023835462	240265.19	643423.44	-0.000256222
0	0.62822247	0.63584214	-2.147356e-10	0.05444718	0.05444718	0	63236.363	64003.35	-1.4398293e-05	639526.06	246666.86	-0.000113755705	239985.47	643512.1	-8.650037e-05
0	0.62807655	0.63571596	-3.0643e-10	0.054305978	0.054305978	0	63221.664	63990.645	-3.168168e-05	639609.8	246398	-0.00023085257	239697.31	643604.3	-0.00020978633
0	0.6279322	0.63559055	-7.550873e-11	0.054164223	0.054164223	0	63207.145	63978.02	-8.446625e-06	639692.3	246131.83	-6.570339e-05	239412.72	643694.9	-5.177496e-05
0	0.6277873	0.6354644	-2.2795055e-10	0.0540229	0.0540229	0	63192.55	63965.324	-2.659263e-05	639775.1	245864.58	-0.00013897696	239127.03	643785.56	-0.0002308818
0	0.6276439	0.6353394	-7.634099e-11	0.053881556	0.053881556	0	63178.113	63952.73	-8.854418e-06	639856.7	245600.19	1.5420586e-05	238844.73	643874.9	-0.00013857066
0	0.62749684	0.63521206	-1.9070602e-10	0.053740222	0.053740222	0	63163.32	63939.926	-1.8981915e-05	639940.25	245330.08	-0.00012189187	238555.3	643966.8	-0.00014211463
0	0.6273511	0.6350854	-3.184891e-10	0.053598575	0.053598575	0	63148.65	63927.176	-3.1158495e-05	640022.9	245062.11	-0.00028194799	238268.67	644057.5	-0.00015141434
0	0.6272065	0.63495886	-1.2851913e-10	0.053457268	0.053457268	0	63134.086	63914.43	-1.0622489e-05	640104.6	244795.61	-9.838402e-05	237984.52	644146.75	-4.9356935e-05
0	0.6270603	0.63483196	-4.5590187e-10	0.053315945	0.053315945	0	63119.375	63901.664	-3.8240203e-05	640187.25	244527.28	-0.0002641821	237697.22	644237.44	-0.00026767486
0	0.6269117	0.63470346	-2.8063746e-10	0.0531743	0.0531743	0	63104.418	63888.73	-2.6787413e-05	640271.06	244255.08	-0.0002273607	237405.34	644329.8	-0.0001452072
0	0.6267644	0.6345756	-4.0567502e-10	0.053032976	0.053032976	0	63089.594	63875.867	-3.766746e-05	640353.8	243985.19	-0.00027384414	237116.38	644420.75	-0.00025004693
0	0.62661844	0.6344477	-2.2297002e-10	0.052891634	0.052891634	0	63074.9	63862.99	-2.5516789e-05	640435.5	243716.84	-0.0001612204	236830.3	644509.94	-0.00019367522
0	0.6264709	0.6343198	-2.7140937e-10	0.05275032	0.05275032	0	63060.04	63850.113	-1.7935945e-05	640518.2	243446.84	-0.0001593792	236541.02	644600.8	-9.007964e-05
0	0.6263208	0.63419026	-4.748591e-10	0.05260866	0.05260866	0	63044.938	63837.07	-4.6824247e-05	640602.06	243172.83	-0.00038190532	236247	644693.5	-0.00026934125
0	0.6261742	0.6340623	-1.0551798e-10	0.05246734	0.05246734	0	63030.188	63824.188	-7.417565e-06	640683.6	242904.48	-7.732113e-05	235960.28	644782.7	-2.5844736e-05
0	0.6260251	0.63393265	-7.9464636e-11	0.052326016	0.052326016	0	63015.168	63811.145	-5.523021e-06	640766.6	242631.89	-6.048884e-05	235668.42	644873.9	-1.6327098e-05
0	0.6258738	0.63380206	-3.0091327e-10	0.052184362	0.052184362	0	62999.95	63798	-3.3137545e-05	640850.7	242356.42	-0.00023857625	235372.75	644966.5	-0.00022231136
0	0.625724	0.63367194	-2.0927785e-10	0.052043013	0.052043013	0	62984.867	63784.9	-1.8742012e-05	640933.44	242083.12	-0.00011785284	235080.16	645057.7	-0.00014281702
0	0.625574	0.633542	-2.350662e-10	0.051901728	0.051901728	0	62969.77	63771.812	-3.0561514e-05	641016.4	241809.9	-0.00017604275	234787.27	645148.9	-0.0002490165
0	0.62542385	0.6334115	-3.8503134e-10	0.051760413	0.051760413	0	62954.65	63758.68	-3.634058e-05	641099.1	241536.33	-0.00024950583	234494.22	645239.9	-0.00025593056
0	0.62527215	0.6332796	-2.838233e-10	0.05161863	0.05161863	0	62939.387	63745.4	-2.7472264e-05	641182.56	241260	-0.00016305364	234198.53	645331.3	-0.0002190394
0	0.6251219	0.63314974	-2.7012223e-10	0.051477425	0.051477425	0	62924.258	63732.332	-2.7211154e-05	641265	240987.19	-0.00014097935	233905.64	645422.44	-0.00023748206
0	0.6249696	0.633017	-4.4711934e-10	0.0513361	0.0513361	0	62908.926	63718.98	-4.6089965e-05	641348.44	240709.95	-0.0003317797	233608.97	645513.94	-0.00030925425
0	0.6248185	0.6328865	-2.5396724e-10	0.0511944	0.0511944	0	62893.727	63705.832	-3.6757574e-05	641430.9	240436.2	-0.0001900392	233315.1	645604.94	-0.00032119686
0	0.62466824	0.6327555	-4.5830242e-11	0.051053077	0.051053077	0	62878.6	63692.65	5.363554e-07	641512.7	240163.12	5.506146e-06	233023	645694.6	1.953656e-06
0	0.6245136	0.63262206	-2.4800448e-10	0.050911825	0.050911825	0	62863.023	63679.22	-2.3250992e-05	641596.9	239883.19	-0.00016764154	232722.19	645787.7	-0.00015574068
0	0.6243626	0.63249034	-2.4368652e-10	0.050770037	0.050770037	0	62847.824	63665.957	-1.6237142e-05	641678.75	239609.03	-0.000108610046	232428.88	645877.5	-0.00011722131
0	0.6242074	0.6323565	-1.5538171e-10	0.050628714	0.050628714	0	62832.2	63652.49	-1.1762522e-05	641762.8	239328.64	-0.000108793356	232127.48	645970.56	-5.4803568e-05
0	0.6240537	0.6322234	-4.0587028e-10	0.0504875	0.0504875	0	62816.74	63639.094	-4.199359e-05	641845.8	239050.89	-0.00030687722	231829.47	646061.9	-0.00027718302
0	0.6239017	0.6320908	-3.44752e-10	0.050346155	0.050346155	0	62801.438	63625.74	-3.7253158e-05	641927.6	238775.39	-0.00030923783	231534.83	646151.56	-0.00020889094
0	0.6237449	0.6319555	-4.2686932e-10	0.050204474	0.050204474	0	62785.65	63612.117	-4.1622396e-05	642012.1	238492.58	-0.00028567412	231230.72	646245.1	-0.00029322345
0	0.6235898	0.63182104	-8.886794e-11	0.05006314	0.05006314	0	62770.04	63598.586	-1.333285e-05	642095.25	238212.69	-0.00011484463	230930.45	646336.75	-7.0592905e-05
0	0.6234369	0.63168806	-3.1942157e-10	0.049921803	0.049921803	0	62754.656	63585.2	-2.4092467e-05	642176.94	237936.67	-0.0002825677	230634.75	646426.5	-5.2518026e-05
0	0.6232815	0.6315535	-1.7537154e-10	0.049780127	0.049780127	0	62739.008	63571.656	-1.1732216e-05	642260	237656.62	-0.0001104546	230334.11	646518.25	-5.2720803e-05
0	0.6231255	0.63141835	-2.4468616e-10	0.049638797	0.049638797	0	62723.3	63558.05	-2.4543731e-05	642343.1	237375.73	-0.00014883601	230032.56	646609.9	-0.00019252604
0	0.6229694	0.6312828	-1.7925463e-10	0.04949756	0.04949756	0	62707.586	63544.414	-1.8537456e-05	642426.06	237094.66	-0.00013725003	229731.02	646701.4	-0.000120574834
0	0.6228104	0.63114625	-2.5632222e-11	0.04935623	0.04935623	0	62691.586	63530.656	-3.0746353e-06	642510.56	236809.78	-3.8163937e-05	229424.11	646794.94	-4.59907e-06
0	0.62265337	0.6310103	-7.80985e-12	0.04921455	0.04921455	0	62675.773	63516.977	-1.0145726e-06	642593.6	236527.67	1.2586295e-05	229121.1	646886.7	-2.6697295e-05
0	0.62249583	0.63087386	-1.1162006e-10	0.049073216	0.049073216	0	62659.926	63503.24	-9.036703e-06	642676.75	236244.89	-7.830846e-05	228817.45	646978.44	-4.737689e-05
0	0.62233794	0.6307371	-3.4467298e-10	0.04893189	0.04893189	0	62644.023	63489.48	-3.0792427e-05	642759.94	235961.66	-0.00028253216	228513.12	647070.4	-0.00014573876
0	0.6221798	0.63060033	-8.744052e-11	0.048790213	0.048790213	0	62628.113	63475.72	-1.068734e-05	642842.94	235678.42	-7.785627e-05	228208.77	647162.06	-7.078668e-05
0	0.62202126	0.6304632	-3.8066314e-10	0.048648853	0.048648853	0	62612.15	63461.914	-3.888769e-05	642926.1	235394.45	-0.00026461852	227903.6	647254	-0.0002762439
0	0.621862	0.63032526	-1.5657912e-11	0.04850764	0.04850764	0	62596.117	63448.023	-4.4264934e-06	643009.44	235109.36	-7.143796e-05	227597.34	647346	9.872877e-06
0	0.62170464	0.6301882	-2.9588418e-10	0.048366304	0.048366304	0	62580.28	63434.227	-1.7920773e-05	643091.44	234827.28	-0.00019779053	227295.03	647436.1	-5.1457286e-05
0	0.6215423	0.63004845	-1.5944354e-10	0.048224516	0.048224516	0	62563.938	63420.15	-1.9243573e-05	643176.1	234537.7	-9.876215e-05	226983.1	647530.1	-0.00016888358
0	0.6213827	0.62991077	-1.1344616e-10	0.0480833	0.0480833	0	62547.883	63406.3	-1.2741449e-05	643259	234253.28	-6.731842e-05	226676.92	647621.8	-0.00010989372
0	0.62122214	0.6297719	-1.1045813e-10	0.047941964	0.047941964	0	62531.71	63392.324	-1.5124856e-05	643342.2	233966.77	-8.6216234e-05	226368.84	647713.9	-0.00012414508
0	0.621061	0.62963265	-2.2755293e-10	0.04780026	0.04780026	0	62515.5	63378.305	-2.4092767e-05	643425.44	233679.64	-0.00016919429	226060	647806.06	-0.00016589562
0	0.62089974	0.62949324	-1.6123357e-10	0.04765894	0.04765894	0	62499.26	63364.273	-1.5326501e-05	643508.6	233392.48	-0.00014389333	225751.02	647898.1	-6.927254e-05
0	0.6207382	0.6293536	-1.7835998e-10	0.047517724	0.047517724	0	62483	63350.21	-1.7333548e-05	643591.75	233104.86	-0.00011924368	225441.66	647990.1	-0.000121836834
0	0.62057513	0.62921214	-2.0158954e-10	0.047376387	0.047376387	0	62466.586	63335.99	-2.344848e-05	643675.56	232814.47	-0.00015405858	225129.61	648082.56	-0.00017207037
0	0.62041324	0.6290727	-4.2555673e-10	0.047234587	0.047234587	0	62450.29	63321.945	-4.751887e-05	643758.44	232527.19	-0.00034639167	224820	648174.6	-0.00031451596
0	0.62024945	0.62893075	-3.6124667e-10	0.047093373	0.047093373	0	62433.805	63307.65	-2.9066228e-05	643842.1	232236.03	-0.0002678439	224507.22	648267	-0.0001364185
0	0.62008655	0.6287901	-4.4078854e-10	0.04695201	0.04695201	0	62417.4	63293.492	-4.2780353e-05	643925.25	231947.02	-0.00032421114	224195.94	648359.06	-0.0002707917
0	0.6199232	0.6286494	-2.2412007e-10	0.046810348	0.046810348	0	62400.96	63279.332	-2.579004e-05	644008.3	231657.77	-0.00020170187	223884.14	648451.4	-0.00015699423
0	0.6197586	0.628507	-2.362536e-10	0.04666901	0.04666901	0	62384.395	63265	-1.7320408e-05	644091.8	231366.06	-8.481059e-05	223570.3	648543.75	-0.00015608718
0	0.61959445	0.6283655	-1.02242124e-10	0.046527795	0.046527795	0	62367.867	63250.75	-1.4325652e-05	644174.8	231075.75	-0.000117822354	223257.34	648635.94	-8.1423386e-05
0	0.6194294	0.6282228	-1.9493619e-10	0.046386022	0.046386022	0	62351.258	63236.4	-1.4814868e-05	644258.2	230783.7	-0.00012650991	222942.98	648728.2	-7.954e-05
0	0.6192637	0.6280797	-1.749066e-10	0.046244673	0.046244673	0	62334.582	63221.992	-1.6699641e-05	644341.6	230490.88	-0.0001191695	222627.58	648820.75	-0.00011309444
0	0.61910045	0.6279382	-2.1919089e-10	0.046103455	0.046103455	0	62318.15	63207.742	-2.41841e-05	644423.56	230202.2	-0.00021120996	222317.19	648911.3	-0.00012515024
0	0.6189318	0.6277932	-1.8000479e-10	0.045962088	0.045962088	0	62301.164	63193.145	-1.1931278e-05	644508.3	229904.84	-4.0463477e-05	221996.27	649005.5	-0.00012548055
0	0.6187652	0.6276495	-2.0592757e-10	0.045820434	0.045820434	0	62284.4	63178.68	-2.4295165e-05	644591.7	229611.22	-0.00013682179	221679.7	649098.06	-0.00020108312
0	0.6185984	0.62750584	-2.3347219e-10	0.045679096	0.045679096	0	62267.605	63164.227	-2.5286316e-05	644674.7	229317.69	-0.0001504571	221363.05	649190.5	-0.00020123305
0	0.61843073	0.62736094	-3.0204403e-10	0.04553775	0.04553775	0	62250.73	63149.633	-2.9335346e-05	644758.25	229022.19	-0.0002315542	221044.75	649283.06	-0.00017645113
0	0.61826235	0.6272153	-1.12306275e-10	0.045396097	0.045396097	0	62233.79	63134.977	-7.728488e-06	644841.9	228725.75	-5.4481854e-05	220725.42	649375.7	-5.3008425e-05
0	0.618097	0.6270722	-3.2491074e-10	0.04525476	0.04525476	0	62217.133	63120.574	-3.8230995e-05	644923.6	228434.8	-0.00027500856	220412.12	649466.4	-0.00025672038
0	0.6179259	0.6269255	-2.1908052e-10	0.04511351	0.04511351	0	62199.914	63105.812	-1.9498355e-05	645008.3	228134.88	-0.00015535306	220087.88	649560.8	-0.000115836294