# t (s)	mx ()	my ()	mz ()	B_extx (T)	B_exty (T)	B_extz (T)	m_fullx (A/m)	m_fully (A/m)	m_fullz (A/m)	m_full.region1x (A/m)	m_full.region1y (A/m)	m_full.region1z (A/m)	m_full.region2x (A/m)	m_full.region2y (A/m)	m_full.region2z (A/m)
0	0.6406874	0.6406871	-2.3989485e-10	0.0707108	0.0707108	0	143071.02	143070.98	-4.7839505e-05	637637.94	259324.28	-0.0001741486	259324.36	637637.75	-0.00017626499
0	0.6405935	0.6405937	-2.3989485e-10	0.07056912	0.07056912	0	143050.06	143050.12	-5.5555556e-05	637703.94	259127.27	-0.0001741486	259127	637703.94	-0.00016447369
0	0.6404962	0.6404964	-2.7680176e-11	0.070427895	0.070427895	0	143028.34	143028.38	-6.1728397e-06	637773.44	258921.53	1.9349845e-05	258921.23	637773.44	-5.7444853e-05
0	0.64039695	0.6403972	-1.5685434e-10	0.070286475	0.070286475	0	143006.19	143006.23	-3.5493827e-05	637843.75	258712.36	-0.000125774	258712.08	637843.7	-0.00011126161
0	0.6402999	0.64030015	-2.7680175e-10	0.07014494	0.07014494	0	142984.52	142984.56	-6.1728395e-05	637913.4	258506.84	-0.0001529847	258506.56	637913.4	-0.00022252322
0	0.6402006	0.64020073	-2.4912158e-10	0.07000352	0.07000352	0	142962.33	142962.38	-6.0185186e-05	637983.5	258297.52	-0.00023219814	258297.22	637983.56	-0.0001287974
0	0.640103	0.6401033	-2.3066812e-10	0.06986228	0.069862284	0	142940.55	142940.6	-5.4012347e-05	638053.2	258091.31	-0.00013544892	258091	638053.25	-0.0002128483
0	0.6400046	0.6400048	-2.214414e-10	0.06972061	0.06972061	0	142918.56	142918.61	-4.7839505e-05	638123.06	257883.62	-0.00011609907	257883.34	638123.1	-0.00020226635
0	0.6399042	0.63990444	-1.5685434e-10	0.06957921	0.06957921	0	142896.14	142896.22	-3.2407406e-05	638193.56	257672.77	-5.8049536e-05	257672.44	638193.56	-0.00013544892
0	0.63980633	0.6398065	-1.9376123e-10	0.069437966	0.06943796	0	142874.28	142874.33	-4.7839505e-05	638263.25	257465.86	-0.0001741486	257465.58	638263.25	-0.00014512383
0	0.63970697	0.6397071	-9.226725e-12	0.06929652	0.06929652	0	142852.1	142852.14	3.0864198e-06	638333.1	257256.88	7.739938e-05	257256.58	638333.1	-5.7444853e-05
0	0.6396075	0.6396078	-1.107207e-10	0.06915501	0.06915502	0	142829.89	142829.94	-2.3148148e-05	638403.25	257047.55	-4.837461e-05	257047.27	638403.3	-0.00012305292
0	0.6395071	0.6395074	-2.5834831e-10	0.0690136	0.0690136	0	142807.48	142807.52	-6.481481e-05	638473.3	256836.97	-0.0002128483	256836.67	638473.4	-0.00019349845
0	0.6394069	0.63940716	-1.845345e-10	0.06887218	0.06887218	0	142785.12	142785.16	-4.1666666e-05	638543.75	256626.33	-0.00013544892	256626.03	638543.75	-0.00010642415
0	0.639308	0.63930815	-9.226725e-11	0.0687307	0.0687307	0	142763	142763.05	-3.2407406e-05	638613.56	256417.88	-5.8049536e-05	256417.61	638613.56	-0.00012093653
0	0.63920647	0.6392067	-1.476276e-10	0.06858927	0.06858927	0	142740.33	142740.36	-3.395062e-05	638683.94	256205.44	-0.00015479876	256205.16	638683.94	-7.256192e-05
0	0.6391071	0.6391072	-2.0298796e-10	0.068448	0.068448	0	142718.14	142718.17	-4.6296296e-05	638754.06	255996.17	-8.70743e-05	255995.92	638754.06	-0.00020891786
0	0.63900644	0.6390066	-1.7530778e-10	0.068306595	0.06830659	0	142695.66	142695.7	-3.858025e-05	638824.25	255785.03	-3.869969e-05	255784.73	638824.25	-0.00022010448
0	0.6389049	0.63890505	-1.7530778e-10	0.06816509	0.068165086	0	142672.97	142673.03	-3.2407406e-05	638894.44	255572.7	-8.70743e-05	255572.39	638894.44	-0.00014512383
0	0.6388044	0.6388047	-2.214414e-10	0.06802368	0.06802368	0	142650.53	142650.58	-4.7839505e-05	638964.6	255361.72	-0.00015479876	255361.47	638964.7	-0.00015600813
0	0.6387025	0.6387027	-8.3040526e-11	0.06788226	0.06788226	0	142627.8	142627.83	-2.1604938e-05	639034.9	255148.84	-5.8049536e-05	255148.56	639034.94	-9.795859e-05
0	0.638602	0.63860226	-1.1994743e-10	0.06774077	0.067740776	0	142605.34	142605.4	-2.7777778e-05	639105.06	254938.1	-0.00010642415	254937.78	639105.06	-6.772446e-05
0	0.63850015	0.6385003	-2.3989485e-10	0.06759932	0.06759933	0	142582.6	142582.62	-5.4012347e-05	639175.44	254725	-0.00015479876	254724.72	639175.3	-0.00021889512
0	0.6383975	0.63839775	-1.5685434e-10	0.067458086	0.067458086	0	142559.69	142559.72	-3.2407406e-05	639246	254510.83	-6.772446e-05	254510.53	639246	-0.00012940209
0	0.638296	0.6382962	-3.7829573e-10	0.06731665	0.06731665	0	142537	142537.06	-7.407407e-05	639316.25	254298.48	-0.000251548	254298.17	639316.25	-0.00028057274
0	0.6381931	0.63819325	-8.3040526e-11	0.067175	0.067175	0	142514.03	142514.06	-2.1604938e-05	639386.8	254083.83	-4.837461e-05	254083.5	639386.75	-6.80268e-05
0	0.6380915	0.6380917	-2.7680175e-10	0.06703376	0.06703376	0	142491.33	142491.38	-6.1728395e-05	639456.94	253871.45	-0.00020317337	253871.16	639456.94	-0.0001880563
0	0.63798827	0.6379885	-2.0298796e-10	0.06689233	0.06689233	0	142468.3	142468.36	-4.1666666e-05	639527.5	253656.45	-0.00014512383	253656.16	639527.5	-0.00012093653
0	0.6378856	0.6378858	-8.3040526e-11	0.06675082	0.06675082	0	142445.38	142445.42	-2.4691359e-05	639597.94	253442.27	-1.9349845e-05	253441.97	639597.94	-0.00010551712
0	0.63778293	0.63778305	-4.6133625e-11	0.0666094	0.0666094	0	142422.44	142422.47	-1.0802469e-05	639668.3	253228.05	-9.674923e-06	253227.75	639668.25	-4.353715e-05
0	0.6376795	0.63767976	-2.4912158e-10	0.06646815	0.06646815	0	142399.34	142399.39	-5.2469135e-05	639738.94	253012.61	-0.00014512383	253012.34	639738.94	-0.00023219814
0	0.6375763	0.6375764	-1.7530778e-10	0.06632651	0.06632651	0	142376.28	142376.33	-4.1666666e-05	639809.25	252797.78	-0.00011126161	252797.5	639809.25	-0.00016931114
0	0.6374725	0.6374728	-1.845345e-11	0.06618508	0.06618509	0	142353.11	142353.19	-1.2345679e-05	639879.75	252582.03	8.70743e-05	252581.7	639879.75	-0.00012819273
0	0.6373675	0.6373677	-1.7530778e-10	0.06604384	0.06604384	0	142329.66	142329.72	-4.0123457e-05	639950.56	252364.25	-4.837461e-05	252363.97	639950.56	-0.0002128483
0	0.6372643	0.6372645	-2.4912158e-10	0.06590237	0.06590237	0	142306.62	142306.67	-4.9382717e-05	640021	252149.28	-0.0001741486	252148.98	640021	-0.00014905428
0	0.63715947	0.6371597	-1.7530778e-10	0.0657609	0.06576091	0	142283.23	142283.28	-3.858025e-05	640091.25	251932.4	-0.00014512383	251932.08	640091.25	-0.00010158669
0	0.63705516	0.63705534	-2.3989485e-10	0.06561947	0.06561947	0	142259.92	142259.97	-5.4012347e-05	640162	251715.5	-0.00016447369	251715.2	640162	-0.00017898607
0	0.6369508	0.636951	-3.69069e-11	0.06547823	0.06547823	0	142236.64	142236.66	-9.259259e-06	640232.5	251498.98	-3.869969e-05	251498.69	640232.44	-1.9954528e-05
0	0.6368455	0.6368457	-2.7680176e-11	0.065336585	0.065336585	0	142213.12	142213.17	-3.0864198e-06	640302.8	251281.2	-1.9349845e-05	251280.94	640302.8	9.674923e-06
0	0.6367405	0.6367407	-1.845345e-10	0.06519516	0.06519516	0	142189.64	142189.69	-4.1666666e-05	640373.9	251063.06	-0.00013544892	251062.78	640373.94	-0.00012093653
0	0.636635	0.63663524	-1.9376123e-10	0.06505392	0.06505392	0	142166.1	142166.12	-3.858025e-05	640444.4	250844.92	-9.674922e-05	250844.61	640444.3	-0.00014784491
0	0.6365291	0.6365294	-1.2917416e-10	0.06491244	0.06491244	0	142142.45	142142.5	-2.9320987e-05	640515.44	250625.72	-7.739938e-05	250625.45	640515.3	-9.191177e-05
0	0.63642406	0.63642424	-1.5685434e-10	0.06477098	0.06477098	0	142119	142119.03	-3.7037036e-05	640586.06	250407.92	-0.00014512383	250407.62	640586.1	-8.2236846e-05
0	0.6363174	0.63631755	-2.3989485e-10	0.06462956	0.06462956	0	142095.16	142095.2	-4.6296296e-05	640656.94	250187.67	-0.00015479876	250187.36	640656.94	-0.00015449642
0	0.6362122	0.63621247	-1.9376123e-10	0.06448813	0.06448813	0	142071.7	142071.75	-3.7037036e-05	640727.3	249970.12	-0.00014512383	249969.83	640727.4	-9.281879e-05
0	0.6361061	0.63610625	-1.3840087e-10	0.06434667	0.06434667	0	142047.98	142048.05	-2.7777778e-05	640797.94	249750.89	3.869969e-05	249750.6	640797.94	-0.00024187306
0	0.63599837	0.63599855	-2.214414e-10	0.064205244	0.064205244	0	142023.94	142023.98	-4.9382717e-05	640869.06	249528.98	-0.00013544892	249528.69	640869.06	-0.00022252322
0	0.6358928	0.63589305	9.226725e-12	0.06406396	0.06406396	0	142000.36	142000.4	3.0864198e-06	640939.4	249310.9	4.837461e-05	249310.6	640939.4	-1.814048e-05
0	0.6357848	0.635785	-1.6608105e-10	0.06392251	0.06392251	0	141976.23	141976.28	-4.0123457e-05	641010.6	249088.36	-9.674922e-05	249088.06	641010.6	-0.000125774
0	0.6356784	0.6356785	-1.0149398e-10	0.06378107	0.06378107	0	141952.47	141952.52	-2.4691359e-05	641081.06	248868.9	-3.869969e-05	248868.61	641081.1	-0.00010128435
0	0.63557017	0.6355704	-2.1221468e-10	0.06363963	0.06363963	0	141928.31	141928.36	-4.3209875e-05	641152.06	248646.5	-0.00010642415	248646.2	641152.06	-0.00018382353
0	0.635462	0.6354622	-1.7530778e-10	0.0634982	0.0634982	0	141904.16	141904.2	-3.395062e-05	641223.25	248423.84	-0.00016447369	248423.53	641223.2	-6.772446e-05
0	0.6353549	0.6353551	-1.6608105e-10	0.06335675	0.06335675	0	141880.22	141880.27	-3.858025e-05	641294.25	248202.88	-7.739938e-05	248202.56	641294.25	-0.00015086832
0	0.63524705	0.63524723	-2.3989485e-10	0.06321528	0.063215286	0	141856.16	141856.19	-4.9382717e-05	641364.94	247981.22	-0.0001741486	247980.9	641364.94	-0.0001499613
0	0.635138	0.6351382	-2.214414e-10	0.06307402	0.06307402	0	141831.8	141831.86	-4.4753087e-05	641435.8	247757.66	-0.00016447369	247757.36	641435.75	-0.00013061146
0	0.63502944	0.63502955	-1.2917416e-10	0.06293259	0.06293259	0	141807.55	141807.6	-2.6234567e-05	641507	247534.47	-0.00010642415	247534.19	641506.94	-9.43305e-05
0	0.6349215	0.6349217	-1.1994743e-10	0.06279097	0.06279097	0	141783.44	141783.5	-3.2407406e-05	641577.75	247312.56	-3.869969e-05	247312.27	641577.75	-0.00015117067
0	0.63481265	0.63481295	-1.6608105e-10	0.06264971	0.06264971	0	141759.16	141759.2	-3.5493827e-05	641648.6	247089.42	-0.00013544892	247089.1	641648.6	-8.70743e-05
0	0.63470364	0.6347039	-1.1994743e-10	0.06250826	0.06250826	0	141734.83	141734.84	-1.697531e-05	641719.4	246866.1	-0.00012819273	246865.8	641719.4	-1.9349845e-05
0	0.6345934	0.63459367	-1.0149398e-10	0.062366802	0.062366802	0	141710.2	141710.25	-2.1604938e-05	641790.56	246640.66	-3.869969e-05	246640.34	641790.56	-7.074787e-05
0	0.6344846	0.63448477	-4.9824317e-10	0.062225346	0.062225346	0	141685.89	141685.92	-0.00011419753	641861.3	246417.36	-0.00040634675	246417.06	641861.3	-0.00032652865
0	0.6343738	0.63437396	-1.0149398e-10	0.062084105	0.062084105	0	141661.14	141661.19	-2.3148148e-05	641932.75	246190.83	-1.9349845e-05	246190.5	641932.75	-0.000125774
0	0.6342646	0.63426477	-2.7680175e-10	0.06194248	0.061942484	0	141636.77	141636.8	-6.9444446e-05	642003.6	245967.03	-0.00028057274	245966.72	642003.6	-0.000163869
0	0.6341543	0.63415444	-2.3066812e-10	0.061801035	0.061801035	0	141612.12	141612.17	-5.0925926e-05	642074.56	245741.67	-0.00010642415	245741.39	642074.56	-0.0002128483
0	0.63404304	0.6340433	-2.3066812e-10	0.061659794	0.061659794	0	141587.3	141587.34	-5.4012347e-05	642146.06	245514.56	-0.00019349845	245514.25	642146.06	-0.00012305292
0	0.6339332	0.6339334	-1.0149398e-10	0.0615183	0.0615183	0	141562.77	141562.81	-1.697531e-05	642217.06	245289.77	-9.674923e-06	245289.47	642217	-8.9493034e-05
0	0.6338214	0.63382155	-1.2917416e-10	0.06137688	0.061376873	0	141537.78	141537.84	-3.395062e-05	642288.3	245061.94	-0.00011609907	245061.64	642288.3	-0.00011609907
0	0.63371134	0.6337116	-8.3040526e-11	0.061235435	0.061235435	0	141513.22	141513.27	-1.697531e-05	642359.06	244837.12	-8.70743e-05	244836.83	642359	-4.353715e-05
0	0.633599	0.6335992	-1.7530778e-10	0.06109399	0.06109399	0	141488.12	141488.17	-4.0123457e-05	642430.3	244608.5	-0.00020317337	244608.2	642430.3	-7.739938e-05
0	0.6334876	0.6334877	1.845345e-11	0.06095258	0.060952578	0	141463.25	141463.28	0	642501.56	244381.33	2.9024768e-05	244381.02	642501.5	1.9349845e-05
0	0.63337624	0.6333764	-1.845345e-10	0.06081112	0.06081112	0	141438.39	141438.44	-4.6296296e-05	642572.8	244154.25	-8.70743e-05	244153.94	642572.8	-0.00019652187
0	0.63326293	0.6332631	1.9376123e-10	0.06066982	0.06066982	0	141413.1	141413.12	4.9382717e-05	642644.2	243924.23	0.00027089784	243923.94	642644.1	5.502612e-05
0	0.63315094	0.6331512	-2.0298796e-10	0.060528375	0.060528375	0	141388.1	141388.14	-4.6296296e-05	642715.3	243696.36	-0.00016447369	243696.06	642715.25	-0.00014512383
0	0.63304	0.63304025	-1.6608105e-10	0.060386952	0.060386952	0	141363.31	141363.36	-3.395062e-05	642785.94	243470.34	-9.674922e-05	243470.03	642785.94	-0.000125774
0	0.63292664	0.63292676	-2.3989485e-10	0.06024551	0.06024551	0	141337.98	141338.02	-4.6296296e-05	642857.44	243240.12	-0.00015479876	243239.81	642857.5	-0.00015842686
0	0.6328131	0.6328132	5.536035e-11	0.060104065	0.060104065	0	141312.62	141312.64	1.0802469e-05	642928.94	243009.62	4.837461e-05	243009.33	642928.9	1.9349845e-05
0	0.6327008	0.632701	-1.476276e-10	0.05996265	0.059962656	0	141287.55	141287.6	-3.5493827e-05	643000.06	242781.25	-0.00011609907	242780.97	643000.06	-0.00010158669
0	0.63258743	0.6325877	-2.4912158e-10	0.059821155	0.059821155	0	141262.23	141262.3	-5.7098765e-05	643071.3	242551.36	-0.000125774	242551.11	643071.3	-0.00024005902
0	0.63247424	0.6324744	-1.3840087e-10	0.059679903	0.059679903	0	141236.97	141237	-3.2407406e-05	643142.3	242321.9	-0.00010642415	242321.61	643142.3	-0.00012093653
0	0.63235945	0.6323597	-3.4138883e-10	0.059538443	0.059538443	0	141211.33	141211.38	-7.71605e-05	643213.7	242089.84	-0.00018382353	242089.55	643213.6	-0.00033378482
0	0.6322457	0.63224584	-8.3040526e-11	0.059396844	0.059396844	0	141185.92	141185.95	-1.5432099e-05	643285.2	241859.1	-4.837461e-05	241858.81	643285.1	-7.739938e-05
0	0.63213164	0.6321317	-1.0149398e-10	0.059255593	0.059255593	0	141160.45	141160.5	-2.0061729e-05	643356.6	241627.86	-0.000125774	241627.58	643356.6	-2.9024768e-05
0	0.6320162	0.6320164	-2.1221468e-10	0.059114125	0.059114125	0	141134.69	141134.72	-4.4753087e-05	643427.9	241395.08	-0.00013544892	241394.78	643427.9	-0.00014935662
0	0.63190246	0.6319027	-2.8602848e-10	0.058972694	0.058972694	0	141109.27	141109.33	-6.1728395e-05	643499.1	241164.56	-0.00015479876	241164.27	643499.1	-0.00022494195
0	0.6317864	0.6317865	-1.9376123e-10	0.058831237	0.058831237	0	141083.36	141083.4	-4.4753087e-05	643570.75	240930.53	-0.00014512383	240930.22	643570.75	-0.00015479876
0	0.6316725	0.6316727	-1.107207e-10	0.05868997	0.058689967	0	141057.92	141057.97	-2.7777778e-05	643641.75	240700.08	-6.772446e-05	240699.8	643641.7	-0.00010158669
0	0.6315569	0.63155717	-5.536035e-11	0.058548383	0.058548383	0	141032.12	141032.17	-2.1604938e-05	643713.2	240466.84	-2.9024768e-05	240466.53	643713.1	-8.55626e-05
0	0.63144106	0.6314413	-2.952552e-10	0.058406927	0.05840693	0	141006.23	141006.3	-6.1728395e-05	643784.5	240233.31	-0.000251548	240233.02	643784.44	-0.000125774
0	0.6313256	0.6313257	-8.3040526e-11	0.05826566	0.05826566	0	140980.45	140980.5	-1.5432099e-05	643855.9	240000.34	-3.869969e-05	240000.02	643855.75	-6.349168e-05
0	0.6312094	0.6312095	-1.2917416e-10	0.058124155	0.058124155	0	140954.52	140954.56	-2.9320987e-05	643927.2	239766.19	-8.70743e-05	239765.89	643927.2	-8.55626e-05
0	0.6310918	0.631092	-2.214414e-10	0.057982776	0.057982776	0	140928.23	140928.3	-5.4012347e-05	643999	239529.73	-0.00024187306	239529.45	643999	-9.674922e-05
0	0.6309757	0.6309759	-4.428828e-10	0.05784131	0.05784131	0	140902.34	140902.39	-9.722222e-05	644070.44	239295.9	-0.0003869969	239295.61	644070.4	-0.000251548
0	0.63085914	0.6308593	-1.1994743e-10	0.057699844	0.05769985	0	140876.28	140876.33	-2.7777778e-05	644141.75	239061.31	-0.00013544892	239061.02	644141.75	-3.869969e-05
0	0.6307417	0.6307419	-2.5834831e-10	0.057558466	0.057558466	0	140850.1	140850.11	-5.5555556e-05	644213.25	238825.45	-0.00016447369	238825.16	644213.25	-0.00021768575
0	0.6306237	0.63062394	-1.6608105e-10	0.057416998	0.057416998	0	140823.73	140823.78	-3.7037036e-05	644284.94	238588.6	-0.00010642415	238588.3	644284.9	-0.00010823819
0	0.6305074	0.6305076	-2.6757502e-10	0.057275694	0.057275698	0	140797.75	140797.8	-5.4012347e-05	644356.25	238354.47	-0.0001741486	238354.12	644356.2	-0.00016931114
0	0.63038826	0.6303885	-1.107207e-10	0.057134222	0.057134222	0	140771.16	140771.22	-2.3148148e-05	644427.9	238116.12	-9.674922e-05	238115.83	644427.9	-5.5630804e-05
0	0.6302717	0.63027185	-1.107207e-10	0.056992855	0.056992855	0	140745.12	140745.16	-2.3148148e-05	644499.1	237881.58	-7.739938e-05	237881.28	644499.06	-0.00011609907
0	0.63015354	0.6301537	-2.4912158e-10	0.056851387	0.056851387	0	140718.72	140718.77	-5.4012347e-05	644570.6	237644.64	-0.00019349845	237644.3	644570.5	-0.00018412586
0	0.6300337	0.63003385	-1.9376123e-10	0.05670992	0.05670991	0	140691.97	140691.98	-4.6296296e-05	644642.4	237405.02	-0.00011609907	237404.7	644642.3	-0.00015963623
0	0.62991613	0.62991625	-1.107207e-10	0.05656855	0.05656855	0	140665.69	140665.75	-2.6234567e-05	644713.8	237169.02	-7.739938e-05	237168.7	644713.75	-0.00010158669
0	0.62979686	0.62979704	-2.8602848e-10	0.056427028	0.056427028	0	140639.06	140639.12	-6.1728395e-05	644785.2	236930.67	-0.00011609907	236930.36	644785.2	-0.00031927245
0	0.6296771	0.6296773	-3.69069e-11	0.056285765	0.056285765	0	140612.34	140612.39	-4.6296295e-06	644857.1	236691.16	3.869969e-05	236690.86	644857.06	-6.530573e-05
0	0.6295581	0.62955827	-1.1994743e-10	0.056144286	0.05614429	0	140585.75	140585.8	-2.3148148e-05	644928.4	236453.19	-3.869969e-05	236452.89	644928.4	-8.828367e-05
0	0.62943906	0.62943923	-2.4912158e-10	0.056002725	0.056002725	0	140559.17	140559.22	-5.4012347e-05	644999.75	236215.22	-0.00022252322	236214.92	644999.7	-0.00014512383
0	0.6293186	0.6293188	-4.2442935e-10	0.055861462	0.055861466	0	140532.3	140532.31	-9.259259e-05	645071.56	235974.73	-0.00028057274	235974.42	645071.56	-0.00030959753
0	0.6291975	0.6291977	-1.6608105e-10	0.05571998	0.055719987	0	140505.27	140505.3	-2.9320987e-05	645143.1	235733.67	-0.00019349845	235733.4	645143.1	-2.6001355e-05
0	0.6290779	0.6290781	-2.5834831e-10	0.055578638	0.055578638	0	140478.52	140478.58	-6.0185186e-05	645214.9	235494.48	-0.00018382353	235494.19	645214.9	-0.00016326433
0	0.6289573	0.62895745	-2.6757502e-10	0.055437114	0.055437114	0	140451.6	140451.62	-6.1728395e-05	645286.56	235253.92	-0.00020317337	235253.6	645286.5	-0.0001741486
0	0.6288364	0.62883663	-1.9376123e-10	0.055295844	0.055295844	0	140424.62	140424.66	-5.2469135e-05	645358.06	235013.39	-0.00017172987	235013.08	645357.94	-0.0001499613
0	0.6287141	0.62871426	-1.845345e-10	0.05515437	0.05515437	0	140397.3	140397.33	-4.0123457e-05	645429.8	234770.12	-0.00013544892	234769.81	645429.8	-0.00014512383
0	0.6285939	0.62859416	-2.8602848e-10	0.05501281	0.055012804	0	140370.45	140370.5	-6.9444446e-05	645501.3	234530.58	-0.000251548	234530.27	645501.2	-0.00015479876
0	0.628471	0.6284712	-9.226725e-11	0.05487153	0.05487153	0	140343	140343.05	-1.697531e-05	645573.1	234286.56	-5.8049536e-05	234286.25	645573.1	-2.4791989e-05
0	0.6283496	0.6283498	-2.3066812e-10	0.054730058	0.054730058	0	140315.89	140315.94	-5.2469135e-05	645644.6	234045.06	-0.00013544892	234044.77	645644.6	-0.00018382353
0	0.6282269	0.6282271	-2.0298796e-10	0.054588675	0.054588675	0	140288.5	140288.55	-4.7839505e-05	645716.44	233801.61	-0.00014512383	233801.27	645716.44	-0.00014028637
0	0.6281051	0.6281053	-2.214414e-10	0.05444718	0.05444719	0	140261.3	140261.34	-4.9382717e-05	645788	233559.45	-0.00011609907	233559.16	645787.9	-0.0001741486
0	0.6279826	0.6279828	-1.5685434e-10	0.054305922	0.054305922	0	140233.94	140233.97	-3.2407406e-05	645860	233315.9	-7.739938e-05	233315.62	645859.94	-0.00011005224
0	0.6278607	0.62786096	-1.2917416e-10	0.05416437	0.054164376	0	140206.73	140206.78	-2.9320987e-05	645930.9	233074.55	-0.000125774	233074.27	645930.8	-6.530573e-05
0	0.62773716	0.6277374	-2.3066812e-10	0.05402288	0.05402288	0	140179.14	140179.17	-5.0925926e-05	646002.75	232829.62	-0.0001221459	232829.28	646002.75	-0.00020347572
0	0.62761366	0.6276139	-1.845345e-11	0.05388161	0.05388161	0	140151.56	140151.6	-6.1728397e-06	646074.56	232584.89	2.9024768e-05	232584.55	646074.56	-1.6931115e-05
0	0.62749	0.62749016	-1.7530778e-10	0.053740077	0.053740077	0	140123.94	140123.98	-4.3209875e-05	646146.4	232339.89	-3.869969e-05	232339.61	646146.3	-0.00020801084
0	0.62736493	0.6273651	-1.476276e-10	0.053598743	0.053598747	0	140096	140096.05	-2.7777778e-05	646218.2	232092.98	-9.674922e-05	232092.66	646218.06	-8.435323e-05
0	0.6272401	0.6272403	-4.1520262e-10	0.053457268	0.053457268	0	140068.14	140068.19	-9.41358e-05	646290	231846.45	-0.00026122291	231846.16	646290	-0.00037339155
0	0.62711704	0.6271172	-1.6608105e-10	0.05331578	0.053315774	0	140040.64	140040.69	-3.395062e-05	646361.75	231602.34	-9.674922e-05	231602.03	646361.75	-0.00012093653
0	0.6269924	0.6269926	-2.5834831e-10	0.053174455	0.053174455	0	140012.83	140012.88	-5.4012347e-05	646433.6	231356.16	-0.00020317337	231355.81	646433.5	-0.00016598539
0	0.6268676	0.6268678	-1.9376123e-10	0.05303297	0.05303296	0	139984.95	139985	-4.7839505e-05	646505.25	231109.72	-7.739938e-05	231109.42	646505.1	-0.0002128483
0	0.6267426	0.6267427	-1.2917416e-10	0.052891646	0.052891638	0	139957.03	139957.08	-3.5493827e-05	646576.8	230863.12	-6.772446e-05	230862.8	646576.75	-0.00013061146
0	0.6266169	0.62661713	-1.9376123e-10	0.05275014	0.052750144	0	139928.98	139929.02	-4.3209875e-05	646648.44	230615.64	-7.739938e-05	230615.33	646648.4	-0.000188661
0	0.6264905	0.6264906	-2.7680176e-11	0.052608833	0.052608833	0	139900.72	139900.75	-6.1728397e-06	646720.4	230366.52	2.9024768e-05	230366.17	646720.3	-5.684017e-05
0	0.6263645	0.6263647	-3.1370867e-10	0.05246734	0.05246734	0	139872.61	139872.64	-7.0987655e-05	646791.94	230118.7	-0.00019349845	230118.42	646791.9	-0.00026606038
0	0.6262391	0.62623936	-2.6757502e-10	0.052325834	0.052325834	0	139844.62	139844.66	-6.0185186e-05	646863.94	229871.28	-0.00010642415	229870.98	646863.8	-0.000251548
0	0.6261128	0.62611294	-1.7530778e-10	0.052184533	0.052184533	0	139816.39	139816.44	-4.0123457e-05	646935.56	229622.61	-0.00010642415	229622.33	646935.56	-0.00016447369
0	0.62598664	0.62598675	6.458708e-11	0.052042995	0.052042995	0	139788.22	139788.25	1.3888889e-05	647006.94	229374.5	5.8049536e-05	229374.22	647006.94	9.674923e-06
0	0.6258592	0.6258594	-1.0149398e-10	0.05190171	0.05190171	0	139759.8	139759.81	-1.5432099e-05	647078.94	229124.31	-7.1957234e-05	229124	647078.8	-2.9024768e-05
0	0.62573063	0.6257309	-2.7680176e-11	0.051760204	0.051760204	0	139731.08	139731.12	-1.5432099e-06	647151.06	228872.25	9.674923e-06	228871.97	647150.94	-4.2630127e-05
0	0.6256044	0.6256046	-2.7680176e-11	0.051618695	0.051618688	0	139702.88	139702.9	-1.2345679e-05	647222.7	228623.83	9.674923e-06	228623.53	647222.56	-6.2887e-05
0	0.6254758	0.62547606	-1.3840087e-10	0.051477417	0.051477417	0	139674.16	139674.2	-3.2407406e-05	647294.2	228372.34	-0.000125774	228372.05	647294.06	-7.739938e-05
0	0.6253487	0.62534887	-1.2917416e-10	0.05133591	0.05133591	0	139645.78	139645.81	-3.2407406e-05	647366.1	228122.38	-2.9024768e-05	228122.08	647366.06	-0.00015963623
0	0.6252204	0.62522066	-1.9376123e-10	0.051194564	0.05119457	0	139617.12	139617.17	-4.0123457e-05	647438	227870.89	-0.00015479876	227870.6	647437.94	-0.00013061146
0	0.6250916	0.62509173	-1.107207e-10	0.051053073	0.051053073	0	139588.38	139588.39	-2.1604938e-05	647509.94	227618.69	-1.9349845e-05	227618.39	647509.9	-0.00010642415
0	0.62496203	0.62496215	-2.0298796e-10	0.050911784	0.050911777	0	139559.42	139559.47	-5.0925926e-05	647581.4	227365.69	-0.0002128483	227365.39	647581.4	-9.9167955e-05
0	0.62483364	0.6248339	-5.536035e-11	0.05077028	0.05077028	0	139530.75	139530.8	-1.5432099e-05	647653.25	227114.17	-2.4187306e-05	227113.84	647653.2	-4.837461e-05
0	0.6247034	0.6247036	-1.2917416e-10	0.05062878	0.050628774	0	139501.69	139501.7	-2.4691359e-05	647725.2	226859.97	-5.3212076e-05	226859.69	647725.1	-0.00012063419
0	0.62457454	0.62457466	-1.7530778e-10	0.050487492	0.050487492	0	139472.89	139472.92	-3.858025e-05	647797.06	226607.58	-8.70743e-05	226607.25	647797	-0.00016507837
0	0.62444496	0.624445	-1.107207e-10	0.05034593	0.05034593	0	139443.95	139443.98	-2.9320987e-05	647868.9	226354.34	-0.000125774	226354.05	647868.8	-3.869969e-05
0	0.6243155	0.6243157	-1.7530778e-10	0.050204657	0.050204657	0	139415.06	139415.08	-4.4753087e-05	647940.2	226101.8	-0.0001741486	226101.5	647940.1	-0.00010642415
0	0.62418437	0.6241846	-1.845345e-11	0.05006314	0.05006314	0	139385.75	139385.8	-3.0864198e-06	648012.2	225846.23	5.8049536e-05	225845.92	648012.2	-6.863148e-05
0	0.62405354	0.6240538	-2.1221468e-10	0.049921636	0.049921636	0	139356.56	139356.6	-4.9382717e-05	648084.2	225591.11	-0.00019349845	225590.77	648084.2	-0.00010642415
0	0.62392163	0.6239218	-2.214414e-10	0.049780358	0.049780358	0	139327.08	139327.14	-4.9382717e-05	648156.2	225334.38	-0.00013544892	225334.08	648156.1	-0.00017142753
0	0.6237913	0.62379146	-1.476276e-10	0.04963884	0.04963884	0	139297.98	139298.02	-3.2407406e-05	648228.06	225080.08	-5.8049536e-05	225079.78	648228	-0.00012244824
0	0.6236607	0.6236609	-1.7530778e-10	0.049497515	0.049497515	0	139268.83	139268.86	-4.1666666e-05	648299.25	224826.02	-0.00013544892	224825.7	648299.2	-0.000125774
0	0.6235284	0.6235286	-1.107207e-10	0.049356006	0.04935601	0	139239.3	139239.33	-2.3148148e-05	648371.3	224568.81	-0.00011126161	224568.48	648371.25	-7.739938e-05
0	0.6233959	0.62339604	-2.3066812e-10	0.04921472	0.04921472	0	139209.69	139209.72	-5.2469135e-05	648443.5	224311.05	-0.00015479876	224310.77	648443.5	-0.00015872919
0	0.62326306	0.6232633	-9.226725e-11	0.049073216	0.049073216	0	139180.05	139180.06	-1.8518518e-05	648514.9	224053.73	-7.739938e-05	224053.4	648514.8	-3.386223e-05
0	0.6231312	0.6231314	-1.6608105e-10	0.048931714	0.048931714	0	139150.6	139150.62	-3.2407406e-05	648587	223796.98	-6.772446e-05	223796.69	648586.94	-0.0001499613
0	0.62299865	0.6229988	-1.5685434e-10	0.048790433	0.048790433	0	139120.97	139121.02	-3.395062e-05	648658.75	223539.67	-0.00011609907	223539.36	648658.7	-0.000112470974
0	0.62286454	0.62286466	-2.0298796e-10	0.04864886	0.048648864	0	139091.03	139091.08	-4.6296296e-05	648730.4	223280.31	-0.00012093653	223279.97	648730.3	-0.00016931114
0	0.62273204	0.6227322	-3.0448194e-10	0.048507594	0.048507594	0	139061.45	139061.48	-7.2530864e-05	648802.3	223022.88	-0.0001741486	223022.56	648802.25	-0.0002757353
0	0.622599	0.6225992	-2.3989485e-10	0.048366077	0.048366074	0	139031.73	139031.8	-5.8641974e-05	648873.7	222765.23	-0.00015963623	222764.94	648873.7	-0.00020317337
0	0.62246424	0.6224644	-1.107207e-10	0.048224572	0.048224576	0	139001.64	139001.67	-2.6234567e-05	648945.6	222504.58	4.353715e-05	222504.27	648945.6	-0.0001741486
0	0.6223294	0.6223296	-1.476276e-10	0.048083298	0.048083298	0	138971.55	138971.6	-3.2407406e-05	649017.4	222244.14	-0.00011609907	222243.8	649017.3	-7.31666e-05
0	0.6221957	0.62219584	-2.1221468e-10	0.047941785	0.047941785	0	138941.69	138941.7	-4.4753087e-05	649089.5	221984.77	-0.00013544892	221984.47	649089.44	-0.00016054325
0	0.6220597	0.6220599	-1.3840087e-10	0.047800448	0.047800448	0	138911.3	138911.34	-3.7037036e-05	649161.56	221722.33	-9.191177e-05	221722.03	649161.44	-0.00014028637
0	0.6219258	0.62192595	-2.214414e-10	0.047658946	0.047658946	0	138881.4	138881.42	-4.7839505e-05	649233.2	221463.16	-9.674922e-05	221462.86	649233.1	-0.0002128483
0	0.62179047	0.6217906	-2.6757502e-10	0.047517657	0.047517657	0	138851.17	138851.22	-6.481481e-05	649305.06	221201.94	-0.00022252322	221201.64	649304.94	-0.00017807905
0	0.62165517	0.6216553	-5.536035e-11	0.047376156	0.047376156	0	138820.97	138821	-1.697531e-05	649376.56	220940.9	-3.869969e-05	220940.61	649376.5	-5.8049536e-05
0	0.62151814	0.6215183	-1.2917416e-10	0.047234654	0.047234654	0	138790.38	138790.4	-2.3148148e-05	649448.4	220677.34	-0.000125774	220677.08	649448.3	-8.284152e-05
0	0.62138253	0.6213827	-5.536035e-11	0.047093365	0.047093365	0	138760.1	138760.12	-4.6296295e-06	649520.5	220415.47	-7.739938e-05	220415.17	649520.4	-9.674923e-06
0	0.621245	0.6212452	2.7680176e-11	0.0469518	0.0469518	0	138729.39	138729.42	1.5432099e-06	649592.25	220151.08	3.386223e-05	220150.77	649592.2	-9.674923e-06
0	0.6211095	0.62110966	-1.2917416e-10	0.046810523	0.046810526	0	138699.12	138699.14	-3.0864197e-05	649663.9	219889.69	-0.00014512383	219889.39	649663.8	-6.0468265e-05
0	0.6209722	0.62097234	-1.5685434e-10	0.04666901	0.04666901	0	138668.45	138668.5	-4.4753087e-05	649735.94	219625.44	-0.00010642415	219625.16	649735.8	-0.00014693789
0	0.62083447	0.6208346	-1.476276e-10	0.04652774	0.04652774	0	138637.69	138637.73	-2.9320987e-05	649807.2	219361.34	-9.674922e-05	219361.03	649807.1	-0.00011609907
0	0.62069726	0.62069744	-3.69069e-11	0.04638624	0.04638624	0	138607.08	138607.1	-1.2345679e-05	649879.3	219097.2	-3.869969e-05	219096.9	649879.2	-9.674923e-06
0	0.62056	0.62056017	-2.3989485e-10	0.04624473	0.04624473	0	138576.42	138576.44	-5.4012347e-05	649950.9	218833.45	-0.0001499613	218833.16	649950.8	-0.000188661
0	0.62042034	0.62042046	-1.2917416e-10	0.046103444	0.046103444	0	138545.22	138545.25	-2.6234567e-05	650022.94	218565.81	-6.2887e-05	218565.52	650022.8	-0.00010158669
0	0.62028277	0.620283	-1.6608105e-10	0.045961883	0.045961883	0	138514.52	138514.53	-3.7037036e-05	650094.44	218301.78	-0.00011609907	218301.5	650094.4	-0.00011126161
0	0.62014407	0.6201443	-2.0298796e-10	0.045820594	0.04582059	0	138483.53	138483.58	-4.7839505e-05	650166.4	218035.67	-9.191177e-05	218035.36	650166.2	-0.00020861551
0	0.62000406	0.6200042	-1.476276e-10	0.045679096	0.045679092	0	138452.27	138452.31	-3.395062e-05	650238.2	217767.78	-9.191177e-05	217767.48	650238.06	-8.70743e-05
0	0.61986566	0.61986583	-1.9376123e-10	0.0455376	0.0455376	0	138421.36	138421.4	-4.0123457e-05	650309.9	217502.38	-0.00013544892	217502.08	650309.8	-0.00013544892
0	0.61972606	0.61972624	-2.0298796e-10	0.0453963	0.0453963	0	138390.19	138390.22	-4.0123457e-05	650381.8	217234.9	-0.00014512383	217234.58	650381.75	-0.0001272857
0	0.6195865	0.6195866	-1.845345e-10	0.04525481	0.04525481	0	138359	138359.03	-3.5493827e-05	650453.3	216968.03	-0.00015479876	216967.73	650453.2	-0.00011609907