# t (s)	mx ()	my ()	mz ()	B_extx (T)	B_exty (T)	B_extz (T)	m_fullx (A/m)	m_fully (A/m)	m_fullz (A/m)	m_full.region1x (A/m)	m_full.region1y (A/m)	m_full.region1z (A/m)	m_full.region2x (A/m)	m_full.region2y (A/m)	m_full.region2z (A/m)
0	0.63361806	0.6336159	-1.2623907e-10	0.07071089	0.07071089	0	96873.164	96872.82	-1.5873016e-05	659002.9	228060.36	-1.0382059e-05	228062.48	659001.9	-0.00012977574
0	0.63350284	0.6335009	-3.58915e-10	0.0705691	0.0705691	0	96855.555	96855.24	-6.2358275e-05	659087.56	227814.55	-0.0002803156	227816.48	659086.6	-0.00025955148
0	0.6333834	0.63338137	-1.1881325e-10	0.070427895	0.070427895	0	96837.28	96836.97	-1.7006803e-05	659175.8	227558.95	-8.3056475e-05	227560.9	659174.94	-5.1910298e-05
0	0.63326466	0.63326263	-2.87132e-10	0.07028655	0.07028655	0	96819.13	96818.836	-4.846939e-05	659263.7	227304.89	-0.00018947259	227306.83	659262.9	-0.00025695597
0	0.6331449	0.63314295	-1.3861545e-10	0.07014486	0.07014486	0	96800.82	96800.516	-2.4376417e-05	659352	227048.86	-6.229236e-05	227050.78	659351.2	-0.00015702865
0	0.63302577	0.6330238	-2.5000288e-10	0.07000352	0.07000352	0	96782.61	96782.305	-3.854875e-05	659440.06	226794.1	-0.00022061876	226795.98	659439.25	-0.00010901163
0	0.6329057	0.6329037	-2.376265e-10	0.0698623	0.0698623	0	96764.25	96763.96	-3.45805e-05	659528.2	226537.77	-0.00015053987	226539.69	659527.44	-0.00014534884
0	0.6327856	0.63278365	-1.9802207e-10	0.06972053	0.06972052	0	96745.88	96745.58	-3.1462587e-05	659616.56	226281.42	-0.00016611295	226283.33	659615.75	-0.0001375623
0	0.6326651	0.63266313	-1.3861545e-10	0.06957919	0.06957919	0	96727.47	96727.164	-2.0408163e-05	659704.7	226024.5	-4.1528237e-05	226026.47	659703.9	-0.0001401578
0	0.632544	0.632542	-3.3663752e-10	0.06943796	0.069437966	0	96708.95	96708.64	-4.8752834e-05	659793.4	225766.36	-0.00025436046	225768.31	659792.44	-0.00021542775
0	0.63242364	0.6324217	-1.5841765e-10	0.06929659	0.0692966	0	96690.55	96690.24	-2.7210885e-05	659881.25	225509.89	-0.00015832641	225511.83	659880.4	-9.6034055e-05
0	0.6323023	0.6323003	-3.9604413e-11	0.06915495	0.06915495	0	96672	96671.67	-5.1020406e-06	659969.75	225251.52	-6.748339e-05	225253.42	659968.9	5.1910297e-06
0	0.63218015	0.63217807	-3.3663752e-10	0.069013596	0.069013596	0	96653.31	96653.01	-5.1020408e-05	660058.44	224991.7	-0.00019985465	224993.69	660057.56	-0.00027252908
0	0.63205904	0.63205695	-1.3861545e-10	0.06887225	0.06887226	0	96634.805	96634.49	-2.239229e-05	660146.6	224733.98	-0.00013496677	224735.94	660145.75	-5.3208056e-05
0	0.6319369	0.6319349	-1.5841765e-10	0.06873061	0.06873061	0	96616.125	96615.83	-2.2959184e-05	660235.2	224474.53	-0.00016611295	224476.47	660234.3	-5.4505814e-05
0	0.63181436	0.63181233	-3.7624195e-10	0.068589255	0.068589255	0	96597.4	96597.086	-6.122449e-05	660323.75	224214.39	-0.0002465739	224216.36	660322.9	-0.00030627075
0	0.6316919	0.63168985	-2.9703312e-10	0.06844802	0.06844802	0	96578.67	96578.37	-4.478458e-05	660412.25	223954.39	-0.00020764119	223956.34	660411.44	-0.00019725914
0	0.63156915	0.6315671	-5.9406625e-11	0.06830668	0.06830668	0	96559.914	96559.586	-1.0770975e-05	660500.7	223694.16	-6.229236e-05	223696.11	660499.8	-2.7252907e-05
0	0.6314454	0.6314434	-2.87132e-10	0.06816502	0.06816501	0	96540.984	96540.68	-4.6768706e-05	660589.6	223432	-0.00019206811	223433.97	660588.75	-0.00023359635
0	0.6313227	0.63132066	-3.2673642e-10	0.06802368	0.06802368	0	96522.234	96521.914	-4.7902493e-05	660677.75	223172.08	-0.0002803156	223174.03	660676.9	-0.0001829838
0	0.63119847	0.63119644	-2.87132e-10	0.06788234	0.06788234	0	96503.234	96502.914	-4.4217686e-05	660766.7	222909.19	-0.00016611295	222911.19	660765.75	-0.00024138289
0	0.63107497	0.6310729	-2.772309e-10	0.067740686	0.067740686	0	96484.35	96484.04	-3.6848072e-05	660855.2	222647.77	-0.00019466362	222649.77	660854.3	-0.00018168605
0	0.63095105	0.6309489	-4.1089582e-10	0.06759931	0.06759931	0	96465.39	96465.08	-6.122449e-05	660943.8	222385.56	-0.0002958887	222387.55	660942.94	-0.0002777201
0	0.6308262	0.63082415	-2.87132e-10	0.0674581	0.0674581	0	96446.31	96446.01	-4.4217686e-05	661032.94	222121.77	-0.00018687708	222123.73	661032.06	-0.00024916945
0	0.6307013	0.63069934	-9.901103e-12	0.06731675	0.06731675	0	96427.234	96426.914	-1.4172335e-06	661121.6	221858.36	-1.2977574e-05	221860.34	661120.75	-1.8168605e-05
0	0.6305765	0.63057446	-4.851541e-10	0.06717498	0.06717498	0	96408.14	96407.82	-7.142857e-05	661210.44	221594.66	-0.00032184387	221596.66	661209.5	-0.00035039452
0	0.6304513	0.63044924	-2.0792318e-10	0.06703377	0.06703377	0	96388.99	96388.69	-2.9478459e-05	661299	221330.81	-8.3056475e-05	221332.77	661298.2	-0.00015313538
0	0.6303256	0.63032365	-1.0891214e-10	0.06689241	0.06689241	0	96369.8	96369.47	-1.7573697e-05	661387.94	221065.97	-7.5269934e-05	221067.97	661387.06	-8.0460966e-05
0	0.6301999	0.6301978	-9.901103e-12	0.06675074	0.06675074	0	96350.555	96350.26	-4.5351476e-06	661476.75	220801.08	-5.1910297e-06	220803.11	661475.9	-1.9466363e-05
0	0.6300731	0.63007104	-4.9505516e-10	0.06660939	0.0666094	0	96331.18	96330.86	-7.653061e-05	661565.94	220534.44	-0.0003322259	220536.45	661565	-0.0004061981
0	0.6299462	0.62994415	-1.6831876e-10	0.06646817	0.06646817	0	96311.766	96311.45	-2.2959184e-05	661655.3	220267.25	-5.4505814e-05	220269.25	661654.5	-0.00015313538
0	0.62982047	0.62981844	-2.0792318e-10	0.06632641	0.06632641	0	96292.555	96292.24	-3.089569e-05	661743.75	220002.88	-0.00017130398	220004.88	661742.9	-0.000116798175
0	0.62969327	0.6296911	-1.3861545e-10	0.066185065	0.066185065	0	96273.11	96272.79	-1.9841269e-05	661832.75	219735.81	-6.229236e-05	219737.8	661831.94	-0.00011030938
0	0.62956643	0.62956434	-3.6634085e-10	0.06604384	0.06604384	0	96253.72	96253.38	-5.782313e-05	661921.7	219469.31	-0.00026474253	219471.31	661920.8	-0.0002439784
0	0.6294384	0.6294363	-3.5643974e-10	0.06590246	0.06590246	0	96234.13	96233.82	-5.442177e-05	662010.94	219200.72	-0.0002958887	219202.77	662010.06	-0.0001738995
0	0.62931114	0.62930906	-2.1782429e-10	0.065760836	0.065760836	0	96214.69	96214.375	-3.5714285e-05	662099.5	218934.1	-0.0001375623	218936.14	662098.7	-0.00016092193
0	0.6291819	0.6291799	-2.1782429e-10	0.06561947	0.06561947	0	96194.93	96194.62	-3.5714285e-05	662189.25	218663.44	-0.00016870847	218665.47	662188.4	-0.00014534884
0	0.6290538	0.6290517	-2.1782429e-10	0.06547826	0.06547826	0	96175.33	96175.01	-3.1179137e-05	662278.4	218394.88	-8.3056475e-05	218396.92	662277.5	-0.00022191653
0	0.6289256	0.6289236	-2.9703312e-10	0.065336496	0.065336496	0	96155.74	96155.43	-5.1020408e-05	662367.3	218126.66	-0.00020764119	218128.66	662366.4	-0.00022451204
0	0.62879616	0.62879413	-2.772309e-10	0.06519514	0.06519514	0	96135.95	96135.64	-4.0249433e-05	662456.75	217855.89	-0.00024916945	217857.9	662455.9	-0.00014145556
0	0.6286679	0.6286658	-1.3861545e-10	0.065053925	0.065053925	0	96116.33	96116.02	-2.494331e-05	662545.44	217587.56	-0.00019466362	217589.56	662544.56	-5.580357e-05
0	0.62853754	0.6285355	-4.30698e-10	0.06491253	0.064912535	0	96096.414	96096.08	-6.462585e-05	662634.94	217315.58	-0.0002803156	217317.6	662634.1	-0.00031665282
0	0.6284075	0.6284053	-9.9011035e-11	0.06477091	0.06477091	0	96076.51	96076.19	-1.21882085e-05	662724.44	217043.86	-5.1910297e-06	217045.92	662723.6	-0.000103820596
0	0.6282778	0.62827575	-3.58915e-10	0.064629555	0.064629555	0	96056.695	96056.38	-5.0453516e-05	662813.5	216773.34	-0.0003114618	216775.4	662812.7	-0.00017649501
0	0.62814754	0.62814546	-4.9505518e-11	0.0644882	0.0644882	0	96036.78	96036.46	-2.2675738e-06	662902.75	216501.69	0	216503.75	662901.94	-5.710133e-05
0	0.6280165	0.6280144	-3.2178588e-10	0.064346574	0.064346574	0	96016.74	96016.43	-4.8752834e-05	662992.4	216228.7	-0.0001738995	216230.73	662991.44	-0.00028550666
0	0.62788546	0.6278834	-1.1881325e-10	0.06420522	0.06420522	0	95996.695	95996.38	-1.7573697e-05	663081.8	215955.75	-8.3056475e-05	215957.8	663081	-7.1376664e-05
0	0.6277546	0.62775254	-2.0544791e-10	0.06406397	0.06406397	0	95976.7	95976.38	-3.287982e-05	663170.94	215683.47	-0.00014534884	215685.5	663170.06	-0.00014275333
0	0.62762296	0.62762094	-3.193106e-10	0.063922614	0.063922614	0	95956.586	95956.26	-5.1303854e-05	663260.25	215409.84	-0.00020245016	215411.88	663259.5	-0.0002751246
0	0.62749094	0.6274888	-2.9703312e-10	0.06378099	0.06378099	0	95936.39	95936.06	-4.563492e-05	663349.8	215135.42	-0.00026474253	215137.48	663348.94	-0.00015313538
0	0.6273591	0.62735695	-2.0792318e-10	0.06363964	0.06363963	0	95916.234	95915.914	-3.5147394e-05	663439.25	214861.44	-0.00014534884	214863.52	663438.3	-0.00013237126
0	0.6272259	0.62722373	-1.1881325e-10	0.06349827	0.06349827	0	95895.85	95895.53	-2.069161e-05	663529.06	214585	-4.671927e-05	214587.11	663528.2	-0.00013496677
0	0.6270938	0.6270917	-1.3861545e-10	0.06335665	0.06335666	0	95875.664	95875.34	-2.239229e-05	663618.4	214310.84	-6.748339e-05	214312.9	663617.5	-0.000120691446
0	0.6269609	0.6269588	-3.5643974e-10	0.06321527	0.06321527	0	95855.34	95855.03	-5.2154195e-05	663707.7	214035.45	-0.00022840532	214037.53	663706.8	-0.00027901787
0	0.6268272	0.62682515	-2.772309e-10	0.063074045	0.063074045	0	95834.92	95834.586	-4.5351473e-05	663797.44	213758.53	-0.00012977574	213760.61	663796.6	-0.0002777201
0	0.6266935	0.6266914	-1.8812098e-10	0.062932685	0.062932685	0	95814.47	95814.14	-2.6360543e-05	663887.2	213481.55	-0.000103820596	213483.62	663886.3	-0.00012718023
0	0.6265596	0.62655747	-1.1881325e-10	0.062790945	0.062790945	0	95794	95793.67	-1.814059e-05	663976.75	213204.61	-9.343854e-05	213206.67	663975.9	-7.5269934e-05
0	0.62642556	0.62642354	-1.4851656e-10	0.06264972	0.06264972	0	95773.516	95773.18	-2.4659865e-05	664066.2	212927.6	-0.0001401578	212929.66	664065.3	-0.00010641611
0	0.6262901	0.626288	-3.5643974e-10	0.06250835	0.06250835	0	95752.8	95752.48	-5.8390022e-05	664156.25	212647.83	-0.00030107974	212649.92	664155.4	-0.00021802326
0	0.62615603	0.6261539	-2.9703313e-11	0.062366717	0.06236671	0	95732.29	95731.96	-5.668934e-06	664245.56	212370.72	-3.114618e-05	212372.81	664244.6	-7.786545e-06
0	0.6260208	0.62601864	-4.0594525e-10	0.062225346	0.062225346	0	95711.61	95711.3	-5.9240363e-05	664335.4	212091.58	-0.00021023671	212093.7	664334.44	-0.00032184387
0	0.62588567	0.6258836	1.0891214e-10	0.062084123	0.062084123	0	95690.97	95690.64	1.8424036e-05	664424.9	211813	8.565199e-05	211815.11	664424	5.710133e-05
0	0.62574863	0.6257466	-7.1783e-11	0.061942384	0.061942384	0	95670.03	95669.7	-7.936508e-06	664515.25	211530.89	-3.114618e-05	211532.98	664514.44	-5.4505814e-05
0	0.62561375	0.6256116	-2.673298e-10	0.061801013	0.061801016	0	95649.39	95649.055	-4.0249433e-05	664604.3	211252.77	-0.00016611295	211254.86	664603.5	-0.00019985465
0	0.6254764	0.6254743	-2.2772538e-10	0.0616598	0.061659794	0	95628.39	95628.08	-3.628118e-05	664694.75	210970.12	-9.862957e-05	210972.23	664693.9	-0.00019725914
0	0.62534076	0.6253386	-2.2772538e-10	0.061518397	0.0615184	0	95607.66	95607.33	-3.7414968e-05	664783.94	210691.02	-0.000119393684	210693.11	664783.1	-0.00019336586
0	0.6252027	0.6252007	-2.772309e-10	0.0613768	0.0613768	0	95586.56	95586.23	-4.2800453e-05	664874.3	210407.47	-0.00019206811	210409.6	664873.44	-0.00020504568
0	0.6250657	0.6250636	-1.8317042e-10	0.061235435	0.061235435	0	95565.59	95565.27	-3.0045352e-05	664964.06	210125.75	-0.00014275333	210127.86	664963.25	-0.00011030938
0	0.6249282	0.62492603	-1.5841765e-10	0.061094064	0.061094068	0	95544.58	95544.266	-2.3809524e-05	665054	209843.4	-6.748339e-05	209845.52	665053.06	-0.000120691446
0	0.62479013	0.62478805	-1.7821987e-10	0.060952473	0.060952473	0	95523.48	95523.16	-2.8344672e-05	665143.7	209560.4	-6.229236e-05	209562.53	665142.9	-0.00018168605
0	0.6246522	0.6246501	-1.2871434e-10	0.0608111	0.060811106	0	95502.39	95502.055	-2.1258504e-05	665233.6	209277.4	-2.3359635e-05	209279.53	665232.75	-0.00015443315
0	0.6245139	0.6245118	-2.0544791e-10	0.06066984	0.06066984	0	95481.25	95480.93	-2.8628117e-05	665323.25	208994.11	-0.00016611295	208996.23	665322.4	-8.3056475e-05
0	0.62437403	0.62437195	-4.4554967e-11	0.060528483	0.060528483	0	95459.85	95459.516	-2.5510203e-06	665413.75	208707.78	-7.786545e-06	208709.9	665412.9	-2.0764119e-05
0	0.6242346	0.6242325	-1.5841765e-10	0.060386874	0.060386874	0	95438.54	95438.21	-2.8061224e-05	665503.9	208422.42	-0.0001401578	208424.53	665503.06	-8.824751e-05
0	0.6240962	0.62409407	-1.0891214e-10	0.06024551	0.060245506	0	95417.375	95417.055	-1.9841269e-05	665593.25	208139.31	-0.00012458472	208141.44	665592.5	-5.061254e-05
0	0.62395555	0.62395334	-4.1584636e-10	0.06010415	0.06010415	0	95395.87	95395.54	-6.2641724e-05	665683.75	207851.86	-0.0002958887	207854.02	665682.8	-0.0002751246
0	0.6238163	0.6238141	-2.673298e-10	0.059962556	0.05996255	0	95374.58	95374.24	-3.8265305e-05	665773.4	207567.22	-0.00019206811	207569.39	665772.5	-0.00016611295
0	0.6236751	0.623673	-1.9802207e-10	0.059821155	0.059821155	0	95353	95352.67	-3.4013607e-05	665863.6	207279.45	-0.00020764119	207281.58	665862.8	-8.824751e-05
0	0.6235349	0.6235328	-2.87132e-10	0.05967992	0.05967992	0	95331.555	95331.234	-4.6201814e-05	665953.5	206993.19	-0.00024138289	206995.33	665952.7	-0.00016870847
0	0.6233938	0.6233917	-1.8812098e-10	0.059538547	0.059538554	0	95309.97	95309.65	-3.1179137e-05	666043.6	206705.5	-0.00014275333	206707.62	666042.75	-0.00014405108
0	0.6232525	0.62325037	-3.3663752e-10	0.059396822	0.059396822	0	95288.375	95288.055	-4.7619047e-05	666133.6	206417.69	-0.00017649501	206419.84	666132.8	-0.00025565823
0	0.6231102	0.623108	-2.376265e-10	0.059255593	0.059255593	0	95266.625	95266.28	-3.7698414e-05	666223.94	206128.16	-0.00020764119	206130.33	666223.06	-0.00017130398
0	0.6229684	0.6229663	-2.995084e-10	0.05911421	0.05911421	0	95244.945	95244.61	-4.5068027e-05	666313.94	205839.66	-0.00019725914	205841.81	666313.1	-0.00023619186
0	0.6228256	0.62282354	-2.4752758e-10	0.058972597	0.058972597	0	95223.13	95222.805	-3.9115646e-05	666404.2	205549.62	-0.00016611295	205551.8	666403.4	-0.0002011524
0	0.6226825	0.6226804	-1.5594238e-10	0.058831234	0.058831234	0	95201.234	95200.91	-2.5510204e-05	666494.75	205258.69	-9.6034055e-05	205260.86	666493.8	-0.0001219892
0	0.6225401	0.622538	-3.5643974e-10	0.058689993	0.058689993	0	95179.46	95179.13	-5.2721087e-05	666584.6	204969.33	-0.00026474253	204971.5	666583.75	-0.00022321429
0	0.6223974	0.6223952	-2.2277484e-10	0.058548275	0.058548275	0	95157.64	95157.305	-3.1746033e-05	666674.4	204679.78	-0.00021283222	204681.95	666673.5	-0.00010901163
0	0.6222525	0.6222503	-5.6931345e-11	0.058406897	0.058406897	0	95135.5	95135.164	-8.219955e-06	666765.25	204386.19	-5.4505814e-05	204388.36	666764.3	0
0	0.6221095	0.6221073	-2.574287e-10	0.05826567	0.05826567	0	95113.63	95113.3	-4.4217686e-05	666854.8	204096.31	-0.00019985465	204098.47	666854	-0.00018947259
0	0.6219642	0.621962	-6.9307726e-11	0.058124255	0.058124255	0	95091.43	95091.09	-8.503402e-06	666945.6	203802.2	-2.5955149e-05	203804.34	666944.75	-6.748339e-05
0	0.6218204	0.6218181	-2.673298e-10	0.05798269	0.05798269	0	95069.42	95069.086	-4.1666666e-05	667035.56	203510.77	-0.00018168605	203512.92	667034.7	-0.00016611295
0	0.6216746	0.62167245	-2.376265e-10	0.05784131	0.057841305	0	95047.14	95046.81	-3.9965988e-05	667126.06	203216.19	-0.00017649501	203218.38	667125.25	-0.00020374793
0	0.6215298	0.6215277	-2.87132e-10	0.057699926	0.057699926	0	95025.01	95024.67	-4.4217686e-05	667216.2	202923.39	-0.00024916945	202925.6	667215.3	-0.00019725914
0	0.62138283	0.6213806	-3.2673642e-10	0.057558354	0.057558354	0	95002.52	95002.195	-4.903628e-05	667307	202626.77	-0.00018168605	202628.95	667306.1	-0.0002803156
0	0.62123793	0.6212358	-1.6831876e-10	0.057416975	0.057416983	0	94980.38	94980.055	-2.8628117e-05	667396.94	202334.02	-0.00013496677	202336.19	667396.06	-0.00014275333
0	0.6210919	0.62108976	-8.9109935e-11	0.057275712	0.05727571	0	94958.06	94957.72	-1.5873016e-05	667486.94	202039.52	-8.824751e-05	202041.7	667486.06	-3.8932725e-05
0	0.62094516	0.62094307	-1.3861545e-10	0.057134338	0.057134338	0	94935.62	94935.3	-2.1258504e-05	667577.25	201743.81	-5.4505814e-05	201746.03	667576.44	-0.0001375623
0	0.620798	0.6207957	-2.3020066e-10	0.056992773	0.056992773	0	94913.11	94912.77	-3.1462587e-05	667667.75	201447.17	-9.862957e-05	201449.33	667666.9	-0.00019077036
0	0.62065107	0.6206489	-4.1584636e-10	0.056851387	0.056851387	0	94890.65	94890.31	-6.2358275e-05	667757.9	201151.4	-0.00026993355	201153.61	667757	-0.00030367525
0	0.62050253	0.6205003	-1.4604128e-10	0.056710005	0.056710005	0	94867.945	94867.59	-2.154195e-05	667848.6	200852.67	-0.00018687708	200854.86	667847.8	-2.5955149e-05
0	0.62035465	0.6203524	-3.4653863e-10	0.056568444	0.056568444	0	94845.33	94844.99	-5.2154195e-05	667939.06	200555.12	-0.00026733804	200557.36	667938.25	-0.00020245016
0	0.62020665	0.62020445	-2.2772538e-10	0.056427024	0.056427024	0	94822.695	94822.36	-3.287982e-05	668029.2	200257.9	-0.000119393684	200260.11	668028.3	-0.00018817483
0	0.62005806	0.620056	-1.5841765e-10	0.05628579	0.05628579	0	94800	94799.664	-2.5510204e-05	668119.5	199959.69	-0.00012718023	199961.89	668118.6	-8.824751e-05
0	0.61990863	0.61990637	-3.7871722e-10	0.056144398	0.056144398	0	94777.14	94776.8	-5.8956917e-05	668210.1	199659.67	-0.00023359635	199661.9	668209.25	-0.0003088663
0	0.6197596	0.6197575	-4.6535187e-10	0.0560027	0.0560027	0	94754.36	94754.02	-6.802721e-05	668300.3	199361	-0.0002803156	199363.2	668299.5	-0.00036466986
0	0.6196092	0.619607	-3.9604413e-11	0.05586147	0.05586147	0	94731.36	94731.016	-5.668934e-06	668391.1	199059.47	1.557309e-05	199061.69	668390.3	-4.671927e-05
0	0.6194596	0.6194574	-5.6931345e-11	0.05572008	0.05572008	0	94708.49	94708.164	-3.968254e-06	668481.1	198760.08	-2.5955149e-05	198762.31	668480.3	-2.0764119e-05
0	0.619309	0.6193068	-1.1138742e-10	0.05557853	0.05557853	0	94685.47	94685.13	-1.5589569e-05	668571.8	198458.6	-0.00010901163	198460.86	668570.94	-4.671927e-05
0	0.61915827	0.61915606	-1.8812098e-10	0.055437103	0.055437107	0	94662.42	94662.086	-2.6927437e-05	668662.1	198157.22	-9.084302e-05	198159.48	668661.3	-0.00015053987
0	0.6190072	0.619005	-4.9505518e-11	0.05529587	0.05529587	0	94639.33	94638.99	-7.936508e-06	668752.56	197855.23	-5.4505814e-05	197857.47	668751.75	-1.4275332e-05
0	0.6188559	0.6188536	-1.9802207e-10	0.055154484	0.055154484	0	94616.19	94615.836	-3.5147394e-05	668843.06	197552.9	-0.00018687708	197555.14	668842.25	-0.000103820596
0	0.6187039	0.61870176	-1.5841765e-10	0.055012777	0.05501278	0	94592.97	94592.625	-2.4092971e-05	668933.5	197249.75	-0.0001401578	197251.97	668932.6	-9.862957e-05
0	0.61855155	0.6185492	2.9703313e-11	0.054871537	0.054871537	0	94569.65	94569.31	3.1179138e-06	669024.1	196945.73	-5.1910297e-06	196947.97	669023.25	4.8017027e-05
0	0.6183994	0.61839724	-2.772309e-10	0.05473016	0.054730155	0	94546.4	94546.055	-4.30839e-05	669114.4	196642.55	-0.00014534884	196644.81	669113.5	-0.00025695597
0	0.61824656	0.61824435	-1.6831876e-10	0.05458858	0.05458858	0	94523.03	94522.695	-2.3526078e-05	669204.8	196338.14	-0.00011420266	196340.38	669203.94	-0.000103820596
0	0.6180929	0.6180906	-6.9307726e-11	0.054447185	0.05444718	0	94499.53	94499.19	-8.503402e-06	669295.56	196032.19	0	196034.44	669294.75	-8.0460966e-05
0	0.61793953	0.61793727	-3.9604414e-10	0.054305956	0.054305956	0	94476.08	94475.74	-6.2358275e-05	669386.06	195726.97	-0.00028550666	195729.22	669385.2	-0.00028161338
0	0.61778563	0.6177834	-1.9802207e-10	0.054164257	0.054164257	0	94452.555	94452.23	-3.3163265e-05	669476.56	195421.06	-0.00026474253	195423.31	669475.7	-5.1910298e-05
0	0.61763144	0.6176293	-3.391128e-10	0.054022856	0.054022856	0	94428.98	94428.65	-5.15873e-05	669566.9	195114.89	-0.00025955148	195117.16	669566	-0.00024008514
0	0.6174762	0.6174741	-3.0693423e-10	0.053881623	0.053881623	0	94405.266	94404.92	-4.5351473e-05	669657.75	194806.75	-0.00021023671	194809.03	669656.9	-0.00021542775
0	0.6173216	0.6173194	-1.4851656e-10	0.05374019	0.053740185	0	94381.61	94381.26	-2.0408163e-05	669748.2	194499.75	-7.5269934e-05	194502.02	669747.3	-0.000116798175
0	0.61716586	0.61716366	-1.6831876e-10	0.053598657	0.053598657	0	94357.805	94357.46	-2.1825397e-05	669838.7	194191.19	-0.0001401578	194193.44	669837.9	-6.878115e-05
0	0.61701024	0.617008	-2.0792318e-10	0.05345726	0.05345726	0	94334.01	94333.664	-2.7210885e-05	669929.1	193882.83	-0.00014534884	193885.1	669928.4	-0.00011420266
0	0.6168546	0.61685234	-3.2673642e-10	0.053315867	0.053315867	0	94310.21	94309.87	-5.498866e-05	670019.5	193574.66	-0.00032443937	193576.89	670018.7	-0.00017909054
0	0.6166979	0.6166956	-3.5643974e-10	0.05317434	0.05317434	0	94286.24	94285.91	-5.0736962e-05	670110.2	193264.52	-0.00026474253	193266.8	670109.3	-0.00024916945
0	0.6165413	0.6165391	-2.574287e-10	0.053032942	0.053032942	0	94262.31	94261.97	-4.1950112e-05	670200.56	192954.98	-0.00021802326	192957.28	670199.75	-0.00019206811
0	0.6163832	0.616381	-2.574287e-10	0.052891664	0.052891664	0	94238.14	94237.8	-3.798186e-05	670291.6	192642.55	-0.0001375623	192644.83	670290.8	-0.00020764119
0	0.6162263	0.61622405	-1.0891214e-10	0.05275026	0.05275026	0	94214.16	94213.81	-1.7573697e-05	670381.8	192332.78	-1.557309e-05	192335.08	670380.94	-0.0001401578
0	0.6160682	0.616066	-2.1782429e-10	0.052608743	0.052608743	0	94189.97	94189.64	-3.45805e-05	670472.5	192020.69	-0.00012977574	192022.94	670471.6	-0.0001829838
0	0.6159099	0.61590767	-2.2772538e-10	0.052467342	0.052467342	0	94165.77	94165.43	-3.628118e-05	670563.06	191708.53	-0.000103820596	191710.83	670562.2	-0.00020245016
0	0.61575145	0.61574924	-1.3861545e-10	0.052325934	0.052325934	0	94141.555	94141.21	-2.1258504e-05	670653.3	191396.4	-0.00024916945	191398.7	670652.5	2.3359635e-05
0	0.6155919	0.6155897	-3.4653863e-10	0.05218442	0.05218442	0	94117.164	94116.82	-5.2154195e-05	670744.1	191082.14	-0.00029069767	191084.45	670743.4	-0.00021542775
0	0.61543304	0.61543083	-3.4653863e-10	0.052042983	0.052042983	0	94092.87	94092.52	-5.4705215e-05	670834.5	190769.39	-0.00029069767	190771.69	670833.7	-0.00021802326
0	0.6152734	0.61527115	-1.3861545e-10	0.051901743	0.051901743	0	94068.46	94068.125	-1.9557823e-05	670925	190455.5	-7.00789e-05	190457.8	670924.06	-0.000119393684
0	0.61511296	0.6151107	-1.9802207e-10	0.051760327	0.051760327	0	94043.94	94043.59	-3.628118e-05	671015.6	190140.19	-8.824751e-05	190142.48	671014.8	-0.00021283222
0	0.6149523	0.61495006	-2.450523e-10	0.05161866	0.05161866	0	94019.38	94019.02	-3.7698414e-05	671106.4	189824.53	-0.00017130398	189826.83	671105.5	-0.00016611295
0	0.61479145	0.6147892	-4.5545076e-10	0.05147742	0.05147742	0	93994.77	93994.43	-6.660998e-05	671196.9	189508.81	-0.00028810216	189511.11	671196	-0.0003659676
0	0.61463004	0.6146278	-3.9356887e-10	0.05133601	0.05133601	0	93970.11	93969.766	-6.0090704e-05	671287.44	189192.3	-0.0002958887	189194.62	671286.6	-0.00022840532
0	0.61446804	0.6144658	-3.0693423e-10	0.051194474	0.051194474	0	93945.33	93944.99	-4.7902493e-05	671378	188874.84	-0.00024916945	188877.19	671377.2	-0.00017909054
0	0.61430603	0.6143038	-3.0693423e-10	0.051053066	0.051053066	0	93920.56	93920.22	-4.8752834e-05	671468.7	188557.39	-0.00016092193	188559.72	671467.9	-0.0002803156
0	0.6141437	0.61414146	-3.6634085e-10	0.050911814	0.050911818	0	93895.76	93895.41	-5.782313e-05	671559.1	188239.81	-0.0002751246	188242.11	671558.25	-0.0002530627
0	0.6139811	0.61397886	-2.2277484e-10	0.05077015	0.05077015	0	93870.89	93870.55	-3.3730157e-05	671649.56	187921.67	-0.00017649501	187924.02	671648.75	-0.00014534884
0	0.61381793	0.61381567	-2.0297262e-10	0.050628744	0.050628744	0	93845.94	93845.6	-3.1746033e-05	671740.06	187602.69	-0.00011420266	187605.05	671739.25	-0.00015053987
0	0.6136538	0.6136515	-9.406049e-11	0.050487492	0.050487492	0	93820.836	93820.51	-1.814059e-05	671830.7	187282.28	-0.00010901163	187284.61	671829.9	-4.0230483e-05
0	0.6134905	0.61348826	-1.2376379e-10	0.050346054	0.05034605	0	93795.88	93795.54	-1.9841269e-05	671921	186963.44	-0.00013237126	186965.77	671920.1	-4.671927e-05
0	0.61332595	0.6133237	-1.6336821e-10	0.05020456	0.05020456	0	93770.72	93770.37	-3.1746033e-05	672011.6	186642.27	-0.00015832641	186644.58	672010.9	-5.9696842e-05
0	0.6131611	0.61315876	-3.0693423e-10	0.050063133	0.050063133	0	93745.516	93745.164	-4.393424e-05	672102.25	186320.86	-0.00022321429	186323.2	672101.44	-0.00019077036
0	0.6129959	0.6129937	-3.7624195e-10	0.049921725	0.049921725	0	93720.26	93719.914	-5.7539684e-05	672192.75	185999.22	-0.00022321429	186001.56	672191.94	-0.00029848423
0	0.6128305	0.6128282	-3.9480652e-10	0.04978024	0.04978024	0	93694.97	93694.62	-5.8956917e-05	672283.06	185677.2	-0.00027252908	185679.55	672282.3	-0.00028550666
0	0.6126648	0.6126625	-3.1188477e-10	0.049638823	0.049638823	0	93669.64	93669.3	-4.7619047e-05	672373.56	185354.77	-0.0002803156	185357.12	672372.75	-0.00016351744
0	0.6124984	0.6124961	-1.06436866e-10	0.049497537	0.049497537	0	93644.195	93643.836	-1.4455783e-05	672464.2	185031.14	-5.1910298e-05	185033.48	672463.44	-5.4505814e-05
0	0.6123318	0.61232954	-1.2623907e-10	0.049356114	0.049356114	0	93618.73	93618.38	-2.069161e-05	672554.6	184707.53	-8.824751e-05	184709.89	672553.9	-0.0001219892
0	0.6121646	0.6121623	-3.910936e-10	0.04921463	0.04921463	0	93593.164	93592.82	-5.8956917e-05	672645.06	184383	-0.00028550666	184385.34	672644.25	-0.00025955148
0	0.6119959	0.61199373	-4.2574747e-10	0.04907322	0.04907322	0	93567.38	93567.04	-6.292517e-05	672736.06	184055.88	-0.00029069767	184058.22	672735.25	-0.00030107974
0	0.61182916	0.6118269	-1.6336821e-10	0.048931796	0.048931796	0	93541.88	93541.52	-2.7210885e-05	672826	183732.45	-0.0001219892	183734.81	672825.1	-0.000116798175
0	0.61166114	0.6116589	-1.7326932e-10	0.04879033	0.04879033	0	93516.2	93515.85	-2.8628117e-05	672916.4	183406.98	-5.1910298e-05	183409.34	672915.5	-0.00018428155
0	0.6114923	0.61148995	-2.2277484e-10	0.048648857	0.048648857	0	93490.375	93490.02	-3.3163265e-05	673007	183079.83	-0.00023359635	183082.16	673006.1	-7.786545e-05
0	0.61132324	0.6113209	-2.1782429e-10	0.048507616	0.048507616	0	93464.52	93464.18	-3.4863944e-05	673097.25	182752.92	-0.00014534884	182755.3	673096.44	-0.00017649501
0	0.6111542	0.61115193	-4.5545076e-10	0.04836618	0.04836618	0	93438.695	93438.34	-6.7460314e-05	673187.44	182426.06	-0.0002803156	182428.42	673186.6	-0.00034001246
0	0.6109838	0.6109815	-1.2376379e-10	0.048224546	0.048224542	0	93412.63	93412.28	-1.643991e-05	673278.2	182096.72	-0.00013496677	182099.08	673277.4	-5.4505814e-05
0	0.6108141	0.6108118	-2.673298e-10	0.048083298	0.048083298	0	93386.695	93386.336	-4.2517007e-05	673368.2	181769.14	-0.00022321429	181771.55	673367.4	-0.0001829838
0	0.61064243	0.61064017	-3.9604414e-10	0.047941867	0.047941867	0	93360.45	93360.1	-5.8956917e-05	673459.1	181437.95	-0.000347799	181440.34	673458.3	-0.00021283222
0	0.6104716	0.6104693	-3.168353e-10	0.047800366	0.047800362	0	93334.33	93333.98	-4.7619047e-05	673549.4	181108.5	-0.00024916945	181110.88	673548.5	-0.00018947259
0	0.6103003	0.610298	-4.405991e-10	0.047658946	0.047658943	0	93308.13	93307.79	-7.029479e-05	673639.7	180778.36	-0.000347799	180780.73	673638.8	-0.0003296304
0	0.6101287	0.6101264	-1.4851656e-10	0.047517683	0.047517683	0	93281.88	93281.54	-2.2675737e-05	673729.8	180447.88	-5.710133e-05	180450.25	673729	-0.00014664659
0	0.6099562	0.6099539	-1.6831876e-10	0.047376268	0.047376256	0	93255.52	93255.17	-3.0045352e-05	673820.25	180116.03	-0.00012977574	180118.44	673819.5	-9.6034055e-05
0	0.60978335	0.609781	-7.1783e-11	0.047234625	0.047234625	0	93229.1	93228.75	-1.10544215e-05	673910.6	179783.77	-6.229236e-05	179786.14	673909.75	-2.2061877e-05
0	0.6096086	0.6096063	-3.1188477e-10	0.04709337	0.04709337	0	93202.38	93202.04	-4.8752834e-05	674001.6	179448.1	-0.00023878737	179450.47	674000.8	-0.00021283222
0	0.60943645	0.6094341	-8.9109935e-11	0.046951894	0.046951897	0	93176.06	93175.695	-1.1337868e-05	674091.3	179117.25	-6.488787e-05	179119.66	674090.5	-5.710133e-05
0	0.60926265	0.6092604	-2.87132e-10	0.046810456	0.046810456	0	93149.484	93149.13	-4.8185942e-05	674181.5	178783.72	-0.00023619186	178786.12	674180.75	-0.00020245016
0	0.60908806	0.60908574	-5.19808e-10	0.04666901	0.04666901	0	93122.79	93122.44	-8.049887e-05	674271.75	178449.05	-0.00047757474	178451.45	674270.94	-0.0002777201
0	0.60891265	0.6089103	-2.87132e-10	0.04652777	0.046527773	0	93095.98	93095.625	-4.1666666e-05	674362.2	178113.02	-0.00021542775	178115.44	674361.44	-0.00019466362
0	0.6087366	0.60873425	-3.168353e-10	0.04638615	0.04638614	0	93069.07	93068.71	-4.988662e-05	674452.8	177775.95	-0.00024138289	177778.34	674452.06	-0.00019725914
0	0.60856295	0.60856056	1.2376379e-10	0.0462447	0.046244703	0	93042.51	93042.16	1.3605442e-05	674542.25	177443.4	9.862957e-05	177445.8	674541.44	6.3590116e-05
0	0.6083866	0.6083844	-1.8812098e-10	0.046103448	0.046103448	0	93015.55	93015.2	-3.4013607e-05	674632.56	177106.27	-0.00018947259	177108.67	674631.75	-7.786545e-05
0	0.6082096	0.6082073	-3.0693423e-10	0.045961965	0.045961965	0	92988.484	92988.13	-4.931973e-05	674722.9	176768.17	-0.00019206811	176770.6	674722.06	-0.00025436046
0	0.60803294	0.6080306	-3.2673642e-10	0.04582053	0.045820534	0	92961.48	92961.125	-4.988662e-05	674813	176430.67	-0.0002439784	176433.08	674812.2	-0.00019725914
0	0.6078541	0.60785186	-2.2772538e-10	0.0456791	0.0456791	0	92934.14	92933.8	-3.9682538e-05	674903.7	176089.73	-0.0002465739	176092.12	674902.94	-9.862957e-05
0	0.6076783	0.607676	-2.1782429e-10	0.045537654	0.045537654	0	92907.26	92906.914	-3.5714285e-05	674993	175754.19	-0.00021283222	175756.61	674992.25	-9.214078e-05
0	0.60749996	0.6074977	-5.247585e-10	0.045396224	0.045396224	0	92879.984	92879.64	-7.823129e-05	675083.25	175414.3	-0.00038932724	175416.7	675082.44	-0.00035299003
0	0.60732114	0.6073188	-1.1881325e-10	0.045254778	0.04525478	0	92852.664	92852.29	-1.5306123e-05	675173.44	175073.69	-0.00012977574	175076.11	675172.6	-4.671927e-05
0	0.60714227	0.60713995	-1.5346711e-10	0.045113485	0.045113485	0	92825.32	92824.95	-2.1825397e-05	675263.3	174733.36	-7.267442e-05	174735.78	675262.6	-0.00012458472