//mumax 3.10 [windows_amd64 go1.11.6(gc) CUDA-11.0]
//GPU info: NVIDIA GeForce RTX 3090(24575MB), CUDA Driver 12.0, cc=8.6, using cc=80 PTX
//(c) Arne Vansteenkiste, Dynamat LAB, Ghent University, Belgium
//This is free software without any warranty. See license.txt
//********************************************************************//
//  If you use mumax in any work or publication,                      //
//  we kindly ask you to cite the references in references.bib        //
//********************************************************************//
//output directory: r1;p0.1;a5.12e-07;l1.8000000000000002e-07;s1.out/
randSeed(1)
ThermSeed(1)
resolution := 2e-09
zResolution := 5e-09
a := 5.12e-07
gridSize := 512
gridDepth := 5
SetCellsize(resolution, resolution, zResolution)
SetGridsize(gridSize, gridSize, gridDepth)
SetPBC(16, 16, 0)
//resizing...
Msat = 700e3
Aex = 13e-12
alpha = 0.2
Bmax := 0.1
Bstep := Bmax / 500.0
TableAdd(B_ext)
TableAdd(m_full)
islandWidth := 8e-08
islandLength := 1.8000000000000002e-07
ellipseConstant := 9.000000000000001e-09
hIsland := rect(islandLength-2*ellipseConstant, islandWidth)
hIsland = hIsland.add(ellipse(ellipseConstant*2, islandWidth).transl(islandLength/2-ellipseConstant, 0, 0))
hIsland = hIsland.add(ellipse(ellipseConstant*2, islandWidth).transl(-islandLength/2+ellipseConstant, 0, 0))
hIsland = hIsland.add(rect(6.000000000000001e-09, 1.3046080142923966e-10).transl(4.788220386221763e-08, -4e-08, 0))
hIsland = hIsland.sub(rect(6.000000000000001e-09, -7.987465225313122e-10).transl(6.303031353320372e-08, -4e-08, 0))
hIsland = hIsland.sub(rect(6.000000000000001e-09, -2.6473005301571203e-09).transl(-6.676784182213177e-08, -4e-08, 0))
hIsland = hIsland.add(rect(6.000000000000001e-09, 9.562601525297867e-10).transl(6.212688806367091e-09, -4e-08, 0))
hIsland = hIsland.add(rect(6.000000000000001e-09, 2.186684912105247e-09).transl(8.803985063108941e-08, -2.4920814084933213e-08, 0))
hIsland = hIsland.sub(rect(6.000000000000001e-09, -3.1452174747520423e-09).transl(-5.994222456524499e-08, -4e-08, 0))
hIsland = hIsland.add(rect(6.000000000000001e-09, 3.486447406384454e-09).transl(3.831921664232896e-09, -4e-08, 0))
hIsland = hIsland.add(rect(6.000000000000001e-09, 1.6723430854703375e-10).transl(3.740147206699681e-08, -4e-08, 0))
hIsland = hIsland.add(rect(6.000000000000001e-09, 1.3355700346807776e-09).transl(-6.587667544286613e-08, -4e-08, 0))
hIsland = hIsland.add(rect(6.000000000000001e-09, 1.048054200477917e-09).transl(9.376363262154577e-09, -4e-08, 0))
hIsland = hIsland.sub(rect(6.000000000000001e-09, -1.6330578804982403e-09).transl(-5.556191994136126e-08, -4e-08, 0))
hIsland = hIsland.add(rect(6.000000000000001e-09, 2.5616019487701294e-09).transl(-1.8288161199611824e-08, -4e-08, 0))
hIsland = hIsland.sub(rect(6.000000000000001e-09, -1.9512611583618254e-09).transl(2.845210692390612e-08, -4e-08, 0))
hIsland = hIsland.add(rect(6.000000000000001e-09, 2.9484398148627235e-09).transl(5.372138406640471e-08, -4e-08, 0))
hIsland = hIsland.add(rect(6.000000000000001e-09, 2.459648728141947e-09).transl(5.497899861154871e-08, -4e-08, 0))
hIsland = hIsland.sub(rect(6.000000000000001e-09, -6.845870991519695e-09).transl(4.9365334310184855e-08, -4e-08, 0))
hIsland = hIsland.add(rect(6.000000000000001e-09, 2.388871005781288e-10).transl(2.9359490978359313e-08, -4e-08, 0))
hIsland = hIsland.add(rect(6.000000000000001e-09, 2.9456319870405553e-09).transl(4.48471435874287e-08, -4e-08, 0))
hIsland = hIsland.sub(rect(6.000000000000001e-09, -3.034634251212438e-09).transl(-7.86500707514047e-08, -4e-08, 0))
hIsland = hIsland.add(rect(6.000000000000001e-09, 6.945664088756418e-10).transl(6.199574968566161e-08, -4e-08, 0))
hIsland = hIsland.add(rect(6.000000000000001e-09, 2.9934578456063332e-09).transl(-2.230237535119064e-08, -4e-08, 0))
hIsland = hIsland.sub(rect(6.000000000000001e-09, -5.827181789626282e-09).transl(3.293039676952117e-08, -4e-08, 0))
hIsland = hIsland.add(rect(6.000000000000001e-09, 1.157333468688722e-09).transl(-6.842334081141509e-08, -4e-08, 0))
hIsland = hIsland.sub(rect(6.000000000000001e-09, -2.0735294116723744e-10).transl(7.153539397835898e-09, -4e-08, 0))
hIsland = hIsland.sub(rect(6.000000000000001e-09, -3.508922839222276e-09).transl(-6.283589637175219e-08, -4e-08, 0))
hIsland = hIsland.add(rect(6.000000000000001e-09, 1.3676942971930138e-10).transl(-7.370673083750817e-08, -4e-08, 0))
hIsland = hIsland.sub(rect(6.000000000000001e-09, -1.4089714629020336e-09).transl(-3.851196847689402e-08, -4e-08, 0))
hIsland = hIsland.add(rect(6.000000000000001e-09, 1.6956505101565779e-09).transl(1.7334443118776367e-08, -4e-08, 0))
hIsland = hIsland.sub(rect(6.000000000000001e-09, -8.786239950296694e-10).transl(3.4678920656196414e-08, -4e-08, 0))
hIsland = hIsland.add(rect(6.000000000000001e-09, 2.475012717187542e-09).transl(-5.575415311422851e-08, -4e-08, 0))
hIsland = hIsland.add(rect(6.000000000000001e-09, 9.548198400080585e-10).transl(-8.727497497206391e-08, -2.8674310470996428e-08, 0))
hIsland = hIsland.sub(rect(6.000000000000001e-09, -1.462068363670057e-09).transl(2.5895160132354502e-08, -4e-08, 0))
hIsland = hIsland.add(rect(6.000000000000001e-09, 5.15465680006873e-09).transl(3.614135792910404e-08, -4e-08, 0))
hIsland = hIsland.sub(rect(6.000000000000001e-09, -5.662056435974583e-10).transl(-3.9362618586107774e-08, -4e-08, 0))
hIsland = hIsland.add(rect(6.000000000000001e-09, 5.114235818901433e-10).transl(-6.771960048225713e-08, -4e-08, 0))
hIsland = hIsland.add(rect(6.000000000000001e-09, 2.104078838522711e-09).transl(-2.320661230324686e-08, -4e-08, 0))
hIsland = hIsland.sub(rect(6.000000000000001e-09, -6.417971766715251e-09).transl(-3.925723247383989e-08, -4e-08, 0))
hIsland = hIsland.sub(rect(6.000000000000001e-09, -4.504329365659689e-10).transl(2.3927822079030454e-08, -4e-08, 0))
hIsland = hIsland.sub(rect(6.000000000000001e-09, -1.0375637546338094e-09).transl(3.777891639498234e-08, -4e-08, 0))
hIsland = hIsland.add(rect(6.000000000000001e-09, 9.653025711468992e-10).transl(8.350821716609318e-08, -3.841523531299015e-08, 0))
hIsland = hIsland.sub(rect(6.000000000000001e-09, -2.5638928515723914e-09).transl(-5.1877905475724715e-08, -4e-08, 0))
hIsland = hIsland.sub(rect(6.000000000000001e-09, -1.7176294505248796e-09).transl(-7.507064937820222e-08, -4e-08, 0))
hIsland = hIsland.sub(rect(6.000000000000001e-09, -2.8316788191851886e-09).transl(-3.876332512627426e-08, -4e-08, 0))
hIsland = hIsland.sub(rect(6.000000000000001e-09, -4.769016782513164e-10).transl(8.608814249496874e-08, -3.2994067839692635e-08, 0))
hIsland = hIsland.sub(rect(6.000000000000001e-09, -1.5804567865315935e-09).transl(4.078726788335488e-09, -4e-08, 0))
hIsland = hIsland.sub(rect(6.000000000000001e-09, -3.59789194889535e-10).transl(2.9097834652278255e-08, -4e-08, 0))
hIsland = hIsland.add(rect(6.000000000000001e-09, 3.117246179526009e-09).transl(5.393126283139516e-08, -4e-08, 0))
hIsland = hIsland.add(rect(6.000000000000001e-09, 1.1524557069497328e-10).transl(8.980585037476895e-08, -8.263558767255596e-09, 0))
hIsland = hIsland.sub(rect(6.000000000000001e-09, -9.017254506327931e-10).transl(-2.5469922620823915e-08, -4e-08, 0))
hIsland = hIsland.sub(rect(6.000000000000001e-09, -2.1699738827129274e-09).transl(-6.758409558779657e-08, -4e-08, 0))
hIsland = hIsland.sub(rect(6.000000000000001e-09, -5.094698782880252e-10).transl(-2.9277267810242383e-08, -4e-08, 0))
hIsland = hIsland.sub(rect(6.000000000000001e-09, -9.750846277741257e-10).transl(-2.7860013228390543e-08, -4e-08, 0))
hIsland = hIsland.add(rect(6.000000000000001e-09, 3.0016490438085994e-09).transl(-7.64035876095589e-08, -4e-08, 0))
hIsland = hIsland.sub(rect(6.000000000000001e-09, -2.4098194522848065e-09).transl(-6.030841853536506e-08, -4e-08, 0))
hIsland = hIsland.add(rect(6.000000000000001e-09, 1.8315916822729835e-09).transl(-7.077932906694928e-08, -4e-08, 0))
hIsland = hIsland.add(rect(6.000000000000001e-09, 2.1740566346071176e-09).transl(-2.2418179441645808e-08, -4e-08, 0))
hIsland = hIsland.sub(rect(6.000000000000001e-09, -3.6176089401940903e-10).transl(7.817782889550548e-08, -4e-08, 0))
hIsland = hIsland.add(rect(6.000000000000001e-09, 2.715190075657384e-09).transl(5.4571842341197924e-08, -4e-08, 0))
hIsland = hIsland.add(rect(6.000000000000001e-09, 2.0289954295058243e-11).transl(-1.0501603163635502e-08, -4e-08, 0))
hIsland = hIsland.add(rect(6.000000000000001e-09, 1.3163931416546187e-10).transl(7.196364297655878e-09, -4e-08, 0))
hIsland = hIsland.sub(rect(6.000000000000001e-09, -1.4762333631625529e-09).transl(-4.3856853523709264e-09, -4e-08, 0))
hIsland = hIsland.sub(rect(6.000000000000001e-09, -1.2240817583485008e-09).transl(-8.646813700225971e-08, -3.177062164164652e-08, 0))
hIsland = hIsland.sub(rect(6.000000000000001e-09, -9.994756349243535e-10).transl(-4.666891910962159e-08, -4e-08, 0))
hIsland = hIsland.add(rect(6.000000000000001e-09, 1.13777572451063e-09).transl(-1.93551941511166e-08, -4e-08, 0))
hIsland = hIsland.add(rect(6.000000000000001e-09, 3.1814716867078886e-09).transl(1.5816116918180338e-08, -4e-08, 0))
hIsland = hIsland.add(rect(6.000000000000001e-09, 5.792034530355612e-10).transl(-3.2529414620334445e-08, -4e-08, 0))
hIsland = hIsland.add(rect(6.000000000000001e-09, 2.1016002086920134e-09).transl(4.504696911338117e-08, -4e-08, 0))
hIsland = hIsland.sub(rect(6.000000000000001e-09, -1.1733488602063664e-09).transl(-1.7086263393303536e-08, -4e-08, 0))
hIsland = hIsland.add(rect(6.000000000000001e-09, 1.6243283682061971e-09).transl(-3.9461767541799465e-08, -4e-08, 0))
hIsland = hIsland.sub(rect(6.000000000000001e-09, -2.449341502663614e-09).transl(-1.3343243126813125e-08, -4e-08, 0))
hIsland = hIsland.add(rect(6.000000000000001e-09, 1.0712386293324185e-09).transl(-6.090556425663065e-08, -4e-08, 0))
hIsland = hIsland.sub(rect(6.000000000000001e-09, -2.653976306644451e-09).transl(3.205517367598806e-08, -4e-08, 0))
hIsland = hIsland.sub(rect(6.000000000000001e-09, -2.013683443764844e-09).transl(4.1126934602084036e-08, -4e-08, 0))
hIsland = hIsland.sub(rect(6.000000000000001e-09, -2.7616085430526154e-09).transl(7.484891139723487e-08, -4e-08, 0))
hIsland = hIsland.sub(rect(6.000000000000001e-09, -2.491385645204497e-09).transl(-5.4701121840969704e-08, -4e-08, 0))
hIsland = hIsland.add(rect(6.000000000000001e-09, 2.3858973510122695e-09).transl(-2.658919511366738e-08, -4e-08, 0))
hIsland = hIsland.sub(rect(6.000000000000001e-09, -4.287666308598257e-10).transl(5.3762852014471315e-08, -4e-08, 0))
hIsland = hIsland.sub(rect(6.000000000000001e-09, -2.5304651861815177e-09).transl(-3.373834966385098e-08, -4e-08, 0))
hIsland = hIsland.sub(rect(6.000000000000001e-09, -4.34685308821697e-09).transl(7.634682511434515e-08, -4e-08, 0))
hIsland = hIsland.add(rect(6.000000000000001e-09, 2.46270808520306e-09).transl(-1.846963792026461e-08, -4e-08, 0))
hIsland = hIsland.add(rect(6.000000000000001e-09, 4.0076552172446975e-10).transl(7.340368505616181e-08, -4e-08, 0))
hIsland = hIsland.sub(rect(6.000000000000001e-09, -1.1187565042089757e-09).transl(5.997418480403391e-08, -4e-08, 0))
hIsland = hIsland.sub(rect(6.000000000000001e-09, -2.1876580090057052e-09).transl(-5.778566202068672e-09, -4e-08, 0))
hIsland = hIsland.sub(rect(6.000000000000001e-09, -2.7496897877388525e-09).transl(6.911518068670511e-09, -4e-08, 0))
hIsland = hIsland.add(rect(6.000000000000001e-09, 1.590131399133038e-10).transl(1.7321152394028327e-08, -4e-08, 0))
hIsland = hIsland.add(rect(6.000000000000001e-09, 2.0449214006968617e-09).transl(5.692610354254339e-08, -4e-08, 0))
hIsland = hIsland.sub(rect(6.000000000000001e-09, -2.546086482512302e-10).transl(8.076912140733443e-08, -4e-08, 0))
hIsland = hIsland.add(rect(6.000000000000001e-09, 2.8534650015116495e-09).transl(7.729049026746754e-08, -4e-08, 0))
hIsland = hIsland.add(rect(6.000000000000001e-09, 2.275627662746629e-12).transl(9.102171159949066e-09, -4e-08, 0))
hIsland = hIsland.add(rect(6.000000000000001e-09, 1.07727286785181e-09).transl(2.1946644558018275e-08, -4e-08, 0))
hIsland = hIsland.sub(rect(6.000000000000001e-09, -1.6703007777394914e-09).transl(4.985884840677646e-08, -4e-08, 0))
hIsland = hIsland.add(rect(6.000000000000001e-09, 1.7993744141848312e-10).transl(6.169729031325191e-08, -4e-08, 0))
hIsland = hIsland.add(rect(6.000000000000001e-09, 1.9051676303519765e-09).transl(1.0796034422676393e-08, -4e-08, 0))
hIsland = hIsland.sub(rect(6.000000000000001e-09, -1.9073582767894446e-09).transl(3.374975895097976e-08, -4e-08, 0))
hIsland = hIsland.add(rect(6.000000000000001e-09, 6.907266040912919e-10).transl(-4.442383995526692e-08, -4e-08, 0))
hIsland = hIsland.sub(rect(6.000000000000001e-09, -2.2803742196352607e-09).transl(-5.98215485170094e-08, -4e-08, 0))
hIsland = hIsland.add(rect(6.000000000000001e-09, 1.0745880817406613e-10).transl(-6.419137841537788e-09, -4e-08, 0))
hIsland = hIsland.add(rect(6.000000000000001e-09, 2.984393210488433e-09).transl(1.6867488498831875e-08, -4e-08, 0))
hIsland = hIsland.add(rect(6.000000000000001e-09, 1.0523496583224495e-09).transl(8.04808793142726e-08, -4e-08, 0))
hIsland = hIsland.add(rect(6.000000000000001e-09, 1.7827785747689712e-09).transl(1.0020339409477437e-08, -4e-08, 0))
hIsland = hIsland.add(rect(6.000000000000001e-09, 1.1401162110964813e-09).transl(4.207558280597552e-08, 4e-08, 0))
hIsland = hIsland.sub(rect(6.000000000000001e-09, -2.0347307438816365e-09).transl(-4.983130802957741e-09, 4e-08, 0))
hIsland = hIsland.sub(rect(6.000000000000001e-09, -1.8355846778540573e-09).transl(-9.892980542966054e-09, 4e-08, 0))
hIsland = hIsland.sub(rect(6.000000000000001e-09, -1.8105346579822963e-11).transl(-5.639791725795658e-08, 4e-08, 0))
hIsland = hIsland.sub(rect(6.000000000000001e-09, -1.998095437550405e-09).transl(-6.390844697805653e-08, 4e-08, 0))
hIsland = hIsland.sub(rect(6.000000000000001e-09, -3.0996078002104806e-09).transl(-4.758141026207602e-08, 4e-08, 0))
hIsland = hIsland.sub(rect(6.000000000000001e-09, -9.965475455358531e-10).transl(-5.858313349414324e-08, 4e-08, 0))
hIsland = hIsland.sub(rect(6.000000000000001e-09, -3.213191041151906e-09).transl(-7.455143974113319e-08, 4e-08, 0))
hIsland = hIsland.sub(rect(6.000000000000001e-09, -3.738292350193721e-09).transl(-7.20498596291707e-08, 4e-08, 0))
hIsland = hIsland.add(rect(6.000000000000001e-09, 2.920295809784401e-09).transl(3.1821168855829866e-08, 4e-08, 0))
hIsland = hIsland.sub(rect(6.000000000000001e-09, -2.3927436058302643e-09).transl(-3.027931520103882e-08, 4e-08, 0))
hIsland = hIsland.sub(rect(6.000000000000001e-09, -2.7182016258539316e-10).transl(-4.673801172708045e-08, 4e-08, 0))
hIsland = hIsland.sub(rect(6.000000000000001e-09, -1.6005327287493844e-09).transl(-8.641951024243969e-08, 3.193478191474849e-08, 0))
hIsland = hIsland.add(rect(6.000000000000001e-09, 1.1903766547746732e-09).transl(5.8512715036192515e-08, 4e-08, 0))
hIsland = hIsland.add(rect(6.000000000000001e-09, 7.070349914007184e-09).transl(-5.97695417291706e-08, 4e-08, 0))
hIsland = hIsland.sub(rect(6.000000000000001e-09, -3.1733862864519508e-09).transl(7.615643860490049e-08, 4e-08, 0))
hIsland = hIsland.add(rect(6.000000000000001e-09, 2.424831461810703e-09).transl(-2.0022170377348202e-08, 4e-08, 0))
hIsland = hIsland.add(rect(6.000000000000001e-09, 3.9647306114772557e-10).transl(6.810909751231485e-08, 4e-08, 0))
hIsland = hIsland.add(rect(6.000000000000001e-09, 5.291322440129404e-10).transl(-7.114588909827783e-09, 4e-08, 0))
hIsland = hIsland.sub(rect(6.000000000000001e-09, -3.721488106625798e-09).transl(1.6341544677755215e-08, 4e-08, 0))
hIsland = hIsland.sub(rect(6.000000000000001e-09, -1.7161714802162821e-09).transl(3.821309055687322e-08, 4e-08, 0))
hIsland = hIsland.sub(rect(6.000000000000001e-09, -3.453783994219633e-10).transl(-4.459631688912266e-08, 4e-08, 0))
hIsland = hIsland.sub(rect(6.000000000000001e-09, -2.6099175862529668e-09).transl(5.70184762846906e-08, 4e-08, 0))
hIsland = hIsland.sub(rect(6.000000000000001e-09, -8.716494624571482e-10).transl(5.8841099019349626e-08, 4e-08, 0))
hIsland = hIsland.add(rect(6.000000000000001e-09, 1.402339946919658e-10).transl(5.8460311975021106e-08, 4e-08, 0))
hIsland = hIsland.add(rect(6.000000000000001e-09, 1.4953934209996179e-09).transl(8.511685675157481e-09, 4e-08, 0))
hIsland = hIsland.sub(rect(6.000000000000001e-09, -1.0317672969547296e-09).transl(-6.194043620101418e-08, 4e-08, 0))
hIsland = hIsland.sub(rect(6.000000000000001e-09, -2.8960018021226113e-09).transl(-7.295795453829745e-08, 4e-08, 0))
hIsland = hIsland.sub(rect(6.000000000000001e-09, -3.50190560116052e-09).transl(3.6595334930618964e-08, 4e-08, 0))
hIsland = hIsland.add(rect(6.000000000000001e-09, 3.0015565117542616e-09).transl(8.449149240207605e-08, 3.6867324568838786e-08, 0))
hIsland = hIsland.add(rect(6.000000000000001e-09, 3.2417159401014462e-09).transl(-2.858425386716036e-08, 4e-08, 0))
hIsland = hIsland.sub(rect(6.000000000000001e-09, -4.644680558033891e-10).transl(5.721307072918778e-08, 4e-08, 0))
hIsland = hIsland.sub(rect(6.000000000000001e-09, -2.3548873991485345e-09).transl(2.887313375821289e-08, 4e-08, 0))
hIsland = hIsland.sub(rect(6.000000000000001e-09, -1.361146390758042e-09).transl(5.6970987025948954e-08, 4e-08, 0))
hIsland = hIsland.add(rect(6.000000000000001e-09, 3.3432172454879857e-09).transl(3.472742553254798e-08, 4e-08, 0))
hIsland = hIsland.add(rect(6.000000000000001e-09, 8.016080106570217e-10).transl(-7.196904086327987e-09, 4e-08, 0))
hIsland = hIsland.sub(rect(6.000000000000001e-09, -7.031146906821744e-10).transl(-7.243017437977645e-08, 4e-08, 0))
hIsland = hIsland.sub(rect(6.000000000000001e-09, -5.5768004809014114e-11).transl(-1.4587643069896219e-08, 4e-08, 0))
hIsland = hIsland.add(rect(6.000000000000001e-09, 1.2406267778386881e-09).transl(8.647710213770822e-08, 3.174010266208581e-08, 0))
hIsland = hIsland.add(rect(6.000000000000001e-09, 1.940385267001682e-09).transl(4.32268012363248e-08, 4e-08, 0))
hIsland = hIsland.add(rect(6.000000000000001e-09, 1.259167061844255e-09).transl(5.16113083606985e-08, 4e-08, 0))
hIsland = hIsland.sub(rect(6.000000000000001e-09, -2.610912850586816e-09).transl(-7.681294117359105e-08, 4e-08, 0))
hIsland = hIsland.sub(rect(6.000000000000001e-09, -2.6912117950764225e-09).transl(7.098546369686476e-08, 4e-08, 0))
hIsland = hIsland.add(rect(6.000000000000001e-09, 9.217914234234419e-10).transl(1.7279559086409982e-08, 4e-08, 0))
hIsland = hIsland.sub(rect(6.000000000000001e-09, -4.499224618238834e-10).transl(-8.780984435225034e-08, 2.615283471097805e-08, 0))
hIsland = hIsland.sub(rect(6.000000000000001e-09, -5.055454669561395e-10).transl(1.0110969262943879e-08, 4e-08, 0))
hIsland = hIsland.add(rect(6.000000000000001e-09, 7.795341935006889e-10).transl(-4.0077995437402254e-08, 4e-08, 0))
hIsland = hIsland.add(rect(6.000000000000001e-09, 2.364200979833088e-09).transl(4.2363265112679895e-08, 4e-08, 0))
hIsland = hIsland.sub(rect(6.000000000000001e-09, -1.284044390997184e-09).transl(8.647611120819923e-08, 3.174347987036384e-08, 0))
hIsland = hIsland.add(rect(6.000000000000001e-09, 7.979538211470649e-10).transl(5.141765016787679e-08, 4e-08, 0))
hIsland = hIsland.sub(rect(6.000000000000001e-09, -1.1217572011480964e-10).transl(-8.358862434956405e-08, 3.830972515586492e-08, 0))
hIsland = hIsland.add(rect(6.000000000000001e-09, 1.9408574169928233e-09).transl(-8.3436855735944e-09, 4e-08, 0))
hIsland = hIsland.add(rect(6.000000000000001e-09, 4.817988083921619e-10).transl(4.9599740183905653e-08, 4e-08, 0))
hIsland = hIsland.sub(rect(6.000000000000001e-09, -1.3565383344271345e-09).transl(5.820942863348263e-08, 4e-08, 0))
hIsland = hIsland.sub(rect(6.000000000000001e-09, -1.634087585145146e-10).transl(-7.5127491743772e-08, 4e-08, 0))
hIsland = hIsland.add(rect(6.000000000000001e-09, 3.031745744650553e-09).transl(-6.332350680688482e-08, 4e-08, 0))
hIsland = hIsland.add(rect(6.000000000000001e-09, 3.3979025238675464e-10).transl(-3.037756570183765e-08, 4e-08, 0))
hIsland = hIsland.add(rect(6.000000000000001e-09, 2.2607912875862553e-09).transl(-5.109757643305611e-08, 4e-08, 0))
hIsland = hIsland.sub(rect(6.000000000000001e-09, -1.700741541375904e-09).transl(-2.084978619250549e-08, 4e-08, 0))
hIsland = hIsland.sub(rect(6.000000000000001e-09, -2.9091862568399197e-09).transl(-2.328860351566145e-08, 4e-08, 0))
hIsland = hIsland.add(rect(6.000000000000001e-09, 1.244081311624392e-09).transl(5.988451298030007e-08, 4e-08, 0))
hIsland = hIsland.add(rect(6.000000000000001e-09, 9.923172146952824e-10).transl(4.225193556067033e-08, 4e-08, 0))
hIsland = hIsland.add(rect(6.000000000000001e-09, 1.7256471032308993e-09).transl(-2.3116333256696098e-08, 4e-08, 0))
hIsland = hIsland.sub(rect(6.000000000000001e-09, -4.1002956072635183e-10).transl(-1.659293829958745e-08, 4e-08, 0))
hIsland = hIsland.add(rect(6.000000000000001e-09, 2.2162170330954974e-09).transl(3.118456567530515e-08, 4e-08, 0))
hIsland = hIsland.add(rect(6.000000000000001e-09, 3.2219586743656355e-10).transl(-7.378741742806217e-08, 4e-08, 0))
hIsland = hIsland.sub(rect(6.000000000000001e-09, -6.629473751088408e-10).transl(6.15561313304585e-08, 4e-08, 0))
hIsland = hIsland.add(rect(6.000000000000001e-09, 2.5028119132250556e-09).transl(-2.704246804821988e-08, 4e-08, 0))
hIsland = hIsland.sub(rect(6.000000000000001e-09, -3.931324630265276e-09).transl(8.667507295678636e-08, 3.1045501273716614e-08, 0))
hIsland = hIsland.add(rect(6.000000000000001e-09, 1.48155034302031e-09).transl(7.460163807741898e-08, 4e-08, 0))
hIsland = hIsland.sub(rect(6.000000000000001e-09, -2.0448623485550514e-09).transl(8.355841887668322e-08, 3.8349785287967456e-08, 0))
hIsland = hIsland.add(rect(6.000000000000001e-09, 2.075978417920524e-09).transl(7.746482292906505e-08, 4e-08, 0))
hIsland = hIsland.sub(rect(6.000000000000001e-09, -4.932569281399732e-10).transl(-1.0010050200189412e-08, 4e-08, 0))
hIsland = hIsland.add(rect(6.000000000000001e-09, 7.958313157989848e-10).transl(-6.86748925561925e-08, 4e-08, 0))
hIsland = hIsland.add(rect(6.000000000000001e-09, 9.068718975519241e-11).transl(-8.549050940457105e-08, 3.466533481414783e-08, 0))
hIsland = hIsland.sub(rect(6.000000000000001e-09, -2.039525330514837e-10).transl(5.142050843550311e-08, 4e-08, 0))
hIsland = hIsland.sub(rect(6.000000000000001e-09, -3.699434251800282e-09).transl(-5.702670926362361e-08, 4e-08, 0))
hIsland = hIsland.add(rect(6.000000000000001e-09, 7.653499968064739e-10).transl(-7.943948511021037e-08, 4e-08, 0))
hIsland = hIsland.add(rect(6.000000000000001e-09, 4.303775304574205e-10).transl(-8.186813358491592e-08, 3.981347723392939e-08, 0))
hIsland = hIsland.add(rect(6.000000000000001e-09, 1.5077852421238393e-09).transl(-8.495685761170691e-08, 3.5926750676019015e-08, 0))
hIsland = hIsland.add(rect(6.000000000000001e-09, 4.970950615265673e-10).transl(-5.712578029198465e-08, 4e-08, 0))
hIsland = hIsland.add(rect(6.000000000000001e-09, 2.265214670477534e-09).transl(-2.9227027135600875e-08, 4e-08, 0))
hIsland = hIsland.sub(rect(6.000000000000001e-09, -4.338153645001639e-10).transl(4.822022849467256e-09, 4e-08, 0))
hIsland = hIsland.add(rect(6.000000000000001e-09, 9.982988937908626e-10).transl(-5.543624705245754e-08, 4e-08, 0))
hIsland = hIsland.sub(rect(6.000000000000001e-09, -4.177771738407282e-09).transl(5.331382642154162e-08, 4e-08, 0))
hIsland = hIsland.sub(rect(6.000000000000001e-09, -9.535291255679007e-10).transl(-3.2033439950145164e-08, 4e-08, 0))
hIsland = hIsland.add(rect(6.000000000000001e-09, 3.259889455552837e-10).transl(7.139582513674647e-08, 4e-08, 0))
hIsland = hIsland.sub(rect(6.000000000000001e-09, -3.13824582055251e-09).transl(-1.7363247268720095e-08, 4e-08, 0))
hIsland = hIsland.sub(rect(6.000000000000001e-09, -1.5176479149989492e-09).transl(-4.6042487553184264e-08, 4e-08, 0))
hIsland = hIsland.add(rect(6.000000000000001e-09, 2.757019137146814e-09).transl(-2.943285897817277e-08, 4e-08, 0))
hIsland = hIsland.sub(rect(6.000000000000001e-09, -7.062787947865144e-10).transl(-6.747999813593099e-08, 4e-08, 0))
hIsland = hIsland.add(rect(6.000000000000001e-09, 3.012028136417781e-09).transl(1.9603366033317748e-09, 4e-08, 0))
hIsland = hIsland.add(rect(6.000000000000001e-09, 3.489450780858511e-10).transl(3.962976380760235e-08, 4e-08, 0))
hIsland = hIsland.sub(rect(6.000000000000001e-09, -8.400596171053206e-11).transl(-7.622680266713716e-08, 4e-08, 0))
hIsland = hIsland.add(rect(6.000000000000001e-09, 4.901568418325035e-10).transl(-4.487319191940838e-08, 4e-08, 0))
hIsland = hIsland.add(rect(6.000000000000001e-09, 1.5608667554192626e-09).transl(-7.607922245452186e-08, 4e-08, 0))
hIsland = hIsland.sub(rect(6.000000000000001e-09, -6.026279588152519e-10).transl(6.568198472696808e-08, 4e-08, 0))
hIsland = hIsland.sub(rect(6.000000000000001e-09, -7.392858193438922e-10).transl(-6.155284487067279e-08, 4e-08, 0))
hIsland = hIsland.sub(rect(6.000000000000001e-09, -1.237399269566656e-09).transl(6.68111112001302e-08, 4e-08, 0))
hIsland = hIsland.sub(rect(6.000000000000001e-09, -4.609398768599707e-09).transl(-5.700242962442279e-08, 4e-08, 0))
vIsland := hIsland.rotz(pi / 2)
vIslands := Universe().Inverse()
hIslands := Universe().Inverse()
hIslands = hIslands.add(hIsland.transl(-a/2, a, 0))
hIslands = hIslands.add(hIsland.transl(-a/2, -a, 0))
hIslands = hIslands.add(hIsland.transl(a/2, a, 0))
hIslands = hIslands.add(hIsland.transl(a/2, -a, 0))
hIslands = hIslands.add(hIsland.transl(-a/2, 0, 0))
hIslands = hIslands.add(hIsland.transl(a/2, 0, 0))
vIslands = vIslands.add(vIsland.transl(-a, a/2, 0))
vIslands = vIslands.add(vIsland.transl(a, a/2, 0))
vIslands = vIslands.add(vIsland.transl(-a, -a/2, 0))
vIslands = vIslands.add(vIsland.transl(a, -a/2, 0))
vIslands = vIslands.add(vIsland.transl(0, a/2, 0))
vIslands = vIslands.add(vIsland.transl(0, -a/2, 0))
DefRegion(1, hIslands)
DefRegion(2, vIslands)
TableAdd(m_full.Region(1))
TableAdd(m_full.Region(2))
setgeom(hIslands.add(vIslands))
save(m)
r2o2 := sqrt(2) / 2
m = RandomMagSeed(4)
B_ext = vector(Bmax*r2o2, Bmax*r2o2, 0)
relax()
minimize()
for B := Bmax; B >= -Bmax; B -= Bstep {
	B_ext = vector(B*r2o2, B*r2o2, 0)
	minimize()
	tablesave()
}
//********************************************************************//
//Please cite the following references, relevant for your simulation. //
//See bibtex file in output folder for justification.                 //
//********************************************************************//
//   * Vansteenkiste et al., AIP Adv. 4, 107133 (2014).
//   * Exl et al., J. Appl. Phys. 115, 17D118 (2014).
