//mumax 3.10 [windows_amd64 go1.11.6(gc) CUDA-11.0]
//GPU info: NVIDIA GeForce RTX 3090(24575MB), CUDA Driver 12.1, cc=8.6, using cc=80 PTX
//(c) Arne Vansteenkiste, Dynamat LAB, Ghent University, Belgium
//This is free software without any warranty. See license.txt
//********************************************************************//
//  If you use mumax in any work or publication,                      //
//  we kindly ask you to cite the references in references.bib        //
//********************************************************************//
//output directory: r1;p0.1;a3.2e-07;l1.8000000000000002e-07;s3.out/
randSeed(3)
ThermSeed(3)
resolution := 2e-09
zResolution := 5e-09
a := 3.2e-07
gridSize := 320
gridDepth := 5
SetCellsize(resolution, resolution, zResolution)
SetGridsize(gridSize, gridSize, gridDepth)
SetPBC(16, 16, 0)
//resizing...
Msat = 700e3
Aex = 13e-12
alpha = 0.2
Bmax := 0.1
Bstep := Bmax / 500.0
TableAdd(B_ext)
TableAdd(m_full)
islandWidth := 8e-08
islandLength := 1.8000000000000002e-07
ellipseConstant := 9.000000000000001e-09
hIsland := Universe().Inverse()
vIsland := Universe().Inverse()
vIslands := Universe().Inverse()
hIslands := Universe().Inverse()
hIsland = rect(islandLength-2*ellipseConstant, islandWidth)
hIsland = hIsland.add(ellipse(ellipseConstant*2, islandWidth).transl(islandLength/2-ellipseConstant, 0, 0))
hIsland = hIsland.add(ellipse(ellipseConstant*2, islandWidth).transl(-islandLength/2+ellipseConstant, 0, 0))
hIsland = hIsland.add(rect(7.569170000997985e-09, 3.3808180428275377e-09).transl(-7.338441469609241e-08, -4e-08, 0))
hIsland = hIsland.sub(rect(5.734464048361694e-09, -2.3564121562095745e-09).transl(7.894959624734335e-08, -4e-08, 0))
hIsland = hIsland.add(rect(3.3480733471837046e-09, 3.538897654743918e-09).transl(2.2180680423307636e-08, -4e-08, 0))
hIsland = hIsland.sub(rect(7.306520282665304e-09, -4.0592276790719425e-09).transl(-6.388441203715869e-08, -4e-08, 0))
hIsland = hIsland.add(rect(8.040491659465229e-09, 7.0070720583239e-10).transl(-2.320237464682655e-09, -4e-08, 0))
hIsland = hIsland.sub(rect(3.271619349562616e-09, -8.319082113497615e-10).transl(6.100458036840109e-08, -4e-08, 0))
hIsland = hIsland.add(rect(4.312725162807999e-09, 1.2257808362716717e-10).transl(2.069279219769083e-08, -4e-08, 0))
hIsland = hIsland.add(rect(4.419573013174197e-09, 3.062352876155164e-09).transl(-8.53238826231351e-08, -3.508129227777288e-08, 0))
hIsland = hIsland.sub(rect(6.956367654636626e-09, -8.351212634410983e-12).transl(3.3731084026706697e-09, -4e-08, 0))
hIsland = hIsland.sub(rect(5.561133565139611e-09, -7.218843397615353e-10).transl(-5.9419727925655016e-08, -4e-08, 0))
hIsland = hIsland.sub(rect(9.620106991568917e-09, -4.1527693689956735e-09).transl(-5.91215616530031e-08, -4e-08, 0))
hIsland = hIsland.sub(rect(4.726324421377328e-09, -9.40533029829617e-10).transl(3.879829035887748e-08, -4e-08, 0))
hIsland = hIsland.add(rect(8.176369551501297e-09, 4.236413120706199e-09).transl(5.5034959957941244e-08, -4e-08, 0))
hIsland = hIsland.sub(rect(2.2285875095104794e-09, -3.368711340386557e-09).transl(-5.193766418388352e-08, -4e-08, 0))
hIsland = hIsland.sub(rect(3.6736461918582474e-09, -2.0323728818199215e-09).transl(-5.255571186749459e-08, -4e-08, 0))
hIsland = hIsland.sub(rect(7.588818851477047e-09, -1.571132759629798e-09).transl(1.0102449535105528e-08, -4e-08, 0))
hIsland = hIsland.add(rect(4.554801329679383e-09, 3.233549744854145e-09).transl(-7.700653174081646e-08, -4e-08, 0))
hIsland = hIsland.sub(rect(7.945890026196155e-09, -9.127022171297246e-10).transl(2.707203858380041e-08, -4e-08, 0))
hIsland = hIsland.sub(rect(7.904291452791133e-09, -4.4077148423771025e-12).transl(-1.625683863729771e-08, -4e-08, 0))
hIsland = hIsland.add(rect(3.197239979893792e-09, 1.7566827882412864e-09).transl(8.076897474153638e-08, -4e-08, 0))
hIsland = hIsland.add(rect(5.005980447822821e-09, 1.1265144825656595e-10).transl(5.210460702445485e-08, -4e-08, 0))
hIsland = hIsland.sub(rect(9.847077668781072e-09, -2.3785865558323395e-09).transl(4.810610369876192e-08, -4e-08, 0))
hIsland = hIsland.sub(rect(9.744292421523473e-09, -1.156922161434578e-09).transl(5.162618886262882e-08, -4e-08, 0))
hIsland = hIsland.sub(rect(9.94762452441237e-09, -1.9778079326636828e-09).transl(2.773653897472238e-08, -4e-08, 0))
hIsland = hIsland.sub(rect(2.1101388375470266e-09, -3.5046181936120066e-10).transl(6.160408325979015e-08, -4e-08, 0))
hIsland = hIsland.sub(rect(7.618603993625099e-09, -2.486296520855201e-09).transl(-4.053410092604526e-08, -4e-08, 0))
hIsland = hIsland.add(rect(4.203222993043637e-09, 3.461226155001172e-10).transl(8.054483596841049e-08, -4e-08, 0))
hIsland = hIsland.add(rect(4.938639843074341e-09, 7.043984883155816e-11).transl(-8.514382625050469e-09, -4e-08, 0))
hIsland = hIsland.add(rect(5.742732883484105e-09, 2.9928665209070003e-09).transl(-4.2610908054763175e-08, -4e-08, 0))
hIsland = hIsland.add(rect(2.69809342115271e-09, 1.8673839257002136e-09).transl(-4.666706580717381e-08, -4e-08, 0))
hIsland = hIsland.sub(rect(4.930540767026319e-09, -4.084873514182131e-09).transl(-2.9113196880451706e-08, -4e-08, 0))
hIsland = hIsland.sub(rect(5.412204620310247e-09, -2.5123419616609564e-09).transl(-1.5429568879258707e-08, -4e-08, 0))
hIsland = hIsland.sub(rect(3.951256100834146e-09, -3.042562733058792e-09).transl(-1.5451953158623794e-08, -4e-08, 0))
hIsland = hIsland.sub(rect(9.218941893357473e-09, -1.5620521519309742e-09).transl(1.0811975516861417e-08, -4e-08, 0))
hIsland = hIsland.add(rect(5.963882680759004e-09, 3.983620101811006e-09).transl(-6.867902839845862e-08, -4e-08, 0))
hIsland = hIsland.add(rect(4.030516756775751e-09, 7.912471345577432e-10).transl(-6.743717592915779e-08, -4e-08, 0))
hIsland = hIsland.sub(rect(9.794701051774355e-09, -3.6032828241692944e-09).transl(6.030115330354779e-08, -4e-08, 0))
hIsland = hIsland.sub(rect(8.03239522608535e-09, -2.6385319962203378e-09).transl(-1.640671228487883e-08, -4e-08, 0))
hIsland = hIsland.sub(rect(7.334080147889469e-09, -4.763293711752731e-10).transl(4.404040267794526e-08, -4e-08, 0))
hIsland = hIsland.add(rect(2.049629615111747e-09, 7.540584915684813e-10).transl(3.440974301953607e-08, -4e-08, 0))
hIsland = hIsland.add(rect(2.882248592536275e-09, 6.245927685952239e-10).transl(2.383673831176586e-08, -4e-08, 0))
hIsland = hIsland.sub(rect(9.49590236780085e-09, -2.2207343052809842e-09).transl(-7.577371432400905e-08, -4e-08, 0))
hIsland = hIsland.add(rect(9.017743052588018e-09, 6.257825968408561e-10).transl(7.153128106226965e-08, -4e-08, 0))
hIsland = hIsland.add(rect(8.672949309540327e-09, 1.504148041112939e-09).transl(4.132936915965269e-08, -4e-08, 0))
hIsland = hIsland.sub(rect(8.967374918713877e-09, -3.9402536952948195e-09).transl(-2.4651363417970003e-08, -4e-08, 0))
hIsland = hIsland.sub(rect(6.30148302733594e-09, -1.387276836486367e-09).transl(3.8377309484856994e-08, -4e-08, 0))
hIsland = hIsland.add(rect(5.059868660915053e-09, 7.238832414352829e-10).transl(-6.51392632049954e-08, -4e-08, 0))
hIsland = hIsland.add(rect(8.315755336328396e-09, 2.266251894967055e-09).transl(-7.746478145677317e-08, -4e-08, 0))
hIsland = hIsland.sub(rect(6.523680588365463e-09, -1.368555109029733e-09).transl(-3.7635247340220863e-08, -4e-08, 0))
hIsland = hIsland.sub(rect(6.629718646815194e-09, -1.4063805128952805e-09).transl(1.851688503211863e-08, -4e-08, 0))
hIsland = hIsland.sub(rect(6.987110253268938e-09, -3.209365085029247e-09).transl(-2.488271665143692e-09, -4e-08, 0))
hIsland = hIsland.sub(rect(5.698448412960437e-09, -2.8324735100319837e-09).transl(-1.4764942564953004e-08, -4e-08, 0))
hIsland = hIsland.sub(rect(5.1645570768773394e-09, -2.911911893873591e-09).transl(-3.701047305299813e-08, -4e-08, 0))
hIsland = hIsland.sub(rect(2.786839214796009e-09, -1.83038759886029e-09).transl(5.341676868396628e-08, -4e-08, 0))
hIsland = hIsland.add(rect(9.508403263637098e-09, 7.519951138492686e-11).transl(-5.675035815091989e-08, -4e-08, 0))
hIsland = hIsland.sub(rect(4.0798187710324395e-09, -7.176515626840779e-11).transl(-2.60106746491453e-08, -4e-08, 0))
hIsland = hIsland.add(rect(7.73625329730383e-09, 2.951216053228107e-09).transl(-5.884755074724696e-08, -4e-08, 0))
hIsland = hIsland.add(rect(4.9674921160203515e-09, 7.268717843852994e-10).transl(8.695511295878932e-08, -2.9991481802378705e-08, 0))
hIsland = hIsland.sub(rect(3.793021394709411e-09, -2.2188586583514805e-09).transl(-6.590644285006831e-08, -4e-08, 0))
hIsland = hIsland.sub(rect(2.6120288244009936e-09, -1.332313475917768e-09).transl(8.593267722728692e-08, -3.3457161220970734e-08, 0))
hIsland = hIsland.sub(rect(9.220705048809278e-09, -3.8119432590779204e-10).transl(-5.6830720403820586e-08, -4e-08, 0))
hIsland = hIsland.sub(rect(5.594289896452118e-09, -1.089300032608577e-09).transl(-1.5851769712303408e-08, -4e-08, 0))
hIsland = hIsland.add(rect(6.313526871562193e-09, 3.4529952564770505e-09).transl(-2.3200621950502414e-08, -4e-08, 0))
hIsland = hIsland.add(rect(3.0880526623630058e-09, 2.1761774533001415e-09).transl(4.1500449128705977e-08, -4e-08, 0))
hIsland = hIsland.sub(rect(4.253250817121274e-09, -3.6594653004421706e-10).transl(-2.0788304271982747e-08, -4e-08, 0))
hIsland = hIsland.add(rect(4.532376318138022e-09, 1.7056771118303882e-09).transl(-4.342592534478693e-09, -4e-08, 0))
hIsland = hIsland.sub(rect(3.3982102156708172e-09, -1.1045560641027054e-09).transl(3.295027127382658e-08, -4e-08, 0))
hIsland = hIsland.sub(rect(4.091026023187601e-09, -1.5181339394584465e-09).transl(3.015031348157498e-08, -4e-08, 0))
hIsland = hIsland.sub(rect(7.643178499268971e-09, -1.777249126596592e-09).transl(-5.8072907039977004e-08, -4e-08, 0))
hIsland = hIsland.sub(rect(8.856909630041025e-09, -1.9008068825374182e-09).transl(2.9794640979337324e-08, -4e-08, 0))
hIsland = hIsland.add(rect(2.9087485411229957e-09, 4.066327097772488e-09).transl(4.35251935216895e-08, -4e-08, 0))
hIsland = hIsland.add(rect(8.425699278289972e-09, 1.7709313819772457e-09).transl(8.060755718529466e-08, -4e-08, 0))
hIsland = hIsland.sub(rect(8.868336509300501e-09, -3.528652560910304e-10).transl(6.225652590446503e-08, -4e-08, 0))
hIsland = hIsland.sub(rect(2.8760849452658743e-09, -9.941193784715652e-10).transl(5.308782709732264e-08, -4e-08, 0))
hIsland = hIsland.add(rect(2.118305493507373e-09, 1.8126083962907996e-09).transl(2.052485609983108e-08, -4e-08, 0))
hIsland = hIsland.sub(rect(2.1672145292905852e-09, -2.294186820256536e-09).transl(2.945850812985959e-08, -4e-08, 0))
hIsland = hIsland.sub(rect(3.385635727812688e-09, -1.4383341561983559e-11).transl(-5.5110509327813465e-09, -4e-08, 0))
hIsland = hIsland.add(rect(2.2765025121986584e-09, 7.373830301500771e-10).transl(3.790413026386301e-08, -4e-08, 0))
hIsland = hIsland.sub(rect(2.6803866044397867e-09, -2.714966564725941e-10).transl(3.3713211364388124e-08, -4e-08, 0))
hIsland = hIsland.sub(rect(7.487339872699925e-09, -2.236607251721594e-09).transl(-8.808957331979555e-08, -2.46408073233315e-08, 0))
hIsland = hIsland.add(rect(8.97144435825537e-09, 1.9758733115467593e-09).transl(-2.4330809196849428e-08, -4e-08, 0))
hIsland = hIsland.sub(rect(6.200539438784427e-09, -7.299576550818688e-10).transl(-5.403024516150141e-08, -4e-08, 0))
hIsland = hIsland.add(rect(4.708838045299707e-09, 3.153040085123609e-10).transl(-6.879222360776594e-08, -4e-08, 0))
hIsland = hIsland.add(rect(2.842799372294362e-09, 1.1683540469784168e-09).transl(-7.75071017977544e-08, -4e-08, 0))
hIsland = hIsland.sub(rect(4.912016642509682e-09, -7.529707393267458e-10).transl(-8.690044952107261e-08, -3.02041434323089e-08, 0))
hIsland = hIsland.sub(rect(4.8954932375848845e-09, -1.3424360302360762e-09).transl(2.5929816240363786e-08, -4e-08, 0))
hIsland = hIsland.add(rect(3.2410150798206454e-09, 1.6463525157651418e-09).transl(2.4037148594158474e-08, -4e-08, 0))
hIsland = hIsland.sub(rect(3.75737327591379e-09, -2.635348850471381e-10).transl(-1.264646757565437e-08, -4e-08, 0))
hIsland = hIsland.sub(rect(7.8992710036605e-09, -6.39052711576843e-11).transl(-5.881435804475818e-08, -4e-08, 0))
hIsland = hIsland.sub(rect(7.879087401091791e-09, -2.815251639262548e-10).transl(1.2752412525951205e-08, -4e-08, 0))
hIsland = hIsland.add(rect(4.0823856604922115e-09, 9.248659882840127e-10).transl(-1.3893803017927008e-08, -4e-08, 0))
hIsland = hIsland.add(rect(4.509408791885589e-09, 1.039207031697954e-09).transl(4.2744103802678866e-08, -4e-08, 0))
hIsland = hIsland.sub(rect(9.191305698954395e-09, -1.3036764068134192e-09).transl(-8.292461554087002e-08, -3.907469390917397e-08, 0))
hIsland = hIsland.add(rect(4.720416296250411e-09, 1.9230522624798922e-10).transl(4.20738018575297e-08, -4e-08, 0))
hIsland = hIsland.sub(rect(8.055211247020914e-09, -6.811179486711937e-10).transl(3.321747749921325e-08, -4e-08, 0))
hIsland = hIsland.sub(rect(4.6590389998535234e-09, -1.6227269630612593e-09).transl(-8.557213500309123e-08, -3.4453928877294115e-08, 0))
hIsland = hIsland.sub(rect(3.4759897127943264e-09, -1.1443701323206252e-09).transl(-8.894851656915406e-08, -1.8762233855726193e-08, 0))
hIsland = hIsland.add(rect(7.767074310052453e-09, 1.8354002400985618e-09).transl(4.6639580489942397e-08, -4e-08, 0))
hIsland = hIsland.add(rect(9.494253740215308e-09, 4.877308383379764e-10).transl(8.83276089610552e-08, -2.322457060485774e-08, 0))
hIsland = hIsland.add(rect(8.536839402573992e-09, 1.2405058702151744e-09).transl(6.43967829610216e-08, -4e-08, 0))
hIsland = hIsland.add(rect(9.752658283996806e-09, 2.21971734312295e-09).transl(4.208984031589088e-08, -4e-08, 0))
hIsland = hIsland.add(rect(9.543745053352323e-09, 1.1405266113720635e-09).transl(1.3163077471139285e-08, -4e-08, 0))
hIsland = hIsland.add(rect(2.3865653881023425e-09, 8.41593475505097e-10).transl(2.6709951768742804e-08, -4e-08, 0))
hIsland = hIsland.add(rect(5.562899959229002e-09, 9.60918699144561e-10).transl(-7.610069400213026e-08, -4e-08, 0))
hIsland = hIsland.sub(rect(2.609244879325272e-09, -1.258099914686518e-09).transl(6.252756264366009e-09, -4e-08, 0))
hIsland = hIsland.add(rect(4.190423449223619e-09, 1.587898774851011e-09).transl(5.4686953572818213e-08, -4e-08, 0))
hIsland = hIsland.sub(rect(5.988386252331478e-09, -2.8205474547006947e-09).transl(-6.311140654869007e-08, -4e-08, 0))
hIsland = hIsland.add(rect(2.591068724179899e-09, 4.0239382402301494e-09).transl(-1.458933146364173e-08, -4e-08, 0))
hIsland = hIsland.sub(rect(6.184550673033495e-09, -8.537057980013184e-10).transl(6.522309069003413e-08, -4e-08, 0))
hIsland = hIsland.add(rect(9.791201426999497e-09, 9.760394294274564e-10).transl(-6.468154880353369e-08, -4e-08, 0))
hIsland = hIsland.add(rect(8.517277125551867e-09, 1.1582479697535786e-11).transl(-4.463975806445037e-08, -4e-08, 0))
hIsland = hIsland.sub(rect(3.5375408636112537e-09, -1.3862288293699374e-09).transl(-1.191571471585402e-09, -4e-08, 0))
hIsland = hIsland.add(rect(4.89528644543879e-09, 7.873387445794083e-10).transl(1.699880822373614e-08, -4e-08, 0))
hIsland = hIsland.add(rect(9.394667970794196e-09, 1.9039517660422266e-09).transl(5.9205145380296594e-08, -4e-08, 0))
hIsland = hIsland.sub(rect(9.472424249023263e-09, -5.196235440913063e-10).transl(-3.1570911943005757e-09, -4e-08, 0))
hIsland = hIsland.add(rect(6.992968079865358e-09, 6.149672326209136e-09).transl(-2.839493343672466e-08, -4e-08, 0))
hIsland = hIsland.add(rect(5.641463814506499e-09, 6.057180599333112e-09).transl(6.053203162593512e-08, -4e-08, 0))
hIsland = hIsland.sub(rect(9.163301649071695e-09, -2.001317040103489e-09).transl(-2.2598676874710284e-08, -4e-08, 0))
hIsland = hIsland.sub(rect(4.952722588940414e-09, -2.60646094753335e-09).transl(-6.237640667597461e-08, -4e-08, 0))
hIsland = hIsland.sub(rect(7.754893600112242e-09, -2.0063396080834176e-09).transl(-2.5984028023436156e-08, -4e-08, 0))
hIsland = hIsland.sub(rect(6.209549652661716e-09, -3.885685044933215e-10).transl(-2.218054689303684e-08, -4e-08, 0))
hIsland = hIsland.sub(rect(9.075915977316288e-09, -1.0212535573236378e-09).transl(8.660590665312636e-08, -3.129274300645163e-08, 0))
hIsland = hIsland.sub(rect(6.649562051458565e-09, -4.71778376641535e-10).transl(-2.65760221848291e-08, -4e-08, 0))
hIsland = hIsland.add(rect(9.15764917584221e-09, 1.5119445055609928e-10).transl(-3.0848187892398976e-08, -4e-08, 0))
hIsland = hIsland.add(rect(8.387115440475987e-09, 2.2007855481108155e-09).transl(5.765945218192481e-08, -4e-08, 0))
hIsland = hIsland.add(rect(6.943579179372568e-09, 9.935935878636592e-10).transl(-6.763810612744209e-08, -4e-08, 0))
hIsland = hIsland.sub(rect(4.029551366519289e-09, -2.2336480073784335e-10).transl(8.033362561819429e-08, -4e-08, 0))
hIsland = hIsland.sub(rect(4.3910324435961396e-09, -3.3356150893129975e-09).transl(6.786636499774176e-08, -4e-08, 0))
hIsland = hIsland.sub(rect(5.043634693899453e-09, -3.9694188934069935e-09).transl(1.6400542871203465e-08, -4e-08, 0))
hIsland = hIsland.add(rect(9.737952854963123e-09, 7.694470326964696e-10).transl(-4.248138800833385e-08, -4e-08, 0))
hIsland = hIsland.add(rect(5.99458807965644e-09, 1.3619387146957714e-09).transl(1.03792802668457e-08, -4e-08, 0))
hIsland = hIsland.add(rect(4.10961713734095e-09, 5.178099270568289e-09).transl(-1.203830560050917e-08, -4e-08, 0))
hIsland = hIsland.sub(rect(5.944505780521435e-09, -1.2419122650454118e-09).transl(-7.605346177083671e-08, -4e-08, 0))
hIsland = hIsland.add(rect(6.415983007570435e-09, 3.380227038168113e-09).transl(-8.577579928437002e-08, -3.3903782867828454e-08, 0))
hIsland = hIsland.add(rect(6.952061498272104e-09, 2.8637576897046774e-09).transl(-3.6889712570328686e-08, -4e-08, 0))
hIsland = hIsland.sub(rect(9.444344276279978e-09, -7.269826923174954e-10).transl(-8.478496564247042e-08, -3.6290742304256426e-08, 0))
hIsland = hIsland.add(rect(3.803696759882954e-09, 4.159993847226652e-10).transl(-1.2748291731672486e-08, -4e-08, 0))
hIsland = hIsland.add(rect(6.334549576023763e-09, 1.0241975842895217e-09).transl(-6.762558523786808e-08, -4e-08, 0))
hIsland = hIsland.sub(rect(6.179852486314723e-09, -1.0123493133985511e-09).transl(5.457424560436554e-08, -4e-08, 0))
hIsland = hIsland.sub(rect(7.499356693552742e-09, -6.20994560838045e-11).transl(7.858188343890397e-08, -4e-08, 0))
hIsland = hIsland.sub(rect(4.012171918084958e-09, -5.292086078924705e-09).transl(3.831818196082482e-08, -4e-08, 0))
hIsland = hIsland.sub(rect(3.4953915499968968e-09, -4.937049377822612e-09).transl(-8.206981967734124e-08, -3.9716398543220425e-08, 0))
hIsland = hIsland.sub(rect(6.159045277992996e-09, -4.618152162211004e-10).transl(-8.211704081200144e-09, -4e-08, 0))
hIsland = hIsland.sub(rect(2.2248922371732676e-09, -1.5428306010343665e-09).transl(1.2178290783214889e-08, -4e-08, 0))
hIsland = hIsland.add(rect(9.603819398648023e-09, 4.135641607533676e-09).transl(-8.724175696684761e-08, -2.8817165654890874e-08, 0))
hIsland = hIsland.add(rect(4.315198635034666e-09, 2.170690653425888e-09).transl(-1.3355094872907699e-08, -4e-08, 0))
hIsland = hIsland.add(rect(7.904351110534377e-09, 3.1504537914092314e-09).transl(3.093085187680556e-08, -4e-08, 0))
hIsland = hIsland.sub(rect(4.637384399684254e-09, -8.193336272229217e-10).transl(7.245002484951973e-08, -4e-08, 0))
hIsland = hIsland.sub(rect(9.475865853858926e-09, -4.693149078577846e-09).transl(4.251970968458287e-08, -4e-08, 0))
hIsland = hIsland.add(rect(3.1194306225277036e-09, 1.256933433810168e-09).transl(-6.401224799932966e-08, -4e-08, 0))
hIsland = hIsland.add(rect(3.1620612188322515e-09, 2.149750132126986e-09).transl(-3.7043668567292366e-08, -4e-08, 0))
hIsland = hIsland.add(rect(3.2005584804683127e-09, 1.535151734284652e-09).transl(-2.3165775754657812e-08, -4e-08, 0))
hIsland = hIsland.sub(rect(3.3043504142574424e-09, -1.552630432845525e-09).transl(1.0685376148004575e-08, -4e-08, 0))
hIsland = hIsland.add(rect(5.652981265848648e-09, 2.865463150103675e-09).transl(-7.680759955283667e-08, -4e-08, 0))
hIsland = hIsland.sub(rect(8.596792518832026e-09, -3.732092581747893e-09).transl(3.101098071055801e-08, -4e-08, 0))
hIsland = hIsland.sub(rect(2.5587762518584293e-09, -4.6027968385150726e-10).transl(3.838610511522112e-08, -4e-08, 0))
hIsland = hIsland.add(rect(7.605807695917341e-09, 9.58089196108997e-10).transl(-1.8510368279220622e-08, -4e-08, 0))
hIsland = hIsland.add(rect(3.5107725712410674e-09, 1.1448280029773965e-09).transl(-5.9519784105131304e-08, -4e-08, 0))
hIsland = hIsland.sub(rect(4.047229840709715e-09, -1.6800473807288138e-10).transl(6.839301457723916e-08, -4e-08, 0))
hIsland = hIsland.sub(rect(6.748124790832702e-09, -3.134538144041908e-10).transl(5.06828923385964e-08, -4e-08, 0))
hIsland = hIsland.sub(rect(5.9480552453112e-09, -1.697082545445629e-09).transl(-7.291823299839391e-08, -4e-08, 0))
hIsland = hIsland.add(rect(3.6924566781499915e-09, 7.471904442059046e-10).transl(-5.674903567538802e-08, -4e-08, 0))
hIsland = hIsland.add(rect(7.23763187604807e-09, 1.6826180131599307e-10).transl(-8.643869733656785e-08, -3.187028378083278e-08, 0))
hIsland = hIsland.add(rect(6.361383204983641e-09, 2.9134531425087375e-09).transl(8.719822457820105e-08, -2.9002175168551566e-08, 0))
hIsland = hIsland.sub(rect(4.928121201150505e-09, -3.3772738995594497e-10).transl(3.12830340668206e-08, -4e-08, 0))
hIsland = hIsland.sub(rect(2.8944023241463572e-09, -3.914215833614848e-09).transl(4.85850888429996e-08, -4e-08, 0))
hIsland = hIsland.sub(rect(9.879168379374666e-09, -4.10839204934191e-09).transl(-1.811151262172303e-08, -4e-08, 0))
hIsland = hIsland.sub(rect(2.7378236831103602e-09, -4.41550399529809e-09).transl(4.527401018110591e-08, -4e-08, 0))
hIsland = hIsland.sub(rect(5.70754463552792e-09, -9.803664534734301e-10).transl(-6.678540695021235e-08, -4e-08, 0))
hIsland = hIsland.sub(rect(3.2519314955154573e-09, -7.297797543294451e-10).transl(1.554383957061438e-08, -4e-08, 0))
hIsland = hIsland.sub(rect(5.171591810631717e-09, -1.245870940986948e-09).transl(4.612022998673685e-09, -4e-08, 0))
hIsland = hIsland.add(rect(9.669922708472886e-09, 3.8765862265811985e-09).transl(3.721321236955061e-08, -4e-08, 0))
hIsland = hIsland.sub(rect(2.6496356921599696e-09, -4.151937952841343e-09).transl(6.457708065989858e-08, -4e-08, 0))
hIsland = hIsland.sub(rect(5.362068839695681e-09, -2.3968525090053102e-09).transl(4.090207026293665e-08, -4e-08, 0))
hIsland = hIsland.sub(rect(8.871320989392807e-09, -1.226535035739094e-09).transl(3.7285917131740964e-08, -4e-08, 0))
hIsland = hIsland.sub(rect(2.038706569418331e-09, -5.644700541018062e-10).transl(7.455296571542465e-08, -4e-08, 0))
hIsland = hIsland.sub(rect(4.197502400680491e-09, -2.6592598293947135e-09).transl(8.427773594933436e-08, -3.7252941763747474e-08, 0))
hIsland = hIsland.add(rect(4.88887337802639e-09, 8.052934665555435e-10).transl(-5.360662354415532e-08, -4e-08, 0))
hIsland = hIsland.sub(rect(2.2510977174382605e-09, -1.273237116948611e-09).transl(-3.2610378255470815e-08, -4e-08, 0))
hIsland = hIsland.sub(rect(7.458144597172175e-09, -1.0888879580683721e-09).transl(7.973069905845997e-08, -4e-08, 0))
hIsland = hIsland.add(rect(8.036456693043186e-09, 2.3448758412098976e-09).transl(-6.043836848224695e-08, -4e-08, 0))
hIsland = hIsland.add(rect(9.533554966065215e-09, 1.958953864683307e-09).transl(7.006536275245513e-08, -4e-08, 0))
hIsland = hIsland.add(rect(7.847555250993462e-09, 1.7785180899941036e-09).transl(-2.9590421770180067e-08, -4e-08, 0))
hIsland = hIsland.add(rect(3.080458967912985e-09, 1.3458981818797498e-09).transl(-7.63403724460822e-08, -4e-08, 0))
hIsland = hIsland.add(rect(7.092886617812889e-09, 2.3223626990043364e-10).transl(5.0129300980371644e-08, -4e-08, 0))
hIsland = hIsland.add(rect(8.210052130758897e-09, 8.504191486672919e-10).transl(-4.797512537969296e-08, -4e-08, 0))
hIsland = hIsland.add(rect(5.118331605485242e-09, 2.876285785773187e-09).transl(4.996567631033011e-08, -4e-08, 0))
hIsland = hIsland.add(rect(3.1273124829716475e-09, 5.546185279883146e-10).transl(3.0695771820558154e-08, -4e-08, 0))
hIsland = hIsland.sub(rect(8.809018292828464e-09, -2.9938932648560733e-09).transl(-5.599421336599019e-08, -4e-08, 0))
hIsland = hIsland.add(rect(7.490751500870167e-09, 2.269743698964238e-09).transl(5.97515722839502e-08, -4e-08, 0))
hIsland = hIsland.add(rect(3.745675653115422e-09, 7.866944280993269e-10).transl(2.313949905483587e-08, -4e-08, 0))
hIsland = hIsland.add(rect(4.0816409041219074e-09, 1.5535557505429014e-10).transl(-4.232144016516322e-08, -4e-08, 0))
hIsland = hIsland.sub(rect(7.145435598892106e-09, -2.6112871741116125e-09).transl(2.97393867759213e-09, -4e-08, 0))
hIsland = hIsland.sub(rect(6.403910351271286e-09, -2.2326395225932205e-10).transl(2.2631376021497127e-08, -4e-08, 0))
hIsland = hIsland.add(rect(8.577757469515696e-09, 1.3549717126322166e-09).transl(-3.446201718024818e-08, -4e-08, 0))
hIsland = hIsland.sub(rect(6.942858377885876e-09, -1.9980511323853043e-09).transl(2.030793316782631e-08, -4e-08, 0))
hIsland = hIsland.add(rect(8.581912875792998e-09, 1.8780522203237102e-09).transl(2.033523740171156e-08, -4e-08, 0))
hIsland = hIsland.add(rect(9.04080328752648e-09, 3.495843320826218e-10).transl(-2.942663706684585e-08, -4e-08, 0))
hIsland = hIsland.sub(rect(4.951375965969635e-09, -2.8055288853237436e-10).transl(-3.957441687113196e-08, -4e-08, 0))
hIsland = hIsland.sub(rect(8.935331495715972e-09, -4.6821690800955665e-09).transl(2.75942330216774e-08, -4e-08, 0))
hIsland = hIsland.add(rect(6.742242293117483e-09, 1.1825792080922705e-09).transl(7.899572444981918e-08, 4e-08, 0))
hIsland = hIsland.sub(rect(8.09392278528732e-09, -1.3269901292319278e-09).transl(1.1097496618055916e-08, 4e-08, 0))
hIsland = hIsland.add(rect(2.3772102826352708e-09, 1.2303282517822277e-09).transl(-6.516297653005759e-08, 4e-08, 0))
hIsland = hIsland.sub(rect(5.1388633255523445e-09, -1.531008797913932e-09).transl(4.278368983143955e-08, 4e-08, 0))
hIsland = hIsland.sub(rect(8.540002034847572e-09, -1.5158536556445947e-09).transl(-3.64834557176769e-08, 4e-08, 0))
hIsland = hIsland.add(rect(6.7190681786248455e-09, 2.6311577993172926e-09).transl(-1.0524660524690199e-08, 4e-08, 0))
hIsland = hIsland.sub(rect(7.614368160618683e-09, -8.098757710103775e-10).transl(5.3265231504795385e-08, 4e-08, 0))
hIsland = hIsland.sub(rect(4.8924290901009794e-09, -1.3489146625831956e-09).transl(6.460362703159569e-08, 4e-08, 0))
hIsland = hIsland.add(rect(6.487068175709858e-09, 8.962688984742073e-10).transl(6.279841457690466e-08, 4e-08, 0))
hIsland = hIsland.sub(rect(5.550216661343729e-09, -3.8686362499778204e-09).transl(-1.9095416309035537e-08, 4e-08, 0))
hIsland = hIsland.add(rect(7.3339039845676765e-09, 1.6419484192637754e-09).transl(6.212750631309873e-08, 4e-08, 0))
hIsland = hIsland.add(rect(9.794969157505002e-09, 2.32780964907521e-09).transl(7.589979728719432e-09, 4e-08, 0))
hIsland = hIsland.add(rect(8.964363972354944e-09, 3.6642587038409615e-10).transl(5.6481661976523774e-09, 4e-08, 0))
hIsland = hIsland.add(rect(2.529908858314947e-09, 1.1006934177038928e-10).transl(-7.707649389630349e-08, 4e-08, 0))
hIsland = hIsland.sub(rect(7.611159829110872e-09, -5.1086927570605764e-09).transl(-1.3191930023074502e-08, 4e-08, 0))
hIsland = hIsland.add(rect(8.022732114733656e-09, 4.628780753207631e-10).transl(1.4369078143420763e-08, 4e-08, 0))
hIsland = hIsland.sub(rect(3.625446902460155e-09, -3.3095425783748023e-09).transl(1.2374329192571529e-08, 4e-08, 0))
hIsland = hIsland.sub(rect(7.831512349757083e-09, -2.818040991719743e-09).transl(-7.151320541840422e-08, 4e-08, 0))
hIsland = hIsland.add(rect(3.408457650424544e-09, 3.5745618902534457e-10).transl(-4.131963239821787e-09, 4e-08, 0))
hIsland = hIsland.sub(rect(7.445756168565952e-09, -5.808859532370909e-10).transl(4.7618531555300815e-09, 4e-08, 0))
hIsland = hIsland.add(rect(2.1506035925731828e-09, 4.12281966712304e-10).transl(-2.0154688732489308e-08, 4e-08, 0))
hIsland = hIsland.add(rect(2.5008314923344693e-09, 1.8767974107286438e-09).transl(5.354427247878553e-08, 4e-08, 0))
hIsland = hIsland.sub(rect(6.777072656833532e-09, -3.0545116680714364e-10).transl(2.1269298031311604e-08, 4e-08, 0))
hIsland = hIsland.add(rect(7.940641494355423e-09, 2.692223658305729e-09).transl(-4.9965916678611436e-08, 4e-08, 0))
hIsland = hIsland.add(rect(5.895635750433197e-09, 1.227685503607568e-09).transl(-5.317304342622169e-08, 4e-08, 0))
hIsland = hIsland.add(rect(8.014493717373514e-09, 2.6311703464870663e-09).transl(2.1292363482900295e-08, 4e-08, 0))
hIsland = hIsland.add(rect(4.122936456542392e-09, 2.1746435538283163e-11).transl(-7.251403323915729e-08, 4e-08, 0))
hIsland = hIsland.sub(rect(6.400548865587639e-09, -1.0517811757812512e-10).transl(6.547410956605027e-09, 4e-08, 0))
hIsland = hIsland.add(rect(5.5028697005015034e-09, 9.554382612760874e-11).transl(-8.826661652900225e-08, 2.360007709568132e-08, 0))
hIsland = hIsland.sub(rect(7.798254764939346e-09, -2.142682371168959e-09).transl(3.848234451230913e-08, 4e-08, 0))
hIsland = hIsland.sub(rect(7.984245108427001e-09, -2.910194541153978e-09).transl(-4.451520044325556e-08, 4e-08, 0))
hIsland = hIsland.add(rect(3.7009472639183355e-09, 1.0499539676720038e-09).transl(-7.694391100636245e-08, 4e-08, 0))
hIsland = hIsland.add(rect(5.283658977979377e-09, 1.402453876375943e-09).transl(5.03225650798323e-08, 4e-08, 0))
hIsland = hIsland.add(rect(8.211423346985651e-09, 2.7853144998512406e-09).transl(7.519874349242878e-08, 4e-08, 0))
hIsland = hIsland.sub(rect(2.1019698223292326e-09, -2.991392159717749e-09).transl(-4.119394125865368e-08, 4e-08, 0))
hIsland = hIsland.add(rect(4.083472813285396e-09, 2.7805614524140644e-09).transl(-4.330748471286263e-08, 4e-08, 0))
hIsland = hIsland.sub(rect(8.902399732869793e-09, -7.135042559636388e-10).transl(-6.861753785516613e-09, 4e-08, 0))
hIsland = hIsland.add(rect(5.045615664468196e-09, 9.678212595667043e-10).transl(5.921989919445939e-08, 4e-08, 0))
hIsland = hIsland.add(rect(4.771496579663513e-09, 2.453055318237711e-09).transl(-7.135495260175639e-08, 4e-08, 0))
hIsland = hIsland.add(rect(7.259564802218324e-09, 1.671318732962099e-09).transl(-3.3035431395172084e-08, 4e-08, 0))
hIsland = hIsland.add(rect(4.683170098883646e-09, 3.6358481160034416e-09).transl(6.668558569084195e-08, 4e-08, 0))
hIsland = hIsland.add(rect(6.796208293042493e-09, 1.8092039138192e-09).transl(1.0338356587052348e-08, 4e-08, 0))
hIsland = hIsland.add(rect(7.312962064981456e-09, 1.7956214671133533e-09).transl(5.100610326904901e-08, 4e-08, 0))
hIsland = hIsland.sub(rect(6.553197106333878e-09, -3.1803871907087083e-10).transl(4.3573506331004036e-08, 4e-08, 0))
hIsland = hIsland.add(rect(4.73709432022304e-09, 1.511508024701892e-09).transl(3.04998208359911e-08, 4e-08, 0))
hIsland = hIsland.add(rect(4.0627966364548424e-09, 7.644049223899776e-10).transl(6.865252371049578e-08, 4e-08, 0))
hIsland = hIsland.sub(rect(5.190071533278995e-09, -1.2006740343137942e-09).transl(2.3351793944361956e-08, 4e-08, 0))
hIsland = hIsland.add(rect(4.7128215680224515e-09, 1.7056056315660269e-09).transl(6.980481687027704e-08, 4e-08, 0))
hIsland = hIsland.sub(rect(6.794580482114474e-09, -5.888627491911316e-10).transl(-2.5157108729982165e-08, 4e-08, 0))
hIsland = hIsland.add(rect(2.239680420100874e-09, 4.77957346261349e-09).transl(4.070143282494465e-08, 4e-08, 0))
hIsland = hIsland.sub(rect(4.6188766335644095e-09, -4.036513952763126e-09).transl(-3.440050696934755e-08, 4e-08, 0))
hIsland = hIsland.add(rect(7.384613751796626e-09, 3.0067820235519844e-09).transl(8.418841027663298e-08, 3.740576040879563e-08, 0))
hIsland = hIsland.add(rect(5.493036001185639e-09, 2.366270570054719e-09).transl(-2.218028188125815e-09, 4e-08, 0))
hIsland = hIsland.sub(rect(2.3296076245525237e-09, -1.3863688648735644e-10).transl(-7.260666884094058e-08, 4e-08, 0))
hIsland = hIsland.add(rect(2.697655053726737e-09, 4.842036799029771e-10).transl(8.066899095453134e-08, 4e-08, 0))
hIsland = hIsland.sub(rect(5.481928255553302e-09, -8.754888128480451e-10).transl(-4.1612523926228735e-08, 4e-08, 0))
hIsland = hIsland.sub(rect(2.7771669424144623e-09, -1.7649363037883488e-09).transl(4.463985060469901e-08, 4e-08, 0))
hIsland = hIsland.add(rect(6.089140469694656e-09, 2.726939710422309e-09).transl(-5.515861696604905e-09, 4e-08, 0))
hIsland = hIsland.add(rect(5.509390662896577e-09, 1.5907696590673965e-09).transl(5.865275091205626e-08, 4e-08, 0))
hIsland = hIsland.add(rect(2.447911662245903e-09, 5.357912464124896e-09).transl(-7.496996071850868e-08, 4e-08, 0))
hIsland = hIsland.add(rect(5.374940188500799e-09, 2.187784381861922e-10).transl(-8.891891466580933e-08, 1.9007881674211907e-08, 0))
hIsland = hIsland.sub(rect(2.8372965627349975e-09, -1.0791048580764834e-09).transl(4.752140543076584e-08, 4e-08, 0))
hIsland = hIsland.sub(rect(9.929489258984002e-09, -3.638308704385944e-09).transl(7.22246181455922e-08, 4e-08, 0))
hIsland = hIsland.add(rect(9.92559428348785e-09, 2.2843271815433478e-09).transl(2.133316128296635e-08, 4e-08, 0))
hIsland = hIsland.sub(rect(5.91498084590815e-09, -1.5060492080015176e-09).transl(-6.448041248812602e-09, 4e-08, 0))
hIsland = hIsland.sub(rect(6.543824149971945e-09, -6.235274958790029e-11).transl(-5.394093345788229e-08, 4e-08, 0))
hIsland = hIsland.add(rect(3.4112947097910056e-09, 5.831875455733185e-09).transl(-6.905753687964663e-08, 4e-08, 0))
hIsland = hIsland.add(rect(4.4815304843140434e-09, 1.7628338170239463e-09).transl(1.862888001885886e-08, 4e-08, 0))
hIsland = hIsland.add(rect(2.615453621906362e-09, 4.5152909950432444e-10).transl(-1.2807929965555818e-08, 4e-08, 0))
hIsland = hIsland.sub(rect(5.951131150680481e-09, -9.719707110383798e-11).transl(4.455877241914659e-08, 4e-08, 0))
hIsland = hIsland.sub(rect(6.093662961516969e-09, -3.128702753673277e-09).transl(-5.378862156454966e-08, 4e-08, 0))
hIsland = hIsland.add(rect(8.392170254110014e-09, 2.890095673071356e-09).transl(-6.102941167185706e-08, 4e-08, 0))
hIsland = hIsland.sub(rect(6.0508127034673655e-09, -2.777209155913559e-10).transl(4.1309066427634924e-08, 4e-08, 0))
hIsland = hIsland.sub(rect(5.437717378269243e-09, -1.2845708253363578e-09).transl(-2.8244932730232878e-08, 4e-08, 0))
hIsland = hIsland.add(rect(3.6747678796610733e-09, 4.676335006909708e-10).transl(-8.43842744155451e-08, 3.7064291605306576e-08, 0))
hIsland = hIsland.add(rect(8.869522989384261e-09, 1.7348386900708198e-09).transl(4.033451822564335e-08, 4e-08, 0))
hIsland = hIsland.sub(rect(4.240574952418905e-09, -5.04564162644884e-10).transl(-2.014998940784191e-08, 4e-08, 0))
hIsland = hIsland.add(rect(8.50629631991568e-09, 1.6027348618937854e-09).transl(-5.844118582563967e-08, 4e-08, 0))
hIsland = hIsland.sub(rect(2.9873870681222797e-09, -6.808260814451555e-10).transl(-4.877302386032332e-08, 4e-08, 0))
hIsland = hIsland.add(rect(6.87622817183968e-09, 2.5249433805103935e-09).transl(7.660584940231974e-09, 4e-08, 0))
hIsland = hIsland.sub(rect(8.191948451195824e-09, -4.75756143977897e-10).transl(-3.443999458639894e-08, 4e-08, 0))
hIsland = hIsland.sub(rect(3.0832245213504355e-09, -1.0323733575105601e-09).transl(6.549822309615006e-08, 4e-08, 0))
hIsland = hIsland.add(rect(8.929599001775863e-09, 3.1055546697599863e-09).transl(8.910478369424251e-08, 1.739162918814949e-08, 0))
hIsland = hIsland.add(rect(8.343954391680602e-09, 3.8331951741882127e-10).transl(8.265404601708998e-08, 3.931867442432289e-08, 0))
hIsland = hIsland.sub(rect(4.562439694172518e-09, -1.6945482039990133e-09).transl(2.377281281460342e-08, 4e-08, 0))
hIsland = hIsland.add(rect(3.938110350348125e-09, 2.3211144514294056e-09).transl(4.785170059330438e-08, 4e-08, 0))
hIsland = hIsland.sub(rect(8.927537729767714e-09, -1.8251146320974559e-09).transl(-2.7958420108694106e-08, 4e-08, 0))
hIsland = hIsland.add(rect(9.636370611822517e-09, 2.09224077801965e-09).transl(-8.673141465310202e-08, 3.084037311401255e-08, 0))
hIsland = hIsland.sub(rect(5.96071366301046e-09, -1.2987469776362107e-09).transl(-3.433511472906311e-08, 4e-08, 0))
hIsland = hIsland.add(rect(2.2299910212264343e-09, 3.4418810679359735e-10).transl(6.257515888473844e-08, 4e-08, 0))
hIsland = hIsland.add(rect(7.605488212107629e-09, 6.356965159490556e-10).transl(-2.8849403566410404e-08, 4e-08, 0))
hIsland = hIsland.add(rect(6.4830310396152925e-09, 1.9871430382959373e-09).transl(-7.946867551869685e-09, 4e-08, 0))
hIsland = hIsland.sub(rect(7.622012437845005e-09, -6.087956367186744e-10).transl(-4.683407174277869e-08, 4e-08, 0))
hIsland = hIsland.add(rect(9.074068910875233e-09, 9.43160914631259e-10).transl(-4.258134437848036e-08, 4e-08, 0))
hIsland = hIsland.add(rect(4.897225553271144e-09, 1.1269982702623946e-09).transl(4.863200271743226e-08, 4e-08, 0))
hIsland = hIsland.sub(rect(3.4994994385160605e-09, -4.72433096914836e-10).transl(-3.51193318037217e-08, 4e-08, 0))
hIsland = hIsland.add(rect(2.1160743861626347e-09, 4.0573718697900853e-10).transl(5.248668585056143e-08, 4e-08, 0))
hIsland = hIsland.sub(rect(8.793125343682187e-09, -1.3633796892928776e-09).transl(-7.422405812178144e-08, 4e-08, 0))
hIsland = hIsland.sub(rect(4.3997046278043774e-09, -3.83113389488964e-10).transl(-8.729693399315445e-08, 2.857906417904972e-08, 0))
hIsland = hIsland.sub(rect(2.197465632337325e-09, -3.354554695132079e-09).transl(3.53487745238127e-08, 4e-08, 0))
hIsland = hIsland.sub(rect(7.255585026472702e-09, -3.1395432865280306e-09).transl(-1.4584544101849711e-08, 4e-08, 0))
hIsland = hIsland.sub(rect(6.393558083735741e-09, -1.0118091567516882e-09).transl(5.3423124446838455e-08, 4e-08, 0))
hIsland = hIsland.sub(rect(9.858789964557326e-09, -3.597920548488308e-09).transl(5.65578090135049e-08, 4e-08, 0))
hIsland = hIsland.sub(rect(2.887793333226044e-09, -2.2992129913787263e-09).transl(-7.099778402964901e-08, 4e-08, 0))
hIsland = hIsland.sub(rect(5.438678843958935e-09, -3.043584829967292e-10).transl(6.607122073367989e-08, 4e-08, 0))
hIsland = hIsland.add(rect(9.697740644997357e-09, 4.036459558639199e-09).transl(-8.727562778850452e-08, 2.867148826295627e-08, 0))
hIsland = hIsland.sub(rect(6.26250619743166e-09, -2.1600192161738347e-09).transl(-5.173217255821858e-08, 4e-08, 0))
hIsland = hIsland.sub(rect(2.533293363507299e-09, -3.987409355924992e-09).transl(-8.459761891988173e-08, 3.666522235736131e-08, 0))
hIsland = hIsland.sub(rect(2.1535285522131115e-09, -1.6666334449188984e-10).transl(-3.7860445525256985e-09, 4e-08, 0))
hIsland = hIsland.sub(rect(3.868662799357075e-09, -2.503327724464792e-10).transl(-1.9081868234800547e-08, 4e-08, 0))
hIsland = hIsland.sub(rect(6.073402150270055e-09, -1.2902482677184091e-09).transl(-8.687161021747702e-08, 3.031495363523685e-08, 0))
hIsland = hIsland.add(rect(5.814808799363591e-09, 7.617768900375406e-10).transl(-8.723928320089938e-08, 2.8827745599082683e-08, 0))
hIsland = hIsland.add(rect(7.566197806540069e-09, 4.441124572222307e-11).transl(-3.828130842109989e-08, 4e-08, 0))
hIsland = hIsland.add(rect(7.115290754715788e-09, 2.332323342693344e-09).transl(-8.597071193473745e-08, 3.334578222703756e-08, 0))
hIsland = hIsland.add(rect(2.860714645117181e-09, 2.6880221161357663e-10).transl(8.330316891467863e-08, 3.866804926020055e-08, 0))
hIsland = hIsland.sub(rect(6.077793680541429e-09, -2.110235382050068e-09).transl(-6.807740675046103e-08, 4e-08, 0))
hIsland = hIsland.sub(rect(3.973400851497676e-09, -1.6940157255551716e-09).transl(-5.099990475789614e-08, 4e-08, 0))
hIsland = hIsland.add(rect(3.994770038456518e-09, 2.831285519219452e-09).transl(-1.8353043449304527e-08, 4e-08, 0))
hIsland = hIsland.sub(rect(6.9746351982391094e-09, -5.236898570973477e-10).transl(-5.949430917542936e-08, 4e-08, 0))
hIsland = hIsland.add(rect(3.859467959764975e-09, 2.783464268784359e-09).transl(-5.3160877305846954e-08, 4e-08, 0))
hIsland = hIsland.sub(rect(2.9475709336279366e-09, -1.5347077590465754e-09).transl(7.543603872898789e-08, 4e-08, 0))
hIsland = hIsland.add(rect(2.7936120177612606e-09, 1.0034679012011637e-09).transl(-1.541620367350036e-09, 4e-08, 0))
hIsland = hIsland.sub(rect(5.197696773791668e-09, -1.512106747862664e-09).transl(3.214747565012884e-08, 4e-08, 0))
hIsland = hIsland.sub(rect(5.623895816527137e-09, -1.5238889604078297e-09).transl(1.1342337545003089e-08, 4e-08, 0))
hIsland = hIsland.sub(rect(8.474482123682433e-09, -1.7700054001850123e-09).transl(7.264059697882935e-08, 4e-08, 0))
hIsland = hIsland.sub(rect(6.0729817801631865e-09, -2.3547902418467673e-09).transl(5.337022884145779e-08, 4e-08, 0))
hIsland = hIsland.sub(rect(2.1110309668804615e-09, -2.6395779979279612e-09).transl(8.50112683886767e-08, 3.580736551970545e-08, 0))
hIsland = hIsland.sub(rect(9.030867596840836e-09, -5.607278723402432e-10).transl(-7.563521122121918e-08, 4e-08, 0))
hIsland = hIsland.sub(rect(2.5424514620526333e-09, -1.0483171192492794e-09).transl(5.7456800405430175e-08, 4e-08, 0))
hIsland = hIsland.sub(rect(6.709405354830789e-09, -7.997137932493489e-10).transl(2.674143845995787e-08, 4e-08, 0))
hIsland = hIsland.sub(rect(4.563981850851472e-09, -1.1446878155204341e-09).transl(-4.225062985923494e-08, 4e-08, 0))
hIsland = hIsland.sub(rect(7.60807146965644e-09, -1.43560698399926e-09).transl(-1.6157240573011927e-08, 4e-08, 0))
hIsland = hIsland.sub(rect(5.890922911462406e-09, -1.2243448708545962e-09).transl(7.468902003221648e-08, 4e-08, 0))
hIsland = hIsland.sub(rect(2.4738695792996614e-09, -1.1799208699233238e-09).transl(7.47643701165645e-08, 4e-08, 0))
hIsland = hIsland.sub(rect(6.95596531572328e-09, -3.096415223321501e-09).transl(-5.595011983282652e-08, 4e-08, 0))
hIsland = hIsland.add(rect(8.206757208113921e-09, 4.7224408653435334e-12).transl(7.297670837026121e-08, 4e-08, 0))
hIsland = hIsland.add(rect(6.007919449113661e-09, 2.8440943690794337e-09).transl(-1.8897255108952722e-08, 4e-08, 0))
hIsland = hIsland.add(rect(2.1743642534357443e-09, 6.094935157579135e-10).transl(7.33931054650644e-08, 4e-08, 0))
hIsland = hIsland.sub(rect(4.16988190324783e-09, -4.3312359214510025e-10).transl(1.5400717821302044e-08, 4e-08, 0))
hIsland = hIsland.add(rect(8.35812936518817e-09, 1.4228853404438585e-09).transl(9.987819113436957e-09, 4e-08, 0))
hIsland = hIsland.add(rect(8.780331127606487e-09, 3.20179926074184e-09).transl(1.6342939663130256e-08, 4e-08, 0))
hIsland = hIsland.add(rect(8.057853357484182e-09, 1.0665391122887545e-09).transl(-3.7225940180350724e-08, 4e-08, 0))
hIsland = hIsland.add(rect(6.157500436127514e-09, 3.796221516384194e-09).transl(1.4671486504281994e-09, 4e-08, 0))
hIsland = hIsland.sub(rect(8.960144892266095e-09, -1.4439548761467222e-09).transl(-7.659121951267016e-08, 4e-08, 0))
hIsland = hIsland.add(rect(2.2391501118179295e-09, 1.3089844192410285e-09).transl(-4.762846199501066e-08, 4e-08, 0))
hIsland = hIsland.sub(rect(4.698913201744008e-09, -2.7198712554881325e-09).transl(5.738469184731924e-08, 4e-08, 0))
hIsland = hIsland.sub(rect(7.568745664368325e-09, -1.5140698886025378e-09).transl(-2.2411521262929097e-08, 4e-08, 0))
hIsland = hIsland.sub(rect(9.655840732901696e-09, -1.4253237697495742e-09).transl(-3.822861189909266e-08, 4e-08, 0))
hIsland = hIsland.sub(rect(3.3166274819291993e-09, -2.5877572245219824e-09).transl(6.586989665689606e-08, 4e-08, 0))
hIsland = hIsland.add(rect(7.881899676580375e-09, 1.4841519970796538e-09).transl(-5.3430558686133475e-08, 4e-08, 0))
hIsland = hIsland.add(rect(2.7032665762598544e-09, 2.3502903963742476e-09).transl(6.866368934406692e-08, 4e-08, 0))
hIsland = hIsland.sub(rect(8.269196189547e-09, -3.937030191535787e-09).transl(6.839785055469669e-08, 4e-08, 0))
hIsland = hIsland.add(rect(3.523854221079427e-09, 9.807624085556994e-10).transl(8.082885111258336e-08, 4e-08, 0))
hIsland = hIsland.add(rect(8.611219009726543e-09, 6.294046293466773e-10).transl(8.471491318741404e-08, 3.643344549743227e-08, 0))
hIsland = hIsland.sub(rect(8.50409322292832e-09, -5.031853528311514e-10).transl(7.251713649816141e-08, 4e-08, 0))
hIsland = hIsland.add(rect(4.833965204439699e-09, 3.163238569281114e-10).transl(-6.378713921857992e-08, 4e-08, 0))
hIsland = hIsland.sub(rect(9.579237606511694e-09, -3.568906913926606e-10).transl(4.775154248633291e-08, 4e-08, 0))
hIsland = hIsland.add(rect(7.267535510522021e-09, 3.959062364921255e-09).transl(8.489228831067906e-08, 3.606580863128085e-08, 0))
hIsland = hIsland.sub(rect(5.740973067326488e-09, -1.960139541564028e-09).transl(-6.000286695549876e-08, 4e-08, 0))
hIsland = hIsland.add(rect(2.4904814202013655e-09, 6.393271688977721e-10).transl(-3.949072281145935e-08, 4e-08, 0))
hIsland = hIsland.add(rect(8.178251028860846e-09, 1.0361392017481538e-09).transl(6.449509111830989e-08, 4e-08, 0))
hIsland = hIsland.sub(rect(5.644777960111031e-09, -4.424725800089711e-10).transl(-3.6554336381664555e-08, 4e-08, 0))
hIsland = hIsland.add(rect(6.813308987437087e-09, 8.487502714659053e-10).transl(3.3465501523224355e-08, 4e-08, 0))
hIsland = hIsland.sub(rect(9.686158768940605e-09, -2.380109140249921e-09).transl(-2.1429082631616275e-09, 4e-08, 0))
hIsland = hIsland.sub(rect(2.2301573611207825e-09, -1.6805206595839376e-09).transl(1.8535893000740714e-08, 4e-08, 0))
hIsland = hIsland.add(rect(2.5934563259538587e-09, 2.6894836845898163e-09).transl(6.122935854514553e-08, 4e-08, 0))
hIsland = hIsland.sub(rect(2.0362940436609236e-09, -1.1308798285990826e-09).transl(5.913224611525286e-08, 4e-08, 0))
hIsland = hIsland.sub(rect(6.266681605246046e-09, -1.8875622602140225e-10).transl(8.251643836764544e-08, 3.9428112970161405e-08, 0))
hIsland = hIsland.sub(rect(8.206206645253055e-09, -3.1362516343707825e-09).transl(-6.798074279023065e-09, 4e-08, 0))
hIsland = hIsland.add(rect(7.158951798883236e-09, 3.965269073816589e-10).transl(-4.660112672517947e-08, 4e-08, 0))
hIsland = hIsland.add(rect(9.60339020393429e-09, 4.268585141186599e-09).transl(2.2414671668136892e-09, 4e-08, 0))
hIsland = hIsland.add(rect(6.770047882393084e-09, 6.4567417031547e-10).transl(-8.627707488574026e-08, 3.24025545861653e-08, 0))
hIsland = hIsland.add(rect(3.979721443723632e-09, 2.8722729215795273e-09).transl(2.451363587967715e-08, 4e-08, 0))
hIsland = hIsland.add(rect(5.64206540928956e-09, 3.3319030703407503e-09).transl(8.837651301603897e-08, 2.291672771944258e-08, 0))
hIsland = hIsland.add(rect(6.710645932054897e-09, 7.698252283728704e-10).transl(1.1582525991916533e-09, 4e-08, 0))
hIsland = hIsland.sub(rect(6.49462862109626e-09, -1.0130582755006028e-09).transl(-6.310809665653888e-08, 4e-08, 0))
hIsland = hIsland.sub(rect(7.554532181340387e-09, -8.142502831237687e-12).transl(-8.37282902022421e-08, 3.8117798589771246e-08, 0))
hIsland = hIsland.sub(rect(9.734413116708925e-09, -7.634370452885578e-10).transl(-7.6810867300113e-08, 4e-08, 0))
hIsland = hIsland.add(rect(6.399111794323671e-09, 5.358038613305651e-10).transl(-1.626473172595452e-08, 4e-08, 0))
hIsland = hIsland.sub(rect(6.630457989424929e-09, -2.7170932483250403e-09).transl(7.967188437393408e-08, 4e-08, 0))
hIsland = hIsland.add(rect(8.744917561744402e-09, 1.3040714050936833e-10).transl(6.950028347072435e-08, 4e-08, 0))
hIsland = hIsland.add(rect(5.684647938634243e-09, 2.1684589083546067e-09).transl(-4.905273653988544e-08, 4e-08, 0))
hIsland = hIsland.add(rect(3.355887075338185e-09, 1.826449968937893e-09).transl(-3.132179631623819e-08, 4e-08, 0))
hIsland = hIsland.sub(rect(3.464976051456794e-09, -4.755994383374588e-09).transl(-6.602944608168761e-08, 4e-08, 0))
hIsland = hIsland.add(rect(9.000185537837528e-09, 2.6540057500642996e-09).transl(4.752637576089362e-08, 4e-08, 0))
hIsland = hIsland.sub(rect(6.448819453109754e-09, -6.02456232324419e-10).transl(6.826365407561362e-09, 4e-08, 0))
hIsland = hIsland.add(rect(2.131551145635461e-09, 1.7924026755859927e-09).transl(1.5629232409688643e-08, 4e-08, 0))
hIsland = hIsland.add(rect(4.1512441411825735e-09, 4.4449267635556535e-10).transl(8.367993926803909e-08, 3.81854928227461e-08, 0))
hIsland = hIsland.sub(rect(2.183374916879843e-09, -9.183855156469032e-10).transl(6.364692296875073e-08, 4e-08, 0))
hIsland = hIsland.add(rect(5.908530751173678e-09, 1.7666370863887235e-09).transl(-4.161801171072736e-08, 4e-08, 0))
hIsland = hIsland.sub(rect(2.8273087790622507e-09, -3.2204342126135923e-09).transl(-5.037604929748336e-09, 4e-08, 0))
hIsland = hIsland.add(rect(3.1194916920772356e-09, 6.982133241473128e-10).transl(7.2248914297407515e-09, 4e-08, 0))
hIsland = hIsland.add(rect(8.489381820615275e-09, 1.3419521572932715e-09).transl(1.821611205212239e-08, 4e-08, 0))
hIsland = hIsland.sub(rect(9.618473952152844e-09, -7.635204388978729e-10).transl(-7.935214310055005e-08, 4e-08, 0))
hIsland = hIsland.add(rect(5.30477873212316e-09, 6.728365613340623e-11).transl(-5.442738451131778e-08, 4e-08, 0))
hIsland = hIsland.add(rect(7.621033928894294e-09, 8.188275094864727e-10).transl(-5.1131988814982e-08, 4e-08, 0))
hIsland = hIsland.sub(rect(8.365212320796545e-09, -2.807455017658925e-10).transl(-6.526035055444941e-08, 4e-08, 0))
hIsland = hIsland.sub(rect(8.770931537280786e-09, -3.9695021564694643e-11).transl(3.2964994986262806e-08, 4e-08, 0))
hIsland = hIsland.add(rect(8.439660996877556e-09, 2.2028815896742174e-09).transl(5.899446235561327e-08, 4e-08, 0))
hIsland = hIsland.add(rect(9.752855943192295e-09, 3.4448343086368546e-11).transl(-1.5645998511529496e-08, 4e-08, 0))
vIsland = hIsland.rotz(pi / 2)
hIslands = hIslands.add(hIsland.transl(-a/2, a, 0))
hIsland = rect(islandLength-2*ellipseConstant, islandWidth)
hIsland = hIsland.add(ellipse(ellipseConstant*2, islandWidth).transl(islandLength/2-ellipseConstant, 0, 0))
hIsland = hIsland.add(ellipse(ellipseConstant*2, islandWidth).transl(-islandLength/2+ellipseConstant, 0, 0))
hIsland = hIsland.sub(rect(3.015302215780749e-09, -3.6799694947977823e-10).transl(-8.987708457517839e-08, -6.588234099193808e-09, 0))
hIsland = hIsland.sub(rect(2.2575485074299185e-09, -1.296839063620527e-09).transl(5.0098417429673537e-08, -4e-08, 0))
hIsland = hIsland.sub(rect(4.615263932459362e-09, -2.887335918136237e-09).transl(-3.262525280964401e-08, -4e-08, 0))
hIsland = hIsland.sub(rect(8.276061265329149e-09, -9.847090749521004e-10).transl(-5.5911672432100404e-08, -4e-08, 0))
hIsland = hIsland.sub(rect(6.048534738937361e-09, -1.0862661180852112e-09).transl(-6.922582914265057e-09, -4e-08, 0))
hIsland = hIsland.add(rect(6.886089359317921e-09, 1.6048887863670532e-09).transl(1.4658662904664332e-08, -4e-08, 0))
hIsland = hIsland.sub(rect(4.702047702002155e-09, -4.6602838741976836e-09).transl(-1.2204820712907627e-08, -4e-08, 0))
hIsland = hIsland.add(rect(8.273379138581298e-09, 2.3911273552334125e-10).transl(-4.842458475249177e-08, -4e-08, 0))
hIsland = hIsland.sub(rect(7.683150405550605e-09, -2.2676406728761435e-09).transl(-1.4103612713232923e-08, -4e-08, 0))
hIsland = hIsland.sub(rect(8.8962978739871e-09, -9.036917218369117e-11).transl(2.3257916228107093e-08, -4e-08, 0))
hIsland = hIsland.sub(rect(9.268006835065638e-09, -3.9826380002423155e-09).transl(4.413126723888619e-08, -4e-08, 0))
hIsland = hIsland.add(rect(7.554125448971067e-09, 2.726902132087791e-10).transl(-7.767824940587409e-08, -4e-08, 0))
hIsland = hIsland.sub(rect(2.9640729212699103e-09, -6.110225234923225e-10).transl(-5.903073144533707e-08, -4e-08, 0))
hIsland = hIsland.sub(rect(7.817639313113213e-09, -1.0560931633063681e-09).transl(-3.734814515879736e-08, -4e-08, 0))
hIsland = hIsland.sub(rect(4.722883775168303e-09, -5.302011801149375e-09).transl(-3.882883693717089e-08, -4e-08, 0))
hIsland = hIsland.add(rect(4.016544951613819e-09, 7.758669048948967e-10).transl(7.496568531751618e-08, -4e-08, 0))
hIsland = hIsland.add(rect(5.068308234903811e-09, 7.259453104368329e-10).transl(-8.855595437990547e-08, -2.1731267072323303e-08, 0))
hIsland = hIsland.add(rect(9.210993015304592e-09, 7.756975028025634e-10).transl(3.2230661442448805e-08, -4e-08, 0))
hIsland = hIsland.sub(rect(2.929514064508836e-09, -1.3159702124345518e-09).transl(7.114677006224457e-08, -4e-08, 0))
hIsland = hIsland.sub(rect(4.189206959612271e-09, -1.2893595360518473e-09).transl(-6.821213785364517e-08, -4e-08, 0))
hIsland = hIsland.sub(rect(4.0425034616293735e-09, -1.3403697391242824e-09).transl(3.257701803762531e-08, -4e-08, 0))
hIsland = hIsland.add(rect(3.7317278550817775e-09, 6.100645552678421e-10).transl(5.797907585725677e-08, -4e-08, 0))
hIsland = hIsland.add(rect(6.4386048907446575e-09, 1.6486566784411162e-09).transl(8.056872462500223e-08, -4e-08, 0))
hIsland = hIsland.sub(rect(3.230040087685365e-09, -3.609857637488661e-10).transl(-6.28439000594387e-08, -4e-08, 0))
hIsland = hIsland.add(rect(6.6736140648246045e-09, 3.769106640081393e-09).transl(-7.090078300003857e-08, -4e-08, 0))
hIsland = hIsland.add(rect(6.259914006032693e-09, 8.47474143029108e-11).transl(8.870091257018282e-08, -2.0701736355350224e-08, 0))
hIsland = hIsland.add(rect(5.551186559507098e-09, 4.0894497274697745e-09).transl(-4.4841144061636844e-08, -4e-08, 0))
hIsland = hIsland.add(rect(7.371687525071225e-09, 5.552113689240323e-10).transl(-3.539736226920236e-08, -4e-08, 0))
hIsland = hIsland.sub(rect(4.2605947525810044e-09, -1.4862229710728721e-10).transl(-7.22757214572012e-08, -4e-08, 0))
hIsland = hIsland.add(rect(7.930518704736804e-09, 3.912102757680642e-09).transl(-6.587113255912716e-08, -4e-08, 0))
hIsland = hIsland.sub(rect(6.661526157959483e-09, -3.4763525464147774e-09).transl(-7.454109997359034e-08, -4e-08, 0))
hIsland = hIsland.sub(rect(8.976132589011496e-09, -5.213271416882684e-10).transl(-5.2756737680524064e-08, -4e-08, 0))
hIsland = hIsland.add(rect(6.032924158893417e-09, 2.2848219628030554e-09).transl(5.186032339332329e-08, -4e-08, 0))
hIsland = hIsland.add(rect(3.2741144678728854e-09, 2.3422137660955735e-09).transl(-4.927590774260612e-08, -4e-08, 0))
hIsland = hIsland.sub(rect(3.4268689044329062e-09, -1.6613440508675262e-09).transl(-4.3091298098016423e-08, -4e-08, 0))
hIsland = hIsland.add(rect(2.4865122919782554e-09, 2.1780297816244893e-09).transl(2.9631488139983e-08, -4e-08, 0))
hIsland = hIsland.sub(rect(3.901983840904776e-09, -2.3347583659130986e-09).transl(4.2806220578416615e-08, -4e-08, 0))
hIsland = hIsland.sub(rect(9.728864463771137e-09, -1.518727084799709e-09).transl(2.767860331940982e-08, -4e-08, 0))
hIsland = hIsland.add(rect(4.865901321441543e-09, 3.0683067788975964e-09).transl(-1.5499780485557768e-09, -4e-08, 0))
hIsland = hIsland.add(rect(5.732082594982598e-09, 5.971834043185482e-10).transl(-7.613655417033431e-08, -4e-08, 0))
hIsland = hIsland.add(rect(6.311295129536992e-09, 1.3437684276623217e-09).transl(7.458981614782837e-09, -4e-08, 0))
hIsland = hIsland.sub(rect(6.707768103786969e-09, -2.3085288443689495e-10).transl(-7.121977957148311e-08, -4e-08, 0))
hIsland = hIsland.add(rect(9.626372027654573e-09, 1.6696421098903474e-09).transl(1.5983095212527176e-08, -4e-08, 0))
hIsland = hIsland.add(rect(2.1807364472275935e-09, 2.4278663795274836e-09).transl(-7.952813680881944e-08, -4e-08, 0))
hIsland = hIsland.add(rect(2.029212094589477e-09, 3.701902509978858e-09).transl(3.632919982930136e-08, -4e-08, 0))
hIsland = hIsland.add(rect(2.9019419490175036e-09, 1.2495076267901924e-09).transl(6.628293187097973e-08, -4e-08, 0))
hIsland = hIsland.sub(rect(9.994398016363683e-09, -4.592044808961131e-10).transl(-3.431256344396464e-08, -4e-08, 0))
hIsland = hIsland.add(rect(3.5003824206079685e-09, 8.175729479544066e-10).transl(3.800632696363817e-08, -4e-08, 0))
hIsland = hIsland.add(rect(4.466339692371297e-09, 6.877958535550795e-10).transl(-3.5208667970337695e-09, -4e-08, 0))
hIsland = hIsland.add(rect(7.034494757670246e-09, 3.727193094104282e-10).transl(5.6704459758224905e-08, -4e-08, 0))
hIsland = hIsland.sub(rect(5.450502463050064e-09, -9.291083854552108e-10).transl(-9.238707795046489e-09, -4e-08, 0))
hIsland = hIsland.sub(rect(2.7307638855781182e-09, -4.117261498093454e-10).transl(-3.047884091363559e-10, -4e-08, 0))
hIsland = hIsland.add(rect(7.3950936317451515e-09, 8.015806212539478e-10).transl(-6.166877434906522e-08, -4e-08, 0))
hIsland = hIsland.add(rect(8.619456957412096e-09, 2.3345939410511146e-09).transl(2.5301669768657307e-08, -4e-08, 0))
hIsland = hIsland.add(rect(8.452617854236656e-09, 2.3070426874918744e-09).transl(-3.070609362367182e-08, -4e-08, 0))
hIsland = hIsland.add(rect(2.876619055260159e-09, 2.3205289442554045e-09).transl(-9.542341231650276e-09, -4e-08, 0))
hIsland = hIsland.add(rect(4.517345240819039e-09, 3.7086559960952243e-09).transl(-2.1439465688758307e-08, -4e-08, 0))
hIsland = hIsland.add(rect(6.402822573684865e-09, 1.4195702660088815e-09).transl(-4.500820508624796e-08, -4e-08, 0))
hIsland = hIsland.add(rect(9.638576419117082e-09, 1.2415437584406847e-10).transl(-5.726656927953264e-08, -4e-08, 0))
hIsland = hIsland.add(rect(7.990444979525295e-09, 1.0835788296222447e-10).transl(-2.091795536272923e-08, -4e-08, 0))
hIsland = hIsland.add(rect(5.471184711167534e-09, 2.3835884862098635e-09).transl(4.511008316714403e-08, -4e-08, 0))
hIsland = hIsland.sub(rect(8.205768802088365e-09, -1.3525176386681168e-09).transl(-9.756008757902225e-09, -4e-08, 0))
hIsland = hIsland.add(rect(6.017394226236861e-09, 5.59481924952419e-10).transl(-9.343435811886039e-09, -4e-08, 0))
hIsland = hIsland.add(rect(5.798089702526797e-09, 2.6769517363029135e-10).transl(6.428960136838414e-08, -4e-08, 0))
hIsland = hIsland.sub(rect(7.000823071672505e-09, -5.202085092854307e-10).transl(8.283062053804124e-09, -4e-08, 0))
hIsland = hIsland.sub(rect(9.862385679602199e-09, -1.089825252466887e-09).transl(4.991488745492e-08, -4e-08, 0))
hIsland = hIsland.sub(rect(6.7909212843164496e-09, -9.622117121441592e-10).transl(2.076847203620687e-08, -4e-08, 0))
hIsland = hIsland.sub(rect(6.194860510480393e-09, -4.058841850044003e-09).transl(4.8387935030243734e-08, -4e-08, 0))
hIsland = hIsland.sub(rect(6.304849708959638e-09, -2.0768232077848962e-09).transl(-8.738494720125336e-09, -4e-08, 0))
hIsland = hIsland.sub(rect(4.066543001382586e-09, -2.0644656598418403e-09).transl(6.029139800397431e-08, -4e-08, 0))
hIsland = hIsland.sub(rect(9.214356675814468e-09, -1.962490178161323e-10).transl(4.942073093994958e-08, -4e-08, 0))
hIsland = hIsland.sub(rect(3.4135281757329703e-09, -2.1759697591687088e-09).transl(5.5219293166971096e-08, -4e-08, 0))
hIsland = hIsland.add(rect(8.728986253787086e-09, 3.618284406512524e-09).transl(-6.942952787413735e-08, -4e-08, 0))
hIsland = hIsland.sub(rect(7.585720947317424e-09, -3.845822283688853e-09).transl(-7.645134702843205e-08, -4e-08, 0))
hIsland = hIsland.sub(rect(2.0602143978074114e-09, -1.0282227633253619e-09).transl(4.806933649736931e-09, -4e-08, 0))
hIsland = hIsland.sub(rect(8.920768279308934e-09, -6.635257035817016e-10).transl(-4.698871281729021e-08, -4e-08, 0))
hIsland = hIsland.add(rect(2.4587332596791403e-09, 3.2792797896794166e-10).transl(-4.635866273688068e-08, -4e-08, 0))
hIsland = hIsland.add(rect(2.7726145381107587e-09, 2.6409302356870176e-09).transl(-2.2849286461867862e-08, -4e-08, 0))
hIsland = hIsland.add(rect(8.605997614031827e-09, 3.4631846138769775e-10).transl(3.6464558941815974e-08, -4e-08, 0))
hIsland = hIsland.add(rect(7.2371852127974536e-09, 7.085268530729272e-10).transl(-3.148008582597227e-10, -4e-08, 0))
hIsland = hIsland.add(rect(5.543453171635698e-09, 5.78866370413183e-11).transl(-2.667242294159896e-08, -4e-08, 0))
hIsland = hIsland.add(rect(6.170091565077369e-09, 9.927295425770975e-10).transl(1.0319866882545882e-08, -4e-08, 0))
hIsland = hIsland.sub(rect(3.6821512748251904e-09, -4.007673886569904e-09).transl(8.856361940830063e-08, -2.167853188340521e-08, 0))
hIsland = hIsland.sub(rect(3.0438957191603883e-09, -2.261950586704777e-09).transl(8.516012472942115e-09, -4e-08, 0))
hIsland = hIsland.sub(rect(6.585726493460359e-09, -1.206333818762854e-09).transl(-2.19721202651696e-08, -4e-08, 0))
hIsland = hIsland.add(rect(3.856750251737053e-09, 2.60161046959218e-09).transl(5.54585243039216e-08, -4e-08, 0))
hIsland = hIsland.add(rect(3.917021651332213e-09, 1.5576404844425847e-09).transl(4.0395018180833724e-08, -4e-08, 0))
hIsland = hIsland.sub(rect(9.634005192095213e-09, -3.426776181707029e-09).transl(-4.055929325467817e-08, -4e-08, 0))
hIsland = hIsland.add(rect(3.141669124265225e-09, 2.6101636852736415e-09).transl(-2.5085554740118398e-08, -4e-08, 0))
hIsland = hIsland.add(rect(4.967292891165673e-09, 1.681122393349357e-09).transl(-6.779525675881956e-08, -4e-08, 0))
hIsland = hIsland.sub(rect(5.444203103369237e-09, -1.26155702079759e-09).transl(4.296717755412993e-08, -4e-08, 0))
hIsland = hIsland.add(rect(6.339699893466995e-09, 7.079405424656862e-10).transl(2.192223723001561e-08, -4e-08, 0))
hIsland = hIsland.add(rect(5.7492001439909274e-09, 8.346367163165491e-10).transl(-8.088824969040117e-08, -4e-08, 0))
hIsland = hIsland.add(rect(2.424381672058222e-09, 1.3459696495562601e-09).transl(-9.419694585562442e-10, -4e-08, 0))
hIsland = hIsland.sub(rect(3.84284517162273e-09, -1.5045331407412352e-09).transl(1.3922895152848883e-08, -4e-08, 0))
hIsland = hIsland.add(rect(3.445909444051874e-09, 1.6208203260055972e-09).transl(2.81529795961962e-08, -4e-08, 0))
hIsland = hIsland.sub(rect(4.273421543683625e-09, -6.369483907166302e-10).transl(3.976518340373141e-08, -4e-08, 0))
hIsland = hIsland.sub(rect(8.20915698831503e-09, -5.2581545323894726e-11).transl(5.374682869939486e-08, -4e-08, 0))
hIsland = hIsland.sub(rect(2.0705991932978903e-09, -3.349978913420306e-10).transl(8.053480445418235e-08, -4e-08, 0))
hIsland = hIsland.sub(rect(8.87868225092794e-09, -1.7599496864618553e-09).transl(-1.4147179799055375e-08, -4e-08, 0))
hIsland = hIsland.add(rect(4.986661062784044e-09, 3.2938363867243666e-09).transl(-5.306095310842594e-08, -4e-08, 0))
hIsland = hIsland.add(rect(9.978244758382623e-09, 8.794210898101433e-10).transl(-4.13601526651724e-08, -4e-08, 0))
hIsland = hIsland.sub(rect(8.680449361086805e-09, -4.9042153495299054e-09).transl(-4.6034289217572076e-08, -4e-08, 0))
hIsland = hIsland.add(rect(5.1420471661286835e-09, 5.677407366963357e-09).transl(-6.126748339841674e-09, -4e-08, 0))
hIsland = hIsland.add(rect(4.773825181502387e-09, 1.187459115117015e-09).transl(8.725416416399689e-08, -2.876397974139707e-08, 0))
hIsland = hIsland.add(rect(8.112252342207782e-09, 1.926413098324184e-09).transl(5.057567892631919e-08, -4e-08, 0))
hIsland = hIsland.add(rect(9.450970580116598e-09, 4.382794242030561e-09).transl(2.8853439519470316e-08, -4e-08, 0))
hIsland = hIsland.sub(rect(9.054438424460216e-09, -1.031049170161768e-09).transl(2.7803896873419726e-08, -4e-08, 0))
hIsland = hIsland.add(rect(3.094332235919528e-09, 1.940946866607093e-11).transl(7.258537530967103e-08, -4e-08, 0))
hIsland = hIsland.sub(rect(5.674823394373759e-09, -4.482653731917661e-10).transl(-2.9538248125563684e-08, -4e-08, 0))
hIsland = hIsland.sub(rect(5.7010593169450454e-09, -2.652498816043597e-10).transl(1.1231113740643018e-08, -4e-08, 0))
hIsland = hIsland.add(rect(4.595598483613688e-09, 1.1889817466114882e-09).transl(-3.36448272499633e-08, -4e-08, 0))
hIsland = hIsland.add(rect(7.678969747951658e-09, 1.5141960159450668e-09).transl(-2.8613508188782636e-08, -4e-08, 0))
hIsland = hIsland.sub(rect(6.521874063421807e-09, -9.40976171051923e-10).transl(5.925079513306888e-08, -4e-08, 0))
hIsland = hIsland.add(rect(5.575670952978415e-09, 4.5416228788802045e-09).transl(-5.7403988028446727e-08, -4e-08, 0))
hIsland = hIsland.sub(rect(7.1254474317935385e-09, -7.32071869103647e-10).transl(-7.787548647982764e-10, -4e-08, 0))
hIsland = hIsland.add(rect(8.705779572789602e-09, 2.273237055569992e-09).transl(5.412021866216619e-08, -4e-08, 0))
hIsland = hIsland.sub(rect(4.582010833397715e-09, -2.4981835772297047e-09).transl(8.117598334950893e-08, -3.9992352320936176e-08, 0))
hIsland = hIsland.add(rect(9.772430444458198e-09, 2.6928812036983323e-09).transl(-4.557120722275041e-08, -4e-08, 0))
hIsland = hIsland.add(rect(6.031164289498653e-09, 2.136662004295709e-09).transl(-5.033584558446807e-08, -4e-08, 0))
hIsland = hIsland.add(rect(8.818046948469824e-09, 1.7372089006465273e-10).transl(-3.2217883272541384e-08, -4e-08, 0))
hIsland = hIsland.add(rect(6.266686359091814e-09, 3.2480110663376336e-11).transl(8.400674235723385e-09, -4e-08, 0))
hIsland = hIsland.add(rect(9.06890590499491e-09, 4.239796727483925e-09).transl(1.6246183140792653e-08, -4e-08, 0))
hIsland = hIsland.sub(rect(6.228394151425011e-09, -1.0007856474734803e-09).transl(-2.7055219893344222e-08, -4e-08, 0))
hIsland = hIsland.add(rect(6.47075837496226e-09, 1.0866076271515868e-09).transl(-7.437426566523102e-08, -4e-08, 0))
hIsland = hIsland.sub(rect(3.293074371650047e-09, -1.2163765015285888e-09).transl(3.0348025662406406e-08, -4e-08, 0))
hIsland = hIsland.add(rect(7.867537659922629e-09, 4.434551424131125e-09).transl(8.185552675013515e-08, -3.9818867413202333e-08, 0))
hIsland = hIsland.add(rect(9.65252264413754e-09, 1.0842786040158896e-09).transl(-7.893391417858696e-08, -4e-08, 0))
hIsland = hIsland.add(rect(6.751441458438662e-09, 1.5533154662089487e-10).transl(-2.035519406177573e-08, -4e-08, 0))
hIsland = hIsland.add(rect(4.723254846068872e-09, 5.66154087433201e-10).transl(-4.18238350390964e-08, -4e-08, 0))
hIsland = hIsland.add(rect(4.743196954893681e-09, 1.4310722171356899e-10).transl(3.769024863009345e-09, -4e-08, 0))
hIsland = hIsland.sub(rect(4.0299223159046305e-09, -1.2344456705746634e-09).transl(3.162208671174536e-08, -4e-08, 0))
hIsland = hIsland.add(rect(4.430688063742651e-09, 8.487748750522483e-10).transl(-2.4500447135499405e-08, -4e-08, 0))
hIsland = hIsland.sub(rect(5.896888963066194e-09, -2.8928677512484735e-09).transl(1.882437125215584e-09, -4e-08, 0))
hIsland = hIsland.sub(rect(7.818082571662611e-09, -1.5958452168982239e-10).transl(-1.0005763650211744e-08, -4e-08, 0))
hIsland = hIsland.sub(rect(3.318472819865653e-09, -1.0263535743700815e-09).transl(9.232496279013459e-09, -4e-08, 0))
hIsland = hIsland.sub(rect(7.959713206070278e-09, -9.169186578144034e-10).transl(9.550857346373254e-09, -4e-08, 0))
hIsland = hIsland.add(rect(2.4900734333383385e-09, 9.287902948490922e-10).transl(7.554487854373426e-08, -4e-08, 0))
hIsland = hIsland.sub(rect(2.935724678974941e-09, -9.428458154998938e-10).transl(5.9046827631482035e-08, -4e-08, 0))
hIsland = hIsland.sub(rect(9.104876150286094e-09, -9.503771443898236e-10).transl(-8.407085762647423e-08, -3.759953596717211e-08, 0))
hIsland = hIsland.add(rect(5.258883259039934e-09, 1.3214325506302165e-09).transl(5.757180361954815e-09, -4e-08, 0))
hIsland = hIsland.add(rect(8.49612749456048e-09, 1.4893399805954275e-10).transl(-6.487856517537591e-08, -4e-08, 0))
hIsland = hIsland.add(rect(8.484404766505225e-09, 3.0500113969539015e-09).transl(-3.512230128198782e-08, -4e-08, 0))
hIsland = hIsland.sub(rect(3.5894185518258744e-09, -2.0316424586138046e-09).transl(-8.901275953552293e-08, -1.8214461559268133e-08, 0))
hIsland = hIsland.add(rect(7.909039304081712e-09, 2.200037544770507e-09).transl(1.9568747041299874e-08, -4e-08, 0))
hIsland = hIsland.add(rect(3.9676605859516e-09, 1.597054273377726e-09).transl(-4.427081829624788e-08, -4e-08, 0))
hIsland = hIsland.add(rect(8.366795683005059e-09, 5.101916081053639e-10).transl(-5.1221915725011276e-08, -4e-08, 0))
hIsland = hIsland.add(rect(8.144561111154144e-09, 6.0507732585398106e-09).transl(7.907548087895916e-08, -4e-08, 0))
hIsland = hIsland.sub(rect(4.967025027964632e-09, -2.5806031142408724e-10).transl(-5.9067552584014685e-08, -4e-08, 0))
hIsland = hIsland.sub(rect(7.85302257927995e-09, -2.271801794128222e-09).transl(4.1822505356167e-08, -4e-08, 0))
hIsland = hIsland.sub(rect(6.239746269320681e-09, -2.1861235590024376e-09).transl(-7.430482020194524e-08, -4e-08, 0))
hIsland = hIsland.sub(rect(3.0524319223916764e-09, -1.8995999645569512e-10).transl(8.514611530672475e-08, -3.550266284246209e-08, 0))
hIsland = hIsland.sub(rect(7.113365694000353e-09, -1.3353671114268796e-09).transl(-2.7840854234668642e-08, -4e-08, 0))
hIsland = hIsland.add(rect(7.078158524557426e-09, 6.313190514338772e-10).transl(-3.028251050748721e-08, -4e-08, 0))
hIsland = hIsland.add(rect(9.976768444963192e-09, 3.8304033630356315e-11).transl(-4.385794527595238e-08, -4e-08, 0))
hIsland = hIsland.add(rect(4.69533359839526e-09, 1.2178687322272458e-09).transl(1.8603048066794437e-08, -4e-08, 0))
hIsland = hIsland.add(rect(4.019987366700773e-09, 8.41871615523041e-10).transl(-6.497187742906524e-08, -4e-08, 0))
hIsland = hIsland.sub(rect(8.962447682709447e-09, -2.275737313449935e-09).transl(2.984344038353683e-08, -4e-08, 0))
hIsland = hIsland.add(rect(3.196717895636793e-09, 2.6186968042288338e-09).transl(6.111816394367476e-08, -4e-08, 0))
hIsland = hIsland.sub(rect(3.439864916699099e-09, -2.699173579217515e-09).transl(-1.858856582265574e-08, -4e-08, 0))
hIsland = hIsland.sub(rect(8.28222460684202e-09, -1.3590227382151276e-09).transl(-1.5274411907711665e-08, -4e-08, 0))
hIsland = hIsland.sub(rect(3.894071554955011e-09, -1.9844722092923697e-09).transl(-3.0514795441353574e-08, -4e-08, 0))
hIsland = hIsland.sub(rect(4.5714580174092274e-09, -3.0813361665321144e-11).transl(-4.2915461115824465e-09, -4e-08, 0))
hIsland = hIsland.sub(rect(4.183287611276227e-09, -3.681554155824052e-09).transl(-8.331962685682776e-08, -3.8648611683837593e-08, 0))
hIsland = hIsland.add(rect(8.727148621053327e-09, 2.2816506588768444e-10).transl(-4.625091404653472e-08, -4e-08, 0))
hIsland = hIsland.sub(rect(9.028845974121694e-09, -2.401569135501149e-10).transl(4.0827529976306254e-08, -4e-08, 0))
hIsland = hIsland.sub(rect(4.994676260315701e-09, -1.4063372157686386e-09).transl(5.900798595972644e-08, -4e-08, 0))
hIsland = hIsland.sub(rect(6.997753176273196e-09, -5.023345243394877e-10).transl(-3.460655452176013e-08, -4e-08, 0))
hIsland = hIsland.sub(rect(9.092112107276669e-09, -7.767385797726003e-10).transl(8.487107080828787e-08, -3.611088842248508e-08, 0))
hIsland = hIsland.sub(rect(4.52249244562901e-09, -1.4688973308742845e-09).transl(-7.065283402181025e-08, -4e-08, 0))
hIsland = hIsland.add(rect(7.919359888241499e-09, 5.178308825829814e-09).transl(-8.993183524113947e-08, -4.913713187265065e-09, 0))
hIsland = hIsland.sub(rect(3.5950811643013154e-09, -7.90048128681133e-10).transl(-6.181807389562678e-09, -4e-08, 0))
hIsland = hIsland.sub(rect(2.797842215505102e-09, -8.784097200962082e-10).transl(-8.303317444880174e-08, -3.896594313195513e-08, 0))
hIsland = hIsland.sub(rect(3.784959663139812e-09, -2.644255047927003e-09).transl(6.964491138312463e-09, -4e-08, 0))
hIsland = hIsland.sub(rect(9.708329465583482e-09, -4.452549638921622e-10).transl(4.7208531297677026e-08, -4e-08, 0))
hIsland = hIsland.add(rect(7.245371701683768e-09, 1.87012923279165e-09).transl(-2.2258199899412956e-08, -4e-08, 0))
hIsland = hIsland.add(rect(7.84656231428151e-09, 1.871302989472612e-09).transl(1.0503562404188901e-08, -4e-08, 0))
hIsland = hIsland.add(rect(2.093714589051863e-09, 2.087481608789081e-09).transl(5.6086613400765424e-08, -4e-08, 0))
hIsland = hIsland.add(rect(4.945541693774195e-09, 8.407304176503185e-10).transl(6.665293528316585e-08, -4e-08, 0))
hIsland = hIsland.sub(rect(4.104921269932334e-09, -1.0858033074560883e-09).transl(1.0755943820144137e-08, -4e-08, 0))
hIsland = hIsland.sub(rect(6.210147757814537e-09, -1.4698839440114917e-09).transl(7.539056584040902e-08, -4e-08, 0))
hIsland = hIsland.sub(rect(7.768994255146584e-09, -3.2692527725504867e-09).transl(3.5464505075912824e-08, -4e-08, 0))
hIsland = hIsland.add(rect(2.787736920266115e-09, 2.0654815756036837e-09).transl(-4.393506432062084e-09, -4e-08, 0))
hIsland = hIsland.add(rect(9.389391808371938e-09, 1.7174664065537848e-09).transl(5.6886043080513547e-08, -4e-08, 0))
hIsland = hIsland.sub(rect(7.603740082334671e-09, -2.6859537239547628e-09).transl(6.65026984627793e-09, -4e-08, 0))
hIsland = hIsland.sub(rect(7.866587558058386e-09, -2.82388266338888e-09).transl(4.1029485173634265e-08, -4e-08, 0))
hIsland = hIsland.sub(rect(6.846227548163872e-09, -3.0406234488681254e-09).transl(3.028817539558351e-08, -4e-08, 0))
hIsland = hIsland.add(rect(4.401223829840247e-09, 3.919656642003566e-09).transl(-2.598762731984306e-08, -4e-08, 0))
hIsland = hIsland.sub(rect(2.5752569171552493e-09, -2.4271955983713532e-09).transl(-5.219394838359644e-08, -4e-08, 0))
hIsland = hIsland.sub(rect(8.058261157200632e-09, -3.076542665400804e-09).transl(2.2615737539987495e-08, -4e-08, 0))
hIsland = hIsland.add(rect(2.602642723807337e-09, 2.0191195143057485e-09).transl(-4.134338915457631e-08, -4e-08, 0))
hIsland = hIsland.sub(rect(5.97448026972645e-09, -1.5884904844848778e-09).transl(6.978839511428343e-08, -4e-08, 0))
hIsland = hIsland.sub(rect(7.32411106028388e-09, -1.584163708944752e-09).transl(-5.756846416407297e-08, -4e-08, 0))
hIsland = hIsland.add(rect(7.855129564815194e-09, 9.623762257508577e-10).transl(-5.951812787190702e-08, -4e-08, 0))
hIsland = hIsland.add(rect(2.1997599963007977e-09, 9.303818458415933e-10).transl(-7.711326107064196e-08, -4e-08, 0))
hIsland = hIsland.sub(rect(7.979501219416499e-09, -2.2052230150543786e-10).transl(3.883416622460723e-08, -4e-08, 0))
hIsland = hIsland.add(rect(7.57747696790812e-09, 4.455428626911739e-09).transl(-1.1158102867011515e-09, -4e-08, 0))
hIsland = hIsland.add(rect(4.815050922006925e-09, 8.298387869056852e-10).transl(-7.632319310798916e-08, -4e-08, 0))
hIsland = hIsland.add(rect(2.5928789988067146e-09, 3.949665344906769e-09).transl(-3.749105069316809e-09, -4e-08, 0))
hIsland = hIsland.sub(rect(8.6301964380308e-09, -2.1292338258689765e-09).transl(2.7897637110465957e-08, -4e-08, 0))
hIsland = hIsland.sub(rect(3.2721508151308944e-09, -1.078672263086245e-09).transl(6.642795985624951e-08, 4e-08, 0))
hIsland = hIsland.sub(rect(3.972605215566667e-09, -4.0497590581494215e-10).transl(6.349811070698378e-08, 4e-08, 0))
hIsland = hIsland.sub(rect(4.936091587811357e-09, -6.955543877575237e-10).transl(-6.928635420922437e-08, 4e-08, 0))
hIsland = hIsland.sub(rect(7.450935639564615e-09, -8.712139757614117e-10).transl(2.5808738752423568e-08, 4e-08, 0))
hIsland = hIsland.sub(rect(2.241748829430896e-09, -2.3893390477953573e-09).transl(-4.8011882500249164e-08, 4e-08, 0))
hIsland = hIsland.sub(rect(6.44652347597699e-09, -6.852578386339114e-10).transl(5.676747708227038e-08, 4e-08, 0))
hIsland = hIsland.add(rect(3.75753712999235e-09, 1.6880347643261967e-09).transl(-7.580281211774244e-09, 4e-08, 0))
hIsland = hIsland.add(rect(6.848125127793166e-09, 2.278000264816837e-09).transl(5.6290065391586965e-08, 4e-08, 0))
hIsland = hIsland.sub(rect(2.6462141800006515e-09, -4.43465564921637e-10).transl(-5.245809523181676e-08, 4e-08, 0))
hIsland = hIsland.add(rect(4.020303324081393e-09, 1.1368239830453853e-09).transl(-4.6906886322835465e-08, 4e-08, 0))
hIsland = hIsland.sub(rect(3.735550035147848e-09, -7.645467669359756e-10).transl(2.3217696959472798e-08, 4e-08, 0))
hIsland = hIsland.add(rect(7.0826000931009054e-09, 1.4489515394105049e-09).transl(2.3352293997424428e-08, 4e-08, 0))
hIsland = hIsland.add(rect(9.665725210485487e-09, 6.578667965026122e-10).transl(-1.679660983832357e-08, 4e-08, 0))
hIsland = hIsland.add(rect(9.273032125727986e-09, 3.185852999787739e-09).transl(-5.759162981304414e-08, 4e-08, 0))
hIsland = hIsland.sub(rect(4.048906471190938e-09, -9.089872056447373e-10).transl(-5.708238263275257e-08, 4e-08, 0))
hIsland = hIsland.sub(rect(9.57703534050722e-09, -1.5055975700587641e-09).transl(3.231051197887977e-08, 4e-08, 0))
hIsland = hIsland.add(rect(7.820980470324518e-09, 5.214774670114161e-10).transl(-7.488619715407528e-08, 4e-08, 0))
hIsland = hIsland.sub(rect(8.288967936348214e-09, -1.2827987411270937e-10).transl(-6.215501527917332e-10, 4e-08, 0))
hIsland = hIsland.add(rect(3.0758966195270363e-09, 4.406943060005122e-09).transl(-4.331000408925971e-08, 4e-08, 0))
hIsland = hIsland.sub(rect(6.413533189233706e-09, -3.054350279118477e-09).transl(-6.398244689874077e-08, 4e-08, 0))
hIsland = hIsland.sub(rect(4.427822465473805e-09, -1.0862313777153011e-09).transl(-2.3660024283304062e-08, 4e-08, 0))
hIsland = hIsland.add(rect(8.575739434457358e-09, 1.919089812701922e-09).transl(-5.449870815671011e-08, 4e-08, 0))
hIsland = hIsland.add(rect(7.119769672945331e-09, 1.7864676241833645e-09).transl(-8.976687561605688e-08, 9.045172706238371e-09, 0))
hIsland = hIsland.add(rect(8.254758365511858e-09, 1.9601098456628486e-09).transl(4.091048506645638e-08, 4e-08, 0))
hIsland = hIsland.sub(rect(8.7478361460396e-09, -1.0115050693345982e-09).transl(-5.127640858052759e-08, 4e-08, 0))
hIsland = hIsland.sub(rect(8.188195496947217e-09, -3.775101263993956e-09).transl(-4.3508389898219595e-08, 4e-08, 0))
hIsland = hIsland.add(rect(7.310491699372404e-09, 8.994003496924497e-10).transl(-4.823726679534417e-08, 4e-08, 0))
hIsland = hIsland.add(rect(5.811162911219963e-09, 1.1712017914892557e-09).transl(8.971939740577552e-08, 9.910322719171617e-09, 0))
hIsland = hIsland.add(rect(7.2642826754213915e-09, 1.1828431312984096e-09).transl(8.989919988058883e-08, 5.9698691762707015e-09, 0))
hIsland = hIsland.add(rect(2.8075299709770755e-09, 1.1955003441916417e-09).transl(-5.323245906382493e-08, 4e-08, 0))
hIsland = hIsland.sub(rect(7.459081028643888e-09, -2.229525580144437e-09).transl(-3.8686475621820316e-08, 4e-08, 0))
hIsland = hIsland.sub(rect(5.290816956303794e-09, -7.929828653330223e-10).transl(2.9143409362221927e-10, 4e-08, 0))
hIsland = hIsland.sub(rect(3.945388411151605e-09, -4.788342416910401e-09).transl(2.1105114404218462e-08, 4e-08, 0))
hIsland = hIsland.sub(rect(3.8010086128011955e-09, -1.996209658936463e-09).transl(7.17409970591396e-08, 4e-08, 0))
hIsland = hIsland.sub(rect(9.236972287259527e-09, -1.9047763012424122e-09).transl(5.2316801704218796e-08, 4e-08, 0))
hIsland = hIsland.sub(rect(7.146199340276033e-09, -4.3806959096330254e-10).transl(2.498911861781276e-08, 4e-08, 0))
hIsland = hIsland.add(rect(6.777597502960196e-09, 2.4435209907730713e-09).transl(-1.1722027127248565e-08, 4e-08, 0))
hIsland = hIsland.add(rect(9.52435399864948e-09, 3.032897728480547e-10).transl(8.893244435547648e-08, 1.8896117073089196e-08, 0))
hIsland = hIsland.sub(rect(9.612073652477427e-09, -2.126178675953388e-09).transl(-2.7265367412883663e-08, 4e-08, 0))
hIsland = hIsland.sub(rect(5.256252458642481e-09, -1.045769011431417e-09).transl(-6.68100900199042e-09, 4e-08, 0))
hIsland = hIsland.sub(rect(2.877748210133312e-09, -1.436941529361291e-09).transl(-4.399104405053811e-08, 4e-08, 0))
hIsland = hIsland.add(rect(8.819513685702085e-09, 1.0411092094865668e-10).transl(7.338926867050656e-08, 4e-08, 0))
hIsland = hIsland.sub(rect(2.8935587989227678e-09, -1.9052516031625136e-09).transl(-5.752212803255028e-09, 4e-08, 0))
hIsland = hIsland.sub(rect(8.545850853959709e-09, -3.736234080969547e-09).transl(-8.61776560634164e-09, 4e-08, 0))
hIsland = hIsland.add(rect(3.3818094228712186e-09, 1.69491586669682e-09).transl(1.9034360450116676e-08, 4e-08, 0))
hIsland = hIsland.sub(rect(2.170882737940188e-09, -8.606854885437453e-10).transl(8.05702474751659e-08, 4e-08, 0))
hIsland = hIsland.sub(rect(6.891165567698079e-09, -2.2615597516021737e-09).transl(-2.3809465362065707e-08, 4e-08, 0))
hIsland = hIsland.sub(rect(4.721411674802027e-09, -3.379838284230702e-09).transl(-2.2166369771392644e-08, 4e-08, 0))
hIsland = hIsland.add(rect(7.625776800188179e-09, 2.8917895174762636e-10).transl(6.174519519902118e-08, 4e-08, 0))
hIsland = hIsland.add(rect(9.123199940985157e-09, 4.679659484868907e-10).transl(2.122891204665714e-08, 4e-08, 0))
hIsland = hIsland.sub(rect(9.532913717640028e-09, -9.102213332891286e-10).transl(-1.038691502568132e-08, 4e-08, 0))
hIsland = hIsland.add(rect(4.488283436882275e-09, 1.519218159686184e-09).transl(2.0779756628942616e-08, 4e-08, 0))
hIsland = hIsland.add(rect(2.1893008233442083e-09, 5.871107349690537e-11).transl(8.804694364367339e-08, 2.4881183443288947e-08, 0))
hIsland = hIsland.sub(rect(9.463277574937128e-09, -2.7517288858016123e-09).transl(-6.253649927245099e-08, 4e-08, 0))
hIsland = hIsland.sub(rect(5.275706045300022e-09, -1.0815958971343872e-09).transl(-7.691306815045008e-08, 4e-08, 0))
hIsland = hIsland.add(rect(9.5548506301746e-09, 3.5278442795586583e-09).transl(-2.160953207442544e-08, 4e-08, 0))
hIsland = hIsland.sub(rect(3.541418864586456e-09, -8.360840918996393e-09).transl(5.86413733383358e-08, 4e-08, 0))
hIsland = hIsland.sub(rect(9.160994105087867e-09, -9.466864483695975e-10).transl(-6.213288592406813e-09, 4e-08, 0))
hIsland = hIsland.add(rect(8.037081707731484e-09, 1.2764087981288279e-09).transl(7.299766365749905e-08, 4e-08, 0))
hIsland = hIsland.add(rect(5.916695565483388e-09, 1.2736257720092602e-09).transl(6.856977703884276e-08, 4e-08, 0))
hIsland = hIsland.add(rect(2.214059645240524e-09, 2.0913106176897393e-09).transl(-8.900959999331227e-08, 1.82418907115868e-08, 0))
hIsland = hIsland.sub(rect(4.665512524576316e-09, -2.556439849426332e-09).transl(-4.887592853646977e-09, 4e-08, 0))
hIsland = hIsland.sub(rect(4.94466249766304e-09, -9.999164338593967e-10).transl(-5.240506265648462e-08, 4e-08, 0))
[...]
hIsland = hIsland.sub(rect(5.1950011204244565e-09, -1.3186631417741446e-09).transl(-9.071893405516467e-09, 4e-08, 0))
hIsland = hIsland.sub(rect(3.8756317856877905e-09, -1.7017949856863032e-09).transl(7.018102535315834e-08, 4e-08, 0))
hIsland = hIsland.add(rect(8.75048438852061e-09, 4.622678669480963e-10).transl(-6.83456689076817e-08, 4e-08, 0))
hIsland = hIsland.add(rect(8.67223446565163e-09, 4.904190359815889e-10).transl(4.63831098711984e-09, 4e-08, 0))
hIsland = hIsland.add(rect(4.903386174227427e-09, 1.2789327515630714e-09).transl(-8.987966488998217e-08, 6.519185651814769e-09, 0))
hIsland = hIsland.sub(rect(8.716807046021025e-09, -8.620194009831838e-11).transl(-7.445006421098115e-08, 4e-08, 0))
hIsland = hIsland.sub(rect(3.0247735652049627e-09, -2.4328267404076877e-09).transl(-4.206408919358849e-08, 4e-08, 0))
hIsland = hIsland.sub(rect(2.805963322205015e-09, -1.782847139602527e-09).transl(-5.808992885040166e-08, 4e-08, 0))
hIsland = hIsland.sub(rect(3.699867267225532e-09, -1.7837365940042616e-09).transl(6.937090548266279e-08, 4e-08, 0))
hIsland = hIsland.sub(rect(7.818605093819695e-09, -3.101696233027203e-09).transl(2.5088817197373637e-08, 4e-08, 0))
hIsland = hIsland.sub(rect(7.662674640792095e-09, -5.81766282316939e-10).transl(-2.445333044422265e-08, 4e-08, 0))
hIsland = hIsland.sub(rect(4.235942574355018e-09, -4.5315693325238425e-10).transl(-4.979950413400487e-08, 4e-08, 0))
hIsland = hIsland.add(rect(3.2093564880750453e-09, 1.5182787428511818e-10).transl(7.908705857661246e-08, 4e-08, 0))
hIsland = hIsland.sub(rect(9.000280544277846e-09, -7.615310444124394e-11).transl(4.50833436697691e-08, 4e-08, 0))
hIsland = hIsland.add(rect(5.860566443835344e-09, 2.0251325479438916e-09).transl(1.1943408052778213e-08, 4e-08, 0))
hIsland = hIsland.sub(rect(5.5859753413162786e-09, -4.728014935855278e-10).transl(-7.690994097850022e-08, 4e-08, 0))
hIsland = hIsland.sub(rect(8.193439448671146e-09, -5.170557341824714e-11).transl(8.375616841842427e-08, 3.8078161499679427e-08, 0))
hIsland = hIsland.add(rect(6.5703305791357916e-09, 1.4017918775727982e-09).transl(8.445512694025846e-08, 3.69349372099135e-08, 0))
hIsland = hIsland.add(rect(6.165031979439944e-09, 1.5142561336028203e-09).transl(5.879422415048245e-08, 4e-08, 0))
hIsland = hIsland.sub(rect(5.279324159935911e-09, -2.6458719572738395e-09).transl(-6.280612022290011e-08, 4e-08, 0))
hIsland = hIsland.add(rect(4.976655503356731e-09, 1.5458104595051467e-09).transl(-1.943664326269253e-08, 4e-08, 0))
hIsland = hIsland.add(rect(6.900052491925517e-09, 1.3897662900754198e-10).transl(5.6742921992376494e-08, 4e-08, 0))
hIsland = hIsland.sub(rect(4.727070353100642e-09, -7.277784049839944e-10).transl(-3.782584704227594e-08, 4e-08, 0))
hIsland = hIsland.sub(rect(2.4209253587831754e-09, -3.06871326142348e-10).transl(3.5649960646285734e-08, 4e-08, 0))
hIsland = hIsland.add(rect(9.754165194261038e-09, 2.5119357371600106e-09).transl(-1.88369326874633e-08, 4e-08, 0))
hIsland = hIsland.sub(rect(7.682322947958851e-09, -3.3589085733399522e-09).transl(-2.9512967614861435e-08, 4e-08, 0))
hIsland = hIsland.sub(rect(8.609371768834631e-09, -9.073650590825853e-10).transl(8.529069466376225e-08, 3.516169051747458e-08, 0))
hIsland = hIsland.sub(rect(3.9094105173839895e-09, -8.152704245759111e-10).transl(-7.61095800526707e-09, 4e-08, 0))
hIsland = hIsland.add(rect(7.46592121481263e-09, 5.550323239454794e-10).transl(5.32773628340519e-08, 4e-08, 0))
hIsland = hIsland.sub(rect(4.287242364614783e-09, -1.2146660406986575e-09).transl(8.072570838034157e-08, 4e-08, 0))
hIsland = hIsland.sub(rect(8.423193304119241e-09, -2.848219980420483e-09).transl(-6.420463175713469e-08, 4e-08, 0))
hIsland = hIsland.sub(rect(3.1000195588128386e-09, -1.0439625903175991e-10).transl(5.430563948476299e-08, 4e-08, 0))
hIsland = hIsland.add(rect(4.0774118428738875e-09, 1.573553883458316e-09).transl(-9.785947086656274e-09, 4e-08, 0))
hIsland = hIsland.add(rect(8.531268195064713e-09, 2.994932292963772e-10).transl(-9.612457545174106e-09, 4e-08, 0))
hIsland = hIsland.add(rect(8.802038608040631e-09, 1.3420294410354177e-09).transl(3.472636739493263e-08, 4e-08, 0))
hIsland = hIsland.sub(rect(7.65540634145046e-09, -3.743017456590973e-11).transl(-8.249701290676172e-08, 3.944277363772503e-08, 0))
hIsland = hIsland.sub(rect(7.881832551350387e-09, -9.441414732369297e-10).transl(-6.852446824701941e-08, 4e-08, 0))
hIsland = hIsland.sub(rect(2.9152194585785243e-09, -3.3488153081448337e-10).transl(-2.1083040406796907e-08, 4e-08, 0))
hIsland = hIsland.add(rect(2.6767411158897946e-09, 4.643959929346972e-09).transl(-3.498007572936047e-08, 4e-08, 0))
hIsland = hIsland.sub(rect(7.068208883716957e-09, -3.122770317583316e-09).transl(-1.8337378640351596e-08, 4e-08, 0))
hIsland = hIsland.sub(rect(4.5850857642350225e-09, -1.2097230688926838e-09).transl(-4.462243482080568e-09, 4e-08, 0))
hIsland = hIsland.sub(rect(5.3029240909243664e-09, -1.5072134883965214e-09).transl(4.647237826015123e-08, 4e-08, 0))
hIsland = hIsland.sub(rect(3.922477828454984e-09, -2.272327702815183e-09).transl(-7.7996463053289e-08, 4e-08, 0))
hIsland = hIsland.sub(rect(6.25368026770646e-09, -1.034233159316516e-09).transl(-6.772107040914655e-08, 4e-08, 0))
hIsland = hIsland.sub(rect(3.1888762439159227e-09, -2.9792314957392236e-09).transl(-8.788680980259489e-08, 2.575165371379518e-08, 0))
hIsland = hIsland.add(rect(8.769627634669279e-09, 3.399645003375089e-09).transl(8.877470656961448e-08, 2.0149533710939037e-08, 0))
hIsland = hIsland.add(rect(4.556532718252364e-09, 2.07040740701683e-09).transl(-3.650629629967501e-08, 4e-08, 0))
hIsland = hIsland.add(rect(2.8208036466904255e-09, 1.2263803074930352e-09).transl(5.9416054274532317e-08, 4e-08, 0))
hIsland = hIsland.sub(rect(2.1519452084702512e-09, -4.294445399913883e-09).transl(-1.7873499474687244e-09, 4e-08, 0))
hIsland = hIsland.add(rect(5.612025419053981e-09, 1.3473355297828808e-09).transl(6.691183245997831e-08, 4e-08, 0))
hIsland = hIsland.sub(rect(2.5174706336442973e-09, -9.52134350898166e-10).transl(-6.55174258890223e-08, 4e-08, 0))
hIsland = hIsland.sub(rect(6.1775591538163e-09, -7.835334655559815e-11).transl(1.4364630365804259e-08, 4e-08, 0))
hIsland = hIsland.sub(rect(9.036029567407408e-09, -1.1451247347689378e-09).transl(-5.4563496334885576e-08, 4e-08, 0))
hIsland = hIsland.add(rect(3.752570766143875e-09, 5.27870319834647e-11).transl(-5.867561922949115e-09, 4e-08, 0))
hIsland = hIsland.sub(rect(7.423710152171863e-09, -2.153356830355043e-09).transl(8.982574863081366e-08, 7.833024240635839e-09, 0))
hIsland = hIsland.sub(rect(4.204331097558656e-09, -1.3629264636049726e-09).transl(6.183489013733588e-08, 4e-08, 0))
hIsland = hIsland.add(rect(7.858740725555187e-09, 9.266754849603357e-10).transl(-8.600011221856416e-09, 4e-08, 0))
hIsland = hIsland.add(rect(6.203544697148391e-09, 2.9029253601293554e-09).transl(8.116474131732555e-08, 3.999329827768916e-08, 0))
hIsland = hIsland.add(rect(7.684939110296798e-09, 1.2836392809653998e-09).transl(-6.88179892952126e-08, 4e-08, 0))
hIsland = hIsland.add(rect(4.518886032089544e-09, 1.7078352043430365e-10).transl(-2.6167833290967255e-08, 4e-08, 0))
hIsland = hIsland.sub(rect(6.947786437184332e-09, -3.348802506458142e-10).transl(-1.1124924825885768e-08, 4e-08, 0))
hIsland = hIsland.sub(rect(9.27898471097024e-09, -1.2374492162633379e-09).transl(5.617667268180275e-08, 4e-08, 0))
hIsland = hIsland.add(rect(9.10103240571435e-09, 4.5919093507045653e-10).transl(-4.1150377722567344e-08, 4e-08, 0))
hIsland = hIsland.sub(rect(8.128262236603021e-09, -1.5600535561065367e-09).transl(2.1394642404933377e-08, 4e-08, 0))
hIsland = hIsland.sub(rect(5.250329224064572e-09, -2.6906026078363567e-10).transl(3.5695442570603895e-08, 4e-08, 0))
hIsland = hIsland.sub(rect(8.463602921012331e-09, -1.0477779208670947e-09).transl(8.503211037480395e-08, 3.5761096435644645e-08, 0))
hIsland = hIsland.add(rect(8.355010659146631e-09, 7.150625154396473e-10).transl(-3.872387753412162e-08, 4e-08, 0))
hIsland = hIsland.sub(rect(3.1648424594167283e-09, -6.325004618641012e-10).transl(7.138400316170315e-08, 4e-08, 0))
hIsland = hIsland.sub(rect(7.027209117052465e-09, -3.457507709810646e-10).transl(5.93204836551369e-08, 4e-08, 0))
hIsland = hIsland.sub(rect(7.732938585072605e-09, -4.460383037489103e-09).transl(6.119654173385986e-08, 4e-08, 0))
hIsland = hIsland.add(rect(8.681003332903196e-09, 3.9160931206881235e-10).transl(3.5201013613960946e-08, 4e-08, 0))
hIsland = hIsland.sub(rect(3.99748133158837e-09, -6.972438648129312e-10).transl(5.14063973823797e-08, 4e-08, 0))
hIsland = hIsland.add(rect(6.7625521216960006e-09, 3.190112408526041e-09).transl(-2.87727042514252e-08, 4e-08, 0))
hIsland = hIsland.sub(rect(5.268923853459742e-09, -2.191707346862217e-09).transl(6.635172980611433e-08, 4e-08, 0))
hIsland = hIsland.sub(rect(2.559132045366049e-09, -2.5875966842466664e-09).transl(8.59616205981581e-09, 4e-08, 0))
hIsland = hIsland.sub(rect(9.492919829741043e-09, -1.863310085339249e-09).transl(-8.906281998235926e-08, 1.7772740359683127e-08, 0))
hIsland = hIsland.add(rect(3.6590437155912645e-09, 3.059904296412275e-09).transl(-1.7239344644762383e-08, 4e-08, 0))
hIsland = hIsland.sub(rect(2.1701099059823162e-09, -1.232017382843531e-09).transl(2.1315910762884838e-08, 4e-08, 0))
hIsland = hIsland.add(rect(7.67108197410145e-09, 1.9916742258438757e-09).transl(-1.2234293171888998e-08, 4e-08, 0))
hIsland = hIsland.sub(rect(4.257781001982476e-09, -2.237303663165782e-09).transl(-8.016725443608348e-08, 4e-08, 0))
hIsland = hIsland.sub(rect(2.0997325566620967e-09, -1.0337311519606822e-09).transl(6.655546480305809e-08, 4e-08, 0))
hIsland = hIsland.sub(rect(9.70974144876393e-09, -6.937170913988264e-10).transl(2.424616361592624e-08, 4e-08, 0))
hIsland = hIsland.add(rect(7.53406918748109e-09, 2.5940300416590755e-09).transl(-1.3989816853174296e-08, 4e-08, 0))
hIsland = hIsland.add(rect(3.3485984265301126e-09, 1.8772168830558215e-09).transl(4.666016245461992e-08, 4e-08, 0))
hIsland = hIsland.sub(rect(3.5919602144760463e-09, -2.519209242088048e-09).transl(-1.6385766722408987e-08, 4e-08, 0))
hIsland = hIsland.sub(rect(6.835951929336671e-09, -2.1693950811643832e-09).transl(-2.5833055166107242e-08, 4e-08, 0))
hIsland = hIsland.add(rect(9.16664721134084e-09, 8.849337892632179e-10).transl(4.619568130321594e-08, 4e-08, 0))
hIsland = hIsland.add(rect(5.964543685280902e-09, 2.653186700928555e-10).transl(6.107464672767811e-08, 4e-08, 0))
hIsland = hIsland.add(rect(3.3633584041494144e-09, 7.296586502719788e-10).transl(-6.2829588941855e-08, 4e-08, 0))
hIsland = hIsland.sub(rect(9.55239260610518e-09, -5.226358393914892e-09).transl(-1.8764025088137e-08, 4e-08, 0))
hIsland = hIsland.add(rect(7.124887162455774e-09, 1.4938091861631382e-09).transl(-7.772611436835109e-08, 4e-08, 0))
hIsland = hIsland.sub(rect(5.755886893455111e-09, -8.77342542077917e-10).transl(-7.06851788392191e-08, 4e-08, 0))
hIsland = hIsland.add(rect(7.408909306158613e-09, 3.5886144989153245e-09).transl(3.351210273002984e-08, 4e-08, 0))
hIsland = hIsland.sub(rect(7.640353537709915e-09, -8.809280289568704e-10).transl(7.861760993197638e-09, 4e-08, 0))
hIsland = hIsland.sub(rect(4.199803676304138e-09, -3.5206134205242016e-09).transl(-7.812849600407172e-08, 4e-08, 0))
hIsland = hIsland.add(rect(9.929954214149792e-09, 2.1614067719476005e-10).transl(6.781029591757947e-08, 4e-08, 0))
hIsland = hIsland.sub(rect(5.010966051683359e-09, -6.076509143500967e-09).transl(4.660749216049869e-08, 4e-08, 0))
hIsland = hIsland.add(rect(9.619024323780625e-09, 2.1695546985629255e-09).transl(6.493003614955824e-08, 4e-08, 0))
hIsland = hIsland.sub(rect(8.820452561760558e-09, -5.100991030588942e-10).transl(-4.554855745439421e-08, 4e-08, 0))
hIsland = hIsland.add(rect(2.2860781758727242e-09, 2.0035511792174944e-10).transl(2.9245626495172777e-08, 4e-08, 0))
hIsland = hIsland.sub(rect(9.8774056719767e-09, -3.1085975692597415e-09).transl(2.787062268559092e-08, 4e-08, 0))
hIsland = hIsland.add(rect(6.48657325973888e-09, 9.620331251794042e-12).transl(1.4171808963698125e-08, 4e-08, 0))
hIsland = hIsland.sub(rect(9.123690626992646e-09, -4.6069320933545526e-10).transl(-7.924590773979993e-08, 4e-08, 0))
hIsland = hIsland.add(rect(2.7228107647815255e-09, 2.034979667449238e-09).transl(1.2559416305265963e-08, 4e-08, 0))
hIsland = hIsland.add(rect(2.734877353842252e-09, 4.3440756145142936e-10).transl(-3.690976247661289e-08, 4e-08, 0))
hIsland = hIsland.add(rect(7.3451977424813666e-09, 1.274831421417886e-09).transl(7.074467724902873e-08, 4e-08, 0))
hIsland = hIsland.sub(rect(2.3134916930903177e-09, -7.148448611197485e-10).transl(1.979671440866953e-08, 4e-08, 0))
hIsland = hIsland.add(rect(9.947032747732519e-09, 3.827190334520605e-09).transl(9.29925583081414e-09, 4e-08, 0))
hIsland = hIsland.add(rect(5.5365013075362276e-09, 1.3207677947929587e-09).transl(-3.5118984182770896e-08, 4e-08, 0))
hIsland = hIsland.sub(rect(6.44234731668537e-09, -1.5835273281517052e-09).transl(-8.92898299266487e-08, 1.5573779665876883e-08, 0))
hIsland = hIsland.add(rect(7.2350661731389536e-09, 1.2917050453388139e-11).transl(4.437516871663442e-08, 4e-08, 0))
hIsland = hIsland.add(rect(4.451824963062699e-09, 5.584943740408785e-10).transl(5.146541252100105e-08, 4e-08, 0))
hIsland = hIsland.sub(rect(6.799285267716429e-09, -2.554955868365159e-09).transl(-8.619949463151306e-08, 3.264935461956203e-08, 0))
hIsland = hIsland.add(rect(5.825123290969553e-09, 2.019041990364468e-09).transl(8.818689964285388e-08, 2.4077436196540067e-08, 0))
hIsland = hIsland.sub(rect(4.743763229786296e-09, -2.3569244771125026e-09).transl(4.3985060393080925e-09, 4e-08, 0))
hIsland = hIsland.sub(rect(4.8529938476144916e-09, -7.957109160545018e-10).transl(4.324803871651382e-08, 4e-08, 0))
hIsland = hIsland.sub(rect(5.148765815422123e-09, -3.3706694142038215e-10).transl(8.427170441204766e-09, 4e-08, 0))
hIsland = hIsland.add(rect(9.684438058223768e-09, 1.863834056225498e-09).transl(7.637213036010106e-09, 4e-08, 0))
hIsland = hIsland.add(rect(7.312979179223636e-09, 1.6516118214907702e-10).transl(-2.878208307251196e-08, 4e-08, 0))
hIsland = hIsland.add(rect(6.155090953769573e-09, 4.238236832778026e-11).transl(2.2743448195156607e-08, 4e-08, 0))
hIsland = hIsland.sub(rect(6.3258506664175675e-09, -7.290153527186168e-09).transl(7.102155424452196e-08, 4e-08, 0))
hIsland = hIsland.add(rect(3.536652151752577e-09, 2.2204796863279197e-09).transl(1.7099547938054286e-08, 4e-08, 0))
hIsland = hIsland.sub(rect(5.557257962369845e-09, -3.7186618889702354e-09).transl(4.437436487624152e-08, 4e-08, 0))
hIsland = hIsland.sub(rect(5.065335434384405e-09, -8.551860624405021e-10).transl(1.5986064942316149e-09, 4e-08, 0))
hIsland = hIsland.sub(rect(5.675219816853442e-09, -5.746662612382008e-11).transl(-2.5583949443786223e-08, 4e-08, 0))
hIsland = hIsland.sub(rect(7.74230624499847e-09, -7.654375383597569e-10).transl(-4.7024952512630365e-08, 4e-08, 0))
hIsland = hIsland.sub(rect(4.1187849176679985e-09, -9.860714332339493e-10).transl(5.8241536442968146e-08, 4e-08, 0))
hIsland = hIsland.add(rect(3.8612635077349455e-09, 3.035540293179587e-09).transl(1.740829448237052e-08, 4e-08, 0))
hIsland = hIsland.sub(rect(6.655560977162431e-09, -8.767767648897292e-10).transl(-3.8065665170877456e-08, 4e-08, 0))
hIsland = hIsland.add(rect(6.700568895039029e-09, 7.059529298888244e-10).transl(-8.478626116650795e-08, 3.6288072761862835e-08, 0))
hIsland = hIsland.sub(rect(2.9884307078646463e-09, -1.8198602545994826e-09).transl(2.2698238471804564e-08, 4e-08, 0))
hIsland = hIsland.sub(rect(7.299505272419162e-09, -2.439433501647434e-09).transl(6.058042321514121e-08, 4e-08, 0))
hIsland = hIsland.add(rect(3.440409431626087e-09, 2.172770637300095e-09).transl(-7.925315245454284e-09, 4e-08, 0))
hIsland = hIsland.add(rect(6.2317355061625e-09, 3.372337346111425e-09).transl(-8.241872710241276e-08, 3.94998892722635e-08, 0))
hIsland = hIsland.sub(rect(6.052103527149929e-09, -1.5727348633334356e-11).transl(-8.481289665452802e-08, 3.6232941590955765e-08, 0))
hIsland = hIsland.sub(rect(9.31553540562925e-09, -1.406847711490868e-09).transl(-7.787280171535595e-08, 4e-08, 0))
hIsland = hIsland.sub(rect(4.57042388976818e-09, -4.746256449128628e-11).transl(-1.9025917032316747e-08, 4e-08, 0))
hIsland = hIsland.sub(rect(3.4064523490675092e-09, -1.5191827546794248e-09).transl(4.300191070587768e-08, 4e-08, 0))
hIsland = hIsland.add(rect(5.092942741405433e-09, 3.1791335725679433e-09).transl(-7.377652006468822e-08, 4e-08, 0))
hIsland = hIsland.sub(rect(9.63626685101902e-09, -2.494079141445311e-09).transl(1.3928734975465211e-08, 4e-08, 0))
hIsland = hIsland.add(rect(8.83806156050272e-09, 1.723127449530016e-09).transl(-1.9264749110584516e-08, 4e-08, 0))
hIsland = hIsland.sub(rect(6.922995251188277e-09, -2.1818091481559337e-09).transl(4.082425954907014e-08, 4e-08, 0))
hIsland = hIsland.add(rect(2.0471978543093768e-09, 2.0835946087196016e-09).transl(-4.69571695102194e-08, 4e-08, 0))
hIsland = hIsland.sub(rect(6.047926837620478e-09, -7.938027226333486e-12).transl(2.066542326288785e-09, 4e-08, 0))
hIsland = hIsland.add(rect(5.879380136198463e-09, 3.114972521734601e-11).transl(8.013710585664442e-08, 4e-08, 0))
hIsland = hIsland.sub(rect(7.695483024531726e-09, -4.774462516386454e-10).transl(-5.608136822930107e-08, 4e-08, 0))
hIsland = hIsland.sub(rect(2.676634318832081e-09, -3.797220667060614e-09).transl(5.38302480319234e-08, 4e-08, 0))
hIsland = hIsland.add(rect(3.4907982926498342e-09, 2.6485174909966067e-09).transl(3.4983108841091366e-08, 4e-08, 0))
hIsland = hIsland.add(rect(2.859009639581445e-09, 2.4100829942861525e-09).transl(-7.516636467152703e-09, 4e-08, 0))
hIsland = hIsland.sub(rect(3.699933010318466e-09, -1.9276143679937424e-09).transl(8.529704551073504e-09, 4e-08, 0))
hIsland = hIsland.add(rect(9.033066940693103e-09, 3.356801131546178e-09).transl(-8.249816517724145e-08, 3.944190942757287e-08, 0))
hIsland = hIsland.add(rect(3.879638497674208e-09, 2.117930269699301e-09).transl(6.726441766242436e-08, 4e-08, 0))
hIsland = hIsland.add(rect(8.246121890011583e-09, 2.3523032616430668e-09).transl(2.4396566738878517e-08, 4e-08, 0))
hIsland = hIsland.add(rect(7.346389047163292e-09, 2.047572638947268e-09).transl(1.0718682465081826e-11, 4e-08, 0))
hIsland = hIsland.sub(rect(4.1321530274621045e-09, -4.458209586716288e-09).transl(-5.11922152655082e-08, 4e-08, 0))
hIsland = hIsland.sub(rect(7.537879619839377e-09, -5.741306911435763e-10).transl(-8.726852766074087e-08, 2.8702152357551252e-08, 0))
hIsland = hIsland.add(rect(8.509387238280324e-09, 1.4773796167234198e-09).transl(6.044933815160603e-08, 4e-08, 0))
hIsland = hIsland.sub(rect(6.994569606952823e-09, -2.2678771961185614e-09).transl(-1.0248936801670992e-08, 4e-08, 0))
hIsland = hIsland.add(rect(2.1161495255510332e-09, 1.5329134233946905e-09).transl(6.838140643143912e-08, 4e-08, 0))
hIsland = hIsland.sub(rect(8.548442694411325e-09, -7.816087852308839e-11).transl(-6.36130479313116e-08, 4e-08, 0))
hIsland = hIsland.add(rect(2.576033945393677e-09, 2.2383418291952687e-09).transl(8.668459303658266e-08, 3.101107791182143e-08, 0))
hIsland = hIsland.sub(rect(3.471604928997728e-09, -6.600117198184537e-10).transl(1.1378189449531577e-08, 4e-08, 0))
vIsland = hIsland.rotz(pi / 2)
vIslands = vIslands.add(vIsland.transl(0, -a/2, 0))
DefRegion(1, hIslands)
DefRegion(2, vIslands)
TableAdd(m_full.Region(1))
TableAdd(m_full.Region(2))
setgeom(hIslands.add(vIslands))
save(geom)
r2o2 := sqrt(2) / 2
m = RandomMagSeed(4)
B_ext = vector(Bmax*r2o2, Bmax*r2o2, 0)
relax()
minimize()
for B := Bmax; B >= -Bmax; B -= Bstep {
	B_ext = vector(B*r2o2, B*r2o2, 0)
	minimize()
	tablesave()
}
//********************************************************************//
//Please cite the following references, relevant for your simulation. //
//See bibtex file in output folder for justification.                 //
//********************************************************************//
//   * Vansteenkiste et al., AIP Adv. 4, 107133 (2014).
//   * Exl et al., J. Appl. Phys. 115, 17D118 (2014).
