# t (s)	mx ()	my ()	mz ()	B_extx (T)	B_exty (T)	B_extz (T)	m_fullx (A/m)	m_fully (A/m)	m_fullz (A/m)	m_full.region1x (A/m)	m_full.region1y (A/m)	m_full.region1z (A/m)	m_full.region2x (A/m)	m_full.region2y (A/m)	m_full.region2z (A/m)
0	0.6432781	0.6432765	-1.3824091e-09	0.07071035	0.07071035	0	25724.844	25724.777	-5.4499626e-05	635882.9	264705.38	-0.0004548536	264706.53	635881.8	-0.0014012782
0	0.64302015	0.64301974	-3.580293e-10	0.07035735	0.07035735	0	25714.527	25714.508	-1.554693e-05	636080.06	264147.88	-0.0002781233	264148.16	636079.6	-0.00022464545
0	0.6427581	0.64275765	-2.2338119e-10	0.07000352	0.07000352	0	25704.05	25704.031	-9.20998e-06	636283.8	263577.34	-0.00017889104	263577.56	636283.44	-0.00012858512
0	0.64249486	0.64249444	-3.3402686e-10	0.06964972	0.06964972	0	25693.521	25693.506	-1.1059213e-05	636487.1	263005.62	-0.00021107362	263005.78	636486.7	-0.00014466478
0	0.64222956	0.64222914	-1.9929368e-10	0.06929681	0.06929681	0	25682.91	25682.895	-7.278491e-06	636691.1	262430.12	-0.00014117706	262430.28	636690.75	-9.340457e-05
0	0.64196	0.6419596	-2.2679783e-10	0.068943016	0.068943016	0	25672.133	25672.117	-9.3188655e-06	636897.25	261846.55	-0.00016787168	261846.72	636896.9	-0.00015129182
0	0.641695	0.6416946	-3.4928746e-10	0.068589196	0.068589196	0	25661.54	25661.52	-1.3733006e-05	637099.4	261273.5	-0.00023325274	261273.7	637099	-0.00028916704
0	0.64142525	0.6414248	-2.2854842e-10	0.06823614	0.06823614	0	25650.744	25650.73	-9.261471e-06	637304.94	260690.2	-0.0001642003	260690.38	637304.5	-0.00018013504
0	0.6411531	0.6411527	-2.3284297e-10	0.06788247	0.06788247	0	25639.863	25639.844	-9.224175e-06	637510.4	260103.8	-0.00014661277	260104.02	637509.94	-0.0001104997
0	0.6408817	0.64088124	-2.9406833e-10	0.06752808	0.06752808	0	25629.008	25628.988	-1.2112119e-05	637715.25	259518.88	-0.0002114277	259519.1	637714.8	-0.00024685438
0	0.64060766	0.6406072	-2.1506193e-10	0.06717558	0.06717558	0	25618.05	25618.031	-8.733995e-06	637920.4	258930.17	-0.00015330555	258930.36	637919.94	-0.00016860246
0	0.6403333	0.6403329	-1.9706198e-10	0.06682197	0.06682197	0	25607.078	25607.059	-8.221277e-06	638125.7	258340.73	-0.00012289688	258340.95	638125.2	-0.00012680663
0	0.6400535	0.6400531	-2.413757e-10	0.06646759	0.06646759	0	25595.889	25595.873	-9.788689e-06	638333.75	257740.95	-0.00021272867	257741.17	638333.3	-0.00014579309
0	0.639778	0.63977754	-2.3038593e-10	0.06611506	0.06611506	0	25584.873	25584.854	-8.822079e-06	638537.9	257151	-0.00017337386	257151.25	638537.5	-0.0001282833
0	0.6394972	0.6394967	-2.349765e-10	0.065761305	0.065761305	0	25573.645	25573.623	-8.078584e-06	638744.75	256551.14	-0.00016345171	256551.36	638744.25	-0.00012802474
0	0.63921624	0.63921577	-3.2406391e-10	0.065407045	0.065407045	0	25562.408	25562.387	-1.3445756e-05	638951.6	255950.84	-0.00025483134	255951.08	638951.2	-0.00015397223
0	0.6389326	0.63893217	-2.0442763e-10	0.06505334	0.06505334	0	25551.066	25551.045	-8.745388e-06	639159.3	255346.17	-0.00014916155	255346.4	639158.9	-0.00017463877
0	0.6386484	0.638648	-2.1515714e-10	0.064700775	0.064700775	0	25539.7	25539.68	-8.792491e-06	639365.94	254741.64	-0.00012358528	254741.88	639365.44	-0.00021471955
0	0.63836265	0.63836205	-2.529691e-10	0.064346395	0.064346395	0	25528.271	25528.25	-9.414099e-06	639573.4	254134	-0.00017437187	254134.28	639572.9	-0.0001968891
0	0.6380749	0.63807446	-2.599745e-10	0.06399281	0.06399281	0	25516.768	25516.748	-1.1216474e-05	639780.8	253523.88	-0.0001157392	253524.12	639780.3	-0.0002298533
0	0.6377852	0.6377846	-2.7041738e-10	0.06363959	0.06363959	0	25505.178	25505.156	-1.16666115e-05	639988.7	252910.25	-0.00018688742	252910.5	639988.25	-0.00027961296
0	0.63749224	0.63749176	-3.2612135e-10	0.06328585	0.06328585	0	25493.465	25493.445	-1.2805645e-05	640197.8	252291.19	-0.000110837085	252291.42	640197.3	-0.00032596433
0	0.6372023	0.6372018	-1.9328378e-10	0.06293233	0.06293233	0	25481.87	25481.844	-8.697437e-06	640405.5	251677.42	-0.00015349074	251677.61	640405.06	-0.00017434706
0	0.6369059	0.6369054	-3.8885428e-10	0.06257907	0.06257907	0	25470.018	25469.994	-1.7026618e-05	640616.1	251051.78	-0.0002625168	251052.08	640615.6	-0.00029765128
0	0.63661236	0.63661194	-2.8052677e-10	0.062225346	0.062225346	0	25458.277	25458.262	-1.1421443e-05	640823.7	250433.39	-0.00020417623	250433.69	640823.25	-0.00019383154
0	0.63631403	0.6363135	-3.5113457e-10	0.06187167	0.06187167	0	25446.348	25446.324	-1.415375e-05	641033.3	249806.02	-0.0002599836	249806.33	641032.9	-0.00022806239
0	0.636016	0.6360155	-2.9986585e-10	0.061518516	0.061518516	0	25434.43	25434.408	-1.2102133e-05	641242.4	249179.84	-0.00019261685	249180.11	641241.8	-0.00018634163
0	0.63571525	0.63571465	-2.693857e-10	0.061164852	0.061164852	0	25422.4	25422.377	-1.1134847e-05	641451.8	248549.25	-0.00021752527	248549.53	641451.2	-0.00011984091
0	0.6354105	0.63540995	-3.3585262e-10	0.060811155	0.060811155	0	25410.21	25410.191	-1.26591085e-05	641663.4	247910.98	-0.00018544111	247911.28	641662.9	-0.000251653
0	0.6351098	0.63510925	-2.0315097e-10	0.06045782	0.06045782	0	25398.19	25398.166	-8.842011e-06	641871.1	247282.34	-0.00017540196	247282.62	641870.6	-0.00010514291
0	0.63480395	0.63480335	-2.1326485e-10	0.060104296	0.060104296	0	25385.96	25385.936	-9.091941e-06	642081.8	246643.48	-0.00014272537	246643.75	642081.25	-8.892447e-05
0	0.63449454	0.634494	-1.4221224e-10	0.059749953	0.059749953	0	25373.586	25373.56	-5.217971e-06	642292.5	245999.52	-9.5129e-05	245999.81	642292	-9.358072e-05
0	0.63418704	0.63418645	-2.9574296e-10	0.059397247	0.059397247	0	25361.29	25361.264	-1.0493924e-05	642503.1	245358.42	-0.0001587388	245358.72	642502.56	-0.00018314424
0	0.6338767	0.63387614	-4.3633513e-10	0.059043795	0.059043795	0	25348.875	25348.855	-1.6628012e-05	642714.06	244713.03	-0.00031814983	244713.31	642713.56	-0.0002643837
0	0.63356197	0.6335613	-3.8316253e-10	0.058689456	0.058689456	0	25336.29	25336.264	-1.5064332e-05	642926.7	244059.67	-0.0002914067	244060	642926.1	-0.00023431939
0	0.63325036	0.6332498	-2.4700028e-10	0.05833672	0.05833672	0	25323.834	25323.809	-1.17268255e-05	643135.6	243414.6	-0.00017271067	243414.9	643135.1	-0.00024205078
0	0.6329342	0.6329337	-2.9418132e-10	0.057983108	0.057983108	0	25311.19	25311.164	-1.3207505e-05	643347.75	242759.9	-0.00022191557	242760.19	643347.2	-0.00025322995
0	0.6326163	0.6326157	-1.9736929e-10	0.05762891	0.05762891	0	25298.473	25298.447	-8.057166e-06	643559.7	242102.83	-0.00017475097	242103.11	643559.1	-7.002161e-05
0	0.632297	0.6322964	-3.54518e-10	0.05727533	0.05727533	0	25285.703	25285.678	-1.3376343e-05	643771.8	241443.6	-0.0002526114	241443.89	643771.25	-0.00020742172
0	0.63197535	0.6319747	-1.4958007e-10	0.05692256	0.05692256	0	25272.842	25272.816	-6.1778073e-06	643983.56	240781.64	-0.00012993132	240781.95	643982.94	-4.5020854e-05
0	0.63165027	0.6316497	-2.417422e-10	0.056568235	0.056568235	0	25259.844	25259.816	-1.02195545e-05	644197.94	240112.1	-0.00021120044	240112.44	644197.5	-0.00014595034
0	0.63132745	0.63132685	-2.2019819e-10	0.056214813	0.056214813	0	25246.934	25246.91	-9.155002e-06	644409.25	239448.94	-0.00018119477	239449.27	644408.6	-0.00010587569
0	0.6310007	0.63100016	-2.0596512e-10	0.055861287	0.055861287	0	25233.867	25233.842	-9.250524e-06	644622.1	238778.66	-0.00022705481	238779	644621.5	-0.00013403797
0	0.6306699	0.6306692	-2.6121555e-10	0.055507686	0.055507686	0	25220.637	25220.611	-1.0477556e-05	644835	238102.39	-0.00019574618	238102.73	644834.5	-0.00015628086
0	0.6303399	0.6303392	-2.7683922e-10	0.055154335	0.055154335	0	25207.44	25207.41	-1.2623582e-05	645048.2	237427.31	-0.00019046033	237427.67	645047.6	-0.00020801096
0	0.6300072	0.63000655	-2.2514876e-10	0.05480076	0.05480076	0	25194.133	25194.105	-8.880409e-06	645261.8	236747.78	-0.00018402636	236748.17	645261.25	-0.00012518946
0	0.6296751	0.6296745	-3.393459e-10	0.054447178	0.054447178	0	25180.855	25180.828	-1.4121401e-05	645475.5	236069.31	-0.0002657458	236069.66	645474.94	-0.00023358228
0	0.62933666	0.62933594	-2.0302245e-10	0.054093663	0.054093663	0	25167.316	25167.295	-6.80463e-06	645690.8	235380.16	-0.00013353884	235380.53	645690.25	-0.0001103317
0	0.62900084	0.6290001	-4.1729836e-10	0.053740177	0.053740177	0	25153.893	25153.863	-1.680357e-05	645903.5	234697.28	-0.00026206087	234697.66	645902.94	-0.00035996106
0	0.6286616	0.628661	-2.5864103e-10	0.053386666	0.053386666	0	25140.324	25140.297	-1.176552e-05	646116.94	234008.97	-0.00020290774	234009.33	646116.3	-0.00020567341
0	0.6283191	0.6283184	-3.0860114e-10	0.053033147	0.053033147	0	25126.627	25126.6	-1.2778892e-05	646332	233314.36	-0.00018003875	233314.75	646331.4	-0.00022352894
0	0.62797606	0.62797534	-3.60636e-10	0.05267945	0.05267945	0	25112.908	25112.877	-1.461235e-05	646545.8	232620.17	-0.000207758	232620.56	646545.2	-0.00031668978
0	0.6276307	0.62763005	-2.582044e-10	0.052326117	0.052326117	0	25099.1	25099.072	-1.1163163e-05	646760.1	231922.45	-0.00018754983	231922.83	646759.5	-0.00019976044
0	0.6272803	0.6272796	-3.5737896e-10	0.051971845	0.051971845	0	25085.084	25085.055	-1.29947675e-05	646977.4	231214.62	-0.00023694315	231215.02	646976.7	-0.00018319514
0	0.6269337	0.626933	-3.034819e-10	0.051618867	0.051618867	0	25071.225	25071.197	-1.1957516e-05	647190.06	230516.75	-0.00025004984	230517.11	647189.5	-0.00012650448
0	0.6265815	0.6265807	-2.3678706e-10	0.051265612	0.051265612	0	25057.139	25057.111	-9.3885765e-06	647405.94	229807.75	-0.00023935636	229808.16	647405.25	-8.6356704e-05
0	0.62622726	0.6262266	-3.986888e-10	0.050911337	0.050911337	0	25042.979	25042.947	-1.5585958e-05	647621.9	229095.98	-0.00029134596	229096.39	647621.2	-0.0002704714
0	0.625872	0.6258713	-2.5594774e-10	0.050558325	0.050558325	0	25028.771	25028.738	-1.0150359e-05	647836.25	228384.22	-0.00024339645	228384.62	647835.56	-9.556951e-05
0	0.62551415	0.62551343	-1.8624115e-10	0.05020489	0.05020489	0	25014.459	25014.428	-6.6204525e-06	648053.1	227666.31	-0.00011816762	227666.75	648052.44	-9.5473035e-05
0	0.6251551	0.6251543	-3.0545722e-10	0.049850788	0.049850788	0	25000.098	25000.07	-1.1826115e-05	648267.56	226949.16	-0.00022937072	226949.6	648266.94	-0.00017022117
0	0.6247915	0.6247906	-1.7680825e-10	0.04949739	0.04949739	0	24985.559	24985.527	-7.361201e-06	648485.94	226221.73	-0.00013844005	226222.17	648485.25	-0.00011634501
0	0.6244276	0.62442684	-3.5399578e-10	0.049144328	0.049144328	0	24971.006	24970.975	-1.3712448e-05	648701	225497.25	-0.00024588773	225497.69	648700.4	-0.00025274453
0	0.6240621	0.6240613	-2.389504e-10	0.048790082	0.048790082	0	24956.389	24956.355	-1.0430063e-05	648918.4	224768.05	-0.00013311213	224768.48	648917.8	-0.00018663434
0	0.62369597	0.6236952	-1.5291683e-10	0.04843687	0.04843687	0	24941.748	24941.717	-5.749042e-06	649133.06	224040.84	-0.00019055403	224041.28	649132.44	-4.551807e-05
0	0.62332577	0.62332493	-3.6623543e-10	0.04808294	0.04808294	0	24926.941	24926.914	-1.4522177e-05	649349.56	223306.05	-0.0002991042	223306.48	649348.8	-0.00015044543
0	0.6229534	0.62295264	-2.1123597e-10	0.04772953	0.04772953	0	24912.055	24912.021	-8.334299e-06	649566.5	222567.9	-0.00016509333	222568.39	649565.8	-0.000107229585
0	0.6225765	0.6225757	-3.2479103e-10	0.047376405	0.047376405	0	24896.979	24896.95	-1.3700883e-05	649784.6	221822.06	-0.00027424705	221822.52	649783.94	-0.00023607833
0	0.62219983	0.62219906	-4.3889606e-10	0.047022395	0.047022395	0	24881.92	24881.887	-1.8361945e-05	650001.8	221077.56	-0.00029564337	221078.05	650001.06	-0.00031205927
0	0.62182385	0.62182313	-2.4220118e-10	0.04666901	0.04666901	0	24866.887	24866.854	-9.031234e-06	650217.94	220335.1	-0.00018116561	220335.55	650217.25	-0.00013049127
0	0.62144285	0.621442	-1.613247e-10	0.046315704	0.046315704	0	24851.645	24851.611	-6.80249e-06	650435.44	219584.11	-0.00012945576	219584.6	650434.7	-9.1641516e-05
0	0.6210579	0.6210571	-2.1193675e-10	0.045961797	0.045961797	0	24836.256	24836.219	-8.369127e-06	650654.9	218825.78	-0.00019385666	218826.27	650654.25	-0.00014052351
0	0.6206724	0.6206716	-2.3838392e-10	0.045608494	0.045608494	0	24820.834	24820.8	-9.723382e-06	650872.7	218068.23	-0.00025489143	218068.72	650871.9	-0.00010240669
0	0.6202855	0.6202847	-1.6329571e-10	0.045255188	0.045255188	0	24805.363	24805.328	-8.0708805e-06	651090	217309.16	-0.00017184603	217309.67	651089.4	-9.814658e-05
0	0.6198965	0.6198955	-2.0323947e-10	0.04490103	0.04490103	0	24789.803	24789.768	-8.140729e-06	651307.06	216547.44	-0.0001771779	216547.94	651306.3	-8.9080786e-05
0	0.6195049	0.6195039	-2.8116312e-10	0.044547945	0.044547945	0	24774.145	24774.111	-1.0996585e-05	651524.44	215781.94	-0.0001381994	215782.45	651523.6	-0.00020701598
0	0.61911035	0.6191095	-2.99924e-10	0.04419374	0.04419374	0	24758.373	24758.334	-1.1994182e-05	651742.75	215011.28	-0.00029520868	215011.83	651742	-0.00014765693
0	0.61871207	0.6187111	-2.2176969e-10	0.043840446	0.043840446	0	24742.441	24742.406	-8.555099e-06	651962.94	214233.48	-0.00014841495	214234.03	651962.1	-0.00018922774
0	0.6183144	0.61831343	-2.5974112e-10	0.043487187	0.043487187	0	24726.535	24726.5	-1.0054699e-05	652179.5	213460.05	-0.00021113557	213460.61	652178.8	-0.00015386616
0	0.6179128	0.6179119	-2.63829e-10	0.043133244	0.043133244	0	24710.479	24710.441	-1.0161073e-05	652398.4	212679.11	-0.00016789493	212679.67	652397.6	-0.00015481422
0	0.61750793	0.61750704	-3.1303857e-10	0.042779926	0.042779926	0	24694.29	24694.25	-1.2829422e-05	652618.75	211891.81	-0.0002578728	211892.39	652618	-0.0001724463
0	0.6171011	0.61710024	-2.9973476e-10	0.042426657	0.042426657	0	24678.02	24677.982	-1.1330253e-05	652838.1	211102.84	-0.00017120238	211103.4	652837.4	-0.00026098295
0	0.6166951	0.61669415	-2.5161265e-10	0.04207268	0.04207268	0	24661.781	24661.744	-9.7715765e-06	653054.5	210318.12	-0.00022229347	210318.7	653053.7	-5.5847282e-05
0	0.61628294	0.616282	-2.6465125e-10	0.041719414	0.041719414	0	24645.3	24645.262	-1.0562251e-05	653274.25	209521.34	-0.00017886754	209521.92	653273.4	-0.00015522286
0	0.61586875	0.61586773	-2.5381597e-10	0.04136609	0.04136609	0	24628.732	24628.695	-1.043953e-05	653493.56	208722.03	-0.0002139833	208722.61	653492.75	-0.00012369818
0	0.61545295	0.615452	-2.8358024e-10	0.041011933	0.041011933	0	24612.105	24612.066	-1.02561635e-05	653713	207920.58	-0.00019200079	207921.16	653712.2	-9.586483e-05
0	0.6150342	0.6150334	-3.9756998e-10	0.040658846	0.040658846	0	24595.367	24595.328	-1.4890997e-05	653932.44	207114.98	-0.00026879882	207115.6	653931.6	-0.00018972816
0	0.61461544	0.6146144	-2.0790966e-10	0.04030471	0.04030471	0	24578.613	24578.574	-8.548387e-06	654151.44	206309.58	-0.00015903357	206310.19	654150.6	-5.682828e-05
0	0.61419046	0.6141894	-2.1609914e-10	0.03995136	0.03995136	0	24561.617	24561.578	-7.475423e-06	654371.8	205494.19	-0.00018583867	205494.83	654370.94	-6.1549734e-05
0	0.6137642	0.61376315	-2.2823998e-10	0.039598063	0.039598063	0	24544.574	24544.533	-8.582228e-06	654593.06	204676.14	-0.00018809272	204676.77	654592.3	-0.00012259306
0	0.613339	0.61333793	-3.4582306e-10	0.039244205	0.039244205	0	24527.572	24527.527	-1.3848715e-05	654810.06	203863.88	-0.00025759637	203864.52	654809.3	-0.00024657155
0	0.6129063	0.6129052	-3.303303e-10	0.038890842	0.038890842	0	24510.27	24510.229	-1.17277705e-05	655032.1	203036.06	-0.00025994636	203036.69	655031.4	-0.00016445214
0	0.6124726	0.61247164	-1.9112349e-10	0.038537536	0.038537536	0	24492.926	24492.883	-6.968361e-06	655252.4	202208.66	-0.0001379	202209.31	655251.5	-0.00010650293
0	0.6120371	0.61203605	-3.2132577e-10	0.038183637	0.038183637	0	24475.506	24475.467	-1.3019832e-05	655472.25	201379.12	-0.00025222162	201379.78	655471.4	-0.00017202627
0	0.61159873	0.61159766	-4.501048e-10	0.03783033	0.03783033	0	24457.975	24457.934	-1.67512e-05	655692.3	200545.2	-0.0003740149	200545.89	655691.5	-0.00019454939
0	0.61115843	0.61115724	-2.7385585e-10	0.03747694	0.03747694	0	24440.37	24440.324	-1.1302617e-05	655910.9	199710.27	-0.00020581555	199710.95	655909.94	-0.00019486337
0	0.6107132	0.6107121	-4.5332024e-10	0.03712286	0.03712286	0	24422.566	24422.521	-1.7609369e-05	656131.56	198866.34	-0.0003794006	198867.03	656130.7	-0.0002321487
0	0.610267	0.61026585	-2.3705188e-10	0.036769744	0.036769744	0	24404.719	24404.676	-9.859951e-06	656353.44	198019.62	-0.00019747518	198020.31	656352.56	-0.000114489645
0	0.60981804	0.60981697	-3.4869135e-10	0.036415678	0.036415678	0	24386.768	24386.723	-1.2776784e-05	656573.6	197170.9	-0.0002611771	197171.62	656572.9	-0.00019016556
0	0.6093661	0.609365	-3.0706462e-10	0.036062278	0.036062278	0	24368.695	24368.65	-1.2470639e-05	656792.5	196319.3	-0.00021318045	196320.05	656791.6	-0.00020807653
0	0.60891104	0.60890996	-3.4414208e-10	0.035708938	0.035708938	0	24350.498	24350.453	-1.229828e-05	657013.75	195461.06	-0.00024053603	195461.8	657012.8	-0.00019610995
0	0.6084543	0.60845315	-2.9946234e-10	0.035355177	0.035355177	0	24332.23	24332.184	-1.1702047e-05	657235.56	194599.72	-0.00024332045	194600.45	657234.7	-0.00012746234
0	0.6079935	0.60799223	-3.0667785e-10	0.03500176	0.03500176	0	24313.8	24313.752	-1.1217747e-05	657456.75	193733.34	-0.00024376923	193734.1	657455.9	-0.0001549709
0	0.6075313	0.6075301	-8.901717e-11	0.034648404	0.034648404	0	24295.32	24295.271	-3.964597e-06	657677.06	192866.03	-0.000111949164	192866.8	657676.1	-1.8471032e-05
0	0.60706687	0.6070657	-3.6461703e-10	0.034294598	0.034294598	0	24276.748	24276.697	-1.4390637e-05	657896.06	191996.8	-0.00022902116	191997.56	657895.1	-0.00024524346
0	0.60659647	0.6065953	-2.1658927e-10	0.033941235	0.033941235	0	24257.936	24257.887	-9.299903e-06	658119.44	191114.98	-0.00018310855	191115.75	658118.44	-0.000121352554
0	0.606126	0.60612476	-2.0107485e-10	0.03358779	0.03358779	0	24239.12	24239.072	-8.452221e-06	658338.3	190237.25	-0.00011747212	190238.05	658337.4	-0.0001376766
0	0.60565287	0.6056516	-2.6847877e-10	0.033233795	0.033233795	0	24220.2	24220.152	-1.0845929e-05	658558.9	189354.39	-0.00024045834	189355.17	658557.9	-0.00012182705
0	0.6051738	0.6051725	-2.866249e-10	0.032880653	0.032880653	0	24201.045	24200.994	-1.165503e-05	658782.5	188460.08	-0.00022230895	188460.89	658781.5	-0.00023616219
0	0.60469335	0.60469216	-4.4321335e-10	0.03252667	0.03252667	0	24181.828	24181.777	-1.751636e-05	659003.8	187566.05	-0.00037751245	187566.88	659002.9	-0.00026550147
0	0.6042108	0.60420954	-3.715577e-10	0.032173198	0.032173198	0	24162.533	24162.482	-1.573146e-05	659224.9	186669.45	-0.00023320496	186670.3	659224	-0.00024278284
0	0.6037249	0.6037235	-2.430996e-10	0.031819794	0.031819794	0	24143.1	24143.047	-1.0214572e-05	659446.06	185767.92	-0.00019335597	185768.77	659445.2	-0.00012773875
0	0.60323745	0.60323614	-2.5349073e-10	0.031466164	0.031466164	0	24123.607	24123.555	-9.728621e-06	659665.2	184866.36	-0.00018559443	184867.23	659664.2	-0.00017154816
0	0.6027436	0.6027423	-2.1108648e-10	0.031112673	0.031112673	0	24103.861	24103.805	-8.000333e-06	659889	183951.27	-0.00020816809	183952.16	659887.94	-4.2909185e-05
0	0.60225046	0.60224897	-2.499859e-10	0.030759258	0.030759258	0	24084.133	24084.084	-1.214505e-05	660108	183041.7	-0.00018350339	183042.6	660106.94	-0.00020832739
0	0.6017504	0.60174906	-2.3543834e-10	0.030405577	0.030405577	0	24064.139	24064.086	-9.714055e-06	660331.8	182117.86	-0.00020319795	182118.78	660330.75	-0.00012171565
0	0.6012492	0.60124785	-3.040407e-10	0.030052148	0.030052148	0	24044.1	24044.041	-1.2241301e-05	660553.4	181194.64	-0.00011609135	181195.58	660552.4	-0.00024434485
0	0.6007449	0.6007434	-2.512446e-10	0.029698623	0.029698623	0	24023.928	24023.873	-1.0345421e-05	660774.94	180266.88	-0.0002010726	180267.83	660774	-0.00016526387
0	0.60023725	0.60023576	-3.4677597e-10	0.029344728	0.029344728	0	24003.625	24003.57	-1.3019909e-05	660996.7	179334.34	-0.00032466077	179335.3	660995.8	-0.00012243005
0	0.599728	0.5997266	-2.9641317e-10	0.028991554	0.028991554	0	23983.264	23983.205	-1.3216165e-05	661216.25	178402	-0.00020551958	178402.97	661215.2	-0.0002591732
0	0.59921265	0.5992112	-3.2553013e-10	0.028637664	0.028637664	0	23962.652	23962.594	-1.2816795e-05	661440.06	177456.64	-0.00025361383	177457.61	661439.06	-0.00018660173
0	0.5986956	0.59869415	-3.5792058e-10	0.028284118	0.028284118	0	23941.979	23941.92	-1.39083795e-05	661661.75	176511.17	-0.0003002883	176512.16	661660.7	-0.00018944283
0	0.59817517	0.59817374	-3.308565e-10	0.027930643	0.027930643	0	23921.166	23921.107	-1.35275095e-05	661883.6	175560.56	-0.0002829175	175561.56	661882.56	-0.00023005015
0	0.5976531	0.5976516	-1.8170054e-10	0.027577167	0.027577167	0	23900.29	23900.23	-8.125815e-06	662103.1	174610.2	-0.00019098427	174611.23	662102.06	-7.874126e-05
0	0.5971245	0.59712297	-2.8260838e-10	0.027223589	0.027223589	0	23879.15	23879.09	-1.0895074e-05	662327.4	173645.9	-0.00032941042	173646.94	662326.3	-4.4045082e-05
0	0.5965943	0.5965927	-2.7085692e-10	0.026870089	0.026870089	0	23857.945	23857.883	-1.0855863e-05	662549.25	172681.62	-0.00024877026	172682.67	662548.25	-8.629625e-05
0	0.59606194	0.59606045	-1.8591391e-10	0.026516574	0.026516574	0	23836.656	23836.594	-7.4662053e-06	662769	171716.61	-0.00015174088	171717.67	662767.9	-9.0723224e-05
0	0.5955251	0.5955235	-2.5752192e-10	0.026163058	0.026163058	0	23815.186	23815.125	-1.0726957e-05	662990.8	170743.2	-0.00022705976	170744.27	662989.7	-0.00014294745
0	0.5949829	0.5949813	-2.9919078e-10	0.025809433	0.025809433	0	23793.506	23793.445	-1.196586e-05	663215.4	169759.61	-0.0002668904	169760.72	663214.25	-0.00015372541
0	0.59443885	0.5944372	-3.7699013e-10	0.025455669	0.025455669	0	23771.748	23771.686	-1.5448924e-05	663437.56	168775.69	-0.0003455841	168776.81	663436.5	-0.00018808786
0	0.59389126	0.5938897	-2.5292282e-10	0.025102446	0.025102446	0	23749.855	23749.79	-1.0112107e-05	663659.75	167787	-0.00026341094	167788.14	663658.56	-0.00010403197
0	0.59334177	0.59334016	-3.9566397e-10	0.024748694	0.024748694	0	23727.875	23727.81	-1.5725956e-05	663879.75	166797.6	-0.00029228246	166798.75	663878.56	-0.00025027996
0	0.59278655	0.5927849	-1.692805e-10	0.024395041	0.024395041	0	23705.672	23705.605	-6.330379e-06	664102	165798	-0.00015319773	165799.14	664100.9	-7.539527e-05
0	0.592229	0.59222734	-2.8275207e-10	0.02404147	0.02404147	0	23683.375	23683.31	-1.1055271e-05	664323.8	164795.61	-0.00025847548	164796.78	664322.7	-0.00012902734
0	0.5916672	0.5916655	-1.8132236e-10	0.023688203	0.023688203	0	23660.908	23660.844	-6.47866e-06	664546.6	163786.27	-0.00013646716	163787.45	664545.44	-3.6239715e-05
0	0.59110016	0.5910985	-3.4971273e-10	0.023334505	0.023334505	0	23638.236	23638.166	-1.2665585e-05	664771.2	162767.89	-0.00030223455	162769.11	664769.94	-0.00013899949
0	0.59053147	0.59052974	-3.9191914e-10	0.022980899	0.022980899	0	23615.488	23615.422	-1.5280439e-05	664993.5	161749.28	-0.00029906214	161750.48	664992.25	-0.00019269653
0	0.58996016	0.5899584	-3.880408e-10	0.022627594	0.022627594	0	23592.645	23592.572	-1.5261603e-05	665213.56	160729.33	-0.00027733605	160730.58	665212.4	-0.0002627359
0	0.58938295	0.58938104	-3.1102002e-10	0.022273973	0.022273973	0	23569.56	23569.488	-1.2256901e-05	665436.3	159698.47	-0.00024173342	159699.7	665435.1	-0.0001731034
0	0.58880246	0.58880067	-3.951195e-10	0.021920223	0.021920223	0	23546.35	23546.277	-1.5532703e-05	665659	158663.22	-0.00033545797	158664.48	665657.75	-0.00020627287
0	0.5882172	0.5882154	-3.1847977e-10	0.021566622	0.021566622	0	23522.945	23522.87	-1.2363176e-05	665883.8	157618.9	-0.000310677	157620.22	665882.6	-8.5083324e-05
0	0.587629	0.5876272	-1.7862659e-10	0.021213328	0.021213328	0	23499.422	23499.35	-6.338777e-06	666106.6	156572.64	-0.00018032284	156573.95	666105.4	-7.5492244e-05
0	0.587037	0.5870352	-3.6601575e-10	0.020859707	0.020859707	0	23475.75	23475.672	-1.3906839e-05	666329.44	155521.05	-0.00028300777	155522.38	666328.2	-0.00019232341
0	0.58644116	0.58643925	-2.4973904e-10	0.020505967	0.020505967	0	23451.916	23451.844	-9.629255e-06	666552.25	154463.95	-0.00017179255	154465.31	666551	-0.00017194774
0	0.5858415	0.5858396	-2.1194826e-10	0.020152355	0.020152355	0	23427.941	23427.861	-8.047005e-06	666773.2	153403.58	-0.00020211902	153404.95	666771.94	-9.9457284e-05
0	0.58523804	0.5852361	-3.4222994e-10	0.019799031	0.019799031	0	23403.809	23403.73	-1.3127965e-05	666996.1	152335.78	-0.00028458875	152337.19	666994.8	-0.00019574659
0	0.58463037	0.5846284	-1.2886044e-10	0.019445421	0.019445421	0	23379.506	23379.428	-5.542178e-06	667219.1	151261.97	-5.0243194e-05	151263.39	667217.8	-0.00012143952
0	0.5840167	0.5840148	-2.7235297e-10	0.019091818	0.019091818	0	23354.967	23354.887	-1.0185135e-05	667444.75	150177.23	-0.00016670283	150178.67	667443.4	-0.00016602999
0	0.5834017	0.58339965	-1.9243868e-10	0.01873847	0.01873847	0	23330.37	23330.291	-7.4947384e-06	667665.5	149095.45	-0.00021293157	149096.89	667664.1	-1.9506037e-05
0	0.58278155	0.5827795	-3.205617e-10	0.018384872	0.018384872	0	23305.57	23305.486	-1.1156908e-05	667888.8	148003.8	-0.00030156158	148005.3	667887.44	-8.6901375e-05
0	0.5821548	0.58215284	-2.1937079e-10	0.018031139	0.018031139	0	23280.508	23280.428	-7.2249463e-06	668115	146900.23	-0.0001653729	146901.77	668113.7	-0.00010159792
0	0.58152604	0.581524	-2.391029e-10	0.017677588	0.017677588	0	23255.361	23255.281	-8.843019e-06	668336.4	145798.53	-0.00015126079	145800.08	668335.06	-0.00017931439
0	0.5808936	0.58089155	-2.220838e-10	0.017324202	0.017324202	0	23230.07	23229.988	-8.293968e-06	668560	144689.47	-0.00020926939	144691.02	668558.7	-6.837822e-05
0	0.5802555	0.5802534	-2.1181956e-10	0.016970618	0.016970618	0	23204.555	23204.473	-8.124497e-06	668784.1	143572	-0.00011906969	143573.6	668782.8	-0.00015070279
0	0.57961327	0.5796112	-3.5203065e-10	0.016616898	0.016616898	0	23178.87	23178.785	-1.4224222e-05	669008.06	142448.86	-0.00030194677	142450.45	669006.7	-0.00021330669
0	0.5789653	0.5789632	-2.8823818e-10	0.016263334	0.016263334	0	23152.959	23152.873	-1.0494393e-05	669234.75	141315.12	-0.00028031546	141316.77	669233.4	-9.613399e-05
0	0.5783139	0.5783117	-1.1526204e-10	0.015909897	0.015909897	0	23126.91	23126.82	-3.7044367e-06	669459.1	140178.66	-0.00015692381	140180.3	669457.7	-3.4763375e-06
0	0.577658	0.5776558	-2.9989491e-10	0.015556336	0.015556336	0	23100.676	23100.59	-1.2290426e-05	669683.8	139035.73	-0.00025334916	139037.4	669682.3	-0.00017118771
0	0.57699746	0.5769952	-2.0127837e-10	0.015202789	0.015202789	0	23074.262	23074.172	-7.982947e-06	669908.4	137886.31	-0.00017080212	137888.05	669907	-0.00010059147
0	0.57633346	0.5763312	-3.8229206e-10	0.014849312	0.014849312	0	23047.71	23047.62	-1.5681642e-05	670130.8	136734.34	-0.00033804058	136736.08	670129.3	-0.00015836504
0	0.5756632	0.57566094	-2.6608904e-10	0.014495777	0.014495777	0	23020.908	23020.814	-1.0015299e-05	670356.1	135570.64	-0.0002521997	135572.4	670354.6	-9.117735e-05
0	0.5749884	0.57498604	-2.5413313e-10	0.014142059	0.014142059	0	22993.92	22993.828	-8.865963e-06	670581.3	134400.62	-0.00024252126	134402.42	670579.8	-5.8952377e-05
0	0.5743084	0.574306	-2.9961073e-10	0.013788584	0.013788584	0	22966.727	22966.633	-1.1817726e-05	670807.44	133222.56	-0.00028979048	133224.38	670805.94	-8.568234e-05
0	0.57362175	0.5736195	-3.286512e-10	0.013435044	0.013435044	0	22939.271	22939.176	-1.3963743e-05	671036.06	132032.69	-0.00036229953	132034.53	671034.5	-9.418913e-05
0	0.5729336	0.5729313	-1.9815508e-10	0.013081529	0.013081529	0	22911.752	22911.656	-8.845669e-06	671259.3	130846.016	-0.0002219121	130847.88	671257.75	-0.00010523067
0	0.57223856	0.57223606	-4.4432583e-10	0.012727834	0.012727834	0	22883.951	22883.855	-1.7535873e-05	671486.25	129645.73	-0.00038349046	129647.625	671484.8	-0.0002572977
0	0.5715367	0.5715342	-1.592478e-10	0.012374347	0.012374347	0	22855.889	22855.79	-6.4137475e-06	671715.9	128433.72	-0.00020799911	128435.664	671714.25	-1.9528208e-05
0	0.5708329	0.5708304	-2.9711905e-10	0.012020735	0.012020735	0	22827.742	22827.643	-1.2499555e-05	671940.3	127223.805	-0.00031855816	127225.766	671938.8	-0.00014025823
0	0.57012206	0.5701195	-1.7404617e-10	0.0116672525	0.0116672525	0	22799.314	22799.213	-5.6795025e-06	672167.9	126000.94	-0.0001838071	126002.945	672166.4	-4.3747397e-05
0	0.56940436	0.56940174	-2.819282e-10	0.011313797	0.011313797	0	22770.613	22770.508	-1.1041793e-05	672398.8	124765.19	-0.00033213556	124767.22	672397.25	-2.6063384e-05
0	0.56868434	0.5686817	-2.2821303e-10	0.010960111	0.010960111	0	22741.824	22741.719	-8.489805e-06	672624.4	123531.67	-0.00018974053	123533.734	672622.8	-8.410701e-05
0	0.567957	0.56795436	-1.7962276e-10	0.010606664	0.010606664	0	22712.732	22712.627	-7.497223e-06	672853.56	122284.15	-0.00018570054	122286.25	672852	-2.6631425e-05
0	0.5672242	0.5672216	-2.628997e-10	0.010252983	0.010252983	0	22683.43	22683.324	-1.00016605e-05	673082.75	121029.05	-0.00017097962	121031.19	673081.1	-0.0001368423
0	0.5664855	0.5664828	-3.184091e-10	0.009899516	0.009899516	0	22653.887	22653.777	-1.2534347e-05	673313	119764.484	-0.00031339453	119766.65	673311.44	-0.00012048339
0	0.5657412	0.56573844	-3.4435543e-10	0.009545909	0.009545909	0	22624.123	22624.012	-1.3374787e-05	673543.1	118492.266	-0.0002874565	118494.46	673541.5	-0.00017013423
0	0.5649906	0.56498784	-3.4295508e-10	0.009192436	0.009192436	0	22594.104	22593.992	-1.2668233e-05	673774.5	117210.016	-0.00034395055	117212.234	673772.8	-0.00010104834
0	0.56423223	0.5642295	-2.5492888e-10	0.008838794	0.008838794	0	22563.78	22563.666	-9.805279e-06	674009.4	115913.41	-0.00022466447	115915.68	674007.8	-8.730594e-05
0	0.56347156	0.56346875	-1.9371857e-10	0.008485309	0.008485309	0	22533.361	22533.248	-8.421655e-06	674238.7	114619.21	-0.00021325264	114621.52	674237.06	-5.556729e-05
0	0.56270224	0.5626994	-2.330868e-10	0.008131667	0.008131667	0	22502.594	22502.479	-9.1819575e-06	674472.3	113308.516	-0.00026176235	113310.85	674470.7	-6.191583e-05
0	0.5619269	0.56192404	-2.3485597e-10	0.007778168	0.007778168	0	22471.59	22471.473	-8.987782e-06	674706.25	111989.04	-0.000238561	111991.43	674704.5	-9.768968e-06
0	0.5611451	0.56114227	-2.0261674e-10	0.007424656	0.007424656	0	22440.33	22440.209	-7.703962e-06	674941.25	110659.586	-0.00021161392	110662.016	674939.6	-3.548701e-05