# t (s)	mx ()	my ()	mz ()	B_extx (T)	B_exty (T)	B_extz (T)	m_fullx (A/m)	m_fully (A/m)	m_fullz (A/m)	m_full.region1x (A/m)	m_full.region1y (A/m)	m_full.region1z (A/m)	m_full.region2x (A/m)	m_full.region2y (A/m)	m_full.region2z (A/m)
0	0.6434567	0.6434568	-3.4444894e-10	0.07071085	0.07071085	0	93329.36	93329.39	-5.694242e-05	647250.8	253588.86	-0.00020257538	253588.53	647250.75	-0.00041457286
0	0.643189	0.643188	-4.0135792e-10	0.070357256	0.070357256	0	93290.52	93290.39	-5.7430498e-05	647482.3	252981.67	-0.00023398241	252982.36	647481.5	-0.00029875943
0	0.64291567	0.6429146	-3.6541542e-10	0.07000352	0.07000352	0	93250.88	93250.73	-5.141087e-05	647718.75	252362.38	-0.0002763819	252363.12	647718.06	-0.00023633795
0	0.6426412	0.6426401	-2.1865021e-10	0.06964993	0.06964993	0	93211.07	93210.914	-2.9610059e-05	647956.3	251740.44	-0.0001758794	251741.22	647955.7	-0.00014486496
0	0.64236695	0.64236593	-3.264777e-10	0.06929657	0.06929657	0	93171.31	93171.15	-4.262547e-05	648191.25	251121.67	-0.00028894472	251122.44	648190.7	-0.00015664259
0	0.64208764	0.6420865	-1.2579875e-10	0.068943	0.06894301	0	93130.77	93130.625	-1.8872344e-05	648430.7	250491.08	-0.00013819095	250491.86	648430.06	6.281407e-06
0	0.6418101	0.6418091	-8.985625e-11	0.06858926	0.06858926	0	93090.53	93090.375	-1.0737714e-05	648666.7	249866.67	-0.00016017588	249867.47	648666	8.990264e-05
0	0.6415278	0.6415266	-3.7739625e-10	0.06823568	0.06823568	0	93049.57	93049.42	-5.6617035e-05	648906.7	249231.33	-0.00031407035	249232.16	648905.94	-0.0002701005
0	0.6412471	0.641246	-3.624202e-10	0.06788231	0.06788231	0	93008.875	93008.71	-5.677973e-05	649143.56	248601.6	-0.00016959799	248602.39	649142.8	-0.00032977387
0	0.6409629	0.6409618	-2.9952082e-12	0.06752872	0.06752872	0	92967.64	92967.49	-1.9523115e-06	649382.5	247964.8	-5.0251256e-05	247965.61	649381.7	4.1614323e-05
0	0.64067733	0.64067626	-7.7875414e-11	0.067174986	0.067174986	0	92926.23	92926.08	-1.2690025e-05	649621.8	247325.77	-0.00015075377	247326.6	649621	2.5518217e-05
0	0.6403898	0.64038867	-3.4145375e-10	0.066821754	0.066821754	0	92884.53	92884.37	-5.7755882e-05	649861.7	246683.17	-0.0002638191	246684.02	649861	-0.00033291458
0	0.6401006	0.6400994	-3.0551126e-10	0.066468164	0.066468164	0	92842.586	92842.42	-4.099854e-05	650101.94	246038.03	-0.000227701	246038.9	650101.25	-0.00015507224
0	0.6398094	0.6398083	-3.2947292e-10	0.066114426	0.066114426	0	92800.34	92800.195	-5.499011e-05	650343.06	245389.3	-0.00024340452	245390.16	650342.25	-0.00029522614
0	0.6395164	0.6395153	-4.672525e-10	0.065760866	0.06576086	0	92757.86	92757.68	-6.702936e-05	650584.3	244737.86	-0.00025832286	244738.75	650583.5	-0.0003876806
0	0.6392222	0.639221	-3.1449687e-10	0.06540746	0.06540746	0	92715.17	92715	-5.0434715e-05	650826	244084.11	-0.0001821608	244085.02	650825.25	-0.00020493091
0	0.63892615	0.638925	-1.9768374e-10	0.065053925	0.06505392	0	92672.234	92672.06	-2.5705434e-05	651067.7	243428	-8.79397e-05	243428.9	651067	-0.00015899811
0	0.63862616	0.63862497	-7.3083084e-10	0.064700186	0.064700186	0	92628.71	92628.54	-0.000110956375	651312.2	242763.48	-0.0005496231	242764.39	651311.4	-0.0005339196
0	0.6383282	0.63832706	-2.3063104e-10	0.06434661	0.06434661	0	92585.51	92585.336	-2.9772751e-05	651553.1	242105.5	-3.5332916e-05	242106.4	651552.3	-0.00028030778
0	0.638025	0.6380238	-1.0483229e-10	0.06399321	0.0639932	0	92541.54	92541.36	-1.6594648e-05	651797.3	241436.73	-2.5125628e-05	241437.64	651796.56	-0.00010599874
0	0.63772285	0.6377217	-4.7923332e-11	0.06363963	0.06363963	0	92497.72	92497.52	0	652040.2	240770.9	-4.55402e-05	240771.83	652039.44	3.768844e-05
0	0.63741654	0.6374153	-1.407748e-10	0.06328591	0.06328591	0	92453.27	92453.09	-2.4241202e-05	652284.94	240097.23	-1.4133166e-05	240098.16	652284.2	-0.00010639133
0	0.63710904	0.63710773	-3.5043937e-10	0.06293265	0.06293265	0	92408.66	92408.49	-5.1736257e-05	652529.6	239421.9	-0.00028894472	239422.88	652528.9	-0.00028030778
0	0.6368012	0.63679993	-2.7555916e-10	0.06257908	0.06257908	0	92364.02	92363.85	-3.4165452e-05	652773.9	238746.81	-0.000108354274	238747.77	652773.1	-0.0001986495
0	0.6364887	0.63648754	-3.2947292e-10	0.06222535	0.062225346	0	92318.71	92318.52	-5.645434e-05	653020.2	238063.14	-0.00017744975	238064.12	653019.44	-0.00029522614
0	0.63617706	0.6361759	-1.7072688e-10	0.061871793	0.061871793	0	92273.5	92273.32	-2.4891971e-05	653265.2	237381.78	-2.5125628e-05	237382.75	653264.44	-0.00020453832
0	0.6358611	0.63585985	-2.3662144e-10	0.06151836	0.061518364	0	92227.67	92227.49	-3.9697003e-05	653512.2	236692.42	-9.500628e-05	236693.38	653511.44	-0.00021710113
0	0.6355446	0.6355433	-2.6357833e-10	0.06116484	0.06116484	0	92181.75	92181.57	-3.709392e-05	653758.75	236002.6	-0.0001758794	236003.62	653758	-0.0001986495
0	0.63522595	0.6352246	-7.7875414e-11	0.060811102	0.06081111	0	92135.54	92135.35	-1.1713869e-05	654006.44	235308.77	-3.768844e-05	235309.8	654005.7	-0.0001271985
0	0.63490605	0.6349047	-2.6657354e-10	0.060457546	0.06045755	0	92089.14	92088.945	-3.6443147e-05	654252.9	234614.56	-0.00029208543	234615.56	654252.06	-8.519158e-05
0	0.63458353	0.6345823	-4.4928125e-10	0.060104113	0.060104113	0	92042.375	92042.18	-6.117243e-05	654500.5	233915.4	-0.00019315326	233916.44	654499.75	-0.00045383166
0	0.63425833	0.634257	-1.7372208e-10	0.05975055	0.05975055	0	91995.195	91995.016	-2.912198e-05	654749.1	233211.52	-0.0001758794	233212.55	654748.4	-0.0001205245
0	0.63393193	0.6339306	-2.2164541e-10	0.05939683	0.05939683	0	91947.87	91947.664	-3.514161e-05	654997.44	232506.28	-0.00012405778	232507.33	654996.6	-0.0001625314
0	0.6336032	0.6336019	-1.4377e-10	0.05904355	0.05904355	0	91900.17	91899.98	-2.3753124e-05	655246.7	231796.78	-0.00015075377	231797.84	655245.9	-2.316269e-05
0	0.6332724	0.63327104	-3.5642977e-10	0.05868998	0.05868998	0	91852.195	91852.01	-5.873204e-05	655496.4	231084	-0.00030150753	231085	655495.56	-0.00020964196
0	0.6329385	0.6329372	-3.0551126e-10	0.05833626	0.05833626	0	91803.766	91803.57	-4.034777e-05	655747.5	230365.42	-0.000254397	230366.47	655746.6	-0.00025204147
0	0.6326046	0.6326032	-5.0019977e-10	0.05798272	0.057982728	0	91755.336	91755.15	-6.9144364e-05	655996.5	229648.9	-0.00038944723	229650.02	655995.6	-0.00025635993
0	0.6322665	0.63226515	-7.7875414e-11	0.057629257	0.057629254	0	91706.29	91706.086	-4.5553934e-06	656247.6	228924.36	1.2562814e-05	228925.47	656246.8	-0.00012562814
0	0.63192755	0.63192606	2.2164541e-10	0.0572757	0.057275705	0	91657.12	91656.92	3.335199e-05	656498.6	228198.73	0.00022848618	228199.84	656497.75	0.00010050251
0	0.63158584	0.6315845	3.294729e-11	0.056922022	0.056922022	0	91607.57	91607.375	-1.6269263e-07	656750.25	227468.86	0	227469.97	656749.44	1.6881282e-05
0	0.6312435	0.6312422	-2.965256e-10	0.056568485	0.056568485	0	91557.914	91557.71	-3.4978915e-05	657001.8	226738.1	-0.0002732412	226739.22	657000.94	-0.00012562814
0	0.63089675	0.6308953	-1.2579875e-10	0.056215007	0.056215007	0	91507.61	91507.41	-2.3427738e-05	657254.7	225999.62	-0.00012405778	226000.73	657253.8	-6.909548e-05
0	0.6305501	0.63054866	-4.762381e-10	0.05586147	0.05586147	0	91457.336	91457.13	-6.4100896e-05	657506.7	225262.27	-0.0003219221	225263.38	657505.8	-0.00039455088
0	0.6301996	0.6301982	-2.6956876e-10	0.05550775	0.05550775	0	91406.51	91406.3	-3.8720846e-05	657759.7	224518.64	-0.00016331658	224519.77	657758.8	-0.00024615263
0	0.62984776	0.6298463	-2.965256e-10	0.05515443	0.05515444	0	91355.47	91355.26	-4.1812007e-05	658013.06	223772.5	-0.00033134423	223773.67	658012.3	-0.000113065325
0	0.629493	0.6294915	-3.893771e-10	0.05480089	0.054800898	0	91304.016	91303.805	-5.7105113e-05	658267.3	223021.64	-0.00022613065	223022.83	658266.5	-0.0003223147
0	0.6291358	0.6291343	-3.2048728e-10	0.05444718	0.05444718	0	91252.195	91251.984	-4.8645095e-05	658521.6	222267.17	-0.000254397	222268.36	658520.8	-0.00023516017
0	0.62877697	0.62877554	-5.6908957e-11	0.054093663	0.054093663	0	91200.16	91199.94	-6.18232e-06	658775.94	221510.58	1.2562814e-05	221511.81	658775.06	-7.537688e-05
0	0.62841576	0.6284142	-3.8338666e-10	0.053740148	0.053740148	0	91147.77	91147.555	-5.824396e-05	659031	220749.86	-0.0002763819	220751.03	659030.1	-0.00024811557
0	0.62805104	0.62804955	-3.3546332e-10	0.053386614	0.053386614	0	91094.87	91094.64	-5.1085484e-05	659286.94	219983.22	-0.0001758794	219984.42	659286.1	-0.00032388506
0	0.62768525	0.6276838	1.0183708e-10	0.053032953	0.053032946	0	91041.82	91041.61	1.236464e-05	659542.44	219215.81	-6.595477e-05	219217.05	659541.5	0.00021984924
0	0.62731624	0.62731475	-1.5575083e-10	0.052679427	0.05267943	0	90988.29	90988.07	-1.7570805e-05	659798.94	218442.56	-0.00022220478	218443.8	659798.06	9.0295225e-06
0	0.6269455	0.62694407	-4.2531959e-10	0.052325893	0.052325893	0	90934.516	90934.305	-5.499011e-05	660055.5	217666.95	-0.0002575377	217668.2	660054.6	-0.00022848618
0	0.62657297	0.6265714	-2.3961666e-10	0.051972385	0.051972385	0	90880.48	90880.26	-3.351468e-05	660312	216888.9	-0.0001334799	216890.2	660311.06	-0.00018726445
0	0.6261974	0.62619585	-2.545927e-10	0.051618673	0.051618673	0	90826.01	90825.76	-3.4328146e-05	660569.25	216105.78	-0.00020100502	216107.06	660568.3	-0.00013190955
0	0.62581867	0.62581706	-3.0850644e-10	0.05126532	0.05126532	0	90771.08	90770.84	-3.6117763e-05	660827	215317.81	-0.00020100502	215319.1	660826.1	-0.00021199748
0	0.62543786	0.62543637	-1.4976041e-10	0.050911807	0.050911807	0	90715.84	90715.61	-2.5217358e-05	661085.06	214526.66	-0.0001271985	214527.97	661084.2	-8.79397e-05
0	0.62505573	0.6250542	-1.3777958e-10	0.0505581	0.050558098	0	90660.414	90660.19	-2.472928e-05	661342.94	213733.83	-0.00013819095	213735.14	661342.06	-7.616206e-05
0	0.6246694	0.6246679	-2.6956876e-10	0.050204597	0.050204597	0	90604.37	90604.15	-4.0673156e-05	661601.94	212933.9	-0.00021356784	212935.22	661601.06	-0.0001727387
0	0.6242816	0.62428	3.59425e-11	0.049851034	0.049851034	0	90548.14	90547.89	6.8330905e-06	661860.75	212132.16	-5.731784e-05	212133.5	661859.9	0.00012562814
0	0.62389094	0.62388927	-2.9952082e-12	0.049497522	0.049497522	0	90491.46	90491.234	-9.761558e-07	662120.06	211325.81	-2.1984924e-05	211327.16	662119.2	8.087311e-05
0	0.62349755	0.623496	-3.6541542e-10	0.04914387	0.04914387	0	90434.414	90434.17	-5.499011e-05	662380.06	210515.19	-0.00033919598	210516.55	662379.06	-0.00023319724
0	0.6231017	0.62310004	-2.7555916e-10	0.04879038	0.048790377	0	90377	90376.766	-3.9371615e-05	662640	209701.02	-0.00016331658	209702.36	662639.1	-0.0001821608
0	0.62270343	0.62270176	-1.5275563e-10	0.048436783	0.048436783	0	90319.22	90318.98	-2.603082e-05	662900.1	208883.22	-0.00014604272	208884.61	662899.2	-0.00013033919
0	0.6223021	0.6223005	-1.2579875e-10	0.048083294	0.048083294	0	90261.02	90260.79	-1.919773e-05	663160.94	208060.69	-0.00016331658	208062.06	663160	-4.593279e-05
0	0.6218984	0.62189674	-1.4976041e-11	0.0477296	0.0477296	0	90202.47	90202.234	-8.134632e-06	663421.8	207234.47	-0.000113065325	207235.89	663421	9.500628e-05
0	0.6214915	0.6214899	-1.4976041e-10	0.047376204	0.047376204	0	90143.445	90143.21	-2.4241202e-05	663683.7	206403.02	-8.79397e-05	206404.44	663682.75	-0.00015114636
0	0.62108284	0.6210812	-3.953675e-10	0.047022715	0.047022715	0	90084.17	90083.93	-5.141087e-05	663944.8	205569.78	-0.00023869346	205571.19	663943.8	-0.00027913004
0	0.62067026	0.6206686	-2.2464063e-10	0.046669018	0.046669018	0	90024.33	90024.08	-2.7332362e-05	664207.25	204729.69	-0.00014447236	204731.11	664206.4	-0.000113065325
0	0.6202551	0.62025344	7.4880206e-11	0.04631554	0.04631554	0	89964.12	89963.86	1.2527333e-05	664469.8	203885.83	-1.2562814e-05	203887.28	664469	0.00013544284
0	0.6198378	0.61983615	-2.3063104e-10	0.045961913	0.045961913	0	89903.586	89903.34	-3.0423522e-05	664732.4	203039.14	-8.79397e-05	203040.6	664731.44	-0.00015782035
0	0.61941725	0.6194155	-2.5758792e-10	0.04560843	0.04560843	0	89842.586	89842.34	-3.5629684e-05	664995.4	202187.3	-0.00025832286	202188.78	664994.44	-4.9858667e-05
0	0.61899334	0.6189917	-5.331471e-10	0.04525479	0.045254797	0	89781.11	89780.87	-8.215978e-05	665259.06	201330.23	-0.00041457286	201331.69	665258.06	-0.00031603329
0	0.61856645	0.6185647	-2.9353042e-10	0.044901326	0.04490132	0	89719.18	89718.93	-3.6280457e-05	665523.6	200467.77	-0.00028737437	200469.25	665522.8	-0.00013033919
0	0.6181385	0.61813676	-5.211662e-10	0.044547673	0.044547673	0	89657.11	89656.86	-7.776708e-05	665786.25	199606.19	-0.00033291458	199607.7	665785.3	-0.00031132225
0	0.61770546	0.6177037	-1.3478438e-10	0.04419421	0.04419421	0	89594.305	89594.05	-2.3753124e-05	666051	198735.11	-0.0001758794	198736.64	666050	-8.1462e-05
0	0.61727136	0.61726964	-4.8522375e-10	0.043840528	0.043840528	0	89531.34	89531.09	-6.654129e-05	666315.06	197863.38	-0.00037688442	197864.92	666314.1	-0.0002763819
0	0.616833	0.6168311	-1.1980833e-10	0.043487057	0.043487057	0	89467.74	89467.5	-1.8709652e-05	666580.1	196984.52	-0.00011620603	196986.03	666579.2	-1.2562814e-05
0	0.6163922	0.6163905	-3.953675e-10	0.04313362	0.04313362	0	89403.83	89403.58	-5.385126e-05	666845.2	196102.38	-0.00029836682	196103.94	666844.3	-0.00023241206
0	0.6159482	0.61594635	-2.7855437e-10	0.042779934	0.04277993	0	89339.414	89339.16	-4.6204706e-05	667110.44	195215.42	-0.00025125628	195217	667109.44	-0.00010874686
0	0.6155011	0.61549926	-1.3478438e-10	0.042426474	0.042426474	0	89274.58	89274.31	-2.1475427e-05	667376.06	194323.89	-0.00018530151	194325.48	667375.1	-3.768844e-05
0	0.6150501	0.61504835	-2.0367416e-10	0.0420728	0.0420728	0	89209.164	89208.91	-2.7495054e-05	667642.44	193426.17	-0.00016017588	193427.78	667641.44	-0.00018844221
0	0.6145975	0.6145957	-2.3362626e-10	0.041719344	0.041719344	0	89143.516	89143.25	-3.6036417e-05	667908	192526.89	-0.00016331658	192528.48	667907.06	-0.000142902
0	0.61414015	0.6141383	-5.810704e-10	0.041365713	0.04136572	0	89077.17	89076.914	-8.484421e-05	668175	191619.6	-0.00045697237	191621.2	668174	-0.00036039573
0	0.6136808	0.6136789	-4.402956e-10	0.041012257	0.041012257	0	89010.555	89010.28	-7.028322e-05	668441.5	190709.98	-0.00039572865	190711.61	668440.5	-0.00020885679
0	0.61321753	0.6132156	-7.4580686e-10	0.040658575	0.040658575	0	88943.36	88943.1	-0.00010184559	668708.5	189794.48	-0.000540201	189796.12	668707.5	-0.00051703834
0	0.6127515	0.6127497	-1.8570291e-10	0.04030513	0.04030513	0	88875.766	88875.5	-2.9528712e-05	668975.5	188874.97	-6.9880654e-05	188876.64	668974.56	-0.00016331658
0	0.6122808	0.612279	-8.686104e-11	0.03995145	0.03995145	0	88807.51	88807.23	-1.6838687e-05	669244.1	187947.45	-3.1407035e-06	187949.12	669243.06	-0.00012798367
0	0.6118089	0.611807	-2.8454478e-10	0.039597984	0.039597984	0	88739.05	88738.766	-4.1405274e-05	669510.7	187020.05	-0.00018844221	187021.73	669509.75	-0.00022377513
0	0.61133236	0.61133045	-6.589458e-11	0.039244525	0.039244525	0	88669.92	88669.65	-1.1876562e-05	669778.9	186084.73	-7.969535e-05	186086.42	669777.9	1.2562814e-05
0	0.6108529	0.61085093	-2.3662144e-10	0.038890842	0.038890842	0	88600.375	88600.1	-3.506026e-05	670046.75	185145.52	-6.909548e-05	185147.23	670045.8	-0.00028698178
0	0.61036915	0.61036724	-5.391375e-11	0.038537376	0.038537376	0	88530.22	88529.94	-1.2527333e-05	670315.4	184199.69	-1.2955402e-05	184201.42	670314.44	-0.0001271985
0	0.6098831	0.6098812	-2.2464063e-10	0.038183715	0.038183715	0	88459.73	88459.45	-3.0586216e-05	670583.5	183251.17	-0.00017744975	183252.9	670582.56	-0.0001023673
0	0.60939276	0.6093909	1.0483229e-10	0.037830252	0.037830252	0	88388.62	88388.33	1.789619e-05	670852.56	182295.69	6.281407e-05	182297.45	670851.5	0.00015379633
0	0.6088988	0.60889685	-5.091854e-11	0.037476577	0.037476577	0	88316.945	88316.66	-1.0412328e-05	671121.5	181335.02	-9.225817e-05	181336.78	671120.56	-2.1199749e-05
0	0.60840046	0.60839856	-2.0367416e-10	0.03712317	0.03712317	0	88244.664	88244.39	-3.0992946e-05	671391.2	180367.7	-0.00019747173	180369.47	671390.25	-0.00013819095
0	0.60790104	0.607899	-5.3015187e-10	0.0367695	0.0367695	0	88172.22	88171.945	-7.882458e-05	671659.9	179399.78	-0.00041810615	179401.58	671658.9	-0.00034351446
0	0.6073962	0.6073942	-2.7555916e-10	0.036416046	0.036416046	0	88099.01	88098.73	-4.4903165e-05	671929.7	178423.17	-0.00027088568	178424.97	671928.75	-0.00020021985
0	0.6068883	0.60688627	-3.0850644e-10	0.03606237	0.036062375	0	88025.336	88025.055	-4.262547e-05	672199.06	177442.66	-0.00024536747	177444.47	672198.06	-0.00019472362
0	0.6063763	0.6063743	-2.3961666e-11	0.0357089	0.0357089	0	87951.086	87950.79	8.948095e-06	672469	176456.02	-7.223618e-05	176457.84	672468.1	0.0001625314
0	0.60586095	0.6058589	-5.18171e-10	0.035355426	0.035355426	0	87876.336	87876.04	-7.760438e-05	672738.7	175464.75	-0.00052292715	175466.6	672737.75	-0.00019943467
0	0.60534114	0.6053391	4.1932915e-11	0.03500176	0.03500176	0	87800.94	87800.66	3.09116e-06	673008.94	174466.8	2.2377513e-05	174468.62	673008.06	4.396985e-05
0	0.60481775	0.60481566	-4.5826687e-10	0.034648284	0.034648284	0	87725.016	87724.73	-5.9870887e-05	673279.4	173463.53	-0.00037217338	173465.39	673278.5	-0.00024222676
0	0.6042903	0.60428834	8.686104e-11	0.03429463	0.034294635	0	87648.53	87648.234	6.4263586e-06	673549.8	172454.75	-7.537688e-05	172456.61	673548.94	0.00015428706
0	0.6037589	0.60375684	-3.59425e-10	0.033941153	0.033941153	0	87571.445	87571.14	-5.0922794e-05	673820.4	171440.16	-0.00029444095	171442.06	673819.4	-0.00019334957
0	0.6032241	0.6032221	-3.3546332e-10	0.033587493	0.033587493	0	87493.87	87493.58	-4.6204706e-05	674090.94	170420.92	-0.00016331658	170422.83	674090	-0.00027520413
0	0.6026848	0.60268277	-2.7256394e-10	0.033234082	0.033234082	0	87415.664	87415.37	-3.4734876e-05	674361.75	169395.16	-0.0001758794	169397.05	674360.8	-0.0001593907
0	0.6021402	0.60213816	-2.9353042e-10	0.032880433	0.03288043	0	87336.664	87336.375	-4.7180863e-05	674633.2	168361.17	-0.00020453832	168363.1	674632.25	-0.00021121232
0	0.6015929	0.60159075	-2.0666938e-10	0.032526962	0.032526962	0	87257.27	87256.984	-2.3753124e-05	674904.2	167323.92	-0.00024615263	167325.84	674903.3	-9.520258e-06
0	0.60104275	0.6010407	2.0966458e-11	0.032173306	0.032173302	0	87177.49	87177.19	0	675174.3	166283.69	-0.00010050251	166285.61	675173.44	0.0001758794
0	0.60048646	0.60048443	-1.1980833e-10	0.031819817	0.031819817	0	87096.8	87096.49	-1.5618492e-05	675445.75	165233.31	-0.00019786433	165235.28	675444.9	3.1407035e-05
0	0.599927	0.5999249	-3.534346e-10	0.031466324	0.031466324	0	87015.65	87015.34	-5.4827415e-05	675716.7	164179.12	-0.00020100502	164181.08	675715.8	-0.00030190012
0	0.59936255	0.5993606	-2.3362626e-10	0.031112675	0.031112673	0	86933.79	86933.48	-3.904623e-05	675988	163117.64	-0.0001758794	163119.64	675987.06	-0.00018922739
0	0.5987928	0.5987907	-2.9353042e-10	0.030759182	0.030759182	0	86851.13	86850.84	-4.262547e-05	676260.25	162047.7	-0.0002406564	162049.7	676259.25	-9.4221105e-05
0	0.59822077	0.59821874	-4.2531959e-10	0.030405551	0.030405555	0	86768.18	86767.875	-6.231128e-05	676530.5	160976.64	-0.00031407035	160978.62	676529.5	-0.0002897299
0	0.59764355	0.59764147	-2.0966458e-10	0.030052057	0.030052058	0	86684.45	86684.15	-3.139968e-05	676801.4	159897.61	-0.00016331658	159899.62	676800.4	-0.0001955088
0	0.5970616	0.5970595	-4.792333e-10	0.029698415	0.029698413	0	86600.05	86599.75	-6.8168214e-05	677072.6	158811.64	-0.00033919598	158813.64	677071.7	-0.00038316584
0	0.5964746	0.5964725	-2.6357833e-10	0.02934499	0.029344995	0	86514.9	86514.59	-4.132393e-05	677344.4	157718.03	-0.00038944723	157720.06	677343.44	3.415515e-05
0	0.5958827	0.5958806	-5.6609434e-10	0.02899136	0.028991364	0	86429.055	86428.75	-8.297324e-05	677616.25	156617.5	-0.00032663316	156619.53	677615.44	-0.00039572865
0	0.595288	0.59528583	-3.264777e-10	0.028637853	0.02863785	0	86342.79	86342.48	-4.2462776e-05	677886.56	155514.47	-0.00037413632	155516.5	677885.7	1.9629397e-06
0	0.5946874	0.5946853	-2.965256e-10	0.028284242	0.028284242	0	86255.68	86255.375	-4.0673156e-05	678157.7	154402.62	-0.00030150753	154404.69	678156.75	-9.029522e-05
0	0.59407985	0.59407777	-3.4145375e-10	0.027930735	0.027930735	0	86167.56	86167.26	-5.1492218e-05	678430.2	153279.61	-0.0001271985	153281.69	678429.3	-0.00036314383
0	0.593471	0.59346896	-2.0966458e-10	0.027577216	0.02757722	0	86079.26	86078.95	-3.131833e-05	678700.56	152156.86	-0.00016135364	152158.9	678699.7	-9.736181e-05
0	0.592857	0.592855	-4.672525e-10	0.02722359	0.02722359	0	85990.2	85989.9	-6.336878e-05	678970.6	151027.17	-0.00036392902	151029.25	678969.75	-0.00028501885
0	0.59223723	0.5922351	-4.4628604e-10	0.026870074	0.026870074	0	85900.3	85899.99	-5.9464157e-05	679241.3	149888.62	-0.00037688442	149890.73	679240.44	-0.00019668655
0	0.5916128	0.59161067	2.9952082e-11	0.026516477	0.026516473	0	85809.72	85809.414	1.7896189e-06	679511.75	148744.03	6.5169595e-05	148746.14	679510.9	-5.1036433e-05
0	0.5909815	0.59097934	-3.7140582e-10	0.026162945	0.026162947	0	85718.15	85717.836	-5.0434715e-05	679783.3	147588.52	-0.00032388506	147590.61	679782.5	-0.00021435301
0	0.59034735	0.5903452	-2.5758792e-10	0.025809335	0.025809336	0	85626.17	85625.875	-3.709392e-05	680052.75	146431.4	-0.00023358982	146433.53	680051.9	-9.77544e-05
0	0.58970594	0.58970386	-3.0551126e-10	0.025455903	0.0254559	0	85533.16	85532.84	-4.7506248e-05	680324	145262.28	-0.00029502984	145264.4	680323.06	-0.00014447236
0	0.5890617	0.58905953	-3.534346e-10	0.025102299	0.025102299	0	85439.71	85439.39	-5.254972e-05	680592.94	144091.34	-0.00034704775	144093.45	680592	-0.00012405778
0	0.5884105	0.58840835	-2.6657354e-10	0.024748765	0.024748765	0	85345.26	85344.945	-3.3677374e-05	680862.9	142909.67	-0.00023869346	142911.81	680862	-0.00011581344
0	0.587754	0.58775187	-4.0135792e-10	0.02439519	0.024395188	0	85250.03	85249.72	-5.51528e-05	681132.7	141720.78	-0.00034253296	141722.9	681131.8	-0.00014761307
0	0.5870927	0.5870905	-2.0367416e-10	0.024041647	0.024041647	0	85154.11	85153.8	-2.847121e-05	681401.9	140525.69	-0.0001756831	140527.83	681401.06	-8.558417e-05
0	0.58642554	0.5864234	-5.9904165e-11	0.023688102	0.023688102	0	85057.35	85057.04	-7.483861e-06	681670.9	139322.7	-0.0001758794	139324.88	681670	0.00010678392
0	0.5857527	0.58575064	-5.211662e-10	0.023334509	0.023334509	0	84959.76	84959.45	-8.085823e-05	681939.75	138111.9	-0.0003998508	138114.08	681938.94	-0.0003344849
0	0.58507425	0.58507216	-4.2232437e-10	0.022980956	0.022980956	0	84861.36	84861.05	-6.068435e-05	682208.25	136893.5	-0.00034979585	136895.67	682207.5	-0.00022613065
0	0.5843903	0.58438814	-5.091854e-11	0.022627398	0.022627395	0	84762.15	84761.836	-1.3178103e-05	682476.3	135667.9	-0.00018746074	135670.06	682475.44	0.00010285804
0	0.58370036	0.58369815	-5.4213267e-10	0.022273833	0.022273837	0	84662.07	84661.76	-7.670958e-05	682744.25	134434.02	-0.00039494346	134436.19	682743.44	-0.00037060303
0	0.5830042	0.5830021	-4.1633394e-10	0.021920262	0.021920262	0	84561.09	84560.8	-6.019627e-05	683011.9	133191.81	-0.0003344849	133194	683011.06	-0.00026146357
0	0.5823014	0.5822993	-3.0251604e-10	0.02156681	0.02156681	0	84459.164	84458.86	-4.352028e-05	683279.7	131940.03	-0.00020355685	131942.23	683278.94	-0.00021199748
0	0.5815942	0.5815921	-3.8039144e-10	0.021213237	0.021213237	0	84356.59	84356.3	-5.4176646e-05	683545.75	130684.016	-0.00030523713	130686.195	683544.94	-0.00019472362
0	0.5808796	0.5808775	-1.797125e-10	0.020859672	0.020859672	0	84252.96	84252.64	-2.9284673e-05	683812.1	129417.234	-0.00022593436	129419.42	683811.3	-5.1036433e-05
0	0.58015907	0.5801569	-4.8821897e-10	0.020506129	0.020506129	0	84148.43	84148.125	-7.435053e-05	684078.56	128141.85	-0.0004430355	128144.055	684077.8	-0.00025125628
0	0.57943386	0.5794318	-1.1980833e-11	0.020152567	0.020152565	0	84043.25	84042.945	-6.670398e-06	684342.9	126862.38	-0.00019433103	126864.586	684342.06	0.0001334799
0	0.5787005	0.5786984	-2.2464063e-10	0.019798994	0.019798994	0	83936.875	83936.58	-3.440949e-05	684607.94	125570.57	-0.00021356784	125572.79	684607.1	-7.1451e-05
0	0.5779613	0.5779593	4.7923332e-11	0.019445421	0.019445421	0	83829.67	83829.375	9.842904e-06	684872.1	124271.56	-2.5125628e-05	124273.76	684871.44	0.00012170226
0	0.5772137	0.5772116	-3.8338666e-10	0.019091858	0.019091858	0	83721.23	83720.92	-5.2631065e-05	685136.44	122960.48	-0.00029169285	122962.68	685135.75	-0.00021356784
0	0.5764626	0.5764606	-3.59425e-11	0.01873829	0.018738288	0	83612.3	83611.99	-5.206164e-06	685399.2	121646.31	-0.00013819095	121648.52	685398.44	5.1036433e-05
0	0.57570314	0.575701	-2.2464063e-10	0.01838475	0.01838475	0	83502.12	83501.83	-3.733796e-05	685661.9	120320.3	-0.00016842023	120322.49	685661.06	-0.0001593907
0	0.57493687	0.57493484	-4.5227644e-10	0.018031185	0.018031187	0	83390.99	83390.695	-6.605321e-05	685923.7	118985.766	-0.00050918653	118987.96	685923	-0.00015703517
0	0.57416415	0.5741621	-2.0067896e-10	0.017677713	0.017677713	0	83278.914	83278.62	-2.8796596e-05	686184.7	117642.945	-0.00038866207	117645.15	686183.94	9.893216e-05
0	0.5733833	0.5733812	-1.3777958e-10	0.017324142	0.017324142	0	83165.65	83165.35	-2.2370235e-05	686445.44	116288.875	-0.00013819095	116291.08	686444.8	-6.281407e-06
0	0.5725966	0.57259464	-2.905352e-10	0.016970577	0.016970577	0	83051.56	83051.266	-4.2869506e-05	686704.9	114928.32	-0.0003229036	114930.55	686704.1	-6.281407e-05
0	0.57180196	0.57179993	-3.953675e-10	0.016617041	0.016617041	0	82936.28	82935.984	-5.6088284e-05	686963.94	113556.516	-0.00037256596	113558.72	686963.3	-9.029522e-05
0	0.57100004	0.5709981	1.5575083e-10	0.01626348	0.01626348	0	82819.984	82819.69	2.2085524e-05	687222.1	112175.78	1.2562814e-05	112177.97	687221.5	0.0002669598
0	0.57019013	0.5701881	-2.7256394e-10	0.015909908	0.015909908	0	82702.5	82702.21	-3.7907383e-05	687479.6	110784.32	-0.00013230214	110786.51	687479	-0.0001758794
0	0.5693734	0.56937146	2.3961666e-11	0.015556337	0.015556336	0	82584.05	82583.766	-6.507705e-07	687735.9	109384.734	-0.00011620603	109386.92	687735.25	0.00018373116
0	0.56854904	0.568547	-4.5826687e-10	0.015202776	0.015202777	0	82464.47	82464.18	-6.1741855e-05	687991.4	107975.06	-0.00037688442	107977.234	687990.8	-0.00026853016
0	0.5677163	0.56771433	2.15655e-10	0.014849207	0.014849206	0	82343.695	82343.41	2.6478225e-05	688246.06	106554.64	0.00028442996	106556.81	688245.44	4.55402e-05
0	0.56687605	0.5668741	-5.8406563e-10	0.01449568	0.014495682	0	82221.81	82221.53	-8.655248e-05	688499.5	105124.83	-0.00043106155	105126.99	688498.9	-0.0003847362
0	0.56602764	0.56602573	-4.0135792e-10	0.014142121	0.014142121	0	82098.766	82098.48	-6.1904546e-05	688751.8	103684.81	-0.0004029915	103686.96	688751.2	-0.00020571607
0	0.56517166	0.56516975	2.605831e-10	0.013788608	0.01378861	0	81974.59	81974.336	4.2300082e-05	689002.94	102235.22	6.83103e-05	102237.37	689002.4	0.00028266333
0	0.56430626	0.5643044	-3.983627e-10	0.013435037	0.013435037	0	81849.086	81848.805	-6.1213104e-05	689253.4	100773.164	-0.00034135522	100775.305	689252.94	-0.00023633795
0	0.5634331	0.5634313	-4.4329082e-10	0.013081473	0.013081473	0	81722.445	81722.17	-5.9057424e-05	689502.44	99301.93	-0.00025125628	99304.055	689501.9	-0.0003384108
0	0.56255126	0.5625495	-1.6174125e-10	0.012727952	0.01272795	0	81594.55	81594.28	-2.0336578e-05	689750.1	97819.63	-0.00022161589	97821.76	689749.56	2.9836683e-05
0	0.5616606	0.56165874	-3.234825e-10	0.012374381	0.012374381	0	81465.35	81465.086	-4.4659126e-05	689996.75	96326.05	-0.00040201005	96328.16	689996.2	-6.909548e-05
0	0.56076145	0.56075966	3.59425e-11	0.012020824	0.012020824	0	81334.93	81334.68	1.1673196e-05	690241.75	94822.17	-0.00018844221	94824.26	690241.25	0.0003344849
0	0.55985284	0.55985105	2.3961666e-11	0.011667254	0.011667254	0	81203.15	81202.89	5.7349152e-06	690485.56	93306.35	-7.262877e-06	93308.42	690485.1	9.4221105e-05
0	0.5589352	0.55893344	4.4928124e-11	0.011313699	0.011313699	0	81070.05	81069.8	1.0330982e-05	690727.94	91779.33	-1.2562814e-05	91781.38	690727.44	7.616206e-05
0	0.55800855	0.5580067	-3.324681e-10	0.010960131	0.010960132	0	80935.64	80935.38	-4.90925e-05	690968.8	90241.086	-0.00042713567	90243.14	690968.4	-2.7481155e-05
0	0.5570723	0.5570705	-2.7555916e-10	0.010606619	0.010606619	0	80799.85	80799.59	-3.7134592e-05	691208	88691.24	-0.0001466316	88693.28	691207.6	-0.00019001256
0	0.55612665	0.5561249	-5.9904165e-11	0.010253064	0.010253064	0	80662.68	80662.445	-8.37867e-06	691445.56	87129.76	2.9836683e-05	87131.78	691445.1	-0.00010678392
0	0.5551713	0.55516964	-4.792333e-10	0.009899496	0.009899496	0	80524.125	80523.875	-6.654129e-05	691681.3	85556.516	-0.00028894472	85558.5	691681	-0.00035882537
0	0.5542058	0.5542041	-5.9904165e-11	0.009545929	0.009545929	0	80384.08	80383.83	-6.507705e-06	691915.5	83970.59	1.6684988e-05	83972.555	691915.2	-6.281407e-06
0	0.5532304	0.55322886	-4.732429e-10	0.009192375	0.009192375	0	80242.6	80242.375	-7.0405236e-05	692147.7	82372.945	-0.00042517274	82374.89	692147.44	-0.00026224874
0	0.55224454	0.55224305	3.953675e-10	0.008838857	0.008838857	0	80099.625	80099.39	5.425799e-05	692378.1	80762.39	0.00016959799	80764.31	692377.8	0.0004067211
0	0.55124944	0.55124784	-1.8570291e-10	0.008485288	0.008485288	0	79955.27	79955.05	-2.4241202e-05	692606.44	79140.86	-0.0002575377	79142.76	692606.1	7.537688e-05
0	0.550242	0.5502405	3.59425e-11	0.00813174	0.00813174	0	79809.16	79808.93	3.7419304e-06	692832.75	77504.234	-6.281407e-05	77506.12	692832.5	8.951005e-05
0	0.5492247	0.54922324	-4.5527165e-10	0.0077781687	0.007778168	0	79661.61	79661.39	-6.743609e-05	693056.8	75855.96	-0.00034783292	75857.82	693056.56	-0.0002732412
0	0.54819614	0.5481946	-4.8522375e-10	0.0074246037	0.0074246037	0	79512.41	79512.195	-6.979514e-05	693278.75	74193.83	-0.00036353644	74195.65	693278.56	-0.00033291458
0	0.54715675	0.5471553	8.985625e-12	0.0070710606	0.0070710606	0	79361.66	79361.445	3.1928428e-06	693498.3	72519.305	-0.00010050251	72521.11	693498.1	0.00016488694
0	0.54610574	0.5461043	1.1980833e-11	0.0067175184	0.0067175184	0	79209.21	79209.01	1.2405313e-06	693715.56	70830.63	-0.00016331658	70832.41	693715.5	0.00017509422
0	0.5450432	0.5450418	7.4880206e-11	0.006363976	0.006363975	0	79055.1	79054.9	7.809246e-06	693930.4	69128.32	-3.768844e-05	69130.08	693930.2	0.00012562814