# t (s)	mx ()	my ()	mz ()	B_extx (T)	B_exty (T)	B_extz (T)	m_fullx (A/m)	m_fully (A/m)	m_fullz (A/m)	m_full.region1x (A/m)	m_full.region1y (A/m)	m_full.region1z (A/m)	m_full.region2x (A/m)	m_full.region2y (A/m)	m_full.region2z (A/m)
0	0.6266967	0.6266959	-1.4778011e-10	0.070710756	0.070710756	0	146937.6	146937.4	-3.633218e-05	665358.6	212015.64	-6.198347e-05	212016.64	665358.56	-0.00014204545
0	0.6264148	0.6264138	-1.6255812e-10	0.070357226	0.07035723	0	146871.5	146871.28	-3.9792387e-05	665537.9	211441.64	-0.00015495867	211442.75	665537.7	-8.7809916e-05
0	0.62612844	0.6261275	-9.359407e-11	0.07000352	0.07000352	0	146804.36	146804.14	-2.4221454e-05	665718.94	210859.75	-1.0330578e-05	210860.89	665718.7	-0.000108471075
0	0.62584066	0.62583977	-9.359407e-11	0.06965001	0.06965	0	146736.9	146736.67	-2.249135e-05	665899.94	210275.86	-4.1322313e-05	210277	665899.8	-9.555785e-05
0	0.6255517	0.6255507	-1.5763212e-10	0.06929647	0.06929647	0	146669.14	146668.92	-3.633218e-05	666081	209690.16	-8.264463e-05	209691.3	666080.9	-0.00015237603
0	0.62526083	0.6252599	-3.6945028e-10	0.068942994	0.068942994	0	146600.95	146600.73	-8.823529e-05	666262.5	209101.62	-0.00022727273	209102.7	666262.2	-0.00030475206
0	0.62496907	0.62496823	-2.4630019e-11	0.068589285	0.068589285	0	146532.56	146532.33	-6.920415e-06	666443.5	208512.14	0	208513.27	666443.3	-1.2913223e-05
0	0.6246759	0.624675	-3.4482025e-11	0.06823578	0.06823578	0	146463.8	146463.58	-1.2110727e-05	666624.56	207920.48	5.1652893e-05	207921.64	666624.44	-0.000118801654
0	0.6243811	0.62438023	-1.9704015e-10	0.06788224	0.06788223	0	146394.7	146394.47	-4.3252596e-05	666805.9	207326.6	-0.000113636364	207327.69	666805.75	-0.00015754132
0	0.6240855	0.6240846	-8.374206e-11	0.067528725	0.067528725	0	146325.38	146325.16	-2.768166e-05	666986.8	206731.77	0	206732.86	666986.6	-0.0001394628
0	0.623788	0.62378705	-1.2315009e-10	0.06717501	0.06717501	0	146255.61	146255.39	-2.9411765e-05	667168.06	206133.92	-8.264463e-05	206135.05	667167.9	-8.264463e-05
0	0.6234895	0.6234886	-3.940803e-11	0.06682165	0.06682165	0	146185.62	146185.44	-1.0380623e-05	667349.06	205535.08	-5.1652893e-05	205536.22	667348.94	-1.8078512e-05
0	0.6231893	0.62318826	-9.8520074e-11	0.06646814	0.06646814	0	146115.23	146115.02	-2.4221454e-05	667530.3	204933.5	-5.1652893e-05	204934.64	667530.06	-7.231405e-05
0	0.62288743	0.6228866	-9.8520074e-11	0.06611444	0.06611443	0	146044.48	146044.27	-2.249135e-05	667711.5	204329.84	-6.198347e-05	204331.02	667711.3	-4.9070248e-05
0	0.6225843	0.6225834	9.852007e-12	0.06576094	0.06576094	0	145973.39	145973.19	5.1903116e-06	667892.7	203724.17	3.0991734e-05	203725.31	667892.56	-1.0330578e-05
0	0.62228	0.62227905	-1.2315009e-10	0.065407366	0.06540737	0	145902.06	145901.84	-2.768166e-05	668073.6	203117.19	-0.000103305785	203118.31	668073.56	-6.714876e-05
0	0.6219742	0.6219733	-7.3890054e-11	0.0650539	0.0650539	0	145830.34	145830.12	-2.0761247e-05	668254.7	202508	4.1322313e-05	202509.12	668254.5	-0.00014721074
0	0.62166744	0.62166655	-4.4334033e-11	0.06470021	0.06470021	0	145758.42	145758.2	-1.0380623e-05	668435.4	201897.83	2.0661157e-05	201898.95	668435.25	-5.6818182e-05
0	0.62135845	0.62135756	-1.8718814e-10	0.064346716	0.06434671	0	145686	145685.78	-3.8062284e-05	668616.5	201284.25	-0.00012396694	201285.36	668616.4	-0.00012654958
0	0.6210482	0.62104726	-2.0442915e-10	0.06399313	0.06399313	0	145613.25	145613.03	-4.5415225e-05	668797.56	200668.84	-0.00012396694	200669.95	668797.4	-0.00018078512
0	0.62073624	0.62073535	-1.0590908e-10	0.06363964	0.06363964	0	145540.11	145539.88	-2.249135e-05	668978.6	200050.97	-6.198347e-05	200052.1	668978.44	-4.6487603e-05
0	0.620423	0.6204221	-1.0344608e-10	0.06328593	0.06328593	0	145466.66	145466.45	-2.5951556e-05	669159.56	199431.66	-8.264463e-05	199432.77	669159.4	-9.039256e-05
0	0.6201089	0.62010795	-4.4334033e-11	0.06293254	0.06293254	0	145393	145392.78	-6.487889e-06	669340.1	198811.17	-7.231405e-05	198812.28	669339.94	1.2913223e-05
0	0.61979234	0.6197915	-9.8520074e-11	0.06257905	0.06257906	0	145318.8	145318.58	-2.4221454e-05	669521.06	198187.08	-5.1652893e-05	198188.22	669520.9	-6.198347e-05
0	0.61947477	0.61947393	-4.9260037e-11	0.062225346	0.062225346	0	145244.33	145244.12	-1.0380623e-05	669701.8	197561.72	5.1652893e-05	197562.86	669701.7	-0.00010072314
0	0.61915565	0.6191547	-2.709302e-10	0.06187188	0.06187188	0	145169.52	145169.28	-6.42301e-05	669882.5	196934.28	-0.00016528925	196935.39	669882.4	-0.00022727273
0	0.6188352	0.6188343	-1.8718814e-10	0.061518256	0.061518256	0	145094.38	145094.16	-4.67128e-05	670063	196305.17	-0.000113636364	196306.3	670062.9	-0.00018078512
0	0.61851287	0.618512	-1.1822408e-10	0.061164834	0.061164834	0	145018.78	145018.58	-2.768166e-05	670243.7	195673.16	-4.1322313e-05	195674.28	670243.56	-0.00012654958
0	0.6181888	0.61818796	-1.10835084e-10	0.060811136	0.060811136	0	144942.83	144942.61	-2.4221454e-05	670424.4	195038.8	-1.0330578e-05	195039.92	670424.25	-0.0001394628
0	0.6178635	0.6178626	-2.2659617e-10	0.060457654	0.060457654	0	144866.53	144866.33	-5.363322e-05	670604.9	194402.9	-0.0001446281	194404.03	670604.7	-0.00017303719
0	0.6175367	0.6175358	-2.660042e-10	0.060104024	0.060104024	0	144789.94	144789.72	-6.5743945e-05	670785.2	193765.16	-0.000113636364	193766.27	670785	-0.00028150826
0	0.6172083	0.61720735	5.418604e-11	0.059750553	0.059750553	0	144712.92	144712.72	1.0380623e-05	670965.44	193125.03	0	193126.14	670965.3	5.4235537e-05
0	0.6168788	0.6168779	-2.2167017e-10	0.059396856	0.059396863	0	144635.67	144635.45	-5.363322e-05	671145.44	192483.78	-8.264463e-05	192484.89	671145.25	-0.00024535123
0	0.616547	0.6165461	-1.0590908e-10	0.05904343	0.05904343	0	144557.86	144557.66	-2.5951556e-05	671325.7	191838.9	-5.6818182e-05	191840.03	671325.6	-9.555785e-05
0	0.6162136	0.6162127	-2.2659617e-10	0.058689952	0.058689952	0	144479.7	144479.5	-4.8875434e-05	671505.9	191192.12	-0.00017561983	191193.23	671505.75	-0.00013429752
0	0.6158788	0.6158779	-9.8520074e-11	0.05833626	0.05833627	0	144401.19	144401	-2.4221454e-05	671685.94	190543.25	-7.747934e-05	190544.38	671685.7	-6.198347e-05
0	0.61554253	0.6155416	-1.10835084e-10	0.057982814	0.057982814	0	144322.38	144322.16	-2.5951556e-05	671865.75	189892.64	-7.231405e-05	189893.73	671865.6	-7.747934e-05
0	0.6152046	0.6152037	-3.3004224e-10	0.05762915	0.05762915	0	144243.12	144242.9	-7.612457e-05	672045.5	189239.73	-0.00026859503	189240.88	672045.44	-0.00018853306
0	0.61486506	0.6148642	-1.7487313e-10	0.057275683	0.057275683	0	144163.5	144163.3	-3.9792387e-05	672225.1	188584.81	-0.0001446281	188585.95	672225	-0.00012654958
0	0.6145241	0.61452323	-9.8520074e-11	0.056922052	0.056922052	0	144083.6	144083.36	-2.4221454e-05	672404.5	187928.14	-0.00012396694	187929.27	672404.4	-3.873967e-05
0	0.6141812	0.6141804	-1.379281e-10	0.056568604	0.056568604	0	144003.2	144002.98	-3.546713e-05	672583.94	187268.7	-0.00013429752	187269.8	672583.9	-8.7809916e-05
0	0.6138362	0.6138354	-9.359407e-11	0.05621492	0.05621492	0	143922.3	143922.1	-2.249135e-05	672763.5	186606.12	-0.000108471075	186607.25	672763.4	-6.456611e-05
0	0.6134901	0.61348915	-1.2068709e-10	0.05586146	0.055861462	0	143841.12	143840.92	-3.114187e-05	672942.75	185942.17	-7.231405e-05	185943.3	672942.56	-8.522727e-05
0	0.6131423	0.61314136	-1.379281e-10	0.055507787	0.055507787	0	143759.6	143759.38	-3.4710207e-05	673121.8	185276.31	-8.264463e-05	185277.42	673121.7	-0.00011105372
0	0.61279297	0.61279213	-1.8472514e-10	0.055154327	0.055154327	0	143677.69	143677.47	-4.49827e-05	673300.6	184608.34	-0.00016528925	184609.47	673300.5	-0.00011621901
0	0.6124415	0.6124406	-4.9260037e-11	0.05480086	0.05480086	0	143595.27	143595.08	-1.2110727e-05	673479.6	183937.39	2.0661157e-05	183938.52	673479.44	-6.714876e-05
0	0.6120888	0.6120879	-2.5615218e-10	0.05444718	0.05444718	0	143512.6	143512.39	-5.882353e-05	673658.2	183265.05	-0.00013429752	183266.14	673658.06	-0.00022727273
0	0.6117336	0.6117327	-8.374206e-11	0.054093737	0.054093737	0	143429.31	143429.1	-1.9031142e-05	673837	182588.88	-6.198347e-05	182589.98	673836.94	-5.9400827e-05
0	0.61137754	0.61137664	-9.113107e-11	0.05374005	0.05374005	0	143345.81	143345.61	-2.249135e-05	674015.25	181912.16	-4.1322313e-05	181913.27	674015.2	-7.295971e-05
0	0.6110197	0.61101884	-1.2807609e-10	0.0533866	0.0533866	0	143261.92	143261.7	-2.9411765e-05	674193.44	181233	0	181234.1	674193.3	-0.00018078512
0	0.6106594	0.6106586	-5.911204e-11	0.053032972	0.053032972	0	143177.45	143177.23	-1.7301038e-05	674371.7	180550.39	-5.1652893e-05	180551.48	674371.56	-4.1322313e-05
0	0.6102978	0.6102969	-1.9457715e-10	0.052679513	0.052679513	0	143092.67	143092.45	-4.3252596e-05	674549.6	179866.11	-9.2975206e-05	179867.25	674549.56	-0.00014204545
0	0.6099343	0.60993344	-3.3496825e-10	0.052325826	0.052325826	0	143007.44	143007.22	-7.482699e-05	674727.56	179179.31	-0.00024793387	179180.44	674727.4	-0.00022210744
0	0.6095691	0.60956824	-1.00983076e-10	0.05197238	0.05197238	0	142921.81	142921.61	-2.249135e-05	674905.1	178490.52	-9.2975206e-05	178491.64	674905.06	-6.97314e-05
0	0.60920286	0.60920197	-1.2807609e-10	0.051618703	0.051618703	0	142835.94	142835.73	-3.114187e-05	675082.3	177800.55	-8.7809916e-05	177801.67	675082.2	-8.7809916e-05
0	0.6088333	0.6088324	-5.911204e-11	0.051265247	0.051265247	0	142749.3	142749.1	-1.16782e-05	675259.94	177105.58	1.0330578e-05	177106.69	675259.8	-8.264463e-05
0	0.60846305	0.6084621	-2.955602e-11	0.05091177	0.05091177	0	142662.47	142662.28	-8.650519e-06	675436.94	176410.14	3.6157024e-05	176411.25	675436.8	-7.231405e-05
0	0.6080904	0.60808957	-2.3644817e-10	0.0505581	0.0505581	0	142575.11	142574.9	-5.7958478e-05	675614	175711.39	-0.0001911157	175712.5	675613.94	-0.00015495867
0	0.6077163	0.6077155	-1.5270611e-10	0.050204646	0.050204642	0	142487.39	142487.2	-3.6440313e-05	675790.75	175011.02	-8.264463e-05	175012.11	675790.56	-0.0001394628
0	0.60734046	0.60733956	-2.2659617e-10	0.04985097	0.04985097	0	142399.28	142399.06	-5.363322e-05	675967.1	174308.36	-0.00018595041	174309.48	675967.06	-0.0001446281
0	0.6069632	0.60696226	-2.0689216e-10	0.049497508	0.049497508	0	142310.81	142310.6	-5.1038063e-05	676143.25	173604.1	-0.00012396694	173605.19	676143.1	-0.00016528925
0	0.6065827	0.6065819	-1.379281e-10	0.0491439	0.0491439	0	142221.62	142221.4	-3.114187e-05	676319.7	172895	-6.198347e-05	172896.11	676319.56	-0.00013171487
0	0.60620147	0.60620064	-1.1822408e-10	0.048790433	0.048790433	0	142132.22	142132.02	-2.8546712e-05	676495.4	172185.56	-5.1652893e-05	172186.67	676495.25	-0.000113636364
0	0.6058178	0.6058169	-2.5122618e-10	0.048436753	0.048436753	0	142042.27	142042.05	-6.401384e-05	676671.3	171472.55	-0.00016528925	171473.64	676671.2	-0.00022985537
0	0.6054328	0.60543203	-1.9211414e-10	0.04808329	0.04808329	0	141952	141951.8	-4.3036332e-05	676846.5	170758.38	-0.00013429752	170759.48	676846.4	-0.0001394628
0	0.60504526	0.60504436	-1.6748412e-10	0.04772963	0.04772963	0	141861.14	141860.92	-4.1522493e-05	677021.94	170040.31	-0.000103305785	170041.4	677021.8	-0.00013429752
0	0.6046563	0.60465556	-3.6945027e-11	0.047376156	0.047376156	0	141769.94	141769.77	-6.920415e-06	677196.75	169320.98	-1.5495867e-05	169322.08	677196.7	-2.5826446e-05
0	0.604265	0.6042642	-1.6502112e-10	0.047022674	0.047022674	0	141678.19	141678	-3.9576124e-05	677371.75	168598.25	-0.000113636364	168599.34	677371.6	-0.00015754132
0	0.60387224	0.6038714	-1.8718814e-10	0.046669018	0.046669018	0	141586.1	141585.9	-4.67128e-05	677546.1	167873.9	-9.8140496e-05	167874.98	677546	-0.00018595041
0	0.6034773	0.6034764	-2.0935516e-10	0.04631556	0.046315555	0	141493.5	141493.3	-4.9307957e-05	677720.4	167146.7	-0.00020144628	167147.78	677720.3	-8.7809916e-05
0	0.6030802	0.6030794	-1.1576109e-10	0.045961883	0.045961883	0	141400.39	141400.22	-2.5086505e-05	677894.44	166416.8	-6.714876e-05	166417.9	677894.4	-8.264463e-05
0	0.60268134	0.6026805	-1.330021e-10	0.04560841	0.04560841	0	141306.89	141306.69	-3.114187e-05	678068.25	165684.55	-0.00012913223	165685.64	678068.1	-5.6818182e-05
0	0.60228074	0.60227984	-1.330021e-10	0.04525482	0.04525482	0	141212.94	141212.77	-3.200692e-05	678241.56	164950.33	-8.7809916e-05	164951.44	678241.56	-9.2975206e-05
0	0.6018784	0.6018776	-1.1822408e-10	0.044901337	0.044901337	0	141118.62	141118.44	-2.681661e-05	678414.6	164214.14	-0.00012396694	164215.23	678414.5	-5.6818182e-05
0	0.60147285	0.60147196	-1.428541e-10	0.04454768	0.04454768	0	141023.53	141023.34	-3.2871973e-05	678587.94	163472.94	-9.168388e-05	163474.05	678587.8	-0.00013429752
0	0.6010668	0.60106605	-4.4334033e-11	0.04419421	0.04419421	0	140928.33	140928.14	-1.1245675e-05	678760.2	162732.3	-2.0661157e-05	162733.38	678760.1	-1.8078512e-05
0	0.6006573	0.60065645	-1.9704015e-10	0.04384056	0.04384056	0	140832.33	140832.12	-4.9307957e-05	678932.75	161986.39	-0.00020661157	161987.48	678932.75	-8.264463e-05
0	0.60024667	0.60024583	-3.6945027e-11	0.043487065	0.043487065	0	140736.02	140735.83	-8.650519e-06	679104.75	161239.44	-6.198347e-05	161240.52	679104.7	-5.165289e-06
0	0.5998336	0.5998327	-7.881606e-11	0.043133583	0.043133575	0	140639.17	140638.98	-1.9031142e-05	679276.56	160489.33	-3.0991734e-05	160490.4	679276.5	-3.873967e-05
0	0.59941834	0.5994175	-2.0689216e-10	0.042779934	0.042779934	0	140541.81	140541.62	-5.1038063e-05	679448.1	159736.5	-0.00018595041	159737.6	679447.94	-0.00013688016
0	0.59900117	0.5990004	-3.1033823e-10	0.042426437	0.042426437	0	140444.03	140443.81	-7.266436e-05	679619.25	158981.36	-0.00022727273	158982.45	679619.1	-0.00021177686
0	0.59858173	0.5985809	-2.1674416e-10	0.042072807	0.042072807	0	140345.69	140345.48	-5.017301e-05	679790.2	158223.2	-0.00012396694	158224.3	679790.1	-0.00018078512
0	0.59816086	0.5981601	-1.2807609e-10	0.04171931	0.04171931	0	140247	140246.8	-2.8762975e-05	679960.5	157463.6	-6.198347e-05	157464.67	679960.44	-0.0001394628
0	0.5977373	0.59773654	-1.379281e-10	0.041365743	0.041365743	0	140147.69	140147.5	-3.633218e-05	680130.75	156700.4	-5.6818182e-05	156701.5	680130.75	-0.0001446281
0	0.5973123	0.5973115	-2.0196615e-10	0.041012246	0.041012246	0	140048.02	140047.84	-5.1038063e-05	680300.44	155935.73	-0.00018078512	155936.83	680300.3	-0.00012654958
0	0.59688437	0.5968836	-2.906342e-10	0.040658608	0.040658608	0	139947.72	139947.5	-7.00692e-05	680469.94	155167.06	-0.00017561983	155168.14	680469.94	-0.0002427686
0	0.59645385	0.5964531	-2.955602e-11	0.040305126	0.040305126	0	139846.77	139846.56	-5.1903116e-06	680639.4	154394.94	-4.1322313e-05	154396.02	680639.4	0
0	0.596022	0.5960212	-9.359407e-11	0.03995149	0.03995149	0	139745.48	139745.31	-2.249135e-05	680808.06	153621.58	-0.00012396694	153622.64	680808.06	7.7479335e-06
0	0.59558785	0.5955871	-1.7856763e-10	0.039597988	0.039597988	0	139643.7	139643.52	-3.633218e-05	680976.5	152845.34	-0.000103305785	152846.44	680976.5	-0.00013429752
0	0.5951514	0.5951506	-2.450687e-10	0.039244484	0.039244484	0	139541.4	139541.2	-5.7958478e-05	681144.56	152066.39	-0.00018595041	152067.48	681144.56	-0.00016012396
0	0.5947133	0.59471244	-1.8718814e-10	0.03889085	0.038890846	0	139438.64	139438.44	-4.2387543e-05	681312.06	151285.38	-0.00019628099	151286.45	681312.06	-8.7809916e-05
0	0.594273	0.59427214	-2.3767968e-10	0.03853734	0.03853734	0	139335.4	139335.22	-5.449827e-05	681479.2	150501.88	-0.00013429752	150502.92	681479.1	-0.00020661157
0	0.5938292	0.5938284	-3.4605177e-10	0.03818373	0.03818373	0	139231.38	139231.19	-8.044983e-05	681646.3	149713.47	-0.00023760331	149714.56	681646.3	-0.00025826445
0	0.5933844	0.5933836	-1.4778011e-10	0.037830215	0.037830215	0	139127.08	139126.89	-3.200692e-05	681812.7	148924.45	-6.714876e-05	148925.5	681812.56	-0.00012396694
0	0.59293646	0.5929357	-1.13298086e-10	0.037476584	0.037476584	0	139022.03	139021.88	-2.5086505e-05	681978.8	148131.1	-0.0001446281	148132.16	681978.8	-4.9070248e-05
0	0.5924863	0.5924855	-2.0196615e-10	0.037123162	0.03712316	0	138916.5	138916.33	-4.9307957e-05	682144.6	147335.1	-8.264463e-05	147336.14	682144.7	-0.00020661157
0	0.59203506	0.5920343	-7.3890054e-11	0.03676954	0.036769543	0	138810.72	138810.53	-1.2975778e-05	682309.56	146538.4	-6.198347e-05	146539.48	682309.56	-2.0661157e-05
0	0.59158033	0.59157956	-1.6748412e-10	0.036416043	0.036416043	0	138704.1	138703.9	-3.8711074e-05	682474.5	145736.9	-0.00013429752	145737.98	682474.5	-0.00010588843
0	0.59112376	0.5911229	-3.891543e-10	0.036062416	0.036062416	0	138597.03	138596.84	-9.256056e-05	682638.9	144933.31	-0.00032541322	144934.36	682638.8	-0.0002556818
0	0.59066457	0.5906638	-4.6797035e-11	0.035708897	0.0357089	0	138489.38	138489.19	-1.0380623e-05	682802.9	144126.47	-5.1652893e-05	144127.53	682802.9	7.7479335e-06
0	0.5902031	0.5902024	-1.7241013e-10	0.035355378	0.035355378	0	138381.17	138381	-3.8170416e-05	682966.4	143316.94	-0.00018595041	143318	682966.25	-6.714876e-05
0	0.5897394	0.5897386	-1.6871562e-10	0.03500176	0.03500176	0	138272.44	138272.27	-3.8062284e-05	683129.44	142504.66	-0.00013429752	142505.72	683129.4	-0.000103305785
0	0.5892732	0.5892725	-1.7979913e-10	0.034648236	0.03464824	0	138163.17	138163	-3.8927337e-05	683292	141689.56	-0.00012396694	141690.61	683291.94	-0.000118801654
0	0.5888043	0.5888035	-4.9260036e-12	0.034294643	0.034294643	0	138053.2	138053.03	-1.6219723e-06	683454.25	140870.67	-7.231405e-05	140871.72	683454.25	8.264463e-05
0	0.58833414	0.58833337	-6.4038046e-11	0.033941116	0.033941116	0	137942.97	137942.8	-1.5570935e-05	683615.56	140051.17	-0.00012396694	140052.23	683615.56	1.8078512e-05
0	0.58786076	0.58786	-1.6748412e-10	0.033587504	0.033587508	0	137831.98	137831.81	-4.065744e-05	683776.75	139227.28	-0.000108471075	139228.33	683776.75	-0.00013429752
0	0.58738494	0.5873842	-6.1575044e-11	0.03323407	0.03323407	0	137720.44	137720.27	-1.384083e-05	683937.3	138400.55	-6.198347e-05	138401.61	683937.3	-1.0330578e-05
0	0.586907	0.5869064	-1.8718814e-10	0.03288047	0.03288047	0	137608.39	137608.2	-4.2387543e-05	684097.3	137571.45	-5.6818182e-05	137572.5	684097.3	-0.00021694215
0	0.5864263	0.5864256	-1.379281e-10	0.03252695	0.032526955	0	137495.66	137495.48	-3.114187e-05	684257.06	136738.73	-8.264463e-05	136739.78	684257.1	-0.000113636364
0	0.5859427	0.5859419	-5.911204e-11	0.032173358	0.032173358	0	137382.28	137382.11	-1.5570935e-05	684416.3	135902.34	4.6487603e-05	135903.4	684416.3	-0.000108471075
0	0.5854576	0.5854569	-1.1822408e-10	0.03181982	0.03181982	0	137268.55	137268.38	-2.5086505e-05	684574.6	135064.97	-9.2975206e-05	135066	684574.6	-5.1652893e-05
0	0.5849693	0.5849686	-7.142705e-11	0.03146627	0.03146627	0	137154.06	137153.89	-1.6435986e-05	684732.75	134223.39	-4.6487603e-05	134224.42	684732.7	-5.4235537e-05
0	0.5844777	0.584477	2.4630018e-12	0.031112673	0.031112673	0	137038.81	137038.62	-1.7301038e-06	684890.56	133377.25	-0.00022727273	133378.31	684890.56	0.00021694215
0	0.58398557	0.58398485	-2.3644817e-10	0.030759128	0.030759128	0	136923.4	136923.22	-5.449827e-05	685047.1	132531.64	-0.00013429752	132532.67	685047.1	-0.00019628099
0	0.58348966	0.58348894	-2.1920717e-10	0.030405568	0.030405568	0	136807.12	136806.97	-5.1038063e-05	685203.5	131681	-0.0001394628	131682.03	685203.5	-0.00017561983
0	0.58299106	0.5829904	-4.4334033e-11	0.030052012	0.030052012	0	136690.2	136690.05	-9.515571e-06	685359.3	130827.11	-8.7809916e-05	130828.125	685359.4	5.165289e-06
0	0.58249086	0.58249015	-1.2622885e-10	0.029698431	0.029698431	0	136572.94	136572.77	-2.768166e-05	685514.25	129971.92	-0.00017045454	129972.94	685514.25	0
0	0.5819872	0.5819865	-7.5737305e-11	0.029344976	0.02934498	0	136454.86	136454.69	-1.4705883e-05	685668.94	129112.12	-3.6157024e-05	129113.13	685668.94	-6.714876e-05
0	0.5814808	0.5814801	-1.6255812e-10	0.028991407	0.028991407	0	136336.11	136335.95	-4.0333045e-05	685823	128249.06	-0.000113636364	128250.08	685823	-0.000113636364
0	0.5809728	0.580972	-2.4137417e-10	0.028637841	0.028637841	0	136216.98	136216.84	-5.7093424e-05	685976.2	127384.64	-0.0001446281	127385.67	685976.25	-0.00018078512
0	0.58046037	0.58045965	-1.2068709e-10	0.028284302	0.028284302	0	136096.89	136096.72	-2.681661e-05	686129.25	126514.29	-5.1652893e-05	126515.33	686129.25	-0.000118801654
0	0.57994676	0.579946	-1.00983076e-10	0.02793073	0.02793073	0	135976.42	135976.27	-2.5951556e-05	686281.25	125643.15	-0.000108471075	125644.18	686281.25	-5.1652893e-05
0	0.57943034	0.5794296	-7.389005e-12	0.027577164	0.027577164	0	135855.36	135855.2	-1.2975779e-06	686432.6	124768.87	5.1652893e-05	124769.88	686432.7	-5.1652893e-05
0	0.57891023	0.5789095	-3.2019023e-11	0.02722359	0.02722359	0	135733.42	135733.25	-1.0813149e-05	686583.7	123889.56	3.0991734e-05	123890.58	686583.8	-0.000108471075
0	0.5783884	0.5783877	-1.330021e-10	0.026870025	0.026870025	0	135611.06	135610.9	-3.2871973e-05	686733.75	123009.016	-6.198347e-05	123010.01	686733.8	-0.000108471075
0	0.57786393	0.5778632	-1.6748412e-10	0.026516486	0.026516486	0	135488.1	135487.92	-3.8927337e-05	686883.2	122125.266	-0.00018078512	122126.28	686883.25	-8.1353304e-05
0	0.577336	0.57733536	-9.605707e-11	0.026162913	0.026162913	0	135364.33	135364.17	-2.032872e-05	687032	121237.39	-5.1652893e-05	121238.414	687032.1	-7.747934e-05
0	0.57680535	0.5768046	1.3977536e-10	0.025809351	0.025809351	0	135239.89	135239.73	3.416955e-05	687180.3	120346.11	0.000108471075	120347.125	687180.44	0.000113636364
0	0.5762717	0.576271	-1.2315009e-10	0.025455885	0.025455885	0	135114.8	135114.61	-3.0276817e-05	687327.94	119451.46	-9.2975206e-05	119452.45	687328	-8.264463e-05
0	0.5757365	0.5757358	-1.2838397e-10	0.025102321	0.025102321	0	134989.31	134989.14	-2.9411765e-05	687474.44	118555.69	-0.000118801654	118556.68	687474.44	-4.584194e-05
0	0.57519734	0.5751967	-8.374206e-11	0.024748754	0.024748754	0	134862.89	134862.73	-1.9463669e-05	687620.5	117654.79	-6.198347e-05	117655.79	687620.5	-6.714876e-05
0	0.5746558	0.5746551	-1.2315009e-10	0.024395216	0.024395216	0	134735.89	134735.73	-2.9411765e-05	687765.8	116751.26	-0.00013429752	116752.25	687765.94	-3.0991734e-05
0	0.5741111	0.57411045	-5.418604e-11	0.024041645	0.024041645	0	134608.19	134608.03	-1.2975778e-05	687910.4	115844.04	-8.522727e-05	115845.05	687910.5	1.2913223e-05
0	0.5735633	0.5735626	-2.0935516e-10	0.023688078	0.023688078	0	134479.75	134479.6	-5.1038063e-05	688054.44	114933.164	-0.0001678719	114934.164	688054.44	-0.0001446281
0	0.5730131	0.5730125	-1.00983076e-10	0.023334509	0.023334509	0	134350.75	134350.61	-2.1626298e-05	688197.4	114020	-6.198347e-05	114021	688197.5	-6.714876e-05
0	0.57246	0.5724592	-1.9673227e-10	0.022980941	0.022980941	0	134221.06	134220.89	-4.4550172e-05	688339.6	113103.266	-0.00016528925	113104.26	688339.75	-9.8140496e-05
0	0.5719039	0.5719033	-1.6255812e-10	0.02262741	0.02262741	0	134090.7	134090.55	-3.990052e-05	688481.06	112183.445	-0.00015495867	112184.44	688481.2	-8.264463e-05
0	0.57134545	0.57134485	-1.7733613e-10	0.02227384	0.02227384	0	133959.75	133959.6	-3.9792387e-05	688621.7	111260.96	-7.747934e-05	111261.96	688621.75	-0.00016012396
0	0.570782	0.5707814	-1.453171e-10	0.02192028	0.02192028	0	133827.66	133827.5	-3.416955e-05	688761.94	110331.98	-0.00012654958	110332.98	688761.94	-8.7809916e-05
0	0.57021654	0.5702159	-2.3891117e-10	0.021566791	0.021566791	0	133695.06	133694.9	-5.4930795e-05	688901.2	109401	4.1322313e-05	109401.984	688901.25	-0.00039772727
0	0.5696493	0.56964874	-1.4778011e-10	0.021213219	0.021213219	0	133562.08	133561.92	-3.546713e-05	689039.1	108468.91	-5.2944215e-05	108469.89	689039.25	-0.00017045454
0	0.56907773	0.56907713	-1.4085291e-10	0.020859655	0.020859655	0	133428.05	133427.9	-3.2871973e-05	689176.7	107531.09	-0.00015754132	107532.07	689176.8	-3.6157024e-05
0	0.5685037	0.56850314	-1.6009511e-11	0.020506123	0.020506123	0	133293.47	133293.3	-6.487889e-06	689313.2	106590.95	0	106591.945	689313.3	-5.6818182e-05
0	0.5679265	0.5679258	-1.2684459e-10	0.020152563	0.020152563	0	133158.14	133157.98	-3.0709343e-05	689448.94	105647.21	-0.0001446281	105648.195	689449.06	-1.8078512e-05
0	0.56734675	0.56734616	-1.4901161e-10	0.019798994	0.019798994	0	133022.19	133022.05	-3.546713e-05	689583.6	104700.84	-0.00013171487	104701.81	689583.7	-9.2975206e-05
0	0.5667624	0.5667618	-2.955602e-11	0.019445425	0.019445425	0	132885.2	132885.05	-6.0553634e-06	689717.75	103748.63	0	103749.61	689717.9	-3.6157024e-05
0	0.5661754	0.5661748	2.6538846e-10	0.019091865	0.019091865	0	132747.56	132747.44	6.401384e-05	689850.94	102793.64	0.0003305785	102794.61	689851.1	6.714876e-05
0	0.5655858	0.56558514	-3.60214e-11	0.018738292	0.018738292	0	132609.3	132609.17	-6.920415e-06	689983.1	101835.98	-1.0330578e-05	101836.945	689983.2	-4.1322313e-05
0	0.5649925	0.56499183	-1.9334565e-10	0.01838477	0.01838477	0	132470.2	132470.06	-4.4117645e-05	690114.44	100874.1	-0.00012396694	100875.06	690114.5	-0.00014979338
0	0.5643976	0.56439704	-7.758456e-11	0.018031208	0.018031208	0	132330.72	132330.6	-1.5787196e-05	690244.4	99911.28	7.7479335e-06	99912.25	690244.44	-0.000103305785
0	0.5637973	0.56379664	-2.3398516e-10	0.017677689	0.017677689	0	132189.97	132189.83	-5.7742214e-05	690374	98941.22	-0.000108471075	98942.18	690374.1	-0.00023243802
0	0.563195	0.5631944	1.7241012e-11	0.017324118	0.017324118	0	132048.78	132048.64	2.5951558e-06	690502.3	97969.71	-4.1322313e-05	97970.664	690502.44	6.198347e-05
0	0.5625885	0.562588	-7.019555e-11	0.016970558	0.016970558	0	131906.58	131906.45	-1.6219723e-05	690629.8	96993.266	-7.231405e-05	96994.22	690629.9	-1.0330578e-05
0	0.56197953	0.561979	-2.2905917e-10	0.016617035	0.016617035	0	131763.78	131763.64	-5.514706e-05	690756.2	96014.24	-0.00024793387	96015.2	690756.3	-7.231405e-05
0	0.5613672	0.56136656	-1.2561309e-10	0.016263476	0.016263476	0	131620.22	131620.08	-3.33045e-05	690881.56	95031.555	-0.00017561983	95032.51	690881.75	-2.5826446e-05
0	0.56075066	0.56075007	-1.9088264e-10	0.01590991	0.01590991	0	131475.64	131475.52	-4.3252596e-05	691006.2	94043.734	-9.717201e-05	94044.69	691006.3	-0.00017045454
0	0.5601316	0.560131	-1.0590908e-10	0.015556336	0.015556336	0	131330.52	131330.39	-2.616782e-05	691129.5	93053.85	-0.00021177686	93054.8	691129.6	6.97314e-05
0	0.5595096	0.559509	-8.7436565e-11	0.015202784	0.015202784	0	131184.66	131184.53	-2.249135e-05	691251.7	92060.664	-6.198347e-05	92061.6	691251.94	-5.6818182e-05
0	0.5588828	0.55888224	-5.972779e-11	0.014849214	0.014849216	0	131037.7	131037.586	-1.4705883e-05	691373.25	91061.695	-0.00013429752	91062.64	691373.4	6.198347e-05
0	0.5582536	0.55825305	-1.7733613e-10	0.014495703	0.014495703	0	130890.17	130890.05	-4.3901386e-05	691493.4	90060.61	-0.00018078512	90061.54	691493.56	-8.006198e-05
0	0.55762017	0.5576197	-4.187103e-11	0.014142151	0.014142151	0	130741.67	130741.555	-1.16782e-05	691612.75	89054.65	-8.264463e-05	89055.58	691612.9	1.0330578e-05
0	0.55698466	0.5569842	-3.3250524e-11	0.013788582	0.013788582	0	130592.68	130592.54	-6.8122836e-06	691730.6	88047.055	-8.264463e-05	88047.984	691730.75	2.0661157e-05
0	0.5563443	0.55634373	-1.841094e-10	0.013435013	0.013435013	0	130442.52	130442.39	-4.3901386e-05	691847.6	87033.48	-8.264463e-05	87034.41	691847.75	-0.00017561983
0	0.55570096	0.5557004	-5.480179e-11	0.013081457	0.013081457	0	130291.69	130291.55	-1.2110727e-05	691963.44	86017.04	-7.231405e-05	86017.96	691963.6	2.5826446e-06
0	0.55505383	0.5550533	5.849629e-11	0.012727942	0.012727942	0	130139.94	130139.83	1.5679067e-05	692078.2	84996.234	-6.198347e-05	84997.15	692078.4	0.0001446281
0	0.55440354	0.55440307	-7.3890054e-11	0.012374377	0.012374377	0	129987.49	129987.37	-1.8814879e-05	692191.6	83972.49	1.0330578e-05	83973.414	692191.8	-0.000108471075
0	0.55375	0.55374944	-6.2806545e-11	0.012020823	0.012020823	0	129834.27	129834.13	-1.75173e-05	692303.94	82945.11	-0.00019369835	82946.02	692304.2	8.845558e-05
0	0.55309165	0.55309117	-1.5886362e-10	0.011667254	0.011667254	0	129679.9	129679.77	-3.7413494e-05	692415.2	81912.21	-0.00022727273	81913.12	692415.4	5.165289e-06
0	0.55243	0.55242944	-9.113107e-11	0.011313705	0.011313705	0	129524.75	129524.63	-2.259948e-05	692525.2	80875.8	-9.2975206e-05	80876.71	692525.4	-4.6487603e-05
0	0.551765	0.5517645	-9.8520074e-11	0.01096014	0.01096014	0	129368.84	129368.72	-2.5951556e-05	692633.94	79836.17	-4.7778925e-05	79837.08	692634.06	-0.000108471075
0	0.55109626	0.5510958	-1.7317982e-10	0.010606609	0.010606609	0	129212.05	129211.94	-4.1522493e-05	692741.56	78792.3	-0.00018336777	78793.195	692741.75	-6.456611e-05
0	0.55042374	0.5504232	-9.390195e-11	0.010253062	0.010253062	0	129054.36	129054.24	-2.4113322e-05	692847.7	77744.59	-1.0330578e-05	77745.51	692847.94	-0.0001394628
0	0.54974777	0.5497473	-8.797535e-11	0.009899497	0.009899497	0	128895.875	128895.77	-1.9896193e-05	692952.75	76693.266	-0.00011621901	76694.164	692952.9	-7.7479335e-06
0	0.5490682	0.5490677	-3.5713526e-11	0.0095459325	0.0095459325	0	128736.55	128736.445	-6.2716263e-06	693056.44	75638.22	-0.00017561983	75639.12	693056.6	0.00013429752
0	0.54838425	0.5483838	-8.02015e-11	0.009192385	0.009192386	0	128576.19	128576.08	-2.032872e-05	693158.75	74578.25	5.6818182e-05	74579.14	693159	-0.00018078512
0	0.5476962	0.5476957	-1.2930759e-10	0.0088388445	0.0088388445	0	128414.84	128414.734	-3.1006704e-05	693259.9	73513.86	-0.000108471075	73514.75	693260.1	-7.231405e-05
0	0.5470052	0.5470047	1.2315009e-12	0.008485279	0.008485279	0	128252.836	128252.72	0	693359.7	72446.65	-3.873967e-05	72447.54	693359.9	4.6487603e-05
0	0.54630893	0.5463085	-3.0787523e-13	0.008131739	0.008131739	0	128089.6	128089.49	-1.7301038e-06	693458.2	71373.47	-7.231405e-05	71374.35	693458.4	7.231405e-05
0	0.54561	0.54560953	-7.3890054e-11	0.007778168	0.007778168	0	127925.7	127925.59	-1.713884e-05	693555.25	70297.81	-0.00018595041	70298.695	693555.5	9.2975206e-05
0	0.54490656	0.5449061	-2.1551266e-12	0.007424607	0.007424608	0	127760.79	127760.67	0	693650.9	69217.39	-6.069215e-05	69218.266	693651.06	3.6157024e-05
0	0.5441999	0.5441994	-2.1428116e-10	0.0070710755	0.0070710755	0	127595.09	127594.98	-4.6172147e-05	693745.1	68133.76	-6.97314e-05	68134.65	693745.4	-0.00022727273
0	0.54348785	0.54348737	-3.0787522e-11	0.0067175063	0.0067175063	0	127428.15	127428.05	-5.08218e-06	693838	67044.086	-0.000108471075	67044.95	693838.25	9.8140496e-05