# t (s)	mx ()	my ()	mz ()	B_extx (T)	B_exty (T)	B_extz (T)	m_fullx (A/m)	m_fully (A/m)	m_fullz (A/m)	m_full.region1x (A/m)	m_full.region1y (A/m)	m_full.region1z (A/m)	m_full.region2x (A/m)	m_full.region2y (A/m)	m_full.region2z (A/m)
0	0.64692736	0.65082943	-3.9958058e-11	0.070710704	0.070710704	0	158567.95	159524.39	-1.0825281e-05	618408.56	291211.16	0.00048353977	287289.75	619950	-0.0005367101
0	0.64684016	0.6507424	-1.2272448e-10	0.07056914	0.07056914	0	158546.6	159503.08	-3.1370382e-05	618472.25	291026.94	-2.285693e-05	287103.94	620012.56	-0.00017386272
0	0.64674884	0.6506548	-3.2707928e-10	0.07042789	0.07042789	0	158524.2	159481.56	-7.82538e-05	618538.94	290837.03	-0.00020700482	286909.47	620079.7	-0.00026065626
0	0.6466557	0.65056556	-1.6292366e-10	0.0702864	0.0702864	0	158501.38	159459.75	-3.792423e-05	618606	290644.28	-0.00013983667	286711.94	620147.56	-9.2299066e-05
0	0.64656335	0.65047723	-9.861595e-11	0.07014501	0.07014501	0	158478.72	159438.06	-2.4593113e-05	618672.5	290453.25	-4.522087e-05	286516.06	620214.8	-0.000104007864
0	0.64646924	0.6503869	-2.1174211e-10	0.07000352	0.07000352	0	158455.69	159415.94	-5.5136068e-05	618739.75	290259.1	-8.662637e-05	286317.16	620282.7	-0.00023331797
0	0.6463764	0.6502983	-2.3381647e-10	0.069862254	0.069862254	0	158432.89	159394.19	-6.719903e-05	618806.8	290067.06	-0.00015005385	286120.03	620350.56	-0.00023561313
0	0.6462827	0.6502087	-1.2232718e-10	0.0697207	0.0697207	0	158409.95	159372.25	-2.902866e-05	618873.94	289873.84	-8.061727e-05	285921.88	620418.3	-0.00010682803
0	0.6461892	0.6501193	-9.173417e-11	0.06957923	0.06957923	0	158387.05	159350.34	-2.3995311e-05	618940.8	289681.06	-1.8696985e-05	285724.16	620486	-0.00013511626
0	0.6460952	0.6500293	-1.7152435e-10	0.06943795	0.06943795	0	158364	159328.28	-3.6962865e-05	619007.9	289487.22	-8.0540274e-05	285525.44	620553.75	-0.00014491244
0	0.6460012	0.64993936	-2.4838226e-10	0.06929643	0.06929643	0	158340.94	159306.2	-5.8198304e-05	619075	289293.47	-0.00016483714	285326.78	620621.56	-0.00017978382
0	0.645907	0.6498492	-2.7879268e-10	0.06915509	0.06915509	0	158317.86	159284.12	-6.727151e-05	619141.94	289099.5	-0.00013295627	285127.84	620689.3	-0.00027207972
0	0.6458124	0.6497585	-1.4152318e-10	0.0690136	0.0690136	0	158294.64	159261.92	-3.4432393e-05	619209.2	288904.72	-5.6699875e-05	284928.1	620757.2	-0.00013632346
0	0.6457181	0.6496683	-2.447867e-10	0.068872124	0.068872124	0	158271.55	159239.78	-6.161607e-05	619276.06	288710.84	-0.00029486793	284729.3	620824.75	-7.757998e-05
0	0.6456225	0.64957654	-3.1630515e-10	0.06873078	0.06873078	0	158248.11	159217.3	-7.933706e-05	619343.44	288514.34	-0.0002435837	284527.97	620892.8	-0.00021400665
0	0.64552814	0.64948636	-1.2616956e-11	0.06858929	0.06858929	0	158225.02	159195.22	-1.7307195e-06	619410.25	288320.56	2.0223779e-05	284329.25	620960.4	-2.952589e-05
0	0.6454325	0.64939475	-1.3652357e-10	0.06844799	0.06844799	0	158201.55	159172.73	-3.0643256e-05	619477.8	288123.97	-8.437739e-05	284127.66	621028.7	-0.00010427211
0	0.645337	0.64930344	-1.915076e-10	0.0683065	0.0683065	0	158178.14	159150.38	-4.4673638e-05	619545.2	287928	-6.1621766e-05	283926.6	621096.9	-0.00019593321
0	0.64524156	0.649212	-1.774649e-10	0.06816516	0.06816516	0	158154.75	159127.94	-4.3661337e-05	619612.2	287732.25	-0.00010828038	283726	621164.44	-0.00014107335
0	0.64514524	0.6491197	-1.7041017e-10	0.068023674	0.068023674	0	158131.17	159105.33	-3.7585167e-05	619679.7	287535.03	-0.00013322743	283523.75	621232.6	-0.000102738435
0	0.64504933	0.64902806	-2.9784716e-10	0.067882195	0.067882195	0	158107.62	159082.84	-6.924014e-05	619747.3	287338.16	-0.00017984338	283321.75	621301.06	-0.00024468236
0	0.6449535	0.6489362	-4.930609e-10	0.067740865	0.067740865	0	158084.14	159060.36	-0.0001250547	619814.3	287141.88	-0.00035275082	283120.5	621368.75	-0.00039538858
0	0.6448569	0.64884365	-2.4091268e-10	0.06759933	0.06759933	0	158060.47	159037.66	-5.4953645e-05	619881.8	286944.3	-0.00016805273	282917.94	621436.9	-0.00018694649
0	0.64476013	0.64875114	-1.9836928e-10	0.06745806	0.06745806	0	158036.77	159014.95	-4.931613e-05	619949.3	286746.28	-0.00014563571	282714.88	621505.2	-0.00014496042
0	0.6446633	0.64865816	-2.8070646e-10	0.06731656	0.06731656	0	158012.98	158992.17	-6.407448e-05	620016.7	286548.25	-0.00020229456	282511.88	621573.2	-0.00019144616
0	0.64456636	0.6485653	-1.4782611e-10	0.06717502	0.06717502	0	157989.28	158969.45	-3.9805964e-05	620084	286350.3	-7.784712e-05	282309	621641.1	-0.00013703752
0	0.6444694	0.6484725	-1.2344974e-10	0.06703376	0.06703376	0	157965.5	158946.67	-3.1468444e-05	620151.4	286152.16	-6.544627e-05	282105.75	621709.4	-9.917347e-05
0	0.64437145	0.64837855	-1.432014e-10	0.066892266	0.066892266	0	157941.5	158923.66	-3.2421605e-05	620219	285952.38	1.2716111e-05	281901.03	621777.6	-0.00020587788
0	0.6442741	0.6482854	-2.3622318e-10	0.06675089	0.06675089	0	157917.62	158900.84	-5.485136e-05	620286.6	285753.66	-0.00014195027	281697.12	621846	-0.00018894616
0	0.644176	0.6481915	-9.6630384e-11	0.066609405	0.066609405	0	157893.58	158877.81	-2.266252e-05	620354.44	285553.66	-4.1834035e-05	281492.06	621914.4	-8.486131e-05
0	0.6440784	0.6480979	-2.2706557e-10	0.066468135	0.066468135	0	157869.62	158854.88	-5.8193462e-05	620421.75	285354.66	-0.00019168227	281288	621982.44	-0.00014996258
0	0.64397967	0.6480032	-3.1262587e-10	0.066326596	0.066326596	0	157845.44	158831.64	-7.593228e-05	620489.5	285153.7	-0.00023967431	281082.06	622050.8	-0.0002097876
0	0.6438817	0.64790946	-1.555692e-10	0.06618511	0.06618511	0	157821.44	158808.69	-3.9562798e-05	620557	284954.22	-0.000113382004	280877.38	622119.1	-0.00010156805
0	0.6437829	0.6478148	-3.6850172e-11	0.06604383	0.06604383	0	157797.23	158785.48	-1.2162993e-05	620624.6	284753.28	-5.6113795e-06	280671.47	622187.3	-7.4421165e-05
0	0.643684	0.64772004	9.095002e-11	0.06590228	0.06590228	0	157773.02	158762.22	2.065969e-05	620692.4	284552.16	-1.305372e-05	280465.25	622255.8	0.00014452901
0	0.643585	0.6476251	-2.2384114e-10	0.065760985	0.065760985	0	157748.72	158738.97	-5.3337903e-05	620760.25	284350.75	-0.00010497958	280258.7	622324.3	-0.00022085416
0	0.64348614	0.64753044	-5.7535404e-11	0.065619476	0.065619476	0	157724.5	158715.77	-1.1780775e-05	620827.56	284150.16	6.937274e-05	280053.1	622392.44	-0.000113926566
0	0.643386	0.64743423	-1.2646795e-10	0.065478206	0.065478206	0	157699.94	158692.19	-3.0231266e-05	620895.3	283947.12	-5.2733594e-05	279845	622460.8	-0.00013176608
0	0.6432868	0.6473391	-2.1397607e-10	0.065336674	0.065336674	0	157675.61	158668.88	-5.5336885e-05	620963.2	283745.44	-0.00010287382	279638.2	622529.4	-0.00021190303
0	0.6431866	0.647243	-1.7088235e-10	0.06519518	0.06519518	0	157651.06	158645.33	-3.4670633e-05	621031	283542.47	-0.0001004371	279430.2	622597.7	-0.00011836081
0	0.6430865	0.6471471	-5.1725557e-10	0.0650539	0.0650539	0	157626.55	158621.81	-0.0001324568	621098.9	283339.72	-0.00043030918	279222.28	622666.2	-0.00035072383
0	0.6429868	0.64705163	-2.4514887e-10	0.06491235	0.06491235	0	157602.08	158598.4	-6.4381784e-05	621166.6	283137.47	-0.00022834363	279014.84	622734.8	-0.00013226848
0	0.64288574	0.6469546	-1.126341e-10	0.064771056	0.064771056	0	157577.33	158574.62	-2.9229186e-05	621234.5	282933.25	-5.829147e-05	278805.62	622803.1	-0.00010503993
0	0.6427853	0.6468583	-1.7463128e-10	0.06462957	0.06462957	0	157552.72	158551.03	-4.019425e-05	621302.4	282729.8	-0.00013576668	278596.94	622871.8	-0.000115956595
0	0.6426842	0.64676124	-2.13242e-10	0.064488046	0.064488046	0	157527.92	158527.25	-5.350291e-05	621370.25	282525.56	-0.00017666839	278387.7	622940.2	-0.0001331495
0	0.6425832	0.64666444	-2.2332612e-10	0.06434676	0.06434676	0	157503.16	158503.52	-5.0467104e-05	621438.4	282321.22	-0.0001495765	278178.06	623009	-0.00015386713
0	0.6424823	0.6465678	-1.5404679e-10	0.06420526	0.06420526	0	157478.44	158479.84	-3.561945e-05	621506.25	282117.34	-5.8307207e-05	277968.94	623077.6	-0.00016687851
0	0.6423801	0.64646965	-3.795293e-10	0.06406394	0.06406394	0	157453.38	158455.78	-9.389262e-05	621574.06	281911.4	-0.00015075432	277758.06	623146.06	-0.00042350043
0	0.64227855	0.6463722	-6.180422e-11	0.06392242	0.06392242	0	157428.5	158431.89	-1.4242838e-05	621642.2	281706.28	-4.800194e-05	277547.72	623214.9	-3.4384077e-05
0	0.6421765	0.6462745	-5.9371404e-11	0.063781135	0.063781135	0	157403.48	158407.95	-1.6175178e-05	621710.7	281500.28	1.737721e-05	277336.38	623284.06	-9.267423e-05
0	0.6420745	0.6461769	-1.7203859e-10	0.06363964	0.06363964	0	157378.48	158384.02	-4.5659228e-05	621778.7	281294.78	-0.00019970408	277125.6	623352.9	-6.350619e-05
0	0.64197206	0.6460785	-1.7451157e-10	0.06349811	0.06349811	0	157353.38	158359.89	-4.0631654e-05	621846.6	281088.62	-0.00010583836	276914.28	623421.4	-0.00014796194
0	0.64186954	0.6459802	-2.1689259e-10	0.06335685	0.06335685	0	157328.25	158335.81	-5.7218185e-05	621914.75	280882.2	-0.00014596393	276702.66	623490.2	-0.00019304456
0	0.6417672	0.64588207	-1.7248417e-10	0.06321528	0.06321528	0	157303.17	158311.75	-4.459673e-05	621982.56	280676.38	-0.000104691855	276491.66	623558.56	-0.0001494697
0	0.6416638	0.64578277	-3.7861883e-10	0.063074	0.063074	0	157277.81	158287.4	-9.282157e-05	622051	280468.28	-0.0003082217	276278.34	623627.6	-0.00024375848
0	0.6415609	0.64568406	-7.8142284e-11	0.0629325	0.0629325	0	157252.58	158263.2	-2.2666041e-05	622118.8	280261.47	-4.7552465e-05	276066.38	623696.1	-6.317761e-05
0	0.6414565	0.64558375	-3.0083133e-10	0.06279099	0.06279099	0	157226.98	158238.61	-7.418174e-05	622187.4	280052.03	-0.0002037662	275851.8	623765.25	-0.00022872565
0	0.64135396	0.64548546	-2.8766048e-10	0.06264971	0.06264971	0	157201.86	158214.53	-7.130765e-05	622255.2	279845.84	-0.00019665367	275640.28	623833.75	-0.00022395226
0	0.64124936	0.6453849	-1.7437726e-10	0.0625082	0.0625082	0	157176.23	158189.92	-4.2855125e-05	622323.44	279636.28	-0.00011187528	275425.62	623902.56	-0.00015631263
0	0.64114565	0.64528555	-2.9199365e-10	0.062366873	0.062366873	0	157150.83	158165.52	-7.230772e-05	622391.75	279428.2	-0.00020799803	275212.16	623971.6	-0.00021284731
0	0.6410405	0.6451846	-1.5075291e-10	0.062225346	0.062225346	0	157125.05	158140.77	-3.8040045e-05	622460.4	279217.53	-0.00012143912	274996.3	624040.75	-9.8543154e-05
0	0.64093655	0.64508486	-7.458455e-11	0.062084075	0.062084075	0	157099.56	158116.38	-1.9701303e-05	622528.75	279009.06	-6.0997718e-05	274782.44	624109.9	-5.7886133e-05
0	0.6408322	0.6449847	-3.0104103e-11	0.06194257	0.06194257	0	157073.98	158091.81	-7.782708e-06	622596.7	278800.28	2.638127e-05	274568.4	624178.4	-7.345531e-05
0	0.6407267	0.6448833	-1.7510832e-10	0.061801057	0.061801057	0	157048.11	158066.92	-4.707685e-05	622665.1	278589.34	-8.303375e-05	274352.34	624247.25	-0.00018303178
0	0.64062136	0.644782	-3.117562e-10	0.061659787	0.061659787	0	157022.28	158042.11	-7.769236e-05	622733.44	278378.5	-0.00019780213	274136.3	624316.4	-0.0002564234
0	0.64051664	0.6446817	-2.1995714e-10	0.061518222	0.061518222	0	156996.64	158017.53	-5.631672e-05	622801.75	278169.16	-8.356309e-05	273921.56	624385.25	-0.00023121238
0	0.64040995	0.6445792	-1.2744188e-10	0.061376926	0.061376926	0	156970.48	157992.39	-2.9217304e-05	622870.44	277956.3	-6.938933e-05	273703.53	624454.5	-0.00010502896
0	0.64030445	0.64447784	-3.6205815e-12	0.061235435	0.061235435	0	156944.61	157967.53	1.5187599e-06	622938.7	277745.5	7.9292724e-05	273487.44	624523.4	-9.327127e-05
0	0.6401989	0.64437675	-2.615914e-10	0.06109393	0.06109393	0	156918.75	157942.8	-6.546264e-05	623007.25	277534.8	-0.00014178762	273271.25	624592.7	-0.00025840243
0	0.6400929	0.6442749	-1.5709273e-10	0.06095266	0.06095266	0	156892.77	157917.84	-3.8986003e-05	623075.4	277323.53	-8.532676e-05	273054.7	624661.44	-0.0001451952
0	0.63998574	0.6441717	-2.3867924e-10	0.060811136	0.060811136	0	156866.5	157892.53	-6.178722e-05	623143.6	277110.28	-9.6768206e-05	272836.38	624730.06	-0.0002649957
0	0.63987875	0.644069	-2.6590039e-10	0.060669802	0.060669802	0	156840.3	157867.38	-6.396754e-05	623212.6	276897.06	-0.00013641623	272617.75	624799.7	-0.00022449656
0	0.63977265	0.6439674	-1.4620756e-11	0.060528312	0.060528312	0	156814.27	157842.44	-3.1189993e-06	623280.94	276685.5	2.8456965e-05	272400.78	624868.8	-2.1981565e-05
0	0.6396653	0.6438643	-1.07743175e-10	0.060387015	0.060387015	0	156787.97	157817.16	-3.060967e-05	623349.44	276472.06	-9.345385e-05	272181.97	624937.9	-4.9770002e-05
0	0.6395578	0.6437609	-8.6478935e-11	0.06024551	0.06024551	0	156761.6	157791.81	-2.4258505e-05	623418	276258.22	-8.002248e-05	271962.88	625006.94	-6.0542367e-05
0	0.6394503	0.6436577	-1.7039645e-10	0.06010401	0.06010401	0	156735.27	157766.56	-4.0787298e-05	623486.7	276044.53	-8.1435304e-05	271743.75	625076.3	-0.00016147029
0	0.6393424	0.6435541	-3.868945e-10	0.059962716	0.059962716	0	156708.81	157741.16	-9.800411e-05	623555.2	275830.38	-0.00026703533	271524.22	625145.44	-0.00031267462
0	0.6392343	0.6434504	-1.6627043e-10	0.059821162	0.059821162	0	156682.31	157715.7	-3.8070804e-05	623623.94	275615.62	-4.947576e-05	271304.06	625214.9	-0.00017446902
0	0.6391264	0.64334655	4.468771e-11	0.059679877	0.059679877	0	156655.88	157690.28	6.86038e-06	623692.2	275401.62	-1.3174828e-05	271084.78	625283.56	5.8311194e-05
0	0.63901746	0.64324176	-9.9968644e-11	0.059538364	0.059538364	0	156629.17	157664.58	-2.149533e-05	623760.9	275185.7	-8.363354e-05	270863.53	625352.75	-5.1674742e-05
0	0.63890904	0.64313763	-2.1212238e-10	0.059396874	0.059396874	0	156602.58	157639.05	-5.1860974e-05	623829.5	274970.72	-0.00014047284	270643.2	625421.94	-0.0001784739
0	0.63879985	0.6430326	-2.9115082e-11	0.05925559	0.05925559	0	156575.84	157613.31	-3.8937833e-06	623898	274754.5	5.0176855e-05	270421.7	625491.1	-8.626246e-05
0	0.6386906	0.6429276	-2.0883195e-10	0.05911408	0.05911408	0	156549.06	157587.58	-4.9822884e-05	623966.6	274538.4	-0.00011722354	270200.22	625560.25	-0.00019737858
0	0.63858074	0.64282197	-1.9811282e-10	0.05897274	0.05897274	0	156522.12	157561.7	-4.6400117e-05	624035.7	274321	-6.0608323e-05	269977.44	625629.9	-0.00022778084
0	0.6384715	0.6427173	-1.2972315e-10	0.05883124	0.05883124	0	156495.36	157536.05	-2.8434388e-05	624104.56	274104.75	-7.775297e-05	269755.56	625699.44	-8.3380284e-05
0	0.63836193	0.642612	-2.1565705e-10	0.05868994	0.05868994	0	156468.5	157510.23	-5.5124037e-05	624173	273888.28	-0.0001280742	269533.72	625768.5	-0.00019352937
0	0.63825107	0.6425052	-3.4876083e-10	0.058548454	0.058548454	0	156441.31	157484.05	-8.184942e-05	624241.8	273669.56	-0.00018704469	269309.75	625837.75	-0.0003050836
0	0.63814104	0.6423996	-1.2540667e-10	0.058406953	0.058406953	0	156414.38	157458.19	-3.5976536e-05	624310.8	273452.1	-9.506325e-05	269086.7	625907.44	-0.00010377879
0	0.6380307	0.64229375	-2.8521477e-10	0.05826566	0.05826566	0	156387.3	157432.19	-7.105316e-05	624379.56	273234.3	-0.00015819467	268863.44	625976.75	-0.00026339717
0	0.6379196	0.6421868	-1.979396e-10	0.05812409	0.05812409	0	156360.1	157406.03	-4.422318e-05	624448.4	273015.4	-0.00013322447	268639.12	626046.2	-0.00013583234
0	0.63780916	0.6420806	-2.7455976e-10	0.057982814	0.057982814	0	156333.02	157379.97	-7.0444075e-05	624516.9	272797.66	-0.00021410374	268416	626115.2	-0.0002069557
0	0.6376973	0.6419728	-2.053538e-10	0.05784131	0.05784131	0	156305.58	157353.55	-4.558493e-05	624585.7	272577.5	-0.00015777629	268190.5	626184.44	-0.0001326162
0	0.6375861	0.64186597	-1.3646939e-10	0.057699807	0.057699807	0	156278.34	157327.34	-3.1813157e-05	624654.5	272358.47	-0.0001395491	267966	626253.94	-6.432818e-05
0	0.6374739	0.6417579	-2.8570082e-10	0.05755853	0.05755853	0	156250.81	157300.89	-6.7324e-05	624723.44	272137.84	-0.0002312379	267739.94	626323.4	-0.00019272341
0	0.63736176	0.64165026	-1.11786976e-10	0.057417024	0.057417024	0	156223.33	157274.5	-2.8973527e-05	624792.7	271917.22	-2.2430628e-05	267513.8	626393.06	-0.00014717295
0	0.6372508	0.6415436	-3.5540934e-10	0.057275668	0.057275668	0	156196.12	157248.36	-8.449673e-05	624861	271698.94	-0.00019288989	267289.97	626462.1	-0.00032032805
0	0.6371373	0.6414344	-1.6722006e-10	0.05713418	0.05713418	0	156168.28	157221.58	-3.930969e-05	624930.3	271476.2	-0.00013759172	267061.8	626531.9	-9.908644e-05
0	0.6370251	0.64132667	-1.4954999e-11	0.056992885	0.056992885	0	156140.83	157195.17	-8.261735e-06	624999	271256.12	1.5004375e-05	266836.2	626601.25	-4.3045013e-05
0	0.6369119	0.64121747	-1.094128e-10	0.056851383	0.056851383	0	156113.08	157168.44	-2.6619342e-05	625067.8	271034.12	-5.2897965e-05	266608.84	626670.44	-0.00010791314
0	0.63679904	0.64110893	-1.9238185e-10	0.056709897	0.056709897	0	156085.4	157141.83	-4.9142145e-05	625136.6	270812.75	-9.387321e-05	266382.03	626739.7	-0.00018098563
0	0.6366851	0.6409994	-2.1051103e-10	0.0565686	0.0565686	0	156057.47	157114.94	-4.9496248e-05	625206	270589.28	-0.00015466921	266153	626809.75	-0.00013450929
0	0.63657224	0.640891	-1.2288388e-10	0.056427035	0.056427035	0	156029.84	157088.4	-2.7451273e-05	625274.75	270368.3	-1.0009479e-05	265926.4	626879.06	-0.00013496281
0	0.6364582	0.6407813	-1.5778286e-10	0.056285743	0.056285743	0	156001.86	157061.47	-3.686227e-05	625343.75	270145.16	-6.4170126e-05	265697.75	626948.56	-0.00013708441
0	0.6363435	0.6406708	3.0011132e-11	0.05614425	0.05614425	0	155973.77	157034.4	8.0090285e-06	625412.9	269920.9	-1.9923256e-05	265468.06	627018.2	6.36372e-05
0	0.6362295	0.6405613	-1.8515545e-10	0.05600275	0.05600275	0	155945.83	157007.58	-4.358159e-05	625482	269697.78	-7.490152e-05	265239.28	627088	-0.0001790814
0	0.636115	0.64045113	-3.1548963e-10	0.05586146	0.05586146	0	155917.75	156980.58	-7.492359e-05	625551	269474.06	-0.00020978207	265010	627157.56	-0.00026504177
0	0.63600016	0.6403405	-6.188953e-11	0.055719968	0.055719968	0	155889.6	156953.47	-1.564141e-05	625619.9	269249.84	-2.900649e-05	264780.3	627226.8	-5.8424786e-05
0	0.63588494	0.64022946	-2.0470854e-10	0.055578675	0.055578675	0	155861.34	156926.25	-5.172309e-05	625688.75	269025.12	-0.00011791758	264550.16	627296.2	-0.00018671069
0	0.63576955	0.6401185	-1.3425866e-10	0.055437125	0.055437125	0	155833.1	156899.06	-3.8429687e-05	625757.94	268799.94	-2.4459283e-05	264319.4	627365.94	-0.0001732803
0	0.6356537	0.640007	-1.6115217e-10	0.05529581	0.05529581	0	155804.66	156871.7	-3.7274716e-05	625827.4	268573.88	-3.3545482e-05	264087.72	627435.8	-0.00018886726
0	0.6355383	0.63989615	-8.871285e-11	0.055154327	0.055154327	0	155776.42	156844.55	-1.8247412e-05	625896.4	268349.1	-8.757906e-05	263857.28	627505.56	-4.3389955e-05
0	0.6354222	0.63978434	-1.3232714e-10	0.055012826	0.055012826	0	155747.97	156817.14	-3.216668e-05	625965.1	268123.34	-9.50295e-05	263626.06	627574.6	-9.781864e-05
0	0.6353057	0.639672	-2.8548916e-10	0.05487153	0.05487153	0	155719.36	156789.58	-7.064606e-05	626034.5	267896.22	-0.00021109574	263393.38	627644.56	-0.0002060774
0	0.63518935	0.63956004	-1.5666414e-10	0.054730047	0.054730047	0	155690.86	156762.14	-3.710374e-05	626103.4	267670.1	-0.00014877356	263161.72	627713.9	-7.0550734e-05
0	0.6350725	0.6394475	-2.5672106e-10	0.054588683	0.054588683	0	155662.22	156734.58	-6.272766e-05	626172.7	267442.9	-0.00020972952	262928.94	627783.6	-0.00015312902
0	0.6349553	0.6393347	-2.4569966e-10	0.05444718	0.05444718	0	155633.48	156706.92	-5.672641e-05	626242.1	267214.94	-0.00010385638	262695.28	627853.6	-0.0002428416
0	0.6348383	0.63922215	-8.247385e-11	0.0543059	0.0543059	0	155604.81	156679.36	-1.8976723e-05	626311.1	266987.84	-1.46926595e-05	262462.53	627923.1	-9.380287e-05
0	0.63472056	0.6391087	-1.4623124e-10	0.054164402	0.054164402	0	155575.94	156651.53	-3.7113623e-05	626380.2	266759.4	-8.764885e-05	262228.6	627992.6	-0.00011674915
0	0.6346027	0.6389951	-2.6464414e-10	0.054022897	0.054022897	0	155547.08	156623.72	-6.5764994e-05	626449.4	266530.78	-0.00015281564	261994.36	628062.44	-0.00023446634
0	0.6344847	0.63888156	-2.1729474e-10	0.053881615	0.053881615	0	155518.11	156595.88	-5.392667e-05	626518.75	266301.9	-0.00018272531	261759.78	628132.3	-0.00012336699
0	0.6343663	0.6387676	-6.313252e-11	0.053740054	0.053740054	0	155489.16	156567.92	-1.5097007e-05	626587.94	266072.62	-6.587619e-05	261524.89	628202	-3.5131994e-05
0	0.63424784	0.6386536	-3.0055314e-10	0.05359875	0.05359875	0	155460.1	156539.97	-7.155823e-05	626657.06	265843.38	-0.00022827287	261289.94	628271.6	-0.00018777615
0	0.634129	0.6385391	-2.4842772e-10	0.053457268	0.053457268	0	155430.95	156511.9	-5.721239e-05	626726.5	265613.2	-0.00012788111	261054.12	628341.5	-0.00021557334
0	0.6340102	0.63842463	-1.6857415e-10	0.05331579	0.05331579	0	155401.84	156483.86	-4.019597e-05	626795.56	265383.38	-0.00010622059	260818.66	628411.1	-0.0001415435
0	0.63389087	0.63830966	-3.4541262e-10	0.05317447	0.05317447	0	155372.58	156455.69	-7.745665e-05	626864.75	265152.78	-0.00022744192	260582.45	628480.7	-0.00024906432
0	0.633771	0.6381942	-4.3111803e-10	0.053032987	0.053032987	0	155343.2	156427.38	-0.00010240129	626934.3	264921.16	-0.00034722977	260345.12	628550.7	-0.00025167488
0	0.6336516	0.63807917	-1.466374e-10	0.052891623	0.052891623	0	155313.94	156399.17	-3.7762948e-05	627003.3	264690.62	-7.875807e-05	260109	628620.2	-0.0001375087
0	0.6335314	0.6379632	-1.7038393e-10	0.05275012	0.05275012	0	155284.48	156370.78	-3.7533828e-05	627072.3	264458.84	-0.00012856437	259871.6	628689.7	-0.000105640625
0	0.6334112	0.6378475	-2.22297e-10	0.05260882	0.05260882	0	155255.05	156342.42	-5.6507688e-05	627141.6	264227.06	-0.00017997458	259634.12	628759.5	-0.00016229074
0	0.6332906	0.63773113	-6.585078e-11	0.052467342	0.052467342	0	155225.47	156313.89	-1.5201595e-05	627210.94	263994.44	-1.5222297e-05	259395.83	628829.2	-5.2295218e-05
0	0.6331693	0.6376144	-1.0579731e-10	0.05232584	0.05232584	0	155195.75	156285.28	-2.9330562e-05	627280.75	263760.78	-5.9594815e-05	259156.39	628899.5	-9.962354e-05
0	0.63304836	0.63749784	-1.5851356e-10	0.052184545	0.052184545	0	155166.1	156256.7	-3.8462607e-05	627349.8	263527.94	-6.871058e-05	258917.81	628969.1	-0.00017668422
0	0.6329269	0.63738084	-1.707518e-10	0.052042995	0.052042995	0	155136.31	156228.02	-4.0905485e-05	627419.25	263294.3	-9.4925796e-05	258678.44	629038.94	-0.00014354794
0	0.63280547	0.6372638	6.401822e-12	0.051901676	0.051901676	0	155106.53	156199.33	8.717645e-08	627488.6	263060.5	2.4675073e-05	258438.94	629108.75	-9.379946e-06
0	0.6326837	0.6371465	-2.3779556e-10	0.051760197	0.051760197	0	155076.7	156170.56	-5.9361195e-05	627557.8	262826.62	-0.00012128465	258199.31	629178.5	-0.00021937229
0	0.63256186	0.63702905	-2.8055058e-10	0.051618718	0.051618718	0	155046.84	156141.8	-6.868411e-05	627626.9	262592.7	-0.00021974354	257959.75	629248	-0.00019356524
0	0.63243943	0.6369109	-1.7612073e-10	0.05147742	0.05147742	0	155016.83	156112.83	-4.570718e-05	627696.25	262357.66	-5.3883174e-05	257719.03	629317.6	-0.00020753943
0	0.63231647	0.6367924	-2.6565927e-10	0.05133593	0.05133593	0	154986.69	156083.8	-6.2688916e-05	627765.8	262121.64	-0.00016653806	257477.22	629387.75	-0.00022485414
0	0.6321921	0.63667214	-2.027926e-10	0.051194552	0.051194552	0	154956.2	156054.31	-4.6646415e-05	627835.1	261883.75	2.7221657e-05	257233.84	629457.25	-0.00032270834
0	0.63207036	0.6365552	-3.503922e-10	0.051053073	0.051053073	0	154926.38	156025.64	-8.8699846e-05	627904.56	261649.83	-0.00025095313	256993.9	629527.44	-0.00026840816
0	0.6319471	0.6364364	-1.00471326e-10	0.05091175	0.05091175	0	154896.16	155996.55	-2.4929566e-05	627973.9	261413.81	-9.412097e-05	256752.12	629597.1	-7.428619e-05
0	0.6318231	0.6363168	-1.8610023e-10	0.05077028	0.05077028	0	154865.78	155967.22	-4.5435474e-05	628043.4	261176.5	-8.131552e-05	256509.03	629667.06	-0.0002000344
0	0.63169956	0.63619775	-1.6340634e-10	0.050628807	0.050628807	0	154835.48	155938.02	-3.6863206e-05	628112.5	260940.19	-0.00013267678	256266.98	629736.6	-9.365712e-05
0	0.6315751	0.6360777	-2.1447923e-10	0.050487485	0.050487485	0	154804.98	155908.58	-5.5072003e-05	628181.94	260702.25	-0.00018005873	256023.27	629806.5	-0.00014228081
0	0.6314509	0.63595784	-2.0362996e-10	0.05034594	0.05034594	0	154774.53	155879.22	-4.7350874e-05	628251.25	260464.7	-0.0001195403	255779.94	629876.3	-0.0001564142
0	0.63132614	0.6358374	-1.9909513e-10	0.050204627	0.050204627	0	154743.94	155849.7	-4.809624e-05	628320.6	260226.39	-0.00016364634	255535.89	629945.9	-0.00012423446
0	0.6312014	0.6357171	-9.0573264e-11	0.050063137	0.050063137	0	154713.38	155820.22	-2.305721e-05	628389.8	259988.39	-2.8436898e-05	255292.14	630015.5	-9.647224e-05
0	0.63107544	0.6355957	9.551238e-11	0.049921665	0.049921665	0	154682.5	155790.47	2.349194e-05	628459.75	259747.95	4.311368e-05	255045.8	630086	0.00011163746
0	0.63094974	0.63547426	-1.7398995e-10	0.04978036	0.04978036	0	154651.69	155760.72	-4.0214396e-05	628529	259508.56	-0.00013803213	254800.72	630155.5	-0.00010403516
0	0.63082445	0.6353535	-1.1497274e-10	0.049638864	0.049638864	0	154620.97	155731.11	-2.7551005e-05	628598.25	259269.58	-6.4801025e-05	254555.83	630225.4	-8.676326e-05
0	0.6306979	0.6352314	-1.0672546e-10	0.049497493	0.049497493	0	154589.95	155701.19	-2.4792005e-05	628667.94	259028.61	-3.099408e-05	254309	630295.4	-0.00010772284
0	0.63057166	0.6351097	-1.867656e-10	0.049356014	0.049356014	0	154559.03	155671.33	-4.661142e-05	628737.25	258788.52	-0.0001646556	254063.12	630365.06	-9.978961e-05
0	0.63044506	0.63498753	-1.6683395e-10	0.049214687	0.049214687	0	154528	155641.38	-4.229445e-05	628806.6	258547.66	-0.00016502386	253816.42	630434.9	-9.0214045e-05
0	0.63031876	0.6348656	-2.0334082e-10	0.049073216	0.049073216	0	154497.03	155611.48	-5.1409163e-05	628875.7	258307.55	-9.736987e-05	253570.5	630504.25	-0.00019962889
0	0.630191	0.6347422	-2.7193733e-10	0.04893174	0.04893174	0	154465.7	155581.28	-6.679659e-05	628945.3	258064.89	-0.00015893912	253322.05	630574.25	-0.00023842268
0	0.6300633	0.6346191	-1.1061554e-10	0.04879043	0.04879043	0	154434.44	155551.1	-2.593802e-05	629015.06	257822.3	-7.826795e-05	253073.58	630644.44	-8.463469e-05
0	0.6299357	0.634496	-6.5426865e-11	0.048648868	0.048648868	0	154403.16	155520.9	-1.3043604e-05	629084.25	257580.23	-8.02765e-05	252825.64	630714.06	6.5661607e-06
0	0.6298076	0.6343723	-1.8142009e-10	0.048507564	0.048507564	0	154371.75	155490.6	-4.5857138e-05	629154	257337.1	-0.0001472572	252576.56	630784.2	-0.00011372577
0	0.6296794	0.6342487	-2.515911e-10	0.04836608	0.04836608	0	154340.34	155460.28	-6.4558466e-05	629223.25	257094.25	-0.00020940714	252327.9	630853.8	-0.000156007
0	0.62955093	0.6341246	-1.2551711e-10	0.048224606	0.048224606	0	154308.83	155429.9	-2.925988e-05	629292.75	256850.75	-2.684855e-05	252078.55	630923.6	-0.0001463584
0	0.62942165	0.6339998	-2.1180589e-11	0.04808329	0.04808329	0	154277.17	155399.3	2.531158e-07	629362.2	256606.27	2.5580946e-05	251828.27	630993.4	-2.8571918e-05
0	0.6292934	0.63387597	-3.636842e-10	0.047941808	0.047941808	0	154245.73	155368.94	-9.8984005e-05	629431.25	256363.42	-0.00024257996	251579.5	631062.94	-0.0003307292
0	0.62916344	0.63375056	-2.487485e-10	0.047800418	0.047800418	0	154213.86	155338.2	-5.7160552e-05	629501.1	256117.58	-0.00020773003	251327.69	631133.1	-0.00014666772
0	0.6290337	0.63362515	-1.07696276e-10	0.047658958	0.047658958	0	154182.06	155307.47	-2.5413232e-05	629570.44	255872.45	-8.748295e-05	251076.73	631202.8	-6.0988496e-05
0	0.62890375	0.63349974	-2.0154751e-10	0.047517624	0.047517624	0	154150.2	155276.73	-5.4187472e-05	629640	255626.86	-9.143777e-05	250825.17	631272.8	-0.00023424528
0	0.628774	0.63337445	-1.3826165e-10	0.047376156	0.047376156	0	154118.39	155246	-3.796686e-05	629709.2	255381.9	-6.332728e-05	250574.36	631342.2	-0.00015569557
0	0.62864333	0.63324815	-1.7083561e-10	0.047234684	0.047234684	0	154086.38	155215.08	-4.717771e-05	629778.6	255135.36	-0.00012473685	250321.97	631412	-0.00013814993
0	0.6285125	0.63312197	-1.1057082e-11	0.047093358	0.047093358	0	154054.3	155184.11	-4.305454e-06	629848.25	254888.7	-3.5920424e-05	250069.33	631482	1.3231146e-05
0	0.62838125	0.63299525	-3.9630868e-10	0.04695181	0.04695181	0	154022.14	155153.08	-9.5012154e-05	629917.75	254641.42	-0.00026822896	249816.11	631551.94	-0.00031160688
0	0.62825	0.63286847	-1.3975456e-10	0.046810493	0.046810493	0	153989.97	155122	-3.2695796e-05	629987.1	254394.2	-7.630811e-05	249562.92	631621.6	-0.000119098826
0	0.6281183	0.6327411	2.2142299e-12	0.046669014	0.046669014	0	153957.69	155090.77	-9.980686e-07	630056.44	254146.27	7.669363e-05	249309.14	631691.25	-7.155227e-05
0	0.62798643	0.63261384	-1.7674039e-10	0.046527706	0.046527706	0	153925.34	155059.58	-4.4035354e-05	630126	253898.08	-0.00013111332	249054.94	631761.25	-0.00012048344
0	0.62785476	0.6324865	-1.0917165e-10	0.046386234	0.046386234	0	153893.11	155028.4	-2.755442e-05	630195.06	253650.67	-5.5523284e-05	248801.61	631830.6	-0.00010267913
0	0.6277217	0.632358	-2.7415845e-10	0.046244755	0.046244755	0	153860.48	154996.89	-6.8489106e-05	630264.9	253400.52	-0.00013762519	248545.47	631900.7	-0.00024290734
0	0.6275891	0.63223	-8.277555e-11	0.046103433	0.046103433	0	153827.97	154965.5	-2.1366206e-05	630334.25	253151.52	-0.00010212562	248290.48	631970.5	-3.2984033e-05
0	0.6274558	0.6321011	-2.4515978e-10	0.045961887	0.045961887	0	153795.3	154933.92	-5.9185608e-05	630403.75	252901.36	-0.00011617633	248034.38	632040.3	-0.00023463405
0	0.627322	0.63197184	-2.8353833e-10	0.045820557	0.045820557	0	153762.5	154902.2	-7.137468e-05	630473.25	252650.44	-0.00014986118	247777.55	632110.06	-0.00026475458
0	0.6271873	0.6318416	-1.8569848e-10	0.0456791	0.0456791	0	153729.5	154870.27	-4.6934576e-05	630543	252398.1	-0.0001203303	247519.22	632180.1	-0.00016222266
0	0.627055	0.6317138	-1.9761702e-10	0.045537632	0.045537632	0	153697.05	154838.97	-4.7600955e-05	630612.06	252149.83	-0.00011131266	247264.88	632249.56	-0.00018602499
0	0.62692106	0.63158447	-8.2907334e-11	0.0453963	0.0453963	0	153664.22	154807.28	-1.525248e-05	630681.25	251899.11	-6.3522464e-05	247008.11	632319.1	-3.3878754e-05
0	0.62678593	0.6314539	-1.6592362e-10	0.04525483	0.04525483	0	153631.1	154775.27	-4.180505e-05	630751.1	251646.16	-0.00013049963	246749.16	632389.25	-0.0001108839