# t (s)	mx ()	my ()	mz ()	B_extx (T)	B_exty (T)	B_extz (T)	m_fullx (A/m)	m_fully (A/m)	m_fullz (A/m)	m_full.region1x (A/m)	m_full.region1y (A/m)	m_full.region1z (A/m)	m_full.region2x (A/m)	m_full.region2y (A/m)	m_full.region2z (A/m)
0	0.6291281	0.62912613	-3.193515e-10	0.07071067	0.07071067	0	71821.37	71821.13	-3.9533734e-05	663257.7	217519.64	-0.00020646791	217521.64	663256.94	-0.00027835296
0	0.6290036	0.62900174	-3.503496e-10	0.0705692	0.0705692	0	71807.15	71806.92	-4.342764e-05	663343.75	217259.31	-0.00026354048	217261.27	663343.06	-0.00026903325
0	0.6288785	0.62887657	-3.5691716e-10	0.07042789	0.07042789	0	71792.875	71792.65	-3.9242906e-05	663430.2	216997.64	-0.00023768249	216999.62	663429.5	-0.00024357185
0	0.6287532	0.62875116	-2.6929647e-10	0.07028641	0.07028641	0	71778.55	71778.33	-3.2770913e-05	663516.8	216735.58	-0.00023254349	216737.52	663516	-0.00016934171
0	0.6286273	0.62862533	-4.3192286e-10	0.070144996	0.070144996	0	71764.195	71763.97	-4.7602807e-05	663603.4	216472.88	-0.0003265138	216474.86	663602.7	-0.00025726194
0	0.6285014	0.62849945	-3.6131134e-10	0.07000352	0.07000352	0	71749.82	71749.6	-4.002147e-05	663689.9	216210.12	-0.00033380114	216212.06	663689.2	-0.00015700106
0	0.62837505	0.62837315	-1.7955142e-10	0.0698622	0.0698622	0	71735.4	71735.17	-1.8750365e-05	663776.56	215946.58	-0.000109103195	215948.56	663775.8	-0.00012084139
0	0.62824875	0.6282468	1.8840605e-10	0.06972074	0.06972074	0	71720.98	71720.75	2.4916464e-05	663863.06	215683.22	0.00016504448	215685.17	663862.25	0.00014051792
0	0.6281218	0.6281198	-3.8883308e-10	0.06957928	0.06957928	0	71706.484	71706.26	-4.099207e-05	663949.8	215418.72	-0.00023419871	215420.67	663949	-0.00026850644
0	0.6279949	0.6279929	-2.5240887e-10	0.069437936	0.069437936	0	71691.984	71691.766	-2.3880426e-05	664036.44	215154.38	0.00011281953	215156.38	664035.6	-0.0004056765
0	0.6278674	0.6278654	-4.1123047e-10	0.069296405	0.069296405	0	71677.43	71677.21	-4.5982735e-05	664123.25	214889.08	-0.00031829037	214891.08	664122.4	-0.00024561767
0	0.6277399	0.62773806	-3.0536598e-10	0.06915508	0.06915508	0	71662.89	71662.664	-3.5766512e-05	664209.8	214624.16	-0.00026732305	214626.14	664209	-0.00017129861
0	0.627612	0.62761	-3.6870507e-10	0.0690136	0.0690136	0	71648.29	71648.055	-4.0568855e-05	664296.6	214358.23	-0.000251601	214360.23	664295.75	-0.00024591407
0	0.6274839	0.6274819	-2.1036027e-10	0.068872154	0.068872154	0	71633.664	71633.44	-2.3739161e-05	664383.3	214092.08	-0.0001747793	214094.06	664382.56	-0.00011634527
0	0.6273553	0.6273533	-2.2602958e-10	0.06873082	0.06873082	0	71618.984	71618.75	-2.4870376e-05	664470.25	213825.22	-9.554304e-05	213827.23	664469.4	-0.00020945414
0	0.6272266	0.6272246	-2.0445713e-10	0.068589345	0.068589345	0	71604.29	71604.06	-2.2152137e-05	664556.94	213558.28	-0.00018981945	213560.33	664556.25	-8.184267e-05
0	0.62709755	0.6270956	-1.9640702e-10	0.06844793	0.06844793	0	71589.56	71589.33	-2.0099676e-05	664643.75	213290.84	-0.00013675475	213292.84	664643	-0.00010973708
0	0.6269685	0.6269664	-2.6879954e-10	0.06830649	0.06830649	0	71574.81	71574.586	-3.2081618e-05	664730.5	213023.25	-0.00018657782	213025.27	664729.75	-0.00020685424
0	0.62683886	0.6268369	-2.6308128e-10	0.06816512	0.06816512	0	71560.02	71559.8	-2.946005e-05	664817.44	212754.98	-0.00012277372	212756.98	664816.7	-0.0002385088
0	0.6267091	0.6267071	3.624772e-11	0.068023674	0.068023674	0	71545.21	71544.984	6.4028545e-06	664904.2	212486.55	3.7403308e-05	212488.56	664903.44	4.1117924e-05
0	0.6265789	0.626577	-2.3674432e-10	0.06788222	0.06788222	0	71530.36	71530.125	-2.8536107e-05	664991.1	212217.5	-0.00015306773	212219.5	664990.25	-0.00019688407
0	0.62644845	0.6264464	-1.7814462e-10	0.06774087	0.06774087	0	71515.45	71515.23	-1.8200906e-05	665078.06	211947.78	-0.00022779482	211949.81	665077.25	4.5884867e-06
0	0.6263178	0.6263157	-7.8283324e-11	0.06759934	0.06759934	0	71500.53	71500.31	-1.0021322e-05	665165	211677.86	-0.00014573586	211679.86	665164.2	2.2839644e-05
0	0.62618685	0.6261849	-2.3952101e-10	0.06745801	0.06745801	0	71485.59	71485.37	-2.8057362e-05	665251.9	211407.72	-0.0003452979	211409.72	665251.1	1.2172196e-06
0	0.6260557	0.6260537	-9.268044e-11	0.06731654	0.06731654	0	71470.61	71470.38	-9.783578e-06	665338.9	211137.08	-3.341115e-05	211139.11	665338	-8.6569504e-05
0	0.62592417	0.6259222	-3.2175906e-10	0.06717509	0.06717509	0	71455.61	71455.37	-3.8184702e-05	665425.8	210866.02	-0.00013302857	210868.05	665424.94	-0.0003352485
0	0.62579226	0.62579024	5.2204044e-12	0.06703376	0.06703376	0	71440.55	71440.31	-1.1811557e-06	665512.75	210594.38	-7.92574e-05	210596.4	665512	6.477233e-05
0	0.6256601	0.6256581	-1.6213308e-10	0.06689229	0.06689229	0	71425.45	71425.23	-1.96543e-05	665599.9	210322.34	-0.00016182697	210324.38	665599.06	-7.920301e-05
0	0.62552774	0.6255258	3.6436162e-12	0.06675087	0.06675087	0	71410.35	71410.11	-6.436643e-06	665686.8	210050	-7.9408645e-05	210052.03	665686.06	4.7304493e-07
0	0.6253952	0.6253933	-2.9498787e-10	0.06660943	0.06660943	0	71395.21	71394.984	-2.9148976e-05	665773.75	209777.44	-0.00018780977	209779.48	665773.06	-0.00016965791
0	0.62526214	0.6252602	-4.1847745e-10	0.06646807	0.06646807	0	71380.02	71379.79	-4.3691292e-05	665860.9	209504.03	-0.00023764714	209506.1	665860.1	-0.00029815984
0	0.6251289	0.6251269	-3.3188333e-10	0.06632662	0.06632662	0	71364.82	71364.586	-3.719264e-05	665948	209230.48	-0.00022899141	209232.53	665947.2	-0.00022711954
0	0.62499535	0.6249933	2.7304162e-10	0.06618516	0.06618516	0	71349.58	71349.35	3.180541e-05	666035.1	208956.45	0.0003435833	208958.53	666034.25	4.64615e-05
0	0.6248615	0.6248595	-1.6977798e-10	0.06604381	0.06604381	0	71334.28	71334.05	-2.0652107e-05	666122.2	208681.88	-5.514029e-05	208683.92	666121.4	-0.00019812626
0	0.62472737	0.62472546	-3.1630887e-10	0.06590228	0.06590228	0	71318.98	71318.75	-3.446846e-05	666209.25	208407.05	-0.00029059485	208409.11	666208.5	-0.00013210817
0	0.62459284	0.6245908	-2.2688186e-10	0.06576095	0.06576095	0	71303.62	71303.38	-2.4571153e-05	666296.44	208131.44	-5.395998e-05	208133.52	666295.6	-0.0002473677
0	0.6244584	0.6244564	7.5802094e-11	0.065619476	0.065619476	0	71288.266	71288.03	5.513802e-06	666383.5	207856.14	-4.0948034e-06	207858.22	666382.7	7.171317e-05
0	0.6243232	0.6243212	-9.611126e-11	0.06547813	0.06547813	0	71272.836	71272.61	-1.0029509e-05	666470.7	207579.78	-8.081423e-05	207581.86	666469.94	-4.2182386e-05
0	0.6241879	0.6241859	-5.129656e-10	0.0653367	0.0653367	0	71257.39	71257.16	-5.394428e-05	666557.94	207303.12	-0.00030681907	207305.2	666557.2	-0.00035472517
0	0.6240524	0.6240505	-2.790213e-10	0.06519523	0.06519523	0	71241.92	71241.695	-3.2919907e-05	666644.94	207026.31	-0.000103277576	207028.42	666644.25	-0.00030043483
0	0.62391645	0.62391436	-3.7100004e-10	0.065053895	0.065053895	0	71226.4	71226.164	-4.261037e-05	666732.25	206748.77	-0.0003709363	206750.83	666731.44	-0.0001516148
0	0.6237802	0.6237781	-4.0213574e-10	0.064912364	0.064912364	0	71210.85	71210.62	-4.5035707e-05	666819.5	206470.75	-0.00035531816	206472.8	666818.7	-0.000196976
0	0.62364376	0.6236418	-2.7464658e-10	0.064771004	0.064771004	0	71195.27	71195.04	-3.213262e-05	666906.7	206192.6	-0.00010002946	206194.66	666905.94	-0.00029402808
0	0.623507	0.6235049	-1.5249309e-10	0.06462956	0.06462956	0	71179.66	71179.42	-1.620132e-05	666993.9	205913.81	-3.628856e-05	205915.94	666993.1	-0.00016239588
0	0.6233699	0.62336785	-3.222781e-10	0.06448812	0.06448812	0	71164	71163.766	-3.6453042e-05	667081.1	205634.61	-0.00024284895	205636.69	667080.4	-0.00020419195
0	0.62323254	0.6232305	8.124343e-12	0.064346746	0.064346746	0	71148.33	71148.086	-7.87104e-08	667168.44	205355.08	2.70345e-05	205357.17	667167.56	-2.7999764e-05
0	0.6230948	0.6230928	-3.258307e-10	0.06420531	0.06420531	0	71132.61	71132.37	-3.1454158e-05	667255.6	205075.03	-7.170767e-05	205077.11	667254.94	-0.00031402954
0	0.6229568	0.6229548	-4.112582e-10	0.064063884	0.064063884	0	71116.85	71116.61	-4.4909797e-05	667342.94	204794.44	-0.00032247874	204796.53	667342.2	-0.00022827137
0	0.6228185	0.6228165	-3.5119702e-10	0.06392241	0.06392241	0	71101.055	71100.82	-3.792011e-05	667430.25	204513.6	-0.00029003585	204515.66	667429.56	-0.00017499638
0	0.6226799	0.62267786	-8.9682574e-11	0.063781075	0.063781075	0	71085.234	71085	-3.109817e-06	667517.56	204232.16	-7.8170924e-05	204234.23	667516.75	4.0033763e-05
0	0.6225409	0.62253886	-3.9265555e-10	0.06363963	0.06363963	0	71069.37	71069.14	-4.8193753e-05	667604.94	203950.25	-0.00032077002	203952.34	667604.2	-0.00027025273
0	0.6224017	0.6223997	-1.3880229e-10	0.06349817	0.06349817	0	71053.48	71053.24	-1.01193555e-05	667692.3	203668.08	-0.00024053236	203670.17	667691.56	0.00011643393
0	0.62226224	0.6222602	-3.160497e-10	0.06335683	0.06335683	0	71037.56	71037.33	-3.5881563e-05	667779.6	203385.48	-0.00029712	203387.6	667778.8	-0.0001429126
0	0.62212235	0.6221203	-3.637601e-10	0.0632153	0.0632153	0	71021.58	71021.35	-4.0820105e-05	667867	203102.22	-0.00030222943	203104.33	667866.2	-0.00019836683
0	0.6219822	0.62198025	-1.8446394e-10	0.063073926	0.063073926	0	71005.586	71005.36	-1.9005869e-05	667954.4	202818.72	-0.00019304591	202820.83	667953.5	-4.003205e-05
0	0.6218418	0.6218398	-3.7736828e-10	0.0629325	0.0629325	0	70989.56	70989.33	-4.3019303e-05	668041.7	202534.83	-0.00039073435	202536.92	668040.94	-0.0001368317
0	0.621701	0.62169904	-5.2965266e-10	0.06279106	0.06279106	0	70973.49	70973.26	-5.7980982e-05	668129.06	202250.4	-0.00037493056	202252.53	668128.25	-0.00033611766
0	0.62156004	0.621558	-1.2030879e-10	0.06264968	0.06264968	0	70957.39	70957.15	-1.3930427e-05	668216.44	201965.48	-8.745058e-05	201967.6	668215.6	-8.3384824e-05
0	0.62141865	0.6214166	-2.8608987e-10	0.06250825	0.06250825	0	70941.26	70941.016	-3.149723e-05	668303.9	201680.2	-7.9900135e-05	201682.34	668303	-0.0003063653
0	0.6212769	0.6212749	-5.466574e-10	0.062366813	0.062366813	0	70925.08	70924.836	-6.430266e-05	668391.3	201394.36	-0.00050757633	201396.47	668390.5	-0.00028099757
0	0.6211347	0.6211326	7.8636576e-11	0.06222535	0.06222535	0	70908.836	70908.6	7.1371674e-06	668478.9	201107.58	8.302249e-05	201109.73	668478.06	4.5039696e-06
0	0.6209928	0.6209907	-2.8131522e-10	0.062084008	0.062084008	0	70892.625	70892.39	-3.57054e-05	668566	200821.69	-0.00022015921	200823.84	668565.3	-0.000217713
0	0.62084997	0.620848	-2.8814903e-10	0.06194257	0.06194257	0	70876.336	70876.1	-3.0042685e-05	668653.44	200534.4	-0.00024620886	200536.53	668652.7	-0.00012221879
0	0.62070715	0.6207051	3.2224173e-10	0.061801106	0.061801106	0	70860.02	70859.8	3.3570504e-05	668740.8	200247.02	0.0003201828	200249.14	668740.1	9.150819e-05
0	0.6205637	0.62056154	-2.978776e-10	0.061659764	0.061659764	0	70843.64	70843.4	-3.5307276e-05	668828.5	199958.4	-0.00032074636	199960.55	668827.75	-0.00011224347
0	0.62042034	0.62041825	-1.7467867e-10	0.06151824	0.06151824	0	70827.28	70827.04	-2.1154468e-05	668915.8	199670.55	-0.00017090116	199672.7	668915	-8.85261e-05
0	0.6202764	0.62027425	-1.8996028e-10	0.061376862	0.061376862	0	70810.85	70810.61	-2.2147095e-05	669003.25	199381.52	-0.00018318785	199383.67	669002.5	-8.841246e-05
0	0.620132	0.6201299	1.5260886e-10	0.061235435	0.061235435	0	70794.375	70794.13	1.5782716e-05	669090.8	199091.84	0.00013024436	199094	669090	6.330656e-05
0	0.6199875	0.6199855	4.2016748e-11	0.061093997	0.061093997	0	70777.88	70777.64	7.4782756e-06	669178.2	198802.23	-4.2997435e-05	198804.39	669177.56	0.00013470706
0	0.61984247	0.6198404	-3.1617842e-10	0.060952656	0.060952656	0	70761.31	70761.08	-3.5475146e-05	669265.94	198511.42	-0.0002950477	198513.6	669265.06	-0.00014000082
0	0.61969763	0.61969554	2.583688e-10	0.06081119	0.06081119	0	70744.77	70744.53	2.9650935e-05	669353.2	198221.38	0.00020003233	198223.52	669352.4	0.00016359112
0	0.619552	0.61955	-4.927704e-10	0.06066975	0.06066975	0	70728.15	70727.92	-5.456718e-05	669440.6	197929.98	-0.0002651847	197932.16	669439.94	-0.00040399842
0	0.61940616	0.6194041	-5.846725e-10	0.06052832	0.06052832	0	70711.5	70711.266	-6.8616144e-05	669528.1	197638.28	-0.00044360445	197640.44	669527.44	-0.00039786779
0	0.6192601	0.6192579	-6.7284026e-11	0.060386937	0.060386937	0	70694.83	70694.586	-7.669977e-06	669615.7	197346.27	-7.488363e-05	197348.42	669614.94	-1.917692e-05
0	0.61911356	0.61911154	1.6877932e-10	0.060245506	0.060245506	0	70678.1	70677.86	1.8353712e-05	669703.1	197053.7	3.191438e-05	197055.89	669702.44	0.00019316588
0	0.6189668	0.61896473	-1.5347008e-11	0.06010408	0.06010408	0	70661.34	70661.11	-1.009414e-06	669790.7	196760.69	-6.0487684e-05	196762.86	669789.9	4.8108766e-05
0	0.61881936	0.61881727	-2.7135624e-10	0.0599627	0.0599627	0	70644.516	70644.28	-2.9237499e-05	669878.3	196466.66	-9.939749e-05	196468.81	669877.56	-0.0002591558
0	0.6186723	0.6186702	-3.2014705e-10	0.059821177	0.059821177	0	70627.73	70627.484	-3.4002365e-05	669965.6	196173.4	-0.00025183026	196175.56	669964.9	-0.00016515683
0	0.6185245	0.6185224	-5.2988593e-11	0.059679825	0.059679825	0	70610.85	70610.61	-3.2915807e-06	670053.2	195878.97	0.00019166362	195881.14	670052.44	-0.00023202984
0	0.61837596	0.61837393	1.5603527e-11	0.05953837	0.05953837	0	70593.91	70593.67	2.7697583e-06	670140.94	195583.42	0.00021580892	195585.6	670140.06	-0.00018184207
0	0.61822796	0.6182259	-4.549316e-10	0.05939694	0.05939694	0	70577	70576.766	-5.655305e-05	670228.2	195288.8	-0.00034072957	195290.98	670227.44	-0.00035280726
0	0.6180791	0.6180769	-3.3437073e-10	0.059255593	0.059255593	0	70560.01	70559.77	-4.1993706e-05	670315.7	194992.84	-0.00020443929	194995.02	670314.94	-0.0003105494
0	0.61792994	0.6179279	-7.430238e-10	0.05911413	0.05911413	0	70542.984	70542.734	-8.441931e-05	670403.3	194696.47	-0.0005412798	194698.66	670402.5	-0.00049399416
0	0.61778045	0.61777836	2.9784727e-11	0.058972687	0.058972687	0	70525.914	70525.67	7.8297335e-06	670490.8	194399.69	-7.299763e-05	194401.88	670490.06	0.00016901735
0	0.6176308	0.6176287	-1.1376472e-10	0.058831256	0.058831256	0	70508.83	70508.586	-1.2046541e-05	670578.2	194102.66	-0.000101774465	194104.83	670577.5	-4.5957964e-05
0	0.61748064	0.61747855	-2.7610433e-10	0.058689874	0.058689874	0	70491.68	70491.445	-3.269148e-05	670665.8	193804.84	-0.00014974215	193807.05	670665.06	-0.00025116897
0	0.6173302	0.61732805	8.276443e-11	0.058548443	0.058548443	0	70474.51	70474.266	8.750567e-06	670753.3	193506.7	0.000109988345	193508.9	670752.56	-2.6759988e-06
0	0.6171794	0.61717725	6.894119e-11	0.05840702	0.05840702	0	70457.3	70457.06	5.722069e-06	670840.9	193208.11	-6.133496e-05	193210.3	670840.2	0.0001315074
0	0.61702836	0.61702627	5.906937e-11	0.058265645	0.058265645	0	70440.05	70439.81	7.0692504e-06	670928.3	192909.19	8.138325e-05	192911.39	670927.56	5.31031e-06
0	0.61687696	0.6168748	5.482347e-11	0.058124118	0.058124118	0	70422.766	70422.53	7.4491836e-06	671015.9	192609.7	9.175689e-05	192611.9	671015.06	-4.040267e-07
0	0.616725	0.6167229	-3.5324024e-10	0.057982754	0.057982754	0	70405.43	70405.19	-3.781514e-05	671103.4	192309.47	-7.337867e-05	192311.64	671102.6	-0.0003903663
0	0.61657286	0.6165707	-4.073293e-10	0.05784131	0.05784131	0	70388.05	70387.81	-4.1288487e-05	671190.8	192008.89	-0.00037502387	192011.11	671190.25	-0.00013131638
0	0.61642045	0.6164183	-5.241911e-10	0.057699878	0.057699878	0	70370.64	70370.414	-5.6090394e-05	671278.4	191707.95	-0.0004287226	191710.17	671277.7	-0.00025914045
0	0.6162677	0.6162656	-1.7892701e-10	0.05755853	0.05755853	0	70353.21	70352.97	-1.8213736e-05	671365.9	191406.6	-0.0001561359	191408.86	671365.06	-6.722776e-05
0	0.61611444	0.61611235	-2.141035e-10	0.057417084	0.057417084	0	70335.72	70335.484	-3.1678635e-05	671453.44	191104.61	-0.00014934054	191106.83	671452.7	-0.00023914954
0	0.61596096	0.6159588	-3.506979e-10	0.057275623	0.057275623	0	70318.195	70317.95	-4.231632e-05	671540.9	190802.12	-0.0003173848	190804.38	671540.25	-0.00020156021
0	0.61580706	0.615805	1.4620617e-10	0.057134192	0.057134192	0	70300.64	70300.39	1.3196538e-05	671628.5	190499.28	4.6662655e-05	190501.5	671627.6	0.000115172734
0	0.6156529	0.61565083	-1.0407465e-10	0.05699281	0.05699281	0	70283.04	70282.8	-7.94601e-06	671715.94	190195.98	-7.5776275e-05	190198.19	671715.2	-2.1669393e-05
0	0.6154984	0.6154962	1.3974985e-10	0.056851387	0.056851387	0	70265.39	70265.15	1.898449e-05	671803.4	189892.1	5.4426e-05	189894.3	671802.7	0.00017838978
0	0.61534345	0.6153413	-8.2723156e-10	0.056709964	0.056709964	0	70247.7	70247.45	-8.749564e-05	671890.94	189587.67	-0.00069686887	189589.9	671890.2	-0.0003761315
0	0.6151882	0.61518604	2.284522e-10	0.05656858	0.05656858	0	70229.98	70229.734	2.5447342e-05	671978.4	189282.83	1.6002428e-05	189285.06	671977.7	0.00029607036
0	0.6150326	0.6150306	-2.3102316e-10	0.056427054	0.056427054	0	70212.23	70211.984	-2.3735058e-05	672065.8	188977.64	-2.185556e-05	188979.89	672065.1	-0.0002692187
0	0.6148767	0.6148746	-2.7827024e-10	0.056285687	0.056285687	0	70194.414	70194.17	-2.781134e-05	672153.3	188671.84	-0.00012763846	188674.05	672152.6	-0.00021342517
0	0.61472034	0.61471826	-5.0130367e-10	0.056144245	0.056144245	0	70176.57	70176.33	-5.8965503e-05	672240.8	188365.4	-0.00033878995	188367.66	672240.1	-0.00038433188
0	0.6145637	0.6145616	-4.0063458e-10	0.056002833	0.056002833	0	70158.69	70158.45	-4.4431003e-05	672328.2	188058.69	-0.00027001405	188060.92	672327.56	-0.00027486435
0	0.61440676	0.6144046	-5.364341e-10	0.055861466	0.055861466	0	70140.766	70140.52	-5.6639918e-05	672415.75	187751.45	-0.00036377707	187753.7	672414.94	-0.00033082505
0	0.61424935	0.61424726	-3.9035214e-10	0.055720024	0.055720024	0	70122.8	70122.555	-4.6448597e-05	672503.1	187443.7	-0.0002589066	187445.95	672502.5	-0.0003107145
0	0.6140917	0.61408955	-2.941898e-10	0.055578656	0.055578656	0	70104.8	70104.56	-3.0003488e-05	672590.6	187135.55	-0.000289246	187137.8	672589.9	-7.870097e-05
0	0.6139336	0.6139314	-5.6283167e-10	0.055437136	0.055437136	0	70086.76	70086.516	-6.695571e-05	672678.06	186826.83	-0.0003780679	186829.06	672677.25	-0.00044304167
0	0.61377513	0.61377305	-2.2378226e-10	0.055295747	0.055295747	0	70068.664	70068.43	-2.44895e-05	672765.5	186517.48	-0.00023464614	186519.73	672764.75	-6.568018e-05
0	0.6136164	0.61361426	-8.339549e-11	0.05515433	0.05515433	0	70050.54	70050.3	-6.7031942e-06	672852.9	186207.81	-2.352549e-05	186210.03	672852.2	-5.8678954e-05
0	0.61345714	0.613455	-4.0975975e-10	0.0550129	0.0550129	0	70032.36	70032.125	-4.2054897e-05	672940.3	185897.42	-0.00028494303	185899.69	672939.6	-0.00023079604
0	0.6132977	0.6132955	-4.0831355e-10	0.05487152	0.05487152	0	70014.16	70013.92	-4.5536075e-05	673027.7	185586.78	-0.00019176777	185589.02	673027	-0.00036666266
0	0.61313766	0.6131356	2.6044225e-10	0.054730106	0.054730106	0	69995.89	69995.664	2.8243394e-05	673115.06	185275.44	0.00015686928	185277.7	673114.44	0.0001894928
0	0.6129776	0.61297566	-1.4067623e-11	0.054588623	0.054588623	0	69977.625	69977.38	-1.6573351e-06	673202.44	184964.12	-0.00010522968	184966.38	673201.7	8.4905e-05
0	0.61281705	0.61281496	-6.9467626e-11	0.054447193	0.054447193	0	69959.29	69959.05	-8.516002e-06	673289.75	184651.84	-7.7550714e-05	184654.11	673289.06	-2.6885049e-05
0	0.6126561	0.6126539	6.323745e-11	0.054305814	0.054305814	0	69940.914	69940.67	5.3388185e-06	673377.1	184339.08	8.743552e-05	184341.34	673376.44	-2.1963062e-05
0	0.61249477	0.6124926	-2.403367e-11	0.054164402	0.054164402	0	69922.5	69922.25	-7.5181015e-07	673464.5	184025.88	9.999532e-05	184028.17	673463.75	-0.00010921513
0	0.61233306	0.6123309	6.013489e-12	0.054022975	0.054022975	0	69904.03	69903.79	-7.435621e-07	673551.9	183712.11	-7.6341275e-05	183714.39	673551.2	6.7222616e-05
0	0.612171	0.6121688	-4.3423765e-10	0.053881593	0.053881593	0	69885.55	69885.3	-5.3445478e-05	673639.2	183398	-0.00028500808	183400.28	673638.5	-0.0003704191
0	0.6120086	0.6120065	-7.597558e-10	0.053740077	0.053740077	0	69867	69866.75	-8.442796e-05	673726.44	183083.31	-0.0007353791	183085.56	673725.75	-0.0003000008
0	0.61184573	0.6118436	-2.176421e-10	0.053598672	0.053598672	0	69848.41	69848.164	-2.349147e-05	673813.7	182768.06	-0.0002175408	182770.36	673813.06	-7.05462e-05
0	0.61168265	0.6116805	-2.2203944e-10	0.053457268	0.053457268	0	69829.78	69829.55	-2.755021e-05	673900.94	182452.48	-0.00027417063	182454.78	673900.25	-6.36906e-05
0	0.6115191	0.6115169	7.360582e-11	0.05331586	0.05331586	0	69811.11	69810.875	1.1063661e-05	673988.3	182136.19	6.882034e-05	182138.48	673987.5	6.685856e-05
0	0.6113551	0.61135304	-3.8822184e-10	0.053174455	0.053174455	0	69792.4	69792.16	-4.1115552e-05	674075.56	181819.38	-0.00035267376	181821.64	674074.8	-0.0001515457
0	0.6111909	0.6111887	3.538285e-11	0.053033046	0.053033046	0	69773.65	69773.41	2.3576722e-06	674162.75	181502.2	-4.791935e-05	181504.5	674162.06	7.68326e-05
0	0.6110262	0.61102414	-5.9720096e-10	0.05289156	0.05289156	0	69754.84	69754.6	-6.548016e-05	674249.9	181184.45	-0.00047131313	181186.73	674249.25	-0.00033170107
0	0.6108612	0.61085904	2.7311254e-11	0.05275013	0.05275013	0	69736	69735.766	3.7525256e-06	674337.1	180866.19	-1.2066335e-05	180868.47	674336.44	5.8085334e-05
0	0.6106957	0.6106936	-1.8692261e-11	0.052608736	0.052608736	0	69717.125	69716.88	-2.7667702e-06	674424.44	180547.4	2.5760057e-05	180549.69	674423.6	-5.969027e-05
0	0.61052996	0.6105278	-3.7892128e-10	0.05246734	0.05246734	0	69698.195	69697.95	-4.624181e-05	674511.56	180228.14	-0.00037253686	180230.42	674510.9	-0.00019454838
0	0.6103638	0.61036164	-1.761e-10	0.05232591	0.05232591	0	69679.23	69678.984	-2.0461002e-05	674598.7	179908.3	-6.8355104e-05	179910.58	674598	-0.00018256785
0	0.6101972	0.61019504	5.5730854e-11	0.05218453	0.05218453	0	69660.2	69659.96	7.6782835e-06	674685.9	179587.9	6.4040374e-05	179590.23	674685.2	3.0122046e-05
0	0.6100303	0.61002815	-6.287585e-10	0.052043013	0.052043013	0	69641.164	69640.9	-7.75625e-05	674772.94	179267.14	-0.00043407956	179269.44	674772.2	-0.00051710603
0	0.60986286	0.6098606	-1.5768772e-10	0.0519016	0.0519016	0	69622.03	69621.79	-1.6375387e-05	674860.25	178945.47	1.577346e-05	178947.8	674859.4	-0.00021659257
0	0.6096953	0.60969317	-3.040106e-10	0.051760204	0.051760204	0	69602.91	69602.664	-3.788471e-05	674947.1	178623.9	-0.00037175338	178626.22	674946.44	-9.284476e-05
0	0.609527	0.6095248	-4.4477572e-10	0.051618807	0.051618807	0	69583.695	69583.445	-5.357596e-05	675034.4	178301.1	-0.00042792052	178303.4	675033.7	-0.00022910684
0	0.6093587	0.6093565	3.5910202e-11	0.051477414	0.051477414	0	69564.48	69564.234	7.495843e-06	675121.4	177978.47	0.0001301951	177980.78	675120.7	-3.827004e-05
0	0.60918987	0.60918766	-5.3483395e-10	0.051335998	0.051335998	0	69545.2	69544.96	-6.3808446e-05	675208.25	177655.1	-0.00051468774	177657.4	675207.7	-0.00026782544
0	0.60902053	0.6090184	-4.6052182e-10	0.05119448	0.05119448	0	69525.875	69525.64	-4.8507492e-05	675295.4	177331.06	-0.0003289671	177333.36	675294.7	-0.00026590325
0	0.6088509	0.6088488	1.4073287e-10	0.051053096	0.051053096	0	69506.516	69506.27	1.6253325e-05	675382.25	177006.66	9.838635e-05	177008.98	675381.6	0.00010093586
0	0.60868096	0.6086788	-2.383154e-10	0.050911672	0.050911672	0	69487.11	69486.87	-2.7837232e-05	675469.25	176681.77	-0.000207901	176684.1	675468.56	-0.00013348013
0	0.60851055	0.60850835	-2.6059666e-10	0.050770275	0.050770275	0	69467.66	69467.414	-3.085721e-05	675556.25	176356.17	-0.0002078082	176358.5	675555.56	-0.00017060834
0	0.6083396	0.6083374	-1.646975e-10	0.050628882	0.050628882	0	69448.14	69447.89	-1.8277555e-05	675643.2	176029.86	-9.356116e-05	176032.19	675642.5	-0.00013058513
0	0.6081685	0.60816634	2.3771182e-10	0.050487466	0.050487466	0	69428.6	69428.36	2.9575243e-05	675730	175703.45	0.0002693733	175705.8	675729.4	9.332188e-05
0	0.6079969	0.60799474	-2.970019e-10	0.05034595	0.05034595	0	69409.016	69408.766	-3.4797926e-05	675817	175376.36	-0.0002931615	175378.69	675816.3	-0.00013358193
0	0.60782486	0.60782284	-1.389192e-10	0.050204564	0.050204564	0	69389.39	69389.14	-1.5223539e-05	675903.75	175048.81	-0.00021153853	175051.16	675903.06	2.4845072e-05
0	0.60765254	0.6076504	-4.1696394e-10	0.05006314	0.05006314	0	69369.7	69369.47	-4.4218497e-05	675990.6	174720.69	-0.0003922791	174723.03	675989.94	-0.00014999327
0	0.60747975	0.60747755	-2.1092045e-10	0.049921747	0.049921747	0	69349.98	69349.734	-1.8077557e-05	676077.44	174391.84	-0.00012764259	174394.17	676076.8	-9.405103e-05
0	0.60730636	0.6073043	-2.9294844e-10	0.04978035	0.04978035	0	69330.2	69329.95	-3.3959757e-05	676164.2	174062.42	5.6593717e-06	174064.77	676163.6	-0.00042212394
0	0.607133	0.6071307	1.6167616e-10	0.049638934	0.049638934	0	69310.39	69310.15	1.6286027e-05	676251	173732.81	9.164896e-05	173735.12	676250.3	0.00010807429
0	0.60695887	0.6069568	-3.967514e-10	0.049497418	0.049497418	0	69290.52	69290.29	-4.7668444e-05	676337.7	173402.5	-0.00029396612	173404.81	676337.06	-0.00029061455
0	0.60678464	0.6067825	-3.5767105e-11	0.04935603	0.04935603	0	69270.63	69270.38	-7.1124405e-06	676424.25	173071.8	-0.00017858637	173074.12	676423.7	9.1363145e-05
0	0.60660976	0.6066077	5.4731976e-11	0.049214605	0.049214605	0	69250.664	69250.42	8.740882e-06	676511.1	172740.22	0.00019849531	172742.6	676510.4	-9.130175e-05
0	0.6064346	0.60643244	-3.3004174e-10	0.049073216	0.049073216	0	69230.67	69230.42	-3.1135605e-05	676597.75	172408.38	-0.00026682724	172410.72	676597.06	-0.000115003415
0	0.60625887	0.6062567	-3.4777048e-10	0.04893182	0.04893182	0	69210.61	69210.36	-3.70192e-05	676684.3	172075.7	-0.00034371237	172078.06	676683.75	-0.00011027159
0	0.606083	0.60608083	6.139729e-11	0.048790406	0.048790406	0	69190.52	69190.28	9.1619495e-06	676770.94	171742.89	2.8562046e-05	171745.25	676770.3	8.3795276e-05
0	0.60590655	0.60590434	-1.9246188e-10	0.048648886	0.048648886	0	69170.375	69170.13	-2.4847508e-05	676857.56	171409.22	-0.00011573416	171411.58	676856.9	-0.0001889826
0	0.6057295	0.6057275	-4.912561e-10	0.0485075	0.0485075	0	69150.19	69149.94	-5.066778e-05	676944.2	171074.95	-0.00049423246	171077.28	676943.5	-0.0001271305
0	0.60555243	0.6055503	-3.3418265e-10	0.048366077	0.048366077	0	69129.95	69129.71	-3.872745e-05	677030.56	170740.47	-0.00036700536	170742.83	677029.9	-0.00010792766
0	0.6053748	0.60537267	-1.5711493e-10	0.048224684	0.048224684	0	69109.69	69109.44	-1.8295366e-05	677117.06	170405.33	-0.00014500589	170407.69	677116.5	-7.935884e-05
0	0.6051967	0.60519457	-9.8034e-11	0.048083287	0.048083287	0	69089.35	69089.11	-5.6485646e-06	677203.56	170069.53	-0.0001472062	170071.9	677202.75	7.7935176e-05
0	0.6050183	0.6050161	-1.2155316e-10	0.04794187	0.04794187	0	69068.98	69068.734	-1.9269879e-05	677289.94	169733.31	-0.00013058913	169735.67	677289.25	-0.0001057265
0	0.60483944	0.6048373	1.1787786e-10	0.047800355	0.047800355	0	69048.56	69048.33	1.384255e-05	677376.3	169396.58	0.00013137492	169398.94	677375.6	3.8382823e-05
0	0.6046601	0.60465795	-2.8921114e-11	0.047658972	0.047658972	0	69028.086	69027.836	-9.6726235e-06	677462.6	169059.06	-0.00014383864	169061.44	677462	2.521869e-05
0	0.6044803	0.6044782	-3.8563938e-10	0.047517546	0.047517546	0	69007.57	69007.32	-4.6197092e-05	677549	168721.05	-0.00027031184	168723.44	677548.3	-0.00029622496
0	0.60430014	0.60429806	-3.174085e-10	0.047376156	0.047376156	0	68987.01	68986.76	-3.6537695e-05	677635.3	168382.62	-0.00018246502	168385	677634.6	-0.000265614
0	0.6041196	0.60411745	-2.1626423e-10	0.047234755	0.047234755	0	68966.39	68966.14	-2.656423e-05	677721.5	168043.53	-0.0001495841	168045.9	677720.94	-0.00017618563
0	0.60393864	0.6039365	1.5744803e-10	0.04709334	0.04709334	0	68945.734	68945.484	2.4761946e-05	677807.75	167703.98	0.0003383633	167706.36	677807.06	-3.469583e-05
0	0.60375714	0.60375494	-4.1433448e-10	0.046951838	0.046951838	0	68925.01	68924.766	-4.6232766e-05	677894	167363.64	-0.00019468337	167366	677893.3	-0.0003722909
0	0.6035754	0.6035732	-2.6672838e-11	0.04681044	0.04681044	0	68904.26	68904.016	-5.0604344e-06	677980.06	167023.1	6.5385225e-06	167025.47	677979.44	-6.859702e-05
0	0.60339314	0.60339105	-1.5149378e-10	0.046669025	0.046669025	0	68883.45	68883.21	-2.0052912e-05	678066.1	166681.89	-7.273166e-05	166684.28	678065.5	-0.00017318668
0	0.6032104	0.60320824	-7.886185e-10	0.046527628	0.046527628	0	68862.59	68862.36	-8.966906e-05	678152.2	166339.95	-0.0005965447	166342.3	678151.56	-0.0005031095
0	0.6030274	0.60302514	-4.165159e-10	0.046386234	0.046386234	0	68841.7	68841.45	-4.5872177e-05	678238.25	165997.58	-0.00029002235	165999.97	678237.7	-0.00027252984
0	0.6028438	0.6028417	2.2278535e-11	0.046244808	0.046244808	0	68820.75	68820.49	4.198402e-06	678324.25	165654.62	0.000101833	165657.03	678323.7	-5.034601e-05
0	0.6026598	0.6026576	-2.618928e-10	0.04610341	0.04610341	0	68799.734	68799.484	-2.8201892e-05	678410.25	165311.06	-0.00013728513	165313.45	678409.56	-0.000208568
0	0.60247546	0.60247326	-8.312376e-10	0.04596191	0.04596191	0	68778.69	68778.445	-9.791432e-05	678496.2	164967.05	-0.0006303456	164969.42	678495.56	-0.000570424
0	0.6022905	0.6022884	3.9103644e-11	0.045820493	0.045820493	0	68757.58	68757.336	3.409828e-06	678582.1	164622.25	0.00014774728	164624.66	678581.5	-0.00010593094
0	0.6021054	0.6021033	6.822572e-11	0.045679096	0.045679096	0	68736.445	68736.195	9.704265e-06	678667.9	164277.23	4.2965312e-05	164279.62	678667.25	7.604268e-05
0	0.6019197	0.6019176	-5.075795e-10	0.045537703	0.045537703	0	68715.25	68715.01	-5.41989e-05	678753.6	163931.5	-0.00045303098	163933.89	678753.1	-0.00021163575
0	0.60173357	0.60173136	-5.3314414e-10	0.045396276	0.045396276	0	68693.99	68693.75	-6.1301325e-05	678839.5	163585.03	-0.00038999625	163587.44	678838.9	-0.00036177092
0	0.60154694	0.6015448	2.5745833e-10	0.04525488	0.04525488	0	68672.695	68672.45	3.029881e-05	678925.25	163238.1	0.0001357524	163240.5	678924.6	0.00023581625
0	0.6013599	0.60135764	-1.3988791e-11	0.045113377	0.045113377	0	68651.336	68651.09	-6.223051e-06	679011	162890.48	2.6328835e-05	162892.88	679010.44	-0.00010264505
0	0.6011725	0.60117036	-1.0835322e-10	0.044971965	0.044971965	0	68629.95	68629.7	-8.522533e-06	679096.56	162542.58	-4.993827e-05	162545	679095.94	-5.457758e-05
0	0.6009846	0.60098237	-1.9051871e-10	0.044830564	0.044830564	0	68608.484	68608.234	-2.2967997e-05	679182.2	162193.78	-0.0002582116	162196.17	679181.5	-2.345582e-05