# t (s)	mx ()	my ()	mz ()	B_extx (T)	B_exty (T)	B_extz (T)	m_fullx (A/m)	m_fully (A/m)	m_fullz (A/m)	m_full.region1x (A/m)	m_full.region1y (A/m)	m_full.region1z (A/m)	m_full.region2x (A/m)	m_full.region2y (A/m)	m_full.region2z (A/m)
0	0.63363504	0.63363206	-7.228673e-10	0.07071035	0.07071035	0	24087.895	24087.783	-2.794986e-05	659991.1	227094.98	-0.0007503696	227097.98	659990	-0.00023427248
0	0.6333159	0.63331324	-1.5046062e-10	0.07035735	0.07035735	0	24075.762	24075.66	-5.7847783e-06	660226.94	226412.53	-9.265571e-05	226415.28	660225.94	-0.00011122043
0	0.6329919	0.6329892	-3.8741485e-10	0.07000352	0.07000352	0	24063.445	24063.344	-1.4809214e-05	660466.4	225719.52	-0.00030489932	225722.27	660465.4	-0.00021970522
0	0.63266635	0.6326637	-2.2391274e-10	0.06964972	0.06964972	0	24051.072	24050.973	-7.4730397e-06	660705.44	225024.69	-0.00018776176	225027.45	660704.56	-0.000101616904
0	0.63233805	0.6323354	-3.8617046e-10	0.06929681	0.06929681	0	24038.592	24038.488	-1.4153546e-05	660945.44	224325.11	-0.00025371087	224327.84	660944.5	-0.00020770474
0	0.632008	0.6320054	-2.2943669e-10	0.068943016	0.068943016	0	24026.045	24025.945	-8.503986e-06	661185.6	223622.88	-0.00014037693	223625.64	661184.6	-0.00015853859
0	0.63167614	0.6316735	-1.3034293e-10	0.068589196	0.068589196	0	24013.428	24013.328	-5.5090136e-06	661425.9	222918.05	-0.00016538228	222920.81	661424.94	-2.7380076e-05
0	0.6313424	0.6313397	-1.7944299e-10	0.06823614	0.06823614	0	24000.738	24000.643	-6.0391494e-06	661666.1	222210.48	-9.1243244e-05	222213.27	661665.2	-0.00015501733
0	0.6310067	0.63100404	-1.9635932e-10	0.06788247	0.06788247	0	23987.979	23987.877	-6.547988e-06	661906.6	221500.05	-0.00014491443	221502.86	661905.6	-6.5809436e-05
0	0.6306685	0.63066584	-1.6190192e-10	0.06752808	0.06752808	0	23975.123	23975.021	-6.202951e-06	662147.56	220785.66	-7.2050585e-05	220788.44	662146.56	-0.00014901099
0	0.63032776	0.630325	-2.5841274e-10	0.06717558	0.06717558	0	23962.166	23962.066	-9.719424e-06	662389	220067.06	-0.00016590074	220069.83	662388.2	-0.0001810777
0	0.6299872	0.6299845	-3.2604294e-10	0.06682197	0.06682197	0	23949.219	23949.12	-1.099536e-05	662629.5	219349.75	-0.0002174263	219352.56	662628.5	-0.00023535857
0	0.62964225	0.6296396	-1.2159956e-10	0.06646759	0.06646759	0	23936.111	23936.006	-3.7064347e-06	662871.4	218625.02	-8.936446e-05	218627.86	662870.4	-2.823981e-05
0	0.6292974	0.6292947	-3.0569222e-10	0.06611506	0.06611506	0	23922.998	23922.893	-1.2722721e-05	663112.25	217901.23	-0.00023782163	217904.03	663111.3	-0.0001906819
0	0.62894803	0.62894535	-2.0152985e-10	0.065761305	0.065761305	0	23909.715	23909.611	-8.199245e-06	663354.94	217169.4	-0.00018451262	217172.23	663353.94	-0.00012671768
0	0.6285989	0.6285963	-2.4276084e-10	0.065407045	0.065407045	0	23896.447	23896.342	-9.33857e-06	663595.9	216439.84	-0.0001746	216442.66	663594.9	-0.00015642766
0	0.6282467	0.62824404	-2.2664733e-10	0.06505334	0.06505334	0	23883.059	23882.955	-8.397626e-06	663837.7	215704.94	-0.00020469009	215707.75	663836.8	-0.00010189398
0	0.62789255	0.62788993	-2.8670302e-10	0.064700775	0.064700775	0	23869.594	23869.492	-1.0665512e-05	664079.75	214967.1	-0.00025599726	214969.95	664078.75	-0.00015290105
0	0.6275346	0.6275319	-2.0363528e-10	0.064346395	0.064346395	0	23855.982	23855.883	-7.4771388e-06	664322.8	214222.75	-0.00014841974	214225.62	664321.9	-0.00010085661
0	0.6271773	0.62717456	-1.4926475e-10	0.06399281	0.06399281	0	23842.402	23842.297	-5.2252976e-06	664564.44	213480.88	-0.00016398237	213483.73	664563.6	-3.872575e-05
0	0.6268166	0.6268139	-3.0112124e-10	0.06363959	0.06363959	0	23828.69	23828.584	-1.2379542e-05	664807.06	212733.31	-0.0002287991	212736.17	664806.06	-0.0002178903
0	0.6264536	0.6264508	-3.6245318e-10	0.06328585	0.06328585	0	23814.889	23814.785	-1.3860319e-05	665049.75	211982.34	-0.00026771644	211985.23	665048.8	-0.00022048347
0	0.6260885	0.62608576	-2.2353903e-10	0.06293233	0.06293233	0	23801.012	23800.906	-8.8253755e-06	665292.4	211228.64	-0.0001994617	211231.52	665291.5	-0.00011220983
0	0.6257205	0.62571776	-3.6334613e-10	0.06257907	0.06257907	0	23787.02	23786.916	-1.4502974e-05	665535.75	210470.12	-0.00028948125	210473.02	665534.8	-0.00022573234
0	0.6253508	0.62534815	-3.3097342e-10	0.062225346	0.062225346	0	23772.967	23772.861	-1.3036969e-05	665778.9	209709.39	-0.0002462665	209712.31	665777.9	-0.00023588167
0	0.62497944	0.6249767	-4.0082085e-10	0.06187167	0.06187167	0	23758.85	23758.744	-1.5270307e-05	666021.75	208946.6	-0.00030424632	208949.52	666020.75	-0.00019698129
0	0.624605	0.6246022	-3.1165096e-10	0.061518516	0.061518516	0	23744.617	23744.512	-1.1781126e-05	666265.06	208178.97	-0.00024029081	208181.89	666264.2	-0.00017654675
0	0.6242285	0.6242258	-2.4719088e-10	0.061164852	0.061164852	0	23730.297	23730.195	-9.304189e-06	666508.56	207408.36	-0.00020036979	207411.3	666507.7	-0.00014302257
0	0.62384987	0.6238471	-1.9946365e-10	0.060811155	0.060811155	0	23715.91	23715.805	-8.829933e-06	666751.9	206635.1	-0.00015173432	206638.02	666750.94	-0.00012343752
0	0.62346846	0.6234658	-3.0596486e-10	0.06045782	0.06045782	0	23701.41	23701.305	-1.1926708e-05	666995.6	205857.31	-0.00024671922	205860.27	666994.8	-0.00017819676
0	0.62308556	0.62308276	-2.8005914e-10	0.060104296	0.060104296	0	23686.85	23686.748	-1.2374876e-05	667238.94	205077.8	-0.00018026252	205080.75	667238.06	-0.00023881492
0	0.62269956	0.6226968	-2.8818734e-10	0.059749953	0.059749953	0	23672.178	23672.072	-1.0406097e-05	667482.9	204293.58	-0.0002201212	204296.53	667482	-0.00016917886
0	0.6223115	0.6223088	-2.1055206e-10	0.059397247	0.059397247	0	23657.426	23657.32	-7.5090875e-06	667726.7	203506.45	-0.00019007709	203509.42	667725.75	-6.696547e-05
0	0.6219208	0.621918	-3.5393494e-10	0.059043795	0.059043795	0	23642.572	23642.467	-1.4061516e-05	667970.56	202715.53	-0.00026233963	202718.5	667969.75	-0.00026052387
0	0.62152827	0.62152547	-3.348497e-10	0.058689456	0.058689456	0	23627.652	23627.547	-1.2652645e-05	668214.3	201922.31	-0.00029636754	201925.3	668213.4	-0.000143213
0	0.6211327	0.62112993	-3.1107894e-10	0.05833672	0.05833672	0	23612.611	23612.508	-1.21764015e-05	668458.4	201124.44	-0.00024311019	201127.44	668457.5	-0.00021627914
0	0.620735	0.6207321	-2.0593591e-10	0.057983108	0.057983108	0	23597.492	23597.389	-8.968895e-06	668702.5	200323.48	-0.00017216858	200326.47	668701.56	-0.00012766641
0	0.62033486	0.6203321	-2.2854728e-10	0.05762891	0.05762891	0	23582.283	23582.178	-9.2774635e-06	668946.4	199519.44	-0.00015786217	199522.47	668945.5	-0.00017404642
0	0.61993194	0.6199292	-2.591399e-10	0.05727533	0.05727533	0	23566.967	23566.861	-9.739026e-06	669190.7	198711.02	-0.00010334969	198714.05	669189.8	-0.00025073695
0	0.61952674	0.61952406	-2.4313582e-10	0.05692256	0.05692256	0	23551.564	23551.46	-1.00916695e-05	669434.7	197899.86	-0.00018709098	197902.89	669433.75	-0.00014066877
0	0.619119	0.6191163	-2.0873656e-10	0.056568235	0.056568235	0	23536.066	23535.96	-7.799456e-06	669678.94	197084.83	-0.00019511214	197087.88	669677.94	-6.8211055e-05
0	0.61870855	0.6187057	-2.7279026e-10	0.056214813	0.056214813	0	23520.455	23520.35	-1.0715581e-05	669923.1	196265.77	-0.00020355583	196268.77	669922.3	-0.00018100986
0	0.61829615	0.6182934	-4.2325277e-10	0.055861287	0.055861287	0	23504.777	23504.678	-1.5470696e-05	670167	195444.6	-0.00031954056	195447.61	670166.2	-0.0002463839
0	0.6178808	0.61787814	-1.7369459e-10	0.055507686	0.055507686	0	23488.994	23488.889	-6.2646423e-06	670411.06	194619.06	-0.00018616134	194622.1	670410.4	-1.1447307e-05
0	0.617463	0.61746025	-3.0200636e-10	0.055154335	0.055154335	0	23473.107	23473.002	-1.1617892e-05	670655.3	193789.86	-0.00020921294	193792.89	670654.44	-0.00017800355
0	0.61704206	0.61703926	-2.8940936e-10	0.05480076	0.05480076	0	23457.104	23457	-1.224231e-05	670899.6	192956.22	-0.000253586	192959.27	670898.8	-0.0002009648
0	0.6166196	0.61661667	-1.8814099e-10	0.054447178	0.054447178	0	23441.041	23440.934	-7.2947437e-06	671143.25	192120.98	-0.00010983144	192124.05	671142.44	-0.00012537156
0	0.616193	0.61619014	-1.8543697e-10	0.054093663	0.054093663	0	23424.828	23424.719	-6.123729e-06	671387.9	191279.17	-9.863234e-05	191282.23	671387	-0.00011695501
0	0.615765	0.6157622	-2.6776076e-10	0.053740177	0.053740177	0	23408.559	23408.453	-9.883695e-06	671631.44	190436.5	-0.00027869787	190439.58	671630.6	-8.046234e-05
0	0.6153333	0.6153306	-2.3328917e-10	0.053386666	0.053386666	0	23392.15	23392.045	-7.334384e-06	671875.75	189587.98	-0.00015824138	189591.06	671874.8	-7.475892e-05
0	0.6148992	0.6148964	-2.7108502e-10	0.053033147	0.053033147	0	23375.645	23375.54	-9.745098e-06	672119.75	188736.14	-0.00023905795	188739.2	672118.94	-9.452646e-05
0	0.6144619	0.6144591	-3.487639e-10	0.05267945	0.05267945	0	23359.02	23358.914	-1.4084311e-05	672363.9	187879.67	-0.0003331043	187882.77	672363	-0.000167921
0	0.614022	0.6140193	-2.1329591e-10	0.052326117	0.052326117	0	23342.3	23342.191	-6.5474997e-06	672607.9	187019.88	-8.4934436e-05	187022.97	672607.06	-0.00014658789
0	0.61358094	0.61357814	-2.9664154e-10	0.051971845	0.051971845	0	23325.533	23325.426	-1.1810416e-05	672851.06	186159.14	-0.00022458327	186162.23	672850.3	-0.00020483971
0	0.6131363	0.61313343	-3.5753664e-10	0.051618867	0.051618867	0	23308.625	23308.518	-1.3109621e-05	673094.6	185292.98	-0.00029864826	185296.08	673093.8	-0.00018781915
0	0.6126886	0.6126857	-1.8702248e-10	0.051265612	0.051265612	0	23291.605	23291.498	-6.7786623e-06	673338.1	184422.77	-0.00014736087	184425.86	673337.3	-7.253756e-05
0	0.6122378	0.612235	-3.1357075e-10	0.050911337	0.050911337	0	23274.469	23274.363	-1.210262e-05	673581.6	183548.19	-0.00019586967	183551.31	673580.8	-0.00027415933
0	0.6117847	0.61178184	-2.8414726e-10	0.050558325	0.050558325	0	23257.244	23257.137	-1.0527323e-05	673824.6	182670.75	-0.0002735113	182673.88	673823.94	-0.00014615692
0	0.61132795	0.61132514	-2.3394767e-10	0.05020489	0.05020489	0	23239.88	23239.775	-9.808106e-06	674068	181788.02	-0.00011611299	181791.14	674067.25	-0.00020701732
0	0.6108687	0.61086595	-3.785317e-10	0.049850788	0.049850788	0	23222.422	23222.318	-1.4737754e-05	674310.94	180902.03	-0.00029088982	180905.16	674310.25	-0.00021509043
0	0.6104066	0.6104038	-2.34632e-10	0.04949739	0.04949739	0	23204.857	23204.752	-9.718181e-06	674553.9	180012.33	-0.00022703034	180015.45	674553.1	-0.00015773435
0	0.60994154	0.6099388	-2.0732488e-10	0.049144328	0.049144328	0	23187.178	23187.07	-8.096974e-06	674796.7	179118.36	-0.00023371457	179121.5	674795.9	-5.1524326e-05
0	0.6094734	0.60947067	-2.21854e-10	0.048790082	0.048790082	0	23169.38	23169.275	-8.91724e-06	675039.2	178220.5	-0.00017910753	178223.64	675038.4	-0.00010794924
0	0.6090024	0.60899967	-2.2527023e-10	0.04843687	0.04843687	0	23151.477	23151.367	-8.416027e-06	675281.5	177318.69	-0.0002058495	177321.81	675280.8	-9.955007e-05
0	0.6085283	0.60852563	-1.860776e-10	0.04808294	0.04808294	0	23133.453	23133.35	-6.749633e-06	675523.6	176412.95	-0.00016929736	176416.11	675522.9	-6.2306564e-05
0	0.6080511	0.6080483	-3.4583145e-10	0.04772953	0.04772953	0	23115.309	23115.205	-1.2903898e-05	675765.75	175502.58	-0.00022229929	175505.72	675765.06	-0.00021544713
0	0.60757095	0.6075682	-3.765535e-10	0.047376405	0.047376405	0	23097.057	23096.95	-1.3942221e-05	676007.5	174588.72	-0.00023944677	174591.84	676006.8	-0.00029271952
0	0.6070879	0.6070852	-3.638608e-10	0.047022395	0.047022395	0	23078.693	23078.59	-1.44166415e-05	676249.06	173670.89	-0.00032610574	173674.03	676248.3	-0.00017759303
0	0.6066017	0.6065989	-4.8278914e-10	0.04666901	0.04666901	0	23060.21	23060.105	-1.8077779e-05	676490.44	172748.84	-0.00039774756	172752	676489.7	-0.0002217582
0	0.6061118	0.6061091	-2.8566452e-10	0.046315704	0.046315704	0	23041.588	23041.482	-1.22553865e-05	676731.7	171821.73	-0.00019698961	171824.89	676730.94	-0.0002251081
0	0.6056191	0.60561633	-3.3039294e-10	0.045961797	0.045961797	0	23022.855	23022.752	-1.1549039e-05	676972.56	170890.97	-0.0002960593	170894.12	676971.94	-0.00010190863
0	0.6051237	0.6051209	-1.049512e-10	0.045608494	0.045608494	0	23004.025	23003.92	-4.338006e-06	677212.94	169957.03	-0.000104715094	169960.2	677212.3	-3.5288616e-05
0	0.60462356	0.60462075	-3.8620027e-10	0.045255188	0.045255188	0	22985.012	22984.906	-1.4291311e-05	677453.9	169015.94	-0.0003938971	169019.11	677453.2	-0.00011521124
0	0.60412216	0.6041194	-3.5129527e-10	0.04490103	0.04490103	0	22965.95	22965.848	-1.3387336e-05	677693.44	168074.44	-0.00028667506	168077.61	677692.75	-0.00017870255
0	0.60361654	0.60361385	-2.490812e-10	0.044547945	0.044547945	0	22946.729	22946.627	-9.385786e-06	677933.3	167126.67	-0.00016791222	167129.84	677932.6	-0.00013370419
0	0.60310775	0.60310507	-3.8683226e-10	0.04419374	0.04419374	0	22927.389	22927.281	-1.43017105e-05	678172.7	166174.94	-0.00031201364	166178.11	678172.06	-0.00019977696
0	0.6025954	0.60259265	-3.314023e-10	0.043840446	0.043840446	0	22907.91	22907.805	-1.2441073e-05	678412.06	165218.33	-0.0002786981	165221.5	678411.4	-0.00017880126
0	0.60208005	0.6020773	-2.5772226e-10	0.043487187	0.043487187	0	22888.32	22888.215	-1.0050579e-05	678650.75	164258.19	-0.00021629043	164261.36	678650.1	-0.00014669778
0	0.60156155	0.6015587	-1.2570366e-10	0.043133244	0.043133244	0	22868.605	22868.504	-5.298138e-06	678889.06	163293.83	-0.00015426886	163297.03	678888.44	-5.9823296e-06
0	0.6010391	0.6010364	-4.0082634e-10	0.042779926	0.042779926	0	22848.748	22848.645	-1.5092162e-05	679127.44	162324.17	-0.00031102082	162327.38	679126.75	-0.0002373993
0	0.60051346	0.6005107	-2.3783547e-10	0.042426657	0.042426657	0	22828.762	22828.66	-8.747149e-06	679365.25	161350.4	-0.00019420285	161353.61	679364.56	-0.00010392497
0	0.59998417	0.5999815	-2.3690747e-10	0.04207268	0.04207268	0	22808.643	22808.541	-9.21626e-06	679602.7	160372	-0.00020544852	160375.17	679602.1	-8.352739e-05
0	0.59945154	0.5994488	-3.69071e-10	0.041719414	0.041719414	0	22788.395	22788.291	-1.411966e-05	679839.75	159389.17	-0.0003304184	159392.34	679839.1	-0.0001737083
0	0.5989155	0.59891284	-8.793979e-11	0.04136609	0.04136609	0	22768.018	22767.914	-4.6859036e-06	680076.25	158402.28	-0.00010577137	158405.45	680075.6	-3.421614e-05
0	0.59837615	0.5983735	-4.49071e-10	0.041011933	0.041011933	0	22747.516	22747.414	-1.6660748e-05	680312.4	157411.08	-0.00036133025	157414.27	680311.8	-0.00024584675
0	0.59783286	0.5978302	-1.9105807e-10	0.040658846	0.040658846	0	22726.861	22726.758	-7.5687285e-06	680548.25	156414.61	-0.00022052282	156417.8	680547.7	-3.405213e-05
0	0.597286	0.5972833	-3.7449657e-10	0.04030471	0.04030471	0	22706.07	22705.969	-1.3784312e-05	680783.75	155413.45	-0.0002961239	155416.66	680783.1	-0.0002358892
0	0.59673566	0.596733	-3.0882905e-10	0.03995136	0.03995136	0	22685.15	22685.049	-1.2382909e-05	681018.5	154408.23	-0.00025259936	154411.4	681017.94	-0.0001895272
0	0.59618145	0.59617877	-2.6150415e-10	0.039598063	0.039598063	0	22664.08	22663.979	-9.023968e-06	681253	153397.8	-0.0002506462	153400.98	681252.5	-2.001649e-05
0	0.5956239	0.5956213	-3.1454417e-10	0.039244205	0.039244205	0	22642.883	22642.785	-1.1976759e-05	681486.9	152383.42	-0.00031518287	152386.6	681486.3	-0.00013693477
0	0.59506243	0.5950598	-4.1435744e-10	0.038890842	0.038890842	0	22621.543	22621.441	-1.5468606e-05	681720.25	151364.02	-0.0003937545	151367.2	681719.7	-0.00015297355
0	0.5944974	0.59449464	-1.0127496e-10	0.038537536	0.038537536	0	22600.06	22599.96	-4.632943e-06	681953.2	150339.98	-0.00020873315	150343.14	681952.6	6.372155e-05
0	0.5939284	0.5939258	-2.0941551e-10	0.038183637	0.038183637	0	22578.43	22578.33	-7.4658237e-06	682185.6	149310.89	-0.0002473422	149314.08	682185.1	-7.565905e-05
0	0.5933556	0.593353	-1.8077399e-10	0.03783033	0.03783033	0	22556.656	22556.555	-6.7231776e-06	682417.5	148277.27	-0.00014443339	148280.44	682417	-8.119765e-05
0	0.5927795	0.59277695	-2.5192723e-10	0.03747694	0.03747694	0	22534.758	22534.656	-1.089179e-05	682648.5	147239.67	-0.00022370946	147242.84	682648	-0.00013266734
0	0.59219867	0.59219605	-3.0685246e-10	0.03712286	0.03712286	0	22512.672	22512.574	-1.3080414e-05	682879.5	146195.47	-0.00021129417	146198.64	682878.94	-0.0002309057
0	0.59161466	0.59161204	-2.3430796e-10	0.036769744	0.036769744	0	22490.473	22490.375	-8.346516e-06	683109.5	145147.88	-0.0001987683	145151.05	683109	-8.637059e-05
0	0.5910265	0.591024	-2.1914752e-10	0.036415678	0.036415678	0	22468.111	22468.014	-8.607264e-06	683339.06	144094.94	-0.00023430327	144098.11	683338.5	-0.00010515074
0	0.59043425	0.59043163	-2.9226654e-10	0.036062278	0.036062278	0	22445.598	22445.498	-1.1647675e-05	683567.9	143036.86	-0.00023819625	143040.03	683567.44	-0.00015868188
0	0.5898361	0.5898336	-2.1782787e-10	0.035708938	0.035708938	0	22422.863	22422.764	-8.590891e-06	683796.9	141970.62	-0.00017034811	141973.8	683796.44	-0.00012241106
0	0.58923763	0.58923507	-2.476936e-10	0.035355177	0.035355177	0	22400.107	22400.012	-9.667796e-06	684023.8	140905.67	-0.00020294666	140908.81	684023.44	-8.674475e-05
0	0.5886339	0.5886313	-3.9465878e-10	0.03500176	0.03500176	0	22377.156	22377.06	-1.4528244e-05	684250.44	139833.75	-0.00028857344	139836.88	684250.1	-0.00022288502
0	0.58802515	0.58802265	-2.3997646e-10	0.034648404	0.034648404	0	22354.02	22353.922	-9.811587e-06	684476.94	138755.22	-0.0002402139	138758.38	684476.56	-9.726811e-05
0	0.5874133	0.58741075	-1.939551e-10	0.034294598	0.034294598	0	22330.756	22330.66	-8.66867e-06	684702.2	137673.27	-0.0002508814	137676.4	684701.8	-5.546762e-05
0	0.5867969	0.5867943	-3.234207e-10	0.033941235	0.033941235	0	22307.322	22307.227	-1.18937205e-05	684927	136585.52	-0.0002716105	136588.64	684926.56	-0.00011544718
0	0.58617556	0.5861731	-3.2793768e-10	0.03358779	0.03358779	0	22283.703	22283.607	-1.2928636e-05	685151.2	135491.5	-0.00029050757	135494.62	685150.75	-0.00015295774
0	0.58555055	0.58554804	-3.3481484e-10	0.033233795	0.033233795	0	22259.941	22259.848	-1.223102e-05	685374.44	134393.17	-0.00023697852	134396.3	685374.1	-0.00018491411
0	0.5849215	0.5849189	-2.2784782e-10	0.032880653	0.032880653	0	22236.027	22235.934	-9.013783e-06	685596.9	133290.06	-0.00017555336	133293.19	685596.5	-0.00013619498
0	0.58428776	0.5842853	-3.8669665e-10	0.03252667	0.03252667	0	22211.94	22211.848	-1.5205484e-05	685818.6	132181.16	-0.0002984201	132184.27	685818.25	-0.0002628007
0	0.58365	0.58364755	-4.1832424e-10	0.032173198	0.032173198	0	22187.691	22187.6	-1.6151822e-05	686039.5	131067.37	-0.00032791143	131070.48	686039.2	-0.00024040653
0	0.58300775	0.58300525	-2.7298067e-10	0.031819794	0.031819794	0	22163.275	22163.184	-1.0030321e-05	686259.56	129948.18	-0.00019328578	129951.28	686259.25	-0.00010803364
0	0.5823613	0.58235884	-1.9952606e-10	0.031466164	0.031466164	0	22138.701	22138.611	-7.032864e-06	686478.5	128824.2	-0.00019174596	128827.3	686478.25	-3.944496e-05
0	0.5817099	0.5817075	-1.7243054e-10	0.031112673	0.031112673	0	22113.941	22113.848	-5.1666216e-06	686696.94	127693.81	-0.00016974207	127696.88	686696.75	-1.8364506e-05
0	0.58105445	0.58105195	-3.8638906e-10	0.030759258	0.030759258	0	22089.02	22088.93	-1.5690897e-05	686914.3	126558.75	-0.00024934535	126561.81	686914.06	-0.00026704976
0	0.580393	0.5803907	-1.3357201e-10	0.030405577	0.030405577	0	22063.877	22063.785	-4.9067316e-06	687131.2	125416.01	-0.00012725718	125419.07	687130.9	-3.571906e-05
0	0.5797296	0.57972723	-2.5753205e-10	0.030052148	0.030052148	0	22038.658	22038.57	-1.0142676e-05	687346.3	124272.13	-0.00024981555	124275.19	687346.06	-9.444577e-05
0	0.57906	0.5790577	-2.782468e-10	0.029698623	0.029698623	0	22013.203	22013.113	-1.1578808e-05	687560.94	123119.99	-0.00033062886	123123.03	687560.75	-6.6258355e-05
0	0.578387	0.5783847	-2.3841926e-10	0.029344728	0.029344728	0	21987.621	21987.531	-9.352132e-06	687774.25	121964.586	-0.00020270557	121967.62	687774.06	-0.000114547525
0	0.5777083	0.57770604	-5.1299726e-10	0.028991554	0.028991554	0	21961.82	21961.729	-1.8710318e-05	687986.8	120801.76	-0.00040676972	120804.79	687986.6	-0.00029000713
0	0.5770243	0.577022	-2.0440073e-10	0.028637664	0.028637664	0	21935.814	21935.725	-7.0566284e-06	688198.6	119632.34	-0.0002337269	119635.375	688198.4	-1.2310306e-05
0	0.5763371	0.5763348	-3.3444447e-10	0.028284118	0.028284118	0	21909.69	21909.602	-1.2550326e-05	688408.94	118459.945	-0.00022232057	118462.96	688408.75	-0.00022425552
0	0.57564425	0.575642	-2.1752576e-10	0.027930643	0.027930643	0	21883.35	21883.266	-8.711924e-06	688618.2	117280.734	-0.00020939072	117283.73	688618.06	-5.923432e-05
0	0.5749462	0.5749441	-1.377856e-10	0.027577167	0.027577167	0	21856.818	21856.732	-4.467667e-06	688826.7	116095.16	-0.00014345582	116098.13	688826.5	-3.489838e-05
0	0.5742444	0.5742421	-3.344216e-10	0.027223589	0.027223589	0	21830.133	21830.047	-1.3613417e-05	689033.75	114905.41	-0.0003269464	114908.375	689033.56	-0.00014006866
0	0.5735368	0.5735346	-1.3692238e-10	0.026870089	0.026870089	0	21803.236	21803.152	-4.8335446e-06	689239.7	113708.91	-0.0001333197	113711.875	689239.6	-3.722555e-05
0	0.5728244	0.5728223	-1.5201741e-10	0.026516574	0.026516574	0	21776.152	21776.07	-5.79143e-06	689444.6	112506.6	-0.00014314854	112509.55	689444.5	-3.3117936e-05
0	0.5721072	0.57210505	-2.5998126e-10	0.026163058	0.026163058	0	21748.889	21748.809	-1.0018917e-05	689648.2	111299.01	-0.0003116478	111301.92	689648.06	-2.6164831e-05
0	0.57138455	0.5713824	-2.6213454e-10	0.025809433	0.025809433	0	21721.416	21721.334	-9.289241e-06	689850.75	110084.72	-0.0002606805	110087.65	689850.6	-2.3483777e-05
0	0.5706572	0.57065505	-2.8201577e-10	0.025455669	0.025455669	0	21693.768	21693.684	-1.07365495e-05	690051.94	108865.29	-0.00023496208	108868.2	690051.7	-0.00014762479
0	0.5699244	0.5699224	-2.5171912e-10	0.025102446	0.025102446	0	21665.908	21665.83	-1.030949e-05	690251.8	107639.52	-0.00031706033	107642.4	690251.6	-4.174388e-05
0	0.5691867	0.5691846	-4.1115303e-10	0.024748694	0.024748694	0	21637.861	21637.781	-1.5496349e-05	690450.4	106408	-0.0002864022	106410.88	690450.3	-0.00028435857
0	0.5684433	0.56844115	-2.3567476e-10	0.024395041	0.024395041	0	21609.604	21609.523	-9.877104e-06	690647.75	105169.94	-0.00019103418	105172.79	690647.7	-0.0001422358
0	0.56769514	0.5676931	-1.7756853e-10	0.02404147	0.02404147	0	21581.162	21581.084	-6.9454964e-06	690843.6	103926.73	-0.00026874535	103929.58	690843.56	2.4679253e-05
0	0.5669413	0.5669393	-2.8322444e-10	0.023688203	0.023688203	0	21552.506	21552.428	-1.0341677e-05	691038.25	102676.82	-0.00025421972	102679.64	691038.2	-0.00011620774
0	0.56618255	0.56618047	-2.422014e-10	0.023334505	0.023334505	0	21523.66	21523.582	-9.877087e-06	691231.3	101421.39	-0.00023769325	101424.195	691231.3	-0.000113023554
0	0.565418	0.565416	-3.6682396e-10	0.022980899	0.022980899	0	21494.596	21494.518	-1.5133095e-05	691423	100159.31	-0.0003528033	100162.09	691423	-0.00018039641
0	0.56464815	0.56464624	-4.767511e-10	0.022627594	0.022627594	0	21465.332	21465.258	-1.7729266e-05	691613.3	98891.484	-0.00049934007	98894.26	691613.3	-0.00014098069
0	0.56387234	0.5638703	-4.3670192e-10	0.022273973	0.022273973	0	21435.834	21435.762	-1.651194e-05	691802.1	97616.39	-0.00042106316	97619.16	691802.1	-0.00017424668
0	0.56309164	0.56308967	-1.8871117e-10	0.021920223	0.021920223	0	21406.158	21406.084	-7.623635e-06	691989.25	96336.3	-0.0002586755	96339.03	691989.3	-6.3502707e-06
0	0.5623046	0.56230265	-2.7643462e-11	0.021566622	0.021566622	0	21376.238	21376.166	-2.1568692e-06	692175	95048.66	-6.021291e-05	95051.38	692175.1	-1.1092689e-05
0	0.5615127	0.56151074	-2.339723e-10	0.021213328	0.021213328	0	21346.133	21346.062	-8.8790075e-06	692359.06	93756.055	-0.0001482517	93758.734	692359.06	-0.00015835834
0	0.56071466	0.5607128	-1.7481559e-10	0.020859707	0.020859707	0	21315.799	21315.727	-5.9115823e-06	692541.44	92456.43	-0.00021643174	92459.11	692541.56	3.072584e-05
0	0.5599109	0.5599091	-3.8660602e-10	0.020505967	0.020505967	0	21285.242	21285.172	-1.4684779e-05	692722.3	91150.37	-0.00037784353	91153.02	692722.3	-0.00013196195
0	0.55910146	0.5590996	-2.998262e-10	0.020152355	0.020152355	0	21254.47	21254.4	-1.0389703e-05	692901.44	89837.99	-0.00032148077	89840.625	692901.44	-8.328673e-05
0	0.558286	0.5582843	-1.0784213e-10	0.019799031	0.019799031	0	21223.47	21223.404	-3.4163386e-06	693078.9	88519.07	-0.00012731711	88521.68	693078.9	6.910757e-06
0	0.5574645	0.5574627	-2.9871391e-10	0.019445421	0.019445421	0	21192.242	21192.174	-1.1559321e-05	693254.56	87193.2	-0.00029926334	87195.79	693254.6	-8.771527e-05
0	0.5566372	0.55663544	-2.7106362e-10	0.019091818	0.019091818	0	21160.79	21160.723	-1.0054829e-05	693428.4	85861.12	-0.0002749174	85863.67	693428.5	-5.416813e-05
0	0.5558036	0.5558019	-4.2995563e-10	0.01873847	0.01873847	0	21129.104	21129.035	-1.6564802e-05	693600.5	84522.055	-0.00036486136	84524.586	693600.6	-0.00024002983
0	0.55496216	0.5549605	4.70858e-10	0.018384872	0.018384872	0	21097.113	21097.05	1.8554238e-05	693771.2	83173.305	0.00044177176	83175.83	693771.4	0.00024653584
0	0.5541184	0.5541168	-2.1990816e-10	0.018031139	0.018031139	0	21065.035	21064.975	-8.6233185e-06	693939.1	81824.14	-0.00025687797	81826.625	693939.3	-3.622095e-05
0	0.55326676	0.5532651	-1.5292415e-10	0.017677588	0.017677588	0	21032.66	21032.6	-6.6202024e-06	694105.6	80465.46	-0.00031105118	80467.914	694105.7	0.00010570008
0	0.55240864	0.55240697	-2.9100858e-10	0.017324202	0.017324202	0	21000.037	20999.979	-1.1548793e-05	694270	79099.6	-0.00033501844	79102.04	694270.2	-7.016404e-05
0	0.55154413	0.5515425	-1.1817282e-10	0.016970618	0.016970618	0	20967.172	20967.113	-3.8715016e-06	694432.44	77726.78	-9.65865e-05	77729.18	694432.75	-3.5505647e-05
0	0.5506733	0.5506718	-2.5263086e-10	0.016616898	0.016616898	0	20934.07	20934.012	-9.153244e-06	694593	76347.27	-0.00037596846	76349.664	694593.2	2.5830856e-05
0	0.5497956	0.5497941	-3.4254982e-10	0.016263334	0.016263334	0	20900.705	20900.646	-1.3847318e-05	694751.5	74960	-0.00044864308	74962.35	694751.7	-4.551732e-05
0	0.54891205	0.5489106	-2.24626e-10	0.015909897	0.015909897	0	20867.117	20867.062	-9.451222e-06	694907.75	73566.914	-0.00011873322	73569.234	694907.94	-0.00019453994
0	0.5480219	0.5480205	-2.8164945e-10	0.015556336	0.015556336	0	20833.275	20833.223	-1.0768884e-05	695061.8	72166.59	-0.0003135206	72168.88	695062.06	-5.8204765e-05
0	0.547124	0.54712254	-4.4673307e-10	0.015202789	0.015202789	0	20799.143	20799.09	-1.5307483e-05	695213.94	70757.44	-0.00032821056	70759.7	695214.25	-0.00024204502
0	0.54622114	0.54621977	-2.7748928e-10	0.014849312	0.014849312	0	20764.824	20764.77	-1.0120789e-05	695363.5	69343.95	-0.00030525395	69346.19	695363.8	-6.470571e-05
0	0.54531074	0.54530936	-1.6042846e-10	0.014495777	0.014495777	0	20730.21	20730.158	-5.6487106e-06	695511	67921.836	-0.00020790391	67924.04	695511.25	4.5656325e-06
0	0.5443936	0.5443923	-2.1098796e-10	0.014142059	0.014142059	0	20695.344	20695.291	-8.843702e-06	695656.1	66492.69	-0.00023386693	66494.85	695656.44	-8.0926126e-05
0	0.54346925	0.54346794	-9.844484e-11	0.013788584	0.013788584	0	20660.203	20660.156	-3.3554688e-06	695799.06	65055.777	-7.9370526e-05	65057.918	695799.3	-1.5457526e-05
0	0.54253834	0.54253715	-1.03580644e-10	0.013435044	0.013435044	0	20624.814	20624.77	-3.79447e-06	695939.4	63612.246	-0.00013482623	63614.344	695939.7	-1.9270652e-05
0	0.54160017	0.54159904	-1.6003943e-10	0.013081529	0.013081529	0	20589.152	20589.105	-5.903439e-06	696077.3	62160.86	-0.00016667035	62162.926	696077.8	-6.3292726e-05
0	0.5406551	0.5406539	-1.3369919e-10	0.012727834	0.012727834	0	20553.223	20553.178	-4.448285e-06	696212.8	60702.19	-8.3741885e-05	60704.23	696213.2	-7.7263816e-05
0	0.5397025	0.53970134	-4.996802e-10	0.012374347	0.012374347	0	20517.008	20516.965	-1.8963045e-05	696345.8	59235.617	-0.00048995623	59237.613	696346.25	-0.00020627938
0	0.5387429	0.5387418	-3.0357525e-10	0.012020735	0.012020735	0	20480.533	20480.49	-1.1012252e-05	696476.2	57761.926	-0.00037859802	57763.883	696476.6	-2.2781383e-05
0	0.5377763	0.53777516	-9.8615595e-11	0.0116672525	0.0116672525	0	20443.783	20443.742	-4.7374538e-06	696604	56280.844	-0.00017283596	56282.77	696604.4	1.4035209e-05
0	0.53680205	0.536801	-2.5256683e-10	0.011313797	0.011313797	0	20406.748	20406.709	-7.6317265e-06	696729.06	54791.902	-0.00021066784	54793.78	696729.56	-8.2542894e-05
0	0.5358203	0.53581935	-3.0548467e-10	0.010960111	0.010960111	0	20369.428	20369.393	-1.1973291e-05	696851.5	53295.12	-0.00024684946	53296.96	696851.94	-0.00017724451
0	0.534831	0.53483003	-3.3991288e-10	0.010606664	0.010606664	0	20331.82	20331.783	-1.3145842e-05	696971.2	51790.44	-0.00034843225	51792.246	696971.56	-0.00013884895
0	0.53383416	0.53383327	-2.2895977e-10	0.010252983	0.010252983	0	20293.922	20293.887	-7.1959607e-06	697087.9	50278.09	-0.00026338498	50279.844	697088.44	-4.5541998e-05
0	0.5328302	0.5328293	-1.7120959e-10	0.009899516	0.009899516	0	20255.756	20255.725	-5.098973e-06	697201.75	48758.723	-0.00013770876	48760.44	697202.25	-5.744873e-05
0	0.5318176	0.5318167	-1.7705823e-10	0.009545909	0.009545909	0	20217.26	20217.23	-6.310986e-06	697312.94	47230.055	-0.00014795434	47231.727	697313.4	-0.00011453972
0	0.5307975	0.5307967	-2.2473377e-10	0.009192436	0.009192436	0	20178.482	20178.453	-8.323106e-06	697420.94	45693.88	-4.0937328e-05	45695.516	697421.44	-0.00030890206
0	0.5297696	0.5297689	-1.7744058e-10	0.008838794	0.008838794	0	20139.406	20139.379	-7.0949627e-06	697526	44149.85	-0.000252937	44151.438	697526.5	2.1321148e-05
0	0.5287338	0.5287331	-6.1825926e-11	0.008485309	0.008485309	0	20100.031	20100.002	-3.031627e-06	697627.94	42597.824	-4.8434318e-05	42599.363	697628.44	-6.2200334e-06
0	0.5276898	0.5276891	-2.8405045e-10	0.008131667	0.008131667	0	20060.344	20060.318	-1.1150046e-05	697726.75	41037.52	-0.00037142742	41039.01	697727.3	-2.326127e-05
0	0.5266379	0.52663726	-2.5000033e-10	0.007778168	0.007778168	0	20020.355	20020.33	-8.289353e-06	697822.4	39469.316	-0.00034605907	39470.766	697822.9	5.7093555e-05
0	0.5255774	0.5255769	-2.1222679e-10	0.007424656	0.007424656	0	19980.041	19980.018	-7.1314926e-06	697914.75	37892.33	-0.0003330762	37893.73	697915.3	9.3637645e-05