//mumax 3.10 [windows_amd64 go1.11.6(gc) CUDA-11.0]
//GPU info: NVIDIA GeForce RTX 3090(24575MB), CUDA Driver 12.1, cc=8.6, using cc=80 PTX
//(c) Arne Vansteenkiste, Dynamat LAB, Ghent University, Belgium
//This is free software without any warranty. See license.txt
//********************************************************************//
//  If you use mumax in any work or publication,                      //
//  we kindly ask you to cite the references in references.bib        //
//********************************************************************//
//output directory: r1;p0.1;a5.12e-07;l2.3000000000000002e-07;s5.out/
randSeed(5)
ThermSeed(5)
resolution := 2e-09
zResolution := 5e-09
a := 5.12e-07
gridSize := 512
gridDepth := 5
SetCellsize(resolution, resolution, zResolution)
SetGridsize(gridSize, gridSize, gridDepth)
SetPBC(16, 16, 0)
//resizing...
Msat = 700e3
Aex = 13e-12
alpha = 0.2
Bmax := 0.1
Bstep := Bmax / 500.0
TableAdd(B_ext)
TableAdd(m_full)
islandWidth := 8e-08
islandLength := 2.3000000000000002e-07
ellipseConstant := 1.1500000000000002e-08
hIsland := Universe().Inverse()
vIsland := Universe().Inverse()
vIslands := Universe().Inverse()
hIslands := Universe().Inverse()
hIsland = rect(islandLength-2*ellipseConstant, islandWidth)
hIsland = hIsland.add(ellipse(ellipseConstant*2, islandWidth).transl(islandLength/2-ellipseConstant, 0, 0))
hIsland = hIsland.add(ellipse(ellipseConstant*2, islandWidth).transl(-islandLength/2+ellipseConstant, 0, 0))
hIsland = hIsland.sub(rect(2.771505252704171e-09, -3.0484259744764665e-10).transl(-8.177758956826749e-08, -4e-08, 0))
hIsland = hIsland.sub(rect(8.525524239248068e-09, -2.6644439341968736e-09).transl(1.6710938494979303e-08, -4e-08, 0))
hIsland = hIsland.add(rect(2.0791095207861146e-09, 3.4101389361224654e-09).transl(7.967233997061917e-09, -4e-08, 0))
hIsland = hIsland.sub(rect(4.136561045850702e-09, -3.0891522778404136e-10).transl(7.893442284116619e-08, -4e-08, 0))
hIsland = hIsland.add(rect(2.5653858482972337e-09, 1.7984341768715578e-09).transl(-3.359134164026252e-08, -4e-08, 0))
hIsland = hIsland.sub(rect(6.607329695140052e-09, -9.943319680249465e-10).transl(8.1769233881557e-09, -4e-08, 0))
hIsland = hIsland.add(rect(2.9261132885623972e-09, 1.7891327795500013e-09).transl(1.1138084996548684e-07, -2.9130762634673944e-08, 0))
hIsland = hIsland.add(rect(6.631840127806857e-09, 7.072864826602107e-11).transl(-9.588876438847691e-08, -4e-08, 0))
hIsland = hIsland.sub(rect(3.705910775123003e-09, -1.5175406737791576e-09).transl(-7.488904004154208e-08, -4e-08, 0))
hIsland = hIsland.sub(rect(8.475917234022123e-09, -3.178338885027191e-09).transl(2.8983240632589602e-08, -4e-08, 0))
hIsland = hIsland.add(rect(2.2842720508462097e-09, 9.683153287019544e-10).transl(-1.6840452527121688e-08, -4e-08, 0))
hIsland = hIsland.sub(rect(4.683831090068573e-09, -3.5129003181288523e-10).transl(-4.0034965342721316e-09, -4e-08, 0))
hIsland = hIsland.sub(rect(4.699308739244129e-09, -4.036543561746567e-09).transl(2.5544306535921616e-08, -4e-08, 0))
hIsland = hIsland.add(rect(6.398221972959908e-09, 2.0575450716409923e-09).transl(3.456405605465346e-08, -4e-08, 0))
hIsland = hIsland.sub(rect(9.965783117246272e-09, -3.249667591692726e-09).transl(-6.49052155849046e-08, -4e-08, 0))
hIsland = hIsland.add(rect(5.763844990059354e-09, 2.304235239112968e-10).transl(8.340742480635411e-08, -4e-08, 0))
hIsland = hIsland.add(rect(7.2913939148534014e-09, 1.6903024733356529e-09).transl(2.871487084574446e-08, -4e-08, 0))
hIsland = hIsland.add(rect(8.819030495336294e-09, 2.609892571620525e-09).transl(4.278010047720114e-08, -4e-08, 0))
hIsland = hIsland.sub(rect(4.596149400225061e-09, -1.953800493684682e-09).transl(4.576014979354678e-08, -4e-08, 0))
hIsland = hIsland.sub(rect(3.850986320689397e-09, -9.231755224816931e-10).transl(-2.6748245917390837e-08, -4e-08, 0))
hIsland = hIsland.sub(rect(8.222223953241681e-09, -3.5438436406915976e-09).transl(9.528007118397464e-08, -4e-08, 0))
hIsland = hIsland.add(rect(7.039032822557274e-09, 9.12789839426569e-10).transl(-8.413958979150623e-08, -4e-08, 0))
hIsland = hIsland.add(rect(7.124314452431678e-09, 1.6054711423514846e-09).transl(-1.1422862936794866e-08, -4e-08, 0))
hIsland = hIsland.add(rect(4.546246696812201e-09, 2.1666018360720583e-09).transl(9.917259597290633e-08, -4e-08, 0))
hIsland = hIsland.add(rect(5.1268061560516836e-09, 1.8305641047518323e-09).transl(7.133879981189528e-08, -4e-08, 0))
hIsland = hIsland.add(rect(4.390799464738448e-09, 1.1225935340425e-09).transl(-2.9093973084945113e-08, -4e-08, 0))
hIsland = hIsland.sub(rect(6.17874568948623e-09, -4.787223090516552e-10).transl(-4.237134327229746e-08, -4e-08, 0))
hIsland = hIsland.add(rect(9.145390138243593e-09, 2.262017363373493e-09).transl(1.0762512505826667e-08, -4e-08, 0))
hIsland = hIsland.sub(rect(7.596848888577736e-09, -2.7914367999826998e-09).transl(-1.887644061883802e-08, -4e-08, 0))
hIsland = hIsland.add(rect(9.905739129721287e-09, 1.2973735646243447e-09).transl(2.7141125258125715e-08, -4e-08, 0))
hIsland = hIsland.sub(rect(8.104099341535013e-09, -1.2461147461417128e-09).transl(-6.38446673006179e-08, -4e-08, 0))
hIsland = hIsland.sub(rect(9.321262154398743e-09, -8.546167758816909e-11).transl(-9.161512198968857e-08, -4e-08, 0))
hIsland = hIsland.sub(rect(9.444240268823864e-09, -1.3631332880352841e-09).transl(-5.1858863142143306e-08, -4e-08, 0))
hIsland = hIsland.add(rect(7.827226736324607e-09, 1.4003165543719716e-09).transl(1.0408758552406654e-07, -3.9947753137584765e-08, 0))
hIsland = hIsland.sub(rect(6.493479996545687e-09, -3.5653590938918795e-09).transl(-7.399516474031109e-08, -4e-08, 0))
hIsland = hIsland.add(rect(6.6153790746960265e-09, 3.144628288400461e-09).transl(1.0420769442715676e-07, -3.992418805823284e-08, 0))
hIsland = hIsland.add(rect(5.1365846763874725e-09, 2.511776996985964e-09).transl(-7.208570720796273e-08, -4e-08, 0))
hIsland = hIsland.sub(rect(5.962770893163094e-09, -5.741471218458448e-10).transl(-2.848416340029406e-08, -4e-08, 0))
hIsland = hIsland.sub(rect(9.906935043553183e-09, -1.4778233765801448e-10).transl(-9.947529851522361e-08, -4e-08, 0))
hIsland = hIsland.sub(rect(7.93966427017025e-09, -1.7935200507617358e-10).transl(-2.6031900074396875e-08, -4e-08, 0))
hIsland = hIsland.add(rect(6.701147655425504e-09, 1.677882270695633e-10).transl(3.768923955027888e-08, -4e-08, 0))
hIsland = hIsland.sub(rect(5.031064492005954e-09, -1.7485481515247654e-10).transl(1.0808517320655224e-08, -4e-08, 0))
hIsland = hIsland.sub(rect(2.908401051674697e-09, -1.679615695942827e-09).transl(-4.288264993403617e-08, -4e-08, 0))
hIsland = hIsland.sub(rect(7.957386042281208e-09, -7.547670030606011e-10).transl(1.2170523246521449e-08, -4e-08, 0))
hIsland = hIsland.add(rect(5.0442346912355e-09, 2.356250706184649e-09).transl(-1.0777698495558573e-07, -3.7130723907184024e-08, 0))
hIsland = hIsland.sub(rect(5.8479757009864304e-09, -2.012461190403526e-10).transl(-3.866722844197703e-08, -4e-08, 0))
hIsland = hIsland.sub(rect(5.400733845076288e-09, -1.3730711903606454e-09).transl(5.6019256051790846e-08, -4e-08, 0))
hIsland = hIsland.add(rect(9.212422247010223e-09, 1.4929927559661223e-09).transl(7.793195410345751e-08, -4e-08, 0))
hIsland = hIsland.add(rect(5.667795588423459e-09, 2.101161864183847e-09).transl(9.044573110624474e-08, -4e-08, 0))
hIsland = hIsland.sub(rect(5.148016913139211e-09, -4.761251858048381e-09).transl(1.0247859019352902e-07, -4e-08, 0))
hIsland = hIsland.add(rect(6.95871462309131e-09, 4.0303649917810094e-09).transl(-7.629029199671201e-08, -4e-08, 0))
hIsland = hIsland.add(rect(7.821282561868431e-09, 3.2557677430959895e-09).transl(-9.73733784001991e-08, -4e-08, 0))
hIsland = hIsland.sub(rect(4.037946792479347e-09, -2.537143485705616e-10).transl(5.691098655208737e-09, -4e-08, 0))
hIsland = hIsland.sub(rect(6.310500604021026e-09, -1.6361072393959e-09).transl(-1.0569588146078676e-07, -3.926402003597997e-08, 0))
hIsland = hIsland.add(rect(5.950984021002904e-09, 1.24766413161134e-09).transl(-1.733631011617752e-08, -4e-08, 0))
hIsland = hIsland.add(rect(3.515907663343577e-09, 1.2710330629951349e-09).transl(1.7650551339629073e-08, -4e-08, 0))
hIsland = hIsland.sub(rect(3.864198611222647e-09, -6.7069874558010576e-09).transl(-1.8181150794892574e-08, -4e-08, 0))
hIsland = hIsland.add(rect(5.95374823184282e-09, 1.4849760189674216e-09).transl(-5.0314294588738235e-08, -4e-08, 0))
hIsland = hIsland.sub(rect(5.348239043433654e-09, -2.9592476837989114e-09).transl(-2.7186742845745055e-08, -4e-08, 0))
hIsland = hIsland.sub(rect(2.977869143697669e-09, -3.813821833421e-09).transl(1.0942497023516878e-07, -3.428244347673596e-08, 0))
hIsland = hIsland.add(rect(7.469809625988948e-09, 1.7485003187921636e-09).transl(7.105674064285635e-08, -4e-08, 0))
hIsland = hIsland.add(rect(2.5433396046790504e-09, 4.277084980915434e-09).transl(-7.050210070736624e-08, -4e-08, 0))
hIsland = hIsland.sub(rect(2.1435922041400827e-09, -3.4632015641645055e-10).transl(-6.646382696292054e-08, -4e-08, 0))
hIsland = hIsland.sub(rect(4.799647776194336e-09, -4.496339309989796e-09).transl(1.1474664717839811e-07, -8.349947009287248e-09, 0))
hIsland = hIsland.add(rect(9.208139429151544e-09, 2.1392037099317936e-09).transl(6.403115871898379e-08, -4e-08, 0))
hIsland = hIsland.add(rect(7.27699591017534e-09, 3.6269992184677644e-09).transl(-1.4154168391012997e-08, -4e-08, 0))
hIsland = hIsland.sub(rect(6.297751510315032e-09, -1.5346790670791157e-10).transl(1.0074282124283503e-07, -4e-08, 0))
hIsland = hIsland.sub(rect(9.246245433484812e-09, -1.1066463829641183e-10).transl(9.966412653491514e-08, -4e-08, 0))
hIsland = hIsland.sub(rect(7.622431045284407e-09, -9.940161399269223e-10).transl(-9.935896156546492e-08, -4e-08, 0))
hIsland = hIsland.sub(rect(6.9007163086651865e-09, -7.77365355062823e-10).transl(-1.1088683434697773e-07, -3.0657012917882785e-08, 0))
hIsland = hIsland.add(rect(4.017957063712222e-09, 2.395082291405618e-09).transl(-3.051459304058726e-08, -4e-08, 0))
hIsland = hIsland.add(rect(2.0082233362312732e-09, 3.4350554621152352e-09).transl(-3.3962874935387196e-08, -4e-08, 0))
hIsland = hIsland.add(rect(5.083491780212896e-09, 2.306145833704939e-09).transl(8.75166206766781e-08, -4e-08, 0))
hIsland = hIsland.sub(rect(5.274737503907657e-09, -5.094006297106241e-10).transl(-3.2144683994889565e-08, -4e-08, 0))
hIsland = hIsland.sub(rect(2.826087952953766e-09, -3.5869377305559953e-09).transl(-1.0150832765854172e-07, -4e-08, 0))
hIsland = hIsland.add(rect(5.2205475952375355e-09, 1.2564507994805275e-09).transl(1.3374145141851464e-08, -4e-08, 0))
hIsland = hIsland.add(rect(4.0869309877575234e-09, 2.214663612610302e-09).transl(8.614722657476639e-08, -4e-08, 0))
hIsland = hIsland.sub(rect(6.166205065613212e-09, -3.6237309534802732e-09).transl(-1.43541320645212e-08, -4e-08, 0))
hIsland = hIsland.add(rect(4.2619540020009555e-09, 7.804323042174104e-10).transl(-6.314471052799642e-08, -4e-08, 0))
hIsland = hIsland.add(rect(9.922667646352456e-09, 2.616783062390778e-09).transl(-1.7918485521843818e-08, -4e-08, 0))
hIsland = hIsland.sub(rect(8.42183070707718e-09, -2.5790436797901597e-09).transl(-5.568690141342185e-08, -4e-08, 0))
hIsland = hIsland.add(rect(8.292019795054473e-09, 1.8857888626514817e-10).transl(-2.4145194432917452e-08, -4e-08, 0))
hIsland = hIsland.sub(rect(5.287900957907812e-09, -4.3430692219686293e-10).transl(1.0416718457984735e-07, -3.9932626017200305e-08, 0))
hIsland = hIsland.sub(rect(4.0713755668040255e-09, -2.1347153341293424e-10).transl(2.6142134851937724e-08, -4e-08, 0))
hIsland = hIsland.add(rect(5.343997626618544e-09, 3.1540016260768265e-10).transl(5.551199909435878e-09, -4e-08, 0))
hIsland = hIsland.sub(rect(8.47576323947754e-09, -3.7978222679346835e-09).transl(9.685228976866696e-08, -4e-08, 0))
hIsland = hIsland.sub(rect(3.222471422130599e-09, -5.03704434896144e-10).transl(9.812799133380738e-09, -4e-08, 0))
hIsland = hIsland.sub(rect(3.1185560611942985e-09, -1.2680209212672476e-09).transl(3.862421502825625e-08, -4e-08, 0))
hIsland = hIsland.sub(rect(4.390678880406891e-09, -2.058533889649419e-10).transl(1.1136585778494064e-08, -4e-08, 0))
hIsland = hIsland.sub(rect(9.74573392344413e-09, -1.5350163416660433e-09).transl(7.05098453006921e-08, -4e-08, 0))
hIsland = hIsland.add(rect(5.6560777407002006e-09, 3.7109132178283984e-09).transl(8.739556175646238e-08, -4e-08, 0))
hIsland = hIsland.sub(rect(8.387349842677164e-09, -1.335046076800863e-10).transl(-8.35551855416608e-08, -4e-08, 0))
hIsland = hIsland.add(rect(6.328975828304193e-09, 1.3157013496009775e-09).transl(4.0437576054777493e-08, -4e-08, 0))
hIsland = hIsland.add(rect(6.666270614050518e-09, 4.2452001711937695e-10).transl(-4.675647222853096e-09, -4e-08, 0))
hIsland = hIsland.sub(rect(6.051267658333477e-09, -1.8105819409107601e-09).transl(4.403396955045871e-09, -4e-08, 0))
hIsland = hIsland.add(rect(2.3201504270456717e-09, 9.167355432143672e-10).transl(6.317764760839762e-08, -4e-08, 0))
hIsland = hIsland.sub(rect(4.742989087334638e-09, -2.9475464289788757e-10).transl(-1.043369847763078e-07, -3.989391702139742e-08, 0))
hIsland = hIsland.sub(rect(8.711532646438307e-09, -1.1814647164655684e-09).transl(2.331421434091263e-08, -4e-08, 0))
hIsland = hIsland.sub(rect(5.1380834422098086e-09, -4.2641069626498245e-09).transl(-9.455764749510816e-08, -4e-08, 0))
hIsland = hIsland.sub(rect(5.255892477067531e-09, -1.1147141098501524e-09).transl(-2.434187055220988e-08, -4e-08, 0))
hIsland = hIsland.add(rect(3.845908049956798e-09, 1.1323262173664823e-10).transl(9.319145688232642e-09, -4e-08, 0))
hIsland = hIsland.add(rect(9.244667454824658e-09, 4.2340835631410265e-10).transl(-4.96119977847767e-08, -4e-08, 0))
hIsland = hIsland.sub(rect(8.45940391087122e-09, -2.850074093560704e-09).transl(-1.045046046565756e-07, -3.9847083052383915e-08, 0))
hIsland = hIsland.add(rect(5.279481653242019e-09, 1.8581809744807183e-09).transl(-1.7112065870087158e-08, -4e-08, 0))
hIsland = hIsland.sub(rect(2.7974242535416807e-09, -3.2470626854458487e-09).transl(1.1140638177139091e-08, -4e-08, 0))
hIsland = hIsland.add(rect(5.131270980777434e-09, 1.1550164593771088e-09).transl(-4.785041656152569e-08, -4e-08, 0))
hIsland = hIsland.add(rect(4.659237073518218e-09, 3.9436153147514744e-10).transl(-5.633248915866608e-08, -4e-08, 0))
hIsland = hIsland.add(rect(4.473580766821276e-09, 4.691300455536864e-09).transl(3.9282037232183876e-08, -4e-08, 0))
hIsland = hIsland.sub(rect(7.51418051446799e-09, -3.0047294063514124e-10).transl(2.8863410439384673e-08, -4e-08, 0))
hIsland = hIsland.add(rect(5.678119262235065e-09, 1.4457920737577593e-09).transl(-1.6179976551005502e-08, -4e-08, 0))
hIsland = hIsland.sub(rect(3.807863272844301e-09, -6.012990572868922e-10).transl(-5.458948710296933e-08, -4e-08, 0))
hIsland = hIsland.sub(rect(4.854920262165792e-09, -8.776911018890502e-10).transl(-3.4304895535297656e-08, -4e-08, 0))
hIsland = hIsland.add(rect(4.854510492844102e-09, 9.220150238755969e-10).transl(-8.106628631009987e-08, -4e-08, 0))
hIsland = hIsland.sub(rect(8.341176157079858e-09, -8.7347168679075e-10).transl(7.799310754465565e-08, -4e-08, 0))
hIsland = hIsland.add(rect(7.14074512527021e-09, 2.3596331838641256e-09).transl(5.746261215730446e-08, -4e-08, 0))
hIsland = hIsland.add(rect(7.278992496457222e-09, 4.687434477180924e-11).transl(-2.920548698413483e-08, -4e-08, 0))
hIsland = hIsland.sub(rect(7.289710001987292e-09, -1.026915004411951e-09).transl(-5.591362743312801e-08, -4e-08, 0))
hIsland = hIsland.add(rect(6.4210055655515185e-09, 5.455076155657548e-09).transl(-3.7517290575118005e-08, -4e-08, 0))
hIsland = hIsland.sub(rect(8.16252285165264e-09, -7.64540723394895e-11).transl(-6.503347699330216e-08, -4e-08, 0))
hIsland = hIsland.sub(rect(8.130349515880757e-09, -1.3223011317957013e-09).transl(1.5723661734121553e-08, -4e-08, 0))
hIsland = hIsland.add(rect(3.199144534693125e-09, 3.794198601753543e-09).transl(7.723034253651388e-08, -4e-08, 0))
hIsland = hIsland.add(rect(5.038438388862238e-09, 3.970468816658409e-09).transl(1.0593368014710115e-07, -3.909404312666038e-08, 0))
hIsland = hIsland.add(rect(2.6492042371619518e-09, 2.3041014227877096e-09).transl(6.441977925146908e-08, -4e-08, 0))
hIsland = hIsland.add(rect(4.260769838104084e-09, 1.3045498634345856e-09).transl(-8.751340465823016e-08, -4e-08, 0))
hIsland = hIsland.sub(rect(4.185223745765186e-09, -1.145111412553052e-09).transl(-4.4010217328369846e-08, -4e-08, 0))
hIsland = hIsland.add(rect(3.5117608400291113e-09, 3.717738787233412e-11).transl(8.742205616751095e-08, -4e-08, 0))
hIsland = hIsland.sub(rect(8.121867543272487e-09, -2.2607678850509864e-09).transl(-2.3857143281987342e-08, -4e-08, 0))
hIsland = hIsland.add(rect(3.501440854481885e-09, 1.8848634189821088e-10).transl(-1.110138822309702e-07, -3.028116736924843e-08, 0))
hIsland = hIsland.add(rect(7.052242420962698e-09, 8.998438822556184e-10).transl(-2.10718247535622e-08, -4e-08, 0))
hIsland = hIsland.sub(rect(3.211742584224432e-09, -1.4999708031670481e-09).transl(-9.663402652203538e-08, -4e-08, 0))
hIsland = hIsland.add(rect(5.3896060177857546e-09, 2.217583397118673e-09).transl(-9.175616293102085e-08, -4e-08, 0))
hIsland = hIsland.sub(rect(3.378430645176817e-09, -1.261572542943344e-09).transl(2.780178015319927e-08, -4e-08, 0))
hIsland = hIsland.sub(rect(8.590531662860492e-09, -1.460264104379524e-09).transl(2.8390905652889295e-10, -4e-08, 0))
hIsland = hIsland.sub(rect(6.3582198237920855e-09, -1.1597548044029597e-09).transl(-7.875936434831613e-08, -4e-08, 0))
hIsland = hIsland.add(rect(2.581085242128306e-09, 1.842825406192565e-09).transl(-3.6127959347024926e-08, -4e-08, 0))
hIsland = hIsland.add(rect(8.766419336246404e-09, 3.853100213041249e-09).transl(-6.30602209261694e-08, -4e-08, 0))
hIsland = hIsland.sub(rect(9.307565327943172e-09, -8.793341289425804e-10).transl(1.402045034486701e-08, -4e-08, 0))
hIsland = hIsland.sub(rect(3.1255859983697603e-09, -1.8227202731769243e-09).transl(4.183312362618978e-08, -4e-08, 0))
hIsland = hIsland.sub(rect(7.444680214969703e-09, -1.3660711342709505e-09).transl(-5.6318395248067454e-08, -4e-08, 0))
hIsland = hIsland.sub(rect(7.251608195741221e-09, -2.8684862259850633e-09).transl(1.3487757696953837e-08, -4e-08, 0))
hIsland = hIsland.add(rect(3.98235068595162e-09, 2.8871987549693675e-09).transl(-1.0345589797737082e-08, -4e-08, 0))
hIsland = hIsland.sub(rect(4.74580620339363e-09, -7.628043435694621e-10).transl(-3.9036331432794994e-09, -4e-08, 0))
hIsland = hIsland.add(rect(5.711147988855649e-09, 9.34476324525794e-10).transl(4.247117490789206e-08, -4e-08, 0))
hIsland = hIsland.add(rect(5.637550559334134e-09, 2.2884917319289655e-10).transl(-9.822688879689245e-09, -4e-08, 0))
hIsland = hIsland.sub(rect(2.088796146652297e-09, -8.378336075616582e-10).transl(2.86531936461896e-08, -4e-08, 0))
hIsland = hIsland.add(rect(5.688164683259651e-09, 1.6023609545994735e-10).transl(-7.840186350579018e-09, -4e-08, 0))
hIsland = hIsland.sub(rect(7.286168598638135e-09, -4.007320386684077e-09).transl(9.419221031158474e-08, -4e-08, 0))
hIsland = hIsland.add(rect(3.6461550992396666e-09, 2.838023808058988e-09).transl(9.588782512967722e-08, -4e-08, 0))
hIsland = hIsland.add(rect(9.095417584062166e-09, 5.497148467354262e-10).transl(5.6801307200823765e-08, -4e-08, 0))
hIsland = hIsland.add(rect(5.718821337119528e-09, 8.230419287876618e-10).transl(-8.813179102537258e-09, -4e-08, 0))
hIsland = hIsland.add(rect(9.813758155218076e-09, 3.6097504317429253e-09).transl(-2.5289774201742083e-08, -4e-08, 0))
hIsland = hIsland.add(rect(8.773624683168614e-09, 8.224640385612812e-10).transl(1.1146653416699001e-07, -2.884741599077984e-08, 0))
hIsland = hIsland.sub(rect(7.501517169983865e-09, -4.2328384943518705e-09).transl(-8.704073888863432e-08, -4e-08, 0))
hIsland = hIsland.add(rect(6.802983131028641e-09, 2.4451019317500717e-09).transl(-9.446658775326291e-08, -4e-08, 0))
hIsland = hIsland.add(rect(9.463932024106944e-09, 7.681392246547854e-10).transl(2.374450190550982e-08, -4e-08, 0))
hIsland = hIsland.sub(rect(5.686810667982557e-09, -7.633948816191046e-10).transl(-3.5902857323841155e-08, -4e-08, 0))
hIsland = hIsland.sub(rect(5.335720221355256e-09, -1.3728244120194422e-09).transl(-1.1092114593202073e-07, -3.055659460151217e-08, 0))
hIsland = hIsland.sub(rect(6.08312323502235e-09, -5.550816335549562e-10).transl(-8.033086787296854e-08, -4e-08, 0))
hIsland = hIsland.sub(rect(9.627504582992805e-09, -6.422489387193851e-10).transl(1.5797472566537865e-08, -4e-08, 0))
hIsland = hIsland.add(rect(3.2405469087738983e-09, 1.056915170035342e-09).transl(-5.699090806428711e-08, -4e-08, 0))
hIsland = hIsland.sub(rect(7.40144756752645e-09, -3.5436510817080694e-09).transl(-7.932251496385071e-08, -4e-08, 0))
hIsland = hIsland.add(rect(8.163857756519038e-09, 1.3698569104022126e-09).transl(1.4376907772028898e-08, -4e-08, 0))
hIsland = hIsland.add(rect(7.881881996086937e-09, 2.3905156850487707e-10).transl(-4.7367290058865755e-08, -4e-08, 0))
hIsland = hIsland.add(rect(4.526334727383105e-09, 2.8512416362414167e-09).transl(-5.328275341692835e-08, -4e-08, 0))
hIsland = hIsland.sub(rect(3.1280557509692405e-09, -5.963892267999229e-10).transl(1.046184796209399e-07, -3.981036383573968e-08, 0))
hIsland = hIsland.sub(rect(9.2172376067224e-09, -8.273465985971245e-10).transl(9.283103073818611e-08, -4e-08, 0))
hIsland = hIsland.sub(rect(2.527747053654746e-09, -1.686774174861299e-09).transl(-9.852707593136013e-08, -4e-08, 0))
hIsland = hIsland.sub(rect(4.555081259645015e-09, -8.377096429666658e-10).transl(-9.894059184355155e-08, -4e-08, 0))
hIsland = hIsland.add(rect(9.378225516844165e-09, 5.647844490053818e-09).transl(3.69997753061166e-08, -4e-08, 0))
hIsland = hIsland.sub(rect(4.185050703163338e-09, -1.2750177478751415e-09).transl(-4.9087379751072604e-08, -4e-08, 0))
hIsland = hIsland.sub(rect(2.9490571904434476e-09, -1.6836261133825288e-09).transl(-7.971278219632588e-08, -4e-08, 0))
hIsland = hIsland.add(rect(9.547339972144703e-09, 1.1509850849791686e-09).transl(7.994379253193312e-08, -4e-08, 0))
hIsland = hIsland.add(rect(2.757560278221816e-09, 3.27574314713048e-09).transl(4.733903109332157e-08, -4e-08, 0))
hIsland = hIsland.sub(rect(5.216789245924869e-09, -8.266746296376027e-10).transl(8.302388243394243e-08, -4e-08, 0))
hIsland = hIsland.sub(rect(3.281438504569333e-09, -1.5778336326425953e-09).transl(-1.1597772829531277e-08, -4e-08, 0))
hIsland = hIsland.sub(rect(4.252794911545467e-09, -2.894853292617726e-09).transl(7.273581794741312e-08, -4e-08, 0))
hIsland = hIsland.add(rect(7.72226599136441e-09, 2.4833952564107933e-09).transl(-5.599037087442965e-08, -4e-08, 0))
hIsland = hIsland.add(rect(2.8579685256677483e-09, 1.2811370593248874e-09).transl(-3.355714637477607e-08, -4e-08, 0))
hIsland = hIsland.add(rect(6.132912284616905e-09, 3.381172749242251e-09).transl(5.742527925371499e-08, -4e-08, 0))
hIsland = hIsland.sub(rect(5.398345171497146e-09, -8.867449150848607e-10).transl(2.362748944874562e-09, -4e-08, 0))
hIsland = hIsland.sub(rect(4.28355962293555e-09, -4.410177597034868e-10).transl(5.646520618160281e-08, -4e-08, 0))
hIsland = hIsland.sub(rect(2.7058135073584077e-09, -1.0030601485956782e-09).transl(-2.3550574729907534e-08, -4e-08, 0))
hIsland = hIsland.sub(rect(4.4582412434964125e-09, -9.393082886120817e-10).transl(-2.92820948192663e-08, -4e-08, 0))
hIsland = hIsland.sub(rect(9.181362056827177e-09, -6.835079320916771e-10).transl(-7.378698154529095e-08, -4e-08, 0))
hIsland = hIsland.add(rect(3.990831476720387e-09, 1.2699888499866182e-09).transl(-1.70314210406076e-08, -4e-08, 0))
hIsland = hIsland.add(rect(2.7172740575497657e-09, 2.9962404275574457e-09).transl(-6.309027000552638e-08, -4e-08, 0))
hIsland = hIsland.add(rect(8.292899092498887e-09, 2.983985668987158e-09).transl(5.723436962175925e-08, -4e-08, 0))
hIsland = hIsland.add(rect(2.243075315985949e-09, 7.31476361616666e-10).transl(-7.52062771616607e-08, -4e-08, 0))
hIsland = hIsland.sub(rect(3.0288057614318965e-09, -1.9789215818119553e-09).transl(6.815505773146161e-08, -4e-08, 0))
hIsland = hIsland.sub(rect(6.48156102026836e-09, -1.561354869249552e-09).transl(-1.0593073280603314e-07, -3.909626148769721e-08, 0))
hIsland = hIsland.add(rect(4.7919586812492086e-09, 7.857307324874219e-10).transl(6.808589613773535e-08, -4e-08, 0))
hIsland = hIsland.add(rect(7.309519822957163e-09, 1.9525117754744092e-09).transl(-8.235702056913146e-08, -4e-08, 0))
hIsland = hIsland.add(rect(5.023417847781266e-09, 1.5570433829312083e-10).transl(5.812969526743661e-08, -4e-08, 0))
hIsland = hIsland.sub(rect(2.2506180833951586e-09, -5.057799517690571e-09).transl(1.1416667755400527e-07, -1.494923582249056e-08, 0))
hIsland = hIsland.sub(rect(8.958631841150753e-09, -9.460141513048112e-10).transl(8.566725178158658e-08, -4e-08, 0))
hIsland = hIsland.add(rect(2.504353363056562e-09, 4.5188306761717433e-10).transl(4.4792564067053937e-08, -4e-08, 0))
hIsland = hIsland.add(rect(7.067602059527762e-09, 1.3873094565012917e-09).transl(-4.9671141130844307e-08, -4e-08, 0))
hIsland = hIsland.sub(rect(8.766469774915627e-09, -6.895774799082559e-10).transl(-4.3166509386269667e-08, -4e-08, 0))
hIsland = hIsland.add(rect(8.464707971362817e-09, 1.1898346943357956e-10).transl(6.740808332799866e-11, -4e-08, 0))
hIsland = hIsland.sub(rect(2.0738848109485578e-09, -1.002079444497415e-09).transl(7.960844953085701e-08, -4e-08, 0))
hIsland = hIsland.sub(rect(2.642908108686051e-09, -1.2611136340359483e-09).transl(-6.0073961865879275e-09, 4e-08, 0))
hIsland = hIsland.add(rect(8.422284391095264e-09, 7.417878884081116e-10).transl(-1.0931011743164627e-07, 3.451944540499154e-08, 0))
hIsland = hIsland.sub(rect(9.895680372103377e-09, -1.7108352186810298e-09).transl(1.0983938188502954e-07, 3.3373589017301796e-08, 0))
hIsland = hIsland.sub(rect(5.7770611850738334e-09, -1.2400841278631335e-09).transl(1.0109637398635364e-07, 4e-08, 0))
hIsland = hIsland.sub(rect(3.304102064365923e-09, -2.1716739772261517e-09).transl(-6.35377383467866e-08, 4e-08, 0))
hIsland = hIsland.add(rect(4.3863477036210075e-09, 7.284078650335091e-10).transl(-9.243164811393518e-09, 4e-08, 0))
hIsland = hIsland.sub(rect(3.088887370164951e-09, -9.336228776362465e-11).transl(3.320961499869795e-08, 4e-08, 0))
hIsland = hIsland.sub(rect(7.2464008544865395e-09, -3.510492678623426e-09).transl(1.7942135068216754e-08, 4e-08, 0))
hIsland = hIsland.add(rect(3.2996935797878476e-09, 3.2248071053885473e-10).transl(4.3310397498972014e-08, 4e-08, 0))
hIsland = hIsland.add(rect(4.978008694981318e-09, 2.0940085977306704e-09).transl(7.876511260022117e-08, 4e-08, 0))
hIsland = hIsland.sub(rect(4.145129774695739e-09, -1.3400032342994096e-09).transl(1.0573249940994822e-07, 3.92390294316734e-08, 0))
hIsland = hIsland.sub(rect(3.076563005191295e-09, -2.0362566261399569e-10).transl(-2.0664960644775105e-08, 4e-08, 0))
hIsland = hIsland.sub(rect(8.485861978771109e-09, -1.001689016866044e-09).transl(-3.198748978096829e-08, 4e-08, 0))
hIsland = hIsland.sub(rect(5.6631640159970015e-09, -4.196276453357528e-09).transl(-5.949515270828049e-09, 4e-08, 0))
hIsland = hIsland.sub(rect(5.767749159230531e-09, -4.1141394933773056e-10).transl(3.805191669196863e-09, 4e-08, 0))
hIsland = hIsland.add(rect(8.245624617220626e-09, 1.1563682078180101e-09).transl(-4.8655818374140776e-08, 4e-08, 0))
hIsland = hIsland.sub(rect(4.2628390367735514e-09, -2.0469287204346455e-09).transl(-6.699715104566509e-08, 4e-08, 0))
hIsland = hIsland.add(rect(3.7105212303338667e-09, 6.157977971760605e-10).transl(-4.144058130592574e-09, 4e-08, 0))
hIsland = hIsland.add(rect(8.829624792987037e-09, 3.045981385550017e-09).transl(7.402764345268051e-08, 4e-08, 0))
hIsland = hIsland.add(rect(8.896829293684645e-09, 1.5130320781062395e-09).transl(2.2531722900338402e-08, 4e-08, 0))
hIsland = hIsland.add(rect(8.542979370736214e-09, 7.725099761182857e-10).transl(3.660905202973788e-08, 4e-08, 0))
hIsland = hIsland.add(rect(9.688398183882708e-09, 1.2214343951696657e-09).transl(6.691630286851685e-08, 4e-08, 0))
hIsland = hIsland.add(rect(7.086733263312433e-09, 1.5486674420615526e-09).transl(-9.430448898263878e-09, 4e-08, 0))
hIsland = hIsland.sub(rect(2.8413843076185705e-09, -6.529808925954704e-10).transl(-9.00869773944143e-09, 4e-08, 0))
hIsland = hIsland.sub(rect(5.6930783608251955e-09, -4.71769440737038e-09).transl(3.217080045168026e-08, 4e-08, 0))
hIsland = hIsland.sub(rect(8.41613896119942e-09, -2.057578856912672e-09).transl(3.926378852621141e-08, 4e-08, 0))
hIsland = hIsland.add(rect(2.5090345515827793e-09, 1.2067230468941691e-09).transl(2.2559288753762625e-08, 4e-08, 0))
hIsland = hIsland.sub(rect(9.483311214417984e-09, -1.8625948202227292e-09).transl(3.391524709064411e-09, 4e-08, 0))
hIsland = hIsland.add(rect(2.1611593713050547e-09, 4.3300511378679766e-10).transl(-9.538172657285328e-08, 4e-08, 0))
hIsland = hIsland.add(rect(5.420099535561418e-09, 2.928522067554679e-09).transl(7.676350289091908e-08, 4e-08, 0))
hIsland = hIsland.sub(rect(6.123265942672643e-09, -1.0096710577045397e-09).transl(1.0577204510919899e-07, 3.921155819290395e-08, 0))
hIsland = hIsland.add(rect(2.694830169974516e-09, 1.2224204532969903e-09).transl(9.339411219782524e-08, 4e-08, 0))
hIsland = hIsland.sub(rect(7.925805383920481e-09, -1.4743115220576688e-09).transl(7.277699173112296e-08, 4e-08, 0))
hIsland = hIsland.add(rect(7.308007262575402e-09, 3.159261695993253e-09).transl(-3.956082075723332e-08, 4e-08, 0))
hIsland = hIsland.sub(rect(7.780428884905852e-09, -1.9345468454327703e-10).transl(-4.813445252207523e-08, 4e-08, 0))
hIsland = hIsland.add(rect(2.4162911811054066e-09, 1.4577967207523326e-11).transl(8.86601449914451e-08, 4e-08, 0))
hIsland = hIsland.add(rect(2.404564714847527e-09, 6.394690916989174e-10).transl(-1.6247989431074973e-08, 4e-08, 0))
hIsland = hIsland.add(rect(2.8646594532601518e-09, 1.591969390501336e-09).transl(-1.0462368442941597e-07, 3.980859054490094e-08, 0))
hIsland = hIsland.add(rect(4.672554644721898e-09, 4.2877970899957126e-10).transl(5.713565446254535e-08, 4e-08, 0))
hIsland = hIsland.add(rect(7.353876994122005e-09, 1.4606199406367792e-09).transl(2.5142076470282048e-08, 4e-08, 0))
hIsland = hIsland.sub(rect(6.988495001868306e-09, -1.200637146011719e-09).transl(7.981223420924665e-08, 4e-08, 0))
hIsland = hIsland.sub(rect(4.529844313196136e-09, -7.65416377090955e-10).transl(3.3352497944543164e-09, 4e-08, 0))
hIsland = hIsland.sub(rect(6.07620366606889e-09, -8.410330195140124e-10).transl(1.2235858171592271e-08, 4e-08, 0))
hIsland = hIsland.add(rect(8.88870480121907e-09, 1.616888443400454e-09).transl(-6.363133975654188e-08, 4e-08, 0))
hIsland = hIsland.add(rect(7.093713668969884e-09, 2.6771077860153386e-09).transl(-9.172289972030206e-08, 4e-08, 0))
hIsland = hIsland.sub(rect(4.374131743261431e-09, -8.250787879451224e-10).transl(2.526255282180965e-08, 4e-08, 0))
hIsland = hIsland.sub(rect(8.395075280041393e-09, -1.8418235762278774e-10).transl(2.215569404102025e-08, 4e-08, 0))
hIsland = hIsland.add(rect(5.277034472319963e-09, 2.2882453618034186e-11).transl(4.2237750945666285e-08, 4e-08, 0))
hIsland = hIsland.add(rect(8.260057321066711e-09, 1.8587272258316774e-09).transl(-4.131185399540688e-08, 4e-08, 0))
hIsland = hIsland.add(rect(9.228010732454322e-09, 2.8125832226568393e-09).transl(-6.545699876998277e-08, 4e-08, 0))
hIsland = hIsland.sub(rect(3.492380634129407e-09, -2.103444414865418e-10).transl(1.0877262006163283e-07, 3.554800947551897e-08, 0))
hIsland = hIsland.add(rect(2.3649267055405813e-09, 3.3557488922874227e-09).transl(-1.139269916640086e-07, 1.6871481680004698e-08, 0))
hIsland = hIsland.add(rect(5.425436028200114e-09, 8.31282000786045e-10).transl(3.629405671568208e-08, 4e-08, 0))
hIsland = hIsland.sub(rect(4.8420613499129195e-09, -8.741784172249509e-10).transl(-5.8240102645829274e-08, 4e-08, 0))
hIsland = hIsland.add(rect(2.674645130199304e-09, 3.4702872648145314e-09).transl(-1.941993737970087e-08, 4e-08, 0))
hIsland = hIsland.sub(rect(6.604362327678414e-09, -2.0567267004023187e-09).transl(-8.488585050469711e-08, 4e-08, 0))
hIsland = hIsland.add(rect(5.796482553528808e-09, 4.993260608181011e-09).transl(-3.3792231083718176e-08, 4e-08, 0))
hIsland = hIsland.add(rect(9.731386678059228e-09, 3.473094962543679e-09).transl(-5.159784122708134e-08, 4e-08, 0))
hIsland = hIsland.add(rect(3.552524045986564e-09, 3.5174178860333715e-09).transl(6.066288236799994e-08, 4e-08, 0))
hIsland = hIsland.add(rect(3.805585078771338e-09, 5.271994430141339e-09).transl(-5.9565623919393914e-08, 4e-08, 0))
hIsland = hIsland.sub(rect(9.837113953404586e-09, -2.3076645450918826e-09).transl(-1.0569546944011837e-07, 3.926429878615329e-08, 0))
hIsland = hIsland.add(rect(7.775159644222683e-09, 2.059676426797341e-09).transl(7.112913883581987e-08, 4e-08, 0))
hIsland = hIsland.add(rect(3.6333667080819405e-09, 1.0486601983593994e-09).transl(-3.2960006274378225e-08, 4e-08, 0))
hIsland = hIsland.add(rect(8.160442920531037e-09, 2.180104242438397e-09).transl(-9.08474586283917e-09, 4e-08, 0))
hIsland = hIsland.sub(rect(5.738878307398785e-09, -1.0478921596045569e-09).transl(1.0669161039045728e-07, 3.842866339098585e-08, 0))
hIsland = hIsland.add(rect(9.131363186603781e-09, 1.0548297639611433e-09).transl(-1.0686865794437294e-07, 3.824539507683238e-08, 0))
hIsland = hIsland.add(rect(8.910225710360885e-09, 1.0706881351380726e-09).transl(-2.154754576633398e-08, 4e-08, 0))
hIsland = hIsland.add(rect(5.121686628127639e-09, 4.923270222655626e-10).transl(1.0414968696448864e-07, 3.9936116373275374e-08, 0))
hIsland = hIsland.sub(rect(5.624816947591871e-09, -1.949629562757937e-09).transl(-8.825114774126565e-08, 4e-08, 0))
hIsland = hIsland.sub(rect(6.419030815382475e-09, -1.0350897634979346e-09).transl(-4.3157165553774084e-08, 4e-08, 0))
hIsland = hIsland.add(rect(7.417969747471188e-09, 4.8341243977472104e-09).transl(9.691149680901407e-08, 4e-08, 0))
hIsland = hIsland.add(rect(8.06940577663578e-09, 1.6813125685717427e-09).transl(8.992203122604412e-08, 4e-08, 0))
hIsland = hIsland.add(rect(3.0809679373923713e-09, 7.017916209987584e-10).transl(-8.479528692166096e-08, 4e-08, 0))
hIsland = hIsland.sub(rect(4.748878357424993e-09, -1.7794569096942578e-09).transl(1.6208184871820057e-08, 4e-08, 0))
hIsland = hIsland.add(rect(5.2901715074222765e-09, 4.3306679393896584e-10).transl(-7.78132915265121e-08, 4e-08, 0))
hIsland = hIsland.add(rect(5.191312723191455e-09, 1.697487580320858e-10).transl(-6.504967618872286e-08, 4e-08, 0))
hIsland = hIsland.sub(rect(2.0639651370880357e-09, -1.2955298591303384e-10).transl(-3.242212694858283e-08, 4e-08, 0))
hIsland = hIsland.add(rect(8.027275156734786e-09, 8.448269103251698e-10).transl(-5.37008541849446e-09, 4e-08, 0))
hIsland = hIsland.add(rect(8.17421830438628e-09, 1.4409202251731393e-09).transl(1.5387215469154784e-08, 4e-08, 0))
hIsland = hIsland.sub(rect(4.58964703737114e-09, -9.413171498423073e-10).transl(9.25626611468277e-08, 4e-08, 0))
hIsland = hIsland.add(rect(3.3819377594304323e-09, 8.15261196682941e-10).transl(9.226953345781063e-08, 4e-08, 0))
hIsland = hIsland.sub(rect(4.888742362887734e-09, -1.9056506068942565e-09).transl(4.653345124116225e-08, 4e-08, 0))
hIsland = hIsland.sub(rect(8.301486643021618e-09, -8.697945298771573e-10).transl(6.698910140631312e-08, 4e-08, 0))
hIsland = hIsland.sub(rect(4.9808081649162594e-09, -2.6252722046990677e-09).transl(6.73368364018862e-08, 4e-08, 0))
hIsland = hIsland.add(rect(4.784375413042847e-09, 2.0727211054286244e-10).transl(-7.480835062333686e-08, 4e-08, 0))
hIsland = hIsland.add(rect(5.840591481691872e-09, 5.822903119328626e-11).transl(-1.070984299192431e-07, 3.799135145698252e-08, 0))
hIsland = hIsland.sub(rect(7.940862279584429e-09, -2.1926820275839958e-09).transl(-1.0866021935047761e-07, 3.574700199021869e-08, 0))
hIsland = hIsland.add(rect(6.362333609877663e-09, 3.5412695262875856e-09).transl(-1.2438379856166153e-08, 4e-08, 0))
hIsland = hIsland.add(rect(2.4009625995241788e-09, 1.7199619753591113e-09).transl(3.025746253563715e-08, 4e-08, 0))
hIsland = hIsland.sub(rect(7.433683861351266e-09, -1.1642228679615264e-09).transl(-8.497910864655418e-08, 4e-08, 0))
hIsland = hIsland.sub(rect(3.2324115035204005e-09, -1.2550423336174429e-09).transl(1.1060964699291319e-07, 3.143988429559907e-08, 0))
hIsland = hIsland.sub(rect(2.980124802034764e-09, -1.0428212190883737e-09).transl(7.66084028905167e-08, 4e-08, 0))
hIsland = hIsland.add(rect(5.5982699177609515e-09, 1.0912258886136908e-09).transl(2.7898995189567495e-08, 4e-08, 0))
hIsland = hIsland.add(rect(3.2419661086303216e-09, 1.3076491317494007e-09).transl(-1.0526215932269287e-08, 4e-08, 0))
hIsland = hIsland.add(rect(4.819326400747131e-09, 4.257135572471841e-09).transl(-2.9730451243543132e-08, 4e-08, 0))
hIsland = hIsland.add(rect(8.18730982160875e-09, 1.5131420056118466e-09).transl(-2.8456801998136234e-08, 4e-08, 0))
hIsland = hIsland.sub(rect(7.104371467512838e-09, -2.6262673744479544e-09).transl(8.473203960921818e-08, 4e-08, 0))
hIsland = hIsland.sub(rect(4.600237196075214e-09, -2.735342045721304e-09).transl(-4.375687910715996e-08, 4e-08, 0))
hIsland = hIsland.add(rect(9.596608394576752e-09, 1.8006551078597047e-09).transl(1.0794981799126925e-07, 3.688418411483686e-08, 0))
hIsland = hIsland.sub(rect(5.543317535150563e-09, -1.4691910967744964e-09).transl(8.518410267419606e-10, 4e-08, 0))
hIsland = hIsland.add(rect(5.250666485137185e-09, 4.0664803943929685e-09).transl(-2.6473143211882225e-08, 4e-08, 0))
hIsland = hIsland.add(rect(5.192362644318675e-09, 2.0660999076961808e-09).transl(1.100781843442395e-07, 3.280969762734658e-08, 0))
hIsland = hIsland.add(rect(5.506293143497531e-09, 1.146482415455723e-09).transl(5.543681004530178e-08, 4e-08, 0))
hIsland = hIsland.add(rect(6.944256857672689e-09, 1.4658461671034334e-10).transl(-2.1335612426298258e-08, 4e-08, 0))
hIsland = hIsland.sub(rect(9.817463495179016e-09, -2.640600541015132e-09).transl(-2.303667082249049e-08, 4e-08, 0))
hIsland = hIsland.add(rect(3.945877435653135e-09, 4.3086610463855004e-10).transl(-6.590208735046162e-08, 4e-08, 0))
hIsland = hIsland.sub(rect(8.424503322074451e-09, -3.4554118870936137e-10).transl(2.9926937695557e-08, 4e-08, 0))
hIsland = hIsland.add(rect(9.064548297904917e-09, 2.2221770104529434e-09).transl(-1.1336372092334626e-07, 2.0565027165982298e-08, 0))
hIsland = hIsland.sub(rect(2.4214826196618704e-09, -1.1251542472268378e-09).transl(6.452472291936017e-08, 4e-08, 0))
hIsland = hIsland.add(rect(9.482771636626325e-09, 2.0104761037599083e-10).transl(-1.0441855072929744e-07, 3.9872198793331957e-08, 0))
hIsland = hIsland.add(rect(8.959452677152072e-09, 2.144017411654219e-09).transl(-1.7890161449207855e-08, 4e-08, 0))
hIsland = hIsland.add(rect(3.31435292246894e-09, 3.081259921207391e-10).transl(-4.0379270255183386e-08, 4e-08, 0))
hIsland = hIsland.sub(rect(4.853913831937838e-09, -4.951066040343988e-10).transl(4.4386318821113766e-08, 4e-08, 0))
hIsland = hIsland.add(rect(6.784472935952659e-09, 7.640820421914378e-10).transl(-8.561925732139372e-08, 4e-08, 0))
hIsland = hIsland.sub(rect(7.484198122061944e-09, -2.013850985104029e-09).transl(-6.249461020781135e-08, 4e-08, 0))
hIsland = hIsland.sub(rect(7.551856401242434e-09, -6.383740616545149e-10).transl(4.2174734633513286e-08, 4e-08, 0))
hIsland = hIsland.sub(rect(5.736841841396075e-09, -1.9186158859497096e-10).transl(2.880789923599445e-09, 4e-08, 0))
hIsland = hIsland.sub(rect(5.2778921255136205e-09, -2.193359490052902e-09).transl(-6.44084207119997e-08, 4e-08, 0))
hIsland = hIsland.add(rect(5.766703125834593e-09, 2.711439524555986e-10).transl(-1.0408587007704633e-07, 3.9948057958149995e-08, 0))
hIsland = hIsland.add(rect(3.614276769661621e-09, 2.1543492207752986e-09).transl(-3.809983998524407e-08, 4e-08, 0))
hIsland = hIsland.sub(rect(2.841187726514094e-09, -8.204422225781233e-10).transl(7.512842027930872e-08, 4e-08, 0))
hIsland = hIsland.sub(rect(2.5564724636628163e-09, -1.8508318133548679e-09).transl(1.0308557537844484e-07, 4e-08, 0))
hIsland = hIsland.add(rect(5.148534757422349e-09, 7.796969433838544e-10).transl(-9.388679069771142e-08, 4e-08, 0))
hIsland = hIsland.sub(rect(6.413589614385643e-09, -5.914257042898983e-10).transl(-6.623300994931089e-08, 4e-08, 0))
hIsland = hIsland.sub(rect(7.268567431719146e-09, -1.7131666486098355e-09).transl(9.640318200230628e-08, 4e-08, 0))
hIsland = hIsland.add(rect(4.91042599251874e-09, 2.0363558807307115e-09).transl(-1.0715091689947459e-07, 3.793071878260299e-08, 0))
hIsland = hIsland.sub(rect(5.7703140440606246e-09, -9.581560652629221e-10).transl(-4.798563837741534e-08, 4e-08, 0))
hIsland = hIsland.sub(rect(4.686728066064028e-09, -6.073136338689407e-10).transl(4.6174713071017035e-09, 4e-08, 0))
hIsland = hIsland.add(rect(9.618760405663604e-09, 1.0781393376421745e-09).transl(4.3616154774744443e-08, 4e-08, 0))
hIsland = hIsland.sub(rect(3.4477011920839804e-09, -1.6488796409258923e-09).transl(-5.77714238973109e-08, 4e-08, 0))
hIsland = hIsland.sub(rect(8.44274608443276e-09, -5.244766951807682e-10).transl(-5.4199867550743485e-08, 4e-08, 0))
hIsland = hIsland.sub(rect(9.132343480767345e-09, -3.1443974747610073e-09).transl(-6.515343037931726e-08, 4e-08, 0))
hIsland = hIsland.sub(rect(2.5156201737580236e-09, -1.7478824437302114e-09).transl(3.846021766458682e-08, 4e-08, 0))
hIsland = hIsland.sub(rect(8.250162931039139e-09, -1.8696011662185966e-09).transl(7.539747905563091e-08, 4e-08, 0))
hIsland = hIsland.add(rect(6.415916418441203e-09, 5.577136850181765e-09).transl(-2.371180180394863e-09, 4e-08, 0))
hIsland = hIsland.add(rect(3.1432045013030045e-09, 9.49200359508482e-10).transl(1.1111789555638539e-07, 2.996510480526002e-08, 0))
hIsland = hIsland.sub(rect(9.087408093183534e-09, -1.138585534631039e-09).transl(-1.0660940112981273e-07, 3.851011694165926e-08, 0))
hIsland = hIsland.sub(rect(7.48273845098693e-09, -2.7120372166838793e-09).transl(9.397581899542322e-08, 4e-08, 0))
hIsland = hIsland.add(rect(4.7117861472099785e-09, 1.1622332003111866e-09).transl(6.293828959312542e-08, 4e-08, 0))
hIsland = hIsland.sub(rect(7.134484973562635e-09, -1.2861929241320747e-09).transl(-2.3188937727147656e-08, 4e-08, 0))
hIsland = hIsland.add(rect(7.434936359847151e-09, 1.2824544018298333e-09).transl(-1.0688977533203376e-07, 3.82228147823436e-08, 0))
hIsland = hIsland.sub(rect(9.642347722166188e-09, -2.912924383599985e-09).transl(-5.467882302602889e-08, 4e-08, 0))
hIsland = hIsland.sub(rect(2.227192092666622e-09, -1.3138439560227359e-09).transl(4.939748476867611e-08, 4e-08, 0))
hIsland = hIsland.add(rect(2.2266023938674088e-09, 2.49270169706941e-09).transl(6.936988945521778e-08, 4e-08, 0))
hIsland = hIsland.add(rect(5.9961606386263215e-09, 6.150507081230307e-10).transl(-1.1034935003263695e-07, 3.2131375712370275e-08, 0))
hIsland = hIsland.sub(rect(9.649201157472728e-09, -2.663642060846337e-09).transl(-4.227137443125677e-08, 4e-08, 0))
hIsland = hIsland.sub(rect(8.599872721363794e-09, -7.300776555534171e-09).transl(1.088178352201451e-07, 3.5466430861673944e-08, 0))
hIsland = hIsland.sub(rect(3.3295711374585982e-09, -1.5098496530094644e-09).transl(5.5751089081773e-08, 4e-08, 0))
hIsland = hIsland.add(rect(9.550619109803017e-09, 1.1613961443738522e-09).transl(5.8947482339473686e-08, 4e-08, 0))
hIsland = hIsland.add(rect(7.925577071446005e-09, 8.192556304463065e-10).transl(8.487878287229272e-08, 4e-08, 0))
hIsland = hIsland.add(rect(9.595110255616524e-09, 3.186453112991215e-09).transl(1.71423295184571e-10, 4e-08, 0))
hIsland = hIsland.sub(rect(2.0683488182762846e-09, -6.782989186008563e-11).transl(-5.525453098809542e-08, 4e-08, 0))
hIsland = hIsland.add(rect(6.081233339825056e-09, 9.325364700355278e-10).transl(-8.015722044856504e-08, 4e-08, 0))
hIsland = hIsland.add(rect(8.380598231476747e-09, 1.9047688801542228e-10).transl(-8.127370095402241e-08, 4e-08, 0))
hIsland = hIsland.add(rect(3.936094550827843e-09, 3.2806819670378048e-09).transl(1.07633779615215e-07, 3.732643369199392e-08, 0))
hIsland = hIsland.sub(rect(6.887982815707632e-09, -3.3169838873078866e-10).transl(-6.760407238355834e-08, 4e-08, 0))
hIsland = hIsland.add(rect(7.321522795806469e-09, 4.273125324444208e-09).transl(1.1159098518588189e-07, 2.8425278820617077e-08, 0))
hIsland = hIsland.sub(rect(3.565101625838259e-09, -4.0525541720468164e-10).transl(2.143511077221856e-08, 4e-08, 0))
hIsland = hIsland.add(rect(4.001503287280934e-09, 3.6656272349506947e-09).transl(-6.569399679477114e-08, 4e-08, 0))
hIsland = hIsland.add(rect(7.668682728625474e-09, 2.5716287221658556e-09).transl(3.0364424134175335e-08, 4e-08, 0))
hIsland = hIsland.sub(rect(7.1187283238921245e-09, -2.6513756020671684e-09).transl(1.1286240647332398e-07, 2.3227737809450178e-08, 0))
hIsland = hIsland.add(rect(4.71008768973106e-09, 2.3815772219972784e-09).transl(-2.077178574561524e-08, 4e-08, 0))
hIsland = hIsland.add(rect(5.798947504917634e-09, 8.683826807442443e-10).transl(-5.719270194492816e-08, 4e-08, 0))
hIsland = hIsland.sub(rect(7.548314506509409e-09, -2.1903700948030428e-09).transl(2.4727940093664217e-08, 4e-08, 0))
hIsland = hIsland.add(rect(2.411107645091125e-09, 3.840731685862479e-09).transl(2.3394260884674477e-08, 4e-08, 0))
hIsland = hIsland.add(rect(5.7640476386493266e-09, 2.893556847338663e-10).transl(7.271467462007101e-08, 4e-08, 0))
hIsland = hIsland.sub(rect(4.765990691180309e-09, -4.848733054172613e-10).transl(1.9078111930352838e-08, 4e-08, 0))
hIsland = hIsland.add(rect(4.252557265871421e-09, 1.3962754499316954e-09).transl(-8.651318556279864e-08, 4e-08, 0))
hIsland = hIsland.sub(rect(3.669457619760315e-09, -1.6515706559631722e-09).transl(8.108975062637299e-08, 4e-08, 0))
hIsland = hIsland.add(rect(4.26231824579543e-09, 3.7610610408109486e-10).transl(-8.166772492370971e-08, 4e-08, 0))
hIsland = hIsland.sub(rect(7.87824911974479e-09, -1.171554379168419e-09).transl(-9.112249796468499e-08, 4e-08, 0))
hIsland = hIsland.add(rect(3.3615155004354754e-09, 4.485746227446162e-11).transl(-1.1432435064730153e-07, 1.3508659381382032e-08, 0))
hIsland = hIsland.sub(rect(2.366573873745715e-09, -1.0042552230787656e-09).transl(6.118056871780245e-08, 4e-08, 0))
hIsland = hIsland.add(rect(3.825911399753062e-09, 6.457118574338775e-10).transl(-3.289990377154085e-08, 4e-08, 0))
hIsland = hIsland.sub(rect(3.6605247466820317e-09, -5.373532441350151e-10).transl(-1.5290291545597317e-08, 4e-08, 0))
hIsland = hIsland.sub(rect(9.524174454273329e-09, -1.469274833584368e-09).transl(-6.667374235640552e-09, 4e-08, 0))
hIsland = hIsland.sub(rect(7.549908642017645e-09, -2.3951857339102665e-09).transl(5.729299236998606e-08, 4e-08, 0))
hIsland = hIsland.add(rect(7.408511189395986e-09, 2.0066072371897933e-09).transl(-5.393772487960574e-08, 4e-08, 0))
hIsland = hIsland.sub(rect(8.453737474330546e-09, -2.62982232103578e-09).transl(-1.1412707737860947e-07, 1.5286640502860873e-08, 0))
hIsland = hIsland.add(rect(6.378136695812916e-09, 4.944344108532311e-10).transl(9.265307839473029e-08, 4e-08, 0))
hIsland = hIsland.add(rect(8.206036937311116e-09, 5.481903802045911e-10).transl(3.763793829017175e-08, 4e-08, 0))
hIsland = hIsland.sub(rect(3.805116793594081e-09, -2.3222704243773599e-10).transl(-4.502277820933065e-09, 4e-08, 0))
hIsland = hIsland.sub(rect(9.284589660969173e-09, -2.84436245838519e-09).transl(-6.6557795184864e-08, 4e-08, 0))
hIsland = hIsland.sub(rect(4.6208880564203695e-09, -8.080948629389991e-10).transl(8.484877160708404e-08, 4e-08, 0))
hIsland = hIsland.sub(rect(5.654735731031678e-09, -1.1721377623460693e-09).transl(-1.658760258768521e-08, 4e-08, 0))
hIsland = hIsland.add(rect(2.59223162015567e-09, 8.150870755519943e-10).transl(-9.807373085603791e-08, 4e-08, 0))
hIsland = hIsland.sub(rect(2.056955571681633e-09, -1.3610426221326854e-09).transl(-6.458084713314605e-08, 4e-08, 0))
hIsland = hIsland.sub(rect(4.123643350739774e-09, -5.358648870410392e-10).transl(1.038435743126229e-07, 3.9982144474746025e-08, 0))
hIsland = hIsland.add(rect(7.992009222427293e-09, 2.004973421716512e-09).transl(-1.0185976580193926e-07, 4e-08, 0))
hIsland = hIsland.add(rect(8.116123800668854e-09, 1.5291954022618431e-09).transl(-8.601282888422775e-08, 4e-08, 0))
hIsland = hIsland.add(rect(7.106407731244341e-09, 3.289539259648161e-09).transl(1.681994213392053e-08, 4e-08, 0))
hIsland = hIsland.add(rect(8.058851774452142e-09, 1.0182652090801838e-09).transl(-7.48076601816965e-08, 4e-08, 0))
hIsland = hIsland.sub(rect(3.346621209587374e-09, -1.0946892916784477e-09).transl(-6.773027646391114e-08, 4e-08, 0))
hIsland = hIsland.sub(rect(3.851817326952881e-09, -8.073788022933859e-10).transl(9.312837736021863e-08, 4e-08, 0))
hIsland = hIsland.sub(rect(3.557061251260878e-09, -7.713336966044575e-11).transl(-2.7931701897864363e-08, 4e-08, 0))
hIsland = hIsland.sub(rect(8.70618528408324e-09, -2.529761604574908e-10).transl(1.9653272500222247e-08, 4e-08, 0))
hIsland = hIsland.sub(rect(4.01512576599434e-09, -1.5069322200994732e-10).transl(-8.866411532127978e-08, 4e-08, 0))
hIsland = hIsland.sub(rect(9.28687858104534e-09, -1.1208528772497489e-09).transl(-9.645319950690801e-08, 4e-08, 0))
hIsland = hIsland.add(rect(4.210567085436485e-09, 1.1204645771489814e-09).transl(-7.761920411581264e-09, 4e-08, 0))
hIsland = hIsland.sub(rect(3.0775905253659766e-09, -1.448021091659962e-09).transl(9.265028739067712e-08, 4e-08, 0))
vIsland = hIsland.rotz(pi / 2)
hIslands = hIslands.add(hIsland.transl(-a/2, a, 0))
hIsland = rect(islandLength-2*ellipseConstant, islandWidth)
hIsland = hIsland.add(ellipse(ellipseConstant*2, islandWidth).transl(islandLength/2-ellipseConstant, 0, 0))
hIsland = hIsland.add(ellipse(ellipseConstant*2, islandWidth).transl(-islandLength/2+ellipseConstant, 0, 0))
hIsland = hIsland.sub(rect(9.727776414818775e-09, -1.3947804207296472e-09).transl(-9.22495215745371e-08, -4e-08, 0))
hIsland = hIsland.add(rect(7.425636009520066e-09, 2.2505011262663014e-09).transl(1.0298373986119788e-08, -4e-08, 0))
hIsland = hIsland.add(rect(2.0029592099889744e-09, 3.3458440673810155e-10).transl(-8.770177120876722e-09, -4e-08, 0))
hIsland = hIsland.add(rect(9.276683553402343e-09, 2.368248319998977e-09).transl(4.1643113956310505e-08, -4e-08, 0))
hIsland = hIsland.sub(rect(3.147683822654881e-09, -1.0560440171953495e-09).transl(4.7586394897995704e-08, -4e-08, 0))
hIsland = hIsland.add(rect(6.662484330778472e-09, 1.3948009961687381e-09).transl(2.4660726623375377e-08, -4e-08, 0))
hIsland = hIsland.sub(rect(7.1293885437479335e-09, -2.5873103240940597e-09).transl(-1.4263645793413827e-08, -4e-08, 0))
hIsland = hIsland.sub(rect(9.727888745439678e-09, -2.7201766108391714e-09).transl(-3.246781747789389e-08, -4e-08, 0))
hIsland = hIsland.sub(rect(5.978890151984848e-09, -1.4075607382976958e-09).transl(-9.83476318298283e-09, -4e-08, 0))
hIsland = hIsland.sub(rect(3.42549333994507e-09, -7.708984895632884e-11).transl(1.1139925520821661e-07, -2.907038943917827e-08, 0))
hIsland = hIsland.add(rect(9.94985948170481e-09, 9.970928197001107e-10).transl(1.217604332963146e-08, -4e-08, 0))
hIsland = hIsland.sub(rect(6.071621955756977e-09, -2.2875987995795237e-09).transl(7.725958581196361e-08, -4e-08, 0))
hIsland = hIsland.sub(rect(9.450748181230316e-09, -2.5636147344704883e-10).transl(5.374466380810856e-08, -4e-08, 0))
hIsland = hIsland.add(rect(4.860112323888056e-09, 6.642726782049039e-10).transl(1.0790176080513993e-07, -3.695388255568029e-08, 0))
hIsland = hIsland.add(rect(6.364055438570155e-09, 1.1135705405836703e-09).transl(-1.9483754714955906e-08, -4e-08, 0))
hIsland = hIsland.sub(rect(3.2009869158460413e-09, -2.440138727917789e-09).transl(-5.53758993327967e-08, -4e-08, 0))
hIsland = hIsland.add(rect(4.282110595406656e-09, 1.5827934155430442e-09).transl(-1.0871536892745685e-07, -3.5650040564044015e-08, 0))
hIsland = hIsland.sub(rect(3.5016921273238266e-09, -6.812053770558331e-10).transl(1.000755222317647e-07, -4e-08, 0))
hIsland = hIsland.add(rect(7.129735680347202e-09, 2.906456763837434e-09).transl(-1.1495870150998789e-07, -3.3869040884510503e-09, 0))
hIsland = hIsland.sub(rect(4.069452498794549e-09, -2.2133465367119507e-10).transl(9.369671099049791e-08, -4e-08, 0))
hIsland = hIsland.add(rect(3.654898664805367e-09, 2.1879732453062193e-10).transl(-5.716267139425725e-08, -4e-08, 0))
hIsland = hIsland.sub(rect(8.555358888942173e-09, -1.4006385859693496e-10).transl(-3.8616461164468875e-08, -4e-08, 0))
hIsland = hIsland.sub(rect(2.108400328452727e-09, -1.1863621763612187e-10).transl(-3.6401800588309936e-08, -4e-08, 0))
hIsland = hIsland.sub(rect(7.759255148309702e-09, -1.76706984227907e-09).transl(6.024704966462744e-08, -4e-08, 0))
hIsland = hIsland.add(rect(4.856312976971258e-09, 1.2135818276317996e-09).transl(1.1373701093222084e-07, -1.8224761708736646e-08, 0))
hIsland = hIsland.add(rect(5.837741367285641e-09, 1.819177160769219e-09).transl(3.663138496079701e-08, -4e-08, 0))
hIsland = hIsland.sub(rect(7.409546547658491e-09, -3.5925725712558622e-09).transl(6.21590734505933e-08, -4e-08, 0))
hIsland = hIsland.add(rect(8.107953591979375e-09, 1.4613979520798494e-09).transl(-9.423928935309155e-08, -4e-08, 0))
hIsland = hIsland.add(rect(6.335612510724018e-09, 7.183323194272911e-10).transl(6.823008180409931e-08, -4e-08, 0))
hIsland = hIsland.sub(rect(8.550469268448553e-09, -2.158780381668316e-10).transl(-5.34376946082124e-08, -4e-08, 0))
hIsland = hIsland.sub(rect(7.964449280760822e-09, -3.1185845172642863e-10).transl(-7.1870096056942e-08, -4e-08, 0))
hIsland = hIsland.sub(rect(8.710200254961717e-09, -2.729600263456979e-09).transl(6.869951761175435e-08, -4e-08, 0))
hIsland = hIsland.add(rect(7.068882307979261e-09, 2.901606784247282e-10).transl(1.0795103657619719e-08, -4e-08, 0))
hIsland = hIsland.add(rect(3.607486382835731e-09, 2.8444498190150476e-09).transl(4.131896239380798e-08, -4e-08, 0))
hIsland = hIsland.sub(rect(8.586842559551345e-09, -1.0152424068677494e-09).transl(-3.133655072582107e-09, -4e-08, 0))
hIsland = hIsland.add(rect(7.225519441164554e-09, 1.935993769370278e-09).transl(-6.840470371796849e-08, -4e-08, 0))
hIsland = hIsland.add(rect(3.2457531445164725e-09, 1.635259298494186e-10).transl(6.893337577608201e-08, -4e-08, 0))
hIsland = hIsland.sub(rect(4.890806091522487e-09, -2.6295088812563326e-09).transl(-8.32035033969945e-08, -4e-08, 0))
hIsland = hIsland.add(rect(9.47801204151782e-09, 1.8547890010687455e-09).transl(-8.762854592977458e-08, -4e-08, 0))
hIsland = hIsland.add(rect(8.100724487780376e-09, 1.0024151401245376e-09).transl(-7.506107716710234e-08, -4e-08, 0))
hIsland = hIsland.add(rect(8.555102287811028e-09, 2.1219484937014708e-10).transl(-9.522134118218536e-08, -4e-08, 0))
hIsland = hIsland.add(rect(6.81805902174922e-09, 2.4426587139552714e-09).transl(9.841870574804703e-08, -4e-08, 0))
hIsland = hIsland.sub(rect(3.8568792021859064e-09, -2.8018287563433194e-09).transl(9.573244877479542e-08, -4e-08, 0))
hIsland = hIsland.sub(rect(4.962850364462144e-09, -3.546654601470393e-09).transl(9.117307813066035e-08, -4e-08, 0))
hIsland = hIsland.sub(rect(8.121067590422908e-09, -8.566379257009635e-10).transl(-3.7975396759713685e-08, -4e-08, 0))
hIsland = hIsland.add(rect(7.380746463420275e-09, 3.025638396339895e-09).transl(7.926747108575352e-08, -4e-08, 0))
hIsland = hIsland.sub(rect(6.023635358481173e-09, -5.183530463904825e-10).transl(-7.055197773454728e-08, -4e-08, 0))
hIsland = hIsland.add(rect(5.567534787453892e-09, 6.830894989981042e-10).transl(-8.152420279559491e-08, -4e-08, 0))
hIsland = hIsland.sub(rect(7.239149715297307e-09, -5.174032449737656e-10).transl(1.1445727554707594e-07, -1.2143122595306125e-08, 0))
hIsland = hIsland.sub(rect(9.76857749652498e-09, -2.982862784868876e-09).transl(-2.259983572180299e-08, -4e-08, 0))
hIsland = hIsland.add(rect(7.624109015153726e-09, 4.71554570151892e-10).transl(2.460684086531261e-08, -4e-08, 0))
hIsland = hIsland.add(rect(2.164409573012726e-09, 5.146970994296761e-10).transl(-7.048692539580414e-08, -4e-08, 0))
hIsland = hIsland.add(rect(4.796217025386768e-09, 1.8662876975790734e-09).transl(3.3658387476339616e-08, -4e-08, 0))
hIsland = hIsland.sub(rect(4.620844772783395e-09, -1.0482503020832892e-09).transl(1.0544963566976055e-07, -3.942097675099372e-08, 0))
hIsland = hIsland.sub(rect(2.8080107814865712e-09, -1.0837555518461832e-09).transl(-4.3002090984182695e-08, -4e-08, 0))
hIsland = hIsland.add(rect(6.396694148011182e-09, 2.3622494787813917e-09).transl(-3.456940627543291e-08, -4e-08, 0))
hIsland = hIsland.add(rect(7.353693294684904e-09, 1.9728260075785336e-10).transl(-1.127359224379798e-07, -2.3832493386788883e-08, 0))
hIsland = hIsland.add(rect(3.85971399338678e-09, 3.0759264985579733e-10).transl(-5.367826820654998e-08, -4e-08, 0))
hIsland = hIsland.add(rect(9.210433466803537e-09, 2.995707724308574e-10).transl(3.108382412581011e-08, -4e-08, 0))
hIsland = hIsland.add(rect(5.2290967798737365e-09, 5.910412305176074e-10).transl(2.4362167791870867e-08, -4e-08, 0))
hIsland = hIsland.add(rect(5.434743864769137e-09, 1.7077934006278636e-09).transl(-9.903614962578627e-08, -4e-08, 0))
hIsland = hIsland.add(rect(4.257173334380985e-09, 1.1303740938695212e-09).transl(2.8330381307698054e-08, -4e-08, 0))
hIsland = hIsland.add(rect(6.406057504502954e-09, 9.975595734721127e-10).transl(-2.3612505494122737e-08, -4e-08, 0))
hIsland = hIsland.sub(rect(4.98763155700765e-09, -4.445393033891267e-09).transl(-8.931061084157246e-08, -4e-08, 0))
hIsland = hIsland.add(rect(6.096500045915661e-09, 5.104290433626136e-11).transl(-3.705950671065433e-08, -4e-08, 0))
hIsland = hIsland.add(rect(8.404644549612477e-09, 3.0140526626177196e-09).transl(-1.7473129593448745e-08, -4e-08, 0))
hIsland = hIsland.add(rect(4.650841178217507e-09, 1.0777739635615946e-09).transl(-2.7949990936012685e-08, -4e-08, 0))
hIsland = hIsland.sub(rect(9.002670726155488e-09, -1.089170056777968e-09).transl(-9.090314011562406e-08, -4e-08, 0))
hIsland = hIsland.add(rect(5.9646970842541855e-09, 1.0329324719479375e-09).transl(1.1126684586284293e-07, -2.9498872946147588e-08, 0))
hIsland = hIsland.add(rect(6.36963821233499e-09, 1.3239722835852385e-09).transl(6.540148802665744e-08, -4e-08, 0))
hIsland = hIsland.sub(rect(9.147744263245837e-09, -8.315075738408902e-10).transl(1.1072299523319398e-07, -3.112573972100376e-08, 0))
hIsland = hIsland.add(rect(2.8648919111915082e-09, 1.9301777334418043e-09).transl(9.919769400719627e-08, -4e-08, 0))
hIsland = hIsland.sub(rect(8.00620130194881e-09, -1.0912982000036807e-09).transl(-7.436839198444132e-08, -4e-08, 0))
hIsland = hIsland.add(rect(9.1467362083859e-09, 1.5704554325063391e-09).transl(1.1713827989658528e-08, -4e-08, 0))
hIsland = hIsland.add(rect(4.617584649920109e-09, 2.804244845919806e-10).transl(4.701697281447039e-08, -4e-08, 0))
hIsland = hIsland.add(rect(9.909232329238045e-09, 8.56317925900934e-10).transl(4.106354176948457e-08, -4e-08, 0))
hIsland = hIsland.sub(rect(8.258304480800547e-09, -3.593850780125558e-09).transl(-6.713877278520216e-08, -4e-08, 0))
hIsland = hIsland.sub(rect(5.611863253028009e-09, -6.940435665439911e-11).transl(1.1190350862312239e-07, -2.7306240382177176e-08, 0))
hIsland = hIsland.sub(rect(4.709874583237572e-09, -4.966888991593692e-10).transl(4.398547785756931e-08, -4e-08, 0))
hIsland = hIsland.add(rect(7.4476641120611945e-09, 2.3960005923793167e-09).transl(-7.2991106291832e-08, -4e-08, 0))
hIsland = hIsland.sub(rect(7.21786615927864e-09, -1.290921931693023e-09).transl(7.461106108706306e-08, -4e-08, 0))
hIsland = hIsland.add(rect(3.014873147629695e-09, 1.1492570414914022e-09).transl(-3.350717709284118e-08, -4e-08, 0))
hIsland = hIsland.sub(rect(2.0715936765082503e-09, -9.919808051640077e-10).transl(2.2869044158347878e-08, -4e-08, 0))
hIsland = hIsland.sub(rect(2.756424093315957e-09, -2.7395796363816886e-10).transl(-1.1081568293060695e-08, -4e-08, 0))
hIsland = hIsland.sub(rect(9.692949794758608e-09, -5.551828868389053e-09).transl(-6.599745341362944e-08, -4e-08, 0))
hIsland = hIsland.sub(rect(5.796522045460338e-09, -2.4829462445067665e-10).transl(1.2089086117858432e-09, -4e-08, 0))
hIsland = hIsland.sub(rect(5.830558863575709e-09, -8.021300164569053e-10).transl(-3.506427867442136e-08, -4e-08, 0))
hIsland = hIsland.add(rect(3.5968848691326292e-09, 3.3013562571432095e-09).transl(5.280105334562611e-08, -4e-08, 0))
hIsland = hIsland.add(rect(6.322071892903074e-09, 1.967520354739709e-09).transl(6.60675745540663e-08, -4e-08, 0))
hIsland = hIsland.add(rect(7.918321546002407e-09, 1.158377916425931e-09).transl(-2.96854726726415e-09, -4e-08, 0))
hIsland = hIsland.sub(rect(6.737510406247642e-09, -4.3539277187870813e-10).transl(8.446744187724372e-08, -4e-08, 0))
hIsland = hIsland.add(rect(2.055708465643991e-09, 5.300511929894843e-09).transl(-1.0825128147400069e-07, -3.6426430397636616e-08, 0))
hIsland = hIsland.add(rect(2.275660208660116e-09, 8.389241372099121e-10).transl(3.8156197886320626e-08, -4e-08, 0))
hIsland = hIsland.sub(rect(3.469360234691343e-09, -4.646881461125423e-10).transl(-6.523489071237535e-08, -4e-08, 0))
hIsland = hIsland.add(rect(3.589308161014177e-09, 2.0372636686464133e-09).transl(-3.131680539865256e-08, -4e-08, 0))
hIsland = hIsland.sub(rect(5.549078237691651e-09, -4.6100766684495117e-10).transl(1.1583787926283575e-08, -4e-08, 0))
hIsland = hIsland.add(rect(7.641807898916713e-09, 9.499258833487626e-10).transl(2.7693469251298598e-08, -4e-08, 0))
hIsland = hIsland.sub(rect(8.560351891435536e-09, -3.323431713559467e-09).transl(2.614390015517422e-08, -4e-08, 0))
hIsland = hIsland.sub(rect(2.401709940581217e-09, -2.897820726626093e-09).transl(-1.0403541404717515e-07, -3.995662401244801e-08, 0))
hIsland = hIsland.add(rect(3.730937941554355e-09, 9.763879308052918e-11).transl(6.216144462419525e-08, -4e-08, 0))
hIsland = hIsland.add(rect(8.753621007950728e-09, 7.566874432971093e-10).transl(9.374856668378647e-08, -4e-08, 0))
hIsland = hIsland.add(rect(3.6626102694102543e-09, 9.810378860523143e-10).transl(-1.0090993331709412e-07, -4e-08, 0))
hIsland = hIsland.add(rect(2.6972012830465265e-09, 1.5127651806146442e-09).transl(1.099003835303645e-07, -3.32324283131708e-08, 0))
hIsland = hIsland.sub(rect(7.765932526054025e-09, -4.431843937927526e-10).transl(5.1625845719118964e-08, -4e-08, 0))
hIsland = hIsland.add(rect(4.996129028194866e-09, 3.038414419100601e-09).transl(-1.0626855063894933e-07, -3.882355060368486e-08, 0))
hIsland = hIsland.sub(rect(7.384660563745538e-09, -3.6121722723183423e-09).transl(-2.8027691784716107e-08, -4e-08, 0))
hIsland = hIsland.sub(rect(4.53885013953112e-09, -9.209326642430277e-10).transl(-9.174260355659151e-08, -4e-08, 0))
hIsland = hIsland.sub(rect(3.536509592564851e-09, -1.790249559171262e-09).transl(-3.3624829092929136e-08, -4e-08, 0))
hIsland = hIsland.sub(rect(7.62748244790387e-09, -1.9854451899760857e-09).transl(-8.71058170061439e-08, -4e-08, 0))
hIsland = hIsland.sub(rect(8.62690441120973e-09, -3.1125539061452624e-10).transl(8.739147393179272e-08, -4e-08, 0))
hIsland = hIsland.sub(rect(5.28782959579198e-09, -1.7936239192184737e-09).transl(-2.752227462102967e-09, -4e-08, 0))
hIsland = hIsland.sub(rect(2.5232441389624453e-09, -7.011757678436321e-10).transl(-7.952931190773674e-08, -4e-08, 0))
hIsland = hIsland.add(rect(8.709419203018892e-09, 8.08175616162716e-10).transl(4.304537040070407e-08, -4e-08, 0))
hIsland = hIsland.sub(rect(2.91028173720371e-09, -2.802796531650941e-10).transl(8.46242781567636e-08, -4e-08, 0))
hIsland = hIsland.add(rect(7.989241324357199e-09, 9.793833749731162e-10).transl(-7.95147924121948e-08, -4e-08, 0))
hIsland = hIsland.add(rect(7.956393912176013e-09, 1.251369199101156e-09).transl(-1.0136785065902435e-07, -4e-08, 0))
hIsland = hIsland.sub(rect(7.263618265968307e-09, -4.298760805446801e-10).transl(2.125896965423206e-08, -4e-08, 0))
hIsland = hIsland.add(rect(7.93387188205881e-09, 8.411703496135079e-10).transl(2.46685032141705e-08, -4e-08, 0))
hIsland = hIsland.add(rect(8.067696053425274e-09, 3.2766258726716177e-10).transl(-1.0722767046715756e-07, -3.7840292846799835e-08, 0))
hIsland = hIsland.sub(rect(7.810014018105764e-09, -2.0178978500294927e-09).transl(4.253177715046869e-08, -4e-08, 0))
hIsland = hIsland.sub(rect(2.516961601065463e-09, -1.7878638999922572e-09).transl(-8.597337854473315e-08, -4e-08, 0))
hIsland = hIsland.sub(rect(6.649441092421589e-09, -3.505758830489788e-10).transl(-7.405210618502693e-08, -4e-08, 0))
hIsland = hIsland.sub(rect(3.39507067893941e-09, -8.695966177612973e-10).transl(-1.5742539062396132e-08, -4e-08, 0))
hIsland = hIsland.sub(rect(3.9705464938705865e-09, -2.482652038348988e-10).transl(-8.899307789618828e-08, -4e-08, 0))
hIsland = hIsland.sub(rect(5.154181223550447e-09, -1.2364240119081543e-09).transl(9.957373825411647e-08, -4e-08, 0))
hIsland = hIsland.add(rect(8.608055478104358e-09, 5.061022548868785e-10).transl(1.365404583946884e-08, -4e-08, 0))
hIsland = hIsland.sub(rect(8.667129165006937e-09, -5.439865911233264e-10).transl(-2.0625361816631413e-08, -4e-08, 0))
hIsland = hIsland.sub(rect(7.081756070468617e-09, -5.519075863487091e-10).transl(-4.293980465867413e-08, -4e-08, 0))
hIsland = hIsland.sub(rect(3.830176866735198e-09, -1.983668690921234e-09).transl(-1.0993301311421191e-07, -3.3156117813683953e-08, 0))
hIsland = hIsland.sub(rect(9.646948878545832e-09, -1.8353744079747006e-10).transl(-1.043947333011595e-08, -4e-08, 0))
hIsland = hIsland.sub(rect(7.626848023148678e-09, -8.439101778909251e-10).transl(1.8363946229799093e-08, -4e-08, 0))
hIsland = hIsland.add(rect(7.525933386571976e-09, 1.9595687867322946e-10).transl(4.1899626542076805e-08, -4e-08, 0))
hIsland = hIsland.sub(rect(8.782603660356219e-09, -5.089807936920156e-09).transl(8.160260668801378e-08, -4e-08, 0))
hIsland = hIsland.add(rect(8.951934654009392e-09, 2.947255302998249e-09).transl(1.0524649682837661e-07, -3.953602345061696e-08, 0))
hIsland = hIsland.sub(rect(4.5876682629410095e-09, -1.2917149075246463e-09).transl(-9.798394209268403e-08, -4e-08, 0))
hIsland = hIsland.sub(rect(9.92377075850861e-09, -1.5614873609495413e-09).transl(-1.1119261836025541e-07, -2.9733256020564118e-08, 0))
hIsland = hIsland.sub(rect(6.795964134924226e-09, -9.66481460657772e-10).transl(-2.9435334891058774e-09, -4e-08, 0))
hIsland = hIsland.sub(rect(3.8376948236017026e-09, -2.1113401094905345e-10).transl(-1.0900673804607063e-07, -3.511593951352907e-08, 0))
hIsland = hIsland.sub(rect(3.021409506528361e-09, -3.278947745135275e-10).transl(3.593362862051774e-08, -4e-08, 0))
hIsland = hIsland.sub(rect(4.212836563322144e-09, -2.9208538789750407e-09).transl(-7.465055184070168e-08, -4e-08, 0))
hIsland = hIsland.sub(rect(8.863067353716563e-09, -3.2901755143542225e-09).transl(6.371923466638228e-08, -4e-08, 0))
hIsland = hIsland.add(rect(7.288991928661563e-09, 2.7666197416726786e-11).transl(7.209127560671713e-08, -4e-08, 0))
hIsland = hIsland.sub(rect(7.978040976751679e-09, -1.939274839985751e-09).transl(-3.2234405880867714e-08, -4e-08, 0))
hIsland = hIsland.add(rect(2.179263655991102e-09, 8.523116149308172e-10).transl(1.1498605172701425e-07, -1.9694935373561224e-09, 0))
hIsland = hIsland.sub(rect(4.52649169962016e-09, -1.9551137497678123e-09).transl(-6.153209155186759e-08, -4e-08, 0))
hIsland = hIsland.sub(rect(5.06822067592751e-09, -1.103385942352723e-09).transl(1.0656114598151859e-07, -3.8556860664876216e-08, 0))
hIsland = hIsland.add(rect(9.43307068834012e-09, 2.7289469206729347e-09).transl(6.639327405011533e-08, -4e-08, 0))
hIsland = hIsland.sub(rect(4.6174009116046364e-09, -2.3860447881750508e-09).transl(9.11904436704229e-08, -4e-08, 0))
hIsland = hIsland.sub(rect(8.784310792208568e-09, -3.968193860918711e-09).transl(-4.5840292232814794e-08, -4e-08, 0))
hIsland = hIsland.add(rect(2.2741166229441544e-09, 1.4491419490845018e-09).transl(8.953504897095334e-08, -4e-08, 0))
hIsland = hIsland.add(rect(8.42863175833031e-09, 5.361721718468641e-10).transl(9.585008709550826e-08, -4e-08, 0))
hIsland = hIsland.sub(rect(7.35016535856221e-09, -1.6533253988444495e-09).transl(-7.020558064486508e-08, -4e-08, 0))
hIsland = hIsland.sub(rect(8.633696534598626e-09, -3.763867944486786e-10).transl(-1.1242188750361666e-07, -2.5238353715568895e-08, 0))
hIsland = hIsland.sub(rect(4.415889599901557e-09, -2.8041372247257597e-10).transl(-1.0095264103388153e-07, -4e-08, 0))
hIsland = hIsland.sub(rect(8.282108611692124e-09, -1.5016796624316352e-09).transl(-8.836272286606447e-08, -4e-08, 0))
hIsland = hIsland.add(rect(8.706110045643615e-09, 7.400636327154015e-10).transl(-1.0018177531517741e-07, -4e-08, 0))
hIsland = hIsland.sub(rect(7.556005473557228e-09, -5.181491030565962e-10).transl(8.610070813519989e-08, -4e-08, 0))
hIsland = hIsland.sub(rect(9.25332714837177e-09, -7.77585284497745e-10).transl(8.081032679201955e-08, -4e-08, 0))
hIsland = hIsland.sub(rect(5.573043544682739e-09, -4.328489207891362e-09).transl(2.8050765675445683e-08, -4e-08, 0))
hIsland = hIsland.sub(rect(5.346912247091137e-09, -2.0963094013484065e-09).transl(-1.8657128433663618e-08, -4e-08, 0))
hIsland = hIsland.sub(rect(3.773420549030568e-09, -2.0512662490395086e-09).transl(4.5395616414771416e-08, -4e-08, 0))
hIsland = hIsland.add(rect(9.978669519589687e-09, 1.0866183567854246e-09).transl(7.02224984884886e-08, -4e-08, 0))
hIsland = hIsland.sub(rect(3.802877477010595e-09, -2.1278911923068644e-09).transl(-2.5122941191886927e-08, -4e-08, 0))
hIsland = hIsland.sub(rect(4.045397830480704e-09, -3.5177183364927804e-09).transl(-9.969906275366401e-08, -4e-08, 0))
hIsland = hIsland.add(rect(2.100441878153161e-09, 7.754497531922483e-10).transl(1.6350259839201225e-08, -4e-08, 0))
hIsland = hIsland.sub(rect(4.968236162720618e-09, -9.196896855229405e-10).transl(1.6211085844985804e-08, -4e-08, 0))
hIsland = hIsland.add(rect(6.6959609500545046e-09, 2.860650523656427e-10).transl(-4.0571752029041836e-08, -4e-08, 0))
hIsland = hIsland.add(rect(9.045849020175007e-09, 3.770447739917084e-09).transl(-1.2692850183451221e-08, -4e-08, 0))
hIsland = hIsland.sub(rect(8.416806669739374e-09, -2.4039897888031612e-09).transl(7.30911878458607e-08, -4e-08, 0))
hIsland = hIsland.add(rect(3.077388189310563e-09, 6.473005348746458e-10).transl(3.738758429495097e-08, -4e-08, 0))
hIsland = hIsland.sub(rect(2.226326363520876e-09, -9.26895056379695e-10).transl(1.0650901559148614e-07, -3.860647469839094e-08, 0))
hIsland = hIsland.add(rect(6.554168799086825e-09, 5.891784119759633e-10).transl(-1.6015324214934477e-08, -4e-08, 0))
hIsland = hIsland.add(rect(4.641056869374162e-09, 7.132120941891208e-10).transl(-1.0070457551041559e-07, -4e-08, 0))
hIsland = hIsland.sub(rect(7.589904711817325e-09, -1.225372228011724e-10).transl(-7.806980891630177e-09, -4e-08, 0))
hIsland = hIsland.add(rect(5.3760969718311525e-09, 1.348659129330016e-09).transl(4.725265094388037e-08, -4e-08, 0))
hIsland = hIsland.sub(rect(4.3018596276089075e-09, -1.139559496534567e-09).transl(-3.768722052450181e-08, -4e-08, 0))
hIsland = hIsland.sub(rect(7.895785713743117e-09, -2.9824150713238536e-10).transl(1.8644279674455964e-08, -4e-08, 0))
hIsland = hIsland.sub(rect(5.394276904465587e-09, -1.478325234266481e-09).transl(-3.047538126045221e-08, -4e-08, 0))
hIsland = hIsland.add(rect(3.147836802577396e-09, 1.1380642005760843e-10).transl(4.20425775869693e-08, -4e-08, 0))
hIsland = hIsland.sub(rect(8.437328750716513e-09, -1.424293919802412e-09).transl(-3.050643602751886e-08, -4e-08, 0))
hIsland = hIsland.sub(rect(9.768959706613372e-09, -5.5048778777081544e-09).transl(4.8151484468526535e-08, -4e-08, 0))
hIsland = hIsland.add(rect(3.3197057373442526e-09, 6.42452661973763e-10).transl(9.883347805272432e-08, -4e-08, 0))
hIsland = hIsland.add(rect(3.875877036665207e-09, 2.3187722530148803e-09).transl(-4.495519809435251e-08, -4e-08, 0))
hIsland = hIsland.add(rect(3.2048997174899113e-09, 2.33568444566363e-09).transl(2.4709840701536764e-08, -4e-08, 0))
hIsland = hIsland.add(rect(7.101033388460712e-09, 1.8064594679567052e-09).transl(8.308459095338709e-08, -4e-08, 0))
hIsland = hIsland.sub(rect(2.4096589594035747e-09, -2.5097345167627725e-09).transl(-1.9233326026012384e-08, -4e-08, 0))
hIsland = hIsland.sub(rect(6.240057660512044e-09, -2.2368337033436063e-09).transl(-9.125380884166204e-08, -4e-08, 0))
hIsland = hIsland.sub(rect(5.026527439225913e-09, -3.2430726260390617e-09).transl(1.539339067491119e-10, -4e-08, 0))
hIsland = hIsland.add(rect(2.520705902263541e-09, 2.373869291503052e-09).transl(4.967514469981623e-08, -4e-08, 0))
hIsland = hIsland.add(rect(6.5313127991830685e-09, 8.58017450250815e-11).transl(2.2001573087240688e-08, -4e-08, 0))
hIsland = hIsland.add(rect(4.7864846674783326e-09, 7.367722377928938e-10).transl(-6.030178131109432e-08, -4e-08, 0))
hIsland = hIsland.add(rect(2.053197400522529e-09, 1.2737883762758236e-09).transl(1.0619938665069419e-07, -3.8882431363070236e-08, 0))
hIsland = hIsland.sub(rect(3.520650468152501e-09, -2.1134894568937693e-09).transl(-3.2774370762756496e-08, -4e-08, 0))
hIsland = hIsland.add(rect(5.6591168575142506e-09, 8.032192794027477e-11).transl(6.276759604034388e-08, -4e-08, 0))
hIsland = hIsland.add(rect(8.305130596578142e-09, 1.2912920140547786e-09).transl(-1.1470927076788764e-07, -8.937336211192449e-09, 0))
hIsland = hIsland.sub(rect(3.3677486919419064e-09, -3.2717854950579386e-10).transl(-1.8970501570204324e-08, -4e-08, 0))
hIsland = hIsland.sub(rect(7.813324193068244e-09, -9.744674905976045e-10).transl(-1.2520560456789796e-08, -4e-08, 0))
hIsland = hIsland.add(rect(3.4360112049919167e-09, 1.7291606426561342e-09).transl(-9.931103425661993e-08, -4e-08, 0))
hIsland = hIsland.add(rect(4.934203952233587e-09, 1.6737010301194568e-09).transl(-8.514715483840511e-09, -4e-08, 0))
hIsland = hIsland.sub(rect(2.3762475902759158e-09, -1.7475009170476844e-09).transl(-5.317271550094388e-08, -4e-08, 0))
hIsland = hIsland.sub(rect(3.0938863774226073e-09, -3.985559772016487e-10).transl(5.626503054617056e-08, 4e-08, 0))
hIsland = hIsland.add(rect(7.085197146904897e-09, 1.9928024956279732e-09).transl(3.504662393466117e-08, 4e-08, 0))
hIsland = hIsland.sub(rect(5.354178422657213e-09, -1.3832892198565976e-09).transl(-4.060618688065163e-08, 4e-08, 0))
hIsland = hIsland.sub(rect(3.1699829078547838e-09, -2.5903970829950852e-09).transl(7.591360816071244e-08, 4e-08, 0))
hIsland = hIsland.add(rect(7.735665777651922e-09, 2.5569980987371115e-09).transl(6.31803070041337e-08, 4e-08, 0))
hIsland = hIsland.sub(rect(4.148725630775269e-09, -3.957760524417302e-10).transl(-1.3863530742750129e-08, 4e-08, 0))
hIsland = hIsland.sub(rect(3.094314651097178e-09, -1.520043843174462e-09).transl(4.591116382296755e-08, 4e-08, 0))
hIsland = hIsland.sub(rect(4.626604822174355e-09, -1.874497607415626e-09).transl(-8.03303071454989e-08, 4e-08, 0))
hIsland = hIsland.sub(rect(4.1352530876366375e-09, -3.1396660705630613e-09).transl(4.855578130005449e-08, 4e-08, 0))
hIsland = hIsland.add(rect(5.227677022022648e-09, 1.5839149451493162e-09).transl(5.082896447559811e-08, 4e-08, 0))
hIsland = hIsland.add(rect(3.500404088173224e-09, 9.311848696355014e-10).transl(-1.6726168068796427e-09, 4e-08, 0))
hIsland = hIsland.add(rect(7.152878784379602e-09, 1.0982328252131283e-10).transl(5.330999939265897e-08, 4e-08, 0))
hIsland = hIsland.sub(rect(2.4425370267904676e-09, -7.717767256744687e-10).transl(2.922208382746072e-08, 4e-08, 0))
hIsland = hIsland.add(rect(6.619136371408336e-09, 5.504397824932955e-10).transl(-5.213087447917898e-09, 4e-08, 0))
hIsland = hIsland.add(rect(5.456920274356826e-09, 8.863932345370956e-10).transl(-7.420047903909547e-08, 4e-08, 0))
hIsland = hIsland.sub(rect(9.429113225625714e-09, -7.599326384164674e-10).transl(-3.304175441245243e-08, 4e-08, 0))
hIsland = hIsland.add(rect(5.3449882334399744e-09, 1.9138382498437286e-09).transl(7.482539790917985e-08, 4e-08, 0))
hIsland = hIsland.add(rect(6.0181801329804066e-09, 9.997009925557348e-10).transl(6.165109729080267e-08, 4e-08, 0))
hIsland = hIsland.sub(rect(4.698983127695027e-09, -2.373489210963825e-09).transl(-4.8968734524644936e-08, 4e-08, 0))
hIsland = hIsland.sub(rect(6.605266009262928e-09, -3.872289556929605e-09).transl(-6.923190187065616e-08, 4e-08, 0))
hIsland = hIsland.sub(rect(7.240871667588351e-09, -2.320976772746222e-09).transl(3.6680806195771304e-08, 4e-08, 0))
hIsland = hIsland.add(rect(5.361873352315882e-09, 1.8078704884228617e-09).transl(-2.250425524575221e-08, 4e-08, 0))
hIsland = hIsland.add(rect(5.81310186774633e-09, 1.3675091101406146e-09).transl(-1.909946917018198e-08, 4e-08, 0))
hIsland = hIsland.sub(rect(3.2564251172189984e-09, -1.522892824667689e-09).transl(9.98053609242823e-08, 4e-08, 0))
hIsland = hIsland.add(rect(3.5791936877425265e-09, 8.085447858344671e-11).transl(3.6099135377254047e-08, 4e-08, 0))
hIsland = hIsland.add(rect(5.647031757116138e-09, 1.8078217897163478e-09).transl(-3.888858615887689e-08, 4e-08, 0))
hIsland = hIsland.add(rect(9.833184145034345e-09, 2.3088778260703786e-10).transl(8.894330724655309e-08, 4e-08, 0))
hIsland = hIsland.sub(rect(8.109586968486973e-09, -1.364268350394285e-09).transl(-9.169462743108296e-08, 4e-08, 0))
hIsland = hIsland.sub(rect(5.3331984598307406e-09, -4.846232856917243e-10).transl(6.245196090906514e-08, 4e-08, 0))
hIsland = hIsland.sub(rect(8.00578905524722e-09, -3.5776555628605795e-09).transl(-1.1116256629938486e-07, 2.9826990014475723e-08, 0))
hIsland = hIsland.add(rect(5.871650420007032e-09, 1.7347340324548216e-10).transl(5.1759421405998164e-08, 4e-08, 0))
hIsland = hIsland.sub(rect(8.774902060744795e-09, -8.125928100438398e-10).transl(-9.474802143826878e-08, 4e-08, 0))
hIsland = hIsland.sub(rect(7.988835414567327e-09, -1.9735267770293976e-09).transl(9.33007248163612e-08, 4e-08, 0))
hIsland = hIsland.add(rect(8.62136681025831e-09, 5.206070326299823e-10).transl(-7.610332657410646e-08, 4e-08, 0))
hIsland = hIsland.add(rect(4.12830906850609e-09, 1.243510137593194e-09).transl(-1.0695170840884637e-07, 3.81556987839277e-08, 0))
hIsland = hIsland.sub(rect(5.049710277011219e-09, -5.618447815148995e-10).transl(5.1683370046642365e-08, 4e-08, 0))
hIsland = hIsland.add(rect(2.601624437211185e-09, 9.480622511693788e-10).transl(6.237480888829279e-08, 4e-08, 0))
hIsland = hIsland.add(rect(9.6335025852719e-09, 4.5734348677002905e-10).transl(3.674923954745288e-08, 4e-08, 0))
hIsland = hIsland.add(rect(5.663724394849697e-09, 1.4582281093284308e-09).transl(-2.540445818019399e-08, 4e-08, 0))
hIsland = hIsland.sub(rect(7.996844417770593e-09, -2.0883403939457517e-09).transl(4.958792321341111e-08, 4e-08, 0))
hIsland = hIsland.sub(rect(9.928583301298475e-09, -1.2069606137005477e-09).transl(8.145314681954083e-08, 4e-08, 0))
hIsland = hIsland.add(rect(7.088031617865209e-09, 3.040494227985381e-09).transl(5.902689123093879e-09, 4e-08, 0))
hIsland = hIsland.add(rect(8.212678968507187e-09, 3.310740829482965e-09).transl(-5.187348011018281e-09, 4e-08, 0))
hIsland = hIsland.sub(rect(7.3378209885853916e-09, -3.348712657298038e-09).transl(3.231220881936855e-08, 4e-08, 0))
hIsland = hIsland.sub(rect(5.419578317248014e-09, -2.6980007768080822e-09).transl(-2.8888158245329677e-08, 4e-08, 0))
hIsland = hIsland.sub(rect(7.4297554549969385e-09, -1.7553261761804637e-09).transl(1.1241246555578724e-07, 2.5278596241781486e-08, 0))
hIsland = hIsland.sub(rect(9.421050930281542e-09, -1.0208295789273286e-09).transl(-7.48217310065445e-08, 4e-08, 0))
hIsland = hIsland.add(rect(3.3480895664085477e-09, 2.733587323671102e-09).transl(-1.655652409279765e-08, 4e-08, 0))
hIsland = hIsland.add(rect(9.376362251386994e-09, 1.5167796487503184e-09).transl(-9.051462895006946e-08, 4e-08, 0))
hIsland = hIsland.add(rect(6.438442671262994e-09, 8.691244264128139e-10).transl(-8.810050731908237e-08, 4e-08, 0))
hIsland = hIsland.sub(rect(2.95999964416444e-09, -2.1878594686750262e-10).transl(9.534552334890375e-08, 4e-08, 0))
hIsland = hIsland.sub(rect(2.0976288709392686e-09, -2.140515694028788e-09).transl(-4.9360250958300406e-08, 4e-08, 0))
hIsland = hIsland.add(rect(5.9871583439743144e-09, 4.408654833589503e-09).transl(-7.177538872831445e-08, 4e-08, 0))
hIsland = hIsland.sub(rect(2.4284533034551413e-09, -2.5363788798690804e-10).transl(5.653412424320401e-08, 4e-08, 0))
hIsland = hIsland.sub(rect(2.584969015557757e-09, -1.8755953304350136e-10).transl(-8.340197074681972e-08, 4e-08, 0))
hIsland = hIsland.sub(rect(8.365795021589574e-09, -1.8776233112545096e-09).transl(-1.0451144401420761e-07, 3.9844989781151866e-08, 0))
hIsland = hIsland.sub(rect(6.095258145197153e-09, -2.519501183068028e-10).transl(-1.2469966803287826e-08, 4e-08, 0))
hIsland = hIsland.sub(rect(2.459768543616877e-09, -3.018008689845644e-10).transl(2.649933327369058e-08, 4e-08, 0))
hIsland = hIsland.add(rect(3.2832693337738557e-09, 9.276195245990345e-11).transl(3.959536223953006e-08, 4e-08, 0))
hIsland = hIsland.add(rect(8.306521918319575e-09, 1.523101244653483e-09).transl(4.0078057043663905e-08, 4e-08, 0))
[...]
hIsland = hIsland.add(rect(8.737859155152393e-09, 3.439315774261588e-10).transl(-5.804895661025299e-08, 4e-08, 0))
hIsland = hIsland.sub(rect(7.573951142471487e-09, -2.969337261672309e-09).transl(-1.0589496872984565e-07, 3.9122955773470374e-08, 0))
hIsland = hIsland.sub(rect(2.345292526171278e-09, -1.4034200837254096e-09).transl(-7.030347850998621e-08, 4e-08, 0))
hIsland = hIsland.add(rect(8.67489116801076e-09, 4.893106127921672e-09).transl(-4.264070766701535e-08, 4e-08, 0))
hIsland = hIsland.add(rect(3.421072890078383e-09, 6.2129521072196e-10).transl(5.991351540729304e-08, 4e-08, 0))
hIsland = hIsland.add(rect(3.5614400104315607e-09, 2.5189769209171506e-10).transl(-2.6455369601687468e-08, 4e-08, 0))
hIsland = hIsland.sub(rect(7.47874997768822e-09, -2.8242084848397303e-09).transl(-1.076048314160289e-07, 3.736506404574089e-08, 0))
hIsland = hIsland.sub(rect(7.714912055246718e-09, -3.05488643632235e-09).transl(4.229083062185838e-08, 4e-08, 0))
hIsland = hIsland.sub(rect(3.1843188314585167e-09, -4.387850852211846e-11).transl(4.973981896806164e-08, 4e-08, 0))
hIsland = hIsland.sub(rect(4.487775156765289e-09, -1.5023036916219692e-09).transl(-4.1950773867000267e-08, 4e-08, 0))
hIsland = hIsland.add(rect(6.470808395408878e-09, 1.5356308705492913e-09).transl(-5.154953281960706e-08, 4e-08, 0))
hIsland = hIsland.sub(rect(3.3323756307998987e-09, -1.2254072816418428e-09).transl(-8.884162970148881e-08, 4e-08, 0))
hIsland = hIsland.sub(rect(3.746812891098006e-09, -8.849688671448819e-10).transl(9.579925025193672e-08, 4e-08, 0))
hIsland = hIsland.add(rect(7.68084163790605e-09, 3.202858452760348e-09).transl(1.5631755028873158e-08, 4e-08, 0))
hIsland = hIsland.add(rect(4.538083844456763e-09, 1.3798618277825067e-10).transl(-1.3448768078464747e-08, 4e-08, 0))
hIsland = hIsland.sub(rect(8.121444880580633e-09, -4.268194112484477e-10).transl(1.5233016446991694e-09, 4e-08, 0))
hIsland = hIsland.sub(rect(4.22685545552335e-09, -8.3196727982276e-10).transl(-9.455195091011036e-08, 4e-08, 0))
hIsland = hIsland.sub(rect(5.968207699417435e-09, -1.7605509077298682e-09).transl(-7.721148736817987e-09, 4e-08, 0))
hIsland = hIsland.sub(rect(6.083254443906958e-09, -1.6351613129342834e-09).transl(4.3528307858155753e-08, 4e-08, 0))
hIsland = hIsland.add(rect(6.799988096462592e-09, 4.310968360723291e-09).transl(8.09485697733339e-08, 4e-08, 0))
hIsland = hIsland.sub(rect(5.3018169305802515e-09, -5.434252442072914e-10).transl(8.070270112784449e-08, 4e-08, 0))
hIsland = hIsland.add(rect(9.248839453222077e-09, 4.338665036138497e-09).transl(3.073769371631246e-08, 4e-08, 0))
hIsland = hIsland.sub(rect(4.363322838592856e-09, -7.372967904940296e-10).transl(-6.689993643842234e-08, 4e-08, 0))
hIsland = hIsland.sub(rect(7.954969440644086e-09, -6.52384782687216e-10).transl(6.28757879248977e-08, 4e-08, 0))
hIsland = hIsland.sub(rect(4.533514025567079e-09, -2.1975517134704893e-09).transl(-8.174608237454055e-08, 4e-08, 0))
hIsland = hIsland.sub(rect(8.414055133426942e-09, -1.8796529647412373e-09).transl(-8.729745148111356e-08, 4e-08, 0))
hIsland = hIsland.add(rect(9.961066861107646e-09, 3.3981316737714443e-10).transl(-7.517722515876527e-08, 4e-08, 0))
hIsland = hIsland.add(rect(5.4384163683066915e-09, 9.94859210816048e-10).transl(-8.620226523143847e-08, 4e-08, 0))
hIsland = hIsland.add(rect(5.150702636382506e-09, 2.859083274203141e-09).transl(-9.131507344285095e-08, 4e-08, 0))
hIsland = hIsland.add(rect(4.6021508922153525e-09, 3.6819923057446175e-09).transl(1.928626898621221e-08, 4e-08, 0))
hIsland = hIsland.sub(rect(2.81844013470559e-09, -5.911244054759092e-10).transl(1.0324762892747275e-07, 4e-08, 0))
hIsland = hIsland.add(rect(7.159147587384221e-09, 1.1102845126092346e-09).transl(6.190558557994951e-08, 4e-08, 0))
hIsland = hIsland.sub(rect(7.273800582733474e-09, -1.0470830533461323e-09).transl(-6.229208260273051e-09, 4e-08, 0))
hIsland = hIsland.sub(rect(7.905787964699333e-09, -2.1150456688124974e-09).transl(-3.6715079933803985e-08, 4e-08, 0))
hIsland = hIsland.sub(rect(5.900286427578051e-09, -1.993328254205014e-09).transl(8.131381027429019e-08, 4e-08, 0))
hIsland = hIsland.sub(rect(6.0507135155530986e-09, -1.2618967756245253e-09).transl(1.089837570353883e-07, 3.5159421321986945e-08, 0))
hIsland = hIsland.sub(rect(6.950247208555284e-09, -1.5612895848849764e-09).transl(7.235278179583834e-08, 4e-08, 0))
hIsland = hIsland.sub(rect(2.306538250036088e-09, -1.4814057630597081e-10).transl(3.838573228354562e-08, 4e-08, 0))
hIsland = hIsland.sub(rect(6.6299461844972505e-09, -2.850120412212604e-10).transl(-5.285893443941589e-08, 4e-08, 0))
hIsland = hIsland.sub(rect(2.8481475777082245e-09, -9.51581100691791e-10).transl(-7.3371764011638545e-09, 4e-08, 0))
hIsland = hIsland.sub(rect(8.92145163953139e-09, -1.6919813336453973e-09).transl(7.093095460809227e-08, 4e-08, 0))
hIsland = hIsland.add(rect(6.666220516216984e-09, 3.3098029012682585e-09).transl(2.225964104601415e-08, 4e-08, 0))
hIsland = hIsland.sub(rect(5.778468562681199e-09, -6.021115779944478e-10).transl(3.714711446798385e-08, 4e-08, 0))
hIsland = hIsland.add(rect(5.394567680724302e-09, 4.207210637075496e-09).transl(9.821747331677765e-08, 4e-08, 0))
hIsland = hIsland.add(rect(4.836566419848637e-09, 2.5418585677981177e-10).transl(-5.300300872891729e-08, 4e-08, 0))
hIsland = hIsland.add(rect(2.8040539863104616e-09, 7.385513913801272e-10).transl(-5.161212830404228e-08, 4e-08, 0))
hIsland = hIsland.add(rect(6.512660747993317e-09, 3.5811268049131345e-10).transl(2.1188331974385013e-08, 4e-08, 0))
hIsland = hIsland.add(rect(6.589908352501941e-09, 6.3850112533882e-11).transl(-9.12578488857443e-08, 4e-08, 0))
hIsland = hIsland.sub(rect(7.682430095832613e-09, -3.6152497985160262e-09).transl(-2.2191577240022315e-08, 4e-08, 0))
hIsland = hIsland.sub(rect(2.4714943421950404e-09, -1.1041249070714006e-09).transl(-8.858346404642485e-10, 4e-08, 0))
hIsland = hIsland.add(rect(2.970271365411163e-09, 6.167598399650039e-10).transl(-4.008092800678038e-08, 4e-08, 0))
hIsland = hIsland.add(rect(6.798149079379462e-09, 4.1453152947307855e-09).transl(-2.713184332722043e-08, 4e-08, 0))
hIsland = hIsland.sub(rect(7.0061647691340355e-09, -8.602695379620693e-10).transl(-1.0421951529404724e-07, 3.992163177342127e-08, 0))
hIsland = hIsland.add(rect(6.077834702606486e-09, 1.1969246397376535e-09).transl(1.1080662460084293e-07, 3.088868717093408e-08, 0))
hIsland = hIsland.add(rect(5.505989589381286e-09, 2.1943950723055976e-09).transl(-6.557959537812322e-08, 4e-08, 0))
hIsland = hIsland.add(rect(4.133507375978704e-09, 3.785658457829373e-09).transl(7.283185286322768e-08, 4e-08, 0))
hIsland = hIsland.sub(rect(4.396439868383568e-09, -2.0202923779196554e-09).transl(4.4766715946444484e-08, 4e-08, 0))
hIsland = hIsland.add(rect(2.2086973654588836e-09, 2.7526929387932008e-09).transl(-1.0106125009976246e-07, 4e-08, 0))
hIsland = hIsland.sub(rect(4.22382888235372e-09, -1.6467388356839809e-09).transl(-9.680698567612785e-08, 4e-08, 0))
hIsland = hIsland.add(rect(6.666122737587303e-09, 2.9019538526497063e-09).transl(1.1258546895530705e-07, 2.4522171778397783e-08, 0))
hIsland = hIsland.sub(rect(2.050780555219749e-09, -4.653683934236947e-10).transl(6.205490499011722e-08, 4e-08, 0))
hIsland = hIsland.add(rect(3.7023116114783882e-09, 6.359791846848798e-10).transl(-1.0026975695168907e-07, 4e-08, 0))
hIsland = hIsland.sub(rect(5.347530986165944e-09, -1.6387512548101117e-09).transl(6.586924344800271e-08, 4e-08, 0))
hIsland = hIsland.sub(rect(7.545709598717463e-09, -9.9542533318201e-10).transl(7.063092471067926e-08, 4e-08, 0))
hIsland = hIsland.sub(rect(5.084437195887788e-09, -1.9242293877420327e-09).transl(-7.888398978596715e-08, 4e-08, 0))
hIsland = hIsland.sub(rect(9.09642506159196e-09, -1.6493087188719542e-11).transl(-4.3539153355158085e-09, 4e-08, 0))
hIsland = hIsland.add(rect(3.147310918372874e-09, 1.0428362120209577e-09).transl(2.465421818639267e-08, 4e-08, 0))
hIsland = hIsland.sub(rect(9.773110757008305e-09, -4.213741544339535e-09).transl(-7.990471658114988e-08, 4e-08, 0))
hIsland = hIsland.add(rect(5.350730293397183e-09, 5.225965344564667e-10).transl(8.19657973612318e-09, 4e-08, 0))
hIsland = hIsland.add(rect(9.864636152661553e-09, 2.3818344164986426e-09).transl(-8.01922777851473e-08, 4e-08, 0))
hIsland = hIsland.add(rect(4.004822929102612e-09, 2.1562169268726678e-10).transl(6.026032377916506e-08, 4e-08, 0))
hIsland = hIsland.sub(rect(6.362357841903342e-09, -1.074963231895458e-10).transl(-6.747335933152726e-08, 4e-08, 0))
hIsland = hIsland.add(rect(5.0544012904045335e-09, 5.195978865569887e-10).transl(-3.73979179463306e-08, 4e-08, 0))
hIsland = hIsland.add(rect(5.831172687294699e-09, 1.5236197713865654e-09).transl(-5.589614592155588e-08, 4e-08, 0))
hIsland = hIsland.add(rect(9.77922905666645e-09, 1.573640470400952e-09).transl(-5.505164892152856e-08, 4e-08, 0))
hIsland = hIsland.add(rect(4.164476526048651e-09, 1.4830462780903637e-09).transl(-1.0066558448776634e-07, 4e-08, 0))
hIsland = hIsland.add(rect(2.755638255923039e-09, 6.409733775586746e-10).transl(1.0832983699862662e-07, 3.630122655748966e-08, 0))
hIsland = hIsland.add(rect(7.464487982137167e-09, 1.3856968407629607e-09).transl(5.312070253386342e-08, 4e-08, 0))
hIsland = hIsland.sub(rect(3.1468218552233646e-09, -1.1562510031136415e-09).transl(3.2875853265877004e-09, 4e-08, 0))
hIsland = hIsland.add(rect(8.502661591605688e-09, 4.1455212850517734e-09).transl(1.7882782825485387e-08, 4e-08, 0))
hIsland = hIsland.add(rect(7.254801914736506e-09, 5.384095710958365e-10).transl(-2.972330215927678e-09, 4e-08, 0))
hIsland = hIsland.add(rect(4.052280456871159e-09, 2.6384106399555363e-09).transl(-6.058641116146496e-08, 4e-08, 0))
hIsland = hIsland.sub(rect(9.644827089326299e-09, -9.005197404010575e-10).transl(9.578318771746681e-08, 4e-08, 0))
hIsland = hIsland.sub(rect(9.620973858948595e-09, -1.2482339128494383e-10).transl(8.424026052581945e-08, 4e-08, 0))
hIsland = hIsland.add(rect(6.682078922198417e-09, 1.652896963919634e-09).transl(8.553639791226445e-08, 4e-08, 0))
hIsland = hIsland.add(rect(4.458070101796044e-09, 3.1712507889031413e-09).transl(8.424085372906507e-09, 4e-08, 0))
hIsland = hIsland.sub(rect(6.13293549227225e-09, -2.6118564012973106e-09).transl(2.06473624647993e-08, 4e-08, 0))
hIsland = hIsland.sub(rect(8.58329264991055e-09, -3.486522490377068e-09).transl(5.543820538983188e-08, 4e-08, 0))
hIsland = hIsland.add(rect(7.827517592839977e-09, 1.1568604956900825e-10).transl(-5.380182069973273e-08, 4e-08, 0))
hIsland = hIsland.add(rect(7.904537902943498e-09, 3.112033901006468e-10).transl(8.27184873175619e-08, 4e-08, 0))
hIsland = hIsland.add(rect(5.101290946700442e-09, 2.6179325661928615e-09).transl(1.0307171643829327e-07, 4e-08, 0))
hIsland = hIsland.sub(rect(8.783432559080383e-09, -1.5035755604961142e-10).transl(-1.0833850604869085e-07, 3.628725708070563e-08, 0))
hIsland = hIsland.sub(rect(4.504389613175316e-09, -2.1749122713969177e-09).transl(1.0897885098063339e-07, 3.516867345198246e-08, 0))
hIsland = hIsland.add(rect(4.652879025594864e-09, 2.650143071364357e-10).transl(9.242260272744046e-08, 4e-08, 0))
hIsland = hIsland.sub(rect(8.835384835610186e-09, -8.348213726064748e-10).transl(-9.909751897054387e-08, 4e-08, 0))
hIsland = hIsland.sub(rect(7.58514456874441e-09, -1.9666245296712206e-09).transl(-1.5284512043357377e-08, 4e-08, 0))
hIsland = hIsland.sub(rect(5.2252050573038225e-09, -1.3764753793002988e-09).transl(-1.1125498829722241e-07, 2.953659105388405e-08, 0))
hIsland = hIsland.add(rect(7.78752474018627e-09, 1.4896694056868604e-09).transl(8.703781171288613e-08, 4e-08, 0))
hIsland = hIsland.add(rect(6.90221944998379e-09, 4.9021452860706315e-09).transl(-7.712958205259333e-08, 4e-08, 0))
hIsland = hIsland.add(rect(4.147278507820448e-09, 4.956456038381181e-10).transl(8.80830016013671e-08, 4e-08, 0))
hIsland = hIsland.sub(rect(5.3877331261183926e-09, -2.4699890690551346e-09).transl(-8.097716878410507e-08, 4e-08, 0))
hIsland = hIsland.sub(rect(8.906838552413978e-09, -1.0924699685660124e-09).transl(-5.726411329247004e-08, 4e-08, 0))
hIsland = hIsland.sub(rect(6.888195298418942e-09, -1.6133222846630673e-09).transl(-6.836579769176013e-08, 4e-08, 0))
hIsland = hIsland.add(rect(4.813140011787412e-09, 4.86740739349242e-10).transl(-5.233161947658547e-08, 4e-08, 0))
hIsland = hIsland.add(rect(2.0248922726958193e-09, 1.2178507221156918e-09).transl(1.0551824873781965e-07, 3.9379178021364085e-08, 0))
hIsland = hIsland.add(rect(2.7798559006772784e-09, 1.3776276046617068e-10).transl(9.524733645416129e-08, 4e-08, 0))
hIsland = hIsland.add(rect(8.391471391630464e-09, 3.241408785332701e-09).transl(6.348054000559691e-08, 4e-08, 0))
hIsland = hIsland.add(rect(2.008933711915565e-09, 2.1802395092207214e-09).transl(-1.0040705023391289e-07, 4e-08, 0))
hIsland = hIsland.add(rect(4.769912536939224e-09, 1.6832791826598843e-09).transl(-4.0899250574529976e-08, 4e-08, 0))
hIsland = hIsland.add(rect(3.7106330688192665e-09, 2.0169767042560845e-09).transl(-9.242507193383383e-08, 4e-08, 0))
hIsland = hIsland.sub(rect(6.865191374347546e-09, -1.4539678972383914e-09).transl(-1.464985180408232e-08, 4e-08, 0))
hIsland = hIsland.add(rect(7.253184313496142e-09, 2.435583904621492e-10).transl(-2.129498871095029e-08, 4e-08, 0))
hIsland = hIsland.add(rect(7.384229848743124e-09, 3.697764444652865e-10).transl(-4.249224743802037e-08, 4e-08, 0))
hIsland = hIsland.add(rect(6.981666547527497e-09, 1.2402435376504484e-09).transl(5.067399744568789e-08, 4e-08, 0))
hIsland = hIsland.add(rect(3.158104368204841e-09, 8.23952992499731e-10).transl(3.302521649761257e-08, 4e-08, 0))
hIsland = hIsland.sub(rect(3.241856989539258e-09, -1.7880183768347245e-09).transl(1.1110464065797819e-07, 3.000580973875206e-08, 0))
hIsland = hIsland.add(rect(2.2608276327642047e-09, 3.5487291703405443e-09).transl(1.700688347666582e-08, 4e-08, 0))
hIsland = hIsland.sub(rect(2.3136335390900815e-09, -3.0629678538768454e-09).transl(-8.394200844122126e-08, 4e-08, 0))
hIsland = hIsland.add(rect(7.602759907067112e-09, 3.5128059952312462e-09).transl(6.746050988358749e-08, 4e-08, 0))
hIsland = hIsland.add(rect(3.325771809500654e-09, 7.407425652509554e-09).transl(-2.0712309798310265e-08, 4e-08, 0))
hIsland = hIsland.sub(rect(8.874952883336885e-09, -2.729728636990812e-09).transl(2.6555987637969144e-08, 4e-08, 0))
hIsland = hIsland.add(rect(8.357458568704001e-09, 1.4026704370805392e-10).transl(-8.047263189361607e-08, 4e-08, 0))
hIsland = hIsland.sub(rect(2.5669460931873708e-09, -1.0026236354515986e-09).transl(-6.819106999750122e-08, 4e-08, 0))
hIsland = hIsland.add(rect(7.114773984973263e-09, 7.470654826404444e-10).transl(-1.139511643297341e-07, 1.6689551114560318e-08, 0))
hIsland = hIsland.add(rect(9.526036527088726e-09, 9.914832885310661e-10).transl(2.706726741262726e-08, 4e-08, 0))
hIsland = hIsland.add(rect(5.7864936398441385e-09, 1.303003683983988e-09).transl(1.1842781573758369e-08, 4e-08, 0))
hIsland = hIsland.add(rect(2.056643806340459e-09, 1.5688732839376944e-09).transl(1.754777358155722e-08, 4e-08, 0))
hIsland = hIsland.sub(rect(6.487679679042158e-09, -3.114402369097985e-09).transl(1.4373399125848169e-08, 4e-08, 0))
hIsland = hIsland.add(rect(2.6134584358812207e-09, 1.6511387818225464e-09).transl(-4.135991294055918e-08, 4e-08, 0))
hIsland = hIsland.add(rect(2.642277205881902e-09, 3.0365887352078105e-09).transl(1.728629158792227e-08, 4e-08, 0))
hIsland = hIsland.add(rect(2.6097348779757166e-09, 1.1505109196189824e-09).transl(-1.2721401110447376e-08, 4e-08, 0))
hIsland = hIsland.add(rect(5.1186273892568145e-09, 2.1121770042835262e-10).transl(4.45927483204446e-08, 4e-08, 0))
hIsland = hIsland.add(rect(7.058749466787872e-09, 7.71655800211666e-11).transl(-1.1897229343271008e-09, 4e-08, 0))
hIsland = hIsland.add(rect(6.840317805772479e-09, 2.4047753480528415e-09).transl(-4.089669770044794e-08, 4e-08, 0))
hIsland = hIsland.sub(rect(9.962963360879689e-09, -1.0022471830998655e-09).transl(5.910188913081293e-09, 4e-08, 0))
hIsland = hIsland.sub(rect(9.02322630172188e-09, -2.1524339181639253e-09).transl(-4.5506663135351623e-08, 4e-08, 0))
hIsland = hIsland.add(rect(8.600464333082849e-09, 3.40731506230646e-09).transl(-5.7143663335186204e-08, 4e-08, 0))
hIsland = hIsland.add(rect(6.33808662342713e-09, 3.3135689937058734e-10).transl(7.229031277884951e-08, 4e-08, 0))
hIsland = hIsland.sub(rect(6.019553920596876e-09, -1.3129118980106705e-09).transl(5.668419971082951e-08, 4e-08, 0))
hIsland = hIsland.add(rect(3.223080613133603e-09, 3.792880701316568e-10).transl(-5.443925879069526e-08, 4e-08, 0))
hIsland = hIsland.add(rect(7.450490978417787e-09, 1.1233959464111688e-10).transl(-9.015744111135557e-08, 4e-08, 0))
hIsland = hIsland.sub(rect(2.416193863516026e-09, -1.650729069959574e-09).transl(-8.613263582388301e-08, 4e-08, 0))
hIsland = hIsland.add(rect(3.0877459432575062e-09, 4.307858344379053e-10).transl(-2.072532899020933e-08, 4e-08, 0))
hIsland = hIsland.sub(rect(7.613304444252261e-09, -6.294166708161354e-10).transl(1.0363437393073522e-08, 4e-08, 0))
hIsland = hIsland.add(rect(9.006583820003124e-09, 1.7014631996272023e-09).transl(-2.2116273246825052e-08, 4e-08, 0))
hIsland = hIsland.add(rect(9.093973812258491e-09, 1.138510126213443e-09).transl(-9.33036739006194e-08, 4e-08, 0))
hIsland = hIsland.add(rect(7.1833043695216055e-09, 8.552667410254384e-10).transl(1.0765600858481878e-07, 3.729655824506449e-08, 0))
hIsland = hIsland.sub(rect(8.179303570003269e-09, -3.336928482527827e-09).transl(3.136196737408646e-08, 4e-08, 0))
hIsland = hIsland.add(rect(9.042814967532618e-09, 1.4146234874012298e-09).transl(1.0929841647692143e-07, 3.454324006553342e-08, 0))
hIsland = hIsland.sub(rect(4.808439816051244e-09, -1.1915790423057531e-09).transl(-5.1535227534872316e-08, 4e-08, 0))
hIsland = hIsland.add(rect(6.942083948661283e-09, 6.971122921971494e-10).transl(1.4091449328933735e-08, 4e-08, 0))
hIsland = hIsland.sub(rect(3.2853792825078145e-09, -4.969318905831434e-09).transl(5.6613314361419303e-08, 4e-08, 0))
hIsland = hIsland.sub(rect(4.653339700486866e-09, -2.715237812638319e-09).transl(-1.0117592387541149e-07, 4e-08, 0))
hIsland = hIsland.add(rect(2.5121390074670037e-09, 1.509567084401561e-10).transl(2.9027142777662006e-08, 4e-08, 0))
hIsland = hIsland.add(rect(9.946508145131414e-09, 2.2417257369259356e-10).transl(1.0362111871677384e-07, 3.999778145173786e-08, 0))
hIsland = hIsland.add(rect(4.308863311011068e-09, 4.6522612117924826e-11).transl(-9.698900713975065e-08, 4e-08, 0))
hIsland = hIsland.sub(rect(8.894637009592324e-09, -8.539156740567538e-10).transl(-4.136013448319077e-08, 4e-08, 0))
hIsland = hIsland.sub(rect(7.923908347708316e-09, -1.3554302178449363e-10).transl(4.8956932076867655e-08, 4e-08, 0))
hIsland = hIsland.sub(rect(9.115313977097988e-09, -5.733828437879701e-09).transl(-1.1240753121525488e-07, 2.5299629059321243e-08, 0))
hIsland = hIsland.sub(rect(8.22260527564319e-09, -1.522762154585212e-09).transl(-4.35446834888475e-08, 4e-08, 0))
hIsland = hIsland.add(rect(7.636940726674227e-09, 3.491510567430158e-09).transl(2.5092450924675152e-08, 4e-08, 0))
hIsland = hIsland.sub(rect(8.091305792677153e-09, -2.815059815087555e-09).transl(6.714260655406888e-08, 4e-08, 0))
hIsland = hIsland.sub(rect(5.315037833840522e-09, -1.8516792941248506e-09).transl(-1.12693362161827e-07, 2.4030753368044226e-08, 0))
vIsland = hIsland.rotz(pi / 2)
vIslands = vIslands.add(vIsland.transl(0, -a/2, 0))
DefRegion(1, hIslands)
DefRegion(2, vIslands)
TableAdd(m_full.Region(1))
TableAdd(m_full.Region(2))
setgeom(hIslands.add(vIslands))
save(geom)
r2o2 := sqrt(2) / 2
m = RandomMagSeed(4)
B_ext = vector(Bmax*r2o2, Bmax*r2o2, 0)
relax()
minimize()
for B := Bmax; B >= -Bmax; B -= Bstep {
	B_ext = vector(B*r2o2, B*r2o2, 0)
	minimize()
	tablesave()
}
//********************************************************************//
//Please cite the following references, relevant for your simulation. //
//See bibtex file in output folder for justification.                 //
//********************************************************************//
//   * Vansteenkiste et al., AIP Adv. 4, 107133 (2014).
//   * Exl et al., J. Appl. Phys. 115, 17D118 (2014).
