//mumax 3.10 [windows_amd64 go1.11.6(gc) CUDA-11.0]
//GPU info: NVIDIA GeForce RTX 3090(24575MB), CUDA Driver 12.0, cc=8.6, using cc=80 PTX
//(c) Arne Vansteenkiste, Dynamat LAB, Ghent University, Belgium
//This is free software without any warranty. See license.txt
//********************************************************************//
//  If you use mumax in any work or publication,                      //
//  we kindly ask you to cite the references in references.bib        //
//********************************************************************//
//output directory: r1;p0.8;a3.2e-07;l1.8000000000000002e-07;s0.out/
randSeed(0)
ThermSeed(0)
resolution := 2e-09
zResolution := 5e-09
a := 3.2e-07
gridSize := 320
gridDepth := 5
SetCellsize(resolution, resolution, zResolution)
SetGridsize(gridSize, gridSize, gridDepth)
SetPBC(16, 16, 0)
//resizing...
Msat = 700e3
Aex = 13e-12
alpha = 0.2
Bmax := 0.1
Bstep := Bmax / 500.0
TableAdd(B_ext)
TableAdd(m_full)
islandWidth := 8e-08
islandLength := 1.8000000000000002e-07
ellipseConstant := 7.200000000000001e-08
hIsland := Universe().Inverse()
vIsland := Universe().Inverse()
vIslands := Universe().Inverse()
hIslands := Universe().Inverse()
hIsland = rect(islandLength-2*ellipseConstant, islandWidth)
hIsland = hIsland.add(ellipse(ellipseConstant*2, islandWidth).transl(islandLength/2-ellipseConstant, 0, 0))
hIsland = hIsland.add(ellipse(ellipseConstant*2, islandWidth).transl(-islandLength/2+ellipseConstant, 0, 0))
hIsland = hIsland.sub(rect(9.50323943029214e-09, -7.735820256194571e-10).transl(8.468324194002879e-08, -1.5085612109094057e-08, 0))
hIsland = hIsland.add(rect(8.016726526344561e-09, 1.109072499658102e-09).transl(-5.6093295348374496e-08, -3.3943038930264536e-08, 0))
hIsland = hIsland.sub(rect(3.813067805861049e-09, -3.8647392320521677e-10).transl(2.0820549639451407e-08, -3.9969295699105436e-08, 0))
hIsland = hIsland.sub(rect(2.6826994740040846e-09, -1.9379842813833206e-09).transl(5.176561823859905e-08, -3.532862925082633e-08, 0))
hIsland = hIsland.add(rect(7.080866954460634e-09, 2.503122248206044e-09).transl(1.7256761077868163e-08, -4e-08, 0))
hIsland = hIsland.sub(rect(5.749407706517933e-09, -1.0230432994334053e-09).transl(-3.068380533961245e-08, -3.9374433494285754e-08, 0))
hIsland = hIsland.add(rect(7.547553098399732e-09, 7.316606053229399e-10).transl(5.5556422006905986e-08, -3.412719113410087e-08, 0))
hIsland = hIsland.sub(rect(2.2383416586007776e-09, -1.053556803853549e-09).transl(-6.120816894306863e-08, -3.1996595770831427e-08, 0))
hIsland = hIsland.add(rect(8.01497978293721e-09, 2.1001823068206612e-09).transl(2.293885545524889e-08, -3.990578296991583e-08, 0))
hIsland = hIsland.add(rect(3.36091165535045e-09, 2.1661380949319007e-09).transl(3.0229295813320226e-08, -3.941878791532102e-08, 0))
hIsland = hIsland.add(rect(9.636493852291119e-09, 1.1800247675611016e-09).transl(2.5455590775837692e-08, -3.9784970509623585e-08, 0))
hIsland = hIsland.add(rect(2.3236367869140865e-09, 2.905066395692949e-09).transl(2.1706308146329853e-08, -3.994696824017587e-08, 0))
hIsland = hIsland.sub(rect(5.32983220085604e-09, -3.2037762529264264e-09).transl(-8.405621529573166e-08, -1.5914280612350216e-08, 0))
hIsland = hIsland.sub(rect(3.0756598117681522e-09, -1.501040070697406e-09).transl(3.1732931537468185e-08, -3.926566130648457e-08, 0))
hIsland = hIsland.sub(rect(2.634971616072532e-09, -2.5474197443775845e-09).transl(-8.933821485723727e-08, -5.4108687198349175e-09, 0))
hIsland = hIsland.sub(rect(8.216815332424228e-09, -1.4693851603516115e-09).transl(-4.13699694544006e-08, -3.783428995242044e-08, 0))
hIsland = hIsland.add(rect(2.3924512206965138e-09, 4.510656356752753e-09).transl(4.4288750417889634e-08, -3.7238394502768223e-08, 0))
hIsland = hIsland.sub(rect(8.922414747328262e-09, -3.779612247937994e-11).transl(1.8153296349261826e-08, -3.999990933720166e-08, 0))
hIsland = hIsland.add(rect(2.9861099766729977e-09, 1.9673653233078787e-10).transl(6.996274281015207e-08, -2.7688040380959635e-08, 0))
hIsland = hIsland.sub(rect(3.698854241644682e-09, -4.196081915095526e-10).transl(7.531566403974197e-08, -2.420918772434679e-08, 0))
hIsland = hIsland.sub(rect(7.56191668905306e-09, -3.5442542197714324e-09).transl(-5.255131378210807e-08, -3.5093379470984836e-08, 0))
hIsland = hIsland.sub(rect(2.3124602687279996e-09, -2.5527095589639162e-09).transl(-1.7240370913871318e-08, -4e-08, 0))
hIsland = hIsland.sub(rect(4.6283071324493066e-09, -2.031488710087776e-09).transl(-2.679075453888976e-08, -3.9700742578794576e-08, 0))
hIsland = hIsland.sub(rect(2.6025965835278618e-09, -5.1617492514991e-10).transl(-1.9651512661020594e-08, -3.9989475876069486e-08, 0))
hIsland = hIsland.add(rect(6.898616771354838e-09, 2.5275866234388055e-09).transl(-2.4932456838493863e-09, -4e-08, 0))
hIsland = hIsland.add(rect(2.513801423387226e-09, 8.53449370713024e-10).transl(-8.678187807527804e-09, -4e-08, 0))
hIsland = hIsland.add(rect(2.6520281864707144e-09, 3.1022861302375075e-09).transl(-7.326612537001423e-08, -2.563788301015809e-08, 0))
hIsland = hIsland.sub(rect(3.938285744757036e-09, -3.128573934237524e-10).transl(7.475574513465776e-08, -2.461296327498694e-08, 0))
hIsland = hIsland.add(rect(8.625823315316782e-09, 1.0342071790046536e-11).transl(3.3988291164691974e-08, -3.900132375734201e-08, 0))
hIsland = hIsland.sub(rect(2.350838651888445e-09, -1.2441911279492734e-09).transl(4.307527297184872e-08, -3.7495805055025386e-08, 0))
hIsland = hIsland.add(rect(6.6175408103023485e-09, 2.0595687398229183e-09).transl(8.881990154526897e-09, -4e-08, 0))
hIsland = hIsland.sub(rect(5.740272881360592e-09, -1.1013639761257947e-09).transl(8.417713921023543e-08, -1.575846084666589e-08, 0))
hIsland = hIsland.sub(rect(4.044258391128584e-09, -1.0564925019708876e-09).transl(3.960503085129211e-08, -3.815668898333828e-08, 0))
hIsland = hIsland.sub(rect(4.7679559822960445e-09, -3.315367746204432e-09).transl(-7.43730467728996e-10, -4e-08, 0))
hIsland = hIsland.add(rect(2.9641771819054617e-09, 1.853603015059069e-09).transl(2.5943012481097495e-08, -3.975584650196752e-08, 0))
hIsland = hIsland.add(rect(4.033614475156852e-09, 4.8306639348310585e-09).transl(-5.661201397274258e-08, -3.3761657232197944e-08, 0))
hIsland = hIsland.add(rect(3.593679840984199e-09, 1.1527439212071702e-10).transl(3.754814078372612e-08, -3.849751551988242e-08, 0))
hIsland = hIsland.add(rect(5.662604656050584e-09, 3.7452176105177333e-10).transl(7.532031200246236e-08, -2.4205791011659056e-08, 0))
hIsland = hIsland.sub(rect(9.506251592814218e-09, -1.8491121102681677e-09).transl(-7.649132813570613e-08, -2.3325160823557045e-08, 0))
hIsland = hIsland.add(rect(6.260707246477741e-09, 4.777224973224082e-10).transl(7.139047103744965e-08, -2.6836597468819936e-08, 0))
hIsland = hIsland.add(rect(4.0337818437912384e-09, 2.440683653769014e-09).transl(7.008559591302292e-08, -2.7616703538193108e-08, 0))
hIsland = hIsland.sub(rect(4.895238851254022e-09, -4.0670707930523534e-10).transl(2.314588629776146e-08, -3.989770814842716e-08, 0))
hIsland = hIsland.add(rect(8.921934975484562e-09, 2.6228098905255257e-09).transl(-8.993684824693842e-09, -4e-08, 0))
hIsland = hIsland.add(rect(2.8954357685546273e-09, 3.927978045920142e-09).transl(5.174875721216448e-08, -3.533360144305327e-08, 0))
hIsland = hIsland.sub(rect(2.2406246694739735e-09, -8.848752423945223e-10).transl(-5.876599494979385e-08, -3.2970870307178314e-08, 0))
hIsland = hIsland.sub(rect(9.445147864246e-09, -4.293371657202065e-09).transl(2.1599856723649855e-08, -3.99499726956797e-08, 0))
hIsland = hIsland.add(rect(2.716575463094893e-09, 2.980284637447935e-09).transl(5.1196887519795286e-08, -3.549459469802662e-08, 0))
hIsland = hIsland.add(rect(5.621891104073161e-09, 9.164848378558068e-10).transl(-7.043682892601689e-08, -2.741079230202185e-08, 0))
hIsland = hIsland.add(rect(2.2494030296237686e-09, 7.839515631030078e-10).transl(-4.632322299174263e-08, -3.677507139824049e-08, 0))
hIsland = hIsland.sub(rect(8.97585059295475e-09, -6.206990021142506e-09).transl(2.9627757179898943e-08, -3.94749305622002e-08, 0))
hIsland = hIsland.add(rect(3.6046143388179435e-09, 1.606275876106546e-09).transl(-4.568386592266052e-08, -3.692503068688243e-08, 0))
hIsland = hIsland.sub(rect(3.427287544505725e-09, -2.9001530359036486e-09).transl(-7.15347462592066e-08, -2.674774100858722e-08, 0))
hIsland = hIsland.sub(rect(7.295857017481933e-09, -5.173525040464709e-10).transl(-1.699882484944587e-08, -4e-08, 0))
hIsland = hIsland.sub(rect(3.782159967385728e-09, -4.4170529829021894e-09).transl(-4.7475411793381545e-08, -3.6494545929438e-08, 0))
hIsland = hIsland.sub(rect(7.742978793396715e-09, -2.5191582741522702e-09).transl(-3.720656219163493e-08, -3.8550543897697345e-08, 0))
hIsland = hIsland.add(rect(5.391227757921217e-09, 3.5063487825058387e-11).transl(-3.0751036310877166e-08, -3.936773085163792e-08, 0))
hIsland = hIsland.sub(rect(7.004648059287506e-09, -1.0478483193171736e-09).transl(-1.9144493733816595e-08, -3.9994946185726424e-08, 0))
hIsland = hIsland.sub(rect(8.800253036329932e-09, -1.2314979773830684e-10).transl(5.6440044205397623e-08, -3.382217021407465e-08, 0))
hIsland = hIsland.add(rect(9.91557186441268e-09, 2.612481055217521e-09).transl(-3.787661581734076e-08, -3.8445568960953506e-08, 0))
hIsland = hIsland.sub(rect(5.47230660074621e-09, -1.0795527979498086e-09).transl(4.063253397061364e-08, -3.7972408786297034e-08, 0))
hIsland = hIsland.sub(rect(2.2577527186272653e-09, -2.20547653658515e-09).transl(-7.806452492134366e-08, -2.2056694946593063e-08, 0))
hIsland = hIsland.add(rect(4.753634816056322e-09, 1.0189929145905215e-09).transl(1.024315030536256e-08, -4e-08, 0))
hIsland = hIsland.sub(rect(6.625051769836999e-09, -2.4037730734609325e-09).transl(2.984041643565814e-08, -3.945541529211824e-08, 0))
hIsland = hIsland.sub(rect(7.424125726595179e-09, -1.0887877457524936e-09).transl(7.057462861421388e-08, -2.7329202635470025e-08, 0))
hIsland = hIsland.add(rect(5.4567332620381595e-09, 2.892662601481137e-09).transl(-3.132429890469759e-08, -3.930909115899757e-08, 0))
hIsland = hIsland.add(rect(6.041660255924183e-09, 5.75695982217258e-10).transl(-1.3006346353799589e-08, -4e-08, 0))
hIsland = hIsland.add(rect(7.044582545527788e-09, 1.8882784551748075e-09).transl(-2.777624996737649e-08, -3.9629553664334576e-08, 0))
hIsland = hIsland.sub(rect(4.7341605013387135e-09, -3.9127050257702664e-10).transl(4.7160165220883055e-08, -3.657262673114525e-08, 0))
hIsland = hIsland.add(rect(6.764893136640974e-09, 1.5272631443692425e-09).transl(-7.903988516773442e-08, -2.1214166728206878e-08, 0))
hIsland = hIsland.sub(rect(4.049042531586443e-09, -1.9449689386640686e-09).transl(-3.0014358089601086e-08, -3.9439182746455115e-08, 0))
hIsland = hIsland.add(rect(4.566305853159188e-09, 2.0208217018191573e-09).transl(-7.165621150312599e-08, -2.6672516529259952e-08, 0))
hIsland = hIsland.add(rect(2.0942824296776152e-09, 8.2462247158991e-10).transl(-2.2330355220569212e-08, -3.992758887013615e-08, 0))
hIsland = hIsland.sub(rect(7.400636129306341e-09, -1.802516170261512e-10).transl(1.2184665399104602e-08, -4e-08, 0))
hIsland = hIsland.add(rect(4.951105043661968e-09, 3.79824523604281e-09).transl(-6.42886739897503e-08, -3.063806365500221e-08, 0))
hIsland = hIsland.add(rect(8.041831398574898e-09, 6.599066452502181e-09).transl(-1.2235996724394623e-08, -4e-08, 0))
hIsland = hIsland.add(rect(4.83127012596081e-09, 1.347369372564565e-09).transl(-2.8761748964297316e-08, -3.955065808956572e-08, 0))
hIsland = hIsland.sub(rect(8.742723414256518e-09, -1.0852678083949742e-09).transl(-9.114888197916795e-09, -4e-08, 0))
hIsland = hIsland.sub(rect(8.271205348607587e-09, -3.277437955446608e-09).transl(-2.0470484640655626e-08, -3.997644640501363e-08, 0))
hIsland = hIsland.add(rect(6.810838961492918e-09, 2.1619776784805226e-09).transl(-3.438085052733524e-08, -3.8951012823806516e-08, 0))
hIsland = hIsland.add(rect(4.81478249999643e-09, 4.00051385269835e-10).transl(-3.3582282987128795e-08, -3.905200891478654e-08, 0))
hIsland = hIsland.add(rect(6.403818810353376e-09, 2.8784022396169653e-09).transl(4.238684575824996e-08, -3.763568766199377e-08, 0))
hIsland = hIsland.add(rect(5.7530783639176915e-09, 3.030341492352242e-09).transl(8.560743393549248e-08, -1.3757544245245344e-08, 0))
hIsland = hIsland.add(rect(9.93939853637378e-09, 3.7159437336882567e-09).transl(-5.43203080479786e-08, -3.45376660699838e-08, 0))
hIsland = hIsland.add(rect(9.687039448546127e-09, 4.233298852701231e-10).transl(3.527295985395012e-09, -4e-08, 0))
hIsland = hIsland.add(rect(8.217100408442719e-09, 3.080150178829317e-09).transl(6.591577810725939e-08, -2.9856023899356995e-08, 0))
hIsland = hIsland.sub(rect(9.180525345133736e-09, -2.8917468288826107e-10).transl(-6.382880634034441e-08, -3.0850698360440986e-08, 0))
hIsland = hIsland.sub(rect(8.87212079735836e-09, -4.676280817719074e-09).transl(-3.616011960783496e-08, -3.8706756260298736e-08, 0))
hIsland = hIsland.sub(rect(7.39424849504677e-09, -5.583296483040724e-12).transl(6.184848467963393e-08, -3.1726602107149836e-08, 0))
hIsland = hIsland.sub(rect(7.488635258563452e-09, -3.432706991096465e-10).transl(7.977878672101478e-08, -2.0543401145910103e-08, 0))
hIsland = hIsland.add(rect(2.0286086574239643e-09, 4.874715526272505e-10).transl(-4.6053297913442125e-08, -3.683887370841886e-08, 0))
hIsland = hIsland.add(rect(9.689774000894816e-09, 2.2410489358964422e-09).transl(-1.7124547274929293e-08, -4e-08, 0))
hIsland = hIsland.add(rect(4.899826061055785e-09, 1.171688727190023e-10).transl(4.818315064995873e-08, -3.631556402402834e-08, 0))
hIsland = hIsland.add(rect(2.7240916966726287e-09, 8.180550497299678e-10).transl(6.431956122078986e-08, -3.062365264515857e-08, 0))
hIsland = hIsland.add(rect(3.4253719270396987e-09, 2.7061105309296085e-10).transl(5.768019039944745e-08, -3.337720487868115e-08, 0))
hIsland = hIsland.sub(rect(9.8997978424939e-09, -2.1841253200058493e-10).transl(-1.1870813524912257e-08, -4e-08, 0))
hIsland = hIsland.add(rect(5.557079556655164e-09, 1.229583432179947e-09).transl(1.4462130134885334e-08, -4e-08, 0))
hIsland = hIsland.add(rect(6.922173133510328e-09, 6.448958263645818e-10).transl(1.1093154086699508e-08, -4e-08, 0))
hIsland = hIsland.sub(rect(8.805809724385786e-09, -1.215970482996762e-09).transl(5.702934445237431e-08, -3.36132243211625e-08, 0))
hIsland = hIsland.add(rect(2.1106347771447987e-09, 8.0504410741631e-11).transl(-6.095863716269593e-08, -3.210013025012919e-08, 0))
hIsland = hIsland.sub(rect(4.472249304920627e-09, -1.7535204542793452e-09).transl(-3.921623469719986e-08, -3.8223963886648635e-08, 0))
hIsland = hIsland.add(rect(6.77039429628423e-09, 2.6514614664371255e-09).transl(-8.955039326492065e-08, -4.463197368659007e-09, 0))
hIsland = hIsland.add(rect(4.667499912423011e-09, 1.1128838067697234e-09).transl(-2.4665053186145664e-08, -3.9828246482982564e-08, 0))
hIsland = hIsland.add(rect(4.27080988522314e-09, 2.7593236028527597e-09).transl(-6.074698798701654e-09, -4e-08, 0))
hIsland = hIsland.sub(rect(2.7210977875807274e-09, -2.893249233891993e-09).transl(3.438956534552286e-08, -3.8949881328306344e-08, 0))
hIsland = hIsland.add(rect(9.845098459530566e-09, 1.817218724983857e-09).transl(4.8564288953713964e-08, -3.621704223678166e-08, 0))
hIsland = hIsland.sub(rect(9.650639923617935e-09, -7.92048031425662e-10).transl(1.5070301679136838e-08, -4e-08, 0))
hIsland = hIsland.add(rect(9.984802357020607e-09, 3.312927077498641e-09).transl(6.686891203174938e-08, -2.9375335232303803e-08, 0))
hIsland = hIsland.sub(rect(2.567465541714852e-09, -5.770037454494849e-10).transl(6.630257464986358e-08, -2.9663031832019363e-08, 0))
hIsland = hIsland.add(rect(3.979127576084383e-09, 8.05269187624878e-10).transl(1.061533827984354e-09, -4e-08, 0))
hIsland = hIsland.add(rect(5.15977340142759e-09, 2.4355224595467494e-09).transl(-1.9164939324722617e-08, -3.9994763995149287e-08, 0))
hIsland = hIsland.add(rect(5.864060785977108e-09, 1.0714277675600073e-09).transl(6.507517551353108e-08, -3.026593983856778e-08, 0))
hIsland = hIsland.sub(rect(8.636489248176133e-09, -1.4899350419416594e-09).transl(3.584346193115424e-08, -3.875218379474322e-08, 0))
hIsland = hIsland.sub(rect(8.920576482847012e-09, -2.4316782729659763e-11).transl(7.878678422150291e-08, -2.1437296333182524e-08, 0))
hIsland = hIsland.add(rect(2.3249497043188355e-09, 2.7576710252422406e-09).transl(6.255762173626473e-08, -3.142018275445643e-08, 0))
hIsland = hIsland.add(rect(8.086785320968391e-09, 2.1547876831156384e-09).transl(-4.837751307204216e-08, -3.62655105155018e-08, 0))
hIsland = hIsland.add(rect(6.759824207153085e-09, 6.100997419172223e-10).transl(-3.280291428518397e-08, -3.9145477832992424e-08, 0))
hIsland = hIsland.sub(rect(2.2314967066473514e-09, -8.718919527036532e-10).transl(-3.242678237993202e-08, -3.9188795758647506e-08, 0))
hIsland = hIsland.sub(rect(5.146893298136082e-09, -1.4319578133377414e-09).transl(-4.33908663673917e-08, -3.743019801978595e-08, 0))
hIsland = hIsland.add(rect(6.156571628194431e-09, 5.157275588417963e-10).transl(7.486182025472526e-08, -2.453728202244845e-08, 0))
hIsland = hIsland.add(rect(2.8889780351135344e-09, 9.319069698655191e-10).transl(3.0362215014926444e-08, -3.940598923553485e-08, 0))
hIsland = hIsland.add(rect(7.871430804332959e-09, 3.0652488425921972e-09).transl(2.75033225821506e-08, -3.9650038764710966e-08, 0))
hIsland = hIsland.sub(rect(5.66955495411943e-09, -3.1261800037038464e-09).transl(7.672051388771742e-09, -4e-08, 0))
hIsland = hIsland.add(rect(9.698212743276962e-09, 8.239005086141157e-10).transl(-8.711591828874182e-08, -1.1207771762111955e-08, 0))
hIsland = hIsland.sub(rect(4.8617428225588795e-09, -5.82468145269198e-10).transl(4.8510567905485944e-08, -3.623101991867106e-08, 0))
hIsland = hIsland.sub(rect(2.93336909371111e-09, -2.077707546741258e-09).transl(7.528604300915531e-08, -2.4230817004418314e-08, 0))
hIsland = hIsland.add(rect(4.9614176093440205e-09, 1.428508603925291e-09).transl(5.2128550043280246e-08, -3.522082923964432e-08, 0))
hIsland = hIsland.sub(rect(9.231915291575821e-09, -2.8143477806788427e-09).transl(-1.0812982777433805e-08, -4e-08, 0))
hIsland = hIsland.add(rect(8.796383218053309e-09, 1.1858798695438931e-09).transl(-4.031144284540343e-08, -3.803101202931846e-08, 0))
hIsland = hIsland.sub(rect(7.39082568210798e-09, -9.912796923647052e-10).transl(1.472690927841454e-08, -4e-08, 0))
hIsland = hIsland.add(rect(9.94108750646169e-09, 4.1177459535213514e-10).transl(-1.3636359563536627e-08, -4e-08, 0))
hIsland = hIsland.add(rect(7.626372539941767e-09, 3.660124470874185e-09).transl(4.9997747064654294e-08, -3.5832877614614675e-08, 0))
hIsland = hIsland.add(rect(3.0357568383684965e-09, 2.9222711981439937e-09).transl(8.270451471260615e-08, -1.754470283222345e-08, 0))
hIsland = hIsland.sub(rect(4.917829065914684e-09, -3.226231009183046e-09).transl(-6.212780985957394e-08, -3.160684601668791e-08, 0))
hIsland = hIsland.sub(rect(7.2799751458246595e-09, -3.4083900462469187e-10).transl(5.943843999235938e-08, -3.271111720165077e-08, 0))
hIsland = hIsland.sub(rect(5.117895005515005e-09, -4.975725265426077e-10).transl(-1.0726585322731905e-08, -4e-08, 0))
hIsland = hIsland.sub(rect(3.0638760170903815e-09, -3.475105004768303e-09).transl(-2.861417870837964e-08, -3.956296439021648e-08, 0))
hIsland = hIsland.sub(rect(3.225553924044044e-09, -1.1488286305034903e-09).transl(-4.218840438264406e-08, -3.767519197777562e-08, 0))
hIsland = hIsland.add(rect(3.087273048258936e-09, 2.452004404334307e-10).transl(6.401198333314663e-08, -3.0766430869397764e-08, 0))
hIsland = hIsland.sub(rect(9.174658840557168e-09, -1.9542991475878726e-09).transl(-1.0504383536960879e-08, -4e-08, 0))
hIsland = hIsland.add(rect(9.038310815803015e-09, 2.3390717564595725e-09).transl(7.66477976644791e-08, -2.3203579898251553e-08, 0))
hIsland = hIsland.add(rect(2.9724018153823763e-09, 1.0492881967812714e-12).transl(-4.470123096360599e-08, -3.7147704285065446e-08, 0))
hIsland = hIsland.add(rect(8.090476465244607e-09, 2.974957794075678e-09).transl(-8.880455350215767e-08, -7.258779345060422e-09, 0))
hIsland = hIsland.sub(rect(8.727424470105796e-09, -1.7057842375503774e-09).transl(3.924118941196236e-08, -3.8219686093045934e-08, 0))
hIsland = hIsland.add(rect(7.483916474550153e-09, 1.3976276901807533e-09).transl(-5.223111415181386e-08, -3.519009586361741e-08, 0))
hIsland = hIsland.sub(rect(4.680643875654539e-09, -9.650059998848671e-10).transl(7.456548609901076e-08, -2.474777569742269e-08, 0))
hIsland = hIsland.add(rect(9.87011569638573e-09, 1.753426318361679e-09).transl(1.4085089548063591e-08, -4e-08, 0))
hIsland = hIsland.sub(rect(2.323182840950046e-09, -2.288586466012021e-09).transl(7.865268874516717e-08, -2.1554204911736402e-08, 0))
hIsland = hIsland.sub(rect(9.568906785856814e-09, -2.675593131149286e-09).transl(3.352346308501544e-08, -3.905923838273804e-08, 0))
hIsland = hIsland.sub(rect(2.997565420350763e-09, -2.30275091819155e-09).transl(-3.421791275368984e-08, -3.8972051183253824e-08, 0))
hIsland = hIsland.add(rect(6.223568859517905e-09, 3.1724362754523465e-09).transl(-1.3104552021863641e-08, -4e-08, 0))
hIsland = hIsland.add(rect(2.883457372123781e-09, 1.0062737179714565e-09).transl(2.0136093119845073e-08, -3.998239236763235e-08, 0))
hIsland = hIsland.sub(rect(2.7278728327566245e-09, -7.365606506641617e-10).transl(-1.2341367094168199e-08, -4e-08, 0))
hIsland = hIsland.add(rect(2.160550813672261e-09, 9.41641748450106e-10).transl(-6.052772253281409e-08, -3.227673939892193e-08, 0))
hIsland = hIsland.sub(rect(7.254610248555387e-09, -1.9748858841996264e-09).transl(7.174793979379998e-08, -2.6615454110475115e-08, 0))
hIsland = hIsland.add(rect(6.602869910517386e-09, 9.30904296415423e-10).transl(-3.0424957951979276e-08, -3.939989824159459e-08, 0))
hIsland = hIsland.add(rect(7.959936695351486e-09, 7.496367963628992e-10).transl(9.228333861028908e-09, -4e-08, 0))
hIsland = hIsland.sub(rect(9.75723017710481e-09, -1.166861178962973e-09).transl(-2.5985638124707207e-08, -3.97532108484288e-08, 0))
hIsland = hIsland.add(rect(8.57855039127648e-09, 1.1035767490293844e-09).transl(5.818064294311905e-08, -3.319190335544615e-08, 0))
hIsland = hIsland.add(rect(3.044771353856189e-09, 2.1083777464708143e-09).transl(3.864909070425665e-08, -3.831970390990801e-08, 0))
hIsland = hIsland.sub(rect(6.4518410630024374e-09, -1.2706888963201338e-10).transl(-4.1867151290093755e-08, -3.773837442317348e-08, 0))
hIsland = hIsland.sub(rect(7.0324425866861196e-09, -1.8749685493459542e-09).transl(-5.186652376203675e-09, -4e-08, 0))
hIsland = hIsland.add(rect(6.7911919087580835e-09, 8.185279423640716e-10).transl(4.5001282275859954e-09, -4e-08, 0))
hIsland = hIsland.sub(rect(5.375972011332731e-09, -3.179532329698152e-09).transl(-1.3070108337656905e-08, -4e-08, 0))
hIsland = hIsland.add(rect(8.41312855390363e-09, 1.4778614685598608e-09).transl(-3.7625804596222137e-08, -3.8485317843185606e-08, 0))
hIsland = hIsland.add(rect(7.53192501226335e-09, 9.836099587779115e-10).transl(3.676004539939186e-08, -3.861834742986569e-08, 0))
hIsland = hIsland.sub(rect(2.4417160502111284e-09, -1.3121269333359243e-10).transl(6.455631624179929e-08, -3.0512643695796987e-08, 0))
hIsland = hIsland.add(rect(5.651751766610322e-09, 2.231487934922402e-09).transl(-2.2200244028916592e-08, -3.993187852918536e-08, 0))
hIsland = hIsland.add(rect(4.271534049163624e-09, 1.8532309055499996e-09).transl(-1.987385452218665e-08, -3.998645090446371e-08, 0))
hIsland = hIsland.add(rect(8.575356395680776e-09, 3.0966015584945856e-09).transl(8.534738064088906e-08, -1.4145739671987998e-08, 0))
hIsland = hIsland.sub(rect(7.411785827101104e-09, -5.78064369246015e-10).transl(4.8678671816958996e-08, -3.618718096960514e-08, 0))
hIsland = hIsland.sub(rect(6.109347986827669e-09, -2.8231108096273363e-10).transl(1.9417628243016422e-08, -3.999224589257628e-08, 0))
hIsland = hIsland.sub(rect(6.226826109450983e-09, -3.754829563119568e-10).transl(8.251297868470201e-08, -1.7761064897823183e-08, 0))
hIsland = hIsland.add(rect(3.476938524060086e-09, 1.8798197486617584e-09).transl(-4.080524008917524e-08, -3.794050339251566e-08, 0))
hIsland = hIsland.add(rect(6.23335675487751e-09, 4.7394336685295955e-09).transl(-5.684717840935229e-08, -3.3678292499603874e-08, 0))
hIsland = hIsland.add(rect(4.3150129777268246e-09, 3.184840213483494e-09).transl(2.6839313186390477e-08, -3.96974147181709e-08, 0))
hIsland = hIsland.add(rect(8.260698388499113e-09, 4.2259258136305835e-10).transl(4.097613818768432e-08, -3.790866653078303e-08, 0))
hIsland = hIsland.sub(rect(2.321449730308049e-09, -3.617302552083558e-09).transl(-8.0168343133997e-08, -2.0177431408964313e-08, 0))
hIsland = hIsland.sub(rect(6.692440343891859e-09, -7.515984057569834e-10).transl(-5.564064793092816e-08, -3.4098539229328395e-08, 0))
hIsland = hIsland.sub(rect(2.1457762453946687e-09, -2.6085849277027895e-09).transl(5.767489113724006e-08, -3.337914913058043e-08, 0))
hIsland = hIsland.add(rect(5.930797089688526e-09, 2.20009121877459e-09).transl(-7.81831276182004e-08, -2.1956685405106777e-08, 0))
hIsland = hIsland.sub(rect(8.603466821783925e-09, -6.565170896950463e-10).transl(-5.329941328155112e-08, -3.4862832724103815e-08, 0))
hIsland = hIsland.add(rect(7.075551903216988e-09, 2.2043522654738684e-09).transl(5.33189572427151e-09, -4e-08, 0))
hIsland = hIsland.add(rect(9.256400149936571e-09, 2.5072111244781934e-09).transl(-2.4534711847111547e-09, -4e-08, 0))
hIsland = hIsland.sub(rect(3.749839621482274e-09, -8.751214182591775e-11).transl(5.796029963958714e-08, -3.327390281981471e-08, 0))
hIsland = hIsland.add(rect(5.195345190231172e-09, 1.138309616550319e-09).transl(4.072629962865334e-08, -3.795512012333449e-08, 0))
hIsland = hIsland.add(rect(4.502298473222959e-09, 2.0831772625388853e-09).transl(2.8725318323812572e-08, -3.955371229652253e-08, 0))
hIsland = hIsland.add(rect(7.368626402671526e-09, 9.836062333887491e-10).transl(1.8045836288579244e-08, -3.999999189442298e-08, 0))
hIsland = hIsland.sub(rect(8.469882804465485e-09, -4.913449601146845e-09).transl(-1.3667901432262829e-08, -4e-08, 0))
hIsland = hIsland.sub(rect(2.56191733514119e-09, -1.014667601531655e-10).transl(-2.753658225841994e-08, -3.964757398751129e-08, 0))
hIsland = hIsland.sub(rect(9.400172438363669e-09, -4.436433578174525e-10).transl(3.8050243481934385e-08, -3.8417732114715056e-08, 0))
hIsland = hIsland.sub(rect(6.23359704108371e-09, -2.466360946511824e-09).transl(-5.49080408770396e-08, -3.4344822415237346e-08, 0))
hIsland = hIsland.add(rect(6.144303737700098e-09, 1.278973460178986e-09).transl(8.645878975407833e-08, -1.2390185599887556e-08, 0))
hIsland = hIsland.add(rect(7.85755247375083e-09, 2.5392000829607698e-09).transl(8.413098679779982e-08, -1.5818146568056793e-08, 0))
hIsland = hIsland.add(rect(9.133308499976085e-09, 4.737718484350063e-10).transl(-4.3498808157431274e-08, -3.7407543565462986e-08, 0))
hIsland = hIsland.add(rect(5.27800574073851e-09, 2.9839847913943352e-09).transl(5.9226878406320314e-08, -3.279352021619365e-08, 0))
hIsland = hIsland.add(rect(5.335701488667937e-09, 5.321774727515334e-10).transl(-2.917337429898954e-08, -3.951541231890319e-08, 0))
hIsland = hIsland.add(rect(3.0143264681976298e-09, 1.3585678321214323e-09).transl(-8.950235507005764e-08, -4.694796812396967e-09, 0))
hIsland = hIsland.add(rect(3.310010090396752e-09, 1.6370079699957867e-09).transl(5.197232293642575e-08, -3.526741437588312e-08, 0))
hIsland = hIsland.sub(rect(4.167220075639051e-09, -1.0928507099415602e-09).transl(-3.202678039043355e-08, -3.9233589129875665e-08, 0))
hIsland = hIsland.sub(rect(9.192808201002692e-09, -1.8755784606920764e-09).transl(-3.012723762699359e-08, -3.9428518332321744e-08, 0))
hIsland = hIsland.sub(rect(4.377284276876952e-09, -1.4836200816407686e-09).transl(-1.60659563255509e-08, 4e-08, 0))
hIsland = hIsland.add(rect(8.694035169973643e-09, 1.3283681988300815e-09).transl(-5.838200426629694e-08, 3.311639467276687e-08, 0))
hIsland = hIsland.add(rect(6.288768587861429e-09, 3.3059745726133396e-09).transl(4.470215670732832e-08, 3.714749890712316e-08, 0))
hIsland = hIsland.sub(rect(2.96171583894329e-09, -1.1782985178639807e-10).transl(-6.287982102599717e-08, 3.127832871369166e-08, 0))
hIsland = hIsland.add(rect(4.078728425630393e-09, 3.142972520841256e-09).transl(-5.808566171998409e-08, 3.3227330174357096e-08, 0))
hIsland = hIsland.add(rect(3.055116106843441e-09, 9.101056151577107e-10).transl(1.5037463781572656e-08, 4e-08, 0))
hIsland = hIsland.add(rect(8.149595339945169e-09, 1.1484902681201764e-09).transl(-5.344484423956744e-08, 3.481726111947889e-08, 0))
hIsland = hIsland.add(rect(8.745276067610754e-09, 1.0429694749161136e-09).transl(5.971323988545539e-09, 4e-08, 0))
hIsland = hIsland.add(rect(6.96374565280097e-09, 1.7994912501969876e-09).transl(-3.886780249321969e-08, 3.828311855622678e-08, 0))
hIsland = hIsland.sub(rect(7.725383895632804e-09, -4.106537386512184e-09).transl(1.4182291795102745e-08, 4e-08, 0))
hIsland = hIsland.add(rect(6.584935174203626e-09, 8.676799135660991e-10).transl(7.698293574260188e-08, 2.293989254810382e-08, 0))
hIsland = hIsland.add(rect(7.081625052646953e-09, 1.6572876064094814e-09).transl(4.931709687539446e-09, 4e-08, 0))
hIsland = hIsland.add(rect(6.3703396397153715e-09, 1.9446750428898686e-09).transl(7.291862649555947e-08, 2.5867328073834636e-08, 0))
hIsland = hIsland.add(rect(3.922137731608649e-09, 1.6530020599388808e-10).transl(3.779490206383957e-08, 3.8458579018046754e-08, 0))
hIsland = hIsland.sub(rect(3.791421294470986e-09, -2.060267567676039e-09).transl(3.1045782992768144e-08, 3.9337913834460106e-08, 0))
hIsland = hIsland.add(rect(6.1928170080692776e-09, 2.5156521803898984e-10).transl(-3.185934921970246e-08, 3.925194985801693e-08, 0))
hIsland = hIsland.sub(rect(7.907055254854062e-09, -7.801692995724082e-10).transl(4.546338189731986e-08, 3.697581230905126e-08, 0))
hIsland = hIsland.add(rect(7.411822649851443e-09, 2.770044685571935e-09).transl(1.570266947887014e-08, 4e-08, 0))
hIsland = hIsland.sub(rect(2.305454561854173e-09, -1.539456125667259e-10).transl(-8.187429085512999e-08, 1.8459790869251462e-08, 0))
hIsland = hIsland.add(rect(5.541351070959022e-09, 1.2272872442172785e-09).transl(1.5237167588797936e-08, 4e-08, 0))
hIsland = hIsland.add(rect(8.202682935270864e-09, 2.104094290577073e-09).transl(-2.8386800766801024e-08, 3.9581586198599405e-08, 0))
hIsland = hIsland.add(rect(6.943250956931482e-09, 5.356335940403123e-09).transl(2.6597097376792777e-08, 3.97138294035364e-08, 0))
hIsland = hIsland.sub(rect(9.819346258243618e-09, -3.9808292500948154e-10).transl(8.953499575140822e-09, 4e-08, 0))
hIsland = hIsland.add(rect(9.788591299647065e-09, 7.92873011776466e-10).transl(8.867106181453237e-08, 7.649760385308674e-09, 0))
hIsland = hIsland.add(rect(8.903718913597524e-09, 1.2198634061821111e-09).transl(-2.4168155499266896e-08, 3.985294673545524e-08, 0))
hIsland = hIsland.add(rect(8.188987900289774e-09, 8.943468731185135e-10).transl(8.372178730590559e-08, 1.633604166243158e-08, 0))
hIsland = hIsland.sub(rect(7.2302475926881084e-09, -1.9551191478901728e-09).transl(7.620375588252617e-08, 2.3546138062200967e-08, 0))
hIsland = hIsland.add(rect(2.6015496437119383e-09, 2.32107382942377e-09).transl(-6.6624010980637e-09, 4e-08, 0))
hIsland = hIsland.sub(rect(2.425030341876278e-09, -1.5744562842997476e-09).transl(-2.8579288437464453e-08, 3.956584859897583e-08, 0))
hIsland = hIsland.sub(rect(9.624541693523207e-09, -1.7977080676151954e-09).transl(-8.231715423388005e-09, 4e-08, 0))
hIsland = hIsland.add(rect(6.094628910994195e-09, 3.4096254861838573e-10).transl(-8.810728645280398e-08, 9.111253153101625e-09, 0))
hIsland = hIsland.add(rect(6.1686319566322455e-09, 2.500777621514399e-10).transl(-7.29213109268159e-08, 2.5865568932415443e-08, 0))
hIsland = hIsland.sub(rect(2.8037294702823855e-09, -1.9099842330819688e-09).transl(3.347796091416803e-08, 3.906481131804755e-08, 0))
hIsland = hIsland.add(rect(7.124194791070834e-09, 4.3773205684631e-09).transl(6.281178525144669e-08, 3.130842145305586e-08, 0))
hIsland = hIsland.sub(rect(5.431885352430039e-09, -5.059008423841975e-09).transl(-3.398199980968009e-08, 3.900211960876426e-08, 0))
hIsland = hIsland.add(rect(9.386710453707395e-09, 3.1298180740869436e-09).transl(1.4379448257717222e-08, 4e-08, 0))
hIsland = hIsland.add(rect(8.604261790967265e-09, 2.2452139573399375e-09).transl(2.6396022284202987e-08, 3.9727104633132295e-08, 0))
hIsland = hIsland.sub(rect(9.274865398875629e-09, -1.4770262615167497e-09).transl(-3.652509718504827e-08, 3.8653337318920895e-08, 0))
hIsland = hIsland.add(rect(3.6924588601710975e-09, 1.2695031421475595e-09).transl(2.732851840590636e-08, 3.966284896174948e-08, 0))
hIsland = hIsland.add(rect(3.5419283518440808e-09, 1.376006857282105e-09).transl(-6.183556091165407e-08, 3.1732113653228966e-08, 0))
hIsland = hIsland.add(rect(5.451871917697957e-09, 2.630497796935993e-09).transl(7.369244283116316e-08, 2.5351551755033764e-08, 0))
hIsland = hIsland.sub(rect(6.130231603699292e-09, -9.761947489823726e-10).transl(7.145566533174557e-08, 2.6796511680687374e-08, 0))
hIsland = hIsland.add(rect(9.8520656924078e-09, 3.3820140354661753e-09).transl(-1.2806066315554333e-08, 4e-08, 0))
hIsland = hIsland.sub(rect(4.616307456019754e-09, -3.952814442032449e-09).transl(-8.376730775785249e-08, 1.627940104044915e-08, 0))
hIsland = hIsland.add(rect(4.638841239158221e-09, 3.5151527353000776e-09).transl(-2.951927219404169e-08, 3.948474610967568e-08, 0))
hIsland = hIsland.sub(rect(9.002828754227812e-09, -5.389604958969418e-10).transl(1.40347672572574e-08, 4e-08, 0))
hIsland = hIsland.sub(rect(4.425721900953976e-09, -2.5579458212951194e-09).transl(1.2460540357880533e-08, 4e-08, 0))
hIsland = hIsland.sub(rect(4.3599459630322835e-09, -4.6250556746848565e-10).transl(-3.7209221175512116e-09, 4e-08, 0))
hIsland = hIsland.add(rect(2.5072233979382025e-09, 5.810058875459086e-10).transl(5.649349598213044e-10, 4e-08, 0))
hIsland = hIsland.add(rect(3.4885748082649206e-09, 2.7913496149652323e-09).transl(7.476550637005716e-08, 2.460601456228127e-08, 0))
hIsland = hIsland.sub(rect(4.802131166138145e-09, -8.004577489096426e-10).transl(-6.077187668283774e-08, 3.2177011218175714e-08, 0))
hIsland = hIsland.sub(rect(9.332990630060311e-09, -3.7433485840976877e-10).transl(1.525874081631612e-09, 4e-08, 0))
hIsland = hIsland.sub(rect(7.020081296537869e-09, -5.089262057998751e-09).transl(-7.022990860552461e-08, 2.7532453617114552e-08, 0))
hIsland = hIsland.add(rect(2.682311334217789e-09, 1.0663044737791756e-09).transl(-1.7767009940369674e-08, 4e-08, 0))
hIsland = hIsland.add(rect(5.365398190984726e-09, 2.02924265674397e-09).transl(-3.3480957275459935e-08, 3.9064444862538727e-08, 0))
hIsland = hIsland.sub(rect(4.8007448244875356e-09, -1.1215343641297448e-09).transl(-8.756259955432921e-08, 1.0319655571999654e-08, 0))
hIsland = hIsland.add(rect(2.144069719145519e-09, 4.741982546604528e-09).transl(-7.423722388848049e-09, 4e-08, 0))
hIsland = hIsland.add(rect(8.824621778185197e-09, 1.9314819948209492e-09).transl(-2.45083879039079e-08, 3.983624228837487e-08, 0))
hIsland = hIsland.sub(rect(2.2564950063423216e-09, -2.6216134467495366e-09).transl(8.197902175682494e-08, 1.834750946061404e-08, 0))
hIsland = hIsland.sub(rect(2.386614700736232e-09, -4.914873441073918e-10).transl(4.887153183106604e-08, 3.613652320552974e-08, 0))
hIsland = hIsland.add(rect(2.0859287675924864e-09, 1.1250031638831065e-09).transl(5.015770781146417e-08, 3.5788653576068036e-08, 0))
hIsland = hIsland.add(rect(8.754894696827656e-09, 1.215860719673588e-10).transl(6.329082839416966e-09, 4e-08, 0))
hIsland = hIsland.add(rect(2.3591774716134764e-09, 9.53259524294122e-11).transl(-5.2404222429180545e-08, 3.513795334302887e-08, 0))
hIsland = hIsland.sub(rect(9.10300540496709e-09, -9.970715659535686e-10).transl(6.72675050504478e-08, 2.9169116014107726e-08, 0))
hIsland = hIsland.sub(rect(8.218389227425734e-09, -2.4301309747803956e-09).transl(-7.378535813627116e-08, 2.528842155401987e-08, 0))
hIsland = hIsland.add(rect(2.241002315783832e-09, 4.501397734836993e-09).transl(-7.445041432062221e-08, 2.482873884312596e-08, 0))
hIsland = hIsland.add(rect(6.881404907454284e-09, 5.536447478836187e-10).transl(5.573813011635063e-08, 3.4065267490117685e-08, 0))
hIsland = hIsland.sub(rect(3.472109607165725e-09, -6.807466771713361e-10).transl(2.771514066116275e-08, 3.963419166256589e-08, 0))
hIsland = hIsland.sub(rect(7.776052868624017e-09, -1.1445476261584021e-09).transl(-1.3711221312464118e-08, 4e-08, 0))
hIsland = hIsland.add(rect(9.362209866294138e-09, 2.350726647708679e-09).transl(-8.969179811577784e-08, 3.69709941888696e-09, 0))
hIsland = hIsland.add(rect(4.982857513113744e-09, 1.0909681764211666e-09).transl(7.321493456519251e-08, 2.5671903031038317e-08, 0))
hIsland = hIsland.sub(rect(6.416983906859678e-09, -1.0072456770559838e-09).transl(4.208589984407543e-09, 4e-08, 0))
hIsland = hIsland.sub(rect(3.6444340642510452e-09, -3.4492318967728556e-09).transl(7.471654655783752e-08, 2.464083574014973e-08, 0))
hIsland = hIsland.add(rect(8.336506887285761e-09, 1.3861999349172504e-10).transl(2.3419777650788217e-08, 3.988651343211607e-08, 0))
hIsland = hIsland.sub(rect(2.7537114300681873e-09, -1.572455720847426e-09).transl(5.285441002866334e-08, 3.5000749998815335e-08, 0))
hIsland = hIsland.add(rect(6.463558689223698e-09, 5.110823813355328e-09).transl(6.653295986639412e-08, 2.9546739530005773e-08, 0))
hIsland = hIsland.add(rect(8.592278767532087e-09, 2.1295001665335295e-09).transl(7.508000946518032e-08, 2.4380424495836812e-08, 0))
hIsland = hIsland.sub(rect(9.039508794167678e-09, -1.2839418702692041e-09).transl(6.047134837147692e-08, 3.229964151230871e-08, 0))
hIsland = hIsland.add(rect(5.565794358933593e-09, 1.6120996046745694e-10).transl(-6.33939153396015e-08, 3.104851068047622e-08, 0))
hIsland = hIsland.sub(rect(9.342413320575414e-09, -1.745738026527093e-09).transl(-2.211503759951806e-08, 3.993461656858371e-08, 0))
hIsland = hIsland.sub(rect(9.020428989571403e-09, -2.1870665268872834e-09).transl(-3.670559332260339e-08, 3.8626498846020966e-08, 0))
hIsland = hIsland.sub(rect(7.235902345893482e-09, -1.9973283192997884e-09).transl(7.450702740112231e-08, 2.4788960196426234e-08, 0))
hIsland = hIsland.sub(rect(3.894077690328181e-09, -2.3377362272725913e-09).transl(-4.226511632231056e-08, 3.765996388192482e-08, 0))
hIsland = hIsland.sub(rect(9.177360492014922e-09, -6.311733284589319e-11).transl(2.983198268781459e-08, 3.945619615892882e-08, 0))
hIsland = hIsland.sub(rect(7.5858564258801e-09, -2.8856372662721906e-09).transl(-5.229441538694619e-08, 3.5171068152092455e-08, 0))
hIsland = hIsland.sub(rect(2.988851206597108e-09, -4.400702659165138e-09).transl(5.198121148535755e-08, 3.526477129431804e-08, 0))
hIsland = hIsland.sub(rect(3.4249848711174258e-09, -1.0522976524023964e-09).transl(5.18601253639822e-08, 3.530070082163502e-08, 0))
hIsland = hIsland.add(rect(9.069548904113663e-09, 1.7493729180410536e-09).transl(-4.589411707372842e-09, 4e-08, 0))
hIsland = hIsland.sub(rect(7.393137743167758e-09, -1.9659477187431015e-09).transl(-8.614590259745409e-08, 1.2911569593818518e-08, 0))
hIsland = hIsland.add(rect(7.81526916723561e-09, 1.4486506967437543e-09).transl(-8.457250882451777e-09, 4e-08, 0))
hIsland = hIsland.add(rect(5.657963821221042e-09, 1.4898354366605179e-09).transl(-3.838913246084004e-08, 3.8362642891190544e-08, 0))
hIsland = hIsland.add(rect(6.00325507405469e-09, 2.600760988394593e-09).transl(-7.789983423713766e-08, 2.2194495608086156e-08, 0))
hIsland = hIsland.add(rect(2.6823168745190174e-09, 1.1756800816424012e-09).transl(-5.145920285270401e-08, 3.541849339281027e-08, 0))
hIsland = hIsland.add(rect(9.728858227252255e-09, 1.6517735782565136e-09).transl(-8.29954334331971e-10, 4e-08, 0))
hIsland = hIsland.add(rect(4.704430068647883e-09, 7.128668373638768e-10).transl(-2.659120676852457e-08, 3.971422283967547e-08, 0))
hIsland = hIsland.add(rect(9.366920361291034e-09, 1.3342901538684193e-09).transl(-2.5944279452294567e-08, 3.975576836779204e-08, 0))
hIsland = hIsland.sub(rect(7.338471759548161e-09, -5.064189919775492e-11).transl(-6.641307257512311e-08, 2.9607381482004543e-08, 0))
hIsland = hIsland.sub(rect(5.274028941866695e-09, -6.559120144952152e-10).transl(8.751578819929812e-08, 1.0416558385071673e-08, 0))
hIsland = hIsland.add(rect(7.601860084026094e-09, 4.247375237633201e-09).transl(8.157305184372463e-08, 1.877800032145495e-08, 0))
hIsland = hIsland.sub(rect(3.0852615847908177e-09, -9.35447959092866e-10).transl(6.89871492851192e-08, 2.824228621757384e-08, 0))
hIsland = hIsland.sub(rect(8.756980466530417e-09, -2.056708724008074e-09).transl(-1.0208203512521481e-08, 4e-08, 0))
hIsland = hIsland.sub(rect(5.697939117055334e-09, -1.1854501291956556e-09).transl(-4.950641705416957e-08, 3.5967001699297415e-08, 0))
hIsland = hIsland.add(rect(8.012126794332048e-09, 7.206287002973898e-10).transl(1.9843279117982313e-08, 3.998688952618578e-08, 0))
hIsland = hIsland.add(rect(5.726698782570056e-09, 1.7324603945635719e-09).transl(-8.340315891631994e-08, 1.672606825249803e-08, 0))
hIsland = hIsland.sub(rect(9.737024874219653e-09, -7.679424701467778e-10).transl(-8.602795933899192e-09, 4e-08, 0))
hIsland = hIsland.add(rect(7.790306327705466e-09, 1.6924335672440636e-09).transl(-4.471175556580523e-08, 3.714536889613344e-08, 0))
hIsland = hIsland.add(rect(9.913337986303341e-09, 4.891582258241441e-10).transl(5.203667703721243e-08, 3.524825806161109e-08, 0))
hIsland = hIsland.sub(rect(7.220340718083146e-09, -2.4494659051976764e-09).transl(3.627611053137331e-08, 3.8689902755897575e-08, 0))
hIsland = hIsland.add(rect(7.558791917185016e-09, 3.4635952994683406e-10).transl(-2.2345449708192634e-08, 3.992708271596976e-08, 0))
hIsland = hIsland.sub(rect(7.372769841119384e-09, -1.561079635499153e-09).transl(5.627092759176169e-08, 3.388131108932361e-08, 0))
hIsland = hIsland.sub(rect(4.68170766995997e-09, -3.631977655103855e-09).transl(8.066719784085254e-08, 1.9695383262182897e-08, 0))
hIsland = hIsland.add(rect(8.564360557538775e-09, 6.0595279194924e-10).transl(4.4931518316678984e-08, 3.7096359847534545e-08, 0))
hIsland = hIsland.sub(rect(7.02291158998439e-09, -3.549283039848569e-10).transl(-5.960728340765442e-08, 3.26449000017147e-08, 0))
hIsland = hIsland.add(rect(2.2859329436516236e-09, 1.5233978351903466e-09).transl(-1.0170463189896902e-08, 4e-08, 0))
hIsland = hIsland.sub(rect(2.484327268912364e-09, -1.1227928816950802e-09).transl(-1.8874944772840204e-08, 3.9997046463660256e-08, 0))
hIsland = hIsland.add(rect(8.09168668253857e-09, 2.849807786001335e-09).transl(-2.1525386933072555e-08, 3.9952022333940026e-08, 0))
hIsland = hIsland.add(rect(7.719972760739366e-09, 1.981381681719819e-10).transl(-5.72295540569549e-08, 3.354121330953084e-08, 0))
hIsland = hIsland.add(rect(9.53867331747335e-09, 4.18421116640871e-09).transl(-4.7319045244900855e-08, 3.65334008596609e-08, 0))
hIsland = hIsland.add(rect(8.8686067506845e-09, 2.754815773315611e-10).transl(-3.0288257374449184e-08, 3.9413128142395885e-08, 0))
hIsland = hIsland.sub(rect(3.897533881361225e-09, -5.898302424997489e-10).transl(-4.659289941876633e-08, 3.6710605419356027e-08, 0))
hIsland = hIsland.sub(rect(9.745079919056553e-09, -2.322374751196139e-09).transl(-5.7335437032968594e-08, 3.350291766097323e-08, 0))
hIsland = hIsland.add(rect(3.662877228715483e-09, 4.3900072136543173e-10).transl(-1.694656498789313e-09, 4e-08, 0))
hIsland = hIsland.add(rect(5.823394098985382e-09, 6.501549042445108e-10).transl(-1.6442708306050153e-08, 4e-08, 0))
hIsland = hIsland.sub(rect(4.289000920809774e-09, -1.51343892750191e-09).transl(4.4953676857677434e-08, 3.709139239874594e-08, 0))
hIsland = hIsland.add(rect(6.577340588606542e-09, 1.1301807220590873e-09).transl(3.730598080204296e-08, 3.853521359499754e-08, 0))
hIsland = hIsland.sub(rect(7.69018571810456e-09, -2.503423075079684e-09).transl(3.404546708688677e-08, 3.899407594277304e-08, 0))
hIsland = hIsland.add(rect(7.460001962479075e-09, 4.427258554045628e-09).transl(-5.236229004088289e-08, 3.515061518500982e-08, 0))
hIsland = hIsland.sub(rect(7.836987764419048e-09, -5.380702041171113e-10).transl(7.648531892344016e-08, 2.332981104647101e-08, 0))
hIsland = hIsland.sub(rect(9.16330270365005e-09, -3.90881130259185e-09).transl(3.45838251834755e-08, 3.892449458223822e-08, 0))
hIsland = hIsland.add(rect(8.32018806882981e-09, 2.3443323106473727e-09).transl(5.32916682769737e-08, 3.486525274303655e-08, 0))
hIsland = hIsland.sub(rect(2.3626614131451753e-09, -1.5645001606789925e-09).transl(-9.32716565240896e-09, 4e-08, 0))
hIsland = hIsland.sub(rect(9.752918688614402e-09, -2.0043546561763743e-09).transl(-6.273071173288732e-08, 3.134418364079403e-08, 0))
hIsland = hIsland.sub(rect(8.647027182689982e-09, -1.0198295024842916e-09).transl(-5.7848456551580566e-09, 4e-08, 0))
hIsland = hIsland.sub(rect(9.935459371650588e-09, -6.79194852726535e-10).transl(-8.187262623571704e-08, 1.8461568504652388e-08, 0))
hIsland = hIsland.sub(rect(3.7047595035056003e-09, -1.5370624747231048e-09).transl(3.9658138302815914e-08, 3.814739544713414e-08, 0))
hIsland = hIsland.sub(rect(2.2703593860955673e-09, -2.6691920781908668e-09).transl(2.992687577635506e-08, 3.9447377176637015e-08, 0))
hIsland = hIsland.sub(rect(3.814855539007691e-09, -2.774908036078812e-09).transl(8.826206623948435e-08, 8.735517958282716e-09, 0))
hIsland = hIsland.sub(rect(5.603094563366808e-09, -3.661522794104738e-12).transl(-8.029611004024011e-08, 2.0055437625494283e-08, 0))
hIsland = hIsland.sub(rect(5.608955239110849e-09, -2.552609005415785e-09).transl(-3.5622841472953273e-08, 3.8783330780448266e-08, 0))
hIsland = hIsland.sub(rect(8.223077914341214e-09, -2.5538239010063713e-09).transl(5.444882518997537e-09, 4e-08, 0))
hIsland = hIsland.sub(rect(4.717493616128017e-09, -2.513491783922736e-09).transl(-3.900196249228874e-08, 3.826046847576933e-08, 0))
hIsland = hIsland.add(rect(9.645236124664088e-09, 7.753674890433093e-10).transl(-6.418233719772212e-09, 4e-08, 0))
hIsland = hIsland.add(rect(4.591825057343339e-09, 1.7852247903682666e-09).transl(5.414984810275306e-08, 3.459281878907872e-08, 0))
hIsland = hIsland.sub(rect(9.415624080211425e-09, -1.3697666685206087e-09).transl(-1.3658153190764738e-08, 4e-08, 0))
hIsland = hIsland.sub(rect(9.125540181957423e-09, -2.309519476258993e-09).transl(-8.455452790959815e-08, 1.5260038334766933e-08, 0))
hIsland = hIsland.add(rect(6.12958602643871e-09, 1.949174405829412e-09).transl(-2.0916468623709657e-08, 3.9967170983315074e-08, 0))
hIsland = hIsland.add(rect(8.18108083075338e-09, 1.061939160930115e-09).transl(-5.3131090698364454e-08, 3.4915269866621976e-08, 0))
hIsland = hIsland.sub(rect(8.032677099396836e-09, -4.2785538471375785e-10).transl(6.622529186155511e-08, 2.970181659275781e-08, 0))
hIsland = hIsland.sub(rect(6.732380204168565e-09, -1.7994126611966886e-10).transl(9.565059686735968e-09, 4e-08, 0))
hIsland = hIsland.add(rect(3.0882125903682536e-09, 2.2148557773510084e-09).transl(7.756336317415613e-08, 2.247224465995023e-08, 0))
hIsland = hIsland.add(rect(9.860008595022301e-09, 1.2532518078127318e-09).transl(5.5331738804765035e-08, 3.4203193112310796e-08, 0))
hIsland = hIsland.add(rect(8.225214358664893e-09, 3.9866063409343903e-10).transl(-4.082919741099805e-08, 3.793605627785482e-08, 0))
hIsland = hIsland.sub(rect(8.740095722230247e-09, -1.5261618931089103e-09).transl(8.137132976902171e-08, 1.8987281019843616e-08, 0))
hIsland = hIsland.sub(rect(6.571837128148767e-09, -1.0962828570219533e-09).transl(1.5530113476539142e-09, 4e-08, 0))
hIsland = hIsland.sub(rect(2.3155735099987934e-09, -2.5097805120240315e-09).transl(6.312737193162155e-08, 3.116820308425837e-08, 0))
hIsland = hIsland.add(rect(9.43653542779601e-09, 2.984457625458878e-09).transl(1.917661811817149e-08, 3.999465847747205e-08, 0))
hIsland = hIsland.sub(rect(9.286585458698617e-09, -1.5990866492281955e-09).transl(-5.308711425850904e-08, 3.492891552593644e-08, 0))
hIsland = hIsland.add(rect(7.859881664636607e-09, 4.62982634807959e-09).transl(-2.8187162485114025e-09, 4e-08, 0))
hIsland = hIsland.sub(rect(3.941807642552561e-09, -1.6668181265278232e-10).transl(7.266492040278521e-08, 2.6032662753712032e-08, 0))
hIsland = hIsland.add(rect(7.648121528801493e-09, 5.638046516315465e-10).transl(-7.296232169143542e-08, 2.583866847111587e-08, 0))
hIsland = hIsland.add(rect(3.2378225681882358e-09, 2.187153881347097e-09).transl(-8.554567519429325e-08, 1.3850856399816773e-08, 0))
hIsland = hIsland.sub(rect(4.649082729013076e-09, -3.080218149286171e-09).transl(1.643405253122962e-08, 4e-08, 0))
hIsland = hIsland.sub(rect(3.6016901326970974e-09, -4.038843211207517e-10).transl(-5.004125607110532e-08, 3.582087599735463e-08, 0))
hIsland = hIsland.sub(rect(6.508506116254783e-09, -1.5402722671503008e-09).transl(3.016672534939282e-08, 3.9424763455737784e-08, 0))
hIsland = hIsland.sub(rect(2.3857953436939497e-09, -1.9110469890749742e-09).transl(6.532712249478469e-08, 3.0144423333958933e-08, 0))
hIsland = hIsland.add(rect(6.416525122710653e-09, 6.728521870606313e-11).transl(-2.4153914603226158e-08, 3.985362622353823e-08, 0))
hIsland = hIsland.sub(rect(7.0307182966860686e-09, -1.582386923282282e-09).transl(-6.962207222559434e-08, 2.7884028234768792e-08, 0))
hIsland = hIsland.add(rect(7.002679387771005e-09, 1.1901647756589478e-09).transl(-1.6760441985773103e-08, 4e-08, 0))
hIsland = hIsland.sub(rect(2.683898041568446e-09, -2.8545869892763305e-09).transl(8.219212573071293e-08, 1.8116316516534667e-08, 0))
hIsland = hIsland.sub(rect(2.5385999967015556e-09, -5.644856255724333e-10).transl(7.351892027462543e-08, 2.546875046945261e-08, 0))
hIsland = hIsland.add(rect(9.65142319000978e-09, 8.51713331644075e-10).transl(7.840561251723126e-08, 2.1767301734951118e-08, 0))
hIsland = hIsland.sub(rect(4.469512488021656e-09, -2.8485015142121236e-10).transl(-6.543266423309751e-09, 4e-08, 0))
hIsland = hIsland.add(rect(5.266342637088259e-09, 2.83625852529698e-09).transl(-5.797847660890692e-10, 4e-08, 0))
hIsland = hIsland.add(rect(9.325197299199623e-09, 1.9655765791343175e-10).transl(-1.9217166594084106e-09, 4e-08, 0))
hIsland = hIsland.add(rect(4.029642576377219e-09, 1.769254324009854e-09).transl(8.814270844426753e-08, 9.02671706764338e-09, 0))
hIsland = hIsland.add(rect(3.140147126832061e-09, 2.40207633825769e-09).transl(5.532264350775901e-08, 3.420625656434662e-08, 0))
hIsland = hIsland.sub(rect(5.602664134892007e-09, -8.002579323778107e-10).transl(1.1902426590358413e-09, 4e-08, 0))
hIsland = hIsland.sub(rect(9.38250456844839e-09, -1.868590066098444e-09).transl(2.460105510412446e-08, 3.9831535956319874e-08, 0))
hIsland = hIsland.add(rect(7.451806971829308e-09, 2.2698429223763587e-09).transl(1.8575883042644475e-08, 3.999872049929367e-08, 0))
hIsland = hIsland.sub(rect(7.593093278843123e-09, -7.682979889811959e-10).transl(-4.837880047611377e-08, 3.6265177672458194e-08, 0))
hIsland = hIsland.sub(rect(9.494446740003334e-09, -1.4933396913875318e-09).transl(7.272054182989412e-08, 2.5996570891170093e-08, 0))
hIsland = hIsland.sub(rect(7.617755845727147e-09, -2.4783800893175095e-09).transl(7.997033005663212e-08, 2.0364564605349567e-08, 0))
hIsland = hIsland.add(rect(7.470769554017401e-09, 2.9037968283633698e-09).transl(-4.110764241492032e-08, 3.788398820548255e-08, 0))
hIsland = hIsland.sub(rect(4.177529502733515e-09, -7.565976056346455e-10).transl(1.6068447444868046e-08, 4e-08, 0))
hIsland = hIsland.add(rect(4.7726137900847135e-09, 1.5454830597945098e-09).transl(-5.005671099837243e-08, 3.5816607982850206e-08, 0))
hIsland = hIsland.sub(rect(2.9188159650569818e-09, -1.9849821633027837e-09).transl(6.892922490318529e-08, 2.8274525302805773e-08, 0))
hIsland = hIsland.sub(rect(7.280901342823424e-09, -1.4924895713987915e-10).transl(-5.697548335624777e-08, 3.363250786871464e-08, 0))
hIsland = hIsland.add(rect(9.354288406893045e-09, 2.1706568645135786e-10).transl(7.000817554229042e-08, 2.7661700116256394e-08, 0))
hIsland = hIsland.sub(rect(8.851131988553711e-09, -3.02949770285938e-09).transl(4.055565803960211e-08, 3.798652413100889e-08, 0))
hIsland = hIsland.add(rect(3.318186970773879e-09, 1.7860496240451177e-09).transl(7.603426138629504e-08, 2.3674910570881886e-08, 0))
hIsland = hIsland.sub(rect(6.020455027892706e-09, -2.5959298619015945e-10).transl(3.903986281270338e-08, 3.825404107122e-08, 0))
hIsland = hIsland.add(rect(4.735153357450266e-09, 9.475083525669249e-11).transl(6.404062182979219e-08, 3.07532048993616e-08, 0))
hIsland = hIsland.sub(rect(8.773025157665419e-09, -4.588871679723329e-09).transl(-2.1241159931969724e-09, 4e-08, 0))
hIsland = hIsland.add(rect(8.02914702847093e-09, 3.1952943119363665e-09).transl(2.1310591452461902e-08, 3.99576936156836e-08, 0))
hIsland = hIsland.sub(rect(3.6752074625590094e-09, -1.2727876552661885e-10).transl(-5.105824752607288e-08, 3.553450883376703e-08, 0))
hIsland = hIsland.sub(rect(4.4806690755088316e-09, -9.287063237933057e-11).transl(-3.7596375336831736e-08, 3.848994607244703e-08, 0))
hIsland = hIsland.sub(rect(4.980598351327847e-09, -7.533769768965106e-10).transl(-3.946585277537673e-08, 3.818092554537941e-08, 0))
hIsland = hIsland.sub(rect(4.594045820741367e-09, -1.3947086560618591e-09).transl(-6.182295679266276e-08, 3.17374863934854e-08, 0))
hIsland = hIsland.add(rect(2.2278617356387693e-09, 9.049427981721284e-10).transl(-2.7866877428629996e-08, 3.962262077527628e-08, 0))
hIsland = hIsland.sub(rect(2.2081200785027245e-09, -5.377500549954785e-09).transl(4.968623130248661e-08, 3.5918214480034224e-08, 0))
vIsland = hIsland.rotz(pi / 2)
hIslands = hIslands.add(hIsland.transl(-a/2, a, 0))
hIsland = rect(islandLength-2*ellipseConstant, islandWidth)
hIsland = hIsland.add(ellipse(ellipseConstant*2, islandWidth).transl(islandLength/2-ellipseConstant, 0, 0))
hIsland = hIsland.add(ellipse(ellipseConstant*2, islandWidth).transl(-islandLength/2+ellipseConstant, 0, 0))
hIsland = hIsland.sub(rect(4.635647143069735e-09, -4.635264409073778e-09).transl(7.164408356261843e-08, -2.6680044669334007e-08, 0))
hIsland = hIsland.add(rect(2.3482061095784393e-09, 1.6452415973608154e-09).transl(-7.196842247873423e-09, -4e-08, 0))
hIsland = hIsland.add(rect(8.258019027739902e-09, 1.0414860983820387e-09).transl(4.5428434430811665e-08, -3.6983817718669015e-08, 0))
hIsland = hIsland.sub(rect(2.3072560979474962e-09, -9.725922553191534e-10).transl(-3.424945393321302e-08, -3.896799591748094e-08, 0))
hIsland = hIsland.sub(rect(4.698377156581974e-09, -9.565438281278568e-10).transl(7.712868422041665e-08, -2.2823792967437473e-08, 0))
hIsland = hIsland.add(rect(9.814214528519828e-09, 3.282748148135726e-10).transl(-7.222670592332097e-08, -2.631401286496046e-08, 0))
hIsland = hIsland.sub(rect(3.879732605928565e-09, -3.555579822353219e-09).transl(5.93571959334092e-08, -3.274283610519415e-08, 0))
hIsland = hIsland.sub(rect(3.446417705258899e-09, -1.8844167334836766e-09).transl(6.055069466609474e-08, -3.226739354587978e-08, 0))
hIsland = hIsland.add(rect(6.913853262383509e-09, 7.405959787872398e-11).transl(-7.662790154455768e-08, -2.3219093093815603e-08, 0))
hIsland = hIsland.add(rect(3.158257846629421e-09, 2.5051298460113177e-09).transl(3.582548756822195e-08, -3.8754736838937477e-08, 0))
hIsland = hIsland.add(rect(8.850585113952857e-09, 2.751306241008963e-09).transl(-8.602955501552116e-08, -1.3099567003377705e-08, 0))
hIsland = hIsland.sub(rect(7.038430955122148e-09, -6.258251693709346e-10).transl(-1.2324064658891755e-10, -4e-08, 0))
hIsland = hIsland.add(rect(7.2264107985652196e-09, 5.833208441355618e-10).transl(4.689982749612047e-08, -3.66363509806491e-08, 0))
hIsland = hIsland.add(rect(3.214523222018481e-09, 5.795057597147158e-10).transl(-4.9997045571781576e-08, -3.5833070949415484e-08, 0))
hIsland = hIsland.sub(rect(2.2673029934979703e-09, -2.8213605735751223e-09).transl(8.269415848294854e-08, -1.755648607047959e-08, 0))
hIsland = hIsland.add(rect(9.706569844422796e-09, 7.040672933198445e-10).transl(4.422154336771248e-08, -3.725301654624504e-08, 0))
hIsland = hIsland.add(rect(2.6556657541548754e-09, 2.114177544979916e-09).transl(6.853029068615014e-08, -2.8494583214785077e-08, 0))
hIsland = hIsland.add(rect(6.1842388638998266e-09, 1.6343120689452236e-09).transl(7.504620358972638e-08, -2.4404833158235772e-08, 0))
hIsland = hIsland.add(rect(7.464009271731359e-09, 2.991900475375954e-09).transl(-1.2146585726167248e-08, -4e-08, 0))
hIsland = hIsland.add(rect(5.889992922361282e-09, 2.432007935459028e-09).transl(-5.239210030329648e-08, -3.514161577793413e-08, 0))
hIsland = hIsland.add(rect(7.3342535732969855e-09, 2.938618180774351e-10).transl(6.716245685054328e-08, -2.9223768634718855e-08, 0))
hIsland = hIsland.add(rect(9.218936041748789e-09, 1.983467699371191e-09).transl(-8.941054708306745e-08, -5.107902534460266e-09, 0))
hIsland = hIsland.sub(rect(9.785358531991023e-09, -3.1910344025181115e-09).transl(1.061275596116643e-08, -4e-08, 0))
hIsland = hIsland.add(rect(4.483483662853874e-09, 1.2911784432598036e-09).transl(2.5393664277308576e-08, -3.9788537218629786e-08, 0))
hIsland = hIsland.sub(rect(4.7289884151925154e-09, -4.554409771697629e-09).transl(4.837520644115558e-08, -3.626610682462593e-08, 0))
hIsland = hIsland.add(rect(8.902191439206241e-09, 2.1844047440086343e-09).transl(-5.489467970282588e-08, -3.434925291488098e-08, 0))
hIsland = hIsland.sub(rect(7.737840426794871e-09, -2.321308179438626e-09).transl(1.849999221931382e-08, -3.999903551221705e-08, 0))
hIsland = hIsland.sub(rect(7.666846704818546e-09, -6.856194066366645e-10).transl(1.6696982325068582e-08, -4e-08, 0))
hIsland = hIsland.sub(rect(3.2098666002168015e-09, -1.3026816630962117e-09).transl(8.738736875197764e-08, -1.0677556039972471e-08, 0))
hIsland = hIsland.sub(rect(3.880068362514992e-09, -2.7718999922045415e-09).transl(-3.58884351928759e-08, -3.8745783866016466e-08, 0))
hIsland = hIsland.sub(rect(4.30558430415283e-09, -2.0445890745214462e-09).transl(8.347694131252556e-08, -1.6636733827755423e-08, 0))
hIsland = hIsland.sub(rect(8.757447793300935e-09, -1.6370849406168151e-09).transl(7.382780861425411e-08, -2.525949146464623e-08, 0))
hIsland = hIsland.sub(rect(8.99557290269057e-09, -1.2865021207323528e-09).transl(-2.8806011896993783e-08, -3.9546932997787456e-08, 0))
hIsland = hIsland.add(rect(9.642934497075197e-09, 3.480345228150777e-09).transl(2.3544277597514737e-08, -3.988123180113463e-08, 0))
hIsland = hIsland.add(rect(4.680222376324812e-09, 2.5154464618215613e-09).transl(-6.694966061190854e-08, -2.9333810633632408e-08, 0))
hIsland = hIsland.sub(rect(2.0969852859707806e-09, -1.6825695366832032e-09).transl(-5.0348509365800187e-08, -3.573554245266231e-08, 0))
hIsland = hIsland.sub(rect(7.761769611712991e-09, -1.8238598782113191e-09).transl(6.451599225614318e-08, -3.05316192327089e-08, 0))
hIsland = hIsland.sub(rect(9.654748485094983e-09, -9.631461797048054e-11).transl(4.493555822976543e-08, -3.709545454356224e-08, 0))
hIsland = hIsland.sub(rect(6.613797275638276e-09, -1.9040429466378653e-10).transl(4.035567936455739e-08, -3.802299336897843e-08, 0))
hIsland = hIsland.add(rect(8.461706634448614e-09, 2.1896956426706545e-10).transl(-7.97334887244145e-08, -2.0585386536616465e-08, 0))
hIsland = hIsland.sub(rect(6.763332468777808e-09, -2.5238170671724945e-09).transl(-4.494580676507957e-08, -3.709315724132039e-08, 0))
hIsland = hIsland.add(rect(2.8830851991195216e-09, 2.807497489610348e-09).transl(2.494259469462628e-08, -3.981361040820671e-08, 0))
hIsland = hIsland.add(rect(2.636328730807132e-09, 1.5311903144706486e-10).transl(5.729050167552751e-08, -3.351918778888219e-08, 0))
hIsland = hIsland.add(rect(6.279099778662084e-09, 2.2465537289078947e-09).transl(5.86647668210842e-09, -4e-08, 0))
hIsland = hIsland.sub(rect(6.290494786227007e-09, -1.5112000151899853e-09).transl(3.860251633811613e-08, -3.832744045098718e-08, 0))
hIsland = hIsland.add(rect(4.717105674639883e-09, 1.247240264042962e-09).transl(6.316661943694527e-08, -3.1150651899714866e-08, 0))
hIsland = hIsland.sub(rect(7.222291696191088e-09, -4.359293886784478e-09).transl(5.234092864812e-08, -3.5157057751586294e-08, 0))
hIsland = hIsland.add(rect(7.648645555395067e-09, 6.089582809772559e-10).transl(8.24773528156038e-08, -1.7800948215590096e-08, 0))
hIsland = hIsland.add(rect(4.719715389080822e-09, 2.953793426997523e-09).transl(-3.7022973523315736e-08, -3.8578629336204465e-08, 0))
hIsland = hIsland.add(rect(4.691095904346552e-09, 4.8521249586092465e-09).transl(3.8461289573193765e-08, -3.835078358448234e-08, 0))
hIsland = hIsland.sub(rect(7.997563831795984e-09, -4.391656754351317e-09).transl(-2.4990233354063622e-08, -3.981103760674726e-08, 0))
hIsland = hIsland.add(rect(9.468223661879905e-09, 3.4515144308481363e-09).transl(1.288517488265928e-08, -4e-08, 0))
hIsland = hIsland.add(rect(4.200332648140683e-09, 1.067310906073672e-09).transl(-8.513349489433345e-08, -1.4456126294059056e-08, 0))
hIsland = hIsland.add(rect(4.331022122871562e-09, 3.739861336194197e-09).transl(4.9376473102666217e-08, -3.6002044419134085e-08, 0))
hIsland = hIsland.sub(rect(5.6682182027486045e-09, -4.040967039461399e-10).transl(6.8856510132828704e-09, -4e-08, 0))
hIsland = hIsland.add(rect(4.0852498124421795e-09, 1.3661425578810015e-09).transl(-5.174746412752058e-08, -3.533398263275577e-08, 0))
hIsland = hIsland.sub(rect(8.656170347848917e-09, -8.165847115433444e-10).transl(4.4772204086153995e-08, -3.713193481129198e-08, 0))
hIsland = hIsland.sub(rect(9.109699214018526e-09, -3.3792149790445036e-09).transl(2.996506485674141e-08, -3.944380759647851e-08, 0))
hIsland = hIsland.add(rect(6.675698127903032e-09, 2.137176888336899e-10).transl(3.7958740659274634e-08, -3.843243498715531e-08, 0))
hIsland = hIsland.sub(rect(7.148690756646332e-09, -7.090350333131465e-10).transl(-8.966708106819647e-08, -3.842159370853314e-09, 0))
hIsland = hIsland.sub(rect(8.276167667790728e-09, -1.2960650471814395e-09).transl(4.407896932902778e-08, -3.728389318415912e-08, 0))
hIsland = hIsland.add(rect(7.945389812141745e-09, 2.622071950036045e-10).transl(2.3207198126007342e-08, -3.98952528491819e-08, 0))
hIsland = hIsland.sub(rect(7.393361322006166e-09, -1.2360443481203575e-09).transl(6.124847064097879e-09, -4e-08, 0))
hIsland = hIsland.sub(rect(2.843665114576334e-09, -1.4561229052962303e-09).transl(2.7835801893448782e-08, -3.9625005359320545e-08, 0))
hIsland = hIsland.sub(rect(4.930792420135295e-09, -1.617720498517261e-09).transl(-5.3796794011674955e-09, -4e-08, 0))
hIsland = hIsland.add(rect(3.201932660484688e-09, 1.1950958000491499e-09).transl(5.897093032157557e-08, -3.289237438636841e-08, 0))
hIsland = hIsland.add(rect(3.874619601938443e-09, 1.5713546752884346e-09).transl(2.352358647044836e-08, -3.988211793548072e-08, 0))
hIsland = hIsland.add(rect(8.130783157479886e-09, 2.4478071676356825e-09).transl(-7.24539867399083e-08, -2.6168750377814874e-08, 0))
hIsland = hIsland.add(rect(2.1911005687597856e-09, 3.662200493028483e-10).transl(-8.7046328692946e-08, -1.1339384196619235e-08, 0))
hIsland = hIsland.sub(rect(8.830944215081506e-09, -4.909640598626132e-09).transl(-4.6958691571142055e-08, -3.662200218417356e-08, 0))
hIsland = hIsland.add(rect(9.348719526446383e-09, 2.1061604407696475e-10).transl(5.5705369836711795e-08, -3.4076462159316126e-08, 0))
hIsland = hIsland.add(rect(2.191309104909375e-09, 1.9045559208142434e-09).transl(6.206412871606334e-09, -4e-08, 0))
hIsland = hIsland.sub(rect(3.6332235710361566e-09, -5.841998021023177e-10).transl(7.537400113206882e-08, -2.4166500600306596e-08, 0))
hIsland = hIsland.sub(rect(8.129864522715323e-09, -4.499705606448171e-09).transl(-7.273216397129555e-08, -2.598901849653694e-08, 0))
hIsland = hIsland.add(rect(7.685152934924409e-09, 5.797626575005905e-10).transl(-7.039897892097918e-09, -4e-08, 0))
hIsland = hIsland.sub(rect(9.933389926919952e-09, -1.7754376847603577e-09).transl(8.129662528299316e-08, -1.9064034619744714e-08, 0))
hIsland = hIsland.add(rect(4.256102220491659e-09, 1.5923090094406973e-09).transl(-5.964815454643961e-08, -3.262881037242573e-08, 0))
hIsland = hIsland.sub(rect(4.215944060954913e-09, -3.402517459798215e-09).transl(4.9460943621341125e-08, -3.5979285134398435e-08, 0))
hIsland = hIsland.sub(rect(6.180594932266751e-09, -1.7084211091809646e-09).transl(-5.256173271911912e-08, -3.5090212800705824e-08, 0))
hIsland = hIsland.sub(rect(4.5895897312447475e-09, -2.451782725628401e-09).transl(7.75906129093834e-09, -4e-08, 0))
hIsland = hIsland.add(rect(6.99711152753832e-09, 2.9056815264021885e-09).transl(4.454145712753941e-08, -3.7183026849123654e-08, 0))
hIsland = hIsland.sub(rect(2.1433636666133298e-09, -1.605902758772839e-09).transl(8.994845561974943e-09, -4e-08, 0))
hIsland = hIsland.sub(rect(2.3792407981655243e-09, -5.507320295689981e-10).transl(7.283231441987161e-08, -2.5923780108449007e-08, 0))
hIsland = hIsland.sub(rect(8.744424509187106e-09, -2.3763123277226633e-09).transl(-3.618590839781792e-08, -3.870301905371565e-08, 0))
hIsland = hIsland.add(rect(4.117362951448661e-09, 4.3036362462525003e-10).transl(-5.7472643590558885e-08, -3.345307385889766e-08, 0))
hIsland = hIsland.sub(rect(2.4083974726210196e-09, -3.413428065573034e-09).transl(3.417810442343562e-08, -3.8977157513057034e-08, 0))
hIsland = hIsland.add(rect(7.873872430646435e-09, 3.2977153026625217e-09).transl(1.999335154233561e-08, -3.998466739174657e-08, 0))
hIsland = hIsland.sub(rect(8.217239941826702e-09, -1.628038517283234e-09).transl(5.8691030725585584e-08, -3.299943891446616e-08, 0))
hIsland = hIsland.sub(rect(2.410636356611919e-09, -2.182050248798164e-09).transl(-7.694443701733405e-08, -2.2970414040818865e-08, 0))
hIsland = hIsland.add(rect(2.7744625440204622e-09, 1.0108628491672217e-09).transl(-7.757569717038792e-08, -2.2462151339464032e-08, 0))
hIsland = hIsland.sub(rect(9.73439408011216e-09, -1.1804828384834548e-09).transl(-8.049960117375544e-08, -1.985907023796721e-08, 0))
hIsland = hIsland.add(rect(2.423946343671953e-09, 1.261226359710535e-09).transl(1.440320611909481e-08, -4e-08, 0))
hIsland = hIsland.sub(rect(3.980372726041616e-09, -3.0392673684883504e-10).transl(7.95261843099041e-08, -2.0776059378314957e-08, 0))
hIsland = hIsland.sub(rect(7.886613347092395e-09, -6.755463868431979e-10).transl(-1.1315111420952013e-08, -4e-08, 0))
hIsland = hIsland.add(rect(9.966247064185891e-09, 2.112960670626645e-10).transl(5.553508689623653e-09, -4e-08, 0))
hIsland = hIsland.sub(rect(2.021602835974835e-09, -1.0686772568455342e-09).transl(5.541411604893666e-08, -3.4175400510972826e-08, 0))
hIsland = hIsland.add(rect(3.2748722330140626e-09, 1.324136227064965e-09).transl(-6.89795797859148e-08, -2.8246503360852922e-08, 0))
hIsland = hIsland.sub(rect(9.49193643578266e-09, -2.1167176161059127e-09).transl(6.011237140525224e-08, -3.2444388197373686e-08, 0))
hIsland = hIsland.sub(rect(9.524361638457292e-09, -3.278991798791444e-09).transl(4.147338573785377e-08, -3.7814525272777546e-08, 0))
hIsland = hIsland.add(rect(4.947985552164407e-09, 1.2529954489431383e-09).transl(-4.1106207302891545e-08, -3.788425836837988e-08, 0))
hIsland = hIsland.add(rect(5.074805028492231e-09, 1.4571303913523297e-09).transl(-3.884704290714304e-08, -3.828660921353952e-08, 0))
hIsland = hIsland.sub(rect(2.053035265531296e-09, -3.3880770656684014e-11).transl(-8.535543769212712e-08, -1.4133894700831476e-08, 0))
hIsland = hIsland.sub(rect(5.5875548733903505e-09, -1.1051182998151533e-09).transl(1.2198028760740179e-09, -4e-08, 0))
hIsland = hIsland.add(rect(5.150450446177214e-09, 1.5439097521487253e-09).transl(5.926456865543964e-08, -3.277888592138346e-08, 0))
hIsland = hIsland.sub(rect(3.6293956388366725e-09, -3.072672768043027e-10).transl(3.3502903230858775e-08, -3.906175860102199e-08, 0))
hIsland = hIsland.sub(rect(9.506642060357863e-09, -2.279393250002125e-09).transl(-2.0851741322287626e-08, -3.996861257514867e-08, 0))
hIsland = hIsland.add(rect(2.110158185048209e-09, 1.5085999411036296e-09).transl(2.9342361703217193e-08, -3.9500550203205844e-08, 0))
hIsland = hIsland.sub(rect(6.748319139017761e-09, -2.9102127357348163e-10).transl(1.0376902304315038e-08, -4e-08, 0))
hIsland = hIsland.add(rect(2.6539040028251987e-09, 4.1506772729442624e-10).transl(8.417035196342032e-08, -1.5767255108401685e-08, 0))
hIsland = hIsland.sub(rect(5.702750327117948e-09, -1.1538012922795456e-09).transl(-7.109167989342188e-08, -2.701893212617811e-08, 0))
hIsland = hIsland.add(rect(4.499479085492048e-09, 1.459121351722392e-09).transl(6.962683771449263e-08, -2.7881305009141717e-08, 0))
hIsland = hIsland.add(rect(3.1656953654862977e-09, 9.844670441208563e-10).transl(4.241033673393075e-08, -3.763098711864321e-08, 0))
hIsland = hIsland.add(rect(9.187984613433887e-09, 1.874923790765602e-10).transl(-6.12750160041992e-08, -3.196870088648004e-08, 0))
hIsland = hIsland.sub(rect(8.08887175195531e-09, -3.4067648481917636e-09).transl(-5.98647838746459e-08, -3.254313315863446e-08, 0))
hIsland = hIsland.sub(rect(5.15906977334676e-09, -2.117060459402879e-09).transl(-7.643962315860869e-08, -2.3365126785788903e-08, 0))
hIsland = hIsland.sub(rect(7.716053009834228e-09, -3.287921085353386e-10).transl(-1.4112714468898444e-08, -4e-08, 0))
hIsland = hIsland.add(rect(7.25508586799046e-09, 4.843362816211646e-09).transl(6.990175058656823e-08, -2.7723325997006858e-08, 0))
hIsland = hIsland.add(rect(8.877750468916215e-09, 5.316837688453515e-10).transl(5.099851117743669e-09, -4e-08, 0))
hIsland = hIsland.add(rect(6.116157761768233e-09, 2.248393166346311e-09).transl(2.600070251274863e-08, -3.97522759628825e-08, 0))
hIsland = hIsland.add(rect(8.84674916857797e-09, 2.7404414330683496e-09).transl(7.387379682814267e-08, -2.522808808446166e-08, 0))
hIsland = hIsland.sub(rect(9.090548432068715e-09, -9.729416572865708e-10).transl(7.683860703426298e-08, -2.3054004782300615e-08, 0))
hIsland = hIsland.add(rect(9.872448160850074e-09, 6.176862758361145e-10).transl(6.426174660161452e-08, -3.06506137602335e-08, 0))
hIsland = hIsland.add(rect(6.9861989517567614e-09, 1.890382256370281e-09).transl(-3.271486088847616e-08, -3.9155722935356064e-08, 0))
hIsland = hIsland.sub(rect(7.025933804426755e-09, -1.6957624323469064e-09).transl(-3.833335245083135e-08, -3.8371779344122607e-08, 0))
hIsland = hIsland.sub(rect(5.6147565064796915e-09, -2.7026504946934235e-10).transl(-5.2876798582648116e-08, -3.4993865955535845e-08, 0))
hIsland = hIsland.sub(rect(3.6810926812889547e-09, -3.2610077664994836e-09).transl(5.5062511232191895e-08, -3.429344258109493e-08, 0))
hIsland = hIsland.add(rect(5.581550526855438e-09, 1.259470459077126e-11).transl(3.652198146680491e-08, -3.86537981561462e-08, 0))
hIsland = hIsland.add(rect(3.4866486604057035e-09, 8.665442538956044e-10).transl(5.460007720522339e-08, -3.44463903956214e-08, 0))
hIsland = hIsland.sub(rect(5.332175788982507e-09, -1.7194808213144682e-09).transl(-6.99147439006991e-08, -2.771581625900136e-08, 0))
hIsland = hIsland.add(rect(6.717437675818062e-09, 1.5233933972740804e-09).transl(7.502107537277936e-08, -2.442295117790262e-08, 0))
hIsland = hIsland.sub(rect(2.8390570263497063e-09, -8.427101023407879e-10).transl(-4.8778506349547407e-08, -3.616100632822629e-08, 0))
hIsland = hIsland.add(rect(6.053749387447183e-09, 2.4563515052668477e-09).transl(-6.83076498382869e-08, -2.861591312317215e-08, 0))
hIsland = hIsland.sub(rect(2.7445978458784017e-09, -3.0052617629719532e-09).transl(2.330639674183469e-08, -3.989121841548962e-08, 0))
hIsland = hIsland.sub(rect(8.996361615119015e-09, -1.5896112286471945e-11).transl(2.4374758219836073e-08, -3.9842910895840666e-08, 0))
hIsland = hIsland.add(rect(3.692256118853026e-09, 3.5287266340808593e-09).transl(-8.588881579862926e-08, -1.33230132452097e-08, 0))
hIsland = hIsland.add(rect(2.7777470193644265e-09, 2.014920346856329e-09).transl(-4.001968059523706e-08, -3.808345962570737e-08, 0))
hIsland = hIsland.add(rect(9.726886825750818e-09, 2.0339328454849156e-09).transl(-8.352559775567094e-08, -1.6577502592685607e-08, 0))
hIsland = hIsland.sub(rect(2.886671324659691e-09, -9.974962351991789e-10).transl(1.2054275095804073e-08, -4e-08, 0))
hIsland = hIsland.add(rect(8.492701342964998e-09, 2.8505997344325498e-09).transl(2.0000379639082698e-08, -3.998455906176854e-08, 0))
hIsland = hIsland.sub(rect(5.427246591635084e-09, -4.29429826181925e-09).transl(-4.912276460656705e-08, -3.6069948861591764e-08, 0))
hIsland = hIsland.add(rect(9.513984086571793e-09, 2.2997592332611323e-09).transl(2.0689356117746184e-08, -3.997208657096873e-08, 0))
hIsland = hIsland.sub(rect(7.464230101663054e-09, -4.42561566523726e-10).transl(3.8225219674962876e-08, -3.8389413443511755e-08, 0))
hIsland = hIsland.add(rect(3.1992057888980753e-09, 6.202541377663977e-10).transl(-4.591359530863708e-08, -3.68716124074664e-08, 0))
hIsland = hIsland.sub(rect(8.122069932241529e-09, -3.635186892570949e-09).transl(8.391322222913028e-08, -1.6096230056407383e-08, 0))
hIsland = hIsland.sub(rect(3.36928737946146e-09, -1.043691084882013e-09).transl(1.1741272294211845e-08, -4e-08, 0))
hIsland = hIsland.add(rect(3.823198461573571e-09, 2.850439648199486e-09).transl(5.134675428736037e-08, -3.54512096404149e-08, 0))
hIsland = hIsland.add(rect(5.032312250557614e-09, 7.756042431949926e-10).transl(6.461733124071521e-08, -3.04838776858097e-08, 0))
hIsland = hIsland.sub(rect(2.0348449558890804e-09, -2.7764785472840975e-09).transl(7.10064822898196e-08, -2.707051169584744e-08, 0))
hIsland = hIsland.sub(rect(5.903120462215335e-09, -2.0541157613782514e-10).transl(-4.068798463412244e-08, -3.7962194291755676e-08, 0))
hIsland = hIsland.sub(rect(5.419745326441069e-09, -1.3731552791172381e-09).transl(1.7585118310872433e-08, -4e-08, 0))
hIsland = hIsland.add(rect(7.022039343497991e-09, 3.4566498945031044e-09).transl(1.2488158437474984e-08, -4e-08, 0))
hIsland = hIsland.add(rect(3.71001696129106e-09, 8.970645951139739e-10).transl(-8.283906874949113e-08, -1.7390709557673932e-08, 0))
hIsland = hIsland.sub(rect(4.5375844113709985e-09, -4.2645197227423047e-10).transl(3.0953522271921386e-08, -3.934732276627871e-08, 0))
hIsland = hIsland.sub(rect(2.599918199492377e-09, -1.5746895140686836e-09).transl(2.4546452494588717e-08, -3.9834317203625334e-08, 0))
hIsland = hIsland.add(rect(9.298959689957696e-09, 2.2101552842164074e-09).transl(-8.895058151033223e-08, -6.804477995093457e-09, 0))
hIsland = hIsland.sub(rect(3.118905546900704e-09, -1.6348489048861934e-10).transl(-1.5950348978529994e-08, -4e-08, 0))
hIsland = hIsland.sub(rect(4.1998270023737005e-09, -2.8032329326400025e-10).transl(-8.153898863433029e-08, -1.8813550108720786e-08, 0))
hIsland = hIsland.sub(rect(9.796340709984406e-09, -4.827260984938709e-10).transl(-8.221344771412776e-08, -1.809297944351655e-08, 0))
hIsland = hIsland.add(rect(3.0667766652750102e-09, 3.259270755134678e-09).transl(2.573601387002667e-08, -3.97684427648245e-08, 0))
hIsland = hIsland.add(rect(2.9029195065053177e-09, 3.1269220953347746e-09).transl(4.619273419458542e-08, -3.680600519068519e-08, 0))
hIsland = hIsland.add(rect(9.940569699629299e-09, 3.516262581116393e-09).transl(-7.292170389742769e-08, -2.5865311396598084e-08, 0))
hIsland = hIsland.sub(rect(7.779197357588683e-09, -6.712404731115916e-12).transl(6.663370246941128e-08, -2.9495568740824197e-08, 0))
hIsland = hIsland.sub(rect(6.792270077225624e-09, -1.6734902954352576e-09).transl(3.803627848867055e-08, -3.841998075335007e-08, 0))
hIsland = hIsland.sub(rect(6.172146900269588e-09, -1.2144995052751296e-09).transl(-2.903543171516115e-08, -3.9527374663596125e-08, 0))
hIsland = hIsland.add(rect(8.485011259586063e-09, 2.52162075235588e-09).transl(-2.6927842797068364e-08, -3.969129963046305e-08, 0))
hIsland = hIsland.sub(rect(5.535177760975923e-09, -9.752801502849937e-10).transl(-3.171294869113805e-08, -3.9267816740193544e-08, 0))
hIsland = hIsland.add(rect(5.269186262210146e-09, 6.073387970788037e-10).transl(-7.713767094219085e-08, -2.281660562942055e-08, 0))
hIsland = hIsland.add(rect(8.881022033440378e-09, 2.9453330796407884e-09).transl(6.1600412488454e-08, -3.18319469876359e-08, 0))
hIsland = hIsland.add(rect(2.7227424261545014e-09, 5.453483060501771e-10).transl(8.604672965765004e-08, -1.307200598228256e-08, 0))
hIsland = hIsland.sub(rect(8.965461535929759e-09, -3.017344314022927e-09).transl(-1.4758659129311835e-08, -4e-08, 0))
hIsland = hIsland.add(rect(8.136598695414675e-09, 5.969257376181893e-10).transl(3.1587757430372434e-08, -3.928124630297815e-08, 0))
hIsland = hIsland.sub(rect(3.7582398937464914e-09, -1.147868212851609e-09).transl(2.6408493220896567e-08, -3.972629055216743e-08, 0))
hIsland = hIsland.sub(rect(3.08390397268742e-09, -1.9728271908175185e-10).transl(1.7226204366320293e-08, -4e-08, 0))
hIsland = hIsland.add(rect(5.070087277327201e-09, 3.337047791917606e-09).transl(-8.35973241895316e-08, -1.648971863715569e-08, 0))
hIsland = hIsland.add(rect(9.543981328283687e-09, 2.7032295061101e-09).transl(5.571505908710865e-09, -4e-08, 0))
hIsland = hIsland.add(rect(5.771966781618588e-09, 3.732553409818115e-10).transl(6.787146809107345e-09, -4e-08, 0))
hIsland = hIsland.add(rect(2.209205743474417e-09, 3.033494989165928e-09).transl(-4.9659954469919315e-08, -3.5925365376814246e-08, 0))
hIsland = hIsland.sub(rect(4.754602200984397e-09, -5.300927727513229e-10).transl(-8.851080239622337e-08, -8.093335648924695e-09, 0))
hIsland = hIsland.add(rect(8.443682718383923e-09, 1.569876185459458e-10).transl(-5.794052367685501e-08, -3.3281230429397065e-08, 0))
hIsland = hIsland.add(rect(4.783005728194701e-09, 1.7966019751167387e-09).transl(-7.456489857504578e-08, -2.4748190164497758e-08, 0))
hIsland = hIsland.add(rect(6.659294358347061e-09, 4.1962515217390236e-09).transl(5.542030148126102e-08, -3.417331027121091e-08, 0))
hIsland = hIsland.sub(rect(7.753967850567555e-09, -3.177526490894352e-10).transl(-4.453962009651152e-08, -3.718343154996758e-08, 0))
hIsland = hIsland.sub(rect(8.517132607327892e-09, -5.572682709743083e-10).transl(1.8307949478208644e-08, -3.99996341307298e-08, 0))
hIsland = hIsland.sub(rect(7.315152100532002e-09, -7.825663700345699e-10).transl(-7.465260716875474e-08, -2.4686191602976687e-08, 0))
hIsland = hIsland.sub(rect(3.5744741556185966e-09, -7.958341159058574e-10).transl(-6.836765848422494e-08, -2.8583314322510064e-08, 0))
hIsland = hIsland.add(rect(9.334694442367757e-09, 6.586760300550289e-10).transl(3.465354348257158e-08, -3.8915306461573425e-08, 0))
hIsland = hIsland.sub(rect(7.171962499852544e-09, -2.7901712979771005e-09).transl(-2.535797030358687e-08, -3.979057938406538e-08, 0))
hIsland = hIsland.sub(rect(3.846360088283807e-09, -1.0409315957339235e-10).transl(-8.587152844672038e-08, -1.3350170229483258e-08, 0))
hIsland = hIsland.add(rect(4.7075507864482295e-09, 3.732692894539158e-09).transl(7.219366547245814e-08, -2.633501297186274e-08, 0))
hIsland = hIsland.sub(rect(5.632471264937476e-09, -1.0106744908037207e-09).transl(-8.5588125064787e-08, -1.3786795326638288e-08, 0))
hIsland = hIsland.add(rect(8.270798469809134e-09, 1.8575497117800867e-09).transl(-7.952103944651893e-08, -2.0780761115440277e-08, 0))
hIsland = hIsland.add(rect(6.254585475600221e-09, 3.896947949357126e-09).transl(-3.397488936263371e-08, -3.9003018678091876e-08, 0))
hIsland = hIsland.add(rect(7.493412342807735e-09, 1.752037090708836e-09).transl(-7.922221006873993e-08, -2.1051384769406336e-08, 0))
hIsland = hIsland.sub(rect(8.644905558413993e-09, -2.215607190506906e-10).transl(4.750661933328835e-08, -3.6486761574882884e-08, 0))
hIsland = hIsland.add(rect(9.487069914443014e-09, 4.203043455624408e-09).transl(1.798014585646322e-08, -4e-08, 0))
hIsland = hIsland.sub(rect(3.154805349246262e-09, -2.07780900553862e-09).transl(3.4314810741050596e-08, -3.895956653022932e-08, 0))
hIsland = hIsland.add(rect(4.636046687098175e-09, 7.762102486368251e-10).transl(-6.354543261061459e-08, -3.097994955080398e-08, 0))
hIsland = hIsland.sub(rect(8.230815726523361e-09, -1.3358797234584669e-09).transl(-2.159048715538138e-09, -4e-08, 0))
hIsland = hIsland.sub(rect(3.6229010474132527e-09, -2.489381841869344e-09).transl(-4.998087123625102e-08, -3.583752720923034e-08, 0))
hIsland = hIsland.add(rect(2.3674130502937624e-09, 5.423927913316154e-10).transl(6.342262256398395e-08, -3.1035549903981863e-08, 0))
hIsland = hIsland.sub(rect(5.266292381256127e-09, -4.8044970726615997e-11).transl(5.897531635204621e-08, 3.289068806006851e-08, 0))
hIsland = hIsland.add(rect(5.398893883873485e-09, 3.5217077747910726e-10).transl(5.022752111420572e-09, 4e-08, 0))
hIsland = hIsland.add(rect(8.858667267769534e-09, 2.38489418075707e-09).transl(7.657036260216509e-08, 2.326386898606713e-08, 0))
[...]
hIsland = hIsland.sub(rect(2.84483614529215e-09, -3.2533875754921197e-09).transl(8.462904799221225e-08, 1.515933851910683e-08, 0))
hIsland = hIsland.sub(rect(5.4771463412953695e-09, -3.028421385274869e-09).transl(6.891597890934676e-08, 2.8281887344379478e-08, 0))
hIsland = hIsland.sub(rect(7.192193566038155e-09, -3.7415918019874795e-09).transl(-7.92046398551164e-08, 2.1067147646038104e-08, 0))
hIsland = hIsland.sub(rect(2.67562206887193e-09, -2.3143222207324878e-09).transl(-4.220555331380174e-08, 3.767179246003658e-08, 0))
hIsland = hIsland.add(rect(3.0685365333877545e-09, 2.7840343254342385e-09).transl(-6.206912473239077e-08, 3.163210709347614e-08, 0))
hIsland = hIsland.add(rect(5.263466662722481e-09, 3.486908419288199e-09).transl(4.60159939568048e-08, 3.684763457327708e-08, 0))
hIsland = hIsland.add(rect(2.702287981307898e-09, 2.7565485962492698e-09).transl(4.869718973704331e-08, 3.618233378973216e-08, 0))
hIsland = hIsland.sub(rect(8.305164861790893e-09, -1.6513962556921532e-09).transl(-2.2957558587906045e-08, 3.9905067180513816e-08, 0))
hIsland = hIsland.add(rect(7.913593113809206e-09, 6.886166577773073e-10).transl(5.3020454729110754e-09, 4e-08, 0))
hIsland = hIsland.sub(rect(3.5054856697093097e-09, -1.401697942905432e-09).transl(-1.7481681558330586e-08, 4e-08, 0))
hIsland = hIsland.sub(rect(7.769901428780169e-09, -1.6315286597715394e-09).transl(-6.498507862271266e-08, 3.030911928744735e-08, 0))
hIsland = hIsland.sub(rect(8.155155720585917e-09, -7.728841715669891e-10).transl(-5.408851326717959e-08, 3.461257893340474e-08, 0))
hIsland = hIsland.add(rect(5.538837930862816e-09, 1.67698542145013e-09).transl(7.263156909637994e-08, 2.6054262335043985e-08, 0))
hIsland = hIsland.add(rect(9.128876991948958e-09, 1.0173382292532866e-09).transl(7.274759136095119e-08, 2.5978987474057844e-08, 0))
hIsland = hIsland.sub(rect(8.230980749812166e-09, -1.6714165959070222e-09).transl(-2.66049933797399e-08, 3.971330159713817e-08, 0))
hIsland = hIsland.sub(rect(7.68971879654081e-09, -2.21122047480396e-09).transl(-5.091378431513182e-08, 3.557587441147504e-08, 0))
hIsland = hIsland.sub(rect(3.400928322965947e-09, -1.7508511019956666e-09).transl(6.821341855046039e-08, 2.8666949812750465e-08, 0))
hIsland = hIsland.sub(rect(7.337713898495188e-09, -6.342928619697055e-10).transl(6.236367680992616e-08, 3.1504772222792e-08, 0))
hIsland = hIsland.sub(rect(7.474091561183014e-09, -1.5405108781744557e-09).transl(4.665674053010639e-08, 3.669523811989745e-08, 0))
hIsland = hIsland.sub(rect(2.865974114034568e-09, -2.829111589616551e-09).transl(-4.9421210411149095e-08, 3.5990000052733684e-08, 0))
hIsland = hIsland.sub(rect(6.266435510553063e-09, -6.372195020648198e-10).transl(1.839543989465771e-08, 3.999939670567311e-08, 0))
hIsland = hIsland.add(rect(2.130129403734144e-09, 7.169682653712964e-10).transl(-2.438198176770009e-08, 3.984255397974162e-08, 0))
hIsland = hIsland.add(rect(4.957437630676393e-09, 3.419381575087283e-09).transl(7.628563089960726e-08, 2.348354579350011e-08, 0))
hIsland = hIsland.sub(rect(3.130282881344735e-09, -2.939014648021287e-09).transl(7.260003675332011e-08, 2.6074655322083573e-08, 0))
hIsland = hIsland.sub(rect(4.308506622004745e-09, -2.1355656788791687e-09).transl(3.776177210793964e-08, 3.8463837285835004e-08, 0))
hIsland = hIsland.sub(rect(2.954130222941152e-09, -7.577845870664136e-10).transl(-8.080085010318573e-08, 1.9563549710070364e-08, 0))
hIsland = hIsland.add(rect(3.6695829664208075e-09, 8.28612067866334e-10).transl(-8.694443809193514e-09, 4e-08, 0))
hIsland = hIsland.sub(rect(7.80755898601168e-09, -5.019636651285459e-10).transl(8.274067125516593e-08, 1.7503487178402064e-08, 0))
hIsland = hIsland.sub(rect(9.753605293745797e-09, -8.102805013781111e-10).transl(8.560250488762552e-08, 1.3765017981702578e-08, 0))
hIsland = hIsland.sub(rect(7.976322924523553e-09, -4.073435139139067e-09).transl(-1.3624505153332586e-08, 4e-08, 0))
hIsland = hIsland.sub(rect(2.4780392215981097e-09, -1.037975521369364e-10).transl(-2.6695816408770554e-08, 3.970719520340467e-08, 0))
hIsland = hIsland.add(rect(2.2060160552576714e-09, 2.3735962326525727e-09).transl(-2.187165534720732e-08, 3.9942127443511525e-08, 0))
hIsland = hIsland.add(rect(2.0333911665490697e-09, 1.875266253093784e-10).transl(3.308094573971619e-08, 3.911270938809656e-08, 0))
hIsland = hIsland.sub(rect(4.055260998996489e-09, -6.281666161595512e-10).transl(-7.409548824866966e-08, 2.5075787582521807e-08, 0))
hIsland = hIsland.sub(rect(2.825882767535455e-09, -2.2306438922291953e-09).transl(-4.373571445902795e-08, 3.735743683412793e-08, 0))
hIsland = hIsland.add(rect(5.220921208480627e-09, 2.9611436703521634e-09).transl(5.441122825580308e-08, 3.450810629807079e-08, 0))
hIsland = hIsland.add(rect(4.625168533691774e-09, 1.3648134556916288e-09).transl(5.1059684621328313e-08, 3.553409618360791e-08, 0))
hIsland = hIsland.sub(rect(4.108217009115843e-09, -1.3663349688283394e-10).transl(-1.285485028409447e-08, 4e-08, 0))
hIsland = hIsland.sub(rect(7.531711948937934e-09, -6.342992920744634e-10).transl(-7.993947386709055e-08, 2.039351731501411e-08, 0))
hIsland = hIsland.add(rect(4.553226247480723e-09, 4.512830724640446e-10).transl(9.350641811253267e-09, 4e-08, 0))
hIsland = hIsland.add(rect(2.956540042272559e-09, 1.2795715654210873e-09).transl(5.676384841327097e-08, 3.370791411721625e-08, 0))
hIsland = hIsland.sub(rect(6.837964857728367e-09, -1.7169239625388267e-09).transl(1.960572766996922e-08, 3.999005138106032e-08, 0))
hIsland = hIsland.add(rect(5.877111717176067e-09, 2.401209791066046e-09).transl(6.268620179442444e-08, 3.136377249404188e-08, 0))
hIsland = hIsland.add(rect(3.117580150201384e-09, 7.03051523417934e-10).transl(8.696982718136391e-08, 1.1482178066018326e-08, 0))
hIsland = hIsland.sub(rect(6.237131174113178e-09, -9.079234092530688e-10).transl(-8.496880982626107e-08, 1.468999103334993e-08, 0))
hIsland = hIsland.sub(rect(3.3760253672090387e-09, -1.1606864831526687e-09).transl(2.133570838617328e-08, 3.995704889049968e-08, 0))
hIsland = hIsland.sub(rect(6.5241143468039506e-09, -3.1892559247845196e-11).transl(1.752073874124792e-08, 4e-08, 0))
hIsland = hIsland.add(rect(3.156868317636974e-09, 1.3943586221198573e-09).transl(3.0244662106149966e-08, 3.9417315592129975e-08, 0))
hIsland = hIsland.sub(rect(7.001630246030927e-09, -1.656419159593271e-10).transl(4.699316777753048e-08, 3.6613582036934036e-08, 0))
hIsland = hIsland.add(rect(2.4350274369580902e-09, 6.432118981066733e-13).transl(-6.171662181643045e-08, 3.178271609336366e-08, 0))
hIsland = hIsland.add(rect(8.867257804118903e-09, 6.857935107891309e-10).transl(-5.868158099557154e-08, 3.300303468884448e-08, 0))
hIsland = hIsland.sub(rect(7.83199196120391e-09, -3.0315486032870324e-10).transl(4.146471406404263e-08, 3.781618633247305e-08, 0))
hIsland = hIsland.sub(rect(7.313912514301508e-09, -1.1836369007159613e-09).transl(2.5521490376856246e-08, 3.978114193762386e-08, 0))
hIsland = hIsland.sub(rect(5.905915450889205e-09, -6.694928906177183e-10).transl(2.8515884343505508e-08, 3.957106506362645e-08, 0))
hIsland = hIsland.add(rect(5.9829843456071594e-09, 1.5021496912175982e-09).transl(8.140491820965175e-08, 1.8952640348544795e-08, 0))
hIsland = hIsland.add(rect(3.087955568061447e-09, 1.0299398105066798e-09).transl(-6.240649641768892e-10, 4e-08, 0))
hIsland = hIsland.add(rect(3.1540547224191383e-09, 1.9527034334904845e-09).transl(3.622955362484389e-08, 3.8696681257191304e-08, 0))
hIsland = hIsland.add(rect(8.624905811118897e-09, 1.665731316494964e-09).transl(6.308368187162328e-08, 3.118771139812204e-08, 0))
hIsland = hIsland.add(rect(8.528206890434818e-09, 1.6876531285938853e-09).transl(7.123658365068877e-08, 2.693078784040113e-08, 0))
hIsland = hIsland.add(rect(8.007683669409342e-09, 3.632086333117608e-10).transl(4.0311897958957863e-08, 3.803092962130716e-08, 0))
hIsland = hIsland.add(rect(7.225397370286865e-09, 6.316775070824809e-10).transl(-6.249091283597165e-08, 3.144934529447674e-08, 0))
hIsland = hIsland.add(rect(3.9685544302904235e-09, 3.058089592871383e-09).transl(1.4091574212837126e-08, 4e-08, 0))
hIsland = hIsland.sub(rect(8.732756575272696e-09, -1.7596960774643894e-09).transl(8.11176868521401e-08, 1.924627273868492e-08, 0))
hIsland = hIsland.sub(rect(6.433904698635213e-09, -2.661693516593478e-09).transl(4.021418556727488e-08, 3.8048579894260997e-08, 0))
hIsland = hIsland.add(rect(9.936769824885386e-09, 9.146333604435394e-10).transl(8.8200005710993e-08, 8.888180495671036e-09, 0))
hIsland = hIsland.add(rect(6.625095231362491e-09, 5.096442590526692e-09).transl(7.64402413703968e-08, 2.3364649544215315e-08, 0))
hIsland = hIsland.add(rect(9.297327830664881e-09, 1.8039939124703111e-09).transl(2.2337976246411708e-08, 3.9927333539902924e-08, 0))
hIsland = hIsland.sub(rect(5.579004602382146e-09, -2.075019728871753e-09).transl(-8.279455490649092e-08, 1.7441840344110027e-08, 0))
hIsland = hIsland.sub(rect(5.2418600801892054e-09, -4.2574627063152663e-10).transl(2.0988416481603216e-09, 4e-08, 0))
hIsland = hIsland.sub(rect(5.2911882996330665e-09, -1.4019168996907874e-09).transl(1.446676791710222e-08, 4e-08, 0))
hIsland = hIsland.add(rect(9.311973610331518e-09, 1.3253023948501277e-09).transl(8.644321434004324e-09, 4e-08, 0))
hIsland = hIsland.sub(rect(8.41976279899323e-09, -6.083800854122152e-10).transl(3.97873354257108e-08, 3.812468180416726e-08, 0))
hIsland = hIsland.add(rect(2.13528443334421e-09, 1.1096301022457882e-09).transl(-8.541668417840072e-08, 1.4043480698185227e-08, 0))
hIsland = hIsland.sub(rect(8.305282766111887e-09, -1.6315247897264669e-09).transl(-3.136740408512522e-08, 3.930457402788996e-08, 0))
hIsland = hIsland.sub(rect(2.9963755402704007e-09, -9.437007121813985e-10).transl(-7.77474139237572e-10, 4e-08, 0))
hIsland = hIsland.add(rect(8.90204690916103e-09, 8.251072575281389e-11).transl(5.905565719876689e-08, 3.2859751601338204e-08, 0))
hIsland = hIsland.add(rect(8.682192214438662e-09, 1.9536305979512194e-09).transl(-6.563124448277183e-08, 2.99962165773875e-08, 0))
hIsland = hIsland.sub(rect(8.364178230365355e-09, -7.629823583757077e-10).transl(-5.380124664590637e-08, 3.470453210965827e-08, 0))
hIsland = hIsland.sub(rect(9.326763265855141e-09, -2.33999486012598e-10).transl(8.540654551023111e-08, 1.4058493570593795e-08, 0))
hIsland = hIsland.sub(rect(4.062585784069478e-09, -8.997918441062494e-10).transl(1.3529614215833715e-08, 4e-08, 0))
hIsland = hIsland.sub(rect(7.714173477033795e-09, -3.875849561991427e-09).transl(-1.9971569358009884e-08, 3.998500071503108e-08, 0))
hIsland = hIsland.add(rect(4.1281196856329745e-09, 1.046304946834691e-09).transl(8.625722325388224e-08, 1.272878862164788e-08, 0))
hIsland = hIsland.add(rect(6.9580348554675e-09, 3.836914095491036e-09).transl(-1.8205489818563386e-08, 3.999983709046481e-08, 0))
hIsland = hIsland.add(rect(5.88338940157014e-09, 3.125959821514029e-09).transl(-1.5788190105369056e-08, 4e-08, 0))
hIsland = hIsland.sub(rect(3.44602053428003e-09, -2.233048379882048e-09).transl(-2.236349129611763e-08, 3.992647541940394e-08, 0))
hIsland = hIsland.sub(rect(3.24638853965151e-09, -1.954034192489162e-09).transl(2.155996719902613e-08, 3.995107591971146e-08, 0))
hIsland = hIsland.sub(rect(7.94175105931938e-09, -7.100462549223223e-10).transl(-3.513526779659822e-08, 3.885070584840644e-08, 0))
hIsland = hIsland.sub(rect(7.962665412791237e-09, -1.5242180317809571e-09).transl(6.194156386332247e-08, 3.1686830642822254e-08, 0))
hIsland = hIsland.sub(rect(9.021305277874234e-09, -1.2828611690826924e-10).transl(5.53684871321492e-09, 4e-08, 0))
hIsland = hIsland.sub(rect(6.60594327006345e-09, -6.809734124395588e-10).transl(1.6312896607347864e-09, 4e-08, 0))
hIsland = hIsland.add(rect(7.83497434180792e-09, 1.4958231748471255e-09).transl(-8.145260486802722e-08, 1.8903319124112247e-08, 0))
hIsland = hIsland.add(rect(6.9809169339164695e-09, 6.474320782775836e-10).transl(-6.95032368840739e-08, 2.7951769475465388e-08, 0))
hIsland = hIsland.sub(rect(8.8924210784084e-09, -1.2353220096310502e-09).transl(-5.423209146394859e-08, 3.4566252132180194e-08, 0))
hIsland = hIsland.sub(rect(3.8309404515327935e-09, -4.454074567384166e-09).transl(-7.914712617225696e-08, 2.1118631415467563e-08, 0))
hIsland = hIsland.sub(rect(8.897718358233981e-09, -3.754192319322201e-09).transl(-1.0404246700163268e-09, 4e-08, 0))
hIsland = hIsland.sub(rect(6.658323392531102e-09, -2.146475433220884e-09).transl(3.47471213226092e-08, 3.8902909882777045e-08, 0))
hIsland = hIsland.add(rect(3.6089548762676815e-09, 3.261409879133526e-09).transl(-6.562387174842266e-08, 2.999982942178764e-08, 0))
hIsland = hIsland.add(rect(2.9694893359541176e-09, 2.7775647639830936e-09).transl(6.647162207615506e-08, 2.9577799969242024e-08, 0))
hIsland = hIsland.sub(rect(4.57538962774396e-09, -2.13429331894536e-09).transl(2.3700317016409932e-09, 4e-08, 0))
hIsland = hIsland.add(rect(9.125703600702349e-09, 1.7753062709908863e-09).transl(-8.291571736736611e-08, 1.7302230273354184e-08, 0))
hIsland = hIsland.sub(rect(9.466430898694266e-09, -3.1585167611156545e-09).transl(-6.373526708988613e-08, 3.089351156565131e-08, 0))
hIsland = hIsland.add(rect(6.019162914315317e-09, 2.5561747694019583e-10).transl(-4.742747153325828e-08, 3.650648479159945e-08, 0))
hIsland = hIsland.add(rect(8.369730389050738e-09, 4.61521789530796e-10).transl(-7.510244379361874e-08, 2.4364204876379897e-08, 0))
hIsland = hIsland.sub(rect(7.957216097076093e-09, -2.5113186799507582e-09).transl(7.843126446543518e-08, 2.1745315056015637e-08, 0))
hIsland = hIsland.add(rect(8.803113375449155e-09, 5.196328994791927e-10).transl(8.996954232756443e-08, 1.1633520587627276e-09, 0))
hIsland = hIsland.sub(rect(6.352806346011969e-09, -1.6569498917243226e-09).transl(-6.5049876872932e-08, 3.027807892939906e-08, 0))
hIsland = hIsland.sub(rect(6.160928010330191e-09, -1.4722867773833e-09).transl(-6.109382163333709e-11, 4e-08, 0))
hIsland = hIsland.add(rect(8.23979338932862e-09, 4.026405079066114e-11).transl(7.759222789377082e-08, 2.244861329997091e-08, 0))
hIsland = hIsland.sub(rect(9.73597888282722e-09, -4.8706613213426475e-11).transl(-8.448639963421744e-08, 1.5351425152797848e-08, 0))
hIsland = hIsland.sub(rect(9.25941793151893e-09, -6.040264660085992e-10).transl(-3.2299059794162275e-08, 3.920324095714699e-08, 0))
hIsland = hIsland.add(rect(9.769960321320117e-09, 1.2697744001204741e-09).transl(-3.1680692275962645e-08, 3.9271289181362225e-08, 0))
hIsland = hIsland.sub(rect(8.146816240168133e-09, -1.251427493214413e-09).transl(-5.9429440630568685e-08, 3.2714635269467007e-08, 0))
hIsland = hIsland.sub(rect(4.548965391966018e-09, -1.934989280320593e-09).transl(6.286582932448037e-08, 3.128452344382083e-08, 0))
hIsland = hIsland.add(rect(6.0166571889397665e-09, 2.2588685817881747e-10).transl(1.0298294319219479e-08, 4e-08, 0))
hIsland = hIsland.add(rect(3.5490825243177934e-09, 7.776219307048478e-10).transl(5.7656494485725924e-08, 3.338589580365067e-08, 0))
hIsland = hIsland.sub(rect(4.898577098347001e-09, -1.0575417155965452e-09).transl(5.174777881917338e-08, 3.53338898662152e-08, 0))
hIsland = hIsland.sub(rect(7.941607521163391e-09, -1.5993845362940183e-09).transl(3.092456101614039e-08, 3.9350262060636404e-08, 0))
hIsland = hIsland.sub(rect(6.011202771727882e-09, -6.777868240208694e-10).transl(6.5537064470383e-08, 3.004229272753237e-08, 0))
hIsland = hIsland.add(rect(9.5722104238613e-09, 1.3001812938311378e-09).transl(3.039849406803641e-08, 3.9402471192340594e-08, 0))
hIsland = hIsland.add(rect(6.985809451331328e-09, 2.7651328297379406e-10).transl(8.346279912940125e-08, 1.6653901872390304e-08, 0))
hIsland = hIsland.sub(rect(7.861148012675513e-09, -1.2033053155208152e-09).transl(-8.883506476732176e-08, 7.16631350140444e-09, 0))
hIsland = hIsland.add(rect(8.952523993126724e-09, 1.3359838024800715e-09).transl(3.1699989656898256e-08, 3.926921281517786e-08, 0))
hIsland = hIsland.add(rect(3.483702434314247e-09, 6.697762471655483e-10).transl(-5.141265422613627e-08, 3.5432053466156856e-08, 0))
hIsland = hIsland.add(rect(7.735429252629825e-09, 6.065391856448084e-10).transl(2.3990083815411197e-08, 3.986132944533449e-08, 0))
hIsland = hIsland.sub(rect(5.099281980909697e-09, -3.239060028409684e-10).transl(-6.25523275699547e-08, 3.142249974388022e-08, 0))
hIsland = hIsland.add(rect(3.7762659038191894e-09, 1.1418145679283127e-10).transl(1.1337339087214142e-08, 4e-08, 0))
hIsland = hIsland.sub(rect(9.574570683878819e-09, -2.5818268649206882e-09).transl(-2.5505758262476756e-08, 3.978205902203264e-08, 0))
hIsland = hIsland.add(rect(4.058539390045196e-09, 1.0669402019889042e-09).transl(7.452878727009815e-08, 2.477364321366107e-08, 0))
hIsland = hIsland.add(rect(6.522034468722077e-09, 1.6531037266312965e-09).transl(-5.2817484798708855e-08, 3.501209117555085e-08, 0))
hIsland = hIsland.sub(rect(4.174543292737051e-09, -1.97421720448118e-09).transl(-6.635443623343327e-08, 2.9636941498800865e-08, 0))
hIsland = hIsland.add(rect(6.076998245948276e-09, 3.648054733034483e-09).transl(-8.878712639631223e-08, 7.311050669973873e-09, 0))
hIsland = hIsland.sub(rect(6.106026542208795e-09, -7.77622141916092e-10).transl(8.667729030577299e-08, 1.2011180443018383e-08, 0))
hIsland = hIsland.sub(rect(3.179514962395521e-09, -6.974624382139978e-11).transl(6.79987486607697e-08, 2.8782523913414725e-08, 0))
hIsland = hIsland.sub(rect(2.6824356383883644e-09, -9.283525924916401e-10).transl(6.896238652649085e-08, 2.8256077460141232e-08, 0))
hIsland = hIsland.sub(rect(6.694200191551237e-09, -9.325553173739433e-10).transl(7.001132423750572e-09, 4e-08, 0))
hIsland = hIsland.add(rect(2.1179991662171808e-09, 1.8986377986700074e-09).transl(-5.5542272273919155e-08, 3.413199592518293e-08, 0))
hIsland = hIsland.add(rect(4.779901431947926e-09, 2.536135152987125e-09).transl(1.949730068418616e-08, 3.999134972307374e-08, 0))
hIsland = hIsland.sub(rect(4.120533608710149e-09, -1.779117871488788e-09).transl(-6.329752630920341e-08, 3.109192915732941e-08, 0))
hIsland = hIsland.sub(rect(8.450283193474108e-09, -2.4062126373245624e-09).transl(-2.406390552262855e-08, 3.9857884305369196e-08, 0))
hIsland = hIsland.sub(rect(7.128431465572074e-09, -1.272609164496514e-09).transl(-3.351084779694862e-10, 4e-08, 0))
hIsland = hIsland.sub(rect(4.428292765500559e-09, -3.973205916608082e-09).transl(1.2652658374938159e-08, 4e-08, 0))
hIsland = hIsland.sub(rect(6.829189181617307e-09, -2.3597114486082533e-09).transl(3.328242997278326e-08, 3.908856410596775e-08, 0))
hIsland = hIsland.add(rect(6.908268911256386e-09, 1.8149061914616332e-10).transl(-4.981775149341421e-08, 3.588231230550672e-08, 0))
hIsland = hIsland.sub(rect(8.36481262829819e-09, -2.8446897816370362e-09).transl(4.340468356553428e-08, 3.742730424112507e-08, 0))
hIsland = hIsland.sub(rect(3.5818202225521186e-09, -1.1866178778079863e-09).transl(1.762934529583973e-08, 4e-08, 0))
hIsland = hIsland.sub(rect(4.878724237849607e-09, -1.7519743726736669e-09).transl(-5.3805677782433396e-08, 3.4703121139654066e-08, 0))
hIsland = hIsland.sub(rect(8.489894703573847e-09, -3.156694166251146e-10).transl(-8.974612111486209e-08, 3.3561306061500997e-09, 0))
hIsland = hIsland.add(rect(7.908911289715367e-09, 2.204298489728706e-09).transl(-2.8314586530953543e-08, 3.958741423289415e-08, 0))
vIsland = hIsland.rotz(pi / 2)
vIslands = vIslands.add(vIsland.transl(0, -a/2, 0))
DefRegion(1, hIslands)
DefRegion(2, vIslands)
TableAdd(m_full.Region(1))
TableAdd(m_full.Region(2))
setgeom(hIslands.add(vIslands))
save(m)
r2o2 := sqrt(2) / 2
m = RandomMagSeed(4)
B_ext = vector(Bmax*r2o2, Bmax*r2o2, 0)
relax()
minimize()
for B := Bmax; B >= -Bmax; B -= Bstep {
	B_ext = vector(B*r2o2, B*r2o2, 0)
	minimize()
	tablesave()
}
//********************************************************************//
//Please cite the following references, relevant for your simulation. //
//See bibtex file in output folder for justification.                 //
//********************************************************************//
//   * Vansteenkiste et al., AIP Adv. 4, 107133 (2014).
//   * Exl et al., J. Appl. Phys. 115, 17D118 (2014).
