//mumax 3.10 [windows_amd64 go1.11.6(gc) CUDA-11.0]
//GPU info: NVIDIA GeForce RTX 3090(24575MB), CUDA Driver 12.1, cc=8.6, using cc=80 PTX
//(c) Arne Vansteenkiste, Dynamat LAB, Ghent University, Belgium
//This is free software without any warranty. See license.txt
//********************************************************************//
//  If you use mumax in any work or publication,                      //
//  we kindly ask you to cite the references in references.bib        //
//********************************************************************//
//output directory: r1;p0.5;a4.2e-07;l1.8000000000000002e-07;s1.out/
randSeed(1)
ThermSeed(1)
resolution := 2e-09
zResolution := 5e-09
a := 4.2e-07
gridSize := 420
gridDepth := 5
SetCellsize(resolution, resolution, zResolution)
SetGridsize(gridSize, gridSize, gridDepth)
SetPBC(16, 16, 0)
//resizing...
Msat = 700e3
Aex = 13e-12
alpha = 0.2
Bmax := 0.1
Bstep := Bmax / 500.0
TableAdd(B_ext)
TableAdd(m_full)
islandWidth := 8e-08
islandLength := 1.8000000000000002e-07
ellipseConstant := 4.5000000000000006e-08
hIsland := Universe().Inverse()
vIsland := Universe().Inverse()
vIslands := Universe().Inverse()
hIslands := Universe().Inverse()
hIsland = rect(islandLength-2*ellipseConstant, islandWidth)
hIsland = hIsland.add(ellipse(ellipseConstant*2, islandWidth).transl(islandLength/2-ellipseConstant, 0, 0))
hIsland = hIsland.add(ellipse(ellipseConstant*2, islandWidth).transl(-islandLength/2+ellipseConstant, 0, 0))
hIsland = hIsland.sub(rect(5.2288553480064635e-09, -1.8312322817152778e-10).transl(8.224016953275946e-08, -2.2455130977064118e-08, 0))
hIsland = hIsland.sub(rect(3.2738453193906872e-09, -1.744589756253453e-10).transl(6.347103795469865e-08, -3.647500893814684e-08, 0))
hIsland = hIsland.sub(rect(4.4965368037805646e-09, -2.5011212879248537e-10).transl(-3.661500334837004e-09, -4e-08, 0))
hIsland = hIsland.add(rect(8.201438500523575e-09, 7.589645620513645e-10).transl(6.101041046400639e-08, -3.7382684384245025e-08, 0))
hIsland = hIsland.add(rect(8.291130480570743e-09, 2.445409387318336e-09).transl(-1.3324907832299738e-08, -4e-08, 0))
hIsland = hIsland.sub(rect(3.1601067696001844e-09, -9.47789173318225e-10).transl(8.328850142573733e-08, -2.101598514140491e-08, 0))
hIsland = hIsland.sub(rect(3.353805386219916e-09, -1.862760393172739e-09).transl(-4.391986653873083e-08, -4e-08, 0))
hIsland = hIsland.add(rect(8.518408917936626e-09, 1.433575768640687e-10).transl(7.429947350592615e-09, -4e-08, 0))
hIsland = hIsland.sub(rect(6.332791724366721e-09, -1.841953595939657e-10).transl(-3.4777722618143184e-08, -4e-08, 0))
hIsland = hIsland.sub(rect(9.802444032160848e-09, -2.6697839779807183e-09).transl(9.911154194157664e-09, -4e-08, 0))
hIsland = hIsland.add(rect(2.60321570674987e-09, 5.549990248542289e-10).transl(-7.159037744358291e-08, -3.226987223021358e-08, 0))
hIsland = hIsland.add(rect(5.008468932260014e-09, 4.59369174119998e-10).transl(-2.240461765961499e-08, -4e-08, 0))
hIsland = hIsland.add(rect(2.7076072680877817e-09, 1.6561541599340595e-09).transl(-2.277885318334194e-08, -4e-08, 0))
hIsland = hIsland.sub(rect(6.128654415034681e-09, -6.86993610415915e-09).transl(-7.339266187380876e-09, -4e-08, 0))
hIsland = hIsland.add(rect(2.4862453322180483e-09, 1.561213251914704e-09).transl(4.692587957731642e-08, -3.9963350991898436e-08, 0))
hIsland = hIsland.add(rect(2.8284437004027734e-09, 4.623348693437355e-11).transl(4.447261955465165e-08, -4e-08, 0))
hIsland = hIsland.sub(rect(5.440216520420056e-09, -1.3519062765160566e-09).transl(3.0805624424706e-08, -4e-08, 0))
hIsland = hIsland.sub(rect(8.148274141087127e-09, -7.221727414060684e-11).transl(-6.391796215580031e-08, -3.629357071652531e-08, 0))
hIsland = hIsland.add(rect(8.866557066451618e-09, 2.437910602692387e-09).transl(8.840869433770413e-08, -1.0543183613490389e-08, 0))
hIsland = hIsland.sub(rect(7.002029394291214e-09, -1.8082916689955068e-09).transl(9.654588756815657e-09, -4e-08, 0))
hIsland = hIsland.sub(rect(2.9325199812253937e-09, -9.243779515578416e-10).transl(3.321237540843307e-08, -4e-08, 0))
hIsland = hIsland.add(rect(4.315912634608299e-09, 3.2187563557635673e-09).transl(-6.830437569223438e-08, -3.4218251701501576e-08, 0))
hIsland = hIsland.add(rect(8.051134230791921e-09, 8.573802143941843e-10).transl(-1.0154769386531862e-08, -4e-08, 0))
hIsland = hIsland.sub(rect(2.219207871004697e-09, -7.776278750887807e-10).transl(-2.4146420959520218e-09, -4e-08, 0))
hIsland = hIsland.sub(rect(5.665510399262072e-09, -7.91463510251592e-11).transl(-6.463588005998147e-08, -3.599102455213128e-08, 0))
hIsland = hIsland.sub(rect(9.146346188250089e-09, -4.4763043616869723e-10).transl(6.786569654222527e-08, -3.445129591084903e-08, 0))
hIsland = hIsland.sub(rect(4.077429757655446e-09, -7.809524070198037e-10).transl(7.544942458583441e-08, -2.945204990100227e-08, 0))
hIsland = hIsland.sub(rect(9.038296950879421e-09, -4.289271119085818e-09).transl(7.526807507025531e-08, -2.9599381128550585e-08, 0))
hIsland = hIsland.sub(rect(6.6566612604011345e-09, -5.294520260606132e-10).transl(-2.7259774500365306e-08, -4e-08, 0))
hIsland = hIsland.sub(rect(9.192589444751983e-09, -3.108884828371898e-09).transl(3.316246796268814e-08, -4e-08, 0))
hIsland = hIsland.add(rect(9.787685948556942e-09, 1.0603584029589582e-09).transl(5.8424357959037006e-08, -3.817864816896988e-08, 0))
hIsland = hIsland.sub(rect(7.000293687257803e-09, -5.43451031237716e-10).transl(-6.087969121392737e-08, -3.74267129208472e-08, 0))
hIsland = hIsland.sub(rect(2.9052823403314296e-09, -1.6499843256544848e-09).transl(2.3487371840801498e-08, -4e-08, 0))
hIsland = hIsland.sub(rect(2.559613711104701e-09, -1.9189505320830606e-10).transl(5.685257241817246e-08, -3.858757199861413e-08, 0))
hIsland = hIsland.sub(rect(4.36542421884226e-09, -2.0670110101578203e-09).transl(5.76298685592977e-09, -4e-08, 0))
hIsland = hIsland.add(rect(4.460202840739951e-09, 3.139583302601472e-09).transl(-4.973507405068905e-08, -3.977794238311806e-08, 0))
hIsland = hIsland.add(rect(8.738469896992922e-09, 2.3770385048912987e-09).transl(-1.4928416332238628e-11, -4e-08, 0))
hIsland = hIsland.add(rect(8.291024615241728e-09, 1.313044952386417e-09).transl(-6.588392298775327e-08, -3.543158120490498e-08, 0))
hIsland = hIsland.add(rect(5.592003943083312e-09, 4.043422838351352e-10).transl(-3.85628856191339e-08, -4e-08, 0))
hIsland = hIsland.add(rect(5.035690363953365e-09, 1.7664999111268217e-10).transl(8.554115936085722e-08, -1.735985202593998e-08, 0))
hIsland = hIsland.sub(rect(8.319241064299403e-09, -1.9712920859631495e-09).transl(2.095811084843109e-08, -4e-08, 0))
hIsland = hIsland.sub(rect(4.576797850527185e-09, -1.015976143779843e-09).transl(-4.413297425738438e-08, -4e-08, 0))
hIsland = hIsland.sub(rect(4.653177590230798e-09, -2.287532526992136e-09).transl(-2.386374687277069e-08, -4e-08, 0))
hIsland = hIsland.add(rect(6.376169689201506e-09, 1.9423459749693314e-10).transl(4.1394168302593925e-08, -4e-08, 0))
hIsland = hIsland.sub(rect(4.562658878329937e-09, -1.0780316348636724e-10).transl(-4.494053156728714e-08, -4e-08, 0))
hIsland = hIsland.sub(rect(5.1994473808691565e-09, -3.959061118484139e-09).transl(3.167144968714614e-09, -4e-08, 0))
hIsland = hIsland.sub(rect(2.0340627692858516e-09, -1.8172577399410893e-10).transl(-4.056467838267923e-09, -4e-08, 0))
hIsland = hIsland.add(rect(6.062616745284956e-09, 3.244444705497457e-10).transl(-7.270005623596658e-08, -3.1523700785743227e-08, 0))
hIsland = hIsland.add(rect(7.188679686712117e-09, 4.30976618116092e-09).transl(6.714519518758212e-08, -3.482119780217766e-08, 0))
hIsland = hIsland.sub(rect(7.486626784220656e-09, -4.680193411470121e-10).transl(7.331978275363714e-08, -3.108557561296828e-08, 0))
hIsland = hIsland.sub(rect(9.435316879356919e-09, -3.3907181506722727e-09).transl(2.7672228560765012e-08, -4e-08, 0))
hIsland = hIsland.add(rect(7.80139692079642e-09, 1.9484135927297634e-09).transl(7.454462077068879e-08, -3.017140019032738e-08, 0))
hIsland = hIsland.add(rect(7.607083187217183e-09, 2.263985035702759e-09).transl(-6.405474958304343e-08, -3.623698696577209e-08, 0))
hIsland = hIsland.add(rect(8.321354948440494e-09, 2.5229087467571872e-09).transl(8.023910233703892e-08, -2.4876277225030124e-08, 0))
hIsland = hIsland.add(rect(7.346615981368348e-09, 8.721782330288679e-10).transl(3.766060803662249e-08, -4e-08, 0))
hIsland = hIsland.sub(rect(5.511021557293772e-09, -2.2522775004037945e-09).transl(-4.864359874805391e-08, -3.9868665260575214e-08, 0))
hIsland = hIsland.sub(rect(3.427959336203742e-09, -3.8290931498623015e-10).transl(-6.764365581415425e-08, -3.456697747774255e-08, 0))
hIsland = hIsland.sub(rect(7.679022247912555e-09, -7.00655477531322e-10).transl(-5.92055154193013e-08, -3.795465345450996e-08, 0))
hIsland = hIsland.add(rect(8.759243541958676e-09, 1.0489439046175613e-09).transl(2.2578015533374417e-08, -4e-08, 0))
hIsland = hIsland.sub(rect(8.095962911204477e-09, -8.568857137738315e-10).transl(5.2929017882140285e-08, -3.9374172650869806e-08, 0))
hIsland = hIsland.sub(rect(9.684248173489052e-09, -8.423296835491896e-10).transl(5.62122413467696e-08, -3.8738483946261346e-08, 0))
hIsland = hIsland.sub(rect(3.862650845668325e-09, -3.3628022495305215e-09).transl(-5.928547011716958e-08, -3.793093496063361e-08, 0))
hIsland = hIsland.sub(rect(5.994525567435837e-09, -2.347636443401541e-09).transl(6.659858355091909e-08, -3.5091428391323455e-08, 0))
hIsland = hIsland.add(rect(6.455678334125952e-09, 1.6627288812336494e-09).transl(3.378487760487177e-08, -4e-08, 0))
hIsland = hIsland.add(rect(9.44873091376183e-09, 8.468022645917297e-10).transl(-2.6532356901075737e-08, -4e-08, 0))
hIsland = hIsland.add(rect(5.306546523850773e-09, 1.4845712260844838e-09).transl(-1.5739005153052843e-08, -4e-08, 0))
hIsland = hIsland.add(rect(2.4643309291643992e-09, 2.331698716971429e-09).transl(3.702531836957553e-08, -4e-08, 0))
hIsland = hIsland.add(rect(9.908547872669638e-09, 3.551886184655961e-09).transl(-3.6292205252616017e-08, -4e-08, 0))
hIsland = hIsland.sub(rect(4.1348523303577456e-09, -2.4740802798903905e-09).transl(-3.587672604449285e-08, -4e-08, 0))
hIsland = hIsland.sub(rect(3.4946591821544114e-09, -3.34528265209296e-09).transl(6.950469982140677e-08, -3.354916420853959e-08, 0))
hIsland = hIsland.sub(rect(8.763076895073951e-09, -1.071240538239226e-09).transl(-3.7388674723516294e-08, -4e-08, 0))
hIsland = hIsland.sub(rect(2.3748740267606313e-09, -2.156627651041589e-09).transl(-7.930484966639744e-08, -2.588754086128382e-08, 0))
hIsland = hIsland.sub(rect(2.8038871250051552e-09, -1.668827917919962e-09).transl(4.285398260188026e-08, -4e-08, 0))
hIsland = hIsland.add(rect(6.481379275424236e-09, 6.35363505271652e-10).transl(-7.777056383532128e-08, -2.741311061899923e-08, 0))
hIsland = hIsland.sub(rect(8.131323215382442e-09, -4.193568502326188e-09).transl(6.392456409681745e-08, -3.62908511274117e-08, 0))
hIsland = hIsland.add(rect(5.974458007026336e-09, 6.624918112150903e-10).transl(7.926028364644636e-09, -4e-08, 0))
hIsland = hIsland.add(rect(9.000772880504231e-09, 1.1129482187142784e-10).transl(-1.4862431852814416e-08, -4e-08, 0))
hIsland = hIsland.sub(rect(8.266171433170804e-09, -2.132029748543612e-09).transl(-6.653505066609943e-08, -3.512226650138619e-08, 0))
hIsland = hIsland.sub(rect(8.898106968562833e-09, -2.2999353960171833e-10).transl(-5.5543337880442e-08, -3.888660845467536e-08, 0))
hIsland = hIsland.add(rect(5.4097914516885484e-09, 2.2276725005664103e-09).transl(-7.285129028203226e-09, -4e-08, 0))
hIsland = hIsland.sub(rect(5.593526157853007e-09, -1.8645480713962156e-09).transl(-7.52467674945736e-08, -2.9616586025499166e-08, 0))
hIsland = hIsland.sub(rect(4.3321146753533295e-09, -3.3033782157084796e-09).transl(-6.125446010730873e-08, -3.7299376373112974e-08, 0))
hIsland = hIsland.sub(rect(7.0610339852439445e-09, -2.3537296398818103e-09).transl(-8.35310084552414e-08, -2.0662821863091928e-08, 0))
hIsland = hIsland.add(rect(9.83324811080516e-09, 3.079521208622377e-09).transl(-4.131551756457796e-08, -4e-08, 0))
hIsland = hIsland.sub(rect(3.723219492077876e-09, -3.6143055051289325e-09).transl(6.008924316034684e-08, -3.7684221313151855e-08, 0))
hIsland = hIsland.add(rect(9.059790021832981e-09, 5.658142160365199e-10).transl(3.47967346691694e-09, -4e-08, 0))
hIsland = hIsland.sub(rect(9.889311593953632e-09, -4.765575239206872e-09).transl(-8.236318974709126e-08, -2.229307906859883e-08, 0))
hIsland = hIsland.add(rect(6.705580910891953e-09, 4.831413129137703e-10).transl(8.376648175372404e-08, -2.03118384005588e-08, 0))
hIsland = hIsland.add(rect(4.580892470562914e-09, 2.569075599409089e-09).transl(-3.256526073053088e-08, -4e-08, 0))
hIsland = hIsland.add(rect(7.871472980843683e-09, 2.01817102023959e-09).transl(-2.879897945091285e-09, -4e-08, 0))
hIsland = hIsland.add(rect(4.778586497246608e-09, 2.4217436521534517e-09).transl(-8.325865567965615e-08, -2.1058887744969385e-08, 0))
hIsland = hIsland.sub(rect(4.7624001730121176e-09, -1.18442227440804e-09).transl(-1.3794403505890868e-08, -4e-08, 0))
hIsland = hIsland.add(rect(6.140150987340906e-09, 2.6350514032329034e-09).transl(5.647806132644686e-08, -3.867692439352284e-08, 0))
hIsland = hIsland.sub(rect(4.3949274096664705e-09, -2.7174074381864683e-09).transl(-5.832199373028563e-08, -3.820696835725172e-08, 0))
hIsland = hIsland.sub(rect(7.882850254373368e-09, -8.658910077103789e-10).transl(-5.505301740818869e-08, -3.898907061535843e-08, 0))
hIsland = hIsland.sub(rect(9.54746698408982e-09, -9.339894954437978e-10).transl(2.8283108257505385e-08, -4e-08, 0))
hIsland = hIsland.add(rect(6.3530227545829095e-09, 2.559213671898282e-09).transl(-5.527011161672418e-08, -3.894433946289888e-08, 0))
hIsland = hIsland.add(rect(8.199345046554695e-09, 1.1798301140378939e-09).transl(6.11400215835945e-08, -3.733862082431022e-08, 0))
hIsland = hIsland.add(rect(2.301235326770612e-09, 3.877267695723574e-10).transl(-5.0108291987147494e-08, -3.9741439421441874e-08, 0))
hIsland = hIsland.sub(rect(6.188839608243778e-09, -1.7107680282011117e-09).transl(-3.079031730335587e-08, -4e-08, 0))
hIsland = hIsland.add(rect(5.1995432729161995e-09, 2.157694514424462e-10).transl(-7.094954247419204e-08, -3.267946833519021e-08, 0))
hIsland = hIsland.add(rect(4.991327712198878e-09, 6.238836152282243e-10).transl(7.966408367244257e-08, -2.550663999766124e-08, 0))
hIsland = hIsland.sub(rect(3.824601362136834e-09, -2.5032506870338287e-09).transl(-5.7699771117632055e-09, -4e-08, 0))
hIsland = hIsland.add(rect(4.002661389534638e-09, 2.4114094051320865e-09).transl(3.167242621643757e-08, -4e-08, 0))
hIsland = hIsland.add(rect(2.8722871531396444e-09, 2.341263989478289e-09).transl(7.854855922153642e-08, -2.6659171897287752e-08, 0))
hIsland = hIsland.sub(rect(3.6132432164016627e-09, -1.123479835185517e-09).transl(-8.473358108784601e-09, -4e-08, 0))
hIsland = hIsland.add(rect(5.314699034183523e-09, 2.4334087665568157e-11).transl(6.277736349965076e-08, -3.674634141662525e-08, 0))
hIsland = hIsland.sub(rect(2.3887678676228178e-09, -2.2204256728919834e-09).transl(-1.6410978273503643e-08, -4e-08, 0))
hIsland = hIsland.sub(rect(9.491092233968701e-09, -2.9707225930137044e-09).transl(-5.343693193340838e-09, -4e-08, 0))
hIsland = hIsland.add(rect(7.632191565455088e-09, 2.264572290065703e-10).transl(8.655032452866908e-08, -1.535928320246927e-08, 0))
hIsland = hIsland.sub(rect(5.929396492354496e-09, -1.272219644344715e-09).transl(-6.808030302781865e-08, -3.433803908370176e-08, 0))
hIsland = hIsland.add(rect(3.5704227152930647e-09, 3.414781788015885e-09).transl(-3.402080595795267e-08, -4e-08, 0))
hIsland = hIsland.sub(rect(5.945079121815505e-09, -6.60212885686778e-10).transl(-8.301063563175058e-08, -2.1410814461330436e-08, 0))
hIsland = hIsland.add(rect(6.705530896480462e-09, 1.7675691692326719e-09).transl(-4.1875100589816015e-08, -4e-08, 0))
hIsland = hIsland.sub(rect(7.124776346831338e-09, -2.0878004580285186e-09).transl(6.036813066498171e-08, -3.7595067287305474e-08, 0))
hIsland = hIsland.add(rect(7.775495182504165e-09, 9.095793894600923e-10).transl(7.253653152640784e-08, -3.163669607378908e-08, 0))
hIsland = hIsland.sub(rect(5.772729656003905e-09, -5.868036594658961e-10).transl(-4.014764116560961e-08, -4e-08, 0))
hIsland = hIsland.add(rect(2.0984001666674016e-09, 2.5859511592577745e-09).transl(6.182525813141041e-08, -3.709884762177034e-08, 0))
hIsland = hIsland.sub(rect(7.148580532093818e-09, -1.6392153511518439e-09).transl(-6.127735362538152e-08, -3.7291487224575334e-08, 0))
hIsland = hIsland.add(rect(5.804651456693173e-09, 2.3028515814649126e-09).transl(4.2552106439835526e-08, -4e-08, 0))
hIsland = hIsland.add(rect(7.932347600114284e-09, 1.5403485596109509e-09).transl(-1.9692549253177997e-08, -4e-08, 0))
hIsland = hIsland.sub(rect(7.703437842595955e-09, -1.3303510034910661e-09).transl(7.170508789531548e-08, -3.2194940548803895e-08, 0))
hIsland = hIsland.sub(rect(2.437370366086798e-09, -2.7527796090226747e-09).transl(-3.663891260280365e-08, -4e-08, 0))
hIsland = hIsland.sub(rect(6.332652961966905e-09, -2.976114728256742e-09).transl(-3.86677952993483e-08, -4e-08, 0))
hIsland = hIsland.add(rect(5.610234951971815e-09, 4.175367511092822e-09).transl(-6.597282017376056e-08, -3.539006837270134e-08, 0))
hIsland = hIsland.add(rect(6.2817238495859945e-09, 9.339049829145052e-10).transl(7.994696138092343e-08, -2.5199802315356256e-08, 0))
hIsland = hIsland.sub(rect(4.777492123524955e-09, -2.082086493586297e-09).transl(4.540477408225958e-08, -3.999838177410465e-08, 0))
hIsland = hIsland.sub(rect(4.560573805062716e-09, -1.2515276297627041e-09).transl(-2.2379785755257887e-08, -4e-08, 0))
hIsland = hIsland.sub(rect(6.0569998139223886e-09, -4.289641951643213e-10).transl(7.45050656516609e-08, -3.02019683883568e-08, 0))
hIsland = hIsland.sub(rect(2.474348516358436e-09, -3.6012658353365377e-09).transl(8.28349659210974e-08, -2.1655262708230735e-08, 0))
hIsland = hIsland.sub(rect(7.301348238732512e-09, -3.0960374936124005e-09).transl(8.664999925677184e-08, -1.514447459127105e-08, 0))
hIsland = hIsland.sub(rect(6.953485350692346e-09, -2.3434716320217676e-09).transl(1.6236090512626983e-09, -4e-08, 0))
hIsland = hIsland.sub(rect(9.83296589288786e-09, -3.628077746935964e-10).transl(-7.130642815677657e-08, -3.2453232753517155e-08, 0))
hIsland = hIsland.sub(rect(9.255347916834144e-09, -4.809446840791973e-09).transl(-1.2080160976745731e-08, -4e-08, 0))
hIsland = hIsland.sub(rect(5.418782597283464e-09, -2.0046395293336105e-09).transl(-6.259956439151727e-08, -3.6813903259074066e-08, 0))
hIsland = hIsland.add(rect(3.632078927038287e-09, 2.4735332906063604e-09).transl(-4.3772681666109574e-08, -4e-08, 0))
hIsland = hIsland.sub(rect(8.988046044043897e-09, -3.3514517308775622e-09).transl(8.408767219246392e-08, -1.981950918303433e-08, 0))
hIsland = hIsland.add(rect(3.2248490498745554e-09, 2.1225050154059213e-09).transl(-4.8260359992283886e-08, -3.9894874724833946e-08, 0))
hIsland = hIsland.sub(rect(5.76391090768229e-09, -2.202149773048856e-09).transl(-1.5803090819839426e-08, -4e-08, 0))
hIsland = hIsland.add(rect(7.835802554155799e-09, 2.5026679556973617e-09).transl(-4.556939858157878e-08, -3.999679775088466e-08, 0))
hIsland = hIsland.sub(rect(5.5065396997034e-09, -3.614934048128744e-10).transl(3.478150619092793e-08, -4e-08, 0))
hIsland = hIsland.add(rect(6.9068033905831646e-09, 3.549849055258564e-10).transl(8.560692288371079e-08, -1.7237978488026726e-08, 0))
hIsland = hIsland.sub(rect(3.1932126526277394e-09, -3.265180832206224e-09).transl(-7.269486870915588e-08, -3.152730187006208e-08, 0))
hIsland = hIsland.add(rect(5.614531365329029e-09, 1.5492763853877574e-09).transl(-7.813562177014533e-08, -2.7064157079874956e-08, 0))
hIsland = hIsland.sub(rect(3.1144038874418415e-09, -2.7066766136157644e-09).transl(1.5787625136289214e-09, -4e-08, 0))
hIsland = hIsland.sub(rect(2.4095215898916894e-09, -1.7062723516471793e-09).transl(5.8174934167420034e-08, -3.824723842524903e-08, 0))
hIsland = hIsland.add(rect(5.099499445469757e-09, 1.3214834093850088e-09).transl(-1.4011805254430527e-08, -4e-08, 0))
hIsland = hIsland.add(rect(2.4516294470566233e-09, 6.130791812489006e-10).transl(-1.2251771370133346e-08, -4e-08, 0))
hIsland = hIsland.add(rect(6.454745122985336e-09, 2.749897311733022e-09).transl(2.3691730097522475e-08, -4e-08, 0))
hIsland = hIsland.sub(rect(5.197738654893806e-09, -2.5467759579093824e-09).transl(-5.2455774297817106e-08, -3.944715663534371e-08, 0))
hIsland = hIsland.add(rect(3.999048418902798e-09, 1.8139360747788593e-09).transl(4.298813239006827e-08, -4e-08, 0))
hIsland = hIsland.sub(rect(5.967413454747086e-09, -2.314181614905433e-09).transl(8.99245823527578e-08, -2.3148517472144993e-09, 0))
hIsland = hIsland.sub(rect(9.776258113914044e-09, -1.924323011759843e-09).transl(5.0099308588347745e-08, -3.9742350971940884e-08, 0))
hIsland = hIsland.add(rect(7.31331263048457e-09, 1.559977518581319e-09).transl(-1.9153989044698353e-08, -4e-08, 0))
hIsland = hIsland.sub(rect(6.574358992714419e-09, -3.17788308315811e-11).transl(-6.88400875329494e-08, -3.392541101054079e-08, 0))
hIsland = hIsland.add(rect(5.794776236059499e-09, 1.2973028496102533e-09).transl(3.261343751645007e-08, -4e-08, 0))
hIsland = hIsland.add(rect(2.767125385578952e-09, 8.617677634093753e-10).transl(-6.940579031418118e-08, -3.3606082919572925e-08, 0))
hIsland = hIsland.add(rect(9.129856071696627e-09, 1.6878575987221708e-09).transl(-2.0075121977441956e-08, -4e-08, 0))
hIsland = hIsland.add(rect(2.8526788440994607e-09, 1.0834789403278541e-10).transl(-9.102940143905411e-10, -4e-08, 0))
hIsland = hIsland.add(rect(9.480421556118846e-09, 4.078246040697344e-09).transl(3.201986898212937e-08, -4e-08, 0))
hIsland = hIsland.add(rect(9.660278363577624e-09, 3.184027541785561e-11).transl(-4.652791400027854e-08, -3.997693635142183e-08, 0))
hIsland = hIsland.sub(rect(2.9106334591804555e-09, -1.4277672854969529e-09).transl(3.812044835646718e-08, -4e-08, 0))
hIsland = hIsland.sub(rect(5.120701838193965e-09, -3.225239926688059e-10).transl(1.5457562863140276e-08, -4e-08, 0))
hIsland = hIsland.add(rect(2.2101908180332856e-09, 1.8789933548189104e-09).transl(4.085311150601683e-08, -4e-08, 0))
hIsland = hIsland.sub(rect(4.171083766120728e-09, -4.389613234805299e-09).transl(-2.4074766914599052e-08, -4e-08, 0))
hIsland = hIsland.sub(rect(6.238130428258551e-09, -3.9298128969912073e-10).transl(6.071100966951003e-08, -3.74829191075266e-08, 0))
hIsland = hIsland.sub(rect(6.281939903298923e-09, -9.235874213256307e-10).transl(7.275860857589201e-08, -3.1482979449327025e-08, 0))
hIsland = hIsland.sub(rect(7.558360097459266e-09, -2.188726651821057e-09).transl(3.581850301205461e-08, -4e-08, 0))
hIsland = hIsland.add(rect(4.064166631380615e-09, 2.0668321828052323e-09).transl(-8.934194355059737e-08, -6.815641685106605e-09, 0))
hIsland = hIsland.add(rect(9.334047581002247e-09, 2.2911825064730588e-09).transl(1.759968728006856e-08, -4e-08, 0))
hIsland = hIsland.add(rect(7.814322920657627e-09, 4.76251902668591e-10).transl(7.668257594612616e-08, -2.8405728949804076e-08, 0))
hIsland = hIsland.add(rect(7.747842227667832e-09, 1.9900070991451615e-09).transl(-5.385848119411358e-08, -3.921730342146422e-08, 0))
hIsland = hIsland.add(rect(2.931967540652493e-09, 5.497667406318813e-10).transl(7.543462229908396e-08, -2.9464136181100758e-08, 0))
hIsland = hIsland.sub(rect(4.319504125390932e-09, -1.7116098641480852e-09).transl(-1.7557211743932442e-08, -4e-08, 0))
hIsland = hIsland.sub(rect(7.735360304676749e-09, -2.430818200378192e-09).transl(-1.9485066586050933e-08, -4e-08, 0))
hIsland = hIsland.add(rect(7.007778163711851e-09, 6.2401353803423644e-12).transl(1.697267030783501e-08, -4e-08, 0))
hIsland = hIsland.sub(rect(2.9566993455331785e-09, -1.9731183327977723e-09).transl(8.005045838632884e-08, -2.5085971556133627e-08, 0))
hIsland = hIsland.add(rect(4.967734023207375e-09, 1.1215379318161266e-09).transl(4.4466432346324774e-08, -4e-08, 0))
hIsland = hIsland.sub(rect(6.105544639229364e-09, -6.398531207804032e-10).transl(8.190800036218345e-08, -2.2884349224291096e-08, 0))
hIsland = hIsland.sub(rect(7.062586218603217e-09, -2.217709682154918e-09).transl(-6.252527951546868e-08, -3.684189325470888e-08, 0))
hIsland = hIsland.add(rect(3.953469452956638e-09, 3.9606917183515564e-10).transl(-2.6029536694753946e-08, -4e-08, 0))
hIsland = hIsland.sub(rect(2.43992177449305e-09, -2.0761445207791306e-09).transl(-2.7292281998422594e-08, -4e-08, 0))
hIsland = hIsland.sub(rect(6.3356656116797155e-09, -1.3008234688552776e-09).transl(2.34302708958441e-08, -4e-08, 0))
hIsland = hIsland.add(rect(5.4945578957433495e-09, 7.431792667558423e-10).transl(8.964949576489755e-08, -4.982737841523564e-09, 0))
hIsland = hIsland.sub(rect(8.444639560512247e-09, -7.237374883793155e-10).transl(6.045206523743915e-08, -3.756787363953264e-08, 0))
hIsland = hIsland.add(rect(7.055247956084709e-09, 1.9660251748606024e-10).transl(5.249443634222308e-08, -3.944136750602815e-08, 0))
hIsland = hIsland.add(rect(6.216568261158763e-09, 3.524762050507216e-10).transl(-7.939157017816334e-08, -2.5796466798828962e-08, 0))
hIsland = hIsland.sub(rect(9.14113405805679e-09, -1.798213025184155e-09).transl(-4.277335389905996e-08, -4e-08, 0))
hIsland = hIsland.add(rect(3.8730909033766565e-09, 1.0923011390237925e-10).transl(2.7034132525325643e-08, -4e-08, 0))
hIsland = hIsland.add(rect(9.3553513425984e-09, 5.227927631702224e-10).transl(5.3253924650961784e-09, -4e-08, 0))
hIsland = hIsland.sub(rect(9.63307772278391e-09, -1.3542283056889165e-09).transl(8.333130039868403e-08, -2.0954250643869386e-08, 0))
hIsland = hIsland.sub(rect(3.5151283657220775e-09, -4.5531486123686434e-10).transl(-4.479466640383907e-08, -4e-08, 0))
hIsland = hIsland.add(rect(5.975011797275635e-09, 1.0231490131412902e-09).transl(5.731553585017233e-08, -3.8472848355960555e-08, 0))
hIsland = hIsland.sub(rect(9.330819089892245e-09, -2.9029877020079696e-09).transl(-2.992530083026568e-08, -4e-08, 0))
hIsland = hIsland.add(rect(7.048025725838934e-09, 3.7947416561139e-10).transl(3.480069991087873e-08, -4e-08, 0))
hIsland = hIsland.sub(rect(2.988457067204686e-09, -3.5112897067888753e-09).transl(8.779709566367234e-08, -1.2361904132507934e-08, 0))
hIsland = hIsland.add(rect(4.5735051863071735e-09, 1.0851047514019514e-10).transl(6.140449859781091e-08, -3.724744008906756e-08, 0))
hIsland = hIsland.sub(rect(2.6573833274337267e-09, -2.5449521110453124e-09).transl(4.0457588445578815e-08, -4e-08, 0))
hIsland = hIsland.sub(rect(9.436339617165133e-09, -2.3304940412712162e-09).transl(-8.143475934856905e-08, -2.3475895680347465e-08, 0))
hIsland = hIsland.sub(rect(3.88325050543467e-09, -2.3769148357658993e-09).transl(-4.501317415410031e-08, -3.999999828584356e-08, 0))
hIsland = hIsland.sub(rect(6.533067207630381e-09, -1.8726286103417718e-09).transl(3.191124792366981e-08, 4e-08, 0))
hIsland = hIsland.add(rect(2.833886976460691e-09, 9.4633563115699e-10).transl(6.664101623881956e-08, 3.507076631324783e-08, 0))
hIsland = hIsland.sub(rect(3.827827168373216e-09, -3.1519329030255574e-09).transl(6.280585136223467e-08, 3.6735441571722486e-08, 0))
hIsland = hIsland.add(rect(6.718308805036177e-09, 1.2695506789993881e-09).transl(-5.908199596157362e-08, 3.7991004936556515e-08, 0))
hIsland = hIsland.sub(rect(8.706113275093799e-09, -5.950617175300404e-10).transl(-2.6142973527245643e-08, 4e-08, 0))
hIsland = hIsland.add(rect(2.536762311639389e-09, 3.084940927818631e-10).transl(-4.213288476173458e-08, 4e-08, 0))
hIsland = hIsland.sub(rect(3.76288719282267e-09, -2.7301517482523827e-09).transl(-6.536428519354485e-08, 3.566977087003457e-08, 0))
hIsland = hIsland.add(rect(4.1589538507741074e-09, 8.487196338644508e-10).transl(-5.2955719843995415e-08, 3.936991666467925e-08, 0))
hIsland = hIsland.add(rect(7.507445238989723e-09, 1.2060937180324278e-09).transl(-5.8170632225628766e-08, 3.824840908395555e-08, 0))
hIsland = hIsland.add(rect(4.449408576643643e-09, 8.82401040632269e-10).transl(3.1849964929130596e-09, 4e-08, 0))
hIsland = hIsland.sub(rect(2.670057889507512e-09, -1.654702077364011e-09).transl(2.46634428027707e-08, 4e-08, 0))
hIsland = hIsland.sub(rect(5.449379386007641e-09, -5.819429153857651e-11).transl(-4.461374822852832e-08, 4e-08, 0))
hIsland = hIsland.add(rect(4.296696110243997e-09, 1.2306832721148603e-09).transl(6.954376974296371e-08, 3.352659078732498e-08, 0))
hIsland = hIsland.add(rect(5.213145937569613e-09, 2.980341817884001e-10).transl(-3.256544901704372e-09, 4e-08, 0))
hIsland = hIsland.add(rect(2.7430483759406812e-09, 1.5061395167419158e-09).transl(-3.847251043482117e-08, 4e-08, 0))
hIsland = hIsland.add(rect(4.9459982128993485e-09, 4.2717658967510773e-10).transl(-4.0960505762979356e-08, 4e-08, 0))
hIsland = hIsland.add(rect(5.5006572542437234e-09, 1.0753707299232361e-09).transl(-6.851733178032348e-09, 4e-08, 0))
hIsland = hIsland.sub(rect(5.665900051504795e-09, -1.3047856270068335e-09).transl(-6.063811665341444e-08, 3.750699616749528e-08, 0))
hIsland = hIsland.sub(rect(9.407913657781628e-09, -2.0000320408087655e-10).transl(4.533377852847237e-08, 3.999889965789207e-08, 0))
hIsland = hIsland.add(rect(9.408772980081817e-09, 2.7485105625546332e-09).transl(-2.5768821642033103e-08, 4e-08, 0))
hIsland = hIsland.add(rect(6.620864546182864e-09, 4.181492451671797e-09).transl(-7.305571371716312e-08, 3.1274200186261185e-08, 0))
hIsland = hIsland.add(rect(2.500816225557776e-09, 2.8454338684828244e-09).transl(1.3440022048595809e-08, 4e-08, 0))
hIsland = hIsland.add(rect(7.2412479578808224e-09, 6.135740804179824e-11).transl(-7.601007508066324e-08, 2.8986164341848434e-08, 0))
hIsland = hIsland.sub(rect(2.23970600116827e-09, -8.347688829953766e-10).transl(-8.971365691254118e-08, 4.505262591494371e-09, 0))
hIsland = hIsland.sub(rect(6.288134080897063e-09, -1.1334326393356191e-09).transl(-3.05787885599045e-08, 4e-08, 0))
hIsland = hIsland.sub(rect(3.2073807941951575e-09, -1.6651190428734718e-09).transl(8.889388400739923e-08, 8.814217325308244e-09, 0))
hIsland = hIsland.add(rect(5.676980673350156e-09, 9.71171374660935e-10).transl(7.906830167985213e-09, 4e-08, 0))
hIsland = hIsland.add(rect(5.099711189851154e-09, 1.8037474918818548e-09).transl(-2.883101150221146e-08, 4e-08, 0))
hIsland = hIsland.add(rect(2.68241617387635e-09, 1.8322187037709072e-09).transl(3.778252402203028e-08, 4e-08, 0))
hIsland = hIsland.add(rect(5.135482716717578e-09, 3.737175773336013e-09).transl(4.776022647824131e-08, 3.992468118513125e-08, 0))
hIsland = hIsland.add(rect(6.0395912697910086e-09, 6.760445261626194e-10).transl(-7.576834448287368e-08, 2.918899136684754e-08, 0))
hIsland = hIsland.add(rect(8.011444223531043e-09, 5.295973273596105e-09).transl(-2.6662903099319984e-08, 4e-08, 0))
hIsland = hIsland.add(rect(6.067616107694513e-09, 1.4935558963667606e-09).transl(-5.224281890133069e-08, 3.9478492466120744e-08, 0))
hIsland = hIsland.sub(rect(4.645674252567388e-09, -1.1532073839488299e-09).transl(-7.857050041991016e-08, 2.6637339452015957e-08, 0))
hIsland = hIsland.sub(rect(8.79196320882831e-09, -3.4134193205233475e-09).transl(1.5100332059754875e-08, 4e-08, 0))
hIsland = hIsland.add(rect(8.866050478930912e-09, 3.554325794528396e-10).transl(2.3597784981870806e-08, 4e-08, 0))
hIsland = hIsland.sub(rect(7.208727389516601e-09, -6.933063369268343e-10).transl(-6.474835902375375e-08, 3.594236611123719e-08, 0))
hIsland = hIsland.add(rect(2.4345502767088895e-09, 8.828297566823258e-10).transl(3.743851942562005e-08, 4e-08, 0))
hIsland = hIsland.add(rect(2.895669653618131e-09, 3.051935789156823e-10).transl(1.559087240034677e-09, 4e-08, 0))
hIsland = hIsland.add(rect(2.687322932410367e-09, 1.5379389593850848e-09).transl(-3.9856917113057154e-08, 4e-08, 0))
hIsland = hIsland.sub(rect(6.9864307297529054e-09, -8.579877317449067e-10).transl(-8.946913175906993e-08, 6.12600661221662e-09, 0))
hIsland = hIsland.add(rect(7.4060441996699064e-09, 1.3158733416678785e-09).transl(5.284708345271948e-09, 4e-08, 0))
hIsland = hIsland.sub(rect(3.2500744496566575e-09, -1.8233275318765166e-09).transl(-8.931574205481217e-08, 6.94898553072706e-09, 0))
hIsland = hIsland.add(rect(3.2071386738189463e-09, 3.2711152377534586e-09).transl(-3.419670291860795e-08, 4e-08, 0))
hIsland = hIsland.sub(rect(8.061149824451846e-09, -5.814276021399117e-10).transl(3.294384201343965e-08, 4e-08, 0))
hIsland = hIsland.add(rect(8.885981124726445e-09, 2.817384175137801e-09).transl(-3.3628636679402605e-08, 4e-08, 0))
hIsland = hIsland.add(rect(8.06929734071254e-09, 3.6560093633973827e-09).transl(8.404663080365503e-10, 4e-08, 0))
hIsland = hIsland.add(rect(7.1030133265336695e-09, 5.557304313107001e-10).transl(5.8943714623960305e-08, 3.8031283523020106e-08, 0))
hIsland = hIsland.add(rect(8.826907975711802e-09, 2.77801964011014e-09).transl(8.995078095929597e-08, 1.870322589067737e-09, 0))
hIsland = hIsland.sub(rect(8.498475701656041e-09, -1.9855413162296924e-09).transl(6.52676115815767e-09, 4e-08, 0))
hIsland = hIsland.sub(rect(2.43606039606618e-09, -1.7369744705585414e-09).transl(8.279915178135922e-08, 2.1704623156330912e-08, 0))
hIsland = hIsland.sub(rect(3.476039997869701e-09, -7.964579774085754e-10).transl(-8.122118055958775e-08, 2.3735598374974e-08, 0))
hIsland = hIsland.sub(rect(3.6107796975506505e-09, -5.877679431716174e-09).transl(2.8913634445863717e-08, 4e-08, 0))
hIsland = hIsland.add(rect(9.000271540432305e-09, 1.8702849856599014e-10).transl(-1.2519965173446673e-08, 4e-08, 0))
hIsland = hIsland.add(rect(9.71131316121208e-09, 3.6129676570223865e-10).transl(-4.886111068332157e-08, 3.98524867564683e-08, 0))
hIsland = hIsland.sub(rect(5.733270593114791e-09, -3.361579153738388e-10).transl(-7.158287180240704e-08, 3.227475780692611e-08, 0))
hIsland = hIsland.sub(rect(2.8308063190855616e-09, -5.691813575921485e-10).transl(-4.3606252057349796e-08, 4e-08, 0))
hIsland = hIsland.add(rect(2.3931682437091547e-09, 2.110081416990424e-09).transl(7.448714850446421e-08, 3.0215791120661505e-08, 0))
hIsland = hIsland.add(rect(4.694277192786148e-09, 1.6872227545832437e-09).transl(-4.991750508502347e-08, 3.976044954649374e-08, 0))
hIsland = hIsland.add(rect(2.6657525595656984e-09, 5.851819156157442e-09).transl(-8.764429751350691e-08, 1.2772312325373819e-08, 0))
hIsland = hIsland.add(rect(7.18721978108553e-09, 2.7908779193188267e-09).transl(-7.232201108005961e-09, 4e-08, 0))
hIsland = hIsland.sub(rect(4.789671378419766e-09, -1.952131485841987e-09).transl(-8.708653702761935e-08, 1.415884213785513e-08, 0))
hIsland = hIsland.sub(rect(8.492543714291923e-09, -4.30225410619619e-09).transl(1.8251380380208233e-08, 4e-08, 0))
hIsland = hIsland.sub(rect(9.773845249667553e-09, -4.364016403960333e-09).transl(-6.423085404243492e-08, 3.616340694972214e-08, 0))
hIsland = hIsland.sub(rect(9.760888757686353e-09, -4.578595947083245e-09).transl(-7.284193474411356e-08, 3.142478907893298e-08, 0))
hIsland = hIsland.add(rect(7.609849723432616e-09, 9.464712949885512e-10).transl(-4.089140920367959e-08, 4e-08, 0))
hIsland = hIsland.add(rect(7.164006962712815e-09, 1.8565741143534392e-09).transl(2.558186848023623e-08, 4e-08, 0))
hIsland = hIsland.sub(rect(4.360833982410004e-09, -1.0827061657674376e-10).transl(5.957781766613273e-08, 3.784294752274557e-08, 0))
hIsland = hIsland.sub(rect(4.350998356877456e-09, -1.2904746531909442e-09).transl(7.723434782224689e-08, 2.7910924563770197e-08, 0))
hIsland = hIsland.add(rect(2.644493353631588e-09, 1.4682923330146547e-10).transl(-2.0655253707945333e-08, 4e-08, 0))
hIsland = hIsland.add(rect(3.880271173384142e-09, 3.679640485034273e-10).transl(2.24298284191257e-08, 4e-08, 0))
hIsland = hIsland.sub(rect(2.8883148254307632e-09, -3.4254377627802067e-10).transl(1.1544968168230582e-08, 4e-08, 0))
hIsland = hIsland.sub(rect(2.30950661865368e-09, -2.109664259886815e-09).transl(1.8060853518399293e-08, 4e-08, 0))
hIsland = hIsland.sub(rect(9.980650266135865e-09, -4.5813382890281776e-10).transl(3.631189861644161e-08, 4e-08, 0))
hIsland = hIsland.sub(rect(8.115670575305867e-09, -3.6306048190987546e-10).transl(7.885865568095477e-09, 4e-08, 0))
hIsland = hIsland.add(rect(9.681943540657749e-09, 1.3014011764514843e-09).transl(3.032504567247421e-08, 4e-08, 0))
hIsland = hIsland.sub(rect(7.985869486115516e-09, -3.467041015593798e-10).transl(5.737670170594203e-08, 3.8457336360008993e-08, 0))
hIsland = hIsland.add(rect(6.047657766988654e-09, 1.9700778533245597e-09).transl(-2.2164350746216993e-08, 4e-08, 0))
hIsland = hIsland.add(rect(2.0735732311489034e-09, 2.3152763392264886e-09).transl(8.445812186091642e-08, 1.923076997790181e-08, 0))
hIsland = hIsland.sub(rect(5.527891750089584e-09, -6.014808350941192e-10).transl(5.488514995340365e-08, 3.9022969472964005e-08, 0))
hIsland = hIsland.sub(rect(3.9597422504093784e-09, -3.2834303395886306e-09).transl(6.525908052195347e-08, 3.57170737623782e-08, 0))
hIsland = hIsland.sub(rect(6.754674171499438e-09, -4.6373324613363545e-09).transl(2.4228004116297873e-08, 4e-08, 0))
hIsland = hIsland.add(rect(6.605265075184119e-09, 7.880045475045108e-10).transl(-2.613081217936381e-08, 4e-08, 0))
hIsland = hIsland.add(rect(3.4452497223034063e-09, 2.0182660162980147e-09).transl(-4.25646350455454e-08, 4e-08, 0))
hIsland = hIsland.add(rect(6.266300257686359e-09, 6.66719329764674e-10).transl(-7.774379589106508e-08, 2.7438372059030653e-08, 0))
hIsland = hIsland.sub(rect(8.532843711416887e-09, -3.882590187810214e-10).transl(-2.700847766656634e-09, 4e-08, 0))
hIsland = hIsland.add(rect(5.390159093934991e-09, 1.4291909767775185e-09).transl(3.4831700995847214e-08, 4e-08, 0))
hIsland = hIsland.add(rect(8.119025961076234e-09, 3.757458402465671e-10).transl(-5.5942615146365116e-08, 3.87993552066422e-08, 0))
hIsland = hIsland.add(rect(6.5268732340810725e-09, 4.838726897943343e-10).transl(6.544489746991203e-08, 3.56333168271566e-08, 0))
hIsland = hIsland.sub(rect(3.513549420721504e-09, -9.349490776153742e-10).transl(-8.737459567500798e-08, 1.3462885905054695e-08, 0))
hIsland = hIsland.sub(rect(5.3176807484330776e-09, -1.808271520023698e-09).transl(-6.074541502297363e-09, 4e-08, 0))
hIsland = hIsland.add(rect(3.058894841366904e-09, 6.974433519215691e-10).transl(-3.1469876657943704e-08, 4e-08, 0))
hIsland = hIsland.sub(rect(3.865087599777943e-09, -2.9550157993716954e-12).transl(5.448162559617251e-08, 3.910200677927066e-08, 0))
hIsland = hIsland.sub(rect(3.857660859387492e-09, -1.6034507758400093e-09).transl(-1.6515443459207588e-09, 4e-08, 0))
hIsland = hIsland.sub(rect(4.8391639584983706e-09, -2.0526657745389556e-09).transl(8.082746869694058e-08, 2.42031319147902e-08, 0))
hIsland = hIsland.add(rect(7.2066664023924164e-09, 9.321556910323885e-10).transl(8.059295100128748e-08, 2.447500052264889e-08, 0))
hIsland = hIsland.sub(rect(5.146938606913112e-09, -1.7610975225111005e-09).transl(-8.039101768020795e-08, 2.4705288963354226e-08, 0))
hIsland = hIsland.sub(rect(9.665853317940187e-09, -2.1273289107302557e-10).transl(-2.8056231315379656e-08, 4e-08, 0))
hIsland = hIsland.add(rect(7.199729878577632e-09, 1.3673444344387891e-09).transl(-8.482127826133676e-08, 1.8629927817240895e-08, 0))
hIsland = hIsland.sub(rect(9.026219684848223e-09, -3.613320534665803e-09).transl(-8.033752698532638e-08, 2.476571403878612e-08, 0))
hIsland = hIsland.add(rect(4.264602705088302e-09, 8.663231537152084e-10).transl(-2.9738077968615765e-08, 4e-08, 0))
hIsland = hIsland.sub(rect(9.31162187865166e-09, -4.211324123864112e-09).transl(3.9979689198219317e-08, 4e-08, 0))
hIsland = hIsland.sub(rect(5.308562006423766e-09, -2.9374819373090417e-09).transl(1.5435295548663147e-08, 4e-08, 0))
hIsland = hIsland.add(rect(8.927514247605488e-09, 5.015928146716789e-10).transl(-5.649060052139547e-08, 3.867398244618809e-08, 0))
hIsland = hIsland.add(rect(6.253328222315989e-09, 4.850975181584481e-10).transl(3.381092154151297e-08, 4e-08, 0))
hIsland = hIsland.add(rect(9.793294409487029e-09, 7.620920945919003e-10).transl(-5.515108698397522e-08, 3.8968988574930984e-08, 0))
hIsland = hIsland.add(rect(4.7786190908583815e-09, 3.408095930277698e-09).transl(-3.6860751636120696e-08, 4e-08, 0))
hIsland = hIsland.add(rect(3.9644086428317185e-09, 7.15674114565913e-10).transl(1.1779692223138824e-08, 4e-08, 0))
hIsland = hIsland.sub(rect(7.528055412180732e-09, -1.8023268989342745e-09).transl(1.2577900504608288e-08, 4e-08, 0))
hIsland = hIsland.sub(rect(8.765373829531014e-09, -1.836162406571778e-09).transl(6.057887823202142e-08, 3.752646924177067e-08, 0))
hIsland = hIsland.sub(rect(7.776313870660819e-09, -6.618564260108753e-10).transl(-7.191179975982262e-08, 3.2058650371687405e-08, 0))
hIsland = hIsland.sub(rect(2.2439443367363493e-09, -6.129828856264997e-10).transl(8.413649551242248e-09, 4e-08, 0))
hIsland = hIsland.sub(rect(4.928024124179424e-09, -1.1861089598976398e-09).transl(-7.003299362011439e-09, 4e-08, 0))
hIsland = hIsland.add(rect(2.86587843582923e-09, 3.8362844016096757e-10).transl(2.995638343179002e-08, 4e-08, 0))
hIsland = hIsland.sub(rect(8.526332496668133e-09, -2.7868849698385333e-10).transl(-5.4639663629177734e-08, 3.907146359240196e-08, 0))
hIsland = hIsland.sub(rect(4.621665745928024e-09, -5.81521756348181e-10).transl(-5.779654868834169e-08, 3.834861110474194e-08, 0))
hIsland = hIsland.add(rect(2.7078730458761893e-09, 1.1264730188060398e-09).transl(-3.461957099957838e-08, 4e-08, 0))
hIsland = hIsland.sub(rect(5.433278460652134e-09, -9.192269414203161e-10).transl(5.863126696620911e-09, 4e-08, 0))
hIsland = hIsland.sub(rect(3.974772389789875e-09, -1.5958845055283188e-09).transl(1.4450110117643045e-08, 4e-08, 0))
hIsland = hIsland.add(rect(5.95425081202886e-09, 3.599889177826659e-09).transl(-2.1439005758946248e-08, 4e-08, 0))
hIsland = hIsland.sub(rect(3.1052932235961636e-09, -3.0024983157006965e-10).transl(5.677916138190991e-08, 3.860532920048303e-08, 0))
hIsland = hIsland.sub(rect(5.305567376794132e-09, -2.240455273244554e-09).transl(1.5591662983941308e-08, 4e-08, 0))
hIsland = hIsland.add(rect(8.684407808595276e-09, 8.283430198694903e-10).transl(-4.4348332204820224e-08, 4e-08, 0))
hIsland = hIsland.sub(rect(2.3485265764582525e-09, -3.8695558725943687e-10).transl(8.859317535945797e-08, 9.923562167263508e-09, 0))
hIsland = hIsland.sub(rect(6.4933074991413876e-09, -1.0398229424453044e-09).transl(3.824284258096202e-08, 4e-08, 0))
hIsland = hIsland.add(rect(6.33248304341125e-09, 7.402096632375472e-10).transl(-5.3107598864580226e-08, 3.934542780183585e-08, 0))
hIsland = hIsland.sub(rect(8.663341781071174e-09, -1.1756473599033224e-09).transl(-8.954759039566965e-08, 5.657705502873739e-09, 0))
hIsland = hIsland.sub(rect(6.843202547198637e-09, -1.5494748613192813e-09).transl(7.279651883477245e-08, 3.145653999848143e-08, 0))
hIsland = hIsland.add(rect(4.9781760825703945e-09, 3.189083490569535e-09).transl(-3.500053859436087e-08, 4e-08, 0))
hIsland = hIsland.add(rect(5.608342537842327e-09, 1.3582681151041365e-09).transl(-6.72883172869173e-08, 3.4748972522536736e-08, 0))
hIsland = hIsland.add(rect(3.8073199680113094e-09, 6.561176909745e-10).transl(6.476597960521369e-08, 3.5934712269247426e-08, 0))
hIsland = hIsland.add(rect(9.509817548277209e-09, 1.369471870913688e-09).transl(7.478575550409274e-08, 2.9983485417279714e-08, 0))
hIsland = hIsland.add(rect(2.061020523039753e-09, 1.4947845190288252e-09).transl(-3.384276704171729e-08, 4e-08, 0))
hIsland = hIsland.sub(rect(3.9350499395288715e-09, -4.180552349243143e-09).transl(-2.4973802550806566e-08, 4e-08, 0))
hIsland = hIsland.sub(rect(3.467972789634508e-09, -1.1551913109763832e-09).transl(-9.201196791455701e-09, 4e-08, 0))
hIsland = hIsland.add(rect(8.586452248961826e-09, 8.873163559904396e-10).transl(-4.525637210417216e-08, 3.999935084257641e-08, 0))
hIsland = hIsland.sub(rect(5.26719580751652e-09, -7.646870883644357e-10).transl(6.345225409398797e-08, 3.648252015175126e-08, 0))
hIsland = hIsland.add(rect(6.9675224442481036e-09, 1.222517937628522e-09).transl(7.259448603723325e-08, 3.1596772335125934e-08, 0))
hIsland = hIsland.sub(rect(4.833104774341554e-09, -6.595154046371907e-11).transl(-1.2223030303206183e-08, 4e-08, 0))
hIsland = hIsland.sub(rect(2.2574632854748276e-09, -2.6331390367291213e-10).transl(-9.349863765362554e-09, 4e-08, 0))
hIsland = hIsland.add(rect(9.423754707442472e-09, 4.980550543440267e-12).transl(3.0877496517888906e-08, 4e-08, 0))
hIsland = hIsland.add(rect(5.981840706916534e-09, 1.483086903709903e-09).transl(7.176143925469506e-08, 3.215794808290062e-08, 0))
hIsland = hIsland.add(rect(9.518824639758584e-09, 2.0126786212664984e-10).transl(-8.998929269893393e-08, 8.725350944701898e-10, 0))
hIsland = hIsland.add(rect(7.146914953006338e-09, 1.783239760310721e-09).transl(-1.7801777714260825e-08, 4e-08, 0))
hIsland = hIsland.add(rect(6.7274728911172e-09, 1.7743360954081166e-09).transl(-4.941420636513359e-08, 3.98070882171593e-08, 0))
hIsland = hIsland.sub(rect(5.8050538172973974e-09, -1.560246848876138e-09).transl(5.1109852036697496e-08, 3.962959072098551e-08, 0))
hIsland = hIsland.sub(rect(2.9804426387343838e-09, -5.4592607042250275e-09).transl(-4.3388755633755805e-08, 4e-08, 0))
hIsland = hIsland.sub(rect(5.8894150014542304e-09, -1.353726549989505e-09).transl(-8.037431223815239e-08, 2.4724185728611494e-08, 0))
hIsland = hIsland.sub(rect(8.316930231490986e-09, -1.5013247516758174e-10).transl(-5.681813785851077e-09, 4e-08, 0))
hIsland = hIsland.add(rect(5.3396071435952926e-09, 2.4015117122988167e-09).transl(-6.638873613002958e-08, 3.5192838404579395e-08, 0))
hIsland = hIsland.add(rect(2.7985329924085846e-09, 4.113815600930874e-10).transl(1.6732045940781427e-08, 4e-08, 0))
hIsland = hIsland.add(rect(9.384842880524179e-09, 1.0479035828231754e-09).transl(6.350589004412106e-08, 3.6461048073352603e-08, 0))
hIsland = hIsland.add(rect(3.4704764800270126e-09, 2.7020576385436442e-09).transl(-3.5016849913098748e-09, 4e-08, 0))
hIsland = hIsland.sub(rect(9.866892029699866e-09, -2.6537760704204654e-09).transl(-2.8972106923184945e-08, 4e-08, 0))
hIsland = hIsland.sub(rect(2.843098131400918e-09, -1.7956968324903543e-09).transl(3.019523844615391e-08, 4e-08, 0))
hIsland = hIsland.add(rect(6.009442051722759e-09, 4.143439558050377e-09).transl(4.554706471198535e-08, 3.9997044040911173e-08, 0))
hIsland = hIsland.add(rect(6.355307147540242e-09, 2.0898016225433905e-10).transl(-5.855793823209576e-09, 4e-08, 0))
hIsland = hIsland.sub(rect(9.621522449940649e-09, -3.645064058231809e-10).transl(2.9553418206915545e-08, 4e-08, 0))
hIsland = hIsland.sub(rect(6.0224534336499065e-09, -9.069685444857887e-10).transl(-1.6160346067347555e-08, 4e-08, 0))
hIsland = hIsland.add(rect(4.289695326801113e-09, 4.919566548236219e-09).transl(-6.146493297856502e-08, 3.722636508432825e-08, 0))
hIsland = hIsland.sub(rect(5.954907339882688e-09, -3.780082097061442e-11).transl(-3.9421944279921045e-08, 4e-08, 0))
hIsland = hIsland.sub(rect(3.677779023550291e-09, -1.5459560048836192e-09).transl(4.8585531831264134e-08, 3.987282461037185e-08, 0))
hIsland = hIsland.add(rect(6.776290759829299e-09, 5.236277991830119e-10).transl(6.897854508929751e-08, 3.38482233291304e-08, 0))
hIsland = hIsland.sub(rect(9.130500189379046e-09, -2.9745236270891353e-09).transl(-6.666960269318913e-08, 3.505681674499008e-08, 0))
hIsland = hIsland.add(rect(8.56813700132373e-09, 2.1530891278345724e-09).transl(8.116606175418737e-08, 2.380191468081787e-08, 0))
hIsland = hIsland.add(rect(5.5472342518333e-09, 7.829133895220233e-10).transl(-8.744022102494855e-08, 1.3298551354609011e-08, 0))
hIsland = hIsland.sub(rect(5.2047973660393365e-09, -1.8686821892959248e-09).transl(-3.5043788531179296e-08, 4e-08, 0))
hIsland = hIsland.sub(rect(7.79057113793882e-09, -1.0124670514585252e-09).transl(-4.501846767572709e-08, 3.999999663155495e-08, 0))
hIsland = hIsland.sub(rect(4.202285678674434e-09, -6.435653466628362e-10).transl(-3.520201028776115e-08, 4e-08, 0))
hIsland = hIsland.sub(rect(8.610385888617136e-09, -1.6705361869588753e-09).transl(-1.043546154732882e-09, 4e-08, 0))
hIsland = hIsland.sub(rect(4.286012782520182e-09, -6.944410306173653e-10).transl(-9.617339329092878e-09, 4e-08, 0))
hIsland = hIsland.add(rect(6.650387138989108e-09, 2.859635621329597e-09).transl(1.8158562349973377e-08, 4e-08, 0))
hIsland = hIsland.sub(rect(3.4104749344353866e-09, -2.889528143547783e-09).transl(-2.326079401268889e-08, 4e-08, 0))
hIsland = hIsland.sub(rect(8.425382682624559e-09, -3.220149381554843e-09).transl(-4.137121423433157e-08, 4e-08, 0))
hIsland = hIsland.add(rect(7.055822347814923e-09, 1.0279770299599922e-09).transl(-6.853251003821488e-08, 3.409466526521003e-08, 0))
hIsland = hIsland.sub(rect(6.993684011140944e-09, -1.3851004952164117e-09).transl(6.241554126072481e-08, 3.6882986650668306e-08, 0))
hIsland = hIsland.add(rect(4.3611542969031215e-09, 6.556914222088627e-10).transl(6.616912381998172e-09, 4e-08, 0))
hIsland = hIsland.sub(rect(2.986857298695375e-09, -9.915952607329777e-10).transl(7.065904931870445e-08, 3.286020596778374e-08, 0))
hIsland = hIsland.add(rect(9.468738713786774e-09, 2.6963772135562553e-09).transl(7.401027971944553e-08, 3.057834199220454e-08, 0))
hIsland = hIsland.sub(rect(9.40046431445191e-09, -8.678515328472774e-10).transl(-8.172368066592384e-08, 2.311745687832651e-08, 0))
hIsland = hIsland.sub(rect(4.984161172345022e-09, -4.587108069694403e-09).transl(7.66405901796914e-09, 4e-08, 0))
hIsland = hIsland.add(rect(7.988088018535442e-09, 1.3192917285795422e-09).transl(-7.28558398413469e-08, 3.141505103438357e-08, 0))
hIsland = hIsland.add(rect(7.680288889317587e-09, 6.967320726724251e-09).transl(5.7215878525110884e-08, 3.8497944142483965e-08, 0))
hIsland = hIsland.add(rect(3.941247378406271e-09, 3.6251623118323292e-09).transl(-2.1437667433914868e-08, 4e-08, 0))
hIsland = hIsland.sub(rect(9.982804832602331e-09, -1.6000325778889282e-09).transl(-7.297967914563265e-08, 3.1327975017423424e-08, 0))
hIsland = hIsland.sub(rect(6.342356456765279e-09, -4.1478993638619583e-10).transl(-4.15806442558188e-08, 4e-08, 0))
hIsland = hIsland.sub(rect(4.294589398492966e-09, -1.9298318489326586e-09).transl(-1.4932046269078676e-08, 4e-08, 0))
hIsland = hIsland.sub(rect(8.987502008311068e-09, -1.3069021890720255e-09).transl(-4.19222054831984e-08, 4e-08, 0))
hIsland = hIsland.add(rect(8.482529574902369e-09, 2.5505378215267525e-09).transl(-3.501480129580424e-08, 4e-08, 0))
hIsland = hIsland.sub(rect(5.1149305297632455e-09, -2.68868131712222e-10).transl(-7.364212425041554e-08, 3.085134368467014e-08, 0))
hIsland = hIsland.add(rect(3.3542735089993815e-09, 1.9825248003196612e-09).transl(-1.7784222049647546e-08, 4e-08, 0))
hIsland = hIsland.sub(rect(8.71952062647146e-09, -3.9141293887151297e-10).transl(-4.52375190167226e-08, 3.999944280813596e-08, 0))
hIsland = hIsland.add(rect(6.192951954201824e-09, 1.0948915605252008e-09).transl(6.972931346345511e-08, 3.341868841396342e-08, 0))
hIsland = hIsland.add(rect(8.132308334598406e-09, 4.266625244393782e-09).transl(1.503016620166567e-08, 4e-08, 0))
hIsland = hIsland.add(rect(3.9959762717928555e-09, 4.097240941306756e-10).transl(-5.5866340750476824e-08, 3.881628919817894e-08, 0))
hIsland = hIsland.sub(rect(9.26867435289581e-09, -3.720683663263991e-10).transl(-5.761837664468727e-08, 3.83952319143959e-08, 0))
hIsland = hIsland.sub(rect(7.846851903362424e-09, -1.2340616426101672e-09).transl(6.069705012317429e-08, 3.748753990781725e-08, 0))
hIsland = hIsland.add(rect(2.6322829348189416e-09, 3.714112753879616e-10).transl(-8.70069770913722e-08, 1.4344305895395818e-08, 0))
hIsland = hIsland.sub(rect(9.601071076496822e-09, -6.496391533476788e-10).transl(5.964838840562707e-08, 3.7821409753570385e-08, 0))
hIsland = hIsland.sub(rect(9.085464071680362e-09, -4.2988759863613025e-10).transl(-3.4915293580543236e-08, 4e-08, 0))
vIsland = hIsland.rotz(pi / 2)
hIslands = hIslands.add(hIsland.transl(-a/2, a, 0))
hIsland = rect(islandLength-2*ellipseConstant, islandWidth)
hIsland = hIsland.add(ellipse(ellipseConstant*2, islandWidth).transl(islandLength/2-ellipseConstant, 0, 0))
hIsland = hIsland.add(ellipse(ellipseConstant*2, islandWidth).transl(-islandLength/2+ellipseConstant, 0, 0))
hIsland = hIsland.sub(rect(9.988585445234904e-09, -2.6581829625281857e-10).transl(-7.031126384619509e-08, -3.307263891715972e-08, 0))
hIsland = hIsland.add(rect(6.539923582655606e-09, 6.275081197683275e-10).transl(4.883424949729424e-08, -3.9854535806227574e-08, 0))
hIsland = hIsland.sub(rect(8.129285059558145e-09, -2.813774057977136e-09).transl(-7.591303002976764e-08, -2.906795205283856e-08, 0))
hIsland = hIsland.add(rect(8.268649086718636e-09, 1.912896771595135e-09).transl(8.016937760248543e-08, -2.495411895029989e-08, 0))
hIsland = hIsland.sub(rect(7.2961113069411574e-09, -2.0876512125402404e-09).transl(1.355228022342336e-08, -4e-08, 0))
hIsland = hIsland.add(rect(4.377960229857414e-09, 4.116826846200164e-10).transl(6.530600774232135e-08, -3.569601201441642e-08, 0))
hIsland = hIsland.sub(rect(6.96530030417226e-09, -1.6721220981372081e-09).transl(7.792400040967794e-08, -2.7267457339234702e-08, 0))
hIsland = hIsland.sub(rect(4.520879348614106e-09, -1.1352998098415527e-09).transl(2.8000436635003917e-08, -4e-08, 0))
hIsland = hIsland.add(rect(7.808483115077573e-09, 2.7939031390473088e-09).transl(2.7926253187273822e-08, -4e-08, 0))
hIsland = hIsland.add(rect(5.853040432490778e-09, 2.413578974989202e-09).transl(7.268933812673723e-08, -3.153113990151579e-08, 0))
hIsland = hIsland.add(rect(8.900246002581307e-09, 1.6052716913667158e-09).transl(1.7677686918260272e-08, -4e-08, 0))
hIsland = hIsland.sub(rect(3.0499155247607582e-09, -2.7959551163504826e-09).transl(3.81712550374446e-09, -4e-08, 0))
hIsland = hIsland.add(rect(8.971587043115967e-09, 1.1734761751020236e-09).transl(1.4569181415332121e-08, -4e-08, 0))
hIsland = hIsland.sub(rect(2.1336411466401665e-09, -2.484724228279672e-09).transl(6.875575619330496e-08, -3.397211984209016e-08, 0))
hIsland = hIsland.add(rect(5.780635373364509e-09, 2.8466545434886e-09).transl(-2.5874282961070873e-08, -4e-08, 0))
hIsland = hIsland.add(rect(5.130216189874575e-09, 9.342560846245471e-10).transl(-3.1944529787312087e-08, -4e-08, 0))
hIsland = hIsland.add(rect(8.304029465753949e-09, 4.245653086684656e-10).transl(-6.405337241405461e-08, -3.6237559121477023e-08, 0))
hIsland = hIsland.sub(rect(2.3331365472112662e-09, -3.313540200512851e-09).transl(-6.8043669679002244e-09, -4e-08, 0))
hIsland = hIsland.add(rect(4.1368842533278274e-09, 3.1979635647273584e-09).transl(-3.6836818281486666e-08, -4e-08, 0))
hIsland = hIsland.add(rect(8.869986043663552e-09, 5.321943651133396e-10).transl(-8.261026570002087e-08, -2.1962354574326996e-08, 0))
hIsland = hIsland.sub(rect(5.821713358721322e-09, -9.043855593985627e-10).transl(4.671520424666005e-08, -3.997093338376247e-08, 0))
hIsland = hIsland.add(rect(5.9121685852875764e-09, 1.2297110841672207e-09).transl(-1.9560256945008216e-08, -4e-08, 0))
hIsland = hIsland.sub(rect(9.972919098036958e-09, -3.382049244737149e-10).transl(-7.587525562370094e-09, -4e-08, 0))
hIsland = hIsland.add(rect(2.250660494987946e-09, 1.1837001481497785e-09).transl(-4.4407701654290385e-08, -4e-08, 0))
hIsland = hIsland.add(rect(5.0991144817654965e-09, 6.617590447078475e-10).transl(-3.282854094969668e-08, -4e-08, 0))
hIsland = hIsland.add(rect(5.594963010232468e-09, 2.9507252909789737e-09).transl(3.309934265181027e-08, -4e-08, 0))
hIsland = hIsland.sub(rect(5.099075977512641e-09, -1.0906459600187401e-09).transl(1.2515242260224212e-08, -4e-08, 0))
hIsland = hIsland.sub(rect(4.848795952169856e-09, -8.643774616461295e-10).transl(3.978134245801332e-08, -4e-08, 0))
hIsland = hIsland.add(rect(4.6163959809175e-09, 1.2404838984903597e-09).transl(-8.345996543281175e-09, -4e-08, 0))
hIsland = hIsland.sub(rect(5.351880263952348e-09, -1.0176912119192142e-09).transl(-3.7809944954827645e-08, -4e-08, 0))
hIsland = hIsland.add(rect(8.065546194550996e-09, 1.6027555231856515e-09).transl(-8.335383918179928e-08, -2.092163900794129e-08, 0))
hIsland = hIsland.add(rect(2.3887697243194782e-09, 3.4159399802352105e-09).transl(2.5664757126310338e-08, -4e-08, 0))
hIsland = hIsland.add(rect(7.192798518528007e-09, 1.4411314070459875e-09).transl(5.6317222143250317e-08, -3.871435611310877e-08, 0))
hIsland = hIsland.add(rect(8.654549175223733e-09, 3.1642880147506195e-09).transl(5.0868879971928526e-08, -3.9658355784200746e-08, 0))
hIsland = hIsland.sub(rect(9.457026810263063e-09, -2.457309026996288e-09).transl(-7.993942543642395e-08, -2.520805750349114e-08, 0))
hIsland = hIsland.sub(rect(7.014950527211461e-09, -4.769993906576097e-10).transl(2.6119261083538576e-08, -4e-08, 0))
hIsland = hIsland.add(rect(4.307573079430485e-09, 5.665483690393256e-10).transl(3.552695068420569e-08, -4e-08, 0))
hIsland = hIsland.sub(rect(4.660682920543136e-09, -1.8152843721054941e-09).transl(4.993266364412787e-08, -3.975896592414289e-08, 0))
hIsland = hIsland.sub(rect(8.403752628779788e-09, -8.481462455802908e-10).transl(4.3331003586338563e-08, -4e-08, 0))
hIsland = hIsland.sub(rect(7.536176963864826e-09, -1.5413817766928858e-10).transl(-8.548154159767804e-08, -1.7469432404734154e-08, 0))
hIsland = hIsland.sub(rect(4.541761124284138e-09, -1.31189971335317e-10).transl(-4.531079362442829e-08, -3.999904598687523e-08, 0))
hIsland = hIsland.sub(rect(6.573543150159313e-09, -1.6041442596138867e-09).transl(1.8483567300765107e-08, -4e-08, 0))
hIsland = hIsland.sub(rect(6.161717862841575e-09, -3.4190781938572807e-09).transl(1.1675623747442189e-08, -4e-08, 0))
hIsland = hIsland.sub(rect(4.115290236312765e-09, -1.3337508008933062e-09).transl(-8.710564972178245e-08, -1.4113872317959187e-08, 0))
hIsland = hIsland.add(rect(5.614240949912986e-09, 1.476800026983892e-09).transl(2.9396579077860264e-08, -4e-08, 0))
hIsland = hIsland.add(rect(8.685028742588455e-09, 3.280977603653959e-09).transl(3.242929576796048e-08, -4e-08, 0))
hIsland = hIsland.add(rect(2.3333944431045047e-09, 7.64928187037026e-10).transl(2.1408570534158913e-08, -4e-08, 0))
hIsland = hIsland.sub(rect(3.438695304144371e-09, -2.6514730771743595e-09).transl(-6.527748570865007e-08, -3.5708820484765785e-08, 0))
hIsland = hIsland.add(rect(4.294667806795596e-09, 4.015295031492955e-09).transl(-4.246870159503791e-08, -4e-08, 0))
hIsland = hIsland.sub(rect(4.751964579472171e-09, -1.3610793438456307e-09).transl(5.199821737338743e-08, -3.9513335306423845e-08, 0))
hIsland = hIsland.add(rect(6.952811446454168e-09, 2.7318826362704925e-09).transl(-5.5486959491785565e-08, -3.889865203788638e-08, 0))
hIsland = hIsland.add(rect(3.025603650974592e-09, 2.2336617012242133e-09).transl(-7.918133537462496e-08, -2.601631111543756e-08, 0))
hIsland = hIsland.sub(rect(6.297952779023126e-09, -2.343073856975344e-09).transl(2.1504199780001856e-08, -4e-08, 0))
hIsland = hIsland.sub(rect(7.925987593677126e-09, -1.2519045788339267e-09).transl(-8.556011257026017e-08, -1.7324835940797958e-08, 0))
hIsland = hIsland.add(rect(4.499290645529891e-09, 1.4656779601705639e-09).transl(-7.290668359140795e-08, -3.13793768673935e-08, 0))
hIsland = hIsland.add(rect(5.985118020026496e-09, 5.324429936466173e-09).transl(-1.913620605305927e-08, -4e-08, 0))
hIsland = hIsland.add(rect(6.819914323251379e-09, 5.1719140063935625e-09).transl(8.687992597367963e-08, -1.4634896241561675e-08, 0))
hIsland = hIsland.add(rect(7.164993049867589e-09, 1.4460293545891416e-09).transl(-5.182516446290347e-08, -3.953724550055699e-08, 0))
hIsland = hIsland.sub(rect(8.024940109027937e-09, -3.697906488744303e-10).transl(2.0701465005371314e-09, -4e-08, 0))
hIsland = hIsland.sub(rect(3.5157129820899737e-09, -3.1826537805978992e-09).transl(1.4559643932478357e-08, -4e-08, 0))
hIsland = hIsland.add(rect(6.586401983641203e-09, 1.6632538291324713e-09).transl(-7.119808620446049e-08, -3.252240592711167e-08, 0))
hIsland = hIsland.add(rect(7.766945676544675e-09, 3.378663297263596e-09).transl(3.801859891155858e-08, -4e-08, 0))
hIsland = hIsland.add(rect(7.2704349749293654e-09, 1.124003326968545e-09).transl(-5.384973541517842e-08, -3.921886351958672e-08, 0))
hIsland = hIsland.add(rect(8.283154524531796e-09, 4.094006482919334e-09).transl(8.046476513427571e-08, -2.4621587380033456e-08, 0))
hIsland = hIsland.sub(rect(6.72247898203371e-09, -2.956933530050234e-09).transl(8.368834593691199e-08, -2.04292095635216e-08, 0))
hIsland = hIsland.sub(rect(2.4761381439300952e-09, -3.234274319976688e-09).transl(-4.252826801649566e-09, -4e-08, 0))
hIsland = hIsland.add(rect(4.005723968490265e-09, 9.554437101638446e-10).transl(8.738606967358884e-08, -1.3434316776814193e-08, 0))
hIsland = hIsland.add(rect(7.98736916355274e-09, 2.033984986838973e-09).transl(5.526154070021941e-08, -3.8946124559938114e-08, 0))
hIsland = hIsland.add(rect(9.414899010530128e-09, 2.5496686350653206e-09).transl(4.267705923254647e-09, -4e-08, 0))
hIsland = hIsland.add(rect(6.661067202417902e-09, 6.292817073954957e-10).transl(7.574137797996032e-09, -4e-08, 0))
hIsland = hIsland.sub(rect(2.288507187276876e-09, -1.4842865230833609e-09).transl(-3.9917820550136354e-08, -4e-08, 0))
hIsland = hIsland.sub(rect(4.954119200316009e-09, -2.705963412454767e-09).transl(-4.4080343619022387e-08, -4e-08, 0))
hIsland = hIsland.add(rect(9.949795055478075e-09, 3.227642513586809e-09).transl(-6.685105346153123e-08, -3.4967712374958424e-08, 0))
hIsland = hIsland.sub(rect(6.1324418734722956e-09, -3.6426311018966947e-09).transl(-8.113326680958413e-08, -2.384123668459316e-08, 0))
hIsland = hIsland.sub(rect(6.748975652493342e-09, -1.759551024614921e-09).transl(4.3956772817612047e-08, -4e-08, 0))
hIsland = hIsland.add(rect(5.160586099088096e-09, 2.7859257114378114e-09).transl(-1.5672440479889935e-08, -4e-08, 0))
hIsland = hIsland.sub(rect(8.877276675027605e-09, -2.7770203507011784e-09).transl(-5.965500161934622e-09, -4e-08, 0))
hIsland = hIsland.sub(rect(2.987769545646658e-09, -2.543471312034928e-09).transl(-7.462306744773399e-08, -3.011056334048052e-08, 0))
hIsland = hIsland.sub(rect(6.849223854516944e-09, -4.3769309087892196e-09).transl(1.2759635044990846e-08, -4e-08, 0))
hIsland = hIsland.sub(rect(7.546977464742809e-09, -1.214224895469062e-09).transl(2.2669331631625572e-08, -4e-08, 0))
hIsland = hIsland.add(rect(5.405070548885997e-09, 1.3143928577837407e-09).transl(8.89477910080003e-08, -8.599358713598302e-09, 0))
hIsland = hIsland.add(rect(7.45191257713965e-09, 7.629574917162547e-10).transl(4.9615812253122686e-08, -3.9789016684087034e-08, 0))
hIsland = hIsland.sub(rect(5.076168081432113e-09, -6.436001620795354e-10).transl(4.3504517719917905e-08, -4e-08, 0))
hIsland = hIsland.add(rect(8.903806093390249e-09, 6.161565333142407e-10).transl(8.971668389481868e-08, -4.481461970526567e-09, 0))
hIsland = hIsland.add(rect(9.101177641539209e-09, 4.270272185216338e-09).transl(-6.176684603057175e-08, -3.7119736846524654e-08, 0))
hIsland = hIsland.sub(rect(6.256205443719479e-09, -7.910992877411099e-10).transl(-5.423199306230554e-08, -3.91491764671031e-08, 0))
hIsland = hIsland.add(rect(6.426418261192496e-09, 5.187641784626962e-10).transl(-5.995909912418765e-08, -3.772519586007043e-08, 0))
hIsland = hIsland.sub(rect(3.0407698957843973e-09, -2.3730866530149012e-11).transl(5.441603754183623e-09, -4e-08, 0))
hIsland = hIsland.sub(rect(2.3083812703982026e-09, -7.138359131156838e-10).transl(8.855700565674489e-08, -1.0048269014968263e-08, 0))
hIsland = hIsland.sub(rect(4.516324414763751e-09, -3.153921785760289e-09).transl(5.4246599303755727e-08, -3.914645273244383e-08, 0))
hIsland = hIsland.add(rect(4.210227135003344e-09, 2.258396273865205e-09).transl(-5.0930583271250804e-08, -3.965110240119227e-08, 0))
hIsland = hIsland.sub(rect(9.538028876233395e-09, -6.1731593301533145e-09).transl(4.8362017356680335e-08, -3.988820762568596e-08, 0))
hIsland = hIsland.sub(rect(3.3275866162471365e-09, -1.2505212638219646e-09).transl(-5.0553008608492096e-08, -3.9694279543272563e-08, 0))
hIsland = hIsland.add(rect(4.846742674079407e-09, 1.3467300046182087e-09).transl(-4.4326176070824566e-08, -4e-08, 0))
hIsland = hIsland.add(rect(6.103869301569489e-09, 1.0377656625647698e-09).transl(4.314545124846912e-08, -4e-08, 0))
hIsland = hIsland.add(rect(3.809585463035836e-09, 2.088472281758576e-09).transl(5.520680454432225e-08, -3.895748759606721e-08, 0))
hIsland = hIsland.add(rect(2.3500458761180393e-09, 2.3046730864277126e-09).transl(1.683508284693543e-08, -4e-08, 0))
hIsland = hIsland.add(rect(4.633519229302417e-09, 2.083460970438239e-09).transl(6.96438956170954e-08, -3.346850706244018e-08, 0))
hIsland = hIsland.sub(rect(6.436313212047855e-09, -2.3750620674962556e-09).transl(-3.4771919921483304e-08, -4e-08, 0))
hIsland = hIsland.sub(rect(6.102022050583723e-09, -1.9761225644120422e-09).transl(-3.7835312939070364e-08, -4e-08, 0))
hIsland = hIsland.add(rect(5.9835600249027144e-09, 3.70385039863569e-10).transl(-7.173075289462619e-08, -3.2178107422331544e-08, 0))
hIsland = hIsland.sub(rect(2.194280921657051e-09, -1.1237174709043543e-09).transl(6.342765788683948e-08, -3.6492341694053264e-08, 0))
hIsland = hIsland.add(rect(8.09534522926347e-09, 1.6214324043718131e-09).transl(-4.542573650436173e-08, -3.999820982096646e-08, 0))
hIsland = hIsland.sub(rect(4.202500648220741e-09, -1.4126818219212561e-10).transl(4.385307726322391e-08, -4e-08, 0))
hIsland = hIsland.add(rect(8.149100291419076e-09, 1.6919010354505496e-09).transl(8.163931634112054e-08, -2.3222985600302137e-08, 0))
hIsland = hIsland.add(rect(2.006807890187557e-09, 7.87692908184298e-11).transl(-5.433741777373377e-08, -3.912941621451689e-08, 0))
hIsland = hIsland.sub(rect(7.447513777513046e-09, -1.678167121917036e-09).transl(-8.680386896739539e-08, -1.4805712327224034e-08, 0))
hIsland = hIsland.sub(rect(5.529779745102346e-09, -1.7258859645948234e-09).transl(7.579607121587664e-08, -2.9165878899555388e-08, 0))
hIsland = hIsland.add(rect(3.2635602086029823e-09, 1.4302227020363808e-09).transl(8.423092157760475e-08, -1.9594603281653705e-08, 0))
hIsland = hIsland.add(rect(8.887043937275618e-09, 3.108278625853082e-09).transl(6.794804981982039e-08, -3.440800377135405e-08, 0))
hIsland = hIsland.sub(rect(5.4341400311230105e-09, -1.4031656773188965e-09).transl(-6.318091237325441e-08, -3.6590001200771104e-08, 0))
hIsland = hIsland.sub(rect(5.0795638702719665e-09, -2.7678988780536836e-09).transl(-7.197764254919594e-08, -3.2014895329413994e-08, 0))
hIsland = hIsland.sub(rect(3.508559315809181e-09, -2.439059182523056e-10).transl(7.362884417635374e-08, -3.086108140653989e-08, 0))
hIsland = hIsland.sub(rect(8.119708730285593e-09, -2.7207525256676708e-11).transl(4.911677560596473e-08, -3.983226221263247e-08, 0))
hIsland = hIsland.sub(rect(7.86777401852796e-09, -3.807169867045653e-09).transl(1.60212135407977e-08, -4e-08, 0))
hIsland = hIsland.sub(rect(7.798746787227067e-09, -1.6734943907325372e-09).transl(5.228159381273835e-09, -4e-08, 0))
hIsland = hIsland.add(rect(7.327579421239005e-09, 8.874816470019257e-11).transl(-7.629953857510266e-08, -2.8739289714987803e-08, 0))
hIsland = hIsland.sub(rect(5.541982876104688e-09, -5.3948459222812544e-11).transl(7.545444826537237e-08, -2.9447945530743502e-08, 0))
hIsland = hIsland.sub(rect(5.926628382214654e-09, -1.1280257939218779e-09).transl(-8.096228572777868e-09, -4e-08, 0))
hIsland = hIsland.sub(rect(8.540018725698735e-09, -3.1125859190425053e-09).transl(5.309884013381971e-08, -3.9346853053632675e-08, 0))
hIsland = hIsland.add(rect(9.998876566195462e-09, 1.0716318367935442e-10).transl(-4.182001048569519e-08, -4e-08, 0))
hIsland = hIsland.add(rect(7.68611099915933e-09, 3.471019420572198e-09).transl(-5.162086792594217e-08, -3.9564684169195416e-08, 0))
hIsland = hIsland.add(rect(3.6641890699206007e-09, 2.4581376945303315e-09).transl(-8.529027142128928e-09, -4e-08, 0))
hIsland = hIsland.add(rect(3.052489487172659e-09, 2.677752726210879e-09).transl(-2.0739832265865218e-08, -4e-08, 0))
hIsland = hIsland.sub(rect(2.6925441815260724e-09, -4.026555472959896e-09).transl(1.4725208693803663e-08, -4e-08, 0))
hIsland = hIsland.add(rect(9.22414271051488e-09, 1.8328857882798321e-09).transl(-1.3992369513150756e-08, -4e-08, 0))
hIsland = hIsland.add(rect(5.455393668967014e-09, 2.0077405012773245e-09).transl(-3.0376481062680774e-08, -4e-08, 0))
hIsland = hIsland.add(rect(3.4198540909767354e-09, 4.1204735884934634e-10).transl(-8.206793722913124e-08, -2.267917789050966e-08, 0))
hIsland = hIsland.add(rect(7.846047546912337e-09, 8.782346115133557e-10).transl(-3.854840012699556e-08, -4e-08, 0))
hIsland = hIsland.sub(rect(7.192062201534652e-09, -1.6626793163408507e-09).transl(8.962500586875948e-08, -5.15316812255387e-09, 0))
hIsland = hIsland.add(rect(2.8872537388687036e-09, 6.121619052948599e-10).transl(2.9740646179925853e-08, -4e-08, 0))
hIsland = hIsland.add(rect(7.617525991292986e-09, 3.5607682084987485e-10).transl(-7.383960392546843e-08, -3.07056402320797e-08, 0))
hIsland = hIsland.sub(rect(9.864465747106231e-09, -2.911300083630997e-11).transl(-2.6342544230468745e-08, -4e-08, 0))
hIsland = hIsland.sub(rect(5.771473403955063e-09, -1.0372225317154729e-09).transl(7.921769723840558e-08, -2.59785164149462e-08, 0))
hIsland = hIsland.sub(rect(9.614568518530068e-09, -3.44011742338564e-09).transl(-7.887526177243402e-08, -2.6330723018853134e-08, 0))
hIsland = hIsland.add(rect(2.0830767891431556e-09, 1.6538626458935232e-09).transl(-3.306439282300967e-08, -4e-08, 0))
hIsland = hIsland.add(rect(5.900444388124066e-09, 3.673592367199711e-10).transl(5.8577086225658395e-08, -3.813595152494452e-08, 0))
hIsland = hIsland.sub(rect(5.517519267267641e-09, -5.5632693730730594e-11).transl(-2.2483900707473733e-08, -4e-08, 0))
hIsland = hIsland.add(rect(2.772802526806692e-09, 1.6169831674060666e-09).transl(8.431291982292599e-08, -1.946431918867121e-08, 0))
hIsland = hIsland.sub(rect(9.434413671001776e-09, -1.1024325710853732e-09).transl(1.925933498027374e-08, -4e-08, 0))
hIsland = hIsland.sub(rect(2.3102079865399266e-09, -2.284704571528495e-09).transl(5.8579928751395955e-08, -3.813515183550014e-08, 0))
hIsland = hIsland.sub(rect(9.097946629707718e-09, -9.213674946457296e-10).transl(-8.236147295438523e-08, -2.2295352357247486e-08, 0))
hIsland = hIsland.add(rect(6.075567126866502e-09, 1.2048660557864828e-09).transl(-5.6417080363316565e-09, -4e-08, 0))
hIsland = hIsland.sub(rect(5.921219986542912e-09, -2.4150692508974275e-09).transl(4.316636317686966e-08, -4e-08, 0))
hIsland = hIsland.sub(rect(7.126363635531888e-09, -5.346519524474516e-09).transl(-5.093106088662158e-08, -3.965104595519005e-08, 0))
hIsland = hIsland.add(rect(7.816969131801562e-09, 1.1941090300508358e-09).transl(-3.8314459506214145e-08, -4e-08, 0))
hIsland = hIsland.add(rect(8.628719510813273e-09, 3.391158137468686e-10).transl(-4.535927114233736e-08, -3.999872515742578e-08, 0))
hIsland = hIsland.sub(rect(2.4149781135244155e-09, -2.0716950484831078e-09).transl(5.615491999739772e-08, -3.8751556978757025e-08, 0))
hIsland = hIsland.add(rect(8.909688368787067e-09, 1.2452948680228809e-09).transl(4.908455012356951e-08, -3.983488340675874e-08, 0))
hIsland = hIsland.sub(rect(4.285070473853256e-09, -2.0601351696472538e-10).transl(7.284017862540605e-08, -3.142601836702088e-08, 0))
hIsland = hIsland.sub(rect(5.992493016844857e-09, -1.297855386906872e-09).transl(-5.856604346248672e-08, -3.813905644464788e-08, 0))
hIsland = hIsland.sub(rect(9.77972021779686e-09, -4.905130798795165e-10).transl(-4.4785482077371856e-08, -4e-08, 0))
hIsland = hIsland.sub(rect(6.598690448512757e-09, -1.6042306281964887e-09).transl(-5.6784932909315346e-08, -3.860393743185809e-08, 0))
hIsland = hIsland.add(rect(7.954354404793953e-09, 9.56126013978107e-10).transl(-6.677329073511719e-08, -3.5006017802957626e-08, 0))
hIsland = hIsland.sub(rect(7.986328675813686e-09, -2.0898298440347735e-10).transl(2.5447577899076774e-08, -4e-08, 0))
hIsland = hIsland.add(rect(6.709832522926448e-09, 1.8303601027374015e-09).transl(3.439243878345845e-08, -4e-08, 0))
hIsland = hIsland.add(rect(7.390175206257873e-09, 1.5020248960548134e-09).transl(2.6857411859207864e-08, -4e-08, 0))
hIsland = hIsland.add(rect(7.334349024527923e-09, 3.2795661612242537e-09).transl(7.131505090065307e-08, -3.244770876846e-08, 0))
hIsland = hIsland.sub(rect(3.086326375852022e-09, -1.0312901806074718e-09).transl(-1.4115162178893302e-08, -4e-08, 0))
hIsland = hIsland.add(rect(4.271740707846989e-09, 3.685030630581163e-10).transl(-3.7783758645443114e-08, -4e-08, 0))
hIsland = hIsland.sub(rect(9.073419061556127e-09, -1.372315460642506e-09).transl(6.00541073346253e-09, -4e-08, 0))
hIsland = hIsland.sub(rect(8.869420964630493e-09, -1.711181595195362e-09).transl(8.843396154613958e-08, -1.0460639336822897e-08, 0))
hIsland = hIsland.sub(rect(3.608302003550888e-09, -2.433656650688136e-09).transl(-1.5381401195555207e-08, -4e-08, 0))
hIsland = hIsland.add(rect(7.194246154291844e-09, 4.150001625140565e-09).transl(-6.791247498189529e-08, -3.442673081675204e-08, 0))
hIsland = hIsland.sub(rect(9.924874678210188e-09, -2.296821614020408e-09).transl(3.676719299017517e-08, -4e-08, 0))
hIsland = hIsland.add(rect(5.3987726460231675e-09, 1.7938983518397225e-09).transl(8.126999974718567e-08, -2.367662168659614e-08, 0))
hIsland = hIsland.sub(rect(4.280041056191609e-09, -1.371945449266371e-09).transl(-6.080842621968294e-08, -3.745054257452611e-08, 0))
hIsland = hIsland.add(rect(6.530817431107555e-09, 2.100701580190094e-09).transl(2.8803811339725632e-08, -4e-08, 0))
hIsland = hIsland.sub(rect(8.94219765403055e-09, -1.7798153229233793e-09).transl(-1.088287636752956e-08, -4e-08, 0))
hIsland = hIsland.add(rect(5.1693532823715064e-09, 5.0055770783629564e-09).transl(-8.357285892603974e-08, -2.0601034216336964e-08, 0))
hIsland = hIsland.sub(rect(2.182586985008162e-09, -1.805819012247392e-09).transl(7.765918945221018e-08, -2.7517929068284298e-08, 0))
hIsland = hIsland.add(rect(4.698480501275073e-09, 9.772375761937987e-10).transl(-4.2698738142702254e-08, -4e-08, 0))
hIsland = hIsland.add(rect(2.2165767717877856e-09, 3.8191018298703067e-10).transl(-6.306695980049226e-08, -3.663457141916086e-08, 0))
hIsland = hIsland.add(rect(8.230705676879762e-09, 6.938320205026124e-10).transl(2.163681809661059e-08, -4e-08, 0))
hIsland = hIsland.sub(rect(2.02939309979978e-09, -1.5869372832397806e-10).transl(-3.382920074596775e-08, -4e-08, 0))
hIsland = hIsland.add(rect(2.371164974737914e-09, 9.20104638841167e-10).transl(9.192899647681638e-09, -4e-08, 0))
hIsland = hIsland.add(rect(5.626335654422353e-09, 5.938153979453397e-09).transl(-3.368816316990427e-08, -4e-08, 0))
hIsland = hIsland.sub(rect(8.378898244391082e-09, -4.195069676033968e-09).transl(4.32215494437177e-08, -4e-08, 0))
hIsland = hIsland.sub(rect(3.4091947277779733e-09, -2.1293850120038754e-09).transl(-8.386210047961269e-08, -2.0166950522642395e-08, 0))
hIsland = hIsland.sub(rect(9.725706082499627e-09, -1.7697461452326234e-09).transl(8.660070553745727e-08, -1.5251149773409915e-08, 0))
hIsland = hIsland.sub(rect(9.709143046407605e-09, -1.0420313681945848e-10).transl(-6.125233132167738e-08, -3.7300109307599275e-08, 0))
hIsland = hIsland.add(rect(4.727035866307073e-09, 2.235897640810669e-09).transl(-8.302610206216873e-08, -2.1389104173601054e-08, 0))
hIsland = hIsland.add(rect(4.571632398092051e-09, 3.211837030262241e-09).transl(-7.56892075300032e-09, -4e-08, 0))
hIsland = hIsland.add(rect(6.015968652516232e-09, 3.029152381845724e-10).transl(2.6578791393822078e-08, -4e-08, 0))
hIsland = hIsland.sub(rect(7.70825118496905e-09, -1.190329796644773e-09).transl(-2.873764319916621e-08, -4e-08, 0))
hIsland = hIsland.add(rect(9.787997188053133e-09, 1.2475389311436707e-09).transl(8.768145652650929e-08, -1.2673862089640187e-08, 0))
hIsland = hIsland.sub(rect(3.4863557116414027e-09, -1.8104353436761006e-09).transl(8.532333822598623e-08, -1.775617341297887e-08, 0))
hIsland = hIsland.add(rect(7.344688947506102e-09, 2.455397334389726e-10).transl(-3.5266231220467275e-08, -4e-08, 0))
hIsland = hIsland.sub(rect(5.450924570917526e-09, -3.739859118596812e-09).transl(3.3819982591556887e-09, -4e-08, 0))
hIsland = hIsland.add(rect(2.2262345332202722e-09, 1.6946355302325664e-09).transl(-4.282609462554345e-08, -4e-08, 0))
hIsland = hIsland.sub(rect(6.206602960382255e-09, -2.207449123333701e-09).transl(5.043475944400092e-08, -3.970720880943066e-08, 0))
hIsland = hIsland.sub(rect(8.7790930190195e-09, -1.113454092268859e-09).transl(3.5586913363339536e-08, -4e-08, 0))
hIsland = hIsland.sub(rect(9.167174433348216e-09, -8.574544542367736e-10).transl(4.998152795994486e-09, -4e-08, 0))
hIsland = hIsland.add(rect(6.190859131990148e-09, 1.5980966535093392e-09).transl(3.358325358800811e-08, -4e-08, 0))
hIsland = hIsland.sub(rect(7.62058410673285e-09, -7.567936712654041e-10).transl(7.236543302752016e-08, -3.175378208519611e-08, 0))
hIsland = hIsland.sub(rect(3.279698600097381e-09, -5.279636737362399e-10).transl(-6.731436925009077e-08, -3.473575935192077e-08, 0))
hIsland = hIsland.sub(rect(3.879791804982671e-09, -6.855496196736492e-10).transl(-1.1544991986135513e-10, -4e-08, 0))
hIsland = hIsland.sub(rect(4.970326176850324e-09, -3.8322043137254865e-10).transl(4.868449844578835e-08, -3.9865695231102484e-08, 0))
hIsland = hIsland.add(rect(7.580400377930394e-09, 1.4244346820540433e-09).transl(6.443804986831791e-08, -3.607577448982106e-08, 0))
hIsland = hIsland.sub(rect(7.41992415676966e-09, -1.7813147227316968e-10).transl(-5.849648730898156e-08, -3.8158549863157294e-08, 0))
hIsland = hIsland.sub(rect(2.275606866683976e-09, -1.3673469420683348e-09).transl(5.755093835406313e-08, 3.841269282438744e-08, 0))
hIsland = hIsland.sub(rect(8.701588278375972e-09, -9.440143780756019e-11).transl(-7.4123798380165716e-09, 4e-08, 0))
hIsland = hIsland.sub(rect(4.373311870505315e-09, -1.300188810276278e-09).transl(-3.914382464648814e-08, 4e-08, 0))
hIsland = hIsland.add(rect(6.585380741093229e-09, 2.0808664502101702e-09).transl(2.780760737126424e-08, 4e-08, 0))
hIsland = hIsland.add(rect(5.952794193800979e-09, 1.890938600116342e-09).transl(-6.729754476574813e-08, 3.4744294821630956e-08, 0))
hIsland = hIsland.sub(rect(7.550725720202773e-09, -1.902250742167063e-09).transl(-1.1799136371989159e-08, 4e-08, 0))
hIsland = hIsland.add(rect(4.941059738834338e-09, 3.44615921286132e-10).transl(2.0823726342388982e-08, 4e-08, 0))
hIsland = hIsland.sub(rect(4.849048107420532e-09, -2.809262046556795e-09).transl(-8.654469210041716e-08, 1.5371316774529846e-08, 0))
hIsland = hIsland.sub(rect(5.180450089166015e-09, -1.6426196612386347e-09).transl(-6.395986409668221e-08, 3.62762901549442e-08, 0))
hIsland = hIsland.sub(rect(5.110111460499188e-09, -4.633670450320074e-10).transl(-5.392865133848221e-08, 3.9204728213469434e-08, 0))
hIsland = hIsland.add(rect(3.1759508565682717e-09, 1.4080345966017032e-09).transl(6.843628749805768e-08, 3.414699296482721e-08, 0))
hIsland = hIsland.sub(rect(2.9286224160183043e-09, -1.3004538618847166e-09).transl(-8.982001578106525e-08, 3.5739728985480767e-09, 0))
hIsland = hIsland.sub(rect(2.0167395776390772e-09, -1.2163250459465302e-09).transl(5.242943660100407e-08, 3.945108272695711e-08, 0))
hIsland = hIsland.sub(rect(9.502488031581646e-09, -4.0093161747257033e-10).transl(3.9934905215205574e-08, 4e-08, 0))
hIsland = hIsland.sub(rect(7.583182715918817e-09, -1.6129157164868324e-09).transl(-3.2120894179903326e-09, 4e-08, 0))
hIsland = hIsland.sub(rect(3.1911418119182254e-09, -2.9691118869845505e-09).transl(3.338938519763976e-08, 4e-08, 0))
hIsland = hIsland.add(rect(6.658441964835111e-09, 5.916226472545814e-10).transl(-7.061995542293922e-08, 3.288429858809368e-08, 0))
hIsland = hIsland.add(rect(8.222545213819767e-09, 1.89072276897144e-09).transl(-4.282322751522949e-08, 4e-08, 0))
hIsland = hIsland.sub(rect(4.207700193051603e-09, -2.4763343848737357e-09).transl(2.3693277187281352e-08, 4e-08, 0))
hIsland = hIsland.add(rect(8.886657321662931e-09, 5.929053781963387e-10).transl(5.403590281961993e-08, 3.918530800749157e-08, 0))
hIsland = hIsland.sub(rect(8.900515210275111e-09, -1.8507507431111324e-09).transl(6.228198216042827e-08, 3.693259090155391e-08, 0))
hIsland = hIsland.add(rect(9.957461624806499e-09, 1.6120885168173215e-09).transl(-9.576253549770265e-09, 4e-08, 0))
hIsland = hIsland.add(rect(8.714875182404964e-09, 2.3926705047220692e-09).transl(4.08711361059029e-08, 4e-08, 0))
hIsland = hIsland.add(rect(9.536303067118266e-09, 7.077823623842055e-10).transl(-4.7527927114673584e-08, 3.99368349123601e-08, 0))
hIsland = hIsland.sub(rect(2.3997119356755826e-09, -1.8004539344978447e-09).transl(-7.632117129029347e-08, 2.8720662037200477e-08, 0))
hIsland = hIsland.sub(rect(7.318618645137837e-09, -4.211567145631999e-10).transl(-6.871481082379214e-08, 3.3994715610741784e-08, 0))
[...]
hIsland = hIsland.add(rect(2.429220204294536e-09, 2.7068238189880728e-09).transl(-1.9357096580591584e-08, 4e-08, 0))
hIsland = hIsland.sub(rect(9.793872542102903e-09, -2.2066293705686153e-09).transl(-8.334609238819402e-08, 2.0932855829535533e-08, 0))
hIsland = hIsland.sub(rect(5.992942806923287e-09, -2.762988404181648e-09).transl(-5.629524696428299e-08, 3.8719426544226644e-08, 0))
hIsland = hIsland.sub(rect(7.557957502749853e-09, -2.843651435045455e-09).transl(5.5271880243995154e-08, 3.894397090854815e-08, 0))
hIsland = hIsland.sub(rect(6.582367438986339e-09, -2.4712539255955075e-10).transl(-7.936235959361015e-08, 2.582720538124443e-08, 0))
hIsland = hIsland.sub(rect(6.099605135476331e-09, -1.0406598634097175e-09).transl(-2.7058115259677256e-08, 4e-08, 0))
hIsland = hIsland.add(rect(2.299549832739917e-09, 2.57605563436052e-09).transl(-8.621323676206481e-09, 4e-08, 0))
hIsland = hIsland.sub(rect(9.58178531682447e-09, -1.8764544978581174e-09).transl(-4.070446504278126e-08, 4e-08, 0))
hIsland = hIsland.add(rect(4.215158939986305e-09, 2.017495294565773e-09).transl(-2.5700932523903117e-08, 4e-08, 0))
hIsland = hIsland.sub(rect(6.4588218813129895e-09, -6.446602167783415e-10).transl(7.773480108929074e-08, 2.7446850782776637e-08, 0))
hIsland = hIsland.sub(rect(9.570351429271803e-09, -2.454478783788352e-09).transl(-3.709740770399178e-08, 4e-08, 0))
hIsland = hIsland.add(rect(9.088599416740396e-09, 1.7668578301911173e-09).transl(-4.546287873791049e-08, 3.999788382821027e-08, 0))
hIsland = hIsland.sub(rect(7.078236583824653e-09, -2.426936034307986e-09).transl(-8.018015499886273e-08, 2.4942112841385172e-08, 0))
hIsland = hIsland.sub(rect(2.2576843367751573e-09, -1.3909336657951232e-09).transl(-7.093952329021962e-08, 3.2685752628171935e-08, 0))
hIsland = hIsland.sub(rect(3.034252982086181e-09, -1.3029736708557892e-09).transl(5.2691834306726154e-08, 3.9411329423300325e-08, 0))
hIsland = hIsland.add(rect(6.430567903958568e-09, 1.0717504442831177e-09).transl(-8.436412603644982e-08, 1.938237624105524e-08, 0))
hIsland = hIsland.add(rect(3.037144887835406e-09, 3.6139000464572175e-10).transl(3.8950252542142355e-09, 4e-08, 0))
hIsland = hIsland.sub(rect(6.197309927586586e-09, -6.805888943023681e-09).transl(6.757618804536366e-08, 3.460182806377954e-08, 0))
hIsland = hIsland.add(rect(2.404050978813876e-09, 9.515847856340077e-10).transl(7.373340369662639e-08, 3.078420646226673e-08, 0))
hIsland = hIsland.sub(rect(5.640313595723277e-09, -1.3286114736654002e-09).transl(-5.951013133092896e-08, 3.786349583760461e-08, 0))
hIsland = hIsland.sub(rect(9.571336800749967e-09, -7.69962114374591e-10).transl(8.28952043225744e-09, 4e-08, 0))
hIsland = hIsland.sub(rect(8.50070743457206e-09, -9.187047328577454e-10).transl(-8.760424162748264e-08, 1.28774998063245e-08, 0))
hIsland = hIsland.add(rect(9.69823710287406e-09, 2.189496366630122e-09).transl(-4.497403423401404e-08, 4e-08, 0))
hIsland = hIsland.add(rect(9.947617159801333e-09, 2.9440436435131942e-09).transl(-6.42990099948073e-08, 3.613470778547943e-08, 0))
hIsland = hIsland.add(rect(6.9013890261861005e-09, 5.3899864309723044e-09).transl(-1.579415193793031e-08, 4e-08, 0))
hIsland = hIsland.sub(rect(4.813957092863259e-09, -2.0755338574455596e-09).transl(7.384776378615555e-08, 3.0699583294401805e-08, 0))
hIsland = hIsland.sub(rect(8.219999762623383e-09, -1.3232652219493236e-09).transl(-5.210230260663584e-08, 3.9498658681986505e-08, 0))
hIsland = hIsland.add(rect(5.718932872928782e-09, 2.4204886971541544e-09).transl(-1.8568594764892796e-08, 4e-08, 0))
hIsland = hIsland.add(rect(7.026184360629841e-09, 1.5199485207630664e-09).transl(-1.8969518635619945e-08, 4e-08, 0))
hIsland = hIsland.sub(rect(4.220906676127624e-09, -3.694497219277711e-11).transl(-5.120479232242299e-09, 4e-08, 0))
hIsland = hIsland.sub(rect(6.8087126074183255e-09, -2.6096993727947096e-09).transl(-7.103199924780868e-08, 3.262761100102554e-08, 0))
hIsland = hIsland.add(rect(7.271114038292205e-09, 1.6480803802836909e-09).transl(2.504323749585152e-08, 4e-08, 0))
hIsland = hIsland.add(rect(6.1597013873132184e-09, 1.017470387387172e-09).transl(6.420952512533511e-08, 3.6172362624581804e-08, 0))
hIsland = hIsland.add(rect(3.3106115260294388e-09, 2.8111082925562096e-09).transl(-1.0636911722010579e-08, 4e-08, 0))
hIsland = hIsland.add(rect(9.409044737262765e-09, 1.8393755463674615e-09).transl(3.1514380089915355e-08, 4e-08, 0))
hIsland = hIsland.sub(rect(8.265953327956658e-09, -1.4392261626668605e-09).transl(-6.965858986730996e-08, 3.345995441917065e-08, 0))
hIsland = hIsland.add(rect(5.8494468334017534e-09, 2.407161600798422e-09).transl(-4.601713643616526e-08, 3.998978075355271e-08, 0))
hIsland = hIsland.sub(rect(6.49331947757755e-09, -1.1793110355532801e-09).transl(4.1988642074895836e-08, 4e-08, 0))
hIsland = hIsland.sub(rect(5.542582143484108e-09, -2.321565877040416e-09).transl(4.1448932158553696e-08, 4e-08, 0))
hIsland = hIsland.sub(rect(7.70173505564253e-09, -3.0849719431115814e-10).transl(-3.1644454556387105e-08, 4e-08, 0))
hIsland = hIsland.sub(rect(8.69257898570168e-09, -1.8218318421041994e-09).transl(6.12411453823703e-08, 3.730395877889836e-08, 0))
hIsland = hIsland.sub(rect(9.719971727954056e-09, -4.840213182517088e-09).transl(5.781177154016819e-09, 4e-08, 0))
hIsland = hIsland.add(rect(9.864676882324976e-09, 2.130949101184997e-09).transl(-8.82370079326379e-08, 1.1086591435410163e-08, 0))
hIsland = hIsland.sub(rect(5.519961142133297e-09, -2.2397446880472433e-09).transl(3.8354848326898264e-08, 4e-08, 0))
hIsland = hIsland.sub(rect(9.192440613364202e-09, -7.323083610240378e-10).transl(7.960607781648165e-08, 2.5568798549924306e-08, 0))
hIsland = hIsland.sub(rect(4.165106949334898e-09, -7.850228741947309e-10).transl(-5.94509735189523e-08, 3.788136766644164e-08, 0))
hIsland = hIsland.sub(rect(3.6112316180965022e-09, -1.2985054143978833e-09).transl(1.0929956236430618e-08, 4e-08, 0))
hIsland = hIsland.sub(rect(9.45775998304799e-09, -1.0680968080798161e-09).transl(-9.960984861372263e-09, 4e-08, 0))
hIsland = hIsland.sub(rect(7.237882596245194e-09, -2.640047950471135e-09).transl(-3.4026985428094617e-08, 4e-08, 0))
hIsland = hIsland.sub(rect(3.0394679689549966e-09, -9.383341717717236e-10).transl(-2.7234341623244854e-08, 4e-08, 0))
hIsland = hIsland.sub(rect(3.943330872569615e-09, -5.931262431981373e-09).transl(1.8917988855546483e-08, 4e-08, 0))
hIsland = hIsland.sub(rect(4.363840695660385e-09, -4.1991347191070207e-10).transl(-7.015559932455933e-08, 3.3166347038814e-08, 0))
hIsland = hIsland.add(rect(7.3223011071874776e-09, 3.071274664208618e-09).transl(4.628556634311355e-08, 3.998367389467255e-08, 0))
hIsland = hIsland.sub(rect(8.497516686849004e-09, -3.114746359713009e-09).transl(-3.978030641579088e-08, 4e-08, 0))
hIsland = hIsland.add(rect(8.534242569413935e-09, 2.080771858934031e-09).transl(8.130181206659566e-08, 2.3638068324606635e-08, 0))
hIsland = hIsland.add(rect(3.0176589600910395e-09, 8.67307368092523e-10).transl(-7.671629583749922e-08, 2.8375981195693565e-08, 0))
hIsland = hIsland.add(rect(2.658292151360601e-09, 1.0887795693186075e-09).transl(-2.201675427266639e-08, 4e-08, 0))
hIsland = hIsland.sub(rect(9.239272938629922e-09, -9.431835706249431e-11).transl(-7.471901041872154e-08, 3.003577021043182e-08, 0))
hIsland = hIsland.sub(rect(7.214311394445279e-09, -3.0480837356392293e-09).transl(-3.0576838809374515e-08, 4e-08, 0))
hIsland = hIsland.sub(rect(2.5269861248718037e-09, -2.726571299107482e-09).transl(5.162199880843096e-08, 3.9564534629130487e-08, 0))
hIsland = hIsland.add(rect(4.304020823851722e-09, 2.371932129974155e-09).transl(7.233824569283649e-08, 3.177228014527931e-08, 0))
hIsland = hIsland.add(rect(9.329199495766803e-09, 4.875060697430659e-09).transl(-5.7416149851659276e-08, 3.844728799103512e-08, 0))
hIsland = hIsland.sub(rect(5.751743844518098e-09, -1.7366682047163733e-09).transl(-3.965598932570874e-08, 4e-08, 0))
hIsland = hIsland.sub(rect(5.5742578394024435e-09, -7.019316866137233e-10).transl(-2.3269520980443206e-08, 4e-08, 0))
hIsland = hIsland.sub(rect(9.066059713645526e-09, -1.514796130592495e-09).transl(5.856906148384259e-08, 3.813820813645957e-08, 0))
hIsland = hIsland.add(rect(8.441638238020134e-09, 9.50033721656383e-10).transl(-1.434806135666408e-08, 4e-08, 0))
hIsland = hIsland.add(rect(8.119254629878e-09, 5.7748023313290234e-09).transl(7.727644236945634e-08, 2.787246110901426e-08, 0))
hIsland = hIsland.sub(rect(4.544944057236769e-09, -1.2513264991921175e-09).transl(7.185272911212103e-08, 3.20977634909479e-08, 0))
hIsland = hIsland.add(rect(4.2269438785028935e-09, 3.683213664718471e-09).transl(3.373498344510308e-08, 4e-08, 0))
hIsland = hIsland.add(rect(9.325214597149201e-09, 4.602799561636676e-10).transl(-2.7057934982661532e-08, 4e-08, 0))
hIsland = hIsland.sub(rect(5.304974857144918e-09, -2.977713257076978e-10).transl(-5.310780974446326e-09, 4e-08, 0))
hIsland = hIsland.add(rect(8.125963355739959e-09, 3.6575517629610647e-09).transl(-8.70984856737947e-08, 1.4130747603391622e-08, 0))
hIsland = hIsland.add(rect(8.169252022724891e-09, 1.167831367122912e-09).transl(2.5887910186842423e-08, 4e-08, 0))
hIsland = hIsland.add(rect(8.27881397499873e-09, 1.490098876600582e-09).transl(-3.433332362444897e-09, 4e-08, 0))
hIsland = hIsland.sub(rect(3.1008695170814642e-09, -1.0678739917399663e-09).transl(-2.98669061921217e-08, 4e-08, 0))
hIsland = hIsland.sub(rect(5.550393581602533e-09, -2.5193171276341606e-09).transl(8.456551474028025e-08, 1.9055630959859466e-08, 0))
hIsland = hIsland.sub(rect(6.080207245405794e-09, -2.6864376203364952e-09).transl(6.674211242967802e-08, 3.502132595689312e-08, 0))
hIsland = hIsland.add(rect(7.140313383615435e-09, 4.8235052624107004e-09).transl(-1.510683170053537e-08, 4e-08, 0))
hIsland = hIsland.sub(rect(6.386478776542482e-09, -9.269501954114689e-10).transl(8.789209745967164e-08, 1.2098949261919128e-08, 0))
hIsland = hIsland.add(rect(2.933050430488856e-09, 3.97991020511265e-09).transl(4.284675591786189e-08, 4e-08, 0))
hIsland = hIsland.add(rect(7.539306103538606e-09, 2.6924294109901034e-09).transl(-2.4923293808462106e-08, 4e-08, 0))
hIsland = hIsland.sub(rect(2.5640987232375592e-09, -1.851369604505944e-09).transl(-7.67218220605913e-08, 2.8371099956046764e-08, 0))
hIsland = hIsland.sub(rect(8.68030645644129e-09, -3.098189148457405e-09).transl(-2.1883519926247377e-09, 4e-08, 0))
hIsland = hIsland.add(rect(4.456001155697053e-09, 1.498693915598165e-09).transl(-3.413015435961896e-08, 4e-08, 0))
hIsland = hIsland.sub(rect(7.184811020400402e-09, -1.1450057517010754e-10).transl(-5.438959363140068e-09, 4e-08, 0))
hIsland = hIsland.add(rect(3.516983373143626e-09, 8.446351148050818e-10).transl(6.74541832746298e-08, 3.466449740756357e-08, 0))
hIsland = hIsland.sub(rect(5.17405257636125e-09, -8.656807008554349e-11).transl(-7.534339270783958e-08, 2.9538387915961832e-08, 0))
hIsland = hIsland.sub(rect(4.978982551126565e-09, -8.708943535209901e-10).transl(-3.5895238539634217e-09, 4e-08, 0))
hIsland = hIsland.sub(rect(6.150014435114051e-09, -5.960878468572585e-11).transl(-7.501606234036622e-08, 2.9801463237974497e-08, 0))
hIsland = hIsland.add(rect(6.804432999594226e-09, 4.3044606952589075e-10).transl(1.6134012470222143e-08, 4e-08, 0))
hIsland = hIsland.sub(rect(3.615260040996992e-09, -2.0657183869500584e-09).transl(-6.261630927267321e-08, 3.680757461078516e-08, 0))
hIsland = hIsland.sub(rect(3.2146869422942655e-09, -1.6739158736291397e-09).transl(5.075734058587085e-09, 4e-08, 0))
hIsland = hIsland.add(rect(9.866753872677418e-09, 1.166712749405834e-09).transl(-8.289869504795804e-08, 2.156703316259676e-08, 0))
hIsland = hIsland.add(rect(2.7062635129299732e-09, 4.7919143642675926e-11).transl(-3.867055519300591e-08, 4e-08, 0))
hIsland = hIsland.add(rect(6.122778154025432e-09, 1.1384662340183887e-09).transl(-3.6569017176520154e-09, 4e-08, 0))
hIsland = hIsland.add(rect(2.093379784774537e-09, 3.6123861547557027e-09).transl(-8.257036281349672e-08, 2.2016251471113052e-08, 0))
hIsland = hIsland.sub(rect(9.675759952773835e-09, -2.711679693053393e-09).transl(-1.6690408806561856e-08, 4e-08, 0))
hIsland = hIsland.add(rect(4.095787036557366e-09, 1.557783777199146e-09).transl(5.193014654281454e-08, 3.952281360399823e-08, 0))
hIsland = hIsland.sub(rect(5.752284550053031e-09, -2.0916074388965784e-09).transl(-8.057411646694973e-08, 2.4496626929844196e-08, 0))
hIsland = hIsland.sub(rect(5.498713585327507e-09, -1.3058306404930544e-09).transl(7.992521075810983e-08, 2.5223616658493003e-08, 0))
hIsland = hIsland.add(rect(5.24180484160427e-09, 7.488652337485738e-11).transl(-6.756022371367249e-08, 3.461005412748437e-08, 0))
hIsland = hIsland.sub(rect(9.386988296488327e-09, -1.259159116724482e-09).transl(-8.781396554558914e-08, 1.2315662352032462e-08, 0))
hIsland = hIsland.add(rect(7.540152550809672e-09, 1.8986073500269747e-09).transl(-1.1700682446416384e-08, 4e-08, 0))
hIsland = hIsland.sub(rect(9.624354980164293e-09, -3.348147583408437e-09).transl(-5.2903179104212285e-09, 4e-08, 0))
hIsland = hIsland.add(rect(5.081984376524997e-09, 1.3347084371249383e-09).transl(7.058441090112844e-08, 3.290615665421713e-08, 0))
hIsland = hIsland.sub(rect(6.947147597886174e-09, -2.497955668602138e-09).transl(3.9033787023308016e-08, 4e-08, 0))
hIsland = hIsland.sub(rect(5.18913888956804e-09, -1.921905077632208e-09).transl(-4.182182887508453e-08, 4e-08, 0))
hIsland = hIsland.sub(rect(2.1513380498871584e-09, -1.0136265970945476e-09).transl(8.276506592697103e-08, 2.1751454304726234e-08, 0))
hIsland = hIsland.sub(rect(4.9145586128249924e-09, -7.299427531327687e-10).transl(6.613255174681464e-08, 3.5314910715573804e-08, 0))
hIsland = hIsland.add(rect(3.1618167049213267e-09, 1.1416655727602227e-09).transl(-7.063533521715494e-09, 4e-08, 0))
hIsland = hIsland.sub(rect(3.363437728867686e-09, -2.971992719568175e-10).transl(-3.9770813718899556e-08, 4e-08, 0))
hIsland = hIsland.add(rect(8.501048991155866e-09, 4.360238415479489e-09).transl(7.309605111149061e-08, 3.124557496852134e-08, 0))
hIsland = hIsland.sub(rect(3.7138320128457824e-09, -1.3115352281867374e-09).transl(2.6226317893306567e-08, 4e-08, 0))
hIsland = hIsland.sub(rect(2.5244701489313527e-09, -4.572766073478133e-10).transl(-9.974993140806571e-09, 4e-08, 0))
hIsland = hIsland.sub(rect(9.562666745566042e-09, -2.561243956723942e-09).transl(4.4822568487470106e-08, 4e-08, 0))
hIsland = hIsland.sub(rect(2.9491327686643807e-09, -5.535851801891139e-10).transl(-5.667229046373773e-08, 3.863096830090837e-08, 0))
hIsland = hIsland.add(rect(3.80056767105218e-09, 8.303002597019637e-10).transl(-6.250557339104106e-08, 3.684929495214023e-08, 0))
hIsland = hIsland.add(rect(5.8786971400284935e-09, 4.1787999740351967e-10).transl(7.808293976913613e-08, 2.7115032084137783e-08, 0))
hIsland = hIsland.sub(rect(3.3224546011526858e-09, -3.90810034377214e-10).transl(-3.8609795814209796e-08, 4e-08, 0))
hIsland = hIsland.add(rect(2.733967898087259e-09, 3.361591593384179e-09).transl(-7.147832209603562e-08, 3.2342591529549434e-08, 0))
hIsland = hIsland.sub(rect(3.0041506972228867e-09, -4.851556412612639e-10).transl(6.106153261224025e-08, 3.736535314857579e-08, 0))
hIsland = hIsland.sub(rect(9.872619813117183e-09, -7.713474333480031e-11).transl(-8.533573875806572e-08, 1.7733905395196742e-08, 0))
hIsland = hIsland.sub(rect(7.020658398532414e-09, -8.684505810614644e-10).transl(-8.564526888170328e-08, 1.7166424134273366e-08, 0))
hIsland = hIsland.sub(rect(2.74216546390159e-09, -1.1542261574786649e-09).transl(-4.099906383733024e-08, 4e-08, 0))
hIsland = hIsland.add(rect(4.655078141346756e-09, 1.9730237118937134e-09).transl(-8.31179495623699e-08, 2.1259537570397917e-08, 0))
hIsland = hIsland.sub(rect(3.868597550151018e-09, -2.3498944791763755e-10).transl(-8.078436368078738e-08, 2.4253465126368387e-08, 0))
hIsland = hIsland.add(rect(7.607944793374717e-09, 1.5332108297226872e-09).transl(1.6342977051926665e-09, 4e-08, 0))
hIsland = hIsland.add(rect(9.222177007730684e-09, 8.346287624742819e-10).transl(-8.194143294739781e-09, 4e-08, 0))
hIsland = hIsland.sub(rect(2.642833942534636e-09, -4.9580307847474624e-11).transl(-8.906983003694576e-08, 8.090846186377925e-09, 0))
hIsland = hIsland.sub(rect(5.836047056652652e-09, -1.876723432595218e-09).transl(4.025115211506167e-08, 4e-08, 0))
hIsland = hIsland.sub(rect(5.607677282619483e-09, -2.6500013570818474e-09).transl(-4.4032902500434725e-08, 4e-08, 0))
hIsland = hIsland.sub(rect(8.063818408339306e-09, -2.591417979855991e-10).transl(4.3211654826110405e-08, 4e-08, 0))
hIsland = hIsland.add(rect(2.2402533000180373e-09, 6.185002951726634e-10).transl(7.656401815169662e-08, 2.8509824280226215e-08, 0))
hIsland = hIsland.add(rect(4.516201012191175e-09, 1.4514650681586764e-09).transl(-7.621389670621862e-08, 2.8812790745586416e-08, 0))
hIsland = hIsland.sub(rect(9.34343075373398e-09, -3.2900490181499324e-09).transl(-8.824263291146093e-08, 1.1069243747583535e-08, 0))
hIsland = hIsland.add(rect(4.159003508119434e-09, 3.685070390202276e-10).transl(-6.014705338056271e-08, 3.7665892081306123e-08, 0))
hIsland = hIsland.add(rect(4.07554113160941e-09, 2.456278786588536e-09).transl(-8.014537059234374e-08, 2.498082900978775e-08, 0))
hIsland = hIsland.sub(rect(6.659369177795499e-09, -1.2077363246930952e-10).transl(8.508033728809335e-08, 1.8185688316742886e-08, 0))
hIsland = hIsland.add(rect(7.829678059131808e-09, 2.959701487184964e-09).transl(-1.51546311695251e-08, 4e-08, 0))
hIsland = hIsland.sub(rect(9.783989437425914e-09, -4.2377568228602126e-10).transl(-3.782785454420781e-08, 4e-08, 0))
hIsland = hIsland.sub(rect(4.4316988476804064e-09, -2.6326234266473656e-10).transl(5.5540928447762273e-08, 3.8887124556387874e-08, 0))
hIsland = hIsland.sub(rect(7.510407484765308e-09, -3.174550916737959e-09).transl(4.070969454292215e-08, 4e-08, 0))
hIsland = hIsland.sub(rect(6.8878088132379095e-09, -5.929177545202456e-10).transl(1.1236960630715844e-08, 4e-08, 0))
hIsland = hIsland.sub(rect(6.368061173192028e-09, -2.2781739530260606e-09).transl(4.560364380361345e-08, 3.999640096557686e-08, 0))
hIsland = hIsland.sub(rect(3.1492352164961688e-09, -1.8724175027580896e-10).transl(-6.093551984210228e-08, 3.7407959354939584e-08, 0))
hIsland = hIsland.sub(rect(6.277092466976073e-09, -1.3906633551034513e-09).transl(6.949242583559046e-08, 3.35562451930675e-08, 0))
hIsland = hIsland.add(rect(6.862287018551357e-09, 4.933690533938149e-10).transl(-6.652497178703032e-08, 3.51271478377318e-08, 0))
hIsland = hIsland.sub(rect(5.271337549795327e-09, -1.372440725870066e-10).transl(-8.528663607292204e-08, 1.7821877612139365e-08, 0))
hIsland = hIsland.add(rect(9.26747422320123e-09, 1.7108742405934684e-09).transl(-6.392576413824363e-08, 3.629035666116313e-08, 0))
hIsland = hIsland.sub(rect(5.845574384650282e-09, -1.3728275129560304e-09).transl(4.702592936730834e-08, 3.995944225514372e-08, 0))
hIsland = hIsland.add(rect(2.865060291641857e-09, 1.26831070849028e-09).transl(-3.4234945447988395e-08, 4e-08, 0))
hIsland = hIsland.add(rect(8.26877852933552e-09, 5.862519914674884e-10).transl(-3.618961406889619e-08, 4e-08, 0))
hIsland = hIsland.add(rect(3.1918438941806822e-09, 6.783550941109383e-10).transl(-8.932095486870729e-08, 6.9226675527028185e-09, 0))
vIsland = hIsland.rotz(pi / 2)
vIslands = vIslands.add(vIsland.transl(0, -a/2, 0))
DefRegion(1, hIslands)
DefRegion(2, vIslands)
TableAdd(m_full.Region(1))
TableAdd(m_full.Region(2))
setgeom(hIslands.add(vIslands))
save(geom)
r2o2 := sqrt(2) / 2
m = RandomMagSeed(4)
B_ext = vector(Bmax*r2o2, Bmax*r2o2, 0)
relax()
minimize()
for B := Bmax; B >= -Bmax; B -= Bstep {
	B_ext = vector(B*r2o2, B*r2o2, 0)
	minimize()
	tablesave()
}
//********************************************************************//
//Please cite the following references, relevant for your simulation. //
//See bibtex file in output folder for justification.                 //
//********************************************************************//
//   * Vansteenkiste et al., AIP Adv. 4, 107133 (2014).
//   * Exl et al., J. Appl. Phys. 115, 17D118 (2014).
