# t (s)	mx ()	my ()	mz ()	B_extx (T)	B_exty (T)	B_extz (T)	m_fullx (A/m)	m_fully (A/m)	m_fullz (A/m)	m_full.region1x (A/m)	m_full.region1y (A/m)	m_full.region1z (A/m)	m_full.region2x (A/m)	m_full.region2y (A/m)	m_full.region2z (A/m)
0	0.63433677	0.63433325	-2.4383717e-10	0.07071094	0.07071095	0	57662.977	57662.66	-1.9694011e-05	660154.75	227913.05	-0.0002189171	227916.7	660153.56	-0.00013285427
0	0.63402086	0.6340183	-1.9682282e-10	0.07035709	0.07035709	0	57634.258	57634.023	-2.202691e-05	660388.25	227238.17	-0.00031124667	227241.02	660387.4	-4.1778076e-05
0	0.633701	0.6336985	-2.8766411e-10	0.07000352	0.07000352	0	57605.188	57604.953	-2.9296874e-05	660624.4	226554.31	-0.00025442848	226557.16	660623.56	-0.00018173462
0	0.63337916	0.6333766	-2.1196304e-10	0.069650024	0.069650024	0	57575.934	57575.695	-1.8012153e-05	660860.75	225867.36	-0.00010653409	225870.2	660860	-0.00016126336
0	0.63305515	0.6330525	-1.5857385e-10	0.06929648	0.06929648	0	57546.477	57546.24	-1.5896267e-05	661097.6	225176.81	-0.0002711397	225179.66	661096.8	3.342246e-06
0	0.6327272	0.63272464	-4.581908e-10	0.06894301	0.06894301	0	57516.668	57516.43	-4.2860243e-05	661335.8	224479.47	-0.00038477607	224482.33	661335.06	-0.0002907754
0	0.6324007	0.63239807	-2.0877562e-10	0.068589404	0.06858941	0	57486.977	57486.742	-2.0833333e-05	661572.3	223785.77	-0.00018800133	223788.62	661571.5	-0.00011029412
0	0.63207114	0.6320686	-3.4583444e-10	0.06823558	0.06823559	0	57457.023	57456.79	-3.0381945e-05	661809.44	223087.33	-0.0003559492	223090.22	661808.6	-0.0001453877
0	0.6317403	0.63173765	-3.171477e-10	0.06788239	0.06788239	0	57426.938	57426.71	-2.7777778e-05	662046.5	222387.03	-0.00021557487	222389.89	662045.7	-0.0002406417
0	0.6314063	0.6314036	-2.8925784e-10	0.06752857	0.06752857	0	57396.59	57396.35	-2.4305555e-05	662284.2	221681.7	-0.00034174466	221684.6	662283.5	-8.439171e-05
0	0.63107026	0.6310677	-2.3825922e-10	0.06717497	0.06717497	0	57366.04	57365.8	-2.1809896e-05	662522.44	220973.16	-0.00020554813	220976.03	662521.56	-0.00015875668
0	0.630733	0.63073033	-2.23119e-10	0.06682184	0.06682184	0	57335.375	57335.14	-1.8771701e-05	662760.1	220263.06	-0.00030330883	220265.94	662759.44	-1.671123e-06
0	0.630393	0.63039047	-3.394596e-10	0.06646805	0.06646805	0	57304.477	57304.242	-2.6909722e-05	662998.5	219548.9	-0.00032670455	219551.8	662997.75	-0.00016878342
0	0.6300513	0.63004875	-2.5419628e-10	0.06611443	0.06611443	0	57273.41	57273.176	-2.311198e-05	663236.75	218832.19	-0.00016293449	218835.08	663236	-0.00021808155
0	0.6297079	0.6297053	-2.2311899e-11	0.06576091	0.06576091	0	57242.2	57241.96	-1.953125e-06	663475	218113.17	-1.9217914e-05	218116.06	663474.25	1.2533423e-05
0	0.62936246	0.6293599	-3.4902184e-10	0.06540744	0.06540744	0	57210.793	57210.566	-3.059896e-05	663713.56	217391.14	-0.0002799131	217394.05	663712.7	-0.00021557487
0	0.62901515	0.62901247	-2.4064978e-10	0.065053925	0.065053925	0	57179.223	57178.99	-2.2569444e-05	663951.9	216666.45	-0.0002406417	216669.34	663951.06	-0.000104445186
0	0.6286644	0.62866175	-8.27134e-10	0.064700276	0.064700276	0	57147.336	57147.098	-7.4327254e-05	664191.25	215935.94	-0.0006057821	215938.83	664190.5	-0.0005899064
0	0.62831336	0.6283108	-3.8647396e-10	0.06434652	0.06434652	0	57115.43	57115.19	-3.4505207e-05	664429.56	215206.19	-0.0003275401	215209.12	664428.94	-0.00023145054
0	0.62795943	0.62795687	-2.1036933e-10	0.06399329	0.06399329	0	57083.258	57083.027	-1.9639758e-05	664668.56	214471.73	-0.0002540107	214474.67	664667.9	-6.183155e-05
0	0.6276034	0.62760085	-1.920417e-10	0.06363954	0.06363954	0	57050.895	57050.656	-1.812066e-05	664907.75	213734.19	-0.0001495655	213737.12	664906.94	-0.00013619653
0	0.6272438	0.62724125	1.0677837e-10	0.06328588	0.06328588	0	57018.203	57017.97	9.22309e-06	665147.75	212990.69	6.183155e-05	212993.62	665147	8.522727e-05
0	0.62688535	0.6268827	-4.4066e-10	0.06293275	0.06293275	0	56985.613	56985.38	-3.9279515e-05	665385.94	212250.56	-0.0004227941	212253.48	665385.25	-0.00023479278
0	0.6265207	0.6265182	-3.5061556e-10	0.06257901	0.06257901	0	56952.484	56952.234	-3.4722223e-05	665626.6	211499.48	-0.0002799131	211502.44	665625.9	-0.00026069517
0	0.626158	0.6261555	-3.275068e-10	0.06222535	0.06222535	0	56919.504	56919.266	-3.092448e-05	665865.06	210753.3	-0.00034675802	210756.25	665864.25	-0.00015541444
0	0.6257918	0.62578917	-3.944425e-10	0.061871786	0.061871786	0	56886.215	56885.97	-3.6783855e-05	666104.1	210001.4	-0.00033338903	210004.38	666103.44	-0.00027322862
0	0.62542176	0.6254192	-3.2033512e-10	0.061518393	0.061518393	0	56852.574	56852.336	-2.5607638e-05	666344.4	209243.12	-0.000264873	209246.08	666343.75	-0.00016878342
0	0.6250514	0.62504876	-3.7691172e-10	0.06116484	0.06116484	0	56818.914	56818.67	-3.5590278e-05	666583.56	208485.55	-0.000407754	208488.52	666582.8	-0.00016209894
0	0.6246781	0.6246755	-1.4183993e-10	0.06081115	0.06081115	0	56784.97	56784.734	-1.7686632e-05	666823.25	207723.05	-0.00016961899	207726.02	666822.56	-7.1022725e-05
0	0.62430286	0.62430024	-3.7292747e-10	0.060457446	0.060457446	0	56750.87	56750.633	-3.4179688e-05	667062.7	206958.38	-0.00018967246	206961.34	667062.06	-0.00034592245
0	0.6239249	0.6239223	-1.2988713e-10	0.0601042	0.0601042	0	56716.504	56716.273	-1.0199653e-05	667302.7	206189.23	-0.00017129011	206192.2	667301.94	-4.1778076e-06
0	0.62354463	0.62354195	-1.5698015e-10	0.05975051	0.05975051	0	56681.934	56681.7	-1.4865452e-05	667542.6	205416.78	-0.00012533422	205419.75	667542	-9.10762e-05
0	0.623161	0.62315834	-4.342852e-10	0.059396803	0.059396803	0	56647.07	56646.83	-4.2317708e-05	667783.1	204639.33	-0.000503008	204642.28	667782.44	-0.00016293449
0	0.622777	0.6227744	-4.67753e-10	0.059043653	0.059043653	0	56612.164	56611.926	-4.1341147e-05	668022.7	203862.14	-0.00038770054	203865.11	668022.1	-0.0002907754
0	0.6223904	0.6223878	-6.1118666e-10	0.05868999	0.05868998	0	56577.01	56576.78	-5.4904514e-05	668262.4	203081.23	-0.00047209224	203084.2	668261.75	-0.00043699867
0	0.622	0.6219973	-2.6853963e-10	0.05833627	0.058336258	0	56541.523	56541.29	-2.6801215e-05	668502.9	202294	-0.00035427808	202296.98	668502.3	-8.6062835e-05
0	0.6216092	0.6216066	-9.004445e-11	0.057982646	0.057982646	0	56506.004	56505.76	-1.063368e-05	668742.4	201507.45	-5.6818182e-05	201510.47	668741.7	-0.00011697861
0	0.62121534	0.6212127	-2.5658684e-10	0.057629354	0.057629354	0	56470.2	56469.96	-2.2677952e-05	668982.25	200716.16	-0.00023479278	200719.14	668981.6	-0.00017129011
0	0.6208178	0.62081516	-1.7849519e-10	0.057275724	0.057275724	0	56434.06	56433.816	-1.6601563e-05	669222.8	199919.08	-0.00016209894	199922.08	669222.1	-0.00010778743
0	0.6204193	0.6204167	-2.3268124e-10	0.05692201	0.05692201	0	56397.84	56397.605	-1.703559e-05	669462.5	199121.56	-0.00015708557	199124.58	669461.9	-0.00012700535
0	0.6200179	0.6200153	-1.4502734e-10	0.056568373	0.056568373	0	56361.355	56361.117	-1.7469618e-05	669702.5	198319.61	-5.7653742e-05	198322.62	669701.9	-0.00020471256
0	0.6196141	0.6196115	-5.8967164e-11	0.0562151	0.056215096	0	56324.652	56324.414	-7.486979e-06	669942.5	197514.3	-0.00014037434	197517.31	669941.9	3.7600268e-05
0	0.6192088	0.61920625	-2.7650818e-10	0.055861473	0.05586147	0	56287.8	56287.57	-2.3220486e-05	670181.8	196707.55	-0.00022309492	196710.6	670181.25	-0.00017296123
0	0.61879474	0.6187921	-8.4466475e-11	0.05550772	0.055507723	0	56250.156	56249.92	-8.138021e-06	670424.94	195884.6	-6.600936e-05	195887.58	670424.4	-1.7546792e-05
0	0.6183888	0.61838615	-3.7452116e-10	0.055154555	0.055154555	0	56213.254	56213.01	-3.2226562e-05	670661.75	195079.52	-0.00024899733	195082.55	670661.1	-0.00030497994
0	0.6179755	0.61797285	-1.0199725e-10	0.05480093	0.05480093	0	56175.68	56175.445	-1.063368e-05	670901.25	194261.34	-9.441845e-05	194264.34	670900.6	-7.8542784e-05
0	0.6175598	0.6175572	-1.9921338e-10	0.05444718	0.054447185	0	56137.906	56137.67	-1.7469618e-05	671140.56	193440.19	-0.0002799131	193443.22	671139.94	-4.6791443e-05
0	0.6171404	0.61713785	-2.2790012e-10	0.05409356	0.054093562	0	56099.78	56099.547	-1.6818576e-05	671380.56	192613.05	-0.000217246	192616.06	671379.94	-6.851604e-05
0	0.6167189	0.6167163	-2.0558821e-10	0.053740263	0.053740267	0	56061.47	56061.227	-2.0507812e-05	671620.2	191783.2	-0.00012867647	191786.25	671619.6	-0.00018298796
0	0.61629575	0.616293	-1.6415183e-10	0.05338664	0.053386644	0	56022.99	56022.754	-1.4865452e-05	671859.3	190951.52	-0.00022977941	190954.53	671858.8	2.5066845e-06
0	0.61586624	0.61586374	-1.0040355e-10	0.053032923	0.053032923	0	55983.96	55983.723	-8.680556e-06	672100.3	190109.52	-0.00019385027	190112.56	672099.7	2.256016e-05
0	0.61543953	0.6154369	-2.9802322e-10	0.052679308	0.052679308	0	55945.16	55944.92	-2.8211805e-05	672338.4	189273.88	-0.0002540107	189276.9	672337.75	-0.00017546791
0	0.6150083	0.6150056	-1.2112174e-10	0.052325994	0.052325994	0	55905.96	55905.727	-1.0850695e-05	672577.25	188431.27	-0.000113636364	188434.33	672576.75	-7.436497e-05
0	0.6145735	0.6145709	-3.9842678e-11	0.051972385	0.051972385	0	55866.438	55866.2	-1.844618e-06	672816.5	187583.28	-4.1778076e-05	187586.3	672816	2.256016e-05
0	0.614137	0.6141345	-1.4502734e-10	0.05161864	0.05161864	0	55826.766	55826.523	-1.529948e-05	673055.2	186733.62	-0.000119485296	186736.67	673054.56	-7.018717e-05
0	0.61369735	0.6136948	-3.0121064e-10	0.051265452	0.051265456	0	55786.793	55786.56	-2.8862847e-05	673293.94	185879.4	-0.00032586898	185882.47	673293.4	-0.00012700535
0	0.613255	0.6132526	-3.9842678e-11	0.050911836	0.05091184	0	55746.594	55746.36	-4.123264e-06	673532.4	185021.75	-6.0160426e-05	185024.81	673531.8	1.671123e-06
0	0.6128102	0.6128076	-2.2949381e-10	0.050558098	0.050558098	0	55706.15	55705.91	-2.2243923e-05	673770.8	184160.36	-0.00036096256	184163.42	673770.3	-1.8382352e-05
0	0.61236215	0.6123596	-3.7611486e-10	0.050204493	0.050204493	0	55665.42	55665.188	-3.43967e-05	674009.25	183294.81	-0.0003626337	183297.86	674008.6	-0.00016794786
0	0.6119115	0.61190885	-8.4466475e-11	0.049851164	0.049851164	0	55624.45	55624.215	-4.8828124e-06	674247.3	182425.64	-0.00010528075	182428.67	674246.75	-1.8382352e-05
0	0.6114582	0.6114557	6.374828e-12	0.049497556	0.049497556	0	55583.25	55583.016	9.765625e-07	674485.2	181553.28	7.269385e-05	181556.33	674484.7	-7.352941e-05
0	0.6110012	0.61099863	-1.4024622e-10	0.049143843	0.049143843	0	55541.707	55541.477	-1.2695313e-05	674723.4	180675.3	-0.00010528075	180678.36	674722.8	-0.00011029412
0	0.6105428	0.6105402	-1.4980847e-10	0.048790246	0.048790246	0	55500.04	55499.805	-1.1610243e-05	674960.6	179796.28	-6.183155e-05	179799.36	674960.06	-0.00011196524
0	0.6100805	0.610078	-7.012311e-11	0.04843689	0.048436895	0	55458.016	55457.777	-1.7361111e-06	675198.2	178911.56	-2.8409091e-05	178914.6	675197.56	-2.5066845e-06
0	0.6096157	0.6096132	-4.016142e-10	0.0480833	0.048083298	0	55415.758	55415.53	-3.689236e-05	675435.3	178023.61	-0.00041360295	178026.66	675434.75	-0.00017045454
0	0.60914826	0.6091458	-1.0677837e-10	0.047729567	0.047729567	0	55373.277	55373.043	-1.063368e-05	675672.06	177132.5	-0.00013536097	177135.58	675671.6	-4.428476e-05
0	0.608678	0.6086755	-5.466415e-10	0.047376346	0.047376346	0	55330.52	55330.29	-4.926215e-05	675908.7	176237.48	-0.00048796792	176240.56	675908.2	-0.00032670455
0	0.60820436	0.60820186	-5.8967164e-11	0.04702275	0.047022752	0	55287.47	55287.24	-5.967882e-06	676145.1	175337.95	-5.514706e-05	175341.02	676144.7	-3.7600268e-05
0	0.60772735	0.6077249	-4.669562e-10	0.04666901	0.04666901	0	55244.113	55243.883	-4.361979e-05	676381.44	174433.92	-0.0003626337	174436.98	676381.06	-0.00032921124
0	0.60724735	0.60724497	-2.0718192e-10	0.046315428	0.046315428	0	55200.477	55200.25	-2.1375869e-05	676617.7	173525.62	-0.00022393047	173528.67	676617.25	-0.00010528075
0	0.6067657	0.6067631	-2.454309e-10	0.045962054	0.045962054	0	55156.68	55156.457	-2.2786458e-05	676853.06	172615.8	-0.00024899733	172618.86	676852.56	-0.00012533422
0	0.6062804	0.60627794	-2.8367986e-10	0.045608465	0.045608465	0	55112.574	55112.336	-2.6041667e-05	677088.4	171701.14	-0.00034425134	171704.2	677087.9	-0.00010110294
0	0.6057915	0.60578907	-5.307045e-10	0.045254763	0.045254763	0	55068.133	55067.906	-4.622396e-05	677323.56	170781.6	-0.00041443852	170784.66	677323.06	-0.00035093582
0	0.60529834	0.6052959	-4.2073867e-10	0.04490118	0.04490118	0	55023.31	55023.074	-3.7543403e-05	677558.94	169855.64	-0.00041276737	169858.7	677558.56	-0.00020053476
0	0.60480344	0.60480094	-9.084131e-11	0.04454779	0.04454779	0	54978.31	54978.086	-8.680556e-06	677793.56	168928.11	-9.8596254e-05	168931.16	677793.2	-7.1022725e-05
0	0.6043077	0.6043052	-2.6455538e-10	0.044194214	0.044194214	0	54933.25	54933.027	-1.9965279e-05	678026.75	168001.02	-0.000217246	168004.1	678026.44	-0.00013536097
0	0.60380614	0.6038037	-5.163611e-10	0.043840483	0.043840483	0	54887.652	54887.434	-4.937066e-05	678260.9	167064.7	-0.00047627004	167067.73	678260.5	-0.00033506015
0	0.6033025	0.6033	-2.677428e-10	0.0434869	0.0434869	0	54841.867	54841.645	-2.3003473e-05	678494.1	166126.2	-0.00027072194	166129.25	678493.75	-0.000115307485
0	0.60279506	0.6027927	-3.139603e-10	0.043133657	0.043133657	0	54795.746	54795.527	-3.114149e-05	678727.2	165182.88	-0.00031417113	165185.94	678726.8	-0.00018131685
0	0.602284	0.6022816	-3.7292747e-10	0.042779926	0.04277993	0	54749.285	54749.062	-3.5047742e-05	678960.2	164234.39	-0.00031584225	164237.44	678959.8	-0.00023980615
0	0.60177016	0.6017677	-1.0199725e-10	0.042426355	0.042426355	0	54702.58	54702.355	-1.0742187e-05	679192.56	163282.67	-5.013369e-05	163285.7	679192.1	-0.00011864973
0	0.6012536	0.6012513	-4.6058135e-10	0.042072944	0.042072944	0	54655.637	54655.41	-4.0690105e-05	679424.25	162327.92	-0.00045454546	162330.94	679423.94	-0.00022727273
0	0.6007331	0.60073066	-3.9683307e-10	0.04171937	0.041719373	0	54608.31	54608.086	-3.7434897e-05	679655.9	161367.31	-0.00032419787	161370.36	679655.5	-0.00029161095
0	0.60020965	0.6002072	-1.8646373e-10	0.041365683	0.041365687	0	54560.72	54560.504	-1.5082465e-05	679886.9	160403.58	-0.00023897059	160406.6	679886.56	-3.1751337e-05
0	0.5996831	0.5996806	-1.354651e-10	0.041012123	0.041012123	0	54512.85	54512.64	-1.1827257e-05	680117.5	159435.78	-0.00012032085	159438.81	680117.1	-5.6818182e-05
0	0.5991528	0.5991504	-3.0280434e-10	0.040658686	0.040658686	0	54464.65	54464.434	-2.7669272e-05	680347.75	158463.1	-0.00022727273	158466.14	680347.44	-0.00023646391
0	0.598619	0.59861654	-1.593707e-12	0.040305134	0.040305134	0	54416.12	54415.91	3.2552084e-06	680577.5	157486	4.34492e-05	157489.02	680577.2	2.5066845e-06
0	0.5980805	0.59807813	-2.2790012e-10	0.03995141	0.03995141	0	54367.184	54366.96	-2.0833333e-05	680807.4	156502.28	-0.00024398396	156505.31	680807.06	-0.00010110294
0	0.5975413	0.5975389	-1.0040355e-10	0.039597858	0.039597858	0	54318.164	54317.94	-9.006077e-06	681035.7	155519.06	-0.00018382353	155522.06	681035.4	2.9244653e-05
0	0.5969974	0.59699494	-3.2352254e-10	0.03924457	0.039244566	0	54268.715	54268.5	-2.7560764e-05	681264	154529.2	-0.000203877	154532.2	681263.7	-0.00025066844
0	0.59644777	0.5964454	-3.777086e-10	0.038890846	0.038890846	0	54218.754	54218.543	-3.4505207e-05	681492.6	153531.19	-0.00040441175	153534.2	681492.4	-0.00018549465
0	0.5958993	0.5958969	-2.3427493e-10	0.038537294	0.038537294	0	54168.895	54168.68	-2.0182291e-05	681718.94	152537	-0.00020889037	152540.02	681718.7	-0.00015040107
0	0.5953441	0.5953418	-2.677428e-10	0.03818383	0.03818383	0	54118.438	54118.223	-2.5282117e-05	681945.9	151532.92	-0.00027239305	151535.9	681945.75	-0.00010945855
0	0.5947862	0.5947839	-1.1793433e-10	0.037830282	0.037830286	0	54067.723	54067.508	-1.312934e-05	682172.06	150525.69	-0.00010695187	150528.7	682171.75	-7.352941e-05
0	0.5942234	0.5942211	-3.4264702e-10	0.037476562	0.037476562	0	54016.555	54016.34	-3.2118056e-05	682398.2	149511.58	-0.00023061497	149514.56	682397.94	-0.0002932821
0	0.5936595	0.59365726	-2.4224348e-10	0.037123065	0.037123065	0	53965.3	53965.086	-2.3003473e-05	682622.75	148497.61	-0.0002840909	148500.6	682622.5	-9.8596254e-05
0	0.59309113	0.59308887	-3.6495892e-10	0.036769573	0.036769573	0	53913.637	53913.42	-3.43967e-05	682846.94	147477.69	-0.00027907753	147480.67	682846.7	-0.00025902406
0	0.5925177	0.5925154	-6.3748284e-11	0.036416046	0.03641605	0	53861.508	53861.297	-5.533854e-06	683071	146450.78	-9.6925134e-05	146453.75	683070.8	-2.17246e-05
0	0.59194213	0.5919399	-2.1674416e-10	0.03606233	0.03606233	0	53809.195	53808.98	-1.8337674e-05	683294	145422.1	-0.00017212567	145425.08	683293.8	-0.00014204545
0	0.5913625	0.5913602	-2.1355674e-10	0.035708804	0.035708807	0	53756.496	53756.29	-2.126736e-05	683516.56	144388.03	-0.0002189171	144391.02	683516.3	-0.00012700535
0	0.5907787	0.5907763	0	0.035355475	0.03535547	0	53703.426	53703.22	-2.061632e-06	683738.4	143348.78	0	143351.73	683738.2	-8.355615e-06
0	0.59019065	0.5901885	-2.8686728e-10	0.03500176	0.03500176	0	53649.977	53649.773	-2.5499132e-05	683959.9	142304.16	-0.00026403743	142307.11	683959.7	-0.00017045454
0	0.5895994	0.5895973	-2.1355674e-10	0.034648236	0.03464824	0	53596.227	53596.027	-2.0833333e-05	684180.3	141255.98	-0.00032419787	141258.92	684180.25	-4.0942512e-05
0	0.5890039	0.58900166	-4.73331e-10	0.034294706	0.034294702	0	53542.09	53541.887	-4.578993e-05	684400.3	140202.17	-0.000421123	140205.12	684400.2	-0.0003058155
0	0.58840567	0.58840346	-5.2911076e-10	0.033941194	0.033941194	0	53487.707	53487.508	-4.6657988e-05	684619.25	139145.78	-0.00035762033	139148.72	684619	-0.00038937165
0	0.58780265	0.58780044	-2.1355674e-10	0.033587486	0.03358748	0	53432.89	53432.69	-2.0182291e-05	684837.56	138083.17	-0.00027740642	138086.08	684837.4	-7.1022725e-05
0	0.58719575	0.5871936	-2.1833788e-10	0.033234026	0.033234026	0	53377.727	53377.523	-1.8880208e-05	685055.25	137015.92	-0.00018382353	137018.83	685055.1	-0.0001278409
0	0.5865853	0.5865831	-3.171477e-10	0.032880455	0.032880455	0	53322.24	53322.035	-3.016493e-05	685272	135944.44	-0.00022727273	135947.33	685272	-0.00023145054
0	0.5859701	0.58596796	-1.5299588e-10	0.032526962	0.032526962	0	53266.312	53266.113	-1.8012153e-05	685488.25	134866.95	-0.0002840909	134869.83	685488.2	-1.5875668e-05
0	0.58535105	0.5853489	-5.418604e-11	0.03217326	0.03217326	0	53210.04	53209.84	-3.4722223e-06	685703.6	133784.9	-0.000115307485	133787.78	685703.5	3.0915777e-05
0	0.5847284	0.5847263	-6.8529404e-11	0.03181977	0.03181977	0	53153.44	53153.25	-1.1067708e-05	685918.06	132698.92	-0.00023897059	132701.8	685917.94	7.5200536e-05
0	0.5840974	0.5840953	-2.693365e-10	0.031466372	0.031466372	0	53096.07	53095.88	-2.5824653e-05	686133.1	131600.33	-0.00026069517	131603.19	686133	-0.00010778743
0	0.5834704	0.5834684	-6.3748284e-11	0.031112675	0.031112675	0	53039.082	53038.895	-4.123264e-06	686344.44	130511.29	-0.00017713904	130514.16	686344.4	0.00012700535
0	0.5828351	0.582833	-1.9921338e-10	0.030759197	0.030759197	0	52981.33	52981.133	-1.8880208e-05	686556.4	129409.836	-0.00016544118	129412.68	686556.4	-0.00016794786
0	0.58219594	0.58219385	-2.454309e-10	0.030405575	0.030405575	0	52923.227	52923.03	-2.3871527e-05	686767.3	128304.12	-0.00020721926	128306.95	686767.25	-0.0001779746
0	0.581552	0.58154994	-4.4305057e-10	0.0300521	0.0300521	0	52864.69	52864.51	-4.253472e-05	686977.44	127192.48	-0.0004645722	127195.31	686977.4	-0.00020889037
0	0.5809041	0.58090216	-2.8367986e-10	0.029698405	0.029698402	0	52805.8	52805.613	-2.6041667e-05	687186.7	126076.33	-0.00016042781	126079.15	687186.6	-0.00023897059
0	0.5802522	0.5802501	-2.5818056e-10	0.02934499	0.02934499	0	52746.54	52746.348	-2.5173611e-05	687394.9	124955.35	-0.00028074867	124958.15	687394.8	-0.00015040107
0	0.5795958	0.57959384	-4.1914497e-10	0.028991323	0.028991323	0	52686.867	52686.688	-3.667535e-05	687602.06	123829.21	-0.00040441175	123832.01	687602.06	-0.00020972594
0	0.5789348	0.5789328	-3.2192882e-10	0.028637866	0.028637862	0	52626.79	52626.6	-3.1467014e-05	687808.44	122697.555	-0.00032921124	122700.336	687808.44	-0.00016627673
0	0.5782694	0.5782674	-1.0199725e-10	0.028284186	0.028284186	0	52566.29	52566.117	-6.9444445e-06	688013.7	121560.6	-9.024064e-05	121563.38	688013.8	-1.0026738e-05
0	0.57759994	0.5775979	-4.3189463e-10	0.027930737	0.027930737	0	52505.438	52505.258	-3.8411457e-05	688218	120419.18	-0.00041778074	120421.945	688218	-0.00019802808
0	0.5769258	0.57692385	-2.4224348e-10	0.027577277	0.027577277	0	52444.16	52443.98	-2.5824653e-05	688421.1	119272.21	-0.0002907754	119274.96	688421.2	-0.00011196524
0	0.57624644	0.57624453	-5.163611e-10	0.02722359	0.02722359	0	52382.4	52382.227	-5.013021e-05	688623.56	118118.7	-0.00033756683	118121.44	688623.6	-0.00038770054
0	0.57556385	0.575562	-2.693365e-10	0.026870131	0.026870131	0	52320.36	52320.18	-2.6475695e-05	688824.44	116962.24	-0.00019385027	116964.98	688824.6	-0.000203877
0	0.5748723	0.5748704	-5.2592336e-10	0.026516462	0.026516462	0	52257.496	52257.32	-4.361979e-05	689025.5	115792.99	-0.00056985294	115795.69	689025.7	-0.00015708557
0	0.5741841	0.5741823	-4.4145687e-10	0.026162997	0.026162997	0	52194.934	52194.77	-3.732639e-05	689223.2	114631.94	-0.00033756683	114634.64	689223.25	-0.0002824198
0	0.5734862	0.5734844	-1.0518467e-10	0.02580932	0.02580932	0	52131.492	52131.33	-9.982639e-06	689421.2	113456.98	-0.00012700535	113459.65	689421.2	-4.1778076e-05
0	0.5727853	0.57278347	-3.9205195e-10	0.025455918	0.02545592	0	52067.773	52067.605	-3.4939236e-05	689617.44	112279.29	-0.00038435828	112281.945	689617.56	-0.00016544118
0	0.57207906	0.57207733	-2.5021202e-10	0.025102247	0.025102247	0	52003.582	52003.414	-2.5607638e-05	689812.75	111095.37	-0.00025066844	111098.03	689812.8	-0.000121156416
0	0.5713666	0.5713649	-4.3667575e-10	0.024748778	0.024748778	0	51938.812	51938.652	-3.9279515e-05	690007.25	109903.47	-0.00041778074	109906.125	690007.3	-0.00023980615
0	0.57065237	0.5706505	-2.8208616e-10	0.024395123	0.024395123	0	51873.883	51873.72	-2.452257e-05	690199.6	108710.97	-0.00041778074	108713.59	690199.75	2.3395722e-05
0	0.5699318	0.56993014	-4.3826945e-10	0.024041647	0.024041647	0	51808.383	51808.227	-3.90625e-05	690391.1	107510.77	-0.00032085562	107513.38	690391.3	-0.00025484627
0	0.5692066	0.5692048	-1.2909028e-10	0.023688173	0.023688173	0	51742.46	51742.3	-1.1067708e-05	690581.44	106305.16	-2.6737967e-05	106307.74	690581.6	-0.00014872995
0	0.568476	0.5684743	-2.6296168e-10	0.023334505	0.023334505	0	51676.05	51675.9	-2.1918402e-05	690770.4	105093.43	-0.00036764707	105096.016	690770.6	-1.50401065e-05
0	0.5677406	0.5677389	3.5380296e-10	0.022981025	0.022981025	0	51609.195	51609.04	3.5590278e-05	690958.1	103876.12	0.00021557487	103878.695	690958.3	0.0003342246
0	0.56699985	0.56699824	-1.8646373e-10	0.022627382	0.022627383	0	51541.863	51541.715	-1.4539931e-05	691144.5	102652.8	-0.00025902406	102655.336	691144.7	2.5066845e-05
0	0.56625503	0.56625336	-2.4383717e-10	0.022273894	0.022273894	0	51474.16	51474	-1.9097222e-05	691329.3	101425.18	-0.00022058823	101427.7	691329.56	-9.5254014e-05
0	0.5655041	0.5655024	-5.593912e-10	0.021920241	0.021920241	0	51405.883	51405.74	-5.078125e-05	691513	100190.2	-0.0005832219	100192.71	691513.2	-0.00021975268
0	0.564749	0.5647474	-2.1355674e-10	0.02156683	0.02156683	0	51337.254	51337.105	-1.953125e-05	691694.9	98951.21	-0.00011864973	98953.68	691695.1	-0.00019050803
0	0.5639883	0.5639868	-2.9483582e-10	0.021213178	0.021213178	0	51268.11	51267.965	-2.5607638e-05	691875.56	97705.7	-0.0001737968	97708.18	691875.75	-0.00022727273
0	0.56322217	0.56322056	-8.4466475e-11	0.020859685	0.020859685	0	51198.46	51198.316	-8.680556e-06	692054.7	96453.85	-0.00022727273	96456.3	692054.94	0.0001128008
0	0.5624511	0.56244963	-4.781121e-10	0.020506062	0.020506063	0	51128.37	51128.227	-4.296875e-05	692232.3	95196.85	-0.00054812833	95199.28	692232.56	-0.00021139705
0	0.561675	0.5616734	-2.9005467e-10	0.020152567	0.020152567	0	51057.812	51057.676	-2.734375e-05	692408.3	93934.21	-0.00024899733	93936.625	692408.6	-0.00015123663
0	0.56089336	0.5608918	-3.3149108e-10	0.019798929	0.019798929	0	50986.76	50986.625	-2.9513889e-05	692582.8	92665.43	-0.0003409091	92667.83	692583.06	-0.000115307485
0	0.56010586	0.56010437	-5.1317367e-10	0.019445423	0.019445425	0	50915.18	50915.05	-4.3836804e-05	692755.8	91390.04	-0.00045287434	91392.414	692756.1	-0.0003099933
0	0.5593133	0.5593119	-2.9802322e-10	0.019091915	0.019091915	0	50843.14	50843.008	-2.7126736e-05	692927.2	90109.22	-0.00038602942	90111.57	692927.44	-8.272059e-05
0	0.55851567	0.5585143	-4.3348833e-10	0.018738281	0.018738281	0	50770.625	50770.496	-3.949653e-05	693096.75	88822.88	-0.0004578877	88825.21	693097.06	-0.00016293449
0	0.55771244	0.55771106	-3.5061556e-10	0.018384786	0.018384786	0	50697.61	50697.484	-3.2552085e-05	693264.6	87530.445	-0.00041109626	87532.76	693265	-0.00010778743
0	0.5569031	0.5569017	-2.5180572e-10	0.018031165	0.018031165	0	50624.035	50623.906	-2.1918402e-05	693431	86231.016	-0.00021390374	86233.29	693431.3	-0.00013870321
0	0.55608875	0.5560874	-1.6893295e-10	0.017677736	0.017677736	0	50550.016	50549.887	-1.6927082e-05	693595.5	84926.484	-0.00018716577	84928.75	693595.75	-6.9351605e-05
0	0.55526835	0.5552671	-3.2192882e-10	0.01732412	0.01732412	0	50475.434	50475.316	-2.6041667e-05	693758.25	83615.2	-0.00023897059	83617.44	693758.6	-0.0001821524
0	0.5544425	0.5544412	1.9283855e-10	0.016970595	0.016970597	0	50400.37	50400.25	1.8663195e-05	693919.3	82298.09	5.013369e-05	82300.31	693919.6	0.00020304145
0	0.553611	0.5536096	-2.454309e-10	0.016617013	0.016617013	0	50324.773	50324.656	-2.4088542e-05	694078.4	80974.78	-0.00015708557	80976.96	694078.75	-0.00019468582
0	0.5527725	0.5527713	-2.8527355e-10	0.016263481	0.016263481	0	50248.555	50248.44	-2.8211805e-05	694235.9	79643.53	-0.00028074867	79645.7	694236.25	-0.00015207219
0	0.5519281	0.5519268	-2.3268124e-10	0.015909884	0.015909884	0	50171.797	50171.676	-1.8880208e-05	694391.4	78305.72	-0.00018048128	78307.87	694391.8	-0.00014705882
0	0.5510807	0.5510796	-2.6455538e-10	0.015556337	0.015556337	0	50094.773	50094.66	-2.0182291e-05	694544.56	76966.38	-0.00032085562	76968.484	694545	-1.9217914e-05
0	0.55022573	0.55022454	-1.3705881e-10	0.015202788	0.015202788	0	50017.055	50016.945	-1.3237847e-05	694696.06	75617.95	-0.0001236631	75620.03	694696.44	-9.6925134e-05
0	0.549364	0.5493629	-7.012311e-11	0.014849201	0.014849203	0	49938.71	49938.61	-1.0416667e-05	694845.7	74261.805	-0.00015374331	74263.875	694846.1	1.8382352e-05
0	0.54849654	0.5484954	-1.5937071e-10	0.0144956615	0.0144956615	0	49859.863	49859.758	-1.3888889e-05	694993.2	72899.91	-0.00012700535	72901.945	694993.75	-0.00011614305
0	0.5476239	0.5476228	-2.008071e-10	0.014142092	0.014142093	0	49780.535	49780.438	-1.5842013e-05	695138.56	71532.91	-0.00028743315	71534.91	695139.06	1.671123e-06
0	0.5467448	0.54674375	-3.856771e-10	0.013788639	0.013788639	0	49700.625	49700.53	-3.515625e-05	695281.94	70158.85	-0.0005180481	70160.84	695282.5	-6.5173794e-05
0	0.545859	0.54585797	-1.7530778e-10	0.013435067	0.013435066	0	49620.1	49620.004	-1.4756944e-05	695423.25	68777.41	-0.00023061497	68779.36	695423.7	-2.6737967e-05
0	0.5449672	0.5449662	-2.1674416e-10	0.013081498	0.013081498	0	49539.035	49538.945	-1.9965279e-05	695562.3	67389.86	-0.0001737968	67391.78	695562.8	-0.00013953877
0	0.54406893	0.5440679	-3.7292747e-10	0.012727959	0.012727959	0	49457.375	49457.29	-3.4288194e-05	695699.25	65995.39	-0.0005514706	65997.29	695699.7	1.9217914e-05
0	0.54316336	0.5431624	-1.9443226e-10	0.012374389	0.012374389	0	49375.062	49374.977	-1.844618e-05	695834.06	64592.816	-0.000217246	64594.688	695834.6	-8.0213904e-05
0	0.5422533	0.5422523	1.6893295e-10	0.012020824	0.0120208245	0	49292.332	49292.246	1.4322916e-05	695966.25	63186.414	0.00018382353	63188.254	695966.94	9.358289e-05
0	0.5413355	0.5413347	4.7811213e-11	0.0116672525	0.0116672525	0	49208.902	49208.824	5.2083333e-06	696096.5	61771.484	-7.018717e-05	61773.293	696097.06	0.00017296123
0	0.54041153	0.54041064	-4.1755124e-10	0.011313691	0.011313691	0	49124.91	49124.836	-3.7109374e-05	696224.25	60350.105	-0.00040106953	60351.87	696224.9	-0.0002105615
0	0.5394809	0.53948015	-1.8805743e-10	0.010960121	0.010960121	0	49040.316	49040.24	-1.8012153e-05	696349.56	58921.938	-0.0002406417	58923.684	696350.2	-7.5200536e-05
0	0.5385439	0.5385431	-1.5937071e-10	0.010606589	0.010606589	0	48955.137	48955.066	-1.7361112e-05	696472.56	57487.14	-0.00020721926	57488.85	696473.1	-1.50401065e-05
0	0.5375996	0.53759885	-5.7373453e-11	0.010253032	0.010253032	0	48869.3	48869.23	-3.689236e-06	696593.06	56044.684	-0.00013368984	56046.355	696593.7	3.9271392e-05
0	0.53664833	0.5366477	-5.4823523e-10	0.009899464	0.009899464	0	48782.83	48782.76	-4.8177084e-05	696711.25	54594.87	-0.0005414439	54596.52	696711.8	-0.00029411764
0	0.5356912	0.5356905	-1.7212036e-10	0.009545958	0.009545958	0	48695.82	48695.758	-1.8012153e-05	696826.7	53139.47	-0.00020721926	53141.07	696827.3	-6.851604e-05
0	0.5347267	0.53472596	5.0998625e-11	0.009192393	0.009192393	0	48608.133	48608.074	5.2083333e-06	696939.56	51676.152	-0.00023395722	51677.72	696940.2	0.00028074867
0	0.5337551	0.53375447	1.4024622e-10	0.008838868	0.008838868	0	48519.82	48519.766	1.4756944e-05	697049.75	50205.824	0.00012700535	50207.35	697050.5	0.00011447193
0	0.5327764	0.53277576	-1.8168261e-10	0.008485299	0.008485299	0	48430.85	48430.797	-2.0182291e-05	697157.5	48727.965	-0.00018382353	48729.465	697158.1	-0.00010778743
0	0.5317909	0.5317904	-1.2749657e-10	0.008131741	0.008131741	0	48341.273	48341.22	-1.3671875e-05	697262.4	47243.504	-0.00023729946	47244.957	697262.94	2.5066845e-06
0	0.530798	0.53079754	-5.418604e-11	0.0077781687	0.0077781687	0	48251.016	48250.97	-3.90625e-06	697364.56	45751.297	-0.00019385027	45752.72	697365.25	9.024064e-05
0	0.529798	0.5297975	-8.9247595e-11	0.0074246014	0.0074246004	0	48160.098	48160.055	-1.953125e-06	697463.94	44251.82	-0.00011697861	44253.207	697464.56	-8.355615e-07
0	0.5287904	0.52879	-1.4662105e-10	0.0070710466	0.0070710466	0	48068.523	48068.48	-1.2803819e-05	697560.44	42744.86	-0.00027740642	42746.21	697561.1	8.439171e-05
0	0.5277757	0.5277753	-2.8686728e-10	0.0067175333	0.006717533	0	47976.277	47976.24	-2.4739584e-05	697654.1	41230.566	-0.00035427808	41231.875	697654.75	-5.9324866e-05