# t (s)	mx ()	my ()	mz ()	B_extx (T)	B_exty (T)	B_extz (T)	m_fullx (A/m)	m_fully (A/m)	m_fullz (A/m)	m_full.region1x (A/m)	m_full.region1y (A/m)	m_full.region1z (A/m)	m_full.region2x (A/m)	m_full.region2y (A/m)	m_full.region2z (A/m)
0	0.636242	0.6362392	-1.1807386e-12	0.07071097	0.07071097	0	45069.727	45069.53	4.1185804e-06	658876.3	231859.36	-0.00013983066	231862.47	658875.5	0.00022122852
0	0.6359244	0.63592154	-1.9911847e-10	0.070357	0.070357	0	45047.234	45047.03	-1.8471128e-05	659118	231173	-0.00019449844	231176.19	659117.2	-0.000170557
0	0.6355991	0.63559616	-1.9140584e-10	0.07000352	0.07000352	0	45024.188	45023.98	-8.4566e-06	659364.56	230470.9	-0.00016851125	230474.1	659363.75	1.3786288e-06
0	0.63527524	0.6352723	3.1377814e-11	0.0696501	0.0696501	0	45001.246	45001.047	6.2524246e-06	659609.06	229773.05	9.926891e-05	229776.23	659608.3	2.4301324e-05
0	0.6349476	0.6349448	-3.5807277e-10	0.069296405	0.069296405	0	44978.04	44977.836	-2.2344035e-05	659854.9	229068.58	-0.00022990661	229071.8	659854.06	-0.00021169131
0	0.634619	0.6346162	-1.9786417e-10	0.068943016	0.068943016	0	44954.766	44954.562	-1.7254986e-05	660100.2	228363.28	-0.00018203376	228366.48	660099.4	-0.00015898637
0	0.6342875	0.6342846	-3.0011454e-10	0.0685895	0.0685895	0	44931.273	44931.07	-1.7758353e-05	660346.5	227652.78	-0.00027171758	227656.02	660345.6	-7.925091e-05
0	0.6339542	0.63395137	-4.7464854e-10	0.06823556	0.06823556	0	44907.67	44907.465	-3.5731704e-05	660592.5	226940.12	-0.00042515312	226943.38	660591.8	-0.00028103287
0	0.6336186	0.6336158	9.269833e-12	0.067882404	0.067882404	0	44883.9	44883.695	4.8510844e-07	660839.2	226223.66	-9.825077e-05	226226.9	660838.4	0.00010783825
0	0.6332799	0.63327706	-1.9814478e-10	0.06752848	0.06752848	0	44859.906	44859.703	-1.5422444e-05	661086.6	225501.97	-0.00011556504	225505.22	661085.9	-0.00018923751
0	0.6329417	0.63293886	-2.1081685e-10	0.067174956	0.067174956	0	44835.945	44835.746	-9.369089e-06	661332.6	224782.55	-9.40032e-05	224785.78	661331.8	-9.116344e-05
0	0.63259995	0.632597	-3.859421e-10	0.066821866	0.066821866	0	44811.734	44811.527	-3.2746433e-05	661579.8	224056.8	-0.00038225827	224060.02	661579.1	-0.00026492818
0	0.63225603	0.6322531	-4.0708079e-10	0.066467956	0.066467956	0	44787.37	44787.168	-2.6462763e-05	661827.25	223327.92	-0.0003067786	223331.14	661826.5	-0.00021622005
0	0.63191015	0.63190734	-1.281099e-10	0.06611443	0.06611443	0	44762.88	44762.676	-9.57217e-06	662074.56	222596.45	-0.00015385413	222599.72	662073.8	-3.5326128e-05
0	0.63156265	0.63155967	-4.3071818e-10	0.065760985	0.065760985	0	44738.258	44738.05	-2.3730212e-05	662321.8	221862.53	-0.00030833296	221865.78	662321.2	-0.00016066075
0	0.6312124	0.63120955	-3.4382158e-10	0.065407366	0.065407366	0	44713.445	44713.246	-2.5549234e-05	662569.8	221124.34	-0.00018013065	221127.61	662569	-0.00032481342
0	0.63086	0.6308571	-2.1310352e-10	0.06505393	0.06505393	0	44688.484	44688.28	-9.4813095e-06	662817.7	220383.1	-9.33451e-05	220386.39	662816.94	-9.403942e-05
0	0.6305059	0.6305031	-7.0219663e-10	0.06470037	0.06470037	0	44663.4	44663.2	-4.2063024e-05	663065.44	219639.56	-0.00040921077	219642.84	663064.7	-0.00042210476
0	0.6301495	0.6301467	-3.830264e-10	0.0643465	0.0643465	0	44638.152	44637.95	-2.7715525e-05	663313.5	218892.5	-0.00025303394	218895.78	663312.75	-0.00029472378
0	0.6297907	0.62978786	-2.3814037e-10	0.06399331	0.06399331	0	44612.742	44612.54	-1.4130882e-05	663561.75	218142.03	-0.00017082265	218145.31	663561	-0.00010845405
0	0.6294305	0.6294275	-3.553726e-10	0.06363943	0.06363943	0	44587.22	44587.02	-2.7378224e-05	663809.75	217389.62	-0.00031201643	217392.92	663808.94	-0.00022907501
0	0.62906706	0.6290642	-3.4564854e-10	0.06328587	0.06328587	0	44561.477	44561.273	-2.7300752e-05	664058.4	216632.19	-0.00032217748	216635.48	664057.7	-0.00021738287
0	0.6287021	0.6286992	-4.6407624e-11	0.062932774	0.062932774	0	44535.62	44535.418	-3.354493e-07	664306.75	215872.89	-0.00010236132	215876.19	664306	9.5731644e-05
0	0.6283345	0.6283317	-3.6045672e-10	0.06257892	0.06257892	0	44509.586	44509.383	-2.8281653e-05	664555.4	215109.7	-0.0003616288	215113.02	664554.6	-0.00019731763
0	0.62796456	0.6279617	-1.928438e-10	0.06222535	0.06222535	0	44483.38	44483.176	-1.1840179e-05	664804.25	214342.8	-0.00016864139	214346.1	664803.56	-6.5362816e-05
0	0.6275924	0.62758946	-2.9663022e-10	0.061871868	0.061871868	0	44457.02	44456.81	-1.8625586e-05	665053.2	213572.84	-0.00023680645	213576.14	665052.56	-0.00013130163
0	0.62721837	0.6272155	-3.320977e-10	0.06151831	0.06151831	0	44430.516	44430.32	-2.4920906e-05	665301.8	212800.52	-0.00033994904	212803.84	665301.1	-0.00015257708
0	0.62684107	0.62683815	-2.9409783e-10	0.06116485	0.06116485	0	44403.79	44403.586	-2.2338398e-05	665551.2	212022.94	-0.00022290295	212026.25	665550.56	-0.00021858353
0	0.6264626	0.6264598	-3.341775e-10	0.06081125	0.06081125	0	44376.98	44376.777	-2.3973935e-05	665800	211244.33	-0.00023049008	211247.66	665799.3	-0.00024332045
0	0.6260811	0.62607825	-1.7928845e-10	0.06045742	0.06045742	0	44349.957	44349.758	-1.3393501e-05	666049.25	210460.94	-0.00022587783	210464.25	666048.6	-3.8825587e-05
0	0.62569755	0.6256947	-6.019206e-10	0.06010422	0.06010422	0	44322.79	44322.582	-3.8940692e-05	666298.4	209674.81	-0.00047110522	209678.12	666297.7	-0.0002985019
0	0.62531054	0.6253077	-3.3392597e-10	0.059750397	0.059750397	0	44295.37	44295.17	-2.1893182e-05	666548.2	208883.25	-0.00018985689	208886.56	666547.56	-0.00024283056
0	0.62492096	0.6249181	-2.0703907e-10	0.059396796	0.059396796	0	44267.785	44267.582	-1.4128239e-05	666798.1	208087.95	-0.00020962716	208091.3	666797.44	-6.9597285e-05
0	0.6245308	0.624528	-2.3090145e-10	0.059043687	0.059043687	0	44240.14	44239.938	-1.9122195e-05	667047	207292.73	-0.00025985474	207296.08	667046.44	-0.0001180681
0	0.6241384	0.62413555	-3.1937197e-10	0.05868988	0.05868988	0	44212.34	44212.137	-2.1000049e-05	667295.9	206494.47	-0.00023018259	206497.78	667295.25	-0.00018485337
0	0.6237425	0.62373966	-5.116911e-10	0.058336265	0.058336265	0	44184.305	44184.098	-3.5105775e-05	667545.4	205690.83	-0.00027952596	205694.19	667544.7	-0.00041428948
0	0.6233444	0.6233416	-2.3069585e-10	0.057982735	0.057982735	0	44156.1	44155.902	-1.8028095e-05	667794.6	204884.23	-0.00020599768	204887.58	667794	-0.00015030183
0	0.62294346	0.6229406	-7.068719e-10	0.057629257	0.057629257	0	44127.695	44127.492	-4.359106e-05	668044.3	204073.14	-0.00045996794	204076.53	668043.6	-0.00040154703
0	0.6225407	0.6225379	-4.61905e-10	0.05727573	0.05727573	0	44099.168	44098.97	-3.293873e-05	668293.4	203260.25	-0.0002639636	203263.6	668292.8	-0.0003870233
0	0.6221345	0.6221318	-3.7224643e-10	0.056922108	0.056922108	0	44070.395	44070.195	-2.0372074e-05	668543.1	202441.94	-0.00021433612	202445.31	668542.56	-0.00018828879
0	0.6217266	0.6217238	-2.5489774e-10	0.056568343	0.056568343	0	44041.496	44041.293	-1.3613171e-05	668792.44	201621.44	-0.00015408397	201624.77	668791.75	-0.000114960894
0	0.6213149	0.621312	-8.56728e-10	0.05621512	0.05621512	0	44012.33	44012.133	-5.8317753e-05	669042.4	200795.11	-0.0005359389	200798.47	669041.75	-0.0006166281
0	0.62090087	0.62089807	-1.9772724e-10	0.055861373	0.055861373	0	43983.008	43982.805	-1.2907396e-05	669292.06	199965.73	-0.00032730857	199969.08	669291.5	7.221236e-05
0	0.62048334	0.6204805	-3.3330338e-10	0.055507712	0.055507712	0	43953.43	43953.227	-2.7863749e-05	669542.3	199131.03	-0.00031660925	199134.4	669541.75	-0.00023407792
0	0.62006736	0.62006456	-4.2549547e-10	0.055154584	0.055154584	0	43923.957	43923.76	-2.8183707e-05	669790.25	198300.66	-0.0003200692	198304	669789.6	-0.00023694147
0	0.6196457	0.61964285	-1.540348e-10	0.05480085	0.05480085	0	43894.09	43893.895	-1.0108843e-05	670039.6	197460.97	-0.00019817249	197464.31	670039	-1.614344e-06
0	0.6192216	0.6192188	-1.7301822e-10	0.05444718	0.05444718	0	43864.047	43863.85	-8.8341885e-06	670289	196617.86	-8.57486e-05	196621.23	670288.44	-8.88465e-05
0	0.6187946	0.6187918	-3.125441e-10	0.054093607	0.054093607	0	43833.805	43833.605	-1.9995885e-05	670538.4	195770.7	-0.00018939431	195774.05	670537.8	-0.00020579579
0	0.61836606	0.61836326	-7.935486e-11	0.053740222	0.053740222	0	43803.445	43803.25	-4.0193495e-06	670787.06	194922.05	-0.00012068512	194925.4	670786.56	4.1248426e-05
0	0.61793315	0.61793035	-4.0888928e-10	0.053386647	0.053386647	0	43772.773	43772.574	-2.4503697e-05	671036.7	194066.31	-0.00041932083	194069.67	671036.06	-6.495971e-05
0	0.6174993	0.6174966	-3.401085e-11	0.053032976	0.053032976	0	43742.05	43741.85	-8.86079e-06	671285	193210.72	-5.817601e-05	193214.06	671284.5	-0.00011694486
0	0.6170614	0.61705863	-1.1108471e-10	0.052679278	0.052679278	0	43711.027	43710.832	-8.213804e-06	671534.06	192348.53	9.227279e-05	192351.9	671533.5	-0.0002546069
0	0.6166215	0.6166186	-7.905168e-11	0.052326016	0.052326016	0	43679.863	43679.664	-8.620229e-06	671782.7	191483.98	-9.929487e-05	191487.34	671782.1	-7.107163e-05
0	0.6161788	0.616176	-1.5354278e-10	0.05197235	0.05197235	0	43648.51	43648.31	-9.190609e-06	672031.1	190615.9	-0.00015381518	190619.27	672030.56	-2.7824051e-05
0	0.6157323	0.6157295	-2.0171607e-10	0.05161863	0.05161863	0	43616.87	43616.676	-1.5465692e-05	672279.8	189741.92	-0.00020896713	189745.28	672279.4	-9.669015e-05
0	0.6152836	0.61528087	-1.9169663e-10	0.051265486	0.051265486	0	43585.094	43584.9	-1.416287e-05	672528.25	188865.44	-0.00013125487	188868.78	672527.75	-0.00014865401
0	0.6148327	0.6148299	-9.198195e-11	0.050911825	0.050911825	0	43553.15	43552.957	6.016635e-08	672776.1	187986.2	-8.0751655e-05	187989.56	672775.6	8.194076e-05
0	0.61437815	0.61437535	-2.5788072e-10	0.050558098	0.050558098	0	43520.95	43520.758	-2.045566e-05	673024.3	187101.64	-0.00026154556	187105.03	673023.8	-0.00014273134
0	0.61392117	0.61391836	-4.1212872e-10	0.050204474	0.050204474	0	43488.58	43488.383	-2.9425346e-05	673272.06	186214.16	-0.00028350358	186217.52	673271.56	-0.00029804633
0	0.6134604	0.6134577	-2.8613587e-10	0.049851187	0.049851187	0	43455.938	43455.742	-2.3894157e-05	673520.06	185321.14	-0.0002611518	185324.5	673519.5	-0.00021108206
0	0.61299735	0.6129946	-4.5562515e-10	0.04949756	0.04949756	0	43423.14	43422.94	-3.2620348e-05	673767.5	184425.36	-0.00034056322	184428.7	673767.06	-0.00030413133
0	0.61252993	0.6125272	-3.707651e-10	0.04914384	0.04914384	0	43390.027	43389.836	-2.3216136e-05	674015.5	183523.03	-0.00021225016	183526.4	674015.06	-0.0002465836
0	0.61206174	0.612059	-3.0389358e-10	0.048790213	0.048790213	0	43356.863	43356.668	-1.6313294e-05	674262.25	182620.81	-0.00023284268	182624.16	674261.8	-8.956624e-05
0	0.61158955	0.6115868	-1.16174424e-10	0.048436925	0.048436925	0	43323.414	43323.227	-1.3489256e-05	674509.2	181712.78	-8.5112915e-05	181716.19	674508.8	-0.00018148296
0	0.6111136	0.6111109	-2.0792489e-10	0.0480833	0.0480833	0	43289.7	43289.508	-1.6335229e-05	674756.25	180799.39	-0.00018458063	180802.78	674755.9	-0.00013826184
0	0.6106358	0.6106331	-4.4936427e-10	0.04772956	0.04772956	0	43255.855	43255.664	-3.6604673e-05	675002.6	179884.17	-0.00035099842	179887.55	675002.2	-0.00037244064
0	0.6101541	0.6101513	-1.4368745e-10	0.047376387	0.047376387	0	43221.727	43221.54	-9.68966e-06	675249.06	178963.16	-0.00024296308	178966.52	675248.7	5.1460796e-05
0	0.60967064	0.6096679	-2.5378933e-11	0.047022752	0.047022752	0	43187.48	43187.29	-7.1318063e-06	675494.7	178040.8	-0.00014607748	178044.14	675494.25	5.1275238e-06
0	0.60918295	0.6091803	-3.9690534e-10	0.04666901	0.04666901	0	43152.94	43152.75	-2.7080552e-05	675740.44	177112.28	-0.00033424865	177115.66	675740.06	-0.00020095977
0	0.6086921	0.6086895	-3.1463546e-10	0.0463154	0.0463154	0	43118.168	43117.98	-2.159031e-05	675986	176179.6	-0.00027373896	176182.94	675985.6	-0.00015296263
0	0.60819805	0.60819536	-2.8460154e-10	0.045962088	0.045962088	0	43083.168	43082.98	-2.2040764e-05	676231.3	175242.55	-0.00024311579	175245.89	676230.94	-0.0001924884
0	0.6077013	0.6076987	-2.7628813e-10	0.04560847	0.04560847	0	43047.984	43047.793	-2.4848214e-05	676476	174302.45	-0.00036626877	174305.78	676475.6	-0.00012482064
0	0.60719466	0.607192	-2.8873673e-10	0.04525476	0.04525476	0	43012.086	43011.9	-2.5122485e-05	676723.94	173345.27	-0.0003130401	173348.6	676723.5	-0.0001834699
0	0.6066976	0.606695	-3.7173792e-10	0.04490114	0.04490114	0	42976.883	42976.7	-2.3491095e-05	676964.8	172408.56	-0.00030770473	172411.89	676964.5	-0.00015656318
0	0.6061907	0.60618806	-4.3038573e-10	0.04454782	0.04454782	0	42940.973	42940.79	-3.0153848e-05	677208.9	171454.73	-0.00033098727	171458.06	677208.56	-0.0002649604
0	0.6056808	0.6056782	-3.5277442e-10	0.044194218	0.044194218	0	42904.85	42904.668	-2.4012643e-05	677452.44	170497.42	-0.00027608563	170500.75	677452.06	-0.00019848994
0	0.6051675	0.6051649	-1.9518359e-10	0.043840475	0.043840475	0	42868.492	42868.31	-1.1079634e-05	677695.6	169535.52	-3.9017876e-05	169538.86	677695.25	-0.00017995524
0	0.6046511	0.6046484	-1.6249144e-10	0.043486863	0.043486863	0	42831.914	42831.727	-1.36349845e-05	677938.4	168569.77	-0.0001541488	168573.1	677938.06	-0.00011532718
0	0.6041308	0.6041281	-2.0540883e-10	0.04313367	0.04313367	0	42795.05	42794.867	-1.6571343e-05	678180.94	167598.8	-0.00019867728	167602.11	678180.6	-0.00012883163
0	0.60360706	0.6036044	-2.3584898e-10	0.042779926	0.042779926	0	42757.953	42757.77	-1.3403932e-05	678423.1	166623.33	-0.00023462505	166626.64	678422.8	-3.028451e-05
0	0.6030808	0.60307825	-3.715546e-10	0.042426325	0.042426325	0	42720.68	42720.5	-2.7941182e-05	678664.44	165645.31	-0.0002843372	165648.64	678664.2	-0.00026788033
0	0.6025506	0.60254806	-2.6057484e-10	0.042072985	0.042072985	0	42683.117	42682.94	-1.6879425e-05	678905.75	164661.83	-0.00015117096	164665.12	678905.44	-0.00018242674
0	0.6020169	0.60201436	-2.27904e-10	0.041719384	0.041719384	0	42645.312	42645.133	-1.6774236e-05	679146.56	163673.83	-0.00024675266	163677.14	679146.25	-8.4766114e-05
0	0.60147834	0.60147583	-5.543218e-10	0.041365676	0.041365676	0	42607.164	42606.99	-3.377191e-05	679387.44	162678.97	-0.0004354725	162682.25	679387.2	-0.00023198104
0	0.60093886	0.6009363	-3.348963e-10	0.04101209	0.04101209	0	42568.945	42568.77	-2.2294224e-05	679626.94	161684.2	-0.00028789177	161687.5	679626.6	-0.00015272168
0	0.600394	0.60039145	-1.7739031e-10	0.040658716	0.040658716	0	42530.35	42530.168	-1.2853785e-05	679866.5	160681.75	-0.00014231139	160685.03	679866.3	-0.000111725305
0	0.59984607	0.5998436	-2.7846248e-10	0.040305134	0.040305134	0	42491.54	42491.367	-2.0659407e-05	680105.5	159675.81	-0.00024974844	159679.1	680105.2	-0.0001585552
0	0.5992951	0.59929264	-3.0410238e-10	0.0399514	0.0399514	0	42452.508	42452.332	-2.4384402e-05	680343.7	158666.1	-0.00026600485	158669.38	680343.5	-0.00021591801
0	0.5987406	0.59873813	-2.645081e-10	0.039597817	0.039597817	0	42413.227	42413.055	-2.0931833e-05	680581.4	157652.19	-0.00033850461	157655.45	680581.2	-7.5183125e-05
0	0.5981814	0.5981789	-1.888062e-10	0.039244577	0.039244577	0	42373.613	42373.438	-1.1709519e-05	680819	156631.66	-0.00016347105	156634.92	680818.9	-6.7950845e-05
0	0.597619	0.59761655	-3.2730574e-10	0.038890842	0.038890842	0	42333.78	42333.6	-2.2516213e-05	681055.9	155607.5	-0.00032877835	155610.77	681055.6	-0.000116222414
0	0.59705263	0.5970502	-2.2129353e-10	0.03853726	0.03853726	0	42293.656	42293.484	-1.4889697e-05	681292.2	154578.23	-0.00019441606	154581.48	681291.94	-9.985753e-05
0	0.5964829	0.5964805	-2.6791777e-10	0.038183875	0.038183875	0	42253.3	42253.13	-1.978038e-05	681527.8	153544.94	-0.00020658514	153548.22	681527.75	-0.00018434582
0	0.59590906	0.59590656	-1.5882573e-10	0.037830293	0.037830293	0	42212.65	42212.477	-1.3250026e-05	681763.06	152506.31	-0.0001205	152509.56	681762.9	-0.00014136784
0	0.5953319	0.5953296	-2.499983e-10	0.037476562	0.037476562	0	42171.773	42171.598	-1.558568e-05	681997.5	151464.02	-0.00026302677	151467.23	681997.3	-4.5001925e-05
0	0.5947504	0.594748	-2.829245e-10	0.037123032	0.037123032	0	42130.574	42130.402	-1.9537343e-05	682231.44	150415.88	-0.0001484191	150419.1	682231.4	-0.00023770856
0	0.59416604	0.5941636	-1.2839256e-10	0.036769606	0.036769606	0	42089.18	42089.008	-7.979103e-06	682464.44	149364.77	-0.00014978042	149368	682464.3	-7.915151e-06
0	0.59357584	0.59357333	-2.0437922e-10	0.03641605	0.03641605	0	42047.367	42047.2	-1.6359441e-05	682697.44	148305.4	-9.683381e-05	148308.61	682697.3	-0.00022648719
0	0.5929835	0.5929811	-2.8253433e-10	0.036062315	0.036062315	0	42005.406	42005.242	-2.3978359e-05	682929.2	147244.45	-0.00028760455	147247.67	682929.06	-0.00018629343
0	0.5923863	0.5923839	-2.8266564e-10	0.035708763	0.035708763	0	41963.105	41962.94	-1.8504576e-05	683160.56	146177.02	-0.0002390138	146180.22	683160.44	-0.00012670271
0	0.59178644	0.59178406	-3.07766e-10	0.035355486	0.035355486	0	41920.613	41920.445	-2.007301e-05	683390.9	145106.95	-0.00027603604	145110.16	683390.7	-0.00012067834
0	0.5911802	0.5911778	-6.0510924e-10	0.03500176	0.03500176	0	41877.664	41877.504	-4.105274e-05	683621.1	144027.95	-0.0004040807	144031.11	683621.06	-0.00040726806
0	0.5905727	0.5905704	-2.231934e-10	0.034648202	0.034648202	0	41834.633	41834.47	-1.7655624e-05	683849.75	142948.86	-0.00028100357	142952.02	683849.7	-6.793463e-05
0	0.58995986	0.58995754	-4.878131e-10	0.03429475	0.03429475	0	41791.223	41791.06	-4.1008905e-05	684078	141862.56	-0.0004364225	141865.72	684077.94	-0.00037405983
0	0.5893426	0.58934027	-1.3886353e-10	0.033941202	0.033941202	0	41747.496	41747.336	-6.638639e-06	684305.7	140770.75	-0.00028370714	140773.9	684305.6	0.00015250391
0	0.5887216	0.58871937	-3.1970804e-10	0.033587478	0.033587478	0	41703.508	41703.35	-1.8989173e-05	684532.4	139674.66	-0.0002714173	139677.8	684532.4	-0.00010387656
0	0.5880967	0.5880943	-2.721958e-10	0.033233978	0.033233978	0	41659.24	41659.074	-1.9529694e-05	684758.2	138573.88	-0.00033269014	138577.03	684758.2	-5.3286352e-05
0	0.587467	0.58746475	-3.194983e-10	0.032880493	0.032880493	0	41614.633	41614.48	-2.0908945e-05	684983.4	137467.27	-0.00026063	137470.36	684983.4	-0.00015260538
0	0.5868336	0.58683145	-3.7341405e-10	0.032526966	0.032526966	0	41569.77	41569.613	-2.429282e-05	685207.56	136356.4	-0.0002617433	136359.52	685207.56	-0.00021836956
0	0.5861954	0.58619326	-3.384238e-10	0.03217325	0.03217325	0	41524.562	41524.402	-2.2639262e-05	685431	135239.42	-0.00040226599	135242.52	685431.1	-4.516666e-05
0	0.58555305	0.5855509	-1.2939283e-10	0.031819716	0.031819716	0	41479.055	41478.906	-1.0314721e-05	685653.7	134117.56	-0.00015786383	134120.67	685653.7	-4.5991892e-05
0	0.5849067	0.5849045	-2.434114e-10	0.031466387	0.031466387	0	41433.27	41433.113	-1.778852e-05	685875.2	132991.03	-0.00018351196	132994.1	685875.2	-0.00016805272
0	0.5842552	0.5842531	-8.158542e-11	0.031112675	0.031112675	0	41387.117	41386.97	-6.481843e-06	686096.06	131858.1	-0.00010637002	131861.17	686096.2	-2.173434e-05
0	0.5835995	0.5835974	-2.3486263e-10	0.030759156	0.030759156	0	41340.676	41340.523	-2.0235984e-05	686316	130720.305	-0.00018017861	130723.34	686316	-0.00021975671
0	0.58294064	0.58293843	-2.5181862e-10	0.030405626	0.030405626	0	41293.996	41293.848	-1.872909e-05	686534.56	129579.3	-0.00025409166	129582.336	686534.56	-0.00011606205
0	0.5822764	0.5822743	-2.433831e-10	0.03005211	0.03005211	0	41246.945	41246.8	-2.2282771e-05	686752.3	128431.555	-0.00020883685	128434.56	686752.5	-0.00023155028
0	0.5816071	0.5816051	-4.8626975e-12	0.029698398	0.029698398	0	41199.54	41199.39	-2.3262032e-06	686969.4	127277.62	-5.566406e-05	127280.625	686969.5	9.689975e-06
0	0.5809336	0.58093154	-2.9762715e-10	0.02934494	0.02934494	0	41151.824	41151.68	-2.0868869e-05	687185.25	126118.78	-0.0002247179	126121.766	687185.3	-0.00018772544
0	0.58025634	0.5802544	-2.0607185e-10	0.028991368	0.028991368	0	41103.85	41103.71	-1.45864715e-05	687399.8	124956.16	-0.00014191719	124959.125	687399.94	-0.00014636359
0	0.57957405	0.5795721	-4.42468e-10	0.028637866	0.028637866	0	41055.523	41055.38	-3.1907806e-05	687613.5	123787.17	-0.00035307123	123790.12	687613.6	-0.00027754097
0	0.57888687	0.57888484	-3.1974692e-10	0.028284172	0.028284172	0	41006.844	41006.7	-2.503765e-05	687826.1	122612.57	-0.00034638456	122615.51	687826.25	-0.00014844879
0	0.5781938	0.5781918	-3.838152e-10	0.027930686	0.027930686	0	40957.742	40957.6	-2.3592522e-05	688038	121430.31	-0.00032541648	121433.24	688038.2	-0.00014085598
0	0.57749856	0.5774966	-3.4723957e-10	0.027577292	0.027577292	0	40908.496	40908.355	-2.3429076e-05	688248.06	120246.984	-0.00026659624	120249.89	688248.2	-0.00019644598
0	0.57679707	0.5767951	-1.2878938e-10	0.02722359	0.02722359	0	40858.805	40858.664	-1.552319e-05	688457.3	119055.61	-0.0002768844	119058.5	688457.5	-2.9909252e-05
0	0.57609093	0.5760891	-3.0052827e-10	0.026870111	0.026870111	0	40808.79	40808.65	-2.1996037e-05	688665.4	117859.07	-0.00016685818	117861.945	688665.6	-0.00026786205
0	0.57538015	0.57537824	-2.5218116e-10	0.026516488	0.026516488	0	40758.434	40758.3	-1.894609e-05	688872.25	116657.055	-0.00010584478	116659.92	688872.5	-0.0002685976
0	0.57466453	0.5746626	-2.736053e-10	0.026163008	0.026163008	0	40707.742	40707.61	-2.328796e-05	689077.9	115449.664	-0.0003119494	115452.51	689078.06	-0.00014830384
0	0.57394344	0.57394165	-2.1896629e-10	0.025809314	0.025809314	0	40656.66	40656.53	-1.8509356e-05	689282.4	114235.6	-0.00025431332	114238.43	689282.56	-0.00011149761
0	0.5732181	0.57321626	6.582441e-11	0.025455913	0.025455913	0	40605.277	40605.15	9.613955e-07	689485.4	113017.055	2.015054e-05	113019.87	689485.6	-1.1499311e-06
0	0.5724873	0.57248545	-2.3721056e-10	0.025102237	0.025102237	0	40553.508	40553.383	-1.3647783e-05	689687.25	111792.055	-0.00022722197	111794.85	689687.5	-4.2506956e-05
0	0.57175165	0.57174987	-3.2411507e-10	0.02474878	0.02474878	0	40501.4	40501.273	-2.103268e-05	689887.75	110561.7	-0.0003888947	110564.484	689888.06	-2.6786169e-05
0	0.57101035	0.57100856	-1.5312432e-10	0.024395106	0.024395106	0	40448.887	40448.76	-4.4617686e-06	690087.1	109324.62	-3.9949176e-05	109327.38	690087.4	-4.82313e-05
0	0.5702648	0.570263	-5.6293303e-10	0.02404165	0.02404165	0	40396.074	40395.953	-3.818161e-05	690284.75	108083.13	-0.00053565187	108085.875	690285.06	-0.00021895304
0	0.5695138	0.5695121	-5.3563685e-11	0.023688193	0.023688193	0	40342.88	40342.758	-1.3526878e-06	690481.25	106835.42	-2.933118e-05	106838.15	690481.6	2.5972383e-06
0	0.56875736	0.5687557	-4.696957e-10	0.023334505	0.023334505	0	40289.293	40289.168	-3.3156353e-05	690676.25	105581.305	-0.0003087007	105583.99	690676.56	-0.0003465872
0	0.5679957	0.5679941	-5.2936344e-10	0.022981044	0.022981044	0	40235.348	40235.227	-3.3407214e-05	690869.8	104321.52	-0.00045729656	104324.2	690870.1	-0.00020294926
0	0.56722903	0.5672273	-2.484497e-10	0.02262738	0.02262738	0	40181.03	40180.914	-1.7535145e-05	691061.9	103056.01	-0.00019537173	103058.664	691062.25	-0.00015118533
0	0.5664568	0.56645507	-1.7340113e-10	0.02227391	0.02227391	0	40126.324	40126.21	-1.0996397e-05	691252.6	101784.195	-0.00020837248	101786.84	691253	-8.955565e-06
0	0.5656789	0.5656773	-3.7031989e-10	0.021920238	0.021920238	0	40071.227	40071.113	-2.5694457e-05	691441.7	100506.17	-0.00040022962	100508.79	691442.06	-0.00010758459
0	0.564896	0.5648944	-5.0596246e-11	0.021566834	0.021566834	0	40015.76	40015.652	-3.7386903e-06	691629.25	99222.53	-0.00016724748	99225.14	691629.6	9.33576e-05
0	0.56410795	0.56410646	-1.3790669e-10	0.021213163	0.021213163	0	39959.945	39959.832	-1.01970545e-05	691815	97933.48	-0.00014847245	97936.055	691815.5	-5.3057753e-05
0	0.56331366	0.5633121	-2.0176626e-10	0.020859692	0.020859692	0	39903.67	39903.57	-1.4306825e-05	691999.56	96637.02	-4.7726022e-05	96639.57	691999.94	-0.00023502791
0	0.5625139	0.56251246	-4.4322312e-10	0.020506045	0.020506045	0	39847.027	39846.918	-2.96865e-05	692182.25	95334.74	-0.00036303382	95337.26	692182.7	-0.00022367746
0	0.5617092	0.56170774	-1.9287465e-10	0.020152567	0.020152567	0	39790.016	39789.918	-1.0122996e-05	692363.2	94027.17	-0.0002751549	94029.67	692363.6	7.5088334e-05
0	0.5608985	0.56089705	-1.6936479e-10	0.019798908	0.019798908	0	39732.594	39732.492	-1.0972287e-05	692542.44	92712.94	-0.00025433314	92715.42	692542.9	3.7481586e-05
0	0.56008184	0.56008047	-2.5997077e-10	0.019445421	0.019445421	0	39674.742	39674.65	-1.5740665e-05	692720.2	91392.016	-0.00030402234	91394.48	692720.56	-7.069384e-06
0	0.55925924	0.5592578	-1.228122e-10	0.019091938	0.019091938	0	39616.473	39616.37	-1.1809129e-05	692896.06	90064.48	-0.00048398005	90066.9	692896.5	0.00025058948
0	0.5584313	0.55842996	-1.2489756e-10	0.018738281	0.018738281	0	39557.824	39557.727	-9.578469e-06	693070.1	88731.375	-0.00020113953	88733.766	693070.56	1.1834764e-05
0	0.55759597	0.5575947	-1.4563378e-10	0.018384803	0.018384803	0	39498.652	39498.56	-3.0832482e-06	693242.6	87389.44	-4.8501355e-05	87391.81	693243.06	-1.2434636e-05
0	0.55675757	0.5567563	-3.6941525e-10	0.018031158	0.018031158	0	39439.26	39439.168	-2.5960424e-05	693412.75	86045.58	-0.00026927426	86047.914	693413.25	-0.00024379643
0	0.5559125	0.5559112	-1.11945196e-10	0.017677743	0.017677743	0	39379.4	39379.31	-6.991625e-06	693581.1	84694.06	-0.00011233985	84696.38	693581.6	-2.5839627e-05
0	0.5550602	0.55505896	-4.4147772e-10	0.017324101	0.017324101	0	39319.03	39318.934	-2.8682505e-05	693747.8	83334.23	-0.00032387022	83336.54	693748.4	-0.00024299852
0	0.55420214	0.554201	-2.2618149e-10	0.016970601	0.016970601	0	39258.242	39258.156	-1.7776885e-05	693912.56	81968.25	-0.00022184946	81970.516	693913.06	-0.00012948527
0	0.55333817	0.5533369	-2.3793112e-10	0.016616989	0.016616989	0	39197.04	39196.953	-1.792318e-05	694075.25	80595.96	-0.00021365924	80598.22	694075.9	-0.00014056676
0	0.5524685	0.55246735	-5.6214444e-10	0.016263483	0.016263483	0	39135.43	39135.35	-3.78718e-05	694235.75	79217.84	-0.00043337047	79220.05	694236.4	-0.00031511148
0	0.55159193	0.5515908	-2.8766411e-10	0.015909858	0.015909858	0	39073.336	39073.258	-1.9861127e-05	694394.56	77832	-0.0004190281	77834.18	694395	2.6501333e-05
0	0.55070925	0.5507082	-2.968117e-10	0.015556337	0.015556337	0	39010.812	39010.734	-2.339038e-05	694551	76439.83	-0.00027350328	76441.96	694551.5	-0.00018877414
0	0.5498208	0.54981965	-2.606178e-10	0.015202813	0.015202813	0	38947.87	38947.793	-1.725202e-05	694705.3	75041.555	-0.00021869208	75043.67	694705.9	-0.00012226944
0	0.54892516	0.5489241	-5.241563e-10	0.014849199	0.014849199	0	38884.43	38884.355	-3.5970337e-05	694857.7	73635.45	-0.0004138598	73637.55	694858.25	-0.0002970425
0	0.5480236	0.5480226	-8.836553e-11	0.014495684	0.014495684	0	38820.57	38820.492	-5.353355e-06	695007.6	72223.34	-0.0001566349	72225.41	695008.3	5.0833485e-05
0	0.54711545	0.54711443	-2.2278494e-10	0.014142086	0.014142086	0	38756.24	38756.164	-1.7528098e-05	695155.44	70804.08	-0.0002937391	70806.09	695156.1	-5.2678715e-05
0	0.54620063	0.5461997	-3.018115e-10	0.013788646	0.013788646	0	38691.434	38691.367	-2.230846e-05	695301.06	69377.85	-0.0004775647	69379.84	695301.7	3.666987e-05
0	0.54527944	0.5452785	-1.8019455e-10	0.0134350555	0.0134350555	0	38626.176	38626.117	-1.2810904e-05	695444.3	67944.945	-0.00024521007	67946.91	695445	-7.979113e-06
0	0.5443513	0.5443503	-2.4578847e-10	0.013081504	0.013081504	0	38560.43	38560.367	-1.3413548e-05	695585.3	66504.61	-0.0002713062	66506.53	695585.94	6.2065906e-06
0	0.54341656	0.54341567	-5.851247e-11	0.012727956	0.012727956	0	38494.21	38494.152	-6.0537946e-06	695723.75	65057.496	-6.800952e-05	65059.4	695724.44	-5.163508e-05
0	0.5424749	0.5424741	-3.7251807e-10	0.01237439	0.01237439	0	38427.51	38427.457	-2.8915581e-05	695859.9	63603.13	-0.00033372792	63604.992	695860.56	-0.00023774721
0	0.54152656	0.54152584	-3.5289188e-10	0.012020825	0.012020825	0	38360.336	38360.28	-2.49786e-05	695993.5	62141.8	-0.00036254936	62143.625	695994.3	-0.00013111699
0	0.5405714	0.5405706	-2.5918986e-10	0.0116672525	0.0116672525	0	38292.67	38292.617	-2.3700046e-05	696124.7	60673.445	-0.00041260032	60675.23	696125.44	-5.5797194e-05
0	0.53960896	0.5396082	-1.30842065e-11	0.01131369	0.01131369	0	38224.496	38224.445	3.9959977e-07	696253.44	59197.44	-4.1477273e-05	59199.184	696254.2	4.937479e-05
0	0.53863996	0.53863925	-1.9419652e-10	0.010960119	0.010960119	0	38155.85	38155.8	-1.5893156e-05	696379.44	57714.8	-0.00034333282	57716.52	696380.06	2.92273e-05
0	0.53766346	0.5376628	1.8288008e-11	0.010606581	0.010606581	0	38086.688	38086.637	-1.0779655e-06	696502.8	56224.434	-0.00010147015	56226.113	696503.56	8.01657e-05
0	0.5366784	0.5366777	-1.8807166e-10	0.010253022	0.010253022	0	38016.9	38016.855	-1.4731711e-05	696623.6	54724.38	-0.00018534927	54726.023	696624.5	-0.00010580194
0	0.53568894	0.53568834	-4.76468e-10	0.009899454	0.009899454	0	37946.81	37946.773	-3.4305966e-05	696741.56	53221.402	-0.00042483959	53223.008	696742.3	-0.00025316878
0	0.5346911	0.5346905	-3.8909087e-10	0.009545969	0.009545969	0	37876.13	37876.086	-2.5004972e-05	696856.75	51709.2	-0.00046992165	51710.75	696857.5	-2.4265892e-05
0	0.5336855	0.53368497	-2.187019e-10	0.009192402	0.009192402	0	37804.9	37804.863	-1.7606966e-05	696969.3	50188.934	-0.00043942893	50190.453	696970.1	9.145242e-05
0	0.53267163	0.53267115	1.0938118e-10	0.0088388715	0.0088388715	0	37733.074	37733.043	7.4375553e-06	697078.94	48659.824	-1.1418984e-05	48661.3	697079.8	0.00015841163
0	0.5316526	0.53165215	-2.6929957e-11	0.0084853005	0.0084853005	0	37660.89	37660.863	-1.7785162e-06	697185.5	47126.676	-0.0002705171	47128.1	697186.4	0.00023536728
0	0.53062415	0.5306236	-3.9059578e-10	0.008131742	0.008131742	0	37588.03	37588.008	-2.9191147e-05	697289.4	45582.92	-0.0004312261	45584.32	697290.2	-0.0001456952
0	0.5295884	0.5295881	-1.6733318e-10	0.0077781687	0.0077781687	0	37514.668	37514.645	-1.1000806e-05	697390.2	44032.23	-0.00016071471	44033.582	697391.06	-5.6700483e-05
0	0.5285451	0.5285447	-1.5429431e-10	0.0074245995	0.0074245995	0	37440.76	37440.73	-1.3489616e-05	697488	42473.8	-0.00037564166	42475.105	697488.75	0.00010903868
0	0.5274939	0.5274936	-1.15360624e-10	0.007071043	0.007071043	0	37366.293	37366.273	-7.921392e-06	697582.6	40907.54	-0.00029196343	40908.81	697583.44	0.00013540841