//mumax 3.10 [windows_amd64 go1.11.6(gc) CUDA-11.0]
//GPU info: NVIDIA GeForce RTX 3090(24575MB), CUDA Driver 12.0, cc=8.6, using cc=80 PTX
//(c) Arne Vansteenkiste, Dynamat LAB, Ghent University, Belgium
//This is free software without any warranty. See license.txt
//********************************************************************//
//  If you use mumax in any work or publication,                      //
//  we kindly ask you to cite the references in references.bib        //
//********************************************************************//
//output directory: r1;p0.1;a4.0000000000000003e-07;l3.0000000000000004e-07;s2.out/
randSeed(2)
ThermSeed(2)
resolution := 2e-09
zResolution := 5e-09
a := 4.0000000000000003e-07
gridSize := 400
gridDepth := 5
SetCellsize(resolution, resolution, zResolution)
SetGridsize(gridSize, gridSize, gridDepth)
SetPBC(16, 16, 0)
//resizing...
Msat = 700e3
Aex = 13e-12
alpha = 0.2
Bmax := 0.1
Bstep := Bmax / 500.0
TableAdd(B_ext)
TableAdd(m_full)
islandWidth := 8e-08
islandLength := 3.0000000000000004e-07
ellipseConstant := 1.5000000000000002e-08
hIsland := Universe().Inverse()
vIsland := Universe().Inverse()
vIslands := Universe().Inverse()
hIslands := Universe().Inverse()
hIsland = rect(islandLength-2*ellipseConstant, islandWidth)
hIsland = hIsland.add(ellipse(ellipseConstant*2, islandWidth).transl(islandLength/2-ellipseConstant, 0, 0))
hIsland = hIsland.add(ellipse(ellipseConstant*2, islandWidth).transl(-islandLength/2+ellipseConstant, 0, 0))
hIsland = hIsland.sub(rect(3.0062286126786016e-09, -1.8020643053632412e-10).transl(8.492899246185096e-08, -4e-08, 0))
hIsland = hIsland.sub(rect(3.1849900694478655e-09, -9.937345942043136e-10).transl(7.515078398606299e-08, -4e-08, 0))
hIsland = hIsland.sub(rect(5.243734969946541e-09, -1.9078906860534527e-09).transl(-1.1941064606357503e-07, -4e-08, 0))
hIsland = hIsland.sub(rect(4.138712406894983e-09, -3.920979852236233e-09).transl(1.3588281650725875e-07, -3.99306630171862e-08, 0))
hIsland = hIsland.sub(rect(8.267962839357093e-09, -1.641772632322458e-09).transl(-9.053093945120277e-09, -4e-08, 0))
hIsland = hIsland.add(rect(2.4639487734895864e-09, 5.4499365842005356e-14).transl(4.160270486084143e-08, -4e-08, 0))
hIsland = hIsland.add(rect(5.6086272684158035e-09, 2.1144815620840792e-10).transl(-3.03077134642829e-08, -4e-08, 0))
hIsland = hIsland.add(rect(8.23997704453911e-09, 3.917942663381362e-09).transl(-6.245874111409947e-08, -4e-08, 0))
hIsland = hIsland.sub(rect(2.7855092199973916e-09, -2.938110742236494e-10).transl(-7.418555782991263e-08, -4e-08, 0))
hIsland = hIsland.add(rect(3.0014332004832305e-09, 2.3142086673083746e-09).transl(4.201730442128289e-08, -4e-08, 0))
hIsland = hIsland.sub(rect(8.078453504836055e-09, -3.6853669161710407e-10).transl(-8.775366530133854e-08, -4e-08, 0))
hIsland = hIsland.sub(rect(7.84002386139725e-09, -1.6881470532103944e-09).transl(7.03336430181574e-08, -4e-08, 0))
hIsland = hIsland.sub(rect(8.48994120259085e-09, -1.0397223141838257e-09).transl(1.2631609085774708e-07, -4e-08, 0))
hIsland = hIsland.add(rect(9.800823704632103e-09, 1.6807283370390204e-09).transl(1.1540013506563608e-07, -4e-08, 0))
hIsland = hIsland.sub(rect(9.306863443120829e-09, -1.2171586841740498e-09).transl(-1.2189296166099585e-07, -4e-08, 0))
hIsland = hIsland.sub(rect(8.923259515616892e-09, -2.263395446096342e-09).transl(-4.0548065810181056e-08, -4e-08, 0))
hIsland = hIsland.add(rect(8.496955576561709e-09, 1.1941839468241779e-09).transl(-8.185671637071365e-08, -4e-08, 0))
hIsland = hIsland.sub(rect(7.073117236088271e-09, -4.861297944346181e-09).transl(7.579905732231311e-08, -4e-08, 0))
hIsland = hIsland.sub(rect(7.171284668060671e-09, -8.640348933246427e-10).transl(-1.2120382800096193e-07, -4e-08, 0))
hIsland = hIsland.sub(rect(3.404992426023049e-09, -1.2626952503430295e-09).transl(-9.001080735141381e-08, -4e-08, 0))
hIsland = hIsland.sub(rect(4.07491712052766e-09, -2.0883001977182405e-09).transl(1.1083446165687186e-09, -4e-08, 0))
hIsland = hIsland.add(rect(8.751553117305463e-09, 7.692419244704909e-10).transl(9.900023731559628e-08, -4e-08, 0))
hIsland = hIsland.sub(rect(2.2254974523039117e-09, -6.072048288326269e-11).transl(-4.815834182486626e-08, -4e-08, 0))
hIsland = hIsland.sub(rect(6.230425664029018e-09, -6.526508385243691e-10).transl(7.711964915351841e-08, -4e-08, 0))
hIsland = hIsland.sub(rect(5.860683115387965e-09, -1.784452984282746e-09).transl(-1.2408794215073769e-07, -4e-08, 0))
hIsland = hIsland.sub(rect(2.4672647597053257e-09, -1.2971423122815143e-09).transl(-7.608988268549477e-08, -4e-08, 0))
hIsland = hIsland.add(rect(9.665176356900159e-09, 1.5026385133552026e-10).transl(-3.2938455686273753e-09, -4e-08, 0))
hIsland = hIsland.sub(rect(3.523348797453654e-09, -1.90354531429141e-09).transl(-3.765685640327765e-08, -4e-08, 0))
hIsland = hIsland.add(rect(3.0044846438492005e-09, 1.937674946599827e-09).transl(7.113719849262498e-08, -4e-08, 0))
hIsland = hIsland.add(rect(6.545174006937941e-09, 1.7209909458658573e-09).transl(9.544889428555102e-08, -4e-08, 0))
hIsland = hIsland.sub(rect(8.041420912490382e-09, -1.9294018077976167e-10).transl(1.0485346837611846e-07, -4e-08, 0))
hIsland = hIsland.add(rect(5.110078556980784e-09, 7.405112612080546e-10).transl(1.357169068255203e-07, -3.995428895712566e-08, 0))
hIsland = hIsland.sub(rect(8.052007700956759e-09, -4.3174331360613675e-10).transl(-3.81259302607591e-08, -4e-08, 0))
hIsland = hIsland.add(rect(4.065818527865634e-09, 2.524726404809596e-10).transl(-6.50401933294779e-08, -4e-08, 0))
hIsland = hIsland.sub(rect(3.3688455366846928e-09, -3.891137230499226e-09).transl(-1.3496155129704117e-07, -4e-08, 0))
hIsland = hIsland.sub(rect(4.351192729495224e-09, -3.8269128421948394e-10).transl(4.6570777569705505e-08, -4e-08, 0))
hIsland = hIsland.sub(rect(7.2861054744165175e-09, -2.403960533060745e-09).transl(1.363811472277273e-07, -3.983007750914689e-08, 0))
hIsland = hIsland.sub(rect(6.666918430877644e-09, -1.8089658914736976e-09).transl(-1.8737200060018057e-08, -4e-08, 0))
hIsland = hIsland.add(rect(2.4186250680062856e-09, 2.1937560777885504e-09).transl(4.013978863894052e-08, -4e-08, 0))
hIsland = hIsland.add(rect(4.976031334176931e-09, 1.1752075030915382e-10).transl(-7.764032314433161e-09, -4e-08, 0))
hIsland = hIsland.add(rect(6.2121037947059105e-09, 5.045545370052553e-10).transl(-7.069380633145837e-08, -4e-08, 0))
hIsland = hIsland.add(rect(9.282763105542712e-09, 2.049463851054796e-09).transl(9.399343824744629e-08, -4e-08, 0))
hIsland = hIsland.sub(rect(9.948862756182386e-09, -1.0007279123662094e-09).transl(8.587857322867209e-08, -4e-08, 0))
hIsland = hIsland.add(rect(6.0699563531743785e-09, 5.280681550355437e-10).transl(-3.0811314007825127e-08, -4e-08, 0))
hIsland = hIsland.sub(rect(8.109392939663828e-09, -1.3073067050673962e-09).transl(1.32347358357299e-07, -4e-08, 0))
hIsland = hIsland.sub(rect(6.931489932351811e-09, -2.405318665822408e-09).transl(1.3125039591543175e-07, -4e-08, 0))
hIsland = hIsland.sub(rect(9.481466415076227e-09, -3.5564516987376022e-09).transl(1.173808000137471e-07, -4e-08, 0))
hIsland = hIsland.sub(rect(5.323512701279367e-09, -1.1971041857299958e-09).transl(7.840805534537669e-09, -4e-08, 0))
hIsland = hIsland.sub(rect(6.56393071889634e-09, -7.311642448601872e-10).transl(-1.4625931687912146e-08, -4e-08, 0))
hIsland = hIsland.sub(rect(7.665607602547658e-09, -2.685696968584727e-10).transl(-9.65395903286074e-08, -4e-08, 0))
hIsland = hIsland.add(rect(6.053605273332268e-09, 1.2584936839764792e-09).transl(-1.049981796962986e-07, -4e-08, 0))
hIsland = hIsland.sub(rect(8.424107992469094e-09, -7.499739319527079e-10).transl(-1.4967428019809708e-07, -8.29050355483866e-09, 0))
hIsland = hIsland.sub(rect(8.61872524901439e-09, -1.941431005481645e-09).transl(-3.792032734076945e-08, -4e-08, 0))
hIsland = hIsland.sub(rect(8.544152730097657e-09, -2.594447653156219e-09).transl(7.481417898503461e-08, -4e-08, 0))
hIsland = hIsland.sub(rect(3.7039549198855685e-09, -2.0115983253245496e-10).transl(-1.2357140221270828e-07, -4e-08, 0))
hIsland = hIsland.add(rect(9.119835376137191e-09, 1.909480879361187e-09).transl(-1.1001760607618638e-07, -4e-08, 0))
hIsland = hIsland.sub(rect(9.824391790357666e-09, -3.595763207766087e-10).transl(-6.982210202911742e-08, -4e-08, 0))
hIsland = hIsland.sub(rect(8.803729782291468e-09, -1.77052127057426e-09).transl(-1.0891170952660551e-07, -4e-08, 0))
hIsland = hIsland.sub(rect(8.643272582832084e-09, -1.9195253988703886e-09).transl(-5.138754622770243e-08, -4e-08, 0))
hIsland = hIsland.sub(rect(4.062954478370582e-09, -2.892128384360488e-10).transl(1.0582268267557484e-07, -4e-08, 0))
hIsland = hIsland.sub(rect(7.845917415315583e-09, -1.2721789560694724e-09).transl(-6.446175116261109e-08, -4e-08, 0))
hIsland = hIsland.add(rect(3.084691681689706e-09, 3.252737974819846e-10).transl(9.365859949262992e-09, -4e-08, 0))
hIsland = hIsland.sub(rect(4.500225326423019e-09, -1.2146478563268587e-09).transl(1.4809998344380426e-07, -1.9485002099653472e-08, 0))
hIsland = hIsland.sub(rect(6.030130433204182e-09, -1.0928772013146696e-09).transl(-4.3877807294190906e-08, -4e-08, 0))
hIsland = hIsland.sub(rect(3.3277699828153467e-09, -2.7829019975834284e-09).transl(6.6820980450684705e-09, -4e-08, 0))
hIsland = hIsland.add(rect(9.698616485379004e-09, 1.2028584614260216e-09).transl(1.0694449418946544e-07, -4e-08, 0))
hIsland = hIsland.add(rect(3.6713330861080568e-09, 1.1335938539441769e-09).transl(5.455164523444983e-08, -4e-08, 0))
hIsland = hIsland.add(rect(8.417545842883452e-09, 5.477208416507696e-10).transl(8.329032519952627e-08, -4e-08, 0))
hIsland = hIsland.sub(rect(6.984721265598401e-09, -1.4916407450015302e-09).transl(-8.925617722242142e-08, -4e-08, 0))
hIsland = hIsland.sub(rect(9.905473545694199e-09, -3.3275372107931753e-09).transl(1.1187816432486361e-07, -4e-08, 0))
hIsland = hIsland.sub(rect(8.360504795269331e-09, -2.4858886779748153e-09).transl(5.170300892916883e-08, -4e-08, 0))
hIsland = hIsland.sub(rect(2.4960960740668734e-09, -7.718379974438206e-10).transl(1.0311771442247476e-07, -4e-08, 0))
hIsland = hIsland.add(rect(9.418788487253744e-09, 2.9113064345022047e-09).transl(-7.661943740475497e-08, -4e-08, 0))
hIsland = hIsland.add(rect(7.516346098245636e-09, 3.527249652713379e-10).transl(-8.68156895127061e-08, -4e-08, 0))
hIsland = hIsland.sub(rect(8.015662768807432e-09, -1.0141757675533998e-09).transl(-7.41959340486433e-08, -4e-08, 0))
hIsland = hIsland.add(rect(5.686119315438167e-09, 6.1889060859630336e-09).transl(-4.399453785012375e-08, -4e-08, 0))
hIsland = hIsland.add(rect(4.894248803478799e-09, 1.971811601315995e-10).transl(1.3516669975226608e-07, -3.999752980751304e-08, 0))
hIsland = hIsland.sub(rect(8.646240252862741e-09, -1.4807690342582992e-09).transl(-1.3458735213149881e-07, -4e-08, 0))
hIsland = hIsland.add(rect(9.933328907593258e-09, 1.6562045896731105e-09).transl(-8.304372372009478e-10, -4e-08, 0))
hIsland = hIsland.add(rect(7.308457231151917e-09, 1.9319093185041585e-09).transl(-1.3991431362982687e-07, -3.779237045144411e-08, 0))
hIsland = hIsland.add(rect(9.809340715275099e-09, 9.157281765682002e-11).transl(1.1452775548308644e-07, -4e-08, 0))
hIsland = hIsland.sub(rect(7.13691679923707e-09, -1.7931474813375944e-09).transl(-5.145177192608553e-08, -4e-08, 0))
hIsland = hIsland.add(rect(3.310049586625901e-09, 1.2843108003165698e-09).transl(1.2928565882510312e-07, -4e-08, 0))
hIsland = hIsland.sub(rect(9.069494081349136e-09, -3.61163164170211e-09).transl(5.7032862463276234e-08, -4e-08, 0))
hIsland = hIsland.add(rect(4.564346208065124e-09, 3.0724067445943093e-10).transl(1.1173011271213556e-07, -4e-08, 0))
hIsland = hIsland.sub(rect(9.45881739835956e-09, -2.953217007137837e-09).transl(-5.0272912053059495e-08, -4e-08, 0))
hIsland = hIsland.sub(rect(4.748993725695082e-09, -1.1050760545837135e-09).transl(-1.1740991933187925e-07, -4e-08, 0))
hIsland = hIsland.add(rect(3.1448301666468376e-09, 5.028980269435704e-10).transl(-9.673228980083036e-08, -4e-08, 0))
hIsland = hIsland.add(rect(9.144982349813749e-09, 6.839675648738943e-10).transl(-1.2816160124780472e-09, -4e-08, 0))
hIsland = hIsland.sub(rect(6.7041334133027595e-09, -3.6126796975185e-10).transl(-1.1806900703576903e-07, -4e-08, 0))
hIsland = hIsland.add(rect(8.155731757000057e-09, 1.1540097937516927e-09).transl(2.6037620249544518e-08, -4e-08, 0))
hIsland = hIsland.add(rect(3.934155033361028e-09, 2.2376573860738878e-09).transl(1.1656203410509045e-07, -4e-08, 0))
hIsland = hIsland.add(rect(5.690202816429605e-09, 7.610891265607257e-10).transl(1.318513499358659e-07, -4e-08, 0))
hIsland = hIsland.add(rect(4.9433750716684755e-09, 1.7207825141339014e-09).transl(-1.191876199326617e-07, -4e-08, 0))
hIsland = hIsland.sub(rect(3.5363440725345285e-09, -2.495687495123065e-09).transl(7.525002408457994e-08, -4e-08, 0))
hIsland = hIsland.add(rect(6.261815718113542e-09, 1.8416439397875215e-09).transl(1.2570807872313015e-07, -4e-08, 0))
hIsland = hIsland.sub(rect(8.02640817354916e-09, -6.085255316406965e-10).transl(-2.813502550590945e-08, -4e-08, 0))
hIsland = hIsland.sub(rect(5.457309700557356e-09, -1.0346317887489709e-09).transl(-1.825855485953055e-09, -4e-08, 0))
hIsland = hIsland.sub(rect(4.201645017397241e-09, -1.5282387330551507e-09).transl(-2.564824674832887e-08, -4e-08, 0))
hIsland = hIsland.add(rect(4.112406256784538e-09, 7.987249089297516e-10).transl(-9.638427688035712e-08, -4e-08, 0))
hIsland = hIsland.add(rect(4.457199450631231e-09, 5.010476209669531e-10).transl(-9.256239429388211e-08, -4e-08, 0))
hIsland = hIsland.add(rect(4.046337851042496e-09, 3.617121033554514e-10).transl(-1.6077169617117418e-08, -4e-08, 0))
hIsland = hIsland.add(rect(4.405878699778742e-09, 1.4644227819094027e-10).transl(5.7839599497407414e-08, -4e-08, 0))
hIsland = hIsland.sub(rect(7.52671888758271e-09, -1.909434889068788e-09).transl(1.720680592936157e-08, -4e-08, 0))
hIsland = hIsland.sub(rect(7.788357006882745e-09, -1.7682559735308334e-09).transl(-4.951928276213731e-08, -4e-08, 0))
hIsland = hIsland.sub(rect(7.306208405822943e-09, -3.737055466088267e-09).transl(5.9376693381643494e-08, -4e-08, 0))
hIsland = hIsland.add(rect(7.501334849807292e-09, 2.3733424683143768e-09).transl(-1.27795607739999e-07, -4e-08, 0))
hIsland = hIsland.sub(rect(2.789897487002164e-09, -1.179064579756753e-09).transl(4.177675766119364e-08, -4e-08, 0))
hIsland = hIsland.add(rect(5.542286291395748e-09, 2.4212633277628773e-09).transl(2.9672220396928195e-08, -4e-08, 0))
hIsland = hIsland.sub(rect(4.08283089360992e-09, -1.8400973754555109e-09).transl(-1.4142548425085875e-07, -3.6144219972963635e-08, 0))
hIsland = hIsland.sub(rect(2.7185501533903916e-09, -2.733294576192444e-09).transl(1.1317354735106157e-07, -4e-08, 0))
hIsland = hIsland.add(rect(8.229804136365676e-09, 2.692875799318445e-09).transl(1.224000398614948e-07, -4e-08, 0))
hIsland = hIsland.sub(rect(7.266637579009337e-09, -3.0293479249487994e-09).transl(-6.766373112578098e-08, -4e-08, 0))
hIsland = hIsland.sub(rect(2.452816637423787e-09, -1.8523960154908323e-09).transl(8.559570253210504e-08, -4e-08, 0))
hIsland = hIsland.sub(rect(2.0290057804392197e-09, -1.0804438723336454e-09).transl(1.264930360513563e-07, -4e-08, 0))
hIsland = hIsland.add(rect(2.721609347122126e-09, 2.4045311084186473e-09).transl(1.1330066247576732e-07, -4e-08, 0))
hIsland = hIsland.add(rect(2.8539919305881603e-09, 3.4378012681308253e-09).transl(-4.354621264583888e-08, -4e-08, 0))
hIsland = hIsland.sub(rect(7.0562451282214e-09, -9.834205675841561e-10).transl(9.607689053020506e-08, -4e-08, 0))
hIsland = hIsland.add(rect(7.194722036644266e-09, 4.4170293643157675e-10).transl(-4.3347902339084296e-08, -4e-08, 0))
hIsland = hIsland.sub(rect(5.219089117304633e-09, -5.893059429180425e-09).transl(-4.107660766838373e-08, -4e-08, 0))
hIsland = hIsland.add(rect(2.6260884227257578e-09, 2.3310323732502176e-09).transl(2.1101671732813463e-08, -4e-08, 0))
hIsland = hIsland.add(rect(7.528428389885597e-09, 2.919198595916397e-09).transl(-9.201839901256038e-08, -4e-08, 0))
hIsland = hIsland.add(rect(7.588212414829247e-09, 1.198230474982042e-09).transl(-4.638753394710534e-08, -4e-08, 0))
hIsland = hIsland.sub(rect(4.788245356532372e-09, -3.661949309538347e-09).transl(-1.6776494515688835e-08, -4e-08, 0))
hIsland = hIsland.add(rect(3.30367592394026e-09, 1.737498848425572e-09).transl(-3.407090995917016e-08, -4e-08, 0))
hIsland = hIsland.sub(rect(4.702875776057961e-09, -4.344109771270269e-09).transl(7.125749968241532e-09, -4e-08, 0))
hIsland = hIsland.add(rect(7.734707845308124e-09, 1.9285056616274027e-09).transl(1.3090154103701692e-07, -4e-08, 0))
hIsland = hIsland.sub(rect(3.7170903128907088e-09, -9.467438169775565e-10).transl(-5.8947253411424704e-08, -4e-08, 0))
hIsland = hIsland.add(rect(7.946979394337284e-09, 4.837064583687231e-09).transl(4.85474545290685e-09, -4e-08, 0))
hIsland = hIsland.add(rect(8.798726326773825e-09, 3.1504781232536293e-09).transl(-7.469957470053578e-09, -4e-08, 0))
hIsland = hIsland.add(rect(4.731120363401413e-09, 2.54120368935008e-09).transl(-1.4287293600727172e-07, -3.404748356181067e-08, 0))
hIsland = hIsland.sub(rect(4.425442501951769e-09, -2.7767626362977e-09).transl(4.351450827342421e-08, -4e-08, 0))
hIsland = hIsland.sub(rect(5.721999554091046e-09, -2.4344801138660565e-10).transl(8.773510695051478e-08, -4e-08, 0))
hIsland = hIsland.sub(rect(8.758157573667948e-09, -8.043174619163876e-10).transl(-2.2760359723653895e-08, -4e-08, 0))
hIsland = hIsland.add(rect(5.7484127404504336e-09, 1.5517904285296328e-09).transl(-8.440089146163942e-08, -4e-08, 0))
hIsland = hIsland.sub(rect(2.0974768102714663e-09, -3.970513850073987e-09).transl(7.927342145777558e-09, -4e-08, 0))
hIsland = hIsland.add(rect(6.840025610120628e-09, 8.44701559627564e-10).transl(-1.0845235845322983e-07, -4e-08, 0))
hIsland = hIsland.add(rect(8.681159972320735e-09, 1.5676108316640733e-09).transl(-6.496116425279599e-08, -4e-08, 0))
hIsland = hIsland.sub(rect(2.1631229660881116e-09, -1.3655120789972025e-09).transl(4.539237395289117e-08, -4e-08, 0))
hIsland = hIsland.sub(rect(7.093113676929914e-09, -2.6916028713046634e-09).transl(8.305349317354256e-08, -4e-08, 0))
hIsland = hIsland.add(rect(8.296841361535867e-09, 2.3599212771219733e-09).transl(-1.1671206775364772e-07, -4e-08, 0))
hIsland = hIsland.add(rect(3.2232106400207672e-09, 4.602992725987088e-10).transl(-5.1445648361083386e-08, -4e-08, 0))
hIsland = hIsland.sub(rect(6.621569111383205e-09, -4.6536297568470423e-10).transl(1.1128305188982548e-07, -4e-08, 0))
hIsland = hIsland.sub(rect(7.305644983574609e-09, -4.697033507320678e-10).transl(-8.61412374250223e-08, -4e-08, 0))
hIsland = hIsland.add(rect(2.723898268346554e-09, 5.376284511620379e-10).transl(1.4965856205013395e-07, -8.485934452779915e-09, 0))
hIsland = hIsland.add(rect(5.5525915535105105e-09, 2.5229571191999783e-09).transl(9.119643795741231e-09, -4e-08, 0))
hIsland = hIsland.add(rect(4.908970889982666e-09, 9.291368906842079e-10).transl(1.0505868542163218e-07, -4e-08, 0))
hIsland = hIsland.sub(rect(2.721589606779656e-09, -9.781532354318088e-11).transl(9.332159017663878e-08, -4e-08, 0))
hIsland = hIsland.sub(rect(7.556700427281075e-09, -5.356932428387978e-10).transl(-7.355532204685039e-08, -4e-08, 0))
hIsland = hIsland.add(rect(6.141555261113385e-09, 5.356039829991547e-10).transl(-5.5292908107320307e-08, -4e-08, 0))
hIsland = hIsland.sub(rect(6.80198916887615e-09, -8.858408345705428e-10).transl(1.2748909728739502e-07, -4e-08, 0))
hIsland = hIsland.sub(rect(7.449304481378274e-09, -2.631924023751875e-09).transl(-3.3304888541345966e-08, -4e-08, 0))
hIsland = hIsland.sub(rect(8.14455588176163e-09, -5.129653534108563e-09).transl(-1.0842948952023067e-07, -4e-08, 0))
hIsland = hIsland.sub(rect(7.936661981749287e-09, -1.5563073640126383e-09).transl(5.8034649995899835e-08, -4e-08, 0))
hIsland = hIsland.add(rect(3.845930605739945e-09, 2.6846837508745274e-09).transl(1.413139136493914e-08, -4e-08, 0))
hIsland = hIsland.add(rect(7.889343600281831e-09, 2.734153416108001e-09).transl(-2.4288872333587143e-08, -4e-08, 0))
hIsland = hIsland.add(rect(2.9460241235016647e-09, 5.872654974873636e-10).transl(1.341283016737513e-07, -4e-08, 0))
hIsland = hIsland.add(rect(6.502956246796096e-09, 3.8919348629956484e-10).transl(-6.946959280857931e-08, -4e-08, 0))
hIsland = hIsland.add(rect(7.447903817409728e-09, 5.624099103168525e-10).transl(1.3421613510699877e-07, -4e-08, 0))
hIsland = hIsland.sub(rect(7.384876351681305e-09, -5.414925168476669e-10).transl(-7.89772623993025e-08, -4e-08, 0))
hIsland = hIsland.sub(rect(9.191564267040207e-09, -1.8291011977076642e-10).transl(1.2842353025408373e-07, -4e-08, 0))
hIsland = hIsland.sub(rect(2.823017017081256e-09, -1.628004436719546e-09).transl(-6.201997510264643e-08, -4e-08, 0))
hIsland = hIsland.sub(rect(8.706694370567228e-09, -1.9232137524799846e-09).transl(5.028689676966252e-08, -4e-08, 0))
hIsland = hIsland.add(rect(2.983657582006916e-09, 1.2174658410373379e-09).transl(2.65181006279129e-08, -4e-08, 0))
hIsland = hIsland.sub(rect(5.989488998308358e-09, -1.1484148474355633e-10).transl(-1.4064962010573285e-07, -3.705436655974803e-08, 0))
hIsland = hIsland.sub(rect(4.496156336863868e-09, -1.12482270493695e-09).transl(1.0638556586913359e-07, -4e-08, 0))
hIsland = hIsland.add(rect(5.768898811948179e-09, 1.6780627243662908e-10).transl(8.579508065173132e-08, -4e-08, 0))
hIsland = hIsland.add(rect(4.971054908129451e-09, 1.7920269358603395e-10).transl(-1.3754574821573815e-07, -3.941971676065479e-08, 0))
hIsland = hIsland.add(rect(3.917461536296533e-09, 2.0989872833457115e-10).transl(-5.237255721230285e-08, -4e-08, 0))
hIsland = hIsland.sub(rect(7.92611440039058e-09, -2.1615403046725336e-09).transl(1.396311070765323e-07, -3.8045852779864824e-08, 0))
hIsland = hIsland.sub(rect(6.400790609470579e-09, -2.28453021999928e-09).transl(1.197323135463765e-07, -4e-08, 0))
hIsland = hIsland.add(rect(5.73109321158783e-09, 3.585025925061347e-10).transl(9.975879486122237e-08, -4e-08, 0))
hIsland = hIsland.sub(rect(6.965188925370447e-09, -3.9765536005758215e-11).transl(3.193577646900165e-08, -4e-08, 0))
hIsland = hIsland.add(rect(3.730070901187898e-09, 1.953674555857595e-09).transl(-5.228112769736253e-08, -4e-08, 0))
hIsland = hIsland.sub(rect(3.8095893379238534e-09, -7.127563865758344e-10).transl(1.9114670176477108e-08, -4e-08, 0))
hIsland = hIsland.sub(rect(7.748050246779056e-09, -1.2998556143758423e-09).transl(-2.7419054500190266e-08, -4e-08, 0))
hIsland = hIsland.sub(rect(3.238020323518478e-09, -8.704049959332696e-10).transl(8.419661089900613e-08, -4e-08, 0))
hIsland = hIsland.add(rect(2.6931328100963166e-09, 1.2960057751759087e-09).transl(3.3449178337832534e-08, -4e-08, 0))
hIsland = hIsland.sub(rect(5.6613134665454395e-09, -1.558607923052621e-10).transl(-1.2451935934292972e-07, -4e-08, 0))
hIsland = hIsland.sub(rect(9.144299890361497e-09, -1.8402844142377523e-09).transl(-1.09662382306583e-07, -4e-08, 0))
hIsland = hIsland.add(rect(4.113984673195744e-09, 2.1276803667018717e-09).transl(1.1151292458629992e-07, -4e-08, 0))
hIsland = hIsland.add(rect(6.01429888423697e-09, 1.7058847588691428e-09).transl(1.1604588673591982e-07, -4e-08, 0))
hIsland = hIsland.sub(rect(3.828260953912042e-09, -3.060370635985496e-10).transl(1.229375908592808e-07, -4e-08, 0))
hIsland = hIsland.sub(rect(7.411177189847852e-09, -1.4536266157858997e-09).transl(-1.2506314216778836e-07, -4e-08, 0))
hIsland = hIsland.sub(rect(7.100980706449584e-09, -7.758196484778835e-10).transl(1.2167270226358446e-07, -4e-08, 0))
hIsland = hIsland.sub(rect(7.421570460883762e-09, -1.9438940727466273e-09).transl(9.118682603997346e-08, -4e-08, 0))
hIsland = hIsland.sub(rect(7.49863684706178e-09, -3.953317073151416e-10).transl(3.9722620932903045e-08, -4e-08, 0))
hIsland = hIsland.sub(rect(2.8860286283754633e-09, -3.4268639750751857e-10).transl(3.540639711601138e-08, -4e-08, 0))
hIsland = hIsland.add(rect(8.07163997009787e-09, 1.4923669287591826e-09).transl(-5.057636821153597e-09, -4e-08, 0))
hIsland = hIsland.sub(rect(4.162015023091472e-09, -4.914631533850719e-10).transl(5.070289155778353e-09, -4e-08, 0))
hIsland = hIsland.sub(rect(5.903150156187903e-09, -1.306603064112629e-09).transl(-1.0772750224723219e-07, -4e-08, 0))
hIsland = hIsland.add(rect(7.1421905326642505e-09, 1.4445850872320919e-09).transl(-4.94435275805397e-08, -4e-08, 0))
hIsland = hIsland.add(rect(9.665061870541396e-09, 3.9762771156220114e-10).transl(7.00678384151884e-08, -4e-08, 0))
hIsland = hIsland.add(rect(3.3647539930267297e-09, 1.4375863310130795e-09).transl(1.2614890629863335e-07, -4e-08, 0))
hIsland = hIsland.sub(rect(5.559114367664715e-09, -3.0638649707296855e-10).transl(-8.017696723227149e-08, -4e-08, 0))
hIsland = hIsland.sub(rect(5.535824225931277e-09, -7.411757223390344e-10).transl(-5.947109666878301e-08, -4e-08, 0))
hIsland = hIsland.sub(rect(9.750267320083165e-09, -3.2314458684631173e-10).transl(1.2303118503476884e-07, -4e-08, 0))
hIsland = hIsland.sub(rect(6.491419281337421e-09, -3.275726808521334e-10).transl(-1.0940826168607865e-07, -4e-08, 0))
hIsland = hIsland.add(rect(7.215672409590499e-09, 2.5919911219688705e-09).transl(2.7208787486183158e-08, -4e-08, 0))
hIsland = hIsland.sub(rect(9.299934776684493e-09, -2.6943334134117063e-09).transl(-1.283834182626703e-07, -4e-08, 0))
hIsland = hIsland.add(rect(2.133149745630501e-09, 1.1333787631747412e-09).transl(4.825430058427971e-08, 4e-08, 0))
hIsland = hIsland.sub(rect(5.225413122340715e-09, -1.3232850674368202e-09).transl(-5.377068004488601e-08, 4e-08, 0))
hIsland = hIsland.sub(rect(6.836261551763651e-09, -1.0210592817727418e-09).transl(5.514816753775039e-08, 4e-08, 0))
hIsland = hIsland.sub(rect(8.77113288689633e-09, -8.71829503997805e-10).transl(1.763736659406377e-08, 4e-08, 0))
hIsland = hIsland.sub(rect(8.549481723843409e-09, -2.7295839525775754e-10).transl(-8.051205491965628e-08, 4e-08, 0))
hIsland = hIsland.sub(rect(3.723190574892409e-09, -5.505180345872214e-10).transl(-2.9897623625857666e-08, 4e-08, 0))
hIsland = hIsland.add(rect(2.5053601848102646e-09, 2.9660207941730307e-09).transl(4.8389202241526696e-08, 4e-08, 0))
hIsland = hIsland.add(rect(5.2452351319576205e-09, 2.161028240409029e-09).transl(5.371465822215671e-09, 4e-08, 0))
hIsland = hIsland.add(rect(7.19048670941672e-09, 2.485198613486026e-09).transl(-3.772829209806391e-08, 4e-08, 0))
hIsland = hIsland.sub(rect(9.118215761660925e-09, -1.3038332657964389e-09).transl(-1.377039664003771e-07, 3.934472745300391e-08, 0))
hIsland = hIsland.add(rect(8.867915964010511e-09, 5.235447892268289e-09).transl(7.261912471747547e-08, 4e-08, 0))
hIsland = hIsland.add(rect(3.333108350803035e-09, 2.798798284977864e-09).transl(1.1891786680560046e-07, 4e-08, 0))
hIsland = hIsland.sub(rect(8.057013376158767e-09, -1.704255821297756e-09).transl(2.7544653222831616e-08, 4e-08, 0))
hIsland = hIsland.sub(rect(2.158727186784961e-09, -3.506185954285216e-09).transl(-1.0194805626090916e-07, 4e-08, 0))
hIsland = hIsland.sub(rect(3.5230102416703226e-09, -9.2329821146601e-10).transl(9.524404527347304e-08, 4e-08, 0))
hIsland = hIsland.add(rect(4.396372365512729e-09, 3.0289187368436877e-09).transl(-1.2884342066806362e-07, 4e-08, 0))
hIsland = hIsland.sub(rect(4.014390558030788e-09, -7.030157553360757e-10).transl(-8.456969925468554e-08, 4e-08, 0))
hIsland = hIsland.sub(rect(4.482666646478072e-09, -7.941572442955543e-10).transl(-1.2211758802061628e-07, 4e-08, 0))
hIsland = hIsland.sub(rect(5.5709420300562515e-09, -5.6276461692546865e-11).transl(9.40702907934008e-08, 4e-08, 0))
hIsland = hIsland.add(rect(3.1051345350808036e-09, 1.1750022149559814e-09).transl(-6.114840461031045e-08, 4e-08, 0))
hIsland = hIsland.sub(rect(4.654605276533821e-09, -1.6754854196562699e-09).transl(-1.208116245340503e-08, 4e-08, 0))
hIsland = hIsland.add(rect(4.261332700079435e-09, 5.341410408679098e-11).transl(1.4390510903538127e-08, 4e-08, 0))
hIsland = hIsland.add(rect(8.743030144009566e-09, 6.844312018356028e-10).transl(-6.072429685761953e-08, 4e-08, 0))
hIsland = hIsland.sub(rect(9.139320495260736e-09, -7.399784549291918e-10).transl(-1.357753167758193e-07, 3.99465317218133e-08, 0))
hIsland = hIsland.add(rect(2.6180490336411007e-09, 1.0177351342038058e-09).transl(-3.994122668808351e-08, 4e-08, 0))
hIsland = hIsland.add(rect(9.116221543615414e-09, 1.3507725502456136e-09).transl(9.329680425955402e-08, 4e-08, 0))
hIsland = hIsland.sub(rect(3.274138533125526e-09, -2.2234943045227513e-09).transl(-1.0093507081423254e-07, 4e-08, 0))
hIsland = hIsland.sub(rect(9.63981515574154e-09, -3.6348055110106284e-10).transl(6.822206184744291e-08, 4e-08, 0))
hIsland = hIsland.sub(rect(5.046240753039105e-09, -2.35643599828323e-09).transl(-3.5424032617448e-08, 4e-08, 0))
hIsland = hIsland.add(rect(7.909595643099883e-09, 1.293429584769651e-09).transl(-8.663323017336657e-09, 4e-08, 0))
hIsland = hIsland.add(rect(9.09404093018864e-09, 3.420274171531272e-09).transl(7.538613370879788e-08, 4e-08, 0))
hIsland = hIsland.sub(rect(6.908105870290581e-09, -1.769657523750831e-09).transl(5.518853509990011e-08, 4e-08, 0))
hIsland = hIsland.sub(rect(5.330278789093013e-09, -1.3462721918201822e-09).transl(7.209286281707991e-08, 4e-08, 0))
hIsland = hIsland.add(rect(8.41332831767456e-09, 4.792111641432398e-09).transl(4.235648464138512e-09, 4e-08, 0))
hIsland = hIsland.sub(rect(2.319937735894408e-09, -3.2426506161274415e-09).transl(2.677433677402175e-08, 4e-08, 0))
hIsland = hIsland.sub(rect(3.900549171555616e-09, -4.3806109480481697e-10).transl(-1.0830300861935196e-07, 4e-08, 0))
hIsland = hIsland.sub(rect(4.441347683209214e-09, -1.5630505914872737e-09).transl(1.0882956194135491e-07, 4e-08, 0))
hIsland = hIsland.add(rect(3.56686919729629e-09, 1.0324324020117608e-09).transl(1.1921757213672286e-07, 4e-08, 0))
hIsland = hIsland.add(rect(9.215728702591844e-09, 5.357925791974542e-10).transl(-1.3165489984306706e-07, 4e-08, 0))
hIsland = hIsland.add(rect(9.53069190547565e-09, 4.132978894323694e-09).transl(5.854164287076209e-08, 4e-08, 0))
hIsland = hIsland.add(rect(9.219676298338527e-09, 3.1748586437433596e-09).transl(4.052772143943802e-08, 4e-08, 0))
hIsland = hIsland.sub(rect(7.233218823353506e-09, -1.1424938379182128e-09).transl(-6.471451457493713e-08, 4e-08, 0))
hIsland = hIsland.sub(rect(6.779989017296074e-09, -9.08011983226309e-10).transl(8.393680257671891e-08, 4e-08, 0))
hIsland = hIsland.sub(rect(6.834419851085289e-09, -1.3563721693916893e-10).transl(-1.0744400773782641e-07, 4e-08, 0))
hIsland = hIsland.add(rect(4.743451086368688e-09, 4.009323957845098e-10).transl(-7.776320080305227e-08, 4e-08, 0))
hIsland = hIsland.sub(rect(4.343592746630598e-09, -1.9003181721286143e-09).transl(6.721557765821232e-08, 4e-08, 0))
hIsland = hIsland.add(rect(7.604045504820768e-09, 2.107848497214056e-09).transl(-3.118025633348518e-08, 4e-08, 0))
hIsland = hIsland.add(rect(9.090200384696254e-09, 3.9681348613702e-10).transl(9.762201108458663e-08, 4e-08, 0))
hIsland = hIsland.sub(rect(8.810556159694536e-09, -1.9386157845518218e-09).transl(-1.0554992421827243e-07, 4e-08, 0))
hIsland = hIsland.add(rect(6.677638966165043e-09, 2.306866186104653e-09).transl(1.1353381028561201e-07, 4e-08, 0))
hIsland = hIsland.sub(rect(4.077449458096127e-09, -3.2649815399616576e-09).transl(5.322442946587076e-08, 4e-08, 0))
hIsland = hIsland.sub(rect(8.980000482498938e-09, -5.768716747916453e-10).transl(9.973567622795401e-08, 4e-08, 0))
hIsland = hIsland.sub(rect(3.0423832394110565e-09, -2.30509913505166e-10).transl(6.901832376022355e-08, 4e-08, 0))
hIsland = hIsland.add(rect(8.006198785251088e-09, 3.4248263676125473e-09).transl(-1.4842162631688987e-07, 1.786068497076832e-08, 0))
hIsland = hIsland.add(rect(9.139774978267327e-09, 1.2723557576504533e-09).transl(1.1617703592723224e-07, 4e-08, 0))
hIsland = hIsland.add(rect(4.640188227897693e-09, 6.775549410781314e-10).transl(1.4247472921980617e-07, 3.4679835764376065e-08, 0))
hIsland = hIsland.sub(rect(2.2585958798357276e-09, -1.2587499291411627e-09).transl(8.888912797459614e-08, 4e-08, 0))
hIsland = hIsland.add(rect(6.459570420430091e-09, 2.225640421820958e-09).transl(-9.781094473383043e-08, 4e-08, 0))
hIsland = hIsland.sub(rect(7.193644677477182e-09, -3.0930631085613787e-09).transl(2.9281927613994183e-09, 4e-08, 0))
hIsland = hIsland.sub(rect(7.808971694159506e-09, -1.9361158050324507e-09).transl(1.2052422020116202e-07, 4e-08, 0))
hIsland = hIsland.sub(rect(4.527269003667469e-09, -3.278110614836072e-09).transl(9.007949371966107e-08, 4e-08, 0))
hIsland = hIsland.add(rect(3.954299746960885e-09, 3.524543975179748e-10).transl(5.6966992983369287e-08, 4e-08, 0))
hIsland = hIsland.sub(rect(6.743199680377581e-09, -2.419806875045912e-09).transl(1.4228060860352912e-07, 3.497226719556505e-08, 0))
hIsland = hIsland.add(rect(7.221768448029144e-09, 1.0446017289384315e-09).transl(-5.21527455090991e-10, 4e-08, 0))
hIsland = hIsland.sub(rect(9.228898509286188e-09, -2.3205272642187263e-11).transl(-8.210848326643226e-08, 4e-08, 0))
hIsland = hIsland.add(rect(6.696088106332032e-09, 4.569613916462782e-09).transl(-7.18180623262579e-08, 4e-08, 0))
hIsland = hIsland.add(rect(8.114357523887218e-09, 2.7732094205689697e-10).transl(5.5138140573373786e-08, 4e-08, 0))
hIsland = hIsland.sub(rect(3.787261898078265e-09, -1.1844605021621654e-09).transl(-1.2861146846794456e-07, 4e-08, 0))
hIsland = hIsland.add(rect(6.4539992556279376e-09, 3.567137794517466e-09).transl(3.5287000419076555e-08, 4e-08, 0))
hIsland = hIsland.add(rect(4.052668813608003e-09, 3.2329823466825016e-09).transl(3.8221577473170905e-08, 4e-08, 0))
hIsland = hIsland.sub(rect(4.9993946336211066e-09, -1.9113310972059197e-09).transl(1.5902100369482255e-08, 4e-08, 0))
hIsland = hIsland.sub(rect(7.660842646812741e-09, -2.567056520058661e-09).transl(8.135227390112668e-08, 4e-08, 0))
hIsland = hIsland.add(rect(2.594933643836633e-09, 1.3999132413487354e-10).transl(5.028357281154739e-08, 4e-08, 0))
hIsland = hIsland.add(rect(4.658444038684829e-09, 4.509313247917451e-10).transl(1.261031943814955e-07, 4e-08, 0))
hIsland = hIsland.add(rect(9.432594497860122e-09, 4.348941224130056e-10).transl(-5.7856554008341736e-08, 4e-08, 0))
hIsland = hIsland.add(rect(4.222433093357025e-09, 3.977404064123502e-09).transl(-5.28580955840533e-08, 4e-08, 0))
hIsland = hIsland.add(rect(3.054138145272898e-09, 1.0122482915894794e-10).transl(-1.3153326844712676e-07, 4e-08, 0))
hIsland = hIsland.sub(rect(5.2098123928415e-09, -2.507424964063938e-09).transl(1.088604466015703e-07, 4e-08, 0))
hIsland = hIsland.sub(rect(3.871530231013608e-09, -1.2556665030770792e-09).transl(-9.86167325770217e-08, 4e-08, 0))
hIsland = hIsland.sub(rect(6.364169575991476e-09, -2.551884033624154e-09).transl(-1.3420043640558086e-07, 4e-08, 0))
hIsland = hIsland.sub(rect(6.357289425414496e-09, -4.970218475702708e-09).transl(-2.5505000923443223e-08, 4e-08, 0))
hIsland = hIsland.sub(rect(8.099568871705691e-09, -3.604906615689255e-10).transl(3.751986011034849e-09, 4e-08, 0))
hIsland = hIsland.sub(rect(5.269310432783117e-09, -1.773045289636733e-09).transl(4.642269315986081e-08, 4e-08, 0))
hIsland = hIsland.add(rect(7.957206795139718e-09, 1.5859775214094573e-09).transl(-1.199435113454071e-07, 4e-08, 0))
hIsland = hIsland.sub(rect(9.19296271122484e-09, -7.631491401742862e-10).transl(2.4346056525797624e-08, 4e-08, 0))
hIsland = hIsland.sub(rect(8.935954287014899e-09, -4.4731505983906835e-09).transl(1.2398407077250294e-07, 4e-08, 0))
hIsland = hIsland.add(rect(3.1597242555483736e-09, 1.970305355739847e-10).transl(-1.2184513279160837e-08, 4e-08, 0))
hIsland = hIsland.sub(rect(8.788204949853978e-09, -8.70062279475217e-10).transl(-4.265066504425372e-09, 4e-08, 0))
hIsland = hIsland.sub(rect(2.151709759152925e-09, -4.4959686931497047e-10).transl(-1.0896477819511461e-07, 4e-08, 0))
hIsland = hIsland.sub(rect(2.32745190419793e-09, -1.7787600574082843e-09).transl(-7.605723609223534e-08, 4e-08, 0))
hIsland = hIsland.sub(rect(7.466884964416136e-09, -6.869308042331978e-10).transl(-2.409559074669668e-08, 4e-08, 0))
hIsland = hIsland.sub(rect(4.5173175096106016e-09, -1.6870390702459621e-09).transl(1.1531332558707187e-07, 4e-08, 0))
hIsland = hIsland.add(rect(6.739870175185996e-09, 1.911564118063123e-09).transl(-9.331942268718617e-08, 4e-08, 0))
hIsland = hIsland.add(rect(5.428988460906612e-09, 2.406312021326395e-12).transl(1.4970063066493887e-07, 7.951612802135813e-09, 0))
hIsland = hIsland.add(rect(4.283244869788179e-09, 3.5514575006340313e-10).transl(1.0086286341294577e-07, 4e-08, 0))
hIsland = hIsland.add(rect(6.7049537886534896e-09, 1.869979768408816e-09).transl(1.2143699261905152e-07, 4e-08, 0))
hIsland = hIsland.sub(rect(9.134041227535103e-09, -2.241630652171835e-09).transl(3.040082764720868e-08, 4e-08, 0))
hIsland = hIsland.sub(rect(3.2506817902678792e-09, -3.129272691196243e-09).transl(-1.3481992170140675e-07, 4e-08, 0))
hIsland = hIsland.add(rect(3.755052227776653e-09, 3.882859167056215e-09).transl(-9.170617938797769e-08, 4e-08, 0))
hIsland = hIsland.add(rect(9.357695732196153e-09, 3.0923981262919253e-10).transl(-1.3971899239745696e-07, 3.796898015804128e-08, 0))
hIsland = hIsland.add(rect(5.887695150642177e-09, 1.9720729201011646e-09).transl(8.823864646068292e-08, 4e-08, 0))
hIsland = hIsland.add(rect(2.120063582379355e-09, 1.049885019262193e-09).transl(5.833924577636464e-08, 4e-08, 0))
hIsland = hIsland.add(rect(6.6687598527917424e-09, 2.2390329148551037e-09).transl(7.309293523896497e-08, 4e-08, 0))
hIsland = hIsland.add(rect(7.944183681530058e-09, 6.137071793197005e-10).transl(-2.060343472263388e-08, 4e-08, 0))
hIsland = hIsland.add(rect(5.147501422254212e-09, 1.5650097514284006e-09).transl(-3.309552495183766e-08, 4e-08, 0))
hIsland = hIsland.add(rect(3.0709699569314445e-09, 2.912727999974955e-09).transl(-1.3709106118267076e-07, 3.9609423177854155e-08, 0))
hIsland = hIsland.add(rect(3.5532539280403415e-09, 2.16691715621136e-10).transl(2.9523236453746578e-08, 4e-08, 0))
hIsland = hIsland.add(rect(7.620891975841462e-09, 4.451324104672248e-09).transl(-9.711299283478244e-08, 4e-08, 0))
hIsland = hIsland.add(rect(4.895954609604035e-09, 1.3147599745018384e-09).transl(7.752129860985482e-08, 4e-08, 0))
hIsland = hIsland.add(rect(8.132842065122499e-09, 2.913891073878564e-09).transl(-7.130680449248989e-08, 4e-08, 0))
hIsland = hIsland.sub(rect(4.5605078201362526e-09, -1.2613785937642127e-09).transl(-7.771505383527408e-08, 4e-08, 0))
hIsland = hIsland.add(rect(7.653528951795367e-09, 2.4377574610644283e-09).transl(-7.780562876466936e-08, 4e-08, 0))
hIsland = hIsland.add(rect(2.0691897647851693e-09, 3.985774521796326e-09).transl(-1.3705867811215733e-08, 4e-08, 0))
hIsland = hIsland.add(rect(2.2855390217188827e-09, 2.1138482248247626e-09).transl(-9.784192320950232e-08, 4e-08, 0))
hIsland = hIsland.add(rect(4.913816836675059e-09, 1.9024674467392366e-10).transl(-9.18595213713323e-08, 4e-08, 0))
hIsland = hIsland.sub(rect(4.981206105975205e-09, -4.879923222449984e-10).transl(-6.269515647757465e-09, 4e-08, 0))
hIsland = hIsland.add(rect(5.8913469014255715e-09, 2.446347586536925e-11).transl(8.791582913139206e-08, 4e-08, 0))
hIsland = hIsland.add(rect(2.590602715364182e-09, 6.018716968271785e-10).transl(-6.512933075931443e-09, 4e-08, 0))
hIsland = hIsland.sub(rect(8.460804440912071e-09, -3.8347624506977935e-09).transl(1.2296440438780959e-07, 4e-08, 0))
hIsland = hIsland.sub(rect(3.720344331419907e-09, -7.229983457829752e-10).transl(1.9707752600561057e-08, 4e-08, 0))
hIsland = hIsland.sub(rect(7.708908217036725e-09, -7.787628875015765e-10).transl(-1.3713439147512855e-07, 3.9592984611442794e-08, 0))
hIsland = hIsland.sub(rect(2.0655556088235975e-09, -1.9094725584837652e-10).transl(-1.3613407628796394e-07, 3.9885513580576245e-08, 0))
hIsland = hIsland.add(rect(2.191828530260798e-09, 6.222695671234211e-11).transl(-4.82291713125118e-08, 4e-08, 0))
hIsland = hIsland.sub(rect(4.676130568852291e-09, -1.724807781755678e-09).transl(-1.0505266425105983e-07, 4e-08, 0))
hIsland = hIsland.sub(rect(4.288197881190398e-09, -2.1188579636550217e-10).transl(1.525841337128218e-08, 4e-08, 0))
hIsland = hIsland.add(rect(7.364148768254417e-09, 1.1557600965994754e-09).transl(-4.9870347878121886e-08, 4e-08, 0))
hIsland = hIsland.sub(rect(2.901993666759858e-09, -2.0290586099018028e-11).transl(8.008427268660657e-08, 4e-08, 0))
hIsland = hIsland.sub(rect(9.679266880610315e-09, -6.661714628398395e-10).transl(-1.1390279637762885e-07, 4e-08, 0))
hIsland = hIsland.sub(rect(5.072627334617495e-09, -1.3745327842013006e-09).transl(4.304850826820628e-08, 4e-08, 0))
hIsland = hIsland.add(rect(2.318608160420505e-09, 1.6694760299271053e-09).transl(3.489513886243642e-08, 4e-08, 0))
hIsland = hIsland.add(rect(3.3365895893086234e-09, 2.354016256766651e-09).transl(1.1663781886523348e-07, 4e-08, 0))
hIsland = hIsland.sub(rect(9.520314883348991e-09, -4.097580672247039e-09).transl(-2.4021090561547225e-08, 4e-08, 0))
hIsland = hIsland.add(rect(9.738061325212059e-09, 1.3600266077404262e-09).transl(-1.1548194687274231e-07, 4e-08, 0))
hIsland = hIsland.sub(rect(9.778471618871298e-09, -6.729936926461268e-10).transl(-8.515582919002663e-08, 4e-08, 0))
hIsland = hIsland.add(rect(5.007701556282975e-09, 2.3213552267803694e-09).transl(6.139189554957198e-08, 4e-08, 0))
hIsland = hIsland.add(rect(7.180922412611242e-09, 1.0304918396026668e-09).transl(1.0577833356030912e-07, 4e-08, 0))
hIsland = hIsland.sub(rect(7.767799307701431e-09, -3.222785597914569e-10).transl(-7.829916632741611e-08, 4e-08, 0))
hIsland = hIsland.add(rect(8.304100420946554e-09, 2.282349976226526e-09).transl(9.023264983422685e-08, 4e-08, 0))
hIsland = hIsland.add(rect(2.330861727425398e-09, 2.2864131250824516e-09).transl(-6.190117383931817e-08, 4e-08, 0))
hIsland = hIsland.add(rect(9.436263004391373e-09, 1.5841410343360145e-09).transl(1.7128281756860103e-08, 4e-08, 0))
hIsland = hIsland.sub(rect(9.676484153411107e-09, -6.073410015292858e-11).transl(-1.397041830004765e-08, 4e-08, 0))
hIsland = hIsland.sub(rect(7.398574418644215e-09, -4.674078639796842e-11).transl(1.3281448829157543e-08, 4e-08, 0))
hIsland = hIsland.sub(rect(9.025950560899214e-09, -9.265142539573851e-10).transl(-1.2453221845984849e-07, 4e-08, 0))
hIsland = hIsland.add(rect(9.342977252433039e-09, 1.4018118234969569e-09).transl(1.4670343514762207e-07, 2.501975834261552e-08, 0))
hIsland = hIsland.add(rect(2.9919710108033765e-09, 7.953466031201389e-10).transl(-1.1880963960756623e-07, 4e-08, 0))
hIsland = hIsland.add(rect(3.6267985246028146e-09, 8.955866854195328e-10).transl(-1.0864077154777454e-07, 4e-08, 0))
hIsland = hIsland.add(rect(3.1797260711873456e-09, 3.776521128665117e-10).transl(-9.257815054830871e-08, 4e-08, 0))
hIsland = hIsland.sub(rect(3.9981733476941136e-09, -1.6096353955968652e-10).transl(-7.936249549994874e-08, 4e-08, 0))
hIsland = hIsland.sub(rect(7.030013086491418e-09, -8.082341742126331e-11).transl(1.9955684463538663e-08, 4e-08, 0))
hIsland = hIsland.sub(rect(7.741776573156956e-09, -5.814779131558504e-10).transl(-1.0072372589239179e-07, 4e-08, 0))
hIsland = hIsland.add(rect(9.491439828662121e-09, 6.175602919534255e-10).transl(-2.0996868416818094e-08, 4e-08, 0))
hIsland = hIsland.add(rect(8.741830309784612e-09, 7.944390097499518e-10).transl(1.093221578541568e-07, 4e-08, 0))
hIsland = hIsland.add(rect(9.025144605796034e-09, 7.379562296719314e-10).transl(-7.762009111147895e-08, 4e-08, 0))
hIsland = hIsland.sub(rect(3.419033522316607e-09, -2.792998577255784e-10).transl(1.397395123136895e-07, 3.79508007144582e-08, 0))
hIsland = hIsland.sub(rect(9.048375368456005e-09, -1.8746815662502784e-09).transl(6.321109495340863e-09, 4e-08, 0))
hIsland = hIsland.sub(rect(7.365455759960203e-09, -5.139497345694415e-10).transl(2.8333028629184135e-08, 4e-08, 0))
hIsland = hIsland.add(rect(9.409519900799432e-09, 2.6248539997575005e-09).transl(-1.444535916279669e-07, 3.1056033125133664e-08, 0))
hIsland = hIsland.sub(rect(4.86392771223734e-09, -1.2582241903859135e-10).transl(1.023297675641706e-07, 4e-08, 0))
hIsland = hIsland.add(rect(5.8274047268957625e-09, 6.769287985835715e-10).transl(-1.177330804927856e-07, 4e-08, 0))
hIsland = hIsland.add(rect(5.548105268722821e-09, 1.6472172234953797e-09).transl(-1.9536555827273494e-08, 4e-08, 0))
hIsland = hIsland.add(rect(2.145976762908348e-09, 1.8106096424377592e-10).transl(-1.4834026491282189e-07, 1.8289004746528766e-08, 0))
hIsland = hIsland.sub(rect(2.3616660509851437e-09, -5.100926475674671e-10).transl(1.4494364657380663e-07, 2.994797181070742e-08, 0))
hIsland = hIsland.sub(rect(3.4878745691719336e-09, -3.979218100841322e-09).transl(-3.867323453542118e-08, 4e-08, 0))
hIsland = hIsland.sub(rect(6.9459243102636526e-09, -1.5643351598880406e-09).transl(-7.601160157932748e-09, 4e-08, 0))
hIsland = hIsland.sub(rect(6.9314489595695865e-09, -1.6578310688355715e-10).transl(-7.555992048755691e-08, 4e-08, 0))
hIsland = hIsland.sub(rect(4.411841294842133e-09, -1.1136312594361033e-10).transl(-1.3897393950278822e-07, 3.857071357189068e-08, 0))
hIsland = hIsland.add(rect(3.6467400787093452e-09, 2.787924512169762e-09).transl(-4.83430709782942e-08, 4e-08, 0))
hIsland = hIsland.sub(rect(6.920897623585015e-09, -2.727008315152463e-09).transl(-1.0649572395027068e-07, 4e-08, 0))
hIsland = hIsland.add(rect(9.667586870307325e-09, 4.781411458804683e-10).transl(2.9755263394365747e-08, 4e-08, 0))
hIsland = hIsland.sub(rect(8.052296781461308e-09, -4.8180602063575926e-11).transl(-2.076243798508527e-09, 4e-08, 0))
hIsland = hIsland.sub(rect(2.887360140136841e-09, -3.374742335376716e-10).transl(1.0188021959773202e-07, 4e-08, 0))
hIsland = hIsland.add(rect(5.750967209403406e-09, 8.645886850518188e-10).transl(8.455242419348435e-08, 4e-08, 0))
hIsland = hIsland.sub(rect(2.4846065272939318e-09, -1.3484053202042e-09).transl(1.0434807445882513e-07, 4e-08, 0))
hIsland = hIsland.sub(rect(3.996257535345138e-09, -2.0672013067621155e-09).transl(1.0405655675457625e-07, 4e-08, 0))
hIsland = hIsland.add(rect(4.93672749835128e-09, 4.669182073851745e-10).transl(8.342353980426682e-08, 4e-08, 0))
hIsland = hIsland.sub(rect(7.1248104342158935e-09, -2.3135738669736983e-11).transl(-1.4763970487462267e-07, 2.153865538895178e-08, 0))
hIsland = hIsland.add(rect(3.168845870765532e-09, 3.6019065350045694e-10).transl(-8.062195180098825e-08, 4e-08, 0))
hIsland = hIsland.add(rect(8.786472800294994e-09, 1.2553397764020995e-09).transl(1.1937692663928466e-07, 4e-08, 0))
hIsland = hIsland.add(rect(2.6065789607076396e-09, 2.8294598262322342e-09).transl(-1.1328887484057969e-07, 4e-08, 0))
hIsland = hIsland.sub(rect(4.52266562963368e-09, -7.707865852820119e-10).transl(8.997274140163001e-08, 4e-08, 0))
hIsland = hIsland.add(rect(8.812655592763484e-09, 5.465184202086599e-09).transl(4.3347594406763176e-08, 4e-08, 0))
hIsland = hIsland.sub(rect(8.930616033191195e-09, -2.1529792848106366e-09).transl(1.2198646288648986e-07, 4e-08, 0))
hIsland = hIsland.sub(rect(4.872325055309273e-09, -1.8372659011154666e-09).transl(5.216832253376443e-08, 4e-08, 0))
hIsland = hIsland.add(rect(4.9749472871824845e-09, 2.029286387177216e-09).transl(-6.190205935074962e-10, 4e-08, 0))
hIsland = hIsland.sub(rect(8.302952755100886e-09, -1.943417722386144e-09).transl(2.067832071651628e-08, 4e-08, 0))
hIsland = hIsland.add(rect(4.1625074669784155e-09, 4.3090343114135126e-10).transl(-1.0337912147120573e-07, 4e-08, 0))
hIsland = hIsland.sub(rect(9.302304718925779e-09, -2.3335355203620107e-09).transl(1.4452809412344497e-07, 3.089370132133287e-08, 0))
hIsland = hIsland.sub(rect(7.3589935058542785e-09, -1.3674429367496873e-09).transl(-2.809355483300527e-08, 4e-08, 0))
hIsland = hIsland.sub(rect(4.070048708406487e-09, -1.1164525345023066e-12).transl(-3.023909477290571e-08, 4e-08, 0))
hIsland = hIsland.add(rect(9.633403700008946e-09, 2.0860015760925664e-11).transl(-1.619344370514197e-08, 4e-08, 0))
hIsland = hIsland.sub(rect(6.8403538694530875e-09, -2.4332822607885296e-09).transl(-1.0517365715530657e-07, 4e-08, 0))
hIsland = hIsland.sub(rect(8.925233410611338e-09, -3.52661286393419e-10).transl(4.304562300360707e-08, 4e-08, 0))
hIsland = hIsland.add(rect(7.689859884193543e-09, 1.1838860133474204e-09).transl(1.4293990301058455e-07, 3.393671916913184e-08, 0))
hIsland = hIsland.add(rect(3.21894888172431e-09, 2.637405313712148e-09).transl(-3.23460659443843e-08, 4e-08, 0))
hIsland = hIsland.sub(rect(4.294318501556442e-09, -2.1997643175574176e-09).transl(5.518889160657777e-09, 4e-08, 0))
hIsland = hIsland.add(rect(7.625165483542895e-09, 1.9618942522312207e-09).transl(2.7112105246228e-08, 4e-08, 0))
hIsland = hIsland.add(rect(2.4344630065038846e-09, 9.219900774593188e-10).transl(-1.1938172023906946e-07, 4e-08, 0))
hIsland = hIsland.sub(rect(8.243696092067364e-09, -4.005378682360311e-09).transl(-1.296549051492496e-07, 4e-08, 0))
hIsland = hIsland.sub(rect(2.3111216069292873e-09, -1.3933052581400215e-09).transl(3.580794360275614e-08, 4e-08, 0))
hIsland = hIsland.add(rect(8.393494504173594e-09, 1.05397385536256e-09).transl(1.397794273416398e-07, 3.7915187156926845e-08, 0))
vIsland = hIsland.rotz(pi / 2)
hIslands = hIslands.add(hIsland.transl(-a/2, a, 0))
hIsland = rect(islandLength-2*ellipseConstant, islandWidth)
hIsland = hIsland.add(ellipse(ellipseConstant*2, islandWidth).transl(islandLength/2-ellipseConstant, 0, 0))
hIsland = hIsland.add(ellipse(ellipseConstant*2, islandWidth).transl(-islandLength/2+ellipseConstant, 0, 0))
hIsland = hIsland.sub(rect(8.714987424156648e-09, -2.865498269571061e-09).transl(9.109987893370371e-08, -4e-08, 0))
hIsland = hIsland.sub(rect(3.0935437239153627e-09, -2.976936322141847e-09).transl(-3.739725370332205e-08, -4e-08, 0))
hIsland = hIsland.add(rect(3.1641971958195907e-09, 1.4084475447235084e-09).transl(-6.555226387321667e-08, -4e-08, 0))
hIsland = hIsland.add(rect(6.780273948010033e-09, 7.151683874375577e-10).transl(-1.3853738072109124e-07, -3.887181785272567e-08, 0))
hIsland = hIsland.sub(rect(4.272506610576188e-09, -3.816802368660548e-09).transl(1.1274185509669121e-07, -4e-08, 0))
hIsland = hIsland.add(rect(6.733612414710161e-09, 7.942426469661847e-10).transl(-1.4504608177585874e-07, -2.9703870718545508e-08, 0))
hIsland = hIsland.add(rect(5.171069960951502e-09, 8.139027461402375e-10).transl(-8.038209612654479e-08, -4e-08, 0))
hIsland = hIsland.sub(rect(5.740705591624487e-09, -2.541329952852379e-09).transl(1.2179747968991244e-07, -4e-08, 0))
hIsland = hIsland.add(rect(2.8859037605192754e-09, 2.6326006403259664e-09).transl(7.394843844040665e-08, -4e-08, 0))
hIsland = hIsland.add(rect(7.860276901124383e-09, 3.233614911450419e-09).transl(-1.2576285394137353e-07, -4e-08, 0))
hIsland = hIsland.sub(rect(8.784178315500822e-09, -1.300812874103445e-09).transl(-1.309925691136664e-08, -4e-08, 0))
hIsland = hIsland.add(rect(5.52965119011694e-09, 2.5368688989904883e-09).transl(9.562395020465466e-08, -4e-08, 0))
hIsland = hIsland.sub(rect(5.97484429703611e-09, -2.7161460995408324e-09).transl(5.692489976719045e-08, -4e-08, 0))
hIsland = hIsland.add(rect(6.030002672501073e-09, 1.8689417533938188e-09).transl(-2.8072228941393868e-08, -4e-08, 0))
hIsland = hIsland.sub(rect(2.367761238049945e-09, -1.1379136195505697e-09).transl(1.308476578998079e-07, -4e-08, 0))
hIsland = hIsland.add(rect(2.092301949757216e-09, 1.6963262879223838e-09).transl(9.895675249567524e-08, -4e-08, 0))
hIsland = hIsland.add(rect(9.88709698803771e-09, 2.2825115793547526e-09).transl(-8.46455546448054e-09, -4e-08, 0))
hIsland = hIsland.sub(rect(4.318765838244208e-09, -2.020445790956856e-09).transl(-1.1297115412181368e-07, -4e-08, 0))
hIsland = hIsland.sub(rect(4.388981559074993e-09, -1.1850758118297173e-09).transl(4.6085968033100376e-08, -4e-08, 0))
hIsland = hIsland.sub(rect(7.797425380433438e-09, -1.0355311423639928e-09).transl(-1.1241353887625816e-07, -4e-08, 0))
hIsland = hIsland.add(rect(7.71959027085571e-09, 2.138494249944641e-09).transl(-1.070164090292933e-07, -4e-08, 0))
hIsland = hIsland.sub(rect(9.275702459377843e-09, -3.1092619270991522e-09).transl(7.857950288761144e-08, -4e-08, 0))
hIsland = hIsland.sub(rect(9.429377828420782e-09, -3.227713018101615e-09).transl(-1.4827892333583476e-08, -4e-08, 0))
hIsland = hIsland.add(rect(7.431825347489267e-09, 1.7975095792812858e-09).transl(-2.3917401463450067e-08, -4e-08, 0))
hIsland = hIsland.sub(rect(6.265245342053414e-09, -1.4947986555821908e-09).transl(-1.2756105089453965e-07, -4e-08, 0))
hIsland = hIsland.add(rect(7.123315623857273e-09, 2.0483192467606813e-09).transl(3.272116812869773e-08, -4e-08, 0))
hIsland = hIsland.add(rect(8.176701157685291e-09, 8.832277640050528e-10).transl(8.788143823618901e-08, -4e-08, 0))
hIsland = hIsland.sub(rect(7.3275612462664776e-09, -3.235197108593486e-09).transl(-1.2735597734875315e-07, -4e-08, 0))
hIsland = hIsland.sub(rect(9.660510239392543e-09, -2.324093704095127e-09).transl(4.535484742292662e-08, -4e-08, 0))
hIsland = hIsland.add(rect(7.0411102555199495e-09, 1.5615734041946832e-09).transl(-1.0744891829341763e-07, -4e-08, 0))
hIsland = hIsland.add(rect(9.595560137459366e-09, 2.329663546456431e-10).transl(5.116064963955891e-08, -4e-08, 0))
hIsland = hIsland.add(rect(2.7248874246441635e-09, 3.9556491799429834e-09).transl(1.0168594450694637e-08, -4e-08, 0))
hIsland = hIsland.sub(rect(8.569604398361684e-09, -7.441178390532948e-10).transl(-6.117200355780952e-08, -4e-08, 0))
hIsland = hIsland.add(rect(4.256541228567485e-09, 4.790117474111185e-11).transl(8.040388984166173e-08, -4e-08, 0))
hIsland = hIsland.sub(rect(3.5000430250675293e-09, -1.3425696921952568e-09).transl(-1.2944141976246564e-07, -4e-08, 0))
hIsland = hIsland.sub(rect(2.0068202835419468e-09, -1.668548208982013e-09).transl(-1.2320590645598627e-07, -4e-08, 0))
hIsland = hIsland.add(rect(7.470858777301468e-09, 3.5683331131154925e-09).transl(-8.136515886066743e-08, -4e-08, 0))
hIsland = hIsland.add(rect(3.086092301464547e-09, 1.0354685914822583e-09).transl(5.717563366790266e-08, -4e-08, 0))
hIsland = hIsland.add(rect(7.83555354545159e-09, 1.432888743851761e-09).transl(-1.1718548420448148e-07, -4e-08, 0))
hIsland = hIsland.sub(rect(3.912864151989736e-09, -2.7992092529943797e-10).transl(5.563356370191898e-08, -4e-08, 0))
hIsland = hIsland.sub(rect(9.487741402017392e-09, -4.332647071000018e-10).transl(3.174552820466884e-08, -4e-08, 0))
hIsland = hIsland.add(rect(8.480259909591195e-09, 1.0678516136274454e-09).transl(-4.787671423709254e-09, -4e-08, 0))
hIsland = hIsland.sub(rect(2.5035563277222357e-09, -1.7431164300686714e-09).transl(-5.0199439278604664e-08, -4e-08, 0))
hIsland = hIsland.sub(rect(2.7322323892034775e-09, -4.6136259549764026e-10).transl(-1.328878782859848e-07, -4e-08, 0))
hIsland = hIsland.add(rect(4.677819701363577e-09, 6.058683479111648e-10).transl(-5.058532454573005e-08, -4e-08, 0))
hIsland = hIsland.add(rect(3.198287748894834e-09, 2.3121397881881998e-09).transl(1.1306159942545722e-07, -4e-08, 0))
hIsland = hIsland.sub(rect(4.246373244656926e-09, -1.3364071275727408e-09).transl(7.015427076041312e-08, -4e-08, 0))
hIsland = hIsland.sub(rect(4.099110984401912e-09, -2.0078037472708818e-09).transl(-1.3082287451032724e-07, -4e-08, 0))
hIsland = hIsland.add(rect(4.6273096410299245e-09, 1.878072118235808e-09).transl(-7.801420475800023e-08, -4e-08, 0))
hIsland = hIsland.sub(rect(8.689859189345662e-09, -1.2280584818123737e-09).transl(5.176484698119623e-08, -4e-08, 0))
hIsland = hIsland.add(rect(6.557547357038177e-09, 1.3421764095123031e-09).transl(-4.719031069999131e-08, -4e-08, 0))
hIsland = hIsland.sub(rect(4.013755057459736e-09, -1.0765047976829234e-09).transl(-1.3742022215173942e-07, -3.947590204882905e-08, 0))
hIsland = hIsland.add(rect(2.095558330988076e-09, 2.124893273279988e-09).transl(1.069229892732491e-07, -4e-08, 0))
hIsland = hIsland.add(rect(4.284303357804887e-09, 2.75301594958706e-09).transl(5.702972781533305e-08, -4e-08, 0))
hIsland = hIsland.add(rect(9.01449341512009e-09, 1.4436847758903313e-09).transl(-2.9796429126046158e-08, -4e-08, 0))
hIsland = hIsland.add(rect(2.3016462428987713e-09, 4.232725966955706e-09).transl(-1.3687891976857913e-07, -3.968495134907707e-08, 0))
hIsland = hIsland.add(rect(9.701401730751115e-09, 1.6067427179429024e-09).transl(-5.571022289609512e-08, -4e-08, 0))
hIsland = hIsland.add(rect(6.851813967245652e-09, 2.9572063779528764e-10).transl(-1.0430935536684629e-07, -4e-08, 0))
hIsland = hIsland.sub(rect(6.787122904536356e-09, -4.031608222054998e-09).transl(1.0610012828532039e-07, -4e-08, 0))
hIsland = hIsland.sub(rect(4.548041241791689e-09, -4.608990055745474e-10).transl(-1.1176447360876226e-07, -4e-08, 0))
hIsland = hIsland.sub(rect(4.699826492336321e-09, -5.614840850920747e-09).transl(-6.097140558736086e-08, -4e-08, 0))
hIsland = hIsland.sub(rect(5.352349835278626e-09, -1.5652840613259766e-09).transl(-1.19025450772535e-07, -4e-08, 0))
hIsland = hIsland.add(rect(4.560969934318528e-09, 2.9720973493519256e-09).transl(9.512874441606132e-08, -4e-08, 0))
hIsland = hIsland.add(rect(9.460792246786266e-09, 5.463853029546153e-10).transl(1.2860266936920146e-08, -4e-08, 0))
hIsland = hIsland.add(rect(4.473342077279538e-09, 3.1725303754085285e-09).transl(-6.514689896282871e-08, -4e-08, 0))
hIsland = hIsland.add(rect(5.696756608578806e-09, 3.505539402799763e-09).transl(-1.3744736210683806e-07, -3.946400159632524e-08, 0))
hIsland = hIsland.sub(rect(5.052170928428917e-09, -1.9637371678538523e-09).transl(1.1743811574502068e-07, -4e-08, 0))
hIsland = hIsland.sub(rect(5.565953247334815e-09, -7.959184864039621e-10).transl(-1.190162107000177e-07, -4e-08, 0))
hIsland = hIsland.add(rect(3.2274050401717863e-09, 2.678611095714315e-09).transl(1.3651887147102196e-07, -3.9794407598568425e-08, 0))
hIsland = hIsland.sub(rect(8.816927085490314e-09, -5.933901677370096e-09).transl(-7.130127317157592e-08, -4e-08, 0))
hIsland = hIsland.add(rect(3.0041295682724577e-09, 1.1839626319198476e-09).transl(-1.4783754243211164e-07, -2.068988017643985e-08, 0))
hIsland = hIsland.sub(rect(3.0079944594490614e-09, -1.6530596766778947e-09).transl(-2.421190297530589e-08, -4e-08, 0))
hIsland = hIsland.add(rect(3.490979039778788e-09, 1.3232776615273918e-09).transl(3.72808403969887e-08, -4e-08, 0))
hIsland = hIsland.add(rect(8.11746769179316e-09, 3.521204346188071e-10).transl(1.6438200869148702e-08, -4e-08, 0))
hIsland = hIsland.add(rect(5.029880064152703e-09, 1.000707970479799e-09).transl(1.1202547930896079e-07, -4e-08, 0))
hIsland = hIsland.add(rect(8.571336548126216e-09, 9.171229712009963e-10).transl(5.594536038833395e-08, -4e-08, 0))
hIsland = hIsland.add(rect(9.617968457795063e-09, 1.5023160105258266e-09).transl(-1.0176177819265703e-08, -4e-08, 0))
hIsland = hIsland.sub(rect(7.89785288706137e-09, -9.363538894959884e-10).transl(4.476351965900502e-08, -4e-08, 0))
hIsland = hIsland.sub(rect(7.023158220422304e-09, -5.831009479085452e-10).transl(-1.421524278919319e-07, -3.5159853393775e-08, 0))
hIsland = hIsland.add(rect(5.335816479682624e-09, 1.1596792813078052e-09).transl(-6.518550894937593e-08, -4e-08, 0))
hIsland = hIsland.sub(rect(9.543670717216367e-09, -3.183090484981573e-09).transl(7.483352130368553e-08, -4e-08, 0))
hIsland = hIsland.sub(rect(2.4001348172918384e-09, -1.3169816963797345e-09).transl(-3.826891674675438e-08, -4e-08, 0))
hIsland = hIsland.add(rect(3.6257102398552663e-09, 8.668142808851239e-11).transl(-2.510903904538961e-08, -4e-08, 0))
hIsland = hIsland.add(rect(9.586865692143679e-09, 6.78984431530885e-10).transl(-9.386456643740092e-08, -4e-08, 0))
hIsland = hIsland.sub(rect(9.456253987529462e-09, -9.665844635646929e-10).transl(5.544275240527022e-08, -4e-08, 0))
hIsland = hIsland.sub(rect(8.543976546669718e-09, -1.7884203079764178e-10).transl(7.958062290918241e-09, -4e-08, 0))
hIsland = hIsland.add(rect(4.138170405181295e-09, 2.824806073073507e-10).transl(-8.915514611828056e-08, -4e-08, 0))
hIsland = hIsland.add(rect(8.306319940497439e-09, 1.99310127545138e-09).transl(2.4695874315117688e-08, -4e-08, 0))
hIsland = hIsland.add(rect(2.07982246295017e-09, 2.730880535220374e-09).transl(8.095656918866211e-08, -4e-08, 0))
hIsland = hIsland.sub(rect(5.38911035807854e-09, -1.3658616733235789e-09).transl(9.204890012625724e-08, -4e-08, 0))
hIsland = hIsland.sub(rect(4.691753935492708e-09, -1.6488343007680363e-09).transl(-2.1640770166659702e-08, -4e-08, 0))
hIsland = hIsland.add(rect(8.370253592347396e-09, 1.951171778416289e-09).transl(6.532633124801691e-10, -4e-08, 0))
hIsland = hIsland.sub(rect(8.755547640555366e-09, -5.975918324290635e-10).transl(-5.009953953629052e-08, -4e-08, 0))
hIsland = hIsland.sub(rect(4.592078531375763e-09, -3.580419067901737e-10).transl(-1.4819735051255018e-07, -1.9012031642939166e-08, 0))
hIsland = hIsland.sub(rect(8.687172883802813e-09, -1.3173644414506953e-09).transl(-7.439180052498735e-08, -4e-08, 0))
hIsland = hIsland.add(rect(3.3220629097725348e-09, 1.6811997587684568e-09).transl(8.319298611915149e-08, -4e-08, 0))
hIsland = hIsland.add(rect(2.7062311309677078e-09, 9.85118843335766e-10).transl(4.481855982306553e-08, -4e-08, 0))
hIsland = hIsland.sub(rect(8.668848383428693e-09, -2.0779187997681967e-11).transl(3.070088559711623e-08, -4e-08, 0))
hIsland = hIsland.sub(rect(3.3496154488980098e-09, -2.4972186089705464e-09).transl(-7.750260391894983e-08, -4e-08, 0))
hIsland = hIsland.add(rect(9.530911173571e-09, 2.532217674587233e-09).transl(-1.123005599319266e-07, -4e-08, 0))
hIsland = hIsland.sub(rect(9.68113302217195e-09, -1.0898404825092188e-10).transl(8.167084488496073e-08, -4e-08, 0))
hIsland = hIsland.add(rect(5.1313781961552335e-09, 1.5469180209414886e-09).transl(-7.809385003089473e-08, -4e-08, 0))
hIsland = hIsland.sub(rect(5.649996915473261e-09, -7.374371747134873e-10).transl(6.953014717501751e-08, -4e-08, 0))
hIsland = hIsland.sub(rect(5.2795025072559954e-09, -7.409549729305451e-10).transl(-1.7093052703969436e-08, -4e-08, 0))
hIsland = hIsland.add(rect(7.440126513676057e-09, 1.3792554545709184e-09).transl(-4.5774408819081013e-08, -4e-08, 0))
hIsland = hIsland.sub(rect(3.748711734972188e-09, -1.3721865097502834e-09).transl(-8.687568797984346e-08, -4e-08, 0))
hIsland = hIsland.sub(rect(4.9280244778058036e-09, -2.3644136283554156e-09).transl(-1.1887109931432685e-07, -4e-08, 0))
hIsland = hIsland.sub(rect(2.739650823115108e-09, -2.6944413599512405e-09).transl(1.4398288180214628e-07, -3.203418557630591e-08, 0))
hIsland = hIsland.add(rect(4.3413007907462665e-09, 8.987013576257137e-10).transl(-4.966988045973111e-08, -4e-08, 0))
hIsland = hIsland.add(rect(6.922753032542421e-09, 1.1813448397285557e-09).transl(1.0997473302237968e-07, -4e-08, 0))
hIsland = hIsland.add(rect(4.9000321488066145e-09, 2.3322255980559647e-11).transl(-1.2374613276656342e-07, -4e-08, 0))
hIsland = hIsland.sub(rect(8.050171523925315e-09, -1.6340267223881189e-09).transl(-2.5422663007254173e-08, -4e-08, 0))
hIsland = hIsland.add(rect(6.922249676680157e-09, 1.2427343954872792e-09).transl(8.213106610052649e-08, -4e-08, 0))
hIsland = hIsland.sub(rect(3.314464632715571e-09, -1.507465351755214e-09).transl(3.0442739922416533e-09, -4e-08, 0))
hIsland = hIsland.sub(rect(9.707844721774532e-09, -1.9697023050668096e-10).transl(-3.291232402539288e-08, -4e-08, 0))
hIsland = hIsland.add(rect(3.679282452941534e-09, 2.1774471294413656e-09).transl(4.452699200721281e-08, -4e-08, 0))
hIsland = hIsland.add(rect(2.6983670795051105e-09, 1.2600647420609144e-09).transl(-4.8998649882037945e-08, -4e-08, 0))
hIsland = hIsland.add(rect(6.188981891977094e-09, 8.096327926122791e-10).transl(1.0363029571851345e-07, -4e-08, 0))
hIsland = hIsland.add(rect(5.093617001194035e-09, 2.1044219215441914e-09).transl(8.971984983236948e-08, -4e-08, 0))
hIsland = hIsland.add(rect(2.9021833367729757e-09, 2.6285049399928526e-09).transl(-1.173044162542249e-07, -4e-08, 0))
hIsland = hIsland.add(rect(2.440447324075489e-09, 1.7137008070759759e-10).transl(1.2415979218813574e-07, -4e-08, 0))
hIsland = hIsland.sub(rect(7.164110002183137e-09, -2.2620084909674823e-09).transl(1.1883366610313235e-07, -4e-08, 0))
hIsland = hIsland.sub(rect(9.749059353042187e-09, -4.4462298190886065e-09).transl(2.318982683049033e-09, -4e-08, 0))
hIsland = hIsland.add(rect(8.363881265913852e-09, 5.644078058720876e-09).transl(3.5297509481036226e-08, -4e-08, 0))
hIsland = hIsland.add(rect(9.622749519696546e-09, 1.0500741459760562e-09).transl(-3.614144097624445e-08, -4e-08, 0))
hIsland = hIsland.add(rect(2.906955811421707e-09, 3.3402537149051853e-09).transl(-2.8207238676691206e-08, -4e-08, 0))
hIsland = hIsland.add(rect(8.568684433862356e-09, 1.990655898979412e-09).transl(-1.0171533296948979e-07, -4e-08, 0))
hIsland = hIsland.add(rect(5.360848614306995e-09, 1.790262203475279e-09).transl(-1.1187704146480046e-07, -4e-08, 0))
hIsland = hIsland.sub(rect(3.239829599216915e-09, -1.5226808321339272e-09).transl(1.1578542466700589e-07, -4e-08, 0))
hIsland = hIsland.add(rect(4.27503121638143e-09, 2.1721643726137632e-09).transl(-1.5694841967655298e-09, -4e-08, 0))
hIsland = hIsland.sub(rect(3.6162396034545054e-09, -1.396265765028308e-09).transl(1.333234972063632e-07, -4e-08, 0))
hIsland = hIsland.add(rect(3.817821175860846e-09, 2.4612202013728704e-09).transl(7.011370556557957e-08, -4e-08, 0))
hIsland = hIsland.add(rect(8.062972481583512e-09, 1.9883897987856814e-09).transl(-1.0025639055467371e-08, -4e-08, 0))
hIsland = hIsland.add(rect(3.919363810018162e-09, 3.6768735769158333e-09).transl(-1.0393230268025596e-08, -4e-08, 0))
hIsland = hIsland.add(rect(8.149118419493565e-09, 6.434186115199121e-10).transl(7.310916254272572e-08, -4e-08, 0))
hIsland = hIsland.add(rect(3.971306971984147e-09, 2.6401236491076567e-09).transl(-2.961195423350629e-09, -4e-08, 0))
hIsland = hIsland.sub(rect(5.584702869175458e-09, -7.262079458306991e-10).transl(-8.117160215804823e-08, -4e-08, 0))
hIsland = hIsland.add(rect(7.285513665966158e-09, 3.1373239274693373e-09).transl(-1.0007596906500566e-07, -4e-08, 0))
hIsland = hIsland.add(rect(3.0004253508195556e-09, 1.1585215861405625e-09).transl(-1.0028205461747562e-08, -4e-08, 0))
hIsland = hIsland.add(rect(5.149630400190558e-09, 2.162307346645223e-09).transl(1.9323432773719174e-08, -4e-08, 0))
hIsland = hIsland.sub(rect(3.921446190699793e-09, -7.273540060197026e-10).transl(-6.765898258956439e-08, -4e-08, 0))
hIsland = hIsland.add(rect(5.863253217408835e-09, 3.164735359209301e-10).transl(1.4051178578385204e-07, -3.720169338778264e-08, 0))
hIsland = hIsland.sub(rect(3.711790872201384e-09, -8.697619916027844e-10).transl(7.249007891603596e-09, -4e-08, 0))
hIsland = hIsland.sub(rect(5.281306288983129e-09, -5.173511454186415e-10).transl(1.1274426971831432e-07, -4e-08, 0))
hIsland = hIsland.sub(rect(9.425607956960339e-09, -2.006391432840713e-10).transl(-6.048753405009943e-08, -4e-08, 0))
hIsland = hIsland.sub(rect(2.855610404574547e-09, -1.4290147474587116e-09).transl(6.687000508122025e-08, -4e-08, 0))
hIsland = hIsland.sub(rect(3.3179424073836786e-09, -8.958817866386697e-10).transl(-1.9495457505134206e-08, -4e-08, 0))
hIsland = hIsland.sub(rect(4.65591739088249e-09, -3.847555825393401e-09).transl(-1.4134738219428295e-07, -3.624222110237481e-08, 0))
hIsland = hIsland.sub(rect(7.308208035678331e-09, -8.196111336363911e-10).transl(1.2096330762910376e-07, -4e-08, 0))
hIsland = hIsland.sub(rect(9.167838207007513e-09, -2.8932739045982655e-09).transl(1.0089529698331824e-07, -4e-08, 0))
hIsland = hIsland.sub(rect(9.7740401058199e-09, -2.6147733531973354e-09).transl(-7.062771678257936e-08, -4e-08, 0))
hIsland = hIsland.sub(rect(2.7143819502472282e-09, -2.033379587110194e-09).transl(9.296719024085812e-08, -4e-08, 0))
hIsland = hIsland.add(rect(8.738532252739206e-09, 2.370548331943062e-09).transl(1.1135398323900572e-07, -4e-08, 0))
hIsland = hIsland.sub(rect(8.437039959558608e-09, -3.4254935241954608e-09).transl(1.1206700925053424e-07, -4e-08, 0))
hIsland = hIsland.add(rect(4.9726430405632e-09, 2.5107510614385105e-09).transl(-3.1195040190362895e-09, -4e-08, 0))
hIsland = hIsland.sub(rect(8.449675565354014e-09, -1.7748188791327827e-09).transl(-7.18780842071405e-08, -4e-08, 0))
hIsland = hIsland.sub(rect(9.265671873312318e-09, -6.629756385655129e-10).transl(9.32475713232095e-09, -4e-08, 0))
hIsland = hIsland.sub(rect(5.4280690793832e-09, -1.5809371371004451e-09).transl(1.94267913648161e-08, -4e-08, 0))
hIsland = hIsland.sub(rect(9.573436780699219e-09, -1.2729939529922305e-09).transl(4.1260250557942184e-08, -4e-08, 0))
hIsland = hIsland.add(rect(5.7219762769260174e-09, 1.159979999939977e-09).transl(2.46000132566015e-08, -4e-08, 0))
hIsland = hIsland.sub(rect(9.3118068409485e-09, -6.312270885131826e-10).transl(-8.387028034477773e-08, -4e-08, 0))
hIsland = hIsland.sub(rect(4.7973164105371914e-09, -2.3170785670493877e-09).transl(-9.804270520003825e-08, -4e-08, 0))
hIsland = hIsland.sub(rect(4.102756958503066e-09, -4.689232467622713e-09).transl(1.780053667292858e-08, -4e-08, 0))
hIsland = hIsland.add(rect(8.409369184566335e-09, 1.6821370442289348e-10).transl(-1.1629374535542564e-07, -4e-08, 0))
hIsland = hIsland.add(rect(4.476882969467306e-09, 1.1082692852471425e-09).transl(6.485239066158015e-08, -4e-08, 0))
hIsland = hIsland.add(rect(2.4951847781314307e-09, 7.858280366512734e-10).transl(-5.71809391743401e-08, -4e-08, 0))
hIsland = hIsland.sub(rect(9.628897667704568e-09, -6.23401425404922e-10).transl(2.4931770608016463e-08, -4e-08, 0))
hIsland = hIsland.sub(rect(3.769215913792158e-09, -4.650849682390427e-09).transl(-1.3865023868792078e-07, -3.879754929453552e-08, 0))
hIsland = hIsland.sub(rect(9.188751729927944e-09, -1.3655597570449686e-09).transl(-1.453995566533243e-07, -2.8825818231646148e-08, 0))
hIsland = hIsland.sub(rect(2.5688117364814254e-09, -6.106267368503305e-10).transl(9.564007390225659e-08, -4e-08, 0))
hIsland = hIsland.add(rect(4.3437462328713296e-09, 5.01894321260691e-10).transl(8.629341450486476e-08, -4e-08, 0))
hIsland = hIsland.add(rect(5.67262403365679e-09, 1.9528905328228766e-09).transl(-6.376983169211917e-08, -4e-08, 0))
hIsland = hIsland.sub(rect(8.34899417770955e-09, -1.167279543292803e-09).transl(-1.0955688856225398e-07, -4e-08, 0))
hIsland = hIsland.add(rect(9.167633145626151e-09, 1.7025665374988667e-09).transl(5.1933687574345165e-08, -4e-08, 0))
hIsland = hIsland.add(rect(9.225617184644325e-09, 1.9685335343566774e-09).transl(-4.099184573180888e-08, -4e-08, 0))
hIsland = hIsland.add(rect(3.5120269349982824e-09, 1.890795199751166e-09).transl(5.0416966309117e-08, -4e-08, 0))
hIsland = hIsland.sub(rect(9.815563808614457e-09, -1.6564451971795483e-09).transl(2.991646774627839e-08, -4e-08, 0))
hIsland = hIsland.sub(rect(5.819579685724985e-09, -2.8781802425481616e-09).transl(3.601111045400804e-08, -4e-08, 0))
hIsland = hIsland.add(rect(9.575233276572878e-09, 1.2665853048811115e-09).transl(-1.4875287346449177e-07, -1.59685182435783e-08, 0))
hIsland = hIsland.sub(rect(4.506469746301124e-09, -6.277400261418561e-11).transl(-6.650117268491495e-09, -4e-08, 0))
hIsland = hIsland.sub(rect(2.2418843847577197e-09, -1.9137629010005518e-09).transl(6.228689657148514e-08, -4e-08, 0))
hIsland = hIsland.sub(rect(9.221970254295138e-09, -2.5195183021490937e-09).transl(3.21853429732477e-08, -4e-08, 0))
hIsland = hIsland.sub(rect(7.69650649936018e-09, -3.176163623123243e-09).transl(1.4297966622313623e-07, -3.387033334138644e-08, 0))
hIsland = hIsland.sub(rect(2.3795177625181777e-09, -5.066157236813283e-09).transl(-7.821144020014223e-08, -4e-08, 0))
hIsland = hIsland.sub(rect(7.0519821187728145e-09, -2.0065629053910295e-09).transl(-1.0364996195653278e-07, -4e-08, 0))
hIsland = hIsland.add(rect(8.593811979714372e-09, 2.104952155944928e-09).transl(-3.2088981621491884e-08, -4e-08, 0))
hIsland = hIsland.sub(rect(2.5799192232494824e-09, -1.109168572571514e-09).transl(-5.792422781595651e-08, -4e-08, 0))
hIsland = hIsland.sub(rect(8.606192413604533e-09, -3.953519034804982e-09).transl(2.7193677306929024e-08, -4e-08, 0))
hIsland = hIsland.add(rect(8.164827322467921e-09, 1.530867801274439e-09).transl(-5.114073702739808e-08, -4e-08, 0))
hIsland = hIsland.sub(rect(5.72440514205436e-09, -5.776013217275941e-09).transl(-9.40328963093559e-08, -4e-08, 0))
hIsland = hIsland.add(rect(4.844146884462327e-09, 1.7766233497214445e-09).transl(9.756133722808373e-08, -4e-08, 0))
hIsland = hIsland.sub(rect(6.478517137744706e-09, -3.4237417652169235e-09).transl(9.50621282751104e-08, -4e-08, 0))
hIsland = hIsland.sub(rect(9.156141998523737e-09, -1.8276790280543786e-10).transl(8.345069654814668e-08, -4e-08, 0))
hIsland = hIsland.add(rect(5.632952981292221e-09, 1.0366325484802223e-09).transl(-4.5391670847045885e-08, -4e-08, 0))
hIsland = hIsland.sub(rect(7.023415386538911e-09, -9.082298594918574e-10).transl(-6.479893196305998e-08, -4e-08, 0))
hIsland = hIsland.add(rect(4.808274692325434e-09, 4.3253552692508447e-10).transl(-9.597552394374762e-08, -4e-08, 0))
hIsland = hIsland.add(rect(9.77815210901105e-09, 1.5522170754785498e-09).transl(1.236855921614938e-07, -4e-08, 0))
hIsland = hIsland.add(rect(8.095453626841928e-09, 2.499288719569642e-10).transl(6.36222755484528e-08, -4e-08, 0))
hIsland = hIsland.add(rect(4.814760066603524e-09, 1.9466639539095997e-09).transl(8.419018608381256e-08, -4e-08, 0))
hIsland = hIsland.add(rect(6.392307250866248e-09, 1.137838049879975e-09).transl(-5.773602243602642e-08, -4e-08, 0))
hIsland = hIsland.sub(rect(7.171163148644038e-09, -5.517295512393119e-10).transl(1.3908889905043924e-07, 3.848517447817522e-08, 0))
hIsland = hIsland.sub(rect(4.1957178448750844e-09, -3.66058525349127e-09).transl(1.0968703831754466e-07, 4e-08, 0))
hIsland = hIsland.add(rect(8.850755263390529e-09, 6.155767701095479e-10).transl(-1.4025287127327407e-07, 3.746712629719609e-08, 0))
hIsland = hIsland.add(rect(8.097869179021277e-09, 1.7947332770297342e-09).transl(7.479477615879452e-08, 4e-08, 0))
hIsland = hIsland.add(rect(7.908463274922636e-09, 2.3472244676907026e-10).transl(1.0846556871019658e-07, 4e-08, 0))
hIsland = hIsland.sub(rect(4.8069203475821675e-09, -1.6531315454273629e-09).transl(-2.0036004849840487e-08, 4e-08, 0))
hIsland = hIsland.sub(rect(8.804361355471433e-09, -1.9900052555855983e-09).transl(8.272347913441008e-08, 4e-08, 0))
hIsland = hIsland.sub(rect(8.310358969804533e-09, -8.559600736423999e-10).transl(-9.068328912547923e-08, 4e-08, 0))
hIsland = hIsland.sub(rect(9.098278160280484e-09, -4.0936081187998285e-09).transl(-1.1576061560382553e-07, 4e-08, 0))
hIsland = hIsland.add(rect(5.133086264943426e-09, 3.360470772323006e-10).transl(1.4393367525266533e-07, 3.213188892796996e-08, 0))
hIsland = hIsland.sub(rect(8.86179020195619e-09, -2.4202158730254898e-09).transl(7.965577936929798e-08, 4e-08, 0))
hIsland = hIsland.sub(rect(5.9971933669473925e-09, -8.26399563056543e-10).transl(1.0494100883190305e-07, 4e-08, 0))
hIsland = hIsland.sub(rect(4.425996369200406e-09, -2.8746391317574548e-09).transl(-1.2086496990710308e-07, 4e-08, 0))
hIsland = hIsland.add(rect(6.5737439447889575e-09, 7.507179355949906e-10).transl(6.946895637053615e-08, 4e-08, 0))
hIsland = hIsland.add(rect(5.867813723467311e-09, 1.4877906838686727e-09).transl(1.4421979373768758e-07, 3.15519075313607e-08, 0))
hIsland = hIsland.sub(rect(6.608835304531035e-09, -8.350756273633188e-11).transl(-6.218569999346711e-08, 4e-08, 0))
hIsland = hIsland.sub(rect(2.031720394073835e-09, -1.436660757636354e-09).transl(1.4686272296336737e-08, 4e-08, 0))
hIsland = hIsland.sub(rect(4.332637843811763e-09, -1.2166346478228174e-09).transl(-1.6562484646537438e-08, 4e-08, 0))
hIsland = hIsland.sub(rect(5.241995966449959e-09, -8.255224334830924e-10).transl(-9.329998074630599e-08, 4e-08, 0))
hIsland = hIsland.add(rect(6.869055633742872e-09, 2.0816652332014474e-09).transl(1.5643687106561358e-08, 4e-08, 0))
hIsland = hIsland.add(rect(8.097977029450078e-09, 1.1549119967829034e-09).transl(6.25682258585472e-08, 4e-08, 0))
hIsland = hIsland.add(rect(4.543622431949217e-09, 5.273898444788395e-09).transl(6.690255042308616e-08, 4e-08, 0))
hIsland = hIsland.sub(rect(7.046417974064401e-09, -2.9516271744594313e-09).transl(3.518191731323876e-08, 4e-08, 0))
hIsland = hIsland.add(rect(3.0062405033284866e-09, 4.941776032122622e-10).transl(-2.8027697682927147e-08, 4e-08, 0))
hIsland = hIsland.add(rect(7.78713686959229e-09, 2.258048876902454e-09).transl(1.109904100804722e-07, 4e-08, 0))
hIsland = hIsland.sub(rect(3.752130771269796e-09, -8.984433057912541e-10).transl(-8.279916695019901e-08, 4e-08, 0))
hIsland = hIsland.sub(rect(6.2145931534021805e-09, -3.2822053862195885e-09).transl(9.868007647265875e-08, 4e-08, 0))
hIsland = hIsland.sub(rect(5.6643102083549054e-09, -5.080650226746483e-10).transl(-1.0015936697336214e-07, 4e-08, 0))
hIsland = hIsland.sub(rect(2.624708448094764e-09, -5.369962270677628e-10).transl(-1.0811954144935865e-07, 4e-08, 0))
hIsland = hIsland.sub(rect(9.898049138836194e-09, -1.951291475206135e-10).transl(9.673109875143546e-08, 4e-08, 0))
hIsland = hIsland.sub(rect(5.6014559812249065e-09, -3.3197251333080477e-10).transl(-1.7586434250593396e-08, 4e-08, 0))
hIsland = hIsland.add(rect(3.281527241544102e-09, 1.1370925825000177e-09).transl(3.0385548412188354e-08, 4e-08, 0))
hIsland = hIsland.sub(rect(8.873914907134855e-09, -2.812532593641632e-09).transl(4.8037690561680634e-08, 4e-08, 0))
hIsland = hIsland.add(rect(9.839911193449203e-09, 1.7723398436348746e-09).transl(-8.755840968819422e-08, 4e-08, 0))
hIsland = hIsland.add(rect(5.062095786552814e-09, 1.1523206816461985e-09).transl(1.389942164837946e-07, 3.855581670997308e-08, 0))
hIsland = hIsland.add(rect(7.083071360291577e-09, 2.8233729885226155e-09).transl(1.1310359560399565e-07, 4e-08, 0))
hIsland = hIsland.sub(rect(5.518337244580951e-09, -1.6921824047130822e-09).transl(6.081707287224621e-08, 4e-08, 0))
hIsland = hIsland.add(rect(9.504921720387525e-09, 1.665519748667405e-10).transl(7.877810954173079e-08, 4e-08, 0))
hIsland = hIsland.sub(rect(9.20012634362237e-09, -2.4930249373400985e-10).transl(3.075606131554902e-08, 4e-08, 0))
hIsland = hIsland.sub(rect(5.164424881286384e-09, -1.7066020701027443e-09).transl(-4.7649738861188584e-08, 4e-08, 0))
hIsland = hIsland.sub(rect(9.665742921004923e-09, -3.161244753965808e-10).transl(-6.171630025128238e-08, 4e-08, 0))
hIsland = hIsland.add(rect(6.169835870919456e-09, 1.4293642241086926e-09).transl(1.2552680742460472e-07, 4e-08, 0))
hIsland = hIsland.sub(rect(2.969389062719053e-09, -1.015364138485544e-09).transl(7.147829116563875e-08, 4e-08, 0))
hIsland = hIsland.add(rect(2.666017605477615e-09, 3.919697653360855e-11).transl(-1.703012211339281e-08, 4e-08, 0))
hIsland = hIsland.sub(rect(8.84285216131003e-09, -6.076086566293945e-10).transl(-1.1397057253451026e-08, 4e-08, 0))
hIsland = hIsland.add(rect(4.6712018999743664e-09, 1.2965019466198305e-09).transl(1.202325254313952e-07, 4e-08, 0))
hIsland = hIsland.sub(rect(6.032567222540869e-09, -2.9838862019971264e-09).transl(1.503973434596057e-08, 4e-08, 0))
hIsland = hIsland.sub(rect(2.370796486391899e-09, -1.5289426352103245e-09).transl(2.8965377478635488e-08, 4e-08, 0))
hIsland = hIsland.sub(rect(8.388752908478423e-09, -1.7559685797816256e-10).transl(-3.5387727390501116e-08, 4e-08, 0))
hIsland = hIsland.sub(rect(4.631163610954643e-09, -1.050745379402103e-09).transl(-5.557023603158873e-08, 4e-08, 0))
hIsland = hIsland.sub(rect(4.763992077644351e-09, -4.231231710055426e-09).transl(3.6357139634561046e-08, 4e-08, 0))
hIsland = hIsland.sub(rect(8.645997453368101e-09, -1.0243146032260565e-09).transl(1.8751812687596453e-08, 4e-08, 0))
hIsland = hIsland.add(rect(7.223628927608919e-09, 3.046090756344509e-09).transl(-7.300711810987769e-08, 4e-08, 0))
hIsland = hIsland.add(rect(8.719106794988683e-09, 1.0314849984840566e-10).transl(-5.1224048751912456e-08, 4e-08, 0))
hIsland = hIsland.sub(rect(8.489679096330804e-09, -8.183365000510302e-11).transl(-8.074719778836214e-08, 4e-08, 0))
hIsland = hIsland.add(rect(3.848896493603653e-09, 8.445669753558354e-10).transl(-4.7910756906431596e-08, 4e-08, 0))
hIsland = hIsland.sub(rect(8.421229418003664e-09, -2.511898844529999e-09).transl(-5.003361624134889e-08, 4e-08, 0))
hIsland = hIsland.sub(rect(2.172796334047791e-09, -4.612345667485435e-09).transl(-8.287015506388344e-08, 4e-08, 0))
hIsland = hIsland.sub(rect(6.804724647525381e-09, -6.2724294699812875e-09).transl(-7.672135221283287e-08, 4e-08, 0))
hIsland = hIsland.sub(rect(7.900881449585292e-09, -1.605240178665197e-09).transl(-2.4753063166121796e-09, 4e-08, 0))
hIsland = hIsland.sub(rect(5.18569710813392e-09, -3.0019218993242978e-09).transl(-5.140695412870542e-08, 4e-08, 0))
hIsland = hIsland.add(rect(3.2141767648950607e-09, 2.532189956972668e-09).transl(-1.4928972204816391e-07, 1.2162994890322021e-08, 0))
[...]
hIsland = hIsland.sub(rect(2.106521929423036e-09, -3.215778739627094e-09).transl(3.961575519572384e-08, 4e-08, 0))
hIsland = hIsland.sub(rect(2.482620528866643e-09, -1.4596487474365605e-09).transl(-1.4405205689394853e-07, 3.1895414200647906e-08, 0))
hIsland = hIsland.add(rect(7.038112118442268e-09, 2.7313587189932365e-09).transl(-2.365678636563342e-08, 4e-08, 0))
hIsland = hIsland.sub(rect(6.043734531289531e-09, -2.6548681586879237e-09).transl(-4.660397131263548e-08, 4e-08, 0))
hIsland = hIsland.sub(rect(9.391645445105312e-09, -1.1329173035298936e-09).transl(1.0114347691616254e-07, 4e-08, 0))
hIsland = hIsland.add(rect(9.728828948714462e-09, 1.5392105848791937e-09).transl(3.7193749536119894e-08, 4e-08, 0))
hIsland = hIsland.add(rect(9.581463016548607e-09, 6.275741655671763e-10).transl(-3.7391736610569066e-08, 4e-08, 0))
hIsland = hIsland.sub(rect(7.702383470576057e-09, -1.2065292265399267e-09).transl(-1.1792079119666191e-07, 4e-08, 0))
hIsland = hIsland.add(rect(9.269104068797859e-09, 1.6133546062467555e-09).transl(-9.203251388536024e-08, 4e-08, 0))
hIsland = hIsland.add(rect(4.889814748389178e-09, 1.9430616442268164e-09).transl(-1.4169715112872192e-07, 3.579180954194187e-08, 0))
hIsland = hIsland.add(rect(7.929893866989126e-09, 1.834685564673735e-09).transl(8.701242575575725e-08, 4e-08, 0))
hIsland = hIsland.sub(rect(7.758544361880401e-09, -2.345634488023781e-09).transl(1.0454951866979325e-07, 4e-08, 0))
hIsland = hIsland.sub(rect(2.6676427636705916e-09, -5.016785991043166e-10).transl(7.163758209282262e-08, 4e-08, 0))
hIsland = hIsland.sub(rect(9.19340568664815e-09, -3.6545670919199465e-10).transl(5.108503018238863e-08, 4e-08, 0))
hIsland = hIsland.add(rect(8.649607072406021e-09, 3.5186719558874795e-09).transl(1.1750868787972627e-07, 4e-08, 0))
hIsland = hIsland.add(rect(5.080292578106563e-09, 4.015612011338227e-09).transl(-1.201605082228294e-07, 4e-08, 0))
hIsland = hIsland.add(rect(4.4272859702211405e-09, 1.584280183604631e-10).transl(-9.300278219005943e-08, 4e-08, 0))
hIsland = hIsland.add(rect(9.597259288949297e-09, 7.479711937927228e-10).transl(1.482507146301364e-07, 1.8746223188816104e-08, 0))
hIsland = hIsland.add(rect(9.912820521461595e-09, 1.0960233483578254e-09).transl(-9.633188249907209e-08, 4e-08, 0))
hIsland = hIsland.sub(rect(7.62886919033632e-09, -1.1061875787850874e-09).transl(-8.786257473388283e-08, 4e-08, 0))
hIsland = hIsland.add(rect(6.355909927658584e-09, 3.460550941000946e-09).transl(-1.385533008538992e-07, 3.886149107144998e-08, 0))
hIsland = hIsland.add(rect(2.325082356870648e-09, 5.434837981409325e-10).transl(3.4444763496149816e-08, 4e-08, 0))
hIsland = hIsland.add(rect(5.820421994543002e-09, 3.986567726177673e-10).transl(-2.082410005554214e-08, 4e-08, 0))
hIsland = hIsland.sub(rect(4.9750555888806406e-09, -1.6282871961885442e-09).transl(1.7924112479275943e-08, 4e-08, 0))
hIsland = hIsland.add(rect(9.000934307133395e-09, 4.859709211761356e-09).transl(1.43585521544212e-07, 3.279987206629487e-08, 0))
hIsland = hIsland.sub(rect(8.795145926880786e-09, -9.961042968441307e-12).transl(1.1887247031377895e-07, 4e-08, 0))
hIsland = hIsland.sub(rect(8.937540629637342e-09, -1.049812156954735e-09).transl(-5.788308263043021e-08, 4e-08, 0))
hIsland = hIsland.sub(rect(3.264928448897208e-09, -1.7778143730466786e-09).transl(-4.2411652328745826e-08, 4e-08, 0))
hIsland = hIsland.sub(rect(9.023064717158654e-09, -1.67571166371762e-09).transl(1.288378326188892e-07, 4e-08, 0))
hIsland = hIsland.add(rect(3.050713603019958e-09, 2.9583882652464604e-10).transl(3.554002856582569e-08, 4e-08, 0))
hIsland = hIsland.sub(rect(6.870847699867252e-09, -1.6757751535641693e-09).transl(-1.0084192567551444e-07, 4e-08, 0))
hIsland = hIsland.sub(rect(6.440804566057331e-09, -3.1519382423590937e-09).transl(-3.660549969645925e-08, 4e-08, 0))
hIsland = hIsland.add(rect(9.813757334773068e-09, 1.9503060431983457e-09).transl(-5.5293252961171476e-08, 4e-08, 0))
hIsland = hIsland.sub(rect(9.409185872358122e-09, -1.0364597890167526e-09).transl(-1.376065692210415e-07, 3.93914415427441e-08, 0))
hIsland = hIsland.add(rect(9.208779196067066e-09, 5.060951395497711e-10).transl(1.4632087007953365e-07, 2.624166670076954e-08, 0))
hIsland = hIsland.add(rect(4.62532179262275e-09, 1.5036524937949142e-09).transl(1.8298247071232657e-08, 4e-08, 0))
hIsland = hIsland.sub(rect(2.2982464221615795e-09, -5.391296659920748e-10).transl(-1.3746690639985283e-08, 4e-08, 0))
hIsland = hIsland.add(rect(2.7528941515488317e-09, 8.48965088972704e-10).transl(1.4684095030909417e-07, 2.4555337346410143e-08, 0))
hIsland = hIsland.sub(rect(3.5952853264159757e-09, -2.0637996160656347e-09).transl(-1.2952860675795435e-07, 4e-08, 0))
hIsland = hIsland.sub(rect(8.792971003279565e-09, -5.016689465446737e-10).transl(-1.2997156666035147e-07, 4e-08, 0))
hIsland = hIsland.sub(rect(7.970444396789516e-09, -2.0129118150577175e-09).transl(-1.2416415246577619e-07, 4e-08, 0))
hIsland = hIsland.sub(rect(4.965144776594479e-09, -8.354631633858443e-11).transl(-3.122921817933252e-08, 4e-08, 0))
hIsland = hIsland.sub(rect(8.989260815899362e-09, -2.686936872502954e-09).transl(-9.640008797236252e-08, 4e-08, 0))
hIsland = hIsland.add(rect(2.1515706284804485e-09, 5.549169701357579e-10).transl(-1.331317826364903e-07, 4e-08, 0))
hIsland = hIsland.add(rect(5.783331771736931e-09, 3.554666625188306e-10).transl(-6.871402968398543e-08, 4e-08, 0))
hIsland = hIsland.add(rect(8.60601804090085e-09, 1.3644462517480744e-09).transl(-1.2262807082301741e-08, 4e-08, 0))
hIsland = hIsland.sub(rect(8.738178700947245e-09, -2.2848961292148755e-09).transl(-8.635640748808305e-08, 4e-08, 0))
hIsland = hIsland.add(rect(2.6081725219802863e-09, 1.1925199756242812e-09).transl(-2.9985825794205714e-08, 4e-08, 0))
hIsland = hIsland.sub(rect(2.9840492976448857e-09, -9.158895672629295e-10).transl(1.408550196369852e-07, 3.6826922041163106e-08, 0))
hIsland = hIsland.add(rect(7.863472771960563e-09, 2.767455508774721e-10).transl(-7.682217297044505e-08, 4e-08, 0))
hIsland = hIsland.add(rect(6.868638122440501e-09, 1.16393270081204e-09).transl(1.052492653869404e-07, 4e-08, 0))
hIsland = hIsland.add(rect(3.2825251435983234e-09, 4.479982843851217e-09).transl(-1.4778248908170482e-07, 2.0930865735851678e-08, 0))
hIsland = hIsland.add(rect(5.096185521573284e-09, 1.2937948535848802e-09).transl(-7.758636671479027e-08, 4e-08, 0))
hIsland = hIsland.add(rect(4.3204815884397056e-09, 2.097167118186709e-09).transl(-1.3339644830896736e-07, 4e-08, 0))
hIsland = hIsland.add(rect(6.967561035429639e-09, 8.59029105924728e-10).transl(5.315173826237584e-08, 4e-08, 0))
hIsland = hIsland.add(rect(2.9730450568461883e-09, 2.1739518460549466e-09).transl(-1.110574670255433e-07, 4e-08, 0))
hIsland = hIsland.add(rect(9.462327954634425e-09, 1.978706130419385e-09).transl(5.660156150971191e-08, 4e-08, 0))
hIsland = hIsland.sub(rect(2.2271355384892007e-09, -1.090847739812597e-09).transl(1.5615290357235104e-08, 4e-08, 0))
hIsland = hIsland.sub(rect(6.598620878516763e-09, -1.282564783875299e-10).transl(1.2566311940935203e-08, 4e-08, 0))
hIsland = hIsland.sub(rect(6.540991579655678e-09, -9.868440449631102e-10).transl(3.312547888398525e-08, 4e-08, 0))
hIsland = hIsland.sub(rect(7.921849710179433e-09, -1.2334136444860423e-09).transl(-7.797204826927025e-08, 4e-08, 0))
hIsland = hIsland.add(rect(6.506631055226596e-09, 2.0861174246914883e-09).transl(1.0574637901648821e-07, 4e-08, 0))
hIsland = hIsland.add(rect(2.6840682561920843e-09, 3.5224677096429174e-09).transl(-1.0174857994818933e-07, 4e-08, 0))
hIsland = hIsland.sub(rect(4.567154990567702e-09, -2.45170307411547e-09).transl(1.499023568400386e-07, 4.556615205487588e-09, 0))
hIsland = hIsland.sub(rect(9.485835336869857e-09, -2.059116208980073e-09).transl(4.692928596134593e-09, 4e-08, 0))
hIsland = hIsland.add(rect(2.318827577431277e-09, 2.909068857114174e-09).transl(-1.4200031985461643e-07, 3.537688103160037e-08, 0))
hIsland = hIsland.add(rect(8.257353537967419e-09, 3.6261939190240804e-10).transl(-4.2212753587566916e-08, 4e-08, 0))
hIsland = hIsland.sub(rect(7.974350884620395e-09, -1.018778916762752e-09).transl(1.3477909986896007e-07, 4e-08, 0))
hIsland = hIsland.add(rect(9.555858167960399e-09, 2.351254635340586e-09).transl(-2.6810573016418967e-09, 4e-08, 0))
hIsland = hIsland.sub(rect(7.587845269614263e-09, -2.1862578197284387e-09).transl(8.733068843905528e-09, 4e-08, 0))
hIsland = hIsland.sub(rect(4.622300567805904e-09, -1.7123927053812691e-09).transl(-3.45520706459423e-08, 4e-08, 0))
hIsland = hIsland.add(rect(6.158181550325763e-09, 3.876315074698894e-09).transl(-1.3497651566931174e-07, 4e-08, 0))
hIsland = hIsland.sub(rect(2.7223013822802627e-09, -1.5739096385928275e-09).transl(1.0346707094852226e-07, 4e-08, 0))
hIsland = hIsland.add(rect(6.483230304659768e-09, 2.350945160007594e-09).transl(-6.967554069289998e-08, 4e-08, 0))
hIsland = hIsland.sub(rect(7.882882412339777e-09, -1.9455193276532847e-09).transl(5.120778051792093e-08, 4e-08, 0))
hIsland = hIsland.add(rect(9.004286308352161e-09, 6.929687398287369e-10).transl(6.173603343191275e-08, 4e-08, 0))
hIsland = hIsland.sub(rect(6.381415157361512e-09, -2.485406454618402e-09).transl(1.446897169218996e-07, 3.053413518288631e-08, 0))
hIsland = hIsland.add(rect(2.5237262214789196e-09, 2.7412212215192845e-09).transl(3.723965677205992e-08, 4e-08, 0))
hIsland = hIsland.add(rect(4.0046449338444424e-09, 3.470052386583318e-10).transl(-4.731404567853148e-08, 4e-08, 0))
hIsland = hIsland.sub(rect(8.214496613082635e-09, -1.6532992990432474e-09).transl(2.1679857646257926e-08, 4e-08, 0))
hIsland = hIsland.add(rect(8.653592487660831e-09, 3.488498617026907e-09).transl(9.019667585883559e-08, 4e-08, 0))
hIsland = hIsland.add(rect(9.76359890493274e-09, 1.351516389083069e-09).transl(8.048716352397716e-08, 4e-08, 0))
hIsland = hIsland.add(rect(4.665550466237368e-09, 2.1609915404720615e-09).transl(6.100389199936564e-08, 4e-08, 0))
hIsland = hIsland.sub(rect(7.010518812558763e-09, -8.565718608958096e-10).transl(1.416558699498011e-07, 3.584652670843273e-08, 0))
hIsland = hIsland.add(rect(2.1375775076041076e-09, 2.2423581642785725e-09).transl(7.506284446640361e-08, 4e-08, 0))
hIsland = hIsland.add(rect(8.259679653507941e-09, 3.2377451816574895e-11).transl(-1.3334464600635203e-07, 4e-08, 0))
hIsland = hIsland.add(rect(7.658918162520003e-09, 2.5174680710808706e-09).transl(6.571840713130633e-10, 4e-08, 0))
hIsland = hIsland.add(rect(5.111631539606715e-09, 1.1212754795143856e-10).transl(-9.1679872421766e-08, 4e-08, 0))
hIsland = hIsland.add(rect(8.051308454455253e-09, 6.55110258075795e-10).transl(7.637906500221311e-08, 4e-08, 0))
hIsland = hIsland.sub(rect(9.001953115345383e-09, -8.761415365317418e-10).transl(-1.0912791181359499e-07, 4e-08, 0))
hIsland = hIsland.sub(rect(3.4865316479993517e-09, -1.2841219871197086e-09).transl(-1.280647411078806e-07, 4e-08, 0))
hIsland = hIsland.add(rect(3.048577439355204e-09, 9.446494168037182e-10).transl(1.0933467297840577e-07, 4e-08, 0))
hIsland = hIsland.add(rect(7.44979671223015e-09, 4.47609242910018e-10).transl(-4.752264659280721e-08, 4e-08, 0))
hIsland = hIsland.add(rect(7.232817106212105e-09, 2.2455413560575686e-09).transl(3.564387273201888e-08, 4e-08, 0))
hIsland = hIsland.sub(rect(5.4932749124542976e-09, -1.9767667810408113e-09).transl(-2.449464419229256e-10, 4e-08, 0))
hIsland = hIsland.sub(rect(3.6407263676952724e-09, -1.3095032371997852e-09).transl(-5.489768098343708e-08, 4e-08, 0))
hIsland = hIsland.add(rect(2.4168136362456796e-09, 1.4736485516999175e-09).transl(-9.331560331810354e-08, 4e-08, 0))
hIsland = hIsland.add(rect(8.852095527690711e-09, 3.1559120934559897e-09).transl(-8.437313126091264e-08, 4e-08, 0))
hIsland = hIsland.add(rect(2.535503784807346e-09, 4.023268868461794e-09).transl(8.416131593951255e-08, 4e-08, 0))
hIsland = hIsland.add(rect(9.897738399199438e-09, 2.9047556811248487e-10).transl(1.4948014722707364e-08, 4e-08, 0))
hIsland = hIsland.sub(rect(7.957816861962068e-09, -3.680560536659332e-09).transl(-4.113430228823241e-08, 4e-08, 0))
hIsland = hIsland.add(rect(3.0116399806231194e-09, 1.1188263641464377e-09).transl(-1.379116793387003e-07, 3.923917529350468e-08, 0))
hIsland = hIsland.sub(rect(6.637835415510153e-09, -2.811516748455046e-09).transl(1.0742070807356385e-07, 4e-08, 0))
hIsland = hIsland.add(rect(7.2918107842334504e-09, 2.1884932115397493e-09).transl(-1.4244492682865974e-07, 3.472539277278512e-08, 0))
hIsland = hIsland.add(rect(3.9625000690684396e-09, 2.3419483324654395e-09).transl(2.988190658201728e-08, 4e-08, 0))
hIsland = hIsland.sub(rect(3.36476527577772e-09, -1.0935245772608276e-10).transl(1.0538068857361573e-07, 4e-08, 0))
hIsland = hIsland.add(rect(9.189609469690272e-09, 3.7540652685361565e-09).transl(-1.4122106130355535e-07, 3.6397645467917605e-08, 0))
hIsland = hIsland.sub(rect(8.217546986672212e-09, -1.376338553685239e-09).transl(-4.743053836895956e-08, 4e-08, 0))
hIsland = hIsland.sub(rect(3.7051026140114775e-09, -1.1670515195008174e-09).transl(1.2982753108122994e-07, 4e-08, 0))
hIsland = hIsland.add(rect(3.5680345859799056e-09, 3.1887655997038745e-09).transl(-1.3419188074652789e-07, 4e-08, 0))
hIsland = hIsland.sub(rect(3.5823229288672557e-09, -2.8465954939002005e-09).transl(1.2412333307782409e-07, 4e-08, 0))
hIsland = hIsland.add(rect(5.294200813216942e-09, 3.5408080818020784e-10).transl(-8.713733482936249e-08, 4e-08, 0))
hIsland = hIsland.add(rect(7.930295032309878e-09, 1.7879155390413938e-09).transl(-1.0437194004905258e-07, 4e-08, 0))
hIsland = hIsland.add(rect(7.579176420935074e-09, 1.8030698944613287e-09).transl(-5.915612446184162e-08, 4e-08, 0))
hIsland = hIsland.add(rect(6.294922059864372e-09, 7.986521066841945e-10).transl(9.479464660491039e-08, 4e-08, 0))
hIsland = hIsland.add(rect(5.313967179935661e-09, 9.51536970558834e-10).transl(8.329864638752816e-08, 4e-08, 0))
hIsland = hIsland.sub(rect(5.1881927064639525e-09, -1.3088455887368312e-09).transl(3.6892611834749755e-08, 4e-08, 0))
hIsland = hIsland.sub(rect(2.3747548761501795e-09, -2.7558132886450345e-09).transl(-4.60889714758645e-08, 4e-08, 0))
hIsland = hIsland.sub(rect(8.2603549449139e-09, -1.6417843182705811e-10).transl(8.0189934640159e-08, 4e-08, 0))
hIsland = hIsland.sub(rect(5.647082698993088e-09, -1.5729203524527015e-09).transl(-4.6005926643793365e-08, 4e-08, 0))
hIsland = hIsland.sub(rect(5.638222915245362e-09, -5.208098778647594e-10).transl(1.4642887890833246e-07, 2.59065983047544e-08, 0))
hIsland = hIsland.add(rect(6.0774559575942296e-09, 1.4634456518718756e-09).transl(1.7308170173245257e-09, 4e-08, 0))
hIsland = hIsland.add(rect(9.733167900384448e-09, 3.472970303915385e-09).transl(8.424956364705149e-08, 4e-08, 0))
hIsland = hIsland.sub(rect(4.344112999739683e-09, -1.7299470632590715e-09).transl(-1.150943432008347e-07, 4e-08, 0))
hIsland = hIsland.sub(rect(9.683795982634573e-09, -2.2171988676147563e-09).transl(-3.3988017664215135e-08, 4e-08, 0))
hIsland = hIsland.add(rect(4.469597731455466e-09, 1.7940676320834718e-10).transl(1.466030638143509e-07, 2.535001697936422e-08, 0))
hIsland = hIsland.sub(rect(3.84541521972996e-09, -1.3586735847479392e-09).transl(-1.0544258940123166e-07, 4e-08, 0))
hIsland = hIsland.add(rect(4.101538819442442e-09, 7.13134962710675e-10).transl(9.750414667490984e-09, 4e-08, 0))
hIsland = hIsland.sub(rect(8.270171393019748e-09, -4.5800505729157014e-10).transl(-1.447303051140271e-08, 4e-08, 0))
hIsland = hIsland.add(rect(9.774761801670622e-09, 1.6672172318734518e-09).transl(1.4821947411266296e-07, 1.8902416858453118e-08, 0))
hIsland = hIsland.sub(rect(9.088659083262503e-09, -1.2034977064369803e-10).transl(7.881261421210582e-08, 4e-08, 0))
hIsland = hIsland.sub(rect(9.791328145325663e-09, -1.5075829439186264e-09).transl(-4.198257195704788e-08, 4e-08, 0))
hIsland = hIsland.sub(rect(6.595147920679741e-09, -2.8014779416227998e-09).transl(-1.0259029253020833e-07, 4e-08, 0))
hIsland = hIsland.add(rect(8.102603524970904e-09, 5.997537334307602e-10).transl(9.996735356551283e-08, 4e-08, 0))
hIsland = hIsland.sub(rect(2.1482426025685443e-09, -1.5113397102988614e-09).transl(-4.1558691002464256e-08, 4e-08, 0))
hIsland = hIsland.sub(rect(5.724548260555586e-09, -2.2070069361635858e-09).transl(1.4510717454107988e-07, 2.9556126379320743e-08, 0))
hIsland = hIsland.sub(rect(4.8163071029482655e-09, -1.0409117599414638e-09).transl(-1.419712585495606e-07, 3.541766582284959e-08, 0))
hIsland = hIsland.add(rect(6.911902525539166e-09, 1.8064300360465834e-09).transl(2.095874908191572e-09, 4e-08, 0))
hIsland = hIsland.sub(rect(8.303321486353806e-09, -2.672715397789165e-09).transl(-1.4664571868996722e-07, 2.521054258401856e-08, 0))
hIsland = hIsland.sub(rect(8.058210825322546e-09, -2.212792305114772e-09).transl(6.738349928840516e-08, 4e-08, 0))
hIsland = hIsland.sub(rect(2.507081307270094e-09, -1.9038396134093676e-09).transl(-1.1119884971131735e-07, 4e-08, 0))
hIsland = hIsland.sub(rect(5.5554331354472674e-09, -2.4794998512926375e-09).transl(-1.0833126372562173e-07, 4e-08, 0))
hIsland = hIsland.add(rect(5.45313915854181e-09, 1.7409084373765791e-09).transl(-1.5975861652999837e-08, 4e-08, 0))
hIsland = hIsland.add(rect(3.4474573193701483e-09, 2.7166483619737314e-09).transl(4.381474676983037e-08, 4e-08, 0))
hIsland = hIsland.sub(rect(8.47070495341355e-09, -3.648767245568592e-10).transl(-6.669626020872989e-08, 4e-08, 0))
hIsland = hIsland.add(rect(2.779867803908946e-09, 1.0468140213839087e-09).transl(1.2782739844893467e-07, 4e-08, 0))
hIsland = hIsland.sub(rect(7.0320575790601195e-09, -3.0536533102722067e-09).transl(1.3537314833063734e-07, 3.9987621224426616e-08, 0))
hIsland = hIsland.sub(rect(3.27688821479053e-09, -1.2600820030294707e-09).transl(-1.7786754146657912e-08, 4e-08, 0))
hIsland = hIsland.add(rect(7.04136335040716e-09, 3.061937599456382e-09).transl(-8.213154107216897e-08, 4e-08, 0))
hIsland = hIsland.sub(rect(5.0325184177439595e-09, -1.9679186854027433e-09).transl(-6.817571267735912e-08, 4e-08, 0))
hIsland = hIsland.sub(rect(3.830808016264047e-09, -2.2098012277144994e-09).transl(7.341110014942663e-08, 4e-08, 0))
hIsland = hIsland.sub(rect(6.802475464009373e-09, -7.585523951556981e-10).transl(-1.4134837747622812e-07, 3.6240981435748586e-08, 0))
hIsland = hIsland.sub(rect(4.186998272967561e-09, -5.385812467159347e-10).transl(4.950957234229126e-09, 4e-08, 0))
hIsland = hIsland.sub(rect(9.111202250836199e-09, -2.031962507460524e-09).transl(-2.5071806194755598e-08, 4e-08, 0))
hIsland = hIsland.add(rect(8.935810548002082e-09, 2.497439787715788e-09).transl(4.4598380287726996e-08, 4e-08, 0))
hIsland = hIsland.add(rect(5.549479755441011e-09, 6.882756114040602e-10).transl(1.2555205637316055e-07, 4e-08, 0))
hIsland = hIsland.add(rect(4.032985134446587e-09, 6.799976013722589e-10).transl(-7.118489911775361e-08, 4e-08, 0))
hIsland = hIsland.add(rect(5.995072769228203e-09, 2.8396531870076466e-09).transl(-9.097695413250396e-08, 4e-08, 0))
hIsland = hIsland.add(rect(4.112825428566825e-09, 2.846533763923187e-10).transl(5.2410928696467185e-08, 4e-08, 0))
hIsland = hIsland.add(rect(7.90073540397149e-09, 1.8148875865200964e-09).transl(-1.4884319115411003e-07, 1.5403562917315595e-08, 0))
hIsland = hIsland.sub(rect(2.388868931592107e-09, -1.7843318394110829e-09).transl(-8.778516773680409e-08, 4e-08, 0))
vIsland = hIsland.rotz(pi / 2)
vIslands = vIslands.add(vIsland.transl(0, -a/2, 0))
DefRegion(1, hIslands)
DefRegion(2, vIslands)
TableAdd(m_full.Region(1))
TableAdd(m_full.Region(2))
setgeom(hIslands.add(vIslands))
save(m)
r2o2 := sqrt(2) / 2
m = RandomMagSeed(4)
B_ext = vector(Bmax*r2o2, Bmax*r2o2, 0)
relax()
minimize()
for B := Bmax; B >= -Bmax; B -= Bstep {
	B_ext = vector(B*r2o2, B*r2o2, 0)
	minimize()
	tablesave()
}
//********************************************************************//
//Please cite the following references, relevant for your simulation. //
//See bibtex file in output folder for justification.                 //
//********************************************************************//
//   * Vansteenkiste et al., AIP Adv. 4, 107133 (2014).
//   * Exl et al., J. Appl. Phys. 115, 17D118 (2014).
