# t (s)	mx ()	my ()	mz ()	B_extx (T)	B_exty (T)	B_extz (T)	m_fullx (A/m)	m_fully (A/m)	m_fullz (A/m)	m_full.region1x (A/m)	m_full.region1y (A/m)	m_full.region1z (A/m)	m_full.region2x (A/m)	m_full.region2y (A/m)	m_full.region2z (A/m)
0	0.626557	0.62655556	-3.5643974e-10	0.07071091	0.070710905	0	65462.26	65462.117	-3.693182e-05	666437.8	210739.95	-0.00025955148	210742.05	666437.94	-0.00024570874
0	0.62643075	0.6264285	-1.8234533e-10	0.070569135	0.070569135	0	65449.062	65448.832	-1.7303719e-05	666520	210480.05	-0.00019725914	210482.97	666519.8	-5.5370987e-05
0	0.6263004	0.62629807	-1.0552926e-09	0.07042785	0.07042785	0	65435.453	65435.21	-0.00010969783	666604.25	210213.28	-0.00073020486	210216.23	666604.1	-0.00079249725
0	0.62616986	0.62616765	-4.5792606e-10	0.07028653	0.07028653	0	65421.82	65421.582	-4.8811984e-05	666688.44	209946.47	-0.00049574336	209949.4	666688.25	-0.00019206811
0	0.6260395	0.6260373	-3.0033348e-10	0.07014485	0.07014484	0	65408.195	65407.957	-2.9700414e-05	666772.44	209679.89	-0.00029329318	209682.83	666772.25	-9.516888e-05
0	0.62590843	0.62590617	-1.4191583e-10	0.07000352	0.07000352	0	65394.484	65394.266	-1.530217e-05	666856.75	209412.05	-0.00011420266	209414.98	666856.56	-8.997785e-05
0	0.625777	0.62577474	-4.2904783e-10	0.069862306	0.069862306	0	65380.77	65380.54	-4.571281e-05	666940.94	209143.97	-0.0003326585	209146.9	666940.8	-0.00030454042
0	0.62564534	0.625643	-2.8960728e-10	0.06972053	0.06972053	0	65367.008	65366.777	-2.9571282e-05	667025.25	208875.28	-0.0002258098	208878.2	667025.1	-0.0001678433
0	0.6255134	0.62551105	-2.2194974e-10	0.06957921	0.06957921	0	65353.22	65352.984	-2.3502065e-05	667109.5	208606.17	-0.00026106555	208609.11	667109.4	-6.748339e-05
0	0.62538135	0.62537915	-3.9604413e-11	0.069437936	0.069437936	0	65339.434	65339.203	-4.390496e-06	667193.75	208337.33	-1.0814646e-05	208340.27	667193.5	-2.9415836e-05
0	0.6252487	0.6252465	-3.283866e-10	0.0692966	0.0692966	0	65325.57	65325.34	-3.473657e-05	667278.06	208067.23	-0.00025003462	208070.16	667277.9	-0.00019898948
0	0.62511605	0.6251139	-5.3383453e-10	0.069154926	0.069154926	0	65311.715	65311.48	-5.307335e-05	667362.25	207797.27	-0.00036683277	207800.22	667362.1	-0.00038413622
0	0.62498283	0.6249807	-3.3663752e-10	0.069013596	0.069013596	0	65297.793	65297.57	-3.344525e-05	667446.7	207526.4	-0.00023121713	207529.36	667446.5	-0.00024916945
0	0.6248493	0.62484705	-3.1518513e-10	0.06887228	0.06887227	0	65283.844	65283.613	-3.2670454e-05	667531.06	207255	-0.0003752682	207257.9	667530.9	-7.6135104e-05
0	0.6247161	0.62471384	-2.574287e-10	0.0687306	0.0687306	0	65269.92	65269.695	-2.5955578e-05	667615.1	206984.47	-0.00015919158	206987.39	667614.94	-0.00022667497
0	0.6245822	0.62458	-3.7954231e-10	0.06858926	0.06858927	0	65255.938	65255.703	-3.8481405e-05	667699.44	206712.73	-0.00026474253	206715.66	667699.25	-0.0002837763
0	0.62444806	0.6244459	-1.1386269e-10	0.06844801	0.06844801	0	65241.918	65241.688	-1.1234504e-05	667783.7	206440.67	-6.878115e-05	206443.6	667783.5	-0.00011420266
0	0.62431353	0.62431127	-2.3020066e-10	0.06830669	0.06830669	0	65227.855	65227.63	-2.311467e-05	667868	206167.88	-0.00019033776	206170.81	667867.9	-0.000119393684
0	0.624179	0.6241768	-1.6171803e-10	0.068165004	0.068165004	0	65213.805	65213.57	-1.5754133e-05	667952.2	205895.31	-0.0001797394	205898.25	667952.1	-5.710133e-05
0	0.6240442	0.624042	-7.112293e-10	0.06802368	0.06802368	0	65199.723	65199.496	-7.554235e-05	668036.4	205622.55	-0.0005022322	205625.5	668036.25	-0.00054332777
0	0.62390864	0.62390643	-1.06436866e-10	0.06788235	0.06788235	0	65185.562	65185.336	-1.2202996e-05	668120.9	205348.34	-0.00010728128	205351.27	668120.7	-3.2876524e-05
0	0.6237731	0.62377083	-3.1105968e-10	0.06774067	0.06774067	0	65171.387	65171.16	-3.1637395e-05	668205.2	205074.14	-0.0002651751	205077.08	668204.94	-0.00017476467
0	0.6236373	0.6236351	-1.2128852e-10	0.06759932	0.06759931	0	65157.215	65156.984	-1.2784091e-05	668289.3	204799.97	-0.00022299799	204802.89	668289.2	7.094407e-05
0	0.62350094	0.62349874	-4.1089582e-10	0.06745811	0.06745811	0	65142.965	65142.74	-4.3969525e-05	668373.75	204524.62	-0.00029415835	204527.58	668373.56	-0.00031838316
0	0.62336475	0.6233624	-4.620515e-10	0.06731677	0.06731677	0	65128.73	65128.5	-4.5971075e-05	668457.9	204249.67	-0.0003932205	204252.62	668457.8	-0.00026128185
0	0.62322783	0.6232256	-1.0891214e-10	0.06717497	0.06717497	0	65114.434	65114.207	-1.1492769e-05	668542.25	203973.78	-0.00015443315	203976.69	668542.25	6.9213734e-06
0	0.62309086	0.6230887	-2.9455785e-10	0.06703377	0.06703377	0	65100.12	65099.895	-3.1120868e-05	668626.5	203697.75	-0.00030107974	203700.69	668626.4	-0.000117663345
0	0.6229538	0.6229515	-2.7145527e-10	0.06689243	0.06689243	0	65085.797	65085.566	-2.9958677e-05	668710.75	203421.56	-0.00022970307	203424.48	668710.56	-0.00016957364
0	0.6228163	0.6228141	-2.2194974e-10	0.06675072	0.06675073	0	65071.434	65071.21	-2.2985538e-05	668795	203144.94	-0.00017541356	203147.88	668794.8	-0.0001315061
0	0.62267834	0.62267613	-5.528116e-11	0.06660939	0.0666094	0	65057.023	65056.793	-5.2298556e-06	668879.2	202867.5	-4.8449612e-05	202870.44	668879.1	-3.4606867e-06
0	0.6225399	0.62253773	-4.9092974e-10	0.06646818	0.06646818	0	65042.56	65042.336	-5.268595e-05	668963.7	202589.28	-0.00026950098	202592.19	668963.5	-0.00048103544
0	0.62240154	0.6223994	-9.406049e-11	0.06632639	0.06632638	0	65028.105	65027.875	-1.0330578e-05	669047.94	202311.4	-8.478682e-05	202314.33	669047.8	-4.8449612e-05
0	0.6222629	0.6222607	-1.7904496e-10	0.06618506	0.06618506	0	65013.617	65013.395	-1.827221e-05	669132.06	202033.05	-0.00015227021	202035.95	669131.94	-8.824751e-05
0	0.6221239	0.6221218	-4.4637477e-10	0.06604385	0.06604385	0	64999.094	64998.875	-4.752066e-05	669216.25	201754.28	-0.000244411	201757.22	669216.1	-0.0004187431
0	0.6219847	0.6219826	-3.9851944e-10	0.06590248	0.06590248	0	64984.547	64984.32	-4.2613636e-05	669300.44	201475.12	-0.00031708542	201478.03	669300.4	-0.00027858527
0	0.6218449	0.6218428	-2.7393054e-10	0.06576081	0.06576081	0	64969.934	64969.715	-2.7634298e-05	669384.94	201195	-0.00027339425	201197.92	669384.8	-0.00012285437
0	0.6217052	0.6217029	-2.5082797e-10	0.06561947	0.065619476	0	64955.344	64955.117	-2.608471e-05	669469	200915.2	-0.00015594719	200918.14	669468.94	-0.0001678433
0	0.62156475	0.6215626	-2.1947447e-10	0.06547826	0.06547826	0	64940.68	64940.457	-2.1565083e-05	669553.3	200634.44	-0.00023662444	200637.36	669553.25	-4.3258584e-05
0	0.62142444	0.6214222	-3.0033348e-10	0.06533646	0.06533646	0	64926.008	64925.78	-3.1314565e-05	669637.56	200353.64	-0.0002803156	200356.56	669637.5	-0.00016265227
0	0.6212835	0.62128145	-3.3498734e-10	0.065195136	0.065195136	0	64911.3	64911.08	-3.3186985e-05	669721.75	200072.39	-0.00022927049	200075.31	669721.6	-0.00024570874
0	0.6211425	0.62114036	-3.7624195e-10	0.06505392	0.06505392	0	64896.56	64896.34	-4.003099e-05	669805.94	199790.66	-0.00028637183	199793.6	669805.8	-0.00026128185
0	0.6210011	0.6209989	-3.2343606e-10	0.064912565	0.064912565	0	64881.777	64881.562	-3.344525e-05	669890.25	199508.44	-0.00026647287	199511.31	669890.06	-0.00021456256
0	0.6208593	0.6208572	-4.769032e-10	0.064770885	0.064770885	0	64866.973	64866.75	-4.790806e-05	669974.4	199225.8	-0.00034390573	199228.7	669974.3	-0.00033395627
0	0.62071764	0.62071544	-3.8449285e-10	0.06462956	0.06462956	0	64852.16	64851.94	-4.0289255e-05	670058.44	198943.25	-0.00034368943	198946.16	670058.4	-0.00020418051
0	0.6205751	0.620573	-4.983556e-10	0.064488225	0.06448822	0	64837.277	64837.05	-5.1330062e-05	670142.8	198659.42	-0.00040836103	198662.33	670142.7	-0.0003114618
0	0.62043273	0.62043065	-9.571067e-11	0.064346544	0.064346544	0	64822.41	64822.19	-1.0588843e-05	670226.75	198376.25	-0.00015940788	198379.17	670226.6	8.651717e-06
0	0.6202897	0.6202876	-3.6634085e-10	0.06420522	0.064205214	0	64807.45	64807.23	-3.693182e-05	670311.1	198091.47	-0.0004764933	198094.39	670310.94	-8.1326136e-05
0	0.6201464	0.62014425	-1.8317042e-10	0.06406397	0.06406397	0	64792.48	64792.254	-1.7497418e-05	670395.4	197806.62	-8.478682e-05	197809.55	670395.25	-0.00017476467
0	0.6200031	0.62000096	-4.1667145e-10	0.06392263	0.06392263	0	64777.508	64777.285	-4.506715e-05	670479.44	197521.94	-0.00037202382	197524.83	670479.44	-0.00024916945
0	0.61985904	0.61985695	-2.673298e-10	0.06378097	0.06378097	0	64762.465	64762.242	-2.8409091e-05	670563.75	197236.12	-0.00017844165	197239.02	670563.56	-0.00022494463
0	0.6197152	0.6197131	-6.4522193e-10	0.06363963	0.06363963	0	64747.44	64747.207	-6.4049585e-05	670647.6	196950.75	-0.0004944456	196953.64	670647.56	-0.0004395072
0	0.6195709	0.6195687	-3.4571354e-10	0.063498296	0.063498296	0	64732.36	64732.133	-3.5511363e-05	670731.7	196664.61	-0.00014232074	196667.5	670731.56	-0.00034260796
0	0.6194261	0.6194239	-1.7739478e-10	0.06335664	0.06335664	0	64717.227	64717.004	-1.846591e-05	670815.9	196377.64	-0.00014880953	196380.52	670815.94	-0.00010555094
0	0.61928093	0.61927885	-2.359763e-10	0.06321527	0.06321527	0	64702.066	64701.848	-2.608471e-05	670900.06	196090.42	-0.00014448367	196093.31	670900	-0.00020591085
0	0.6191353	0.6191333	-1.9059625e-10	0.06307405	0.06307405	0	64686.848	64686.63	-1.8853305e-05	670984.3	195802.2	-0.00021283222	195805.08	670984.25	-4.671927e-05
0	0.61898994	0.61898774	-3.2508624e-10	0.062932715	0.062932715	0	64671.652	64671.43	-3.3703513e-05	671068.3	195514.64	-0.00024873685	195517.55	671068.25	-0.00022148395
0	0.61884403	0.618842	-2.0379771e-10	0.06279094	0.06279094	0	64656.426	64656.2	-2.2210745e-05	671152.4	195226.5	-0.0001315061	195229.39	671152.25	-0.0001678433
0	0.61869764	0.6186955	-4.2574747e-10	0.06264971	0.06264971	0	64641.117	64640.9	-4.519628e-05	671236.56	194937.25	-0.0003140573	194940.16	671236.44	-0.00032530454
0	0.61855125	0.61854917	-1.6171803e-10	0.06250837	0.06250837	0	64625.83	64625.61	-1.7174587e-05	671320.4	194648.52	-0.00016741072	194651.39	671320.3	-8.478682e-05
0	0.6184043	0.6184022	-3.300368e-10	0.062366694	0.062366694	0	64610.48	64610.254	-3.473657e-05	671404.5	194358.66	-0.00028334372	194361.56	671404.4	-0.00020071982
0	0.61825705	0.6182549	-2.491778e-10	0.062225346	0.062225346	0	64595.086	64594.867	-2.6342976e-05	671488.5	194068.42	-0.00029502352	194071.31	671488.5	-7.4404765e-05
0	0.6181096	0.61810756	-2.483527e-10	0.06208414	0.06208414	0	64579.68	64579.465	-2.892562e-05	671572.56	193778.03	-0.00014880953	193780.92	671572.56	-0.00024051772
0	0.61796165	0.6179596	-2.413394e-10	0.061942358	0.061942358	0	64564.234	64564.01	-2.5374484e-05	671656.56	193486.95	-0.00016611295	193489.83	671656.5	-0.00018860742
0	0.61781365	0.6178116	-1.8399551e-10	0.06180101	0.06180101	0	64548.76	64548.547	-1.8982439e-05	671740.56	193195.77	-0.00012242178	193198.64	671740.44	-0.00012977574
0	0.61766523	0.61766326	-2.7888108e-10	0.061659798	0.061659798	0	64533.26	64533.047	-2.9442148e-05	671824.4	192904.08	-0.00020785749	192906.94	671824.5	-0.00018860742
0	0.6175164	0.6175143	-3.382877e-10	0.061518423	0.061518427	0	64517.7	64517.484	-3.589876e-05	671908.56	192611.53	-0.00039451828	192614.4	671908.5	-0.00010035991
0	0.61736727	0.6173653	-4.9918066e-11	0.061376773	0.061376773	0	64502.13	64501.914	-5.552686e-06	671992.4	192318.89	-8.8031215e-05	192321.77	671992.4	4.1528237e-05
0	0.6172179	0.61721575	-3.9934453e-10	0.061235428	0.061235428	0	64486.504	64486.29	-4.0676652e-05	672076.44	192025.62	-0.00040316998	192028.5	672076.4	-0.00016092193
0	0.61706835	0.6170663	-1.9967226e-10	0.06109409	0.06109409	0	64470.906	64470.684	-2.0467458e-05	672160.1	191732.77	-0.000110741974	191735.66	672160.2	-0.00015400055
0	0.6169182	0.61691624	-3.5602718e-10	0.06095245	0.06095245	0	64455.215	64455	-3.8094007e-05	672244.06	191438.58	-0.00032746748	191441.45	672244.1	-0.00018168605
0	0.6167678	0.61676574	-5.0041826e-10	0.060811095	0.060811095	0	64439.496	64439.277	-4.9974173e-05	672328.1	191143.98	-0.00030497301	191146.84	672328	-0.00039451828
0	0.61661744	0.61661536	-2.046228e-10	0.06066985	0.06066985	0	64423.78	64423.562	-2.1306818e-05	672411.8	190849.75	-0.00019293328	190852.64	672411.75	-8.651717e-05
0	0.616466	0.616464	-3.8614303e-10	0.060528502	0.060528502	0	64407.965	64407.746	-4.1322313e-05	672495.9	190553.69	-0.00025241383	190556.55	672495.9	-0.0003114618
0	0.6163151	0.61631304	-1.8688333e-10	0.060386855	0.060386855	0	64392.2	64391.984	-1.9369834e-05	672579.5	190258.81	-0.00016092193	190261.69	672579.5	-0.000117663345
0	0.61616325	0.61616117	-4.711275e-10	0.06024551	0.06024551	0	64376.33	64376.11	-4.971591e-05	672663.44	189962.2	-0.0004239341	189965.06	672663.44	-0.00026993355
0	0.6160114	0.6160093	-3.49839e-10	0.06010417	0.06010417	0	64360.465	64360.246	-3.576963e-05	672747.2	189665.94	-0.0001829838	189668.8	672747.1	-0.0003114618
0	0.61585903	0.615857	-2.4422722e-10	0.059962522	0.059962526	0	64344.547	64344.336	-2.7117769e-05	672831.06	189368.8	-0.00016351744	189371.69	672830.94	-0.00021456256
0	0.61570656	0.61570454	-7.1783e-10	0.059821144	0.059821144	0	64328.62	64328.4	-7.85124e-05	672914.75	189071.66	-0.00067310355	189074.5	672914.7	-0.00039451828
0	0.61555344	0.61555135	-2.458774e-10	0.05967993	0.05967993	0	64312.62	64312.406	-2.5180785e-05	672998.56	188773.44	-0.00017216915	188776.31	672998.5	-0.00015919158
0	0.61540025	0.6153983	-1.3985309e-10	0.05953857	0.05953857	0	64296.613	64296.402	-1.5237603e-05	673082.2	188475.33	-0.00012718023	188478.19	673082.25	-6.921373e-05
0	0.61524665	0.61524457	-5.0743154e-10	0.059396807	0.05939681	0	64280.566	64280.35	-5.339618e-05	673165.9	188176.61	-0.00041528238	188179.47	673165.9	-0.00034260796
0	0.6150929	0.61509085	-2.3267593e-10	0.059255596	0.0592556	0	64264.496	64264.285	-2.3502065e-05	673249.5	187877.69	-0.00013799488	187880.55	673249.5	-0.00019725914
0	0.6149384	0.61493635	-2.8011873e-10	0.059114233	0.059114233	0	64248.35	64248.15	-2.8538223e-05	673333.4	187577.53	-0.00026409366	187580.38	673333.3	-0.0001401578
0	0.6147841	0.61478204	-4.3234819e-10	0.05897258	0.05897258	0	64232.24	64232.023	-4.538998e-05	673416.75	187278.12	-0.00038586656	187280.98	673416.75	-0.00023705703
0	0.61462885	0.6146269	-2.995084e-10	0.05883123	0.058831234	0	64216.023	64215.812	-3.2670454e-05	673500.56	186977.06	-0.0002167255	186979.92	673500.56	-0.0002197536
0	0.6144738	0.61447185	-3.283866e-10	0.058689997	0.05869	0	64199.82	64199.605	-3.6415287e-05	673584.1	186676.47	-0.00025003462	186679.31	673584.06	-0.0002197536
0	0.6143183	0.6143163	-4.7607807e-10	0.058548246	0.058548246	0	64183.57	64183.36	-5.0426137e-05	673667.6	186375.19	-0.00027858527	186378	673667.6	-0.00041528238
0	0.6141625	0.6141605	-1.740944e-10	0.058406897	0.058406897	0	64167.285	64167.08	-1.8207644e-05	673751.2	186073.44	-7.2458126e-05	186076.3	673751.2	-0.00016957364
0	0.6140059	0.614004	-1.336649e-10	0.058265675	0.058265675	0	64150.934	64150.73	-1.3688016e-05	673834.75	185770.73	-0.0002013687	185773.56	673834.8	3.2876524e-05
0	0.61384946	0.61384743	-4.3977402e-10	0.05812428	0.05812428	0	64134.586	64134.37	-4.7972622e-05	673918.3	185468.11	-0.0003997093	185470.95	673918.3	-0.00024051772
0	0.6136922	0.6136902	-2.491778e-10	0.05798266	0.057982665	0	64118.156	64117.94	-2.5309917e-05	674001.94	185164.28	-0.00025803744	185167.11	674001.94	-0.000103820596
0	0.61353517	0.61353314	-2.611416e-10	0.05784131	0.057841305	0	64101.742	64101.535	-2.5955578e-05	674085.3	184860.97	-0.00023013566	184863.81	674085.4	-0.0001401578
0	0.6133776	0.61337554	-2.9455785e-10	0.05769995	0.05769995	0	64085.277	64085.066	-3.0668903e-05	674168.75	184556.95	-0.00021629292	184559.77	674168.7	-0.00020071982
0	0.61321926	0.6132173	1.4851656e-10	0.057558335	0.057558343	0	64068.742	64068.535	1.3817149e-05	674252.3	184251.84	5.0828836e-05	184254.7	674252.3	0.00016611295
0	0.6130612	0.6130591	-2.772309e-10	0.057416975	0.05741698	0	64052.227	64052.01	-2.8796487e-05	674335.7	183947.14	-0.00030454042	183949.97	674335.7	-6.40227e-05
0	0.6129028	0.61290085	-1.13450145e-10	0.057275716	0.057275716	0	64035.688	64035.477	-9.684917e-06	674418.9	183642.27	-0.00012458472	183645.1	674419	-1.7303433e-06
0	0.6127437	0.6127416	-4.4389947e-10	0.057134356	0.057134364	0	64019.05	64018.844	-4.5971075e-05	674502.3	183335.89	-0.00029156284	183338.72	674502.44	-0.0003322259
0	0.6125846	0.6125825	-7.6321005e-11	0.056992743	0.056992743	0	64002.438	64002.227	-8.264463e-06	674585.56	183030.02	-0.00013107351	183032.84	674585.56	3.9797895e-05
0	0.6124249	0.61242294	-4.092456e-10	0.056851383	0.056851383	0	63985.75	63985.535	-4.3646694e-05	674668.8	182723.11	-0.00037029348	182725.94	674668.94	-0.000231866
0	0.61226535	0.6122634	-3.7954231e-10	0.05671003	0.05671003	0	63969.08	63968.87	-3.873967e-05	674751.94	182416.77	-0.00027577346	182419.6	674751.94	-0.00023878737
0	0.6121046	0.61210275	-3.9604414e-10	0.056568418	0.05656841	0	63952.297	63952.082	-4.0676652e-05	674835.25	182108.39	-0.00021110188	182111.23	674835.4	-0.0003391473
0	0.61194366	0.6119417	-3.5148917e-10	0.056427028	0.056427028	0	63935.47	63935.258	-3.6092457e-05	674918.7	181799.6	-0.00024916945	181802.39	674918.75	-0.00023878737
0	0.6117829	0.61178094	-4.0759543e-10	0.0562858	0.0562858	0	63918.67	63918.47	-4.222624e-05	675001.75	181491.44	-0.00033482144	181494.25	675001.8	-0.00023878737
0	0.6116217	0.6116197	-2.3061321e-10	0.056144428	0.056144428	0	63901.832	63901.625	-2.427686e-05	675084.9	181182.69	-0.00015789382	181185.48	675084.94	-0.00016265227
0	0.61145985	0.6114579	-1.749195e-10	0.05600269	0.05600269	0	63884.918	63884.71	-1.9692665e-05	675168.1	180872.97	-0.000110741974	180875.8	675168.06	-0.0001315061
0	0.6112978	0.61129576	-1.5346711e-10	0.055861466	0.055861466	0	63867.99	63867.785	-1.5754133e-05	675251.1	180562.95	-0.00012285437	180565.77	675251.2	-0.00010035991
0	0.6111356	0.6111337	-3.0033348e-10	0.0557201	0.055720102	0	63851.047	63850.844	-3.073347e-05	675334.06	180253.03	-0.0002409503	180255.84	675334.06	-0.0001557309
0	0.61097264	0.6109707	-3.7789213e-10	0.0555785	0.0555785	0	63834.023	63833.816	-3.86751e-05	675417.25	179941.72	-0.00040836103	179944.53	675417.25	-0.00013323643
0	0.61080956	0.61080766	-3.795423e-11	0.055437103	0.055437114	0	63816.99	63816.78	-2.4535125e-06	675500.25	179630.48	-5.126142e-05	179633.28	675500.3	2.5955149e-05
0	0.6106461	0.6106443	-1.848206e-10	0.055295877	0.055295877	0	63799.906	63799.703	-1.9369834e-05	675583.1	179318.69	-0.00023619186	179321.52	675583.25	-3.8067552e-05
0	0.6104823	0.61048037	-3.49839e-10	0.055154506	0.055154506	0	63782.785	63782.586	-3.683497e-05	675666.2	179006.3	-0.0003512597	179009.11	675666.2	-0.0001280454
0	0.6103179	0.6103159	-4.818537e-10	0.055012774	0.055012777	0	63765.605	63765.406	-4.971591e-05	675749.2	178693.02	-0.00015854271	178695.83	675749.25	-0.00054332777
0	0.61015326	0.6101514	-2.3432611e-10	0.05487154	0.05487154	0	63748.41	63748.207	-2.2727272e-05	675832.06	178379.81	-0.00017454838	178382.6	675832.2	-0.00015227021
0	0.60998863	0.6099868	-9.406049e-11	0.054730177	0.054730177	0	63731.22	63731.02	-1.129907e-05	675914.8	178066.58	-1.0382059e-05	178069.39	675914.9	-0.00010555094
0	0.60982335	0.60982144	-1.6749367e-10	0.054588553	0.054588553	0	63713.94	63713.742	-1.7561984e-05	675997.6	177752.27	-0.00010273913	177755.06	675997.7	-0.00016265227
0	0.60965765	0.60965574	-6.4192157e-10	0.05444718	0.05444718	0	63696.63	63696.43	-6.766529e-05	676080.5	177437.5	-0.0004970411	177440.3	676080.44	-0.00042912512
0	0.6094917	0.6094898	-2.099859e-10	0.05430596	0.054305963	0	63679.29	63679.09	-2.2081611e-05	676163.1	177122.39	-0.00030454042	177125.19	676163.3	0
0	0.6093259	0.609324	-3.0033348e-10	0.054164227	0.05416423	0	63661.965	63661.766	-3.1120868e-05	676245.6	176807.81	-0.00021823955	176810.62	676245.75	-0.00021283222
0	0.60915875	0.6091568	-3.085844e-10	0.05402285	0.054022845	0	63644.504	63644.305	-3.305785e-05	676328.56	176490.84	-0.00023943625	176493.62	676328.75	-0.000231866
0	0.6089921	0.6089902	-4.8680426e-10	0.053881627	0.053881627	0	63627.094	63626.895	-4.836002e-05	676410.94	176175.17	-0.00037202382	176177.95	676411.1	-0.00030281008
0	0.60882455	0.6088226	-4.75253e-10	0.053740226	0.053740222	0	63609.59	63609.383	-5.100723e-05	676493.7	175857.88	-0.00040533292	175860.66	676493.8	-0.0002803156
0	0.60865676	0.6086549	-2.314383e-10	0.05359863	0.05359863	0	63592.06	63591.86	-2.5955578e-05	676576.3	175540.45	-0.00024895315	175543.22	676576.44	-9.170819e-05
0	0.6084885	0.6084867	-2.557785e-10	0.05345726	0.053457264	0	63574.484	63574.28	-2.5600464e-05	676658.94	175222.33	-0.00020764119	175225.12	676659	-0.00016438261
0	0.60831946	0.6083176	-6.873016e-10	0.053315885	0.053315885	0	63556.816	63556.62	-7.192665e-05	676741.56	174902.86	-0.0005275384	174905.64	676741.8	-0.00048103544
0	0.60815144	0.60814947	-2.2318739e-10	0.053174306	0.053174306	0	63539.258	63539.06	-2.4405992e-05	676823.75	174585.47	-0.00029069767	174588.25	676823.9	-6.229236e-05
0	0.6079817	0.6079798	-2.7888108e-10	0.05303294	0.05303293	0	63521.527	63521.336	-2.7892562e-05	676906.44	174265.25	-0.00028204595	174268.02	676906.5	-0.00012977574
0	0.6078125	0.6078106	-1.8812098e-10	0.05289167	0.05289167	0	63503.85	63503.65	-1.911157e-05	676988.56	173946.11	-4.9963663e-05	173948.88	676988.8	-0.00020245016
0	0.6076422	0.6076403	9.323539e-11	0.052750282	0.052750286	0	63486.06	63485.86	1.0072314e-05	677071.06	173625.22	0.00012350325	173627.98	677071.2	4.8449612e-05
0	0.6074722	0.6074702	-2.046228e-10	0.05260872	0.05260872	0	63468.29	63468.094	-2.2146178e-05	677153.25	173304.98	-0.00021110188	173307.73	677153.3	-8.824751e-05
0	0.60730153	0.6072997	-7.343318e-11	0.052467346	0.052467346	0	63450.457	63450.266	-7.6188016e-06	677235.5	172983.83	-4.2825995e-05	172986.6	677235.6	-4.4988927e-05
0	0.6071302	0.6071283	-4.2574747e-10	0.052325957	0.052325957	0	63432.57	63432.37	-4.519628e-05	677317.8	172661.73	-0.00033979616	172664.5	677317.94	-0.00023705703
0	0.606959	0.6069571	-3.0033348e-10	0.05218439	0.05218439	0	63414.676	63414.477	-3.1346848e-05	677399.94	172339.8	-0.0003443383	172342.58	677400.1	-7.4404765e-05
0	0.6067874	0.6067854	-1.9430917e-10	0.052042976	0.052042976	0	63396.74	63396.547	-2.2469008e-05	677482.06	172017.42	-6.9430025e-05	172020.19	677482.2	-0.00021110188
0	0.60661507	0.60661316	-3.758294e-10	0.051901743	0.051901743	0	63378.742	63378.543	-3.8868802e-05	677564.1	171694.17	-0.00034109392	171696.92	677564.25	-0.00018341638
0	0.60644245	0.60644054	-2.3102575e-10	0.051760364	0.051760364	0	63360.703	63360.51	-2.4050878e-05	677646.25	171370.4	-0.00023705703	171373.16	677646.4	-9.862957e-05
0	0.6062696	0.6062677	-4.727777e-10	0.05161865	0.05161865	0	63342.65	63342.45	-4.9845043e-05	677728.25	171046.36	-0.0004306392	171049.11	677728.4	-0.00024224806
0	0.60609627	0.60609436	-4.040888e-10	0.051477425	0.051477425	0	63324.535	63324.344	-4.3775828e-05	677810.2	170721.78	-0.000369212	170724.53	677810.4	-0.00023013566
0	0.60592246	0.6059206	9.8185945e-11	0.051336035	0.051336035	0	63306.375	63306.188	1.0040031e-05	677892.2	170396.48	-2.4008514e-05	170399.22	677892.4	0.00017649501
0	0.60574836	0.60574657	-4.2224083e-10	0.05119444	0.051194444	0	63288.2	63288.004	-4.5454544e-05	677974.06	170070.92	-0.0003757008	170073.67	677974.25	-0.00024224806
0	0.6055739	0.60557216	-2.7434308e-10	0.051053066	0.051053062	0	63269.965	63269.773	-3.0862604e-05	678056	169744.75	-0.00031297584	169747.5	678056.2	-7.959579e-05
0	0.605399	0.6053972	-3.7459175e-10	0.05091182	0.05091182	0	63251.684	63251.492	-3.8868802e-05	678137.8	169418.08	-0.00041571498	169420.81	678137.94	-0.000110741974
0	0.605224	0.60522217	-2.2566266e-10	0.050770126	0.05077012	0	63233.402	63233.21	-2.2856406e-05	678219.44	169091.38	-0.0002751246	169094.1	678219.6	-2.7685493e-05
0	0.6050485	0.60504663	-2.9538294e-10	0.050628737	0.050628737	0	63215.062	63214.875	-2.9829545e-05	678301.1	168763.98	-0.00015162134	168766.72	678301.3	-0.00025263013
0	0.6048731	0.6048712	-3.4777628e-10	0.0504875	0.0504875	0	63196.742	63196.55	-3.7512913e-05	678382.56	168437.03	-0.000372889	168439.78	678382.7	-0.00011420266
0	0.6046963	0.6046944	-9.77734e-11	0.050346084	0.050346084	0	63178.266	63178.074	-1.1105372e-05	678464.4	168107.67	-0.00015984046	168110.4	678464.5	1.9033776e-05
0	0.60451925	0.60451746	-4.5792606e-10	0.050204534	0.050204538	0	63159.77	63159.58	-4.5454544e-05	678546	167778.17	-0.0003808918	167780.89	678546.3	-0.00023013566
0	0.60434216	0.6043403	-9.199776e-11	0.05006314	0.05006314	0	63141.266	63141.074	-1.0072314e-05	678627.56	167448.72	-9.343854e-05	167451.45	678627.7	-3.2876524e-05
0	0.60416466	0.60416293	-2.15349e-10	0.049921747	0.049921747	0	63122.723	63122.543	-2.3631199e-05	678709	167118.83	-0.00024051772	167121.56	678709.25	-6.40227e-05
0	0.6039872	0.60398537	-3.8841205e-10	0.049780212	0.049780212	0	63104.188	63103.996	-4.0805786e-05	678790.3	166789.12	-0.00032833265	166791.86	678790.3	-0.0002560908
0	0.6038084	0.6038067	-4.1749654e-10	0.04963881	0.04963881	0	63085.504	63085.312	-4.3259297e-05	678871.9	166457.22	-0.0002958887	166459.94	678872.06	-0.00029069767
0	0.6036295	0.6036277	1.8275788e-10	0.04949754	0.04949754	0	63066.812	63066.63	1.8982439e-05	678953.25	166125.36	-0.00018211863	166128.05	678953.4	0.00045334993
0	0.60345066	0.6034488	-1.4583501e-10	0.04935615	0.049356148	0	63048.125	63047.934	-1.5108471e-05	679034.44	165793.7	-0.000103820596	165796.42	679034.6	-9.516888e-05
0	0.6032711	0.60326934	-1.9678444e-10	0.04921461	0.04921461	0	63029.37	63029.18	-2.0080062e-05	679115.75	165461.14	-0.0001436185	165463.84	679115.9	-0.00013323643
0	0.60309124	0.60308945	-2.7888108e-10	0.04907322	0.049073216	0	63010.58	63010.395	-2.8538223e-05	679196.9	165128.17	-0.00013366902	165130.89	679197.06	-0.00024916945
0	0.6029114	0.6029097	-3.8366776e-10	0.048931822	0.048931822	0	62991.793	62991.605	-3.9772727e-05	679277.9	164795.53	-0.0003296304	164798.23	679278	-0.0002197536
0	0.6027304	0.6027286	-2.450523e-10	0.048790295	0.0487903	0	62972.87	62972.688	-2.692407e-05	679359.06	164460.75	-0.00013496677	164463.44	679359.25	-0.00022148395
0	0.60254925	0.6025475	-2.8383165e-10	0.048648853	0.048648853	0	62953.945	62953.758	-2.8021694e-05	679440.1	164126.11	-0.00023121713	164128.8	679440.3	-0.00015919158
0	0.602368	0.60236615	-4.5792606e-10	0.048507623	0.048507623	0	62935.008	62934.82	-4.932851e-05	679521	163791.33	-0.000535325	163794.03	679521.25	-0.00013669713
0	0.6021861	0.6021843	7.343318e-11	0.04836622	0.048366215	0	62916	62915.816	9.006973e-06	679602.06	163455.8	1.7303433e-05	163458.5	679602.1	0.00013496677
0	0.60200393	0.6020022	-5.280589e-10	0.04822453	0.04822453	0	62896.973	62896.797	-5.6947312e-05	679682.75	163120.14	-0.00039213905	163122.81	679683	-0.00037721483
0	0.601821	0.6018193	-1.687313e-10	0.048083294	0.048083298	0	62877.867	62877.68	-1.6916323e-05	679763.7	162783.11	-0.00010749758	162785.8	679763.94	-0.00012285437
0	0.6016379	0.60163605	-3.0693423e-10	0.04794189	0.04794189	0	62858.723	62858.54	-3.041064e-05	679844.5	162445.81	-0.0002439784	162448.48	679844.75	-0.00019379845
0	0.60145533	0.60145354	-2.9105118e-10	0.04780034	0.04780034	0	62839.656	62839.477	-3.0216943e-05	679924.75	162110	-0.00017671131	162112.69	679925.06	-0.00022667497
0	0.6012706	0.6012689	-3.1147224e-11	0.047658943	0.047658943	0	62820.355	62820.176	-2.840909e-06	680005.75	161770.39	2.2710756e-05	161773.11	680005.94	-6.229236e-05
0	0.6010864	0.6010846	-1.3696527e-10	0.0475177	0.0475177	0	62801.1	62800.92	-1.234827e-05	680086.4	161431.81	-8.868009e-05	161434.48	680086.6	-7.094407e-05
0	0.60090196	0.6009002	-3.811925e-10	0.04737629	0.04737629	0	62781.836	62781.652	-3.92562e-05	680166.8	161093.19	-0.00040533292	161095.84	680167.06	-0.00012285437
0	0.6007167	0.600715	-5.2805888e-11	0.047234613	0.047234617	0	62762.484	62762.297	-7.102273e-06	680247.4	160753.3	-0.00013107351	160755.98	680247.6	4.1528237e-05
0	0.6005311	0.6005294	-6.435717e-11	0.047093377	0.047093377	0	62743.094	62742.91	-6.5211775e-06	680327.9	160413.06	-0.00019379845	160415.72	680328	0.00010555094
0	0.6003454	0.6003437	-4.498814e-10	0.04695193	0.04695193	0	62723.688	62723.5	-4.5454544e-05	680408.06	160072.72	-0.0003659676	160075.39	680408.3	-0.0002508998
0	0.60015917	0.6001575	7.528964e-11	0.046810426	0.046810426	0	62704.242	62704.06	8.135331e-06	680488.3	159731.92	-2.4657393e-05	159734.61	680488.5	0.00014534884
0	0.59997237	0.5999707	-3.193106e-10	0.04666901	0.04666901	0	62684.715	62684.53	-3.652828e-05	680568.7	159390	-0.0003806755	159392.64	680568.8	-9.6899224e-05
0	0.5997851	0.5997833	-4.094519e-10	0.04652778	0.04652778	0	62665.152	62664.977	-4.3775828e-05	680648.8	159047.6	-0.00027036614	159050.23	680649.1	-0.00034952935
0	0.5995977	0.5995959	-6.897769e-10	0.046386104	0.046386104	0	62645.566	62645.387	-7.1022725e-05	680728.94	158705.11	-0.00054873514	158707.75	680729.2	-0.0004360465
0	0.5994098	0.5994081	-4.1729026e-10	0.046244692	0.046244692	0	62625.938	62625.76	-4.4405348e-05	680809	158362.08	-0.000287237	158364.73	680809.2	-0.0002958887
0	0.5992216	0.59921986	1.1221251e-10	0.046103455	0.046103455	0	62606.273	62606.09	1.1234504e-05	680888.9	158018.61	-4.7368147e-05	158021.25	680889.1	0.00019379845
0	0.59903115	0.5990295	-9.960923e-10	0.045961995	0.045961995	0	62586.38	62586.203	-0.00010304752	680969.5	157671.52	-0.0007894691	157674.17	680969.75	-0.0006160022
0	0.59884393	0.59884226	-2.2277484e-10	0.045820504	0.045820504	0	62566.824	62566.637	-2.6843363e-05	681048.56	157330.36	-0.00027858527	157333	681048.9	-6.748339e-05
0	0.5986538	0.59865206	-1.6295566e-10	0.045679096	0.045679096	0	62546.953	62546.773	-1.7561984e-05	681128.56	156984.1	-0.00017195287	156986.73	681128.8	-5.710133e-05
0	0.5984638	0.59846216	-4.0305742e-10	0.045537677	0.045537677	0	62527.1	62526.934	-4.0805786e-05	681208.3	156638.47	-0.00043107176	156641.11	681208.5	-0.00011247231
0	0.59827334	0.5982717	-2.1369882e-10	0.04539619	0.04539619	0	62507.21	62507.027	-2.1387526e-05	681287.9	156292.17	-0.000115933	156294.8	681288.25	-0.00017130398
0	0.5980827	0.5980812	-7.1844886e-10	0.045254778	0.045254778	0	62487.28	62487.117	-7.528409e-05	681367.44	155945.78	-0.0007803848	155948.39	681367.75	-0.00027685493
0	0.59789157	0.59788984	-1.359339e-10	0.045113485	0.045113493	0	62467.312	62467.137	-1.34297525e-05	681446.9	155598.61	-0.000100792495	155601.23	681447.25	-8.3056475e-05