# t (s)	mx ()	my ()	mz ()	B_extx (T)	B_exty (T)	B_extz (T)	m_fullx (A/m)	m_fully (A/m)	m_fullz (A/m)	m_full.region1x (A/m)	m_full.region1y (A/m)	m_full.region1z (A/m)	m_full.region2x (A/m)	m_full.region2y (A/m)	m_full.region2z (A/m)
0	0.6463263	0.64632374	-1.6415334e-10	0.07071083	0.07071083	0	105574.98	105574.58	-2.6315789e-05	631780.94	273073.8	-0.00012464388	273075.78	631779.5	-0.00010090219
0	0.64608735	0.646087	-3.5094852e-10	0.07035724	0.07035724	0	105535.945	105535.9	-5.2631578e-05	631967.3	272554.78	-0.00017806268	272554.88	631967	-0.00028490028
0	0.6458445	0.6458442	-2.7170208e-10	0.07000351	0.07000352	0	105496.28	105496.234	-4.1551248e-05	632160.7	272021.62	-0.00013651472	272021.6	632160.4	-0.00025522316
0	0.64559937	0.6455992	-1.0754874e-10	0.06964995	0.06964995	0	105456.25	105456.2	-2.2160664e-05	632354	271485.22	-3.5612535e-05	271485.2	632353.6	-0.00012464388
0	0.6453545	0.64535433	-1.5283243e-10	0.06929654	0.06929654	0	105416.24	105416.22	-2.7700831e-05	632547	270949.34	-0.0001305793	270949.34	632546.7	-0.00011870845
0	0.6451089	0.64510864	-1.3019058e-10	0.06894301	0.06894301	0	105376.11	105376.09	-1.9390582e-05	632740.1	270412.28	-5.9354225e-05	270412.28	632739.8	-9.496676e-05
0	0.6448594	0.6448592	-2.7170208e-10	0.06858926	0.06858926	0	105335.36	105335.32	-4.2936288e-05	632934.9	269868.22	-0.00019586894	269868.2	632934.6	-0.00017806268
0	0.6446106	0.64461035	-1.8113472e-10	0.0682357	0.0682357	0	105294.73	105294.695	-2.6315789e-05	633128.5	269326.28	-9.496676e-05	269326.28	633128.2	-0.00011870845
0	0.6443601	0.6443599	-1.5283243e-10	0.06788229	0.06788229	0	105253.82	105253.79	-2.7700831e-05	633323.2	268781.1	-5.9354225e-06	268781.1	633322.9	-0.0002374169
0	0.64410484	0.64410466	-1.4717197e-10	0.06752872	0.06752872	0	105212.125	105212.08	-2.3545706e-05	633519.6	268227.2	-5.9354225e-05	268227.2	633519.3	-0.00011870845
0	0.6438546	0.6438545	-6.792552e-11	0.06717499	0.06717499	0	105171.24	105171.21	-1.2465374e-05	633712.7	267683.75	-3.5612535e-05	267683.75	633712.44	-6.232194e-05
0	0.64359945	0.64359915	-4.8113913e-10	0.06682174	0.06682174	0	105129.555	105129.516	-7.4792246e-05	633907.9	267131.25	-0.00035018992	267131.25	633907.56	-0.0003175451
0	0.6433432	0.64334303	-3.7359035e-10	0.06646816	0.06646816	0	105087.71	105087.67	-6.232687e-05	634103	266577.47	-0.0002374169	266577.47	634102.7	-0.00028490028
0	0.64308655	0.6430864	8.49069e-11	0.066114426	0.066114426	0	105045.79	105045.74	1.2465374e-05	634298.4	266022.84	0.00014245014	266022.84	634298.06	-1.7806267e-05
0	0.64282405	0.6428238	1.8679518e-10	0.06576087	0.06576087	0	105002.89	105002.85	2.9085873e-05	634496.44	265457.16	9.496676e-05	265457.16	634496.2	0.00013651472
0	0.6425669	0.6425667	-2.9434394e-10	0.06540745	0.06540745	0	104960.91	104960.86	-4.9861497e-05	634690.75	264902.9	-0.00020180437	264902.9	634690.44	-0.00020180437
0	0.64230484	0.6423046	-3.6226944e-10	0.06505392	0.06505392	0	104918.1	104918.055	-6.232687e-05	634886.7	264340.1	-0.0002374169	264340.1	634886.4	-0.0002641263
0	0.6420405	0.64204025	-2.2075794e-10	0.06470019	0.06470019	0	104874.914	104874.87	-3.8781163e-05	635083.4	263773.25	-7.122507e-05	263773.25	635083.1	-0.00025522316
0	0.6417776	0.6417773	-3.9057174e-10	0.06434663	0.06434663	0	104831.97	104831.92	-6.371191e-05	635280.4	263208.3	-0.000154321	263208.34	635280	-0.00039173788
0	0.6415112	0.64151084	-4.528368e-10	0.06399319	0.06399319	0	104788.445	104788.414	-7.063712e-05	635477.1	262638.4	-0.00024928775	262638.44	635476.8	-0.0003620608
0	0.6412419	0.6412418	1.6415334e-10	0.06363963	0.06363963	0	104744.48	104744.43	2.7700831e-05	635675.7	262062.97	0.00016025642	262063	635675.5	6.825736e-05
0	0.64097494	0.64097464	-4.4151588e-10	0.06328592	0.06328592	0	104700.85	104700.82	-7.202216e-05	635871.94	261492.97	-0.00010683761	261492.98	635871.5	-0.0005223172
0	0.6407053	0.64070505	-1.7547426e-10	0.062932625	0.062932625	0	104656.82	104656.77	-2.7700831e-05	636069.44	260917.92	-0.0001305793	260917.97	636069.1	-9.199905e-05
0	0.6404333	0.64043295	-3.113253e-10	0.06257908	0.06257908	0	104612.38	104612.33	-4.9861497e-05	636267.44	260339.1	-0.00021961064	260339.1	636267.1	-0.00021961064
0	0.64016026	0.64016	-3.7359035e-10	0.062225346	0.062225346	0	104567.8	104567.734	-5.9556787e-05	636465.6	259758.7	-0.00027896487	259758.73	636465.3	-0.00024928775
0	0.6398861	0.6398858	-1.981161e-10	0.061871808	0.061871808	0	104523	104522.95	-3.1855954e-05	636663.56	259176.88	-0.0001305793	259176.92	636663.25	-0.00014838556
0	0.6396098	0.6396096	-4.5849727e-10	0.061518334	0.061518334	0	104477.875	104477.84	-7.756233e-05	636862.2	258591.53	-0.00040360875	258591.56	636861.9	-0.00024632004
0	0.6393289	0.6393286	-4.1887405e-10	0.06116483	0.06116483	0	104431.98	104431.945	-6.371191e-05	637062.56	257997.84	-0.00020180437	257997.84	637062.25	-0.0003620608
0	0.6390527	0.63905233	-2.5472072e-10	0.060811114	0.060811114	0	104386.87	104386.82	-4.432133e-05	637259.7	257413.98	-9.496676e-05	257414	637259.3	-0.0002611586
0	0.63877034	0.63877004	-5.094414e-11	0.060457572	0.060457572	0	104340.74	104340.69	-8.3102495e-06	637459.2	256819.3	-5.9354225e-05	256819.34	637458.75	-5.9354225e-06
0	0.6384882	0.6384879	-1.0754874e-10	0.060104094	0.060104094	0	104294.66	104294.6	-1.9390582e-05	637659.4	256224.03	-0.00010683761	256224.08	637658.94	-3.5612535e-05
0	0.6382063	0.63820606	-5.830274e-10	0.059750553	0.059750553	0	104248.61	104248.57	-9.4182826e-05	637858.1	255630.61	-0.0004748338	255630.66	637857.75	-0.0003442545
0	0.63792115	0.63792086	-4.0755313e-10	0.05939683	0.05939683	0	104202.04	104201.98	-6.6481996e-05	638057.75	255031.75	-0.00032051283	255031.8	638057.44	-0.00024335233
0	0.6376343	0.637634	-1.3019058e-10	0.05904352	0.05904352	0	104155.164	104155.13	-2.0775624e-05	638257.9	254430.03	-0.00012464388	254430.11	638257.5	-4.748338e-05
0	0.6373458	0.6373455	-2.7170208e-10	0.058689978	0.058689978	0	104108.06	104108.01	-4.2936288e-05	638457.75	253826.38	-0.00014245014	253826.45	638457.4	-0.00022554606
0	0.6370561	0.6370559	-3.6226944e-10	0.05833626	0.05833626	0	104060.75	104060.695	-5.8171747e-05	638658	253220.6	-0.0003041904	253220.64	638657.6	-0.00019290124
0	0.6367647	0.6367644	-3.0566485e-10	0.057982747	0.057982747	0	104013.13	104013.08	-4.8476453e-05	638858.6	252611.9	-0.00017806268	252611.97	638858.2	-0.00024335233
0	0.6364688	0.63646865	-1.132092e-10	0.05762923	0.05762923	0	103964.82	103964.766	-1.6620499e-05	639060.9	251995.56	-2.374169e-05	251995.61	639060.44	-0.00011870845
0	0.6361763	0.63617593	-1.9245565e-10	0.057275698	0.057275705	0	103917.016	103916.96	-3.8781163e-05	639260.56	251386.14	-0.00016619184	251386.22	639260.1	-0.00013651472
0	0.63588	0.6358797	-2.1509748e-10	0.056922037	0.056922037	0	103868.625	103868.57	-3.601108e-05	639461.94	250770.02	-0.00014838556	250770.1	639461.5	-0.00016025642
0	0.63558173	0.6355815	-2.1509748e-10	0.05656851	0.05656851	0	103819.91	103819.836	-4.0166204e-05	639663.06	250151.27	-0.0001305793	250151.34	639662.6	-0.00018993352
0	0.63528204	0.6352817	-4.1887405e-10	0.056214985	0.056214985	0	103770.945	103770.9	-6.6481996e-05	639864.25	249530.56	-0.0003620608	249530.64	639863.8	-0.00020477208
0	0.63498074	0.6349804	-3.849113e-10	0.05586147	0.05586147	0	103721.73	103721.68	-6.232687e-05	640066.25	248906.7	-0.00027896487	248906.78	640065.8	-0.00025522316
0	0.6346764	0.6346761	-2.1509748e-10	0.055507757	0.055507757	0	103672.03	103671.97	-3.1855954e-05	640269.06	248277.94	-0.00018993352	248278.02	640268.56	-7.71605e-05
0	0.6343737	0.63437337	-4.0755313e-10	0.05515441	0.05515441	0	103622.57	103622.516	-6.925208e-05	640470.3	247652.8	-0.00026709403	247652.89	640469.9	-0.00033238367
0	0.63406736	0.63406694	-1.1886966e-10	0.05480089	0.05480089	0	103572.53	103572.48	-1.9390582e-05	640672.4	247021.84	-2.374169e-05	247021.9	640672	-0.00016619184
0	0.63375944	0.6337591	-1.4717197e-10	0.054447185	0.054447185	0	103522.23	103522.164	-2.4930749e-05	640874.94	246388.14	-0.0002374169	246388.19	640874.5	2.374169e-05
0	0.6334487	0.63344836	-2.8868347e-10	0.05409368	0.054093674	0	103471.484	103471.43	-5.2631578e-05	641077.75	245750.3	-0.0001839981	245750.42	641077.44	-0.00024335233
0	0.6331382	0.6331378	-3.396276e-10	0.053740114	0.05374012	0	103420.76	103420.695	-5.2631578e-05	641279.94	245113.44	-0.0002611586	245113.48	641279.5	-0.0001839981
0	0.6328247	0.6328243	-4.528368e-10	0.05338661	0.05338661	0	103369.54	103369.49	-7.4792246e-05	641482.6	244471.78	-0.00039173788	244471.9	641482.25	-0.0002611586
0	0.6325079	0.6325076	-2.2075794e-10	0.05303296	0.05303296	0	103317.82	103317.75	-3.8781163e-05	641686.06	243825.05	-0.00022702992	243825.12	641685.7	-8.903134e-05
0	0.6321927	0.6321923	-3.5094852e-10	0.052679453	0.052679453	0	103266.31	103266.24	-5.8171747e-05	641889.75	243179.89	-0.0002611586	243180.02	641889.3	-0.0002374169
0	0.6318736	0.6318732	-6.0000876e-10	0.052325875	0.052325875	0	103214.19	103214.12	-9.833795e-05	642093.6	242529.3	-0.00046296295	242529.42	642093.2	-0.0003709639
0	0.63155544	0.631555	-5.943483e-10	0.051972385	0.051972385	0	103162.21	103162.15	-9.833795e-05	642296.44	241881.11	-0.0004985755	241881.2	642295.9	-0.00035315764
0	0.6312321	0.6312317	-2.0943702e-10	0.05161868	0.051618677	0	103109.4	103109.336	-3.0470914e-05	642500.6	241224.19	-0.00012464388	241224.3	642500.2	-0.000154321
0	0.6309096	0.63090914	-5.943483e-10	0.051265296	0.051265296	0	103056.72	103056.66	-9.556787e-05	642704.25	240569.03	-0.00046296295	240569.16	642703.8	-0.00035315764
0	0.63058424	0.63058376	-1.8679518e-10	0.050911795	0.050911795	0	103003.56	103003.51	-2.9085873e-05	642908.06	239909.8	-8.309592e-05	239909.9	642907.5	-0.00016025642
0	0.63025653	0.6302561	-9.6227824e-11	0.0505581	0.0505581	0	102950.05	102949.984	-1.5235457e-05	643112.4	239246.64	-0.000154321	239246.73	643111.94	1.7806267e-05
0	0.62992465	0.6299243	-1.132092e-10	0.050204623	0.050204623	0	102895.84	102895.766	-1.9390582e-05	643318.25	238576.22	-0.00016619184	238576.34	643317.75	2.374169e-05
0	0.6295964	0.62959594	-1.0754874e-10	0.049851004	0.049851004	0	102842.22	102842.16	-1.800554e-05	643521.44	237913.48	3.5612535e-05	237913.61	643520.9	-0.0001839981
0	0.6292636	0.6292632	-1.4717197e-10	0.049497522	0.049497522	0	102787.86	102787.78	-2.2160664e-05	643725.8	237243.12	-7.122507e-05	237243.27	643725.3	-0.00011277303
0	0.62892884	0.6289284	-4.528368e-10	0.049143877	0.049143877	0	102733.17	102733.1	-7.756233e-05	643930.4	236569.88	-0.00024928775	236569.98	643929.94	-0.00035909307
0	0.62859064	0.6285902	-7.3585985e-11	0.048790403	0.048790403	0	102677.95	102677.87	-1.3850416e-05	644134.9	235892.02	-5.9354225e-05	235892.14	644134.3	-3.2644824e-05
0	0.6282539	0.6282534	-1.4717197e-10	0.048436757	0.048436765	0	102622.92	102622.84	-2.4930749e-05	644340.1	235215.11	-4.748338e-05	235215.25	644339.6	-0.00014245014
0	0.62791353	0.6279131	-1.698138e-10	0.048083298	0.048083298	0	102567.336	102567.26	-2.7700831e-05	644545.44	234533.48	-4.748338e-05	234533.61	644544.8	-0.00017806268
0	0.6275712	0.6275708	-2.9434394e-10	0.047729604	0.047729604	0	102511.42	102511.35	-4.9861497e-05	644750.94	233848.58	-0.00021812678	233848.75	644750.5	-0.0002107075
0	0.62722695	0.6272264	-2.9434394e-10	0.04737618	0.04737618	0	102455.164	102455.09	-4.8476453e-05	644955.9	233161.69	-0.00021367522	233161.86	644955.4	-0.00021367522
0	0.6268809	0.62688047	-1.981161e-10	0.047022708	0.047022708	0	102398.65	102398.58	-3.462604e-05	645161.9	232471.3	-7.122507e-05	232471.45	645161.3	-0.00020180437
0	0.62653244	0.62653196	-3.113253e-10	0.046669014	0.046669014	0	102341.734	102341.66	-5.2631578e-05	645366.7	231778.56	-0.00027302944	231778.7	645366.25	-0.00016915954
0	0.6261824	0.62618184	-1.981161e-10	0.046315562	0.04631557	0	102284.54	102284.46	-3.0470914e-05	645573.56	231081.45	-0.00011870845	231081.62	645573.1	-0.00013651472
0	0.62583005	0.6258295	-1.3585104e-10	0.04596188	0.04596188	0	102226.99	102226.914	-2.2160664e-05	645779.4	230382.47	-0.00011870845	230382.64	645778.9	-8.309592e-05
0	0.62547576	0.6254752	9.6227824e-11	0.045608427	0.045608435	0	102169.125	102169.04	1.6620499e-05	645984.1	229681.72	0.0001305793	229681.89	645983.6	-2.9677112e-05
0	0.6251193	0.6251189	-3.396276e-10	0.0452548	0.0452548	0	102110.92	102110.83	-5.6786703e-05	646190.56	228976.44	-0.00033238367	228976.61	646190	-0.00013651472
0	0.62476194	0.6247614	-4.0189266e-10	0.04490134	0.04490134	0	102052.52	102052.44	-6.371191e-05	646396.6	228269.78	-0.0002908357	228269.97	646396.2	-0.00024038462
0	0.62440217	0.62440157	-1.3585104e-10	0.044547655	0.044547655	0	101993.75	101993.664	-1.9390582e-05	646603.5	227559.3	-6.232194e-05	227559.47	646602.9	-0.00010090219
0	0.6240405	0.6240399	-4.1321357e-10	0.044194218	0.044194218	0	101934.664	101934.58	-6.925208e-05	646809.75	226846.7	-0.00038580247	226846.9	646809.1	-0.0002374169
0	0.6236756	0.62367505	-3.3396713e-10	0.04384053	0.04384053	0	101875.086	101875	-5.5401662e-05	647016.1	226129.55	-0.000308642	226129.77	647015.56	-0.00016322412
0	0.62330943	0.6233089	-2.83023e-11	0.043487072	0.043487072	0	101815.27	101815.17	-5.540166e-06	647222.75	225410.19	-4.748338e-05	225410.4	647222.2	1.1870845e-05
0	0.6229409	0.62294036	-3.962322e-10	0.043133613	0.043133613	0	101755.08	101754.98	-6.786703e-05	647429.8	224687.31	-0.00035612535	224687.48	647429.25	-0.00021367522
0	0.62257034	0.62256974	-2.3207887e-10	0.04277993	0.04277993	0	101694.53	101694.445	-4.1551248e-05	647636	223962.31	-0.00025522316	223962.52	647635.44	-8.606363e-05
0	0.62219787	0.6221973	-3.396276e-10	0.042426463	0.042426463	0	101633.695	101633.59	-5.1246538e-05	647843	223233.8	-0.00027302944	223234	647842.44	-0.0001839981
0	0.6218212	0.6218206	-3.396276e-10	0.042072795	0.042072795	0	101572.164	101572.06	-5.4016622e-05	648051.44	222498.02	-0.00034091584	222498.2	648050.8	-0.00010683761
0	0.6214453	0.6214447	-7.3585985e-11	0.041719336	0.041719336	0	101510.76	101510.67	-1.1080332e-05	648258	221765.14	-5.9354225e-05	221765.39	648257.4	-2.077398e-05
0	0.6210664	0.62106586	5.66046e-11	0.04136572	0.04136572	0	101448.87	101448.77	1.1080332e-05	648465	221027.72	2.9677112e-05	221027.97	648464.4	7.122507e-05
0	0.6206854	0.62068474	-1.698138e-11	0.041012254	0.041012254	0	101386.64	101386.54	-4.1551248e-06	648671.1	220288.19	-2.374169e-05	220288.39	648670.56	-2.9677112e-05
0	0.6203017	0.62030107	-3.9057174e-10	0.040658582	0.040658582	0	101323.95	101323.87	-5.9556787e-05	648878.06	219544.02	-0.00013651472	219544.27	648877.5	-0.00037986704
0	0.6199141	0.61991346	-2.3773933e-10	0.04030513	0.04030513	0	101260.66	101260.555	-4.0166204e-05	649087.75	218791.8	-0.00019586894	218792.05	649087.2	-0.00011574074
0	0.6195278	0.61952716	-4.2453452e-10	0.039951455	0.039951455	0	101197.55	101197.45	-6.6481996e-05	649294.3	218044.36	-0.00030270655	218044.61	649293.7	-0.00029677112
0	0.6191379	0.6191373	-3.3396713e-10	0.039597988	0.039597988	0	101133.86	101133.74	-5.1246538e-05	649501.44	217291.3	-0.00032644824	217291.53	649500.8	-0.00011574074
0	0.6187429	0.61874217	-2.3207887e-10	0.039244518	0.039244518	0	101069.336	101069.22	-3.7396123e-05	649710.4	216529.34	-0.00023148148	216529.61	649709.7	-9.496676e-05
0	0.6183507	0.61835	-2.5472072e-10	0.038890842	0.038890842	0	101005.27	101005.16	-4.1551248e-05	649916.6	215774.08	-0.0001810304	215774.36	649916	-0.00020180437
0	0.6179545	0.61795384	-2.0943702e-10	0.038537372	0.03853737	0	100940.555	100940.44	-3.8781163e-05	650123.2	215012.75	-0.00016025642	215013.02	650122.6	-0.00016322412
0	0.6175553	0.61755466	-5.207623e-10	0.038183715	0.038183715	0	100875.34	100875.24	-8.033241e-05	650330.75	214246.4	-0.0003947056	214246.67	650330.1	-0.0003145774
0	0.61715275	0.6171521	-1.132092e-10	0.037830245	0.037830245	0	100809.59	100809.484	-1.5235457e-05	650538.44	213475.12	-0.00022554606	213475.4	650537.75	6.528965e-05
0	0.6167466	0.6167459	-6.509529e-10	0.03747658	0.03747658	0	100743.24	100743.14	-0.000108033244	650748.5	212696.47	-0.00042735043	212696.73	650747.8	-0.00048076923
0	0.6163435	0.61634284	-2.6038116e-10	0.037123166	0.037123166	0	100677.4	100677.29	-4.5706372e-05	650953.9	211926.62	-0.0003145774	211926.94	650953.3	-6.528965e-05
0	0.61593467	0.6159339	-2.1509748e-10	0.03676951	0.03676951	0	100610.625	100610.516	-3.3240998e-05	651161.8	211146.39	-0.00010090219	211146.69	651161.2	-0.00020180437
0	0.61552244	0.6155218	-1.0188828e-10	0.036416043	0.036416043	0	100543.29	100543.19	-1.2465374e-05	651371	210360.2	-0.00012464388	210360.53	651370.25	1.1870845e-05
0	0.61511	0.6151093	-2.3773933e-10	0.036062382	0.036062382	0	100475.914	100475.8	-3.8781163e-05	651577.5	209576.19	-0.00016322412	209576.48	651576.9	-0.00016619184
0	0.61469156	0.6146908	-3.396276e-11	0.035708904	0.035708904	0	100407.56	100407.445	-8.3102495e-06	651785.75	208782.05	-2.9677112e-05	208782.38	651785.1	-2.374169e-05
0	0.61427563	0.61427486	-2.264184e-11	0.035355415	0.035355415	0	100339.625	100339.51	0	651993.6	207991.86	0	207992.17	651993.06	-1.1870845e-05
0	0.6138548	0.6138541	-3.7925083e-10	0.03500176	0.03500176	0	100270.9	100270.78	-6.232687e-05	652201.6	207194.83	-0.0003442545	207195.17	652200.94	-0.00018696582
0	0.6134319	0.6134311	-4.7547866e-10	0.03464827	0.03464827	0	100201.8	100201.67	-7.756233e-05	652409	206395.3	-0.00039173788	206395.64	652408.2	-0.00026709403
0	0.6130057	0.613005	-1.6415334e-10	0.034294635	0.034294635	0	100132.19	100132.06	-3.0470914e-05	652617.06	205590.56	-0.00014838556	205590.9	652616.4	-8.012821e-05
0	0.61257505	0.6125742	-1.5849289e-10	0.033941146	0.033941146	0	100061.83	100061.695	-2.6315789e-05	652827.06	204777.52	-0.00014838556	204777.88	652826.4	-3.5612535e-05
0	0.61214703	0.6121462	-2.7736255e-10	0.033587497	0.033587497	0	99991.91	99991.79	-4.8476453e-05	653032.44	203972.95	-0.00019586894	203973.28	653031.8	-0.00021961064
0	0.6117118	0.61171097	-2.7736255e-10	0.03323408	0.03323408	0	99920.83	99920.7	-4.7091413e-05	653242.44	203153.7	-0.0002077398	203154.08	653241.75	-0.00014541786
0	0.6112777	0.61127687	-4.7547866e-10	0.032880437	0.032880437	0	99849.914	99849.79	-7.894737e-05	653448.8	202339.44	-0.00038580247	202339.8	653448.1	-0.00026709403
0	0.610836	0.61083525	5.66046e-10	0.03252696	0.03252696	0	99777.79	99777.65	9.1412745e-05	653658.9	201511.16	0.0003679962	201511.56	653658.2	0.0004154796
0	0.6103964	0.61039555	-3.0566485e-10	0.032173313	0.032173313	0	99705.95	99705.83	-4.501385e-05	653866.1	200688.38	-0.00011277303	200688.77	653865.44	-0.00027896487
0	0.6099542	0.60995334	-1.3585104e-10	0.031819817	0.031819817	0	99633.73	99633.586	-2.4930749e-05	654072.3	199863.03	-9.496676e-05	199863.44	654071.56	-0.00011277303
0	0.6095055	0.6095046	-4.9246e-10	0.031466313	0.031466313	0	99560.44	99560.31	-8.033241e-05	654282.25	199025.03	-0.00032644824	199025.44	654281.5	-0.00033238367
0	0.6090588	0.609058	-4.2453452e-10	0.031112673	0.031112673	0	99487.47	99487.34	-6.509695e-05	654488	198193.94	-0.00027302944	198194.33	654487.2	-0.00029677112
0	0.6086074	0.6086065	-2.264184e-10	0.030759167	0.030759167	0	99413.734	99413.59	-3.601108e-05	654695.4	197354.52	-0.00011870845	197354.95	654694.6	-0.0001810304
0	0.60815305	0.6081522	-3.0566485e-10	0.030405557	0.030405555	0	99339.53	99339.39	-4.8476453e-05	654903.5	196510.34	-0.00021664292	196510.78	654902.7	-0.00019586894
0	0.60769296	0.60769206	-4.7547866e-10	0.030052047	0.030052047	0	99264.37	99264.234	-7.8254845e-05	655113.5	195656.28	-0.00030270655	195656.69	655112.6	-0.00035018992
0	0.6072347	0.60723394	-2.4339977e-10	0.029698415	0.029698415	0	99189.53	99189.39	-3.601108e-05	655320.4	194807.92	-0.00014541786	194808.36	655319.56	-0.0001572887
0	0.60677373	0.60677284	-9.056736e-11	0.029344989	0.029344989	0	99114.21	99114.08	-1.5235457e-05	655526.1	193956.7	-8.309592e-05	193957.14	655525.3	-4.154796e-05
0	0.60630655	0.60630566	-3.0566485e-10	0.028991373	0.028991373	0	99037.914	99037.766	-4.9168975e-05	655735.7	193093.06	-0.00022554606	193093.52	655734.9	-0.0001572887
0	0.6058377	0.6058367	-2.7736255e-10	0.028637849	0.028637853	0	98961.32	98961.164	-4.432133e-05	655943.5	192228.72	-0.0001572887	192229.2	655942.75	-0.00021664292
0	0.60536724	0.6053663	-3.113253e-10	0.028284255	0.028284254	0	98884.484	98884.33	-5.2631578e-05	656150.7	191362.98	-0.00024928775	191363.47	656149.94	-0.00017806268
0	0.6048931	0.6048921	-2.264184e-11	0.027930735	0.027930735	0	98807.016	98806.85	-5.540166e-06	656358.3	190491.53	-3.5612535e-05	190492	656357.44	-5.9354225e-06
0	0.6044163	0.6044154	-2.9434394e-10	0.027577205	0.027577205	0	98729.14	98729	-4.8476453e-05	656565.6	189616.77	-0.00027599715	189617.25	656564.75	-0.00010980532
0	0.6039372	0.60393625	0	0.027223593	0.027223593	0	98650.89	98650.73	4.1551248e-06	656772.6	188738.98	-5.9354225e-05	188739.48	656771.8	6.528965e-05
0	0.60345423	0.6034532	-1.0754874e-10	0.02687006	0.02687006	0	98571.984	98571.836	-1.731302e-05	656980.1	187855.31	-9.496676e-05	187855.83	656979.25	-5.3418804e-05
0	0.6029707	0.6029697	-1.5283243e-10	0.02651648	0.02651648	0	98493.01	98492.84	-2.3545706e-05	657185.1	186973.27	-0.00011574074	186973.8	657184.3	-0.00011574074
0	0.6024804	0.60247946	-2.6604163e-10	0.026162934	0.026162934	0	98412.92	98412.766	-4.432133e-05	657394.25	186077.81	-0.00024038462	186078.34	657393.4	-0.00012464388
0	0.6019891	0.6019881	-1.5849289e-10	0.02580934	0.02580934	0	98332.68	98332.5	-2.2853186e-05	657601.2	185182.97	-0.00013651472	185183.53	657600.4	-6.232194e-05
0	0.6014964	0.6014953	-1.981161e-10	0.025455898	0.025455898	0	98252.195	98252.01	-2.7700831e-05	657805.9	184288.45	-2.9677112e-05	184289	657805.06	-0.00024335233
0	0.60099846	0.6009973	-2.6038116e-10	0.025102312	0.025102312	0	98170.84	98170.68	-4.0166204e-05	658012.94	183384.27	-0.00027896487	183384.83	658012.06	-6.528965e-05
0	0.6004966	0.6004956	-7.924644e-11	0.024748761	0.024748761	0	98088.875	98088.695	-1.1772853e-05	658221.56	182473.11	-1.1870845e-05	182473.69	658220.7	-7.71605e-05
0	0.59999186	0.5999908	-7.075575e-10	0.024395201	0.024395201	0	98006.42	98006.266	-0.00011634349	658428.7	181559.31	-0.0005460589	181559.89	658427.8	-0.00042735043
0	0.599486	0.5994849	-3.283067e-10	0.024041649	0.024041649	0	97923.8	97923.62	-5.5401662e-05	658634.9	180644.9	-0.0002107075	180645.52	658634	-0.00022554606
0	0.5989767	0.59897566	-1.6415334e-10	0.02368809	0.02368809	0	97840.59	97840.43	-2.8393351e-05	658841	179725.67	-0.00013651472	179726.3	658840.1	-9.793447e-05
0	0.5984656	0.5984645	-1.415115e-10	0.023334507	0.023334507	0	97757.11	97756.93	-2.2160664e-05	659045	178806.14	-6.528965e-05	178806.77	659044.1	-0.00010090219
0	0.5979477	0.5979466	-3.7359035e-10	0.02298094	0.022980941	0	97672.52	97672.34	-5.8171747e-05	659253.44	177872.73	-0.000287868	177873.38	659252.44	-0.00021367522
0	0.5974285	0.5974273	-3.113253e-10	0.0226274	0.0226274	0	97587.7	97587.51	-4.9861497e-05	659459.44	176939.7	-0.0002374169	176940.34	659458.5	-0.00022257835
0	0.59690756	0.59690636	-2.1509748e-10	0.022273827	0.022273827	0	97502.625	97502.43	-3.3240998e-05	659663.3	176006.62	-0.00018251424	176007.3	659662.4	-0.0001305793
0	0.5963803	0.5963791	-4.5849727e-10	0.021920266	0.021920266	0	97416.49	97416.31	-7.202216e-05	659869.75	175061.98	-0.0003175451	175062.67	659868.8	-0.00028490028
0	0.5958509	0.5958497	-4.1321357e-10	0.021566804	0.021566804	0	97330.016	97329.82	-6.786703e-05	660076.9	174113.7	-0.00035018992	174114.36	660075.94	-0.00021367522
0	0.59531856	0.59531736	-1.981161e-10	0.021213232	0.021213232	0	97243.055	97242.85	-3.3240998e-05	660282.5	173162.73	-0.00016915954	173163.44	660281.5	-8.606363e-05
0	0.59478295	0.59478176	-1.8679518e-10	0.020859668	0.020859668	0	97155.56	97155.375	-3.1855954e-05	660487.8	172207.62	-0.00017212726	172208.31	660486.8	-0.00010683761
0	0.5942455	0.5942443	-4.5849727e-10	0.020506127	0.020506127	0	97067.78	97067.586	-7.617728e-05	660691	171252.06	-0.000308642	171252.78	660689.94	-0.0003412868
0	0.59370154	0.5937003	-4.3019496e-10	0.020152565	0.020152565	0	96978.93	96978.734	-6.925208e-05	660898.1	170283.33	-0.00029973884	170284.08	660897.1	-0.00031160968
0	0.5931556	0.5931543	-2.6038116e-10	0.019798994	0.019798994	0	96889.76	96889.53	-4.432133e-05	661103.1	169313.92	-0.00022554606	169314.67	661102.1	-0.00013651472
0	0.59260625	0.59260494	-2.4339977e-10	0.019445421	0.019445421	0	96800.01	96799.805	-3.808864e-05	661308	168339.89	-0.00014245014	168340.64	661307	-0.00017806268
0	0.5920536	0.5920523	-3.0566485e-10	0.019091858	0.019091858	0	96709.734	96709.53	-5.2631578e-05	661512.56	167361.72	-0.00024335233	167362.48	661511.56	-0.0001810304
0	0.59149665	0.59149534	-2.3773933e-10	0.01873829	0.01873829	0	96618.766	96618.55	-3.7396123e-05	661717.44	166377.1	-0.00016025642	166377.89	661716.3	-0.00016025642
0	0.59093916	0.5909379	-5.830274e-10	0.018384755	0.018384755	0	96527.695	96527.49	-9.4182826e-05	661919.4	165394.66	-0.00030270655	165395.47	661918.4	-0.0004985755
0	0.59037423	0.590373	0	0.018031191	0.018031191	0	96435.43	96435.2	-5.540166e-06	662123.7	164399.44	-2.374169e-05	164400.27	662122.6	2.077398e-05
0	0.5898086	0.58980715	-2.7170208e-10	0.017677708	0.017677708	0	96343.016	96342.79	-4.0858726e-05	662327.6	163403.47	-0.00018993352	163404.31	662326.5	-0.00017212726
0	0.58923686	0.5892354	-3.7359035e-10	0.017324135	0.017324135	0	96249.63	96249.42	-6.024931e-05	662531.6	162399.1	-0.000308642	162399.94	662530.5	-0.00020180437
0	0.58866346	0.588662	-2.6604163e-10	0.016970573	0.016970573	0	96155.97	96155.74	-4.2243766e-05	662735.06	161392.98	-0.00012167617	161393.84	662733.8	-0.00023148148
0	0.588086	0.58808464	-2.6604163e-10	0.01661704	0.01661704	0	96061.65	96061.42	-4.362881e-05	662938.5	160381.14	-0.00022554606	160382	662937.25	-0.00016025642
0	0.5875029	0.58750147	-5.3208327e-10	0.01626348	0.01626348	0	95966.41	95966.17	-8.5872576e-05	663142.3	159360.92	-0.00039173788	159361.81	663141.2	-0.00032051283
0	0.5869175	0.586916	1.8113472e-10	0.015909908	0.015909908	0	95870.78	95870.55	3.1163436e-05	663347.06	158336.55	0.00017212726	158337.45	663345.94	8.606363e-05
0	0.5863282	0.58632666	-2.7170208e-10	0.015556336	0.015556336	0	95774.51	95774.28	-4.5706372e-05	663550.06	157308.5	-0.00024335233	157309.44	663548.9	-0.00012464388
0	0.58573526	0.58573365	-2.1509748e-10	0.015202778	0.015202778	0	95677.66	95677.41	-3.462604e-05	663752.8	156275.48	-0.00025522316	156276.42	663751.7	-2.374169e-05
0	0.58513963	0.58513814	-1.9245565e-10	0.014849207	0.014849207	0	95580.375	95580.125	-3.0470914e-05	663953.3	155241.14	-0.00018974804	155242.1	663952.2	-7.71605e-05
0	0.5845389	0.5845373	-2.3207887e-10	0.014495687	0.014495687	0	95482.24	95481.99	-3.9473685e-05	664155.5	154197.89	-0.00020180437	154198.88	664154.3	-0.00011870845
0	0.5839341	0.5839326	-5.1510185e-10	0.014142128	0.014142128	0	95383.45	95383.2	-8.3795014e-05	664357.75	153149.06	-0.0004154796	153150.05	664356.56	-0.00029677112
0	0.5833251	0.5833235	-3.4528808e-10	0.013788602	0.013788602	0	95283.98	95283.72	-5.7479225e-05	664560.1	152094.03	-0.00027302944	152095.03	664558.94	-0.00018696582
0	0.582712	0.5827103	-3.849113e-10	0.01343503	0.01343503	0	95183.82	95183.56	-6.509695e-05	664763.6	151032.11	-0.0002611586	151033.12	664762.44	-0.00026709403
0	0.5820969	0.58209527	-3.3396713e-10	0.013081469	0.013081469	0	95083.34	95083.086	-5.33241e-05	664963.1	149971.36	-0.0003620608	149972.42	664961.94	-0.0001038699
0	0.5814741	0.58147246	-5.094414e-11	0.012727949	0.012727949	0	94981.625	94981.35	-8.3102495e-06	665166.9	148895.89	-9.793447e-05	148896.97	665165.6	5.9354225e-06
0	0.5808497	0.58084804	-3.396276e-10	0.012374381	0.012374381	0	94879.62	94879.34	-5.1246538e-05	665367.94	147820.53	-0.00027302944	147821.62	665366.7	-0.00017806268
0	0.58022213	0.58022046	-2.83023e-10	0.0120208245	0.0120208245	0	94777.11	94776.836	-4.2243766e-05	665566.9	146743	-0.00017509496	146744.11	665565.6	-0.00018696582
0	0.5795876	0.57958585	-2.8868347e-10	0.011667253	0.011667253	0	94673.46	94673.19	-4.2936288e-05	665769.6	145651.88	-0.00028490028	145652.98	665768.3	-9.199905e-05
0	0.5789517	0.57895005	-1.0188828e-10	0.0113137	0.0113137	0	94569.59	94569.31	-1.6620499e-05	665968	144563.3	-3.2644824e-05	144564.42	665966.7	-0.00010683761
0	0.5783091	0.5783074	-3.7359035e-10	0.010960133	0.010960133	0	94464.64	94464.35	-6.232687e-05	666168.5	143463.19	-0.00030270655	143464.34	666167.25	-0.00021664292
0	0.57766366	0.5776619	-1.9245565e-10	0.010606616	0.010606616	0	94359.19	94358.91	-2.7008311e-05	666368.6	142359.3	-0.00020217533	142360.48	666367.4	-3.2644824e-05
0	0.57701343	0.57701164	-4.8113913e-10	0.010253063	0.010253063	0	94252.984	94252.695	-7.8254845e-05	666568.5	141249.11	-0.0003679962	141250.33	666567.2	-0.00027302944
0	0.5763574	0.5763556	-4.1321357e-10	0.009899497	0.009899497	0	94145.836	94145.54	-6.9944595e-05	666770.6	140128.62	-0.00037986704	140129.86	666769.3	-0.00022257835
0	0.5756982	0.5756964	-1.2453012e-10	0.00954593	0.009545929	0	94038.15	94037.84	-2.0775624e-05	666970.2	139006.02	-0.00014467593	139007.28	666968.8	-2.374169e-05
0	0.57503605	0.5750342	-2.83023e-11	0.009192377	0.009192377	0	93929.99	93929.695	-3.462604e-06	667167.2	137881.98	-0.00010980532	137883.23	667165.9	7.71605e-05
0	0.57436734	0.57436544	-8.094458e-10	0.008838854	0.008838854	0	93820.76	93820.445	-0.00013088643	667366.4	136746.56	-0.0006825736	136747.86	667365.06	-0.00043922127
0	0.57369447	0.57369256	-3.962322e-11	0.0084852865	0.0084852865	0	93710.84	93710.53	-4.1551248e-06	667565.44	135605.52	-0.0001038699	135606.83	667564.06	6.528965e-05
0	0.573016	0.573014	-3.396276e-10	0.00813174	0.00813174	0	93600.02	93599.7	-5.470914e-05	667766.44	134454.56	-0.00028490028	134455.92	667765.06	-0.00019586894
0	0.5723353	0.5723333	-2.264184e-10	0.007778168	0.007778168	0	93488.83	93488.51	-3.67036e-05	667962.8	133305.23	-0.00019586894	133306.61	667961.44	-9.496676e-05
0	0.57164836	0.57164633	-3.4528808e-10	0.0074246046	0.0074246037	0	93376.62	93376.28	-5.4016622e-05	668161.2	132145.05	-0.00025373933	132146.42	668159.8	-0.0002107075
0	0.5709548	0.5709528	-3.7359035e-10	0.007071064	0.007071064	0	93263.33	93263.01	-6.1634346e-05	668361.8	130973.55	-0.00034981896	130974.98	668360.3	-0.00019586894
0	0.57025826	0.57025623	-3.396276e-10	0.006717515	0.006717515	0	93149.555	93149.22	-5.6094184e-05	668559.94	129800.29	-0.0002611586	129801.734	668558.44	-0.00019586894