//mumax 3.10 [windows_amd64 go1.11.6(gc) CUDA-11.0]
//GPU info: NVIDIA GeForce RTX 3090(24575MB), CUDA Driver 12.1, cc=8.6, using cc=80 PTX
//(c) Arne Vansteenkiste, Dynamat LAB, Ghent University, Belgium
//This is free software without any warranty. See license.txt
//********************************************************************//
//  If you use mumax in any work or publication,                      //
//  we kindly ask you to cite the references in references.bib        //
//********************************************************************//
//output directory: r1;p0.5;a5.12e-07;l2.3000000000000002e-07;s5.out/
randSeed(5)
ThermSeed(5)
resolution := 2e-09
zResolution := 5e-09
a := 5.12e-07
gridSize := 512
gridDepth := 5
SetCellsize(resolution, resolution, zResolution)
SetGridsize(gridSize, gridSize, gridDepth)
SetPBC(16, 16, 0)
//resizing...
Msat = 700e3
Aex = 13e-12
alpha = 0.2
Bmax := 0.1
Bstep := Bmax / 500.0
TableAdd(B_ext)
TableAdd(m_full)
islandWidth := 8e-08
islandLength := 2.3000000000000002e-07
ellipseConstant := 5.7500000000000005e-08
hIsland := Universe().Inverse()
vIsland := Universe().Inverse()
vIslands := Universe().Inverse()
hIslands := Universe().Inverse()
hIsland = rect(islandLength-2*ellipseConstant, islandWidth)
hIsland = hIsland.add(ellipse(ellipseConstant*2, islandWidth).transl(islandLength/2-ellipseConstant, 0, 0))
hIsland = hIsland.add(ellipse(ellipseConstant*2, islandWidth).transl(-islandLength/2+ellipseConstant, 0, 0))
hIsland = hIsland.add(rect(5.61452892484641e-09, 1.2653927501772533e-10).transl(-1.0682800593250056e-07, -2.055411248411642e-08, 0))
hIsland = hIsland.sub(rect(9.016404103008194e-09, -1.3292514672673769e-09).transl(-3.678323860557626e-08, -4e-08, 0))
hIsland = hIsland.add(rect(7.112564124505883e-09, 2.918740712428648e-09).transl(1.0572655897058328e-07, -2.178234602477028e-08, 0))
hIsland = hIsland.add(rect(9.185717238416476e-09, 2.9258707146197967e-09).transl(6.823713825781759e-08, -3.929642928795463e-08, 0))
hIsland = hIsland.sub(rect(6.259576658607202e-09, -9.990620931810937e-11).transl(-1.1144910654648408e-08, -4e-08, 0))
hIsland = hIsland.sub(rect(6.725254823492867e-09, -2.376532266900296e-10).transl(5.0103703866171674e-08, -4e-08, 0))
hIsland = hIsland.add(rect(5.44213024793403e-09, 8.792590308432167e-10).transl(1.9915176858224482e-08, -4e-08, 0))
hIsland = hIsland.sub(rect(4.280029771302282e-09, -1.0347183942838083e-09).transl(6.87599436788001e-08, -3.922555345260129e-08, 0))
hIsland = hIsland.sub(rect(4.714851424218729e-09, -2.335658114644975e-09).transl(5.748138338106466e-08, -4e-08, 0))
hIsland = hIsland.add(rect(5.825334603912893e-09, 1.7302680874791863e-09).transl(5.8424685922727614e-08, -3.99948273763658e-08, 0))
hIsland = hIsland.add(rect(9.925034179285236e-09, 1.3920305867637249e-09).transl(-1.742504696004507e-08, -4e-08, 0))
hIsland = hIsland.add(rect(3.1858760604812073e-09, 1.785104822907322e-10).transl(6.658808533057243e-08, -3.9497220990184305e-08, 0))
hIsland = hIsland.sub(rect(7.802394394814773e-09, -1.612344003284181e-09).transl(-1.0551671114826503e-07, -2.200555159929241e-08, 0))
hIsland = hIsland.add(rect(6.999345214509319e-09, 1.6989787695662494e-09).transl(5.2801944608103595e-08, -4e-08, 0))
hIsland = hIsland.sub(rect(4.269587871117905e-09, -1.8798536470370416e-10).transl(-1.8279903535553053e-08, -4e-08, 0))
hIsland = hIsland.add(rect(3.859805937907066e-09, 4.603204379151066e-09).transl(-7.999206384855785e-08, -3.6812800034654814e-08, 0))
hIsland = hIsland.add(rect(5.935151021171791e-09, 1.5223608223808994e-09).transl(6.609313939060224e-08, -3.9550796143538206e-08, 0))
hIsland = hIsland.add(rect(9.341978828209097e-09, 9.179855672266094e-10).transl(-1.0447882402136343e-07, -2.3064201672257468e-08, 0))
hIsland = hIsland.add(rect(3.8652589307456474e-09, 6.816084974324333e-10).transl(-6.899747624529473e-09, -4e-08, 0))
hIsland = hIsland.add(rect(2.4361811857785548e-09, 1.2816694867705802e-09).transl(3.792160853524885e-08, -4e-08, 0))
hIsland = hIsland.sub(rect(9.617207571666567e-09, -1.3486189435061422e-09).transl(-8.083640921608182e-08, -3.655757747964344e-08, 0))
hIsland = hIsland.sub(rect(7.148593022917813e-09, -1.4083207918583106e-09).transl(9.89997512769799e-08, -2.7686787361937294e-08, 0))
hIsland = hIsland.add(rect(2.2180889453040545e-09, 8.960723072409837e-10).transl(-8.500502665975629e-08, -3.5126808308360815e-08, 0))
hIsland = hIsland.sub(rect(6.45129125748196e-09, -1.0766898155263886e-10).transl(9.454320413956022e-08, -3.0593284872091874e-08, 0))
hIsland = hIsland.add(rect(4.7445233237542076e-09, 8.273015036157121e-10).transl(-1.0236535877984087e-07, -2.501785724726575e-08, 0))
hIsland = hIsland.add(rect(7.038118065020913e-09, 2.628344985061903e-09).transl(1.067089362094653e-07, -2.0691771323471017e-08, 0))
hIsland = hIsland.add(rect(5.320024563204141e-09, 2.816543106771846e-09).transl(-7.462510467804508e-08, -3.818478309583276e-08, 0))
hIsland = hIsland.add(rect(5.876854997121198e-09, 1.3093535516070454e-09).transl(-1.5946692593413096e-08, -4e-08, 0))
hIsland = hIsland.sub(rect(5.5127202556036925e-09, -3.3438308146654733e-09).transl(-6.998031558000224e-08, -3.904642869393472e-08, 0))
hIsland = hIsland.add(rect(2.823468290773675e-09, 9.485970006262612e-10).transl(-8.85996361196378e-09, -4e-08, 0))
hIsland = hIsland.add(rect(7.225574552852282e-09, 3.5713232604152696e-09).transl(-1.5349601500588951e-09, -4e-08, 0))
hIsland = hIsland.sub(rect(3.6193143766673634e-09, -1.177427523744919e-09).transl(-6.739228579094787e-08, -3.94036003111778e-08, 0))
hIsland = hIsland.add(rect(5.846609739353564e-09, 2.54586886373806e-09).transl(6.154643098192648e-08, -3.990083069417257e-08, 0))
hIsland = hIsland.add(rect(4.00067893940649e-09, 4.663721007042807e-09).transl(-9.844331876430387e-08, -2.808483738245158e-08, 0))
hIsland = hIsland.add(rect(3.2373375757638504e-09, 5.994084681224883e-09).transl(3.864907518175892e-08, -4e-08, 0))
hIsland = hIsland.add(rect(4.526257246781707e-09, 1.2130505640415866e-09).transl(5.653357914685042e-08, -4e-08, 0))
hIsland = hIsland.sub(rect(3.3609142222425953e-09, -4.348279728747919e-09).transl(5.5200183545706634e-09, -4e-08, 0))
hIsland = hIsland.add(rect(6.193848714757471e-09, 4.706227545300136e-10).transl(-9.548044415912867e-08, -3.003200499913092e-08, 0))
hIsland = hIsland.add(rect(2.979740364063752e-09, 1.537546908395527e-10).transl(-5.225088616863385e-08, -4e-08, 0))
hIsland = hIsland.add(rect(9.559115617948066e-09, 2.641937252696257e-09).transl(-6.718778465528785e-08, -3.942818093653495e-08, 0))
hIsland = hIsland.sub(rect(4.238344282242615e-09, -1.2865865461360856e-09).transl(3.6413843994910114e-08, -4e-08, 0))
hIsland = hIsland.add(rect(9.058877550122937e-09, 1.5635088393089743e-09).transl(1.1243217043199294e-07, -1.182008341999256e-08, 0))
hIsland = hIsland.sub(rect(7.52209412201286e-09, -3.3473867648002515e-09).transl(-1.1054650000554315e-07, -1.5435310604162606e-08, 0))
hIsland = hIsland.sub(rect(8.992076182298317e-09, -1.1451184004247851e-09).transl(-3.2338766987344426e-08, -4e-08, 0))
hIsland = hIsland.sub(rect(9.557653355436352e-09, -1.729768120444396e-10).transl(3.805513778066437e-08, -4e-08, 0))
hIsland = hIsland.sub(rect(3.8120160433774884e-09, -9.699876603829637e-10).transl(1.1484782052198766e-07, -2.9082488877470925e-09, 0))
hIsland = hIsland.add(rect(5.92097947643674e-09, 4.156741915671006e-09).transl(-1.105218906154085e-07, -1.5476175579201115e-08, 0))
hIsland = hIsland.sub(rect(5.334950440789402e-09, -1.7017530972488252e-09).transl(1.1466043161505976e-07, -4.3407278449595475e-09, 0))
hIsland = hIsland.sub(rect(5.684655662317425e-09, -1.7270284590666536e-09).transl(-5.98498775447276e-08, -3.996658309559545e-08, 0))
hIsland = hIsland.add(rect(9.68241152550683e-09, 2.348314497108672e-09).transl(-1.0629194512871373e-07, -2.116425095068044e-08, 0))
hIsland = hIsland.sub(rect(2.556801793260326e-09, -1.2099287043157309e-09).transl(-1.1062183641821235e-07, -1.5309414110952397e-08, 0))
hIsland = hIsland.add(rect(6.944173608912903e-09, 3.6423723625183728e-09).transl(1.2136335207104077e-08, -4e-08, 0))
hIsland = hIsland.sub(rect(2.958113998785533e-09, -1.483058851894897e-09).transl(-1.8286276692143276e-08, -4e-08, 0))
hIsland = hIsland.sub(rect(3.6914330287187733e-09, -1.3532046168270207e-09).transl(2.8937109653114854e-08, -4e-08, 0))
hIsland = hIsland.add(rect(9.069670193895229e-09, 4.925664554204268e-10).transl(-1.894238291542393e-08, -4e-08, 0))
hIsland = hIsland.add(rect(3.091363882521023e-09, 8.117879750846076e-11).transl(-1.1134858780534372e-07, -1.4027004430407709e-08, 0))
hIsland = hIsland.sub(rect(6.111874551058558e-09, -6.848658063673545e-10).transl(5.8072592997971435e-08, -3.999801666014477e-08, 0))
hIsland = hIsland.add(rect(5.065253388296838e-09, 2.927294701273651e-09).transl(1.138241325370429e-07, -8.048010010242344e-09, 0))
hIsland = hIsland.sub(rect(5.44793358082677e-09, -1.2509711946974673e-09).transl(-1.0019019896272228e-07, -2.6796580545541923e-08, 0))
hIsland = hIsland.sub(rect(6.742801601426022e-09, -3.8134031480292805e-10).transl(2.166240844515054e-09, -4e-08, 0))
hIsland = hIsland.add(rect(4.914884905541719e-09, 5.748283940342816e-10).transl(8.409469396472943e-08, -3.5464428696053834e-08, 0))
hIsland = hIsland.sub(rect(7.884173683296995e-09, -1.7345612130871632e-09).transl(9.580251153635037e-08, -2.9833403468243836e-08, 0))
hIsland = hIsland.add(rect(3.939111270936932e-09, 1.441980665064671e-09).transl(-6.044715613438058e-08, -3.994742417375124e-08, 0))
hIsland = hIsland.add(rect(5.444375654693495e-09, 3.147015444627914e-10).transl(-2.7086164029172418e-08, -4e-08, 0))
hIsland = hIsland.add(rect(2.764448564717144e-09, 4.090295357997151e-10).transl(-9.073613587350772e-08, -3.2640910860175006e-08, 0))
hIsland = hIsland.sub(rect(4.211807151856336e-09, -2.442062675243435e-10).transl(2.7971192063215963e-08, -4e-08, 0))
hIsland = hIsland.add(rect(6.4273838341315385e-09, 6.079563251198191e-10).transl(9.753007071949468e-08, -2.8714878940137022e-08, 0))
hIsland = hIsland.sub(rect(4.558778570677119e-09, -2.2159682135552717e-09).transl(-2.1496157206103097e-08, -4e-08, 0))
hIsland = hIsland.sub(rect(4.902843620581636e-09, -9.66489591177124e-10).transl(-4.5759168762952546e-08, -4e-08, 0))
hIsland = hIsland.sub(rect(5.5290423444215e-09, -5.575562303217995e-10).transl(-6.815593736409351e-09, -4e-08, 0))
hIsland = hIsland.add(rect(8.70789313028184e-09, 2.883898048626795e-09).transl(7.512004786462877e-08, -3.807565550504694e-08, 0))
hIsland = hIsland.sub(rect(8.96981720072377e-09, -3.872056669459385e-09).transl(-8.027820469598542e-08, -3.6727558456731826e-08, 0))
hIsland = hIsland.sub(rect(6.983394517757596e-09, -2.7477969892500776e-09).transl(5.738325871121541e-08, -4e-08, 0))
hIsland = hIsland.sub(rect(5.192050453793449e-09, -2.0562079690165663e-09).transl(-6.115529650739781e-08, -3.991909432928955e-08, 0))
hIsland = hIsland.add(rect(5.8198322826269155e-09, 9.869156734253837e-10).transl(-1.0612230375795316e-08, -4e-08, 0))
hIsland = hIsland.sub(rect(2.98829113008319e-09, -9.084724188619005e-10).transl(1.0165447029735383e-07, -2.562260582965854e-08, 0))
hIsland = hIsland.sub(rect(5.494378067425834e-09, -3.4608342816256407e-09).transl(-1.140620040422997e-08, -4e-08, 0))
hIsland = hIsland.add(rect(8.917053878253071e-09, 1.5575418831579641e-09).transl(-4.711779304986318e-08, -4e-08, 0))
hIsland = hIsland.add(rect(3.882939721035775e-09, 3.0155385427507443e-09).transl(-1.0283817427706959e-07, -2.460190365729939e-08, 0))
hIsland = hIsland.add(rect(7.57070162083399e-09, 4.387447964781907e-09).transl(-2.1072581918639083e-08, -4e-08, 0))
hIsland = hIsland.add(rect(9.025452966344456e-09, 3.0206138678862583e-09).transl(1.0053646652900825e-07, -2.6527184489689906e-08, 0))
hIsland = hIsland.add(rect(8.865206944699325e-09, 1.6533340197516583e-09).transl(5.44249088212581e-08, -4e-08, 0))
hIsland = hIsland.sub(rect(5.2403476001180594e-09, -8.788799324649869e-10).transl(-4.898109146032338e-09, -4e-08, 0))
hIsland = hIsland.add(rect(6.832239828187571e-09, 1.0499966281784198e-09).transl(6.463614273875115e-08, -3.969075448389442e-08, 0))
hIsland = hIsland.sub(rect(5.617821100261529e-09, -3.777072442216204e-09).transl(-4.091540502660542e-08, -4e-08, 0))
hIsland = hIsland.add(rect(8.880257044034836e-09, 3.3308439677189892e-09).transl(1.0100805008454818e-08, -4e-08, 0))
hIsland = hIsland.add(rect(3.150127694065032e-09, 1.8477334910409642e-09).transl(-4.632404034154961e-08, -4e-08, 0))
hIsland = hIsland.add(rect(6.774314381191595e-09, 3.544291409966505e-09).transl(-6.999798632144766e-08, -3.904369338821048e-08, 0))
hIsland = hIsland.add(rect(9.108985455532583e-09, 2.835351482492732e-09).transl(-7.763360025743986e-08, -3.7467752082935155e-08, 0))
hIsland = hIsland.sub(rect(4.236897931477368e-09, -1.2414691682855475e-09).transl(-2.8410363961133666e-08, -4e-08, 0))
hIsland = hIsland.add(rect(4.726783780485305e-09, 2.130829870110242e-09).transl(9.543197670233841e-08, -3.006163412656125e-08, 0))
hIsland = hIsland.sub(rect(2.0735772538652075e-09, -3.230304592716184e-10).transl(7.762008945421613e-08, -3.7471264152981506e-08, 0))
hIsland = hIsland.sub(rect(8.030421426462055e-09, -4.008306886654702e-09).transl(-1.0645214469461585e-07, -2.0984466648139223e-08, 0))
hIsland = hIsland.add(rect(4.356122525969013e-09, 4.368629191353327e-09).transl(-8.432566291250633e-08, -3.5380146066596606e-08, 0))
hIsland = hIsland.add(rect(7.526475110416904e-09, 1.0257498020764974e-09).transl(6.256907117876027e-08, -3.9844261005407766e-08, 0))
hIsland = hIsland.sub(rect(4.837136584440686e-09, -7.698257678734466e-10).transl(2.6232815734389726e-08, -4e-08, 0))
hIsland = hIsland.sub(rect(9.852316816475065e-09, -3.4520404274124546e-09).transl(-7.369724461472324e-08, -3.838020451888248e-08, 0))
hIsland = hIsland.add(rect(9.607592159955033e-09, 3.2635506613964997e-09).transl(-6.353276775997771e-08, -3.977923631625521e-08, 0))
hIsland = hIsland.add(rect(5.910856719530706e-09, 3.1519624383109266e-09).transl(-2.5113788595341535e-08, -4e-08, 0))
hIsland = hIsland.add(rect(2.211979113316536e-09, 2.6161970398610078e-09).transl(9.284120690618577e-08, -3.1552631583874676e-08, 0))
hIsland = hIsland.add(rect(5.238605507758851e-09, 5.560596194273839e-10).transl(-7.945431675497047e-08, -3.696956398535912e-08, 0))
hIsland = hIsland.add(rect(2.114600936630003e-09, 1.7526901663728438e-09).transl(5.758172020782727e-08, -3.999995960259666e-08, 0))
hIsland = hIsland.sub(rect(4.898149831048564e-09, -2.483134544876218e-10).transl(-2.7766299620350835e-08, -4e-08, 0))
hIsland = hIsland.sub(rect(4.085411064274093e-09, -1.6804157351339358e-09).transl(1.8986439486889295e-08, -4e-08, 0))
hIsland = hIsland.add(rect(6.461827165169215e-09, 3.000778758365706e-10).transl(2.312591205297089e-08, -4e-08, 0))
hIsland = hIsland.sub(rect(7.771520167289936e-09, -3.3406737378124393e-09).transl(6.764361599620559e-09, -4e-08, 0))
hIsland = hIsland.add(rect(9.495866622989927e-09, 3.48876685414979e-11).transl(-1.1280790862589292e-07, -1.0939343185707591e-08, 0))
hIsland = hIsland.add(rect(8.986130277023333e-09, 1.2338320202994518e-09).transl(-4.447054179935696e-09, -4e-08, 0))
hIsland = hIsland.sub(rect(9.248029707039933e-09, -6.793325265828282e-10).transl(1.930992530484496e-08, -4e-08, 0))
hIsland = hIsland.sub(rect(9.154353670145087e-09, -3.954872736497737e-09).transl(7.240442830692634e-08, -3.863286680490059e-08, 0))
hIsland = hIsland.sub(rect(8.98568047938737e-09, -1.8799266795522094e-10).transl(3.023424753050023e-08, -4e-08, 0))
hIsland = hIsland.add(rect(9.517714496516689e-09, 3.3927785578469586e-09).transl(3.755286766153677e-09, -4e-08, 0))
hIsland = hIsland.sub(rect(3.2657851885481277e-09, -1.749947505749489e-09).transl(-3.821236136467128e-08, -4e-08, 0))
hIsland = hIsland.sub(rect(4.302760257558451e-09, -3.620840016938373e-09).transl(-8.689115203736632e-08, -3.437964972012174e-08, 0))
hIsland = hIsland.sub(rect(8.43099074414796e-09, -2.7350157882848943e-09).transl(-4.954092187706324e-08, -4e-08, 0))
hIsland = hIsland.sub(rect(2.8447170561681088e-09, -4.148576943893407e-10).transl(-1.1307694791723172e-07, -1.0258283776299305e-08, 0))
hIsland = hIsland.sub(rect(6.3422349483593545e-09, -2.8350148286930455e-09).transl(9.81936056783897e-08, -2.8259926304134107e-08, 0))
hIsland = hIsland.sub(rect(3.907131576535143e-09, -2.258862398589156e-09).transl(4.50135708587412e-08, -4e-08, 0))
hIsland = hIsland.sub(rect(9.587286933929384e-09, -3.216092675811054e-11).transl(1.929612465799731e-08, -4e-08, 0))
hIsland = hIsland.sub(rect(6.302127582153989e-09, -1.5047312889507811e-09).transl(-8.716889585203965e-09, -4e-08, 0))
hIsland = hIsland.sub(rect(4.561852621105636e-09, -1.7093046566882471e-09).transl(-5.002611881890701e-08, -4e-08, 0))
hIsland = hIsland.sub(rect(7.543110379939855e-09, -1.5944443387881072e-09).transl(-1.1279334522367164e-07, -1.0974912906443162e-08, 0))
hIsland = hIsland.sub(rect(7.805449170782714e-09, -1.8597199476772818e-10).transl(-6.592572963912258e-08, -3.95682228312019e-08, 0))
hIsland = hIsland.sub(rect(3.754348602402847e-09, -3.219055015618483e-09).transl(-9.728755837529145e-08, -2.887752806711958e-08, 0))
hIsland = hIsland.add(rect(5.031705721676949e-09, 4.23111535527446e-09).transl(-1.0884316565781008e-07, -1.800824801052178e-08, 0))
hIsland = hIsland.add(rect(6.115314218037082e-09, 1.8805511680740805e-09).transl(6.491819766131152e-08, -3.9665720605617396e-08, 0))
hIsland = hIsland.add(rect(3.2569822911533087e-09, 1.595780201838271e-09).transl(3.8091472349981796e-08, -4e-08, 0))
hIsland = hIsland.add(rect(3.5823300558846357e-09, 1.2851644890045906e-09).transl(3.660514694565501e-08, -4e-08, 0))
hIsland = hIsland.sub(rect(6.088665794922656e-09, -2.890357058575384e-09).transl(-6.947640307627326e-08, -3.9122724770742996e-08, 0))
hIsland = hIsland.sub(rect(2.3193380017524518e-09, -8.528145157470113e-10).transl(7.609312119411778e-08, -3.785105962589398e-08, 0))
hIsland = hIsland.add(rect(3.721536404541364e-09, 3.8860236257494386e-09).transl(-7.98934963015922e-08, -3.684186866777816e-08, 0))
hIsland = hIsland.sub(rect(8.7712704061695e-09, -3.625660861292776e-09).transl(5.984203334291679e-08, -3.9966805915805965e-08, 0))
hIsland = hIsland.sub(rect(3.5891006716047757e-09, -1.5465258797854276e-09).transl(-8.267006462881315e-08, -3.596405916279068e-08, 0))
hIsland = hIsland.sub(rect(7.965125217516571e-09, -1.1765514568335068e-09).transl(-1.814907107956251e-08, -4e-08, 0))
hIsland = hIsland.sub(rect(6.491403780544645e-09, -1.7353678869960786e-09).transl(8.517490441968253e-08, -3.5062178480477206e-08, 0))
hIsland = hIsland.sub(rect(6.680029658144966e-09, -4.19998955384582e-09).transl(-3.348899477625282e-08, -4e-08, 0))
hIsland = hIsland.sub(rect(3.815290087398255e-09, -1.8847740278363018e-09).transl(8.743807374966317e-08, -3.4150512108598997e-08, 0))
hIsland = hIsland.sub(rect(8.520341262159871e-09, -4.278376271631098e-10).transl(5.891709836235546e-08, -3.9987850448126155e-08, 0))
hIsland = hIsland.add(rect(3.908730820031755e-09, 9.727451999472963e-10).transl(1.0808437598125833e-07, -1.9019070723950625e-08, 0))
hIsland = hIsland.add(rect(2.242914130302909e-09, 1.2501108841968786e-09).transl(1.9893351738448757e-08, -4e-08, 0))
hIsland = hIsland.sub(rect(3.413024643379961e-09, -2.2900785542106045e-09).transl(9.77116700962097e-08, -2.8591825558127452e-08, 0))
hIsland = hIsland.add(rect(5.745686149436556e-09, 1.697439652697892e-09).transl(-9.926763793786423e-08, -2.7491153132708202e-08, 0))
hIsland = hIsland.add(rect(7.310245590818602e-09, 2.7612974203969475e-09).transl(-8.286686968247079e-08, -3.5897080676075486e-08, 0))
hIsland = hIsland.sub(rect(4.334619971201347e-09, -2.050477410613954e-09).transl(1.3057675310983351e-08, -4e-08, 0))
hIsland = hIsland.sub(rect(7.525099110296441e-09, -7.69543254363461e-10).transl(4.018466788913384e-08, -4e-08, 0))
hIsland = hIsland.add(rect(3.6986343063395666e-09, 2.6749179699611506e-09).transl(1.0532955092494427e-07, -2.2201922587837154e-08, 0))
hIsland = hIsland.add(rect(9.131108930443128e-09, 9.139574138729278e-10).transl(-3.990987586470351e-08, -4e-08, 0))
hIsland = hIsland.add(rect(5.718693419654885e-09, 1.6772519908976652e-10).transl(1.1156796627376369e-07, -1.3612493281266303e-08, 0))
hIsland = hIsland.add(rect(6.473495823411168e-09, 6.494331861388453e-09).transl(-1.770275431579542e-08, -4e-08, 0))
hIsland = hIsland.sub(rect(7.055552882432756e-09, -2.646623893914364e-09).transl(5.775909565023724e-08, -3.999959391518045e-08, 0))
hIsland = hIsland.add(rect(5.094546039828447e-09, 6.022882150611513e-10).transl(-1.0855224144381846e-07, -1.8404156920911767e-08, 0))
hIsland = hIsland.add(rect(5.574508548471741e-09, 5.301524702166065e-10).transl(8.135404281411205e-08, -3.6395539419149886e-08, 0))
hIsland = hIsland.add(rect(2.8136683500323967e-09, 1.0597605226304105e-09).transl(-4.9936437834874386e-08, -4e-08, 0))
hIsland = hIsland.sub(rect(6.126055713078932e-09, -9.482973551531567e-10).transl(5.038260444684993e-08, -4e-08, 0))
hIsland = hIsland.add(rect(7.018188600976676e-09, 2.5869405589327804e-09).transl(-5.243818139048786e-08, -4e-08, 0))
hIsland = hIsland.sub(rect(7.580906120839722e-09, -7.611153962399232e-10).transl(4.453774338804704e-09, -4e-08, 0))
hIsland = hIsland.sub(rect(8.904363760265607e-09, -2.1771239505348914e-09).transl(-4.7530662435334326e-08, -4e-08, 0))
hIsland = hIsland.add(rect(2.244305396822795e-09, 3.1665771596352017e-10).transl(7.070839992835633e-08, -3.8930352522981354e-08, 0))
hIsland = hIsland.add(rect(6.3603646210554846e-09, 8.254310371637436e-10).transl(-5.370702368071522e-08, -4e-08, 0))
hIsland = hIsland.sub(rect(2.009960535360472e-09, -4.142620241200269e-09).transl(-3.2103496132647946e-08, -4e-08, 0))
hIsland = hIsland.sub(rect(6.27697681465225e-09, -1.929043561295914e-09).transl(-6.1802439812891925e-09, -4e-08, 0))
hIsland = hIsland.sub(rect(5.225384030426718e-09, -9.708221817847906e-10).transl(-1.07771222373912e-07, -1.9416725171325076e-08, 0))
hIsland = hIsland.add(rect(7.908186416203471e-09, 3.689362953376802e-09).transl(-3.07612810696456e-08, -4e-08, 0))
hIsland = hIsland.add(rect(8.736788459833995e-09, 3.1378908770190938e-09).transl(-1.0159323895346537e-07, -2.567358308221155e-08, 0))
hIsland = hIsland.add(rect(4.734625392576142e-09, 3.1828744159925544e-09).transl(-1.571471942538396e-08, -4e-08, 0))
hIsland = hIsland.sub(rect(2.9974994157563045e-09, -1.7338456787226918e-09).transl(-8.302588087055744e-08, -3.584249117579046e-08, 0))
hIsland = hIsland.sub(rect(4.233539014963149e-09, -1.4706177375131173e-10).transl(8.017745479123195e-08, -3.675771743133575e-08, 0))
hIsland = hIsland.sub(rect(5.393733609907085e-09, -2.3354954544519153e-09).transl(5.434914295459789e-08, -4e-08, 0))
hIsland = hIsland.sub(rect(6.871318251532346e-09, -1.085025390288319e-09).transl(4.275407416164953e-08, -4e-08, 0))
hIsland = hIsland.sub(rect(7.426120843140806e-09, -1.8993433570164423e-10).transl(8.917570067841796e-08, -3.3383332284081895e-08, 0))
hIsland = hIsland.add(rect(5.749595863439539e-09, 3.08905574686602e-09).transl(-1.0141708065490192e-07, -2.5819287893207205e-08, 0))
hIsland = hIsland.sub(rect(2.375888617750573e-09, -1.6496375882803737e-09).transl(1.1378773892015131e-07, -8.170299212435442e-09, 0))
hIsland = hIsland.add(rect(9.63110907231979e-09, 2.22740321959898e-09).transl(9.625550420191324e-08, -2.954893377911339e-08, 0))
hIsland = hIsland.add(rect(4.127589258077388e-09, 4.574627433725654e-09).transl(-2.5091206783064704e-09, -4e-08, 0))
hIsland = hIsland.add(rect(7.518560923530044e-09, 2.698168540096072e-09).transl(4.5458228370368454e-08, -4e-08, 0))
hIsland = hIsland.add(rect(2.3681332969915065e-09, 1.35223742132401e-09).transl(-5.7659524262714695e-08, -3.9999846061009525e-08, 0))
hIsland = hIsland.sub(rect(3.151827334984102e-09, -5.647167178111457e-10).transl(-1.0045514625689793e-07, -2.659089291391327e-08, 0))
hIsland = hIsland.sub(rect(9.980725761242607e-09, -7.959863590651007e-10).transl(-7.603184066489996e-08, -3.78656001938174e-08, 0))
hIsland = hIsland.add(rect(2.22222051188281e-09, 1.461549941971267e-09).transl(1.6153274095329654e-08, -4e-08, 0))
hIsland = hIsland.add(rect(4.266721158784257e-09, 1.3712597350319267e-09).transl(-1.0315708575547257e-07, -2.431481509069384e-08, 0))
hIsland = hIsland.add(rect(4.145447492823897e-09, 5.365765592065998e-10).transl(8.94115031439461e-08, -3.327447654537486e-08, 0))
hIsland = hIsland.add(rect(3.737470876672245e-09, 8.83991643637354e-10).transl(-9.242454367682871e-09, -4e-08, 0))
hIsland = hIsland.sub(rect(6.475481748072492e-09, -1.7914097887569918e-11).transl(1.0979319354975098e-08, -4e-08, 0))
hIsland = hIsland.add(rect(8.367787089262326e-09, 1.470908086598385e-09).transl(-5.254588790330692e-08, -4e-08, 0))
hIsland = hIsland.add(rect(3.2612588089249723e-09, 4.547284800175641e-09).transl(-2.582747398818501e-09, -4e-08, 0))
hIsland = hIsland.sub(rect(8.37748970025455e-09, -3.0020826849299112e-09).transl(-2.8529130235013604e-08, -4e-08, 0))
hIsland = hIsland.sub(rect(2.01557376858636e-09, -2.905370545564549e-09).transl(3.524616770017683e-08, -4e-08, 0))
hIsland = hIsland.add(rect(6.033346185987587e-09, 1.797587656663727e-09).transl(2.8904488685414325e-08, -4e-08, 0))
hIsland = hIsland.sub(rect(9.718688665632747e-09, -1.1667941100436724e-09).transl(-9.068190232713983e-08, -3.2667602087611805e-08, 0))
hIsland = hIsland.add(rect(8.01800148347135e-09, 2.942717889981226e-09).transl(4.345322841868589e-08, -4e-08, 0))
hIsland = hIsland.add(rect(5.030280784398209e-09, 1.6886585641439474e-09).transl(-5.965974598294234e-08, -3.99717737675104e-08, 0))
hIsland = hIsland.add(rect(5.353783770292829e-09, 2.9227096987976533e-09).transl(-1.1014273407332425e-07, -1.6090369356964184e-08, 0))
hIsland = hIsland.sub(rect(6.944397191778789e-09, -7.242341224228257e-10).transl(1.1319836476653909e-07, -9.934491819299716e-09, 0))
hIsland = hIsland.add(rect(7.031013797364836e-09, 4.194315638387909e-09).transl(9.041706611260219e-08, -3.279700670403576e-08, 0))
hIsland = hIsland.sub(rect(5.99442038890949e-09, -1.4216326282712814e-09).transl(-2.3880262204222817e-09, -4e-08, 0))
hIsland = hIsland.add(rect(5.694183321480548e-09, 2.7133196020818335e-09).transl(3.59199159322284e-08, -4e-08, 0))
hIsland = hIsland.add(rect(6.515921980737058e-09, 1.3558272915106102e-09).transl(2.882174872845599e-08, -4e-08, 0))
hIsland = hIsland.sub(rect(3.4490959439829968e-09, -1.4596836754402094e-09).transl(6.02054575289245e-09, -4e-08, 0))
hIsland = hIsland.sub(rect(9.375088936673568e-09, -6.680828659272896e-10).transl(-3.895879961843217e-08, -4e-08, 0))
hIsland = hIsland.sub(rect(2.2120191425976775e-09, -2.6224337944423426e-09).transl(-6.834742925718524e-08, -3.928176821840105e-08, 0))
hIsland = hIsland.add(rect(4.509384930210338e-09, 5.739087220157536e-10).transl(1.806311776503179e-08, 4e-08, 0))
hIsland = hIsland.add(rect(2.8125967806202735e-09, 1.3101773496325516e-09).transl(5.5000535236182946e-08, 4e-08, 0))
hIsland = hIsland.sub(rect(9.83352903703524e-09, -1.7065423850371929e-09).transl(8.379884315330072e-08, 3.5571035382857876e-08, 0))
hIsland = hIsland.add(rect(2.6532024654354916e-09, 1.5857828236757188e-10).transl(-1.1161340752602195e-07, 1.3524829524952418e-08, 0))
hIsland = hIsland.add(rect(2.9204151270981306e-09, 9.39577891339111e-10).transl(1.0031186045441997e-07, 2.670248527243812e-08, 0))
hIsland = hIsland.add(rect(9.705150056782433e-09, 2.22934237521706e-10).transl(1.025491423303691e-08, 4e-08, 0))
hIsland = hIsland.sub(rect(3.871247608964057e-09, -2.0370832731134673e-10).transl(-7.080901329212446e-08, 3.89137663835852e-08, 0))
hIsland = hIsland.add(rect(4.524190578139848e-09, 1.215709435162326e-09).transl(1.0016117517005737e-07, 2.6818939858157336e-08, 0))
hIsland = hIsland.sub(rect(2.49070916191893e-09, -9.154216801462728e-10).transl(-7.961312787532456e-08, 3.6923731011462146e-08, 0))
hIsland = hIsland.add(rect(2.4891579825289213e-09, 5.779170883241624e-09).transl(-4.5241006218232014e-08, 4e-08, 0))
hIsland = hIsland.add(rect(7.231840841665696e-09, 1.840703020603516e-09).transl(-8.4103750684544e-08, 3.546114130532554e-08, 0))
hIsland = hIsland.add(rect(3.2143588790760815e-09, 4.59982846535441e-10).transl(1.0423904913738359e-07, 2.329875375540971e-08, 0))
hIsland = hIsland.add(rect(5.439163742671106e-09, 5.561645578162086e-10).transl(8.998728158183989e-08, 3.300374020930936e-08, 0))
hIsland = hIsland.sub(rect(5.115746712139312e-09, -2.1550205638416144e-09).transl(9.244355719891019e-08, 3.176623736544705e-08, 0))
hIsland = hIsland.add(rect(3.492508156014995e-09, 1.3377694493176567e-09).transl(1.4750019391522331e-08, 4e-08, 0))
hIsland = hIsland.add(rect(8.907455485660703e-09, 4.086354132471707e-10).transl(6.538881404911017e-08, 3.9621752558503055e-08, 0))
hIsland = hIsland.sub(rect(2.8687871044843098e-09, -1.0123285657295627e-10).transl(1.4102991675083457e-09, 4e-08, 0))
hIsland = hIsland.add(rect(8.621586290914433e-09, 1.013546150108158e-09).transl(-1.1145510757316777e-07, 1.3827499920457342e-08, 0))
hIsland = hIsland.sub(rect(8.186054191991122e-09, -8.486253308124739e-10).transl(-8.887567271969949e-08, 3.352016556716395e-08, 0))
hIsland = hIsland.sub(rect(4.671240414636079e-09, -7.851334892201341e-11).transl(-5.983085727330808e-08, 3.996712209104198e-08, 0))
hIsland = hIsland.add(rect(9.420032249729552e-09, 1.686560899695386e-09).transl(6.727899047880056e-10, 4e-08, 0))
hIsland = hIsland.sub(rect(2.4612708603408863e-09, -1.6423928570571824e-09).transl(9.656223546852941e-08, 2.935282696881908e-08, 0))
hIsland = hIsland.add(rect(2.997803362416771e-09, 3.269033141084123e-09).transl(-2.853318570228095e-08, 4e-08, 0))
hIsland = hIsland.add(rect(4.459063210326551e-09, 3.1499749174032497e-10).transl(-5.377846987553984e-08, 4e-08, 0))
hIsland = hIsland.sub(rect(4.444206385849149e-09, -1.4831404855521967e-09).transl(-9.314857657771454e-09, 4e-08, 0))
hIsland = hIsland.add(rect(9.935384792000538e-09, 2.353267691245657e-10).transl(-2.8954108430916157e-08, 4e-08, 0))
hIsland = hIsland.add(rect(5.222878502906148e-09, 2.216276243366342e-09).transl(3.1113840193974884e-08, 4e-08, 0))
hIsland = hIsland.add(rect(5.9226721559512684e-09, 1.7681868445514605e-09).transl(-1.1429646383726263e-07, 6.238091728280744e-09, 0))
hIsland = hIsland.add(rect(8.38506062911566e-09, 1.5973231467740978e-09).transl(-1.0403310148917659e-07, 2.3497401185355992e-08, 0))
hIsland = hIsland.sub(rect(9.960629066218728e-09, -6.331848835177609e-10).transl(3.35918781728577e-08, 4e-08, 0))
hIsland = hIsland.sub(rect(9.747987518868542e-09, -1.7131070993481138e-09).transl(8.872474715060177e-08, 3.358829692942401e-08, 0))
hIsland = hIsland.add(rect(5.604846646567672e-09, 1.063071859262694e-09).transl(-1.9693026169941443e-08, 4e-08, 0))
hIsland = hIsland.add(rect(2.7618057362587908e-09, 1.6772260583903233e-09).transl(-1.9837466189737806e-08, 4e-08, 0))
hIsland = hIsland.sub(rect(6.883049326330554e-09, -2.0722789499871815e-09).transl(4.040736823740204e-08, 4e-08, 0))
hIsland = hIsland.add(rect(3.7533080525029265e-09, 1.5715291246825847e-09).transl(-8.585174486029831e-08, 3.4799498948666696e-08, 0))
hIsland = hIsland.sub(rect(9.986702793293739e-09, -2.399526671168844e-09).transl(9.457510902265216e-08, 3.057457616896501e-08, 0))
hIsland = hIsland.add(rect(8.482893771619367e-09, 3.8352086609776384e-09).transl(4.2980485005246354e-08, 4e-08, 0))
hIsland = hIsland.sub(rect(7.623317497741832e-09, -2.373477045717197e-09).transl(-1.0751735744266563e-08, 4e-08, 0))
hIsland = hIsland.sub(rect(8.660769320912621e-09, -1.4878983489196259e-10).transl(-2.4487317769295636e-10, 4e-08, 0))
hIsland = hIsland.sub(rect(8.642942842856651e-09, -2.3566843493446843e-09).transl(-2.4955872754604686e-08, 4e-08, 0))
hIsland = hIsland.sub(rect(5.451011383656702e-09, -9.502881961115256e-10).transl(1.982055765890101e-08, 4e-08, 0))
hIsland = hIsland.sub(rect(6.920459204887611e-09, -1.818585310448506e-09).transl(7.411746706779435e-08, 3.829317079668239e-08, 0))
hIsland = hIsland.add(rect(7.261697439141785e-09, 5.649433150954234e-10).transl(-4.6990124007526046e-08, 4e-08, 0))
hIsland = hIsland.sub(rect(5.822331460357213e-09, -6.72883239242486e-10).transl(6.391493456761938e-08, 3.9750289683058286e-08, 0))
hIsland = hIsland.add(rect(8.705183093300447e-09, 1.4615679771741294e-10).transl(6.876051220536837e-08, 3.9225474473243595e-08, 0))
hIsland = hIsland.sub(rect(8.02765581652781e-09, -1.4003790213979386e-09).transl(-1.6004651766408984e-08, 4e-08, 0))
hIsland = hIsland.sub(rect(3.0778021523255766e-09, -2.224167948738387e-09).transl(-8.733185951703706e-08, 3.4195462847688284e-08, 0))
hIsland = hIsland.sub(rect(9.528299520861492e-09, -1.3174396962726467e-09).transl(-4.9845955218742464e-08, 4e-08, 0))
hIsland = hIsland.sub(rect(3.3654583356454046e-09, -3.725297041121716e-09).transl(-5.215466886835878e-08, 4e-08, 0))
hIsland = hIsland.sub(rect(9.314470016793276e-09, -4.814820490424321e-11).transl(-1.1147998548521136e-07, 1.3780431782285395e-08, 0))
hIsland = hIsland.sub(rect(9.127078403375783e-09, -1.3944800341312827e-09).transl(-6.969587496777504e-08, 3.908989983224004e-08, 0))
hIsland = hIsland.sub(rect(7.029630365707904e-09, -3.3626913172429683e-10).transl(1.0852529302161811e-07, 1.844028757258526e-08, 0))
hIsland = hIsland.add(rect(9.57267718049727e-09, 4.891019392567639e-09).transl(5.1938612343189184e-08, 4e-08, 0))
hIsland = hIsland.sub(rect(9.80081811704169e-09, -8.13737921927755e-11).transl(1.0169927917908179e-07, 2.5585191558671987e-08, 0))
hIsland = hIsland.add(rect(6.5751558226092e-09, 4.13129709443906e-10).transl(9.881894650943875e-08, 2.7817343490235618e-08, 0))
hIsland = hIsland.sub(rect(2.084130247089904e-09, -1.9885041603556606e-09).transl(-1.9656322253938973e-08, 4e-08, 0))
hIsland = hIsland.add(rect(9.594165406763343e-09, 1.3515216079283192e-09).transl(-1.1732057858820467e-08, 4e-08, 0))
hIsland = hIsland.sub(rect(8.780117517942753e-09, -1.1620910281281075e-09).transl(-1.1003146110506637e-07, 1.6265406952786262e-08, 0))
hIsland = hIsland.sub(rect(6.875108595875676e-09, -3.012459402974334e-09).transl(3.223089257254943e-08, 4e-08, 0))
hIsland = hIsland.sub(rect(9.684899014048375e-09, -3.416813697809426e-10).transl(8.710560040446863e-08, 3.429049030518926e-08, 0))
hIsland = hIsland.sub(rect(7.66681889321693e-09, -2.8275725277878865e-09).transl(1.015747438861794e-07, 2.5688947096568617e-08, 0))
hIsland = hIsland.sub(rect(4.131060671510238e-09, -2.0626823841815308e-09).transl(-3.915230285080149e-08, 4e-08, 0))
hIsland = hIsland.sub(rect(4.55100226042037e-09, -6.858539049530595e-10).transl(-2.4261299513199085e-08, 4e-08, 0))
hIsland = hIsland.sub(rect(2.4197768825239293e-09, -3.453640442317694e-10).transl(-2.45927252130514e-08, 4e-08, 0))
hIsland = hIsland.sub(rect(8.846335051643405e-09, -1.7658617294971668e-09).transl(-4.850325879502288e-08, 4e-08, 0))
hIsland = hIsland.add(rect(2.8343093121035575e-09, 3.6206016454611783e-09).transl(-3.839386770663603e-08, 4e-08, 0))
hIsland = hIsland.add(rect(6.964171857022721e-09, 1.5215300882500905e-09).transl(-8.717997264802468e-08, 3.425936327644423e-08, 0))
hIsland = hIsland.add(rect(8.164753326586366e-09, 1.7398094732979624e-09).transl(-5.050586179159266e-08, 4e-08, 0))
hIsland = hIsland.add(rect(7.941741648210903e-09, 2.947276533209386e-09).transl(-6.321324573140857e-08, 3.980205888848705e-08, 0))
hIsland = hIsland.add(rect(7.749822728649385e-09, 1.305095037411572e-09).transl(1.4511337453192294e-09, 4e-08, 0))
hIsland = hIsland.sub(rect(4.7286583547040454e-09, -2.4714952152417583e-09).transl(-7.389304653808178e-08, 3.833995321065511e-08, 0))
hIsland = hIsland.sub(rect(3.1998444443368615e-09, -3.406735083658799e-09).transl(-1.048664482179591e-07, 2.2677296146089232e-08, 0))
hIsland = hIsland.sub(rect(7.573337954231886e-09, -2.5211852230601135e-10).transl(-3.904247132862483e-08, 4e-08, 0))
hIsland = hIsland.sub(rect(2.567453481877282e-09, -1.8573226671976968e-09).transl(6.146212832702016e-08, 3.990492467428612e-08, 0))
hIsland = hIsland.sub(rect(9.106105701942529e-09, -1.4779370892905028e-09).transl(4.7908921098986296e-08, 4e-08, 0))
hIsland = hIsland.sub(rect(5.956362359904624e-09, -3.3919138065345044e-09).transl(-5.372358305651324e-08, 4e-08, 0))
hIsland = hIsland.sub(rect(4.495355448127173e-09, -1.3302443229443382e-09).transl(-5.260678613906188e-08, 4e-08, 0))
hIsland = hIsland.add(rect(2.3599140182670216e-09, 1.2600930191735353e-09).transl(-1.9823186814116682e-08, 4e-08, 0))
hIsland = hIsland.add(rect(5.436806776282208e-09, 6.800599927645193e-10).transl(1.0849809841163346e-07, 1.847665739077168e-08, 0))
hIsland = hIsland.sub(rect(5.436679562026336e-09, -3.6002495209839833e-10).transl(-3.8888234738346125e-08, 4e-08, 0))
hIsland = hIsland.add(rect(8.032775741256627e-09, 3.031004362816932e-09).transl(1.3690343936297765e-08, 4e-08, 0))
hIsland = hIsland.add(rect(7.954227447574083e-09, 2.5737208259943827e-09).transl(-1.719104885571415e-08, 4e-08, 0))
hIsland = hIsland.add(rect(5.9439859561699905e-09, 3.6139047055032223e-10).transl(8.80663317139907e-08, 3.3880113264599146e-08, 0))
hIsland = hIsland.add(rect(4.883550287665998e-09, 5.630785244822006e-10).transl(-5.778890146505452e-09, 4e-08, 0))
hIsland = hIsland.sub(rect(8.865559638743366e-09, -1.2334931752986174e-09).transl(-5.018031153816575e-08, 4e-08, 0))
hIsland = hIsland.add(rect(6.851669315136245e-09, 2.231388470059782e-10).transl(-3.853907783181366e-08, 4e-08, 0))
hIsland = hIsland.add(rect(2.743717477945273e-09, 1.3422092875277031e-09).transl(-1.1324534507461079e-07, 9.80614219029917e-09, 0))
hIsland = hIsland.sub(rect(3.591136274424236e-09, -3.544733520751241e-09).transl(-8.836239223235186e-08, 3.374997760689017e-08, 0))
hIsland = hIsland.add(rect(3.926992719219517e-09, 1.1710726687096459e-09).transl(-4.466682128600724e-08, 4e-08, 0))
hIsland = hIsland.add(rect(3.346318988766026e-09, 7.770990013853125e-10).transl(1.4442082527932499e-08, 4e-08, 0))
hIsland = hIsland.sub(rect(2.610436302580234e-09, -1.355428348839932e-09).transl(5.1516080169768374e-08, 4e-08, 0))
hIsland = hIsland.sub(rect(4.211013945043819e-09, -1.579318000263355e-09).transl(-5.484270014289828e-08, 4e-08, 0))
hIsland = hIsland.add(rect(8.904413345007886e-09, 1.9849173231479968e-10).transl(1.0034126660537998e-07, 2.6679651916768746e-08, 0))
hIsland = hIsland.add(rect(3.4878223741380224e-09, 2.580991267696635e-09).transl(-7.666042781940013e-08, 3.7713895827980085e-08, 0))
hIsland = hIsland.add(rect(7.035815023342254e-09, 2.8002459460254114e-10).transl(8.63314381011967e-08, 3.4608245936457554e-08, 0))
hIsland = hIsland.sub(rect(4.084022427464423e-09, -2.7494436039931597e-09).transl(-5.044184931229487e-08, 4e-08, 0))
hIsland = hIsland.sub(rect(7.88230747589947e-09, -3.871217693170137e-09).transl(-2.8920895714297366e-09, 4e-08, 0))
hIsland = hIsland.add(rect(4.1731820993618365e-09, 2.4863948454211525e-09).transl(-2.8582006779291057e-08, 4e-08, 0))
hIsland = hIsland.sub(rect(8.266209068072772e-09, -5.789549258801551e-10).transl(5.707552098018084e-08, 4e-08, 0))
hIsland = hIsland.add(rect(8.42831748996886e-09, 3.742263285160788e-09).transl(-9.225599737259386e-08, 3.186565862345213e-08, 0))
hIsland = hIsland.sub(rect(7.412963090807522e-09, -4.4667646463822055e-09).transl(-4.641432770648517e-08, 4e-08, 0))
hIsland = hIsland.add(rect(9.472475104204193e-09, 1.2240941717370262e-09).transl(1.0843793987809153e-07, 1.855679107877956e-08, 0))
hIsland = hIsland.sub(rect(9.605641404826514e-09, -1.4814619859864342e-09).transl(-2.425214946783412e-08, 4e-08, 0))
hIsland = hIsland.add(rect(5.6477859074474875e-09, 1.7789225412590467e-09).transl(6.185145013689025e-08, 3.988529417386891e-08, 0))
hIsland = hIsland.add(rect(8.096992510695352e-09, 7.20447449247798e-10).transl(-2.056882983610828e-08, 4e-08, 0))
hIsland = hIsland.add(rect(7.895301627906095e-09, 1.7869293681252448e-09).transl(-1.2193335226986201e-08, 4e-08, 0))
hIsland = hIsland.add(rect(3.2077782241257426e-09, 2.082376820643549e-09).transl(7.74471801062527e-08, 3.751597420288275e-08, 0))
hIsland = hIsland.add(rect(5.546974998368628e-09, 1.4096025053296783e-09).transl(-6.11466440623881e-08, 3.991947728511173e-08, 0))
hIsland = hIsland.sub(rect(9.04728959832562e-09, -1.5872853753162005e-09).transl(3.875983832213447e-08, 4e-08, 0))
hIsland = hIsland.add(rect(6.904061958889522e-09, 1.8913686385534344e-09).transl(-1.0156582550917583e-07, 2.5696350085493305e-08, 0))
hIsland = hIsland.sub(rect(3.99016166357836e-09, -1.0113752661843363e-09).transl(2.1826744121438477e-08, 4e-08, 0))
hIsland = hIsland.add(rect(3.95188785850662e-09, 3.986354930436115e-09).transl(4.163021431969807e-08, 4e-08, 0))
hIsland = hIsland.add(rect(5.3386783626471944e-09, 1.0864986208428788e-09).transl(6.698551370872046e-08, 3.945197380900344e-08, 0))
hIsland = hIsland.sub(rect(5.876922122367818e-09, -1.742535580232966e-09).transl(4.1453610172836924e-08, 4e-08, 0))
hIsland = hIsland.sub(rect(3.743568579696218e-09, -2.1021178598137034e-09).transl(2.1879663723539623e-08, 4e-08, 0))
hIsland = hIsland.sub(rect(6.763969045629951e-09, -2.638735827077004e-09).transl(-2.0089235444156543e-08, 4e-08, 0))
hIsland = hIsland.sub(rect(4.359552090617712e-09, -3.91609960990413e-09).transl(3.9425316795344144e-08, 4e-08, 0))
hIsland = hIsland.add(rect(3.486905107014016e-09, 6.5131249246696e-09).transl(-2.1519275293091784e-08, 4e-08, 0))
hIsland = hIsland.sub(rect(8.049582922466386e-09, -9.23698517570025e-10).transl(-1.6546306513595893e-08, 4e-08, 0))
hIsland = hIsland.sub(rect(7.702114546099919e-09, -1.5124348669792833e-09).transl(7.338303389784913e-08, 3.844370061684322e-08, 0))
hIsland = hIsland.sub(rect(5.543907280454351e-09, -5.782444112480232e-10).transl(9.374305990297328e-08, 3.105360923078353e-08, 0))
hIsland = hIsland.sub(rect(8.881455617197202e-09, -1.1153828038233297e-09).transl(-8.72247421808283e-08, 3.4240574539167016e-08, 0))
hIsland = hIsland.sub(rect(8.554922333335754e-09, -1.5728327080718427e-09).transl(-5.4055355731720205e-08, 4e-08, 0))
hIsland = hIsland.sub(rect(4.789287326289372e-09, -2.9502036351390534e-09).transl(5.535867596488199e-08, 4e-08, 0))
hIsland = hIsland.add(rect(8.451282946384494e-09, 1.0627369439889116e-09).transl(8.920073523204954e-08, 3.3371830449990424e-08, 0))
hIsland = hIsland.sub(rect(7.266085462285187e-09, -1.4137206036018957e-09).transl(-7.7994794514238e-08, 3.737286273843607e-08, 0))
hIsland = hIsland.sub(rect(6.884277037533015e-09, -7.721981433239213e-11).transl(-8.105156211061703e-08, 3.649074575358537e-08, 0))
hIsland = hIsland.sub(rect(9.373338733081227e-09, -4.444509970581821e-09).transl(7.976943524232384e-08, 3.687824182721267e-08, 0))
hIsland = hIsland.sub(rect(4.470912962875002e-09, -2.7958779114912835e-10).transl(-4.649089973637686e-08, 4e-08, 0))
hIsland = hIsland.sub(rect(6.9589641782465005e-09, -1.1716911804918608e-09).transl(1.1292840532720489e-07, 1.064011047333722e-08, 0))
hIsland = hIsland.add(rect(6.689908793813977e-09, 1.3642990407375769e-09).transl(-5.2087991418744836e-08, 4e-08, 0))
hIsland = hIsland.sub(rect(7.753526460901153e-09, -4.5535323551302085e-10).transl(6.932227592441029e-08, 3.914540415951866e-08, 0))
hIsland = hIsland.add(rect(7.108160540274356e-09, 1.3002418937597414e-09).transl(2.436238318230185e-08, 4e-08, 0))
hIsland = hIsland.add(rect(4.8713746855546395e-09, 2.785484222559084e-10).transl(-6.024564310396948e-08, 3.995437212484399e-08, 0))
hIsland = hIsland.add(rect(4.086419550694791e-09, 5.204068821259448e-10).transl(3.356267152631847e-08, 4e-08, 0))
hIsland = hIsland.sub(rect(9.990836518368104e-09, -8.382948402682571e-10).transl(-3.3232126184316166e-08, 4e-08, 0))
hIsland = hIsland.sub(rect(4.1688635313245286e-09, -1.3644627337486593e-09).transl(6.761672039109238e-08, 3.937601449932687e-08, 0))
hIsland = hIsland.add(rect(7.764324859423684e-09, 9.273780158263822e-10).transl(-4.5925135696532e-08, 4e-08, 0))
hIsland = hIsland.sub(rect(2.3648059974434467e-09, -8.265514408035386e-10).transl(1.0791086667461824e-07, 1.924071953177614e-08, 0))
hIsland = hIsland.sub(rect(6.101519445480757e-09, -1.6849325503311742e-09).transl(1.2688023907242423e-08, 4e-08, 0))
hIsland = hIsland.add(rect(8.217586242365405e-09, 8.279185066221259e-10).transl(-1.1433886642442459e-07, 6.048305153739165e-09, 0))
hIsland = hIsland.sub(rect(4.163059286138363e-09, -2.5472890652060462e-09).transl(-1.7470347794208318e-08, 4e-08, 0))
hIsland = hIsland.sub(rect(3.264905689744546e-09, -9.236908301811515e-10).transl(-1.1251770978718694e-07, 1.1625961114555524e-08, 0))
hIsland = hIsland.add(rect(7.038861133564364e-09, 3.3128468765148014e-09).transl(5.947723033613315e-08, 3.9976344219858384e-08, 0))
hIsland = hIsland.sub(rect(6.628466803584108e-09, -2.609478762681577e-09).transl(9.93847528652649e-08, 2.740478875192522e-08, 0))
hIsland = hIsland.sub(rect(9.01473163470089e-09, -5.482037578507274e-09).transl(6.30767155959138e-08, 3.9811428436067526e-08, 0))
hIsland = hIsland.add(rect(6.620351185651376e-09, 9.690922034744085e-10).transl(-6.438099559730997e-08, 3.9712551436270486e-08, 0))
hIsland = hIsland.sub(rect(7.485623234836328e-09, -8.094402891747187e-10).transl(4.772885927454861e-08, 4e-08, 0))
hIsland = hIsland.add(rect(4.447168483656021e-09, 1.1954772842289644e-09).transl(-5.176691373021767e-08, 4e-08, 0))
hIsland = hIsland.sub(rect(4.79358834150447e-09, -1.9193056716505397e-09).transl(-9.033722131861456e-08, 3.2835717717504804e-08, 0))
hIsland = hIsland.sub(rect(8.337751736307783e-09, -9.64171157680726e-10).transl(-2.057901978466671e-08, 4e-08, 0))
hIsland = hIsland.sub(rect(6.243983217138142e-09, -2.2224125945591624e-09).transl(-9.634634396279445e-08, 2.9491152739048788e-08, 0))
hIsland = hIsland.add(rect(3.312187186197026e-09, 9.308766426642001e-12).transl(-5.686766281383023e-09, 4e-08, 0))
hIsland = hIsland.sub(rect(3.0810091095930824e-09, -1.09138352621258e-09).transl(8.01961201475895e-08, 3.675214200624641e-08, 0))
hIsland = hIsland.add(rect(3.055431723017823e-09, 2.017026697895648e-09).transl(1.077027972098437e-07, 1.9502210770451304e-08, 0))
hIsland = hIsland.add(rect(3.823625598418375e-09, 2.166565859061078e-09).transl(5.588419482005197e-08, 4e-08, 0))
hIsland = hIsland.add(rect(4.061678123857082e-09, 6.829274143347407e-10).transl(1.467394311678641e-08, 4e-08, 0))
hIsland = hIsland.sub(rect(7.501934128191834e-09, -8.935125712306069e-10).transl(-8.44236903132789e-08, 3.5344093454404895e-08, 0))
hIsland = hIsland.sub(rect(9.417419398955493e-09, -1.3755063176529446e-09).transl(1.8122419921496004e-08, 4e-08, 0))
hIsland = hIsland.add(rect(2.7084911295202368e-09, 9.275783730107151e-10).transl(9.68632547360605e-08, 2.9157571695118367e-08, 0))
hIsland = hIsland.add(rect(3.228700089811401e-09, 1.8971056900608858e-09).transl(-6.641785248370285e-10, 4e-08, 0))
hIsland = hIsland.add(rect(3.841762909506294e-09, 1.3227203650220109e-09).transl(1.0992993876777416e-07, 1.6423160678345223e-08, 0))
hIsland = hIsland.add(rect(2.751458537967306e-09, 3.7614810753439043e-10).transl(4.475539283824577e-08, 4e-08, 0))
hIsland = hIsland.sub(rect(4.771033765455501e-09, -1.7209763607861414e-09).transl(-1.0386554917850138e-08, 4e-08, 0))
hIsland = hIsland.sub(rect(6.695692635872818e-09, -5.600401841468179e-10).transl(-3.264330016166717e-08, 4e-08, 0))
hIsland = hIsland.sub(rect(2.973224582278169e-09, -2.5554134914936756e-09).transl(-7.975503520125898e-08, 3.688244833614088e-08, 0))
hIsland = hIsland.sub(rect(9.587533348574816e-09, -2.081699980482129e-09).transl(2.0578407278300597e-09, 4e-08, 0))
hIsland = hIsland.add(rect(9.397097695710204e-09, 1.0006376689117185e-09).transl(1.0362592279713917e-08, 4e-08, 0))
hIsland = hIsland.add(rect(2.1022493432131775e-09, 5.568445785748297e-10).transl(8.694240412128331e-08, 3.435842101116084e-08, 0))
hIsland = hIsland.sub(rect(4.360727108527521e-09, -2.1079425405576093e-09).transl(-4.646225737290276e-08, 4e-08, 0))
hIsland = hIsland.add(rect(8.17498287786301e-09, 2.4738708727058503e-09).transl(1.0232075539665946e-07, 2.5056517240123725e-08, 0))
hIsland = hIsland.add(rect(7.678243722332274e-09, 1.60196586196639e-09).transl(8.289596090223413e-08, 3.588712517427954e-08, 0))
hIsland = hIsland.add(rect(9.58132084976914e-09, 1.2117684710522615e-09).transl(-2.5565143889036802e-08, 4e-08, 0))
hIsland = hIsland.sub(rect(2.2529808026722587e-09, -6.41062149933003e-10).transl(-8.552899897398107e-08, 3.4925793747064075e-08, 0))
hIsland = hIsland.sub(rect(2.21942837105214e-09, -1.4429245526895869e-09).transl(-5.5458615902196054e-08, 4e-08, 0))
hIsland = hIsland.sub(rect(2.8242012671132885e-09, -1.3051664320586906e-10).transl(-6.673783551486093e-08, 3.948040535068309e-08, 0))
hIsland = hIsland.sub(rect(9.458529642103183e-09, -2.5689956407073744e-09).transl(5.576327402808336e-09, 4e-08, 0))
hIsland = hIsland.sub(rect(9.82140112274829e-09, -3.7485956544036383e-10).transl(1.1028455773274284e-07, 1.586392746966027e-08, 0))
hIsland = hIsland.add(rect(8.796605899217483e-09, 2.1735433538183622e-09).transl(7.253020339577588e-08, 3.860927840300734e-08, 0))
hIsland = hIsland.sub(rect(8.066523154284842e-09, -2.815401697599876e-09).transl(-1.9453427916454268e-08, 4e-08, 0))
hIsland = hIsland.add(rect(9.569690804784081e-09, 8.823866549653936e-10).transl(-4.597292458148572e-08, 4e-08, 0))
hIsland = hIsland.add(rect(7.380324713337131e-09, 1.488395617761995e-09).transl(7.44178864713191e-08, 3.822945820379453e-08, 0))
hIsland = hIsland.add(rect(2.74088333359003e-09, 1.0049010216540857e-09).transl(-9.396778372095129e-08, 3.092602895254836e-08, 0))
hIsland = hIsland.sub(rect(7.498053282570859e-09, -5.524029460106843e-10).transl(7.104450058277399e-08, 3.88744259438791e-08, 0))
hIsland = hIsland.sub(rect(2.5150184927188798e-09, -9.968874920712976e-12).transl(1.0690879759490184e-07, 2.0459989281395633e-08, 0))
hIsland = hIsland.sub(rect(2.13614986963535e-09, -4.0324680195580424e-10).transl(8.644844330305134e-08, 3.456094677923206e-08, 0))
hIsland = hIsland.sub(rect(3.88179510067418e-09, -8.915748454991139e-10).transl(-2.2594431317644104e-08, 4e-08, 0))
hIsland = hIsland.sub(rect(5.008034726222823e-09, -8.710086915735855e-10).transl(1.2139012143272226e-08, 4e-08, 0))
hIsland = hIsland.add(rect(8.169352375447329e-09, 6.822344532192875e-10).transl(-9.989177139997141e-08, 2.7024880215441027e-08, 0))
hIsland = hIsland.sub(rect(6.824168437830163e-09, -3.5295004766851563e-09).transl(-5.410256860199263e-08, 4e-08, 0))
hIsland = hIsland.add(rect(3.3030197520879093e-09, 3.0309727710499433e-09).transl(6.243992625544512e-08, 3.985210999338468e-08, 0))
hIsland = hIsland.add(rect(4.65319880357229e-09, 2.701526290896933e-09).transl(8.268488188141014e-08, 3.595903890833166e-08, 0))
hIsland = hIsland.add(rect(8.029012921033427e-09, 1.670848795116597e-09).transl(-2.6054322280092533e-08, 4e-08, 0))
hIsland = hIsland.add(rect(8.130800619431099e-09, 1.0152955642612073e-09).transl(-1.469359239532076e-08, 4e-08, 0))
hIsland = hIsland.add(rect(6.601350989036478e-09, 2.1217522737939574e-09).transl(-1.988352384786096e-08, 4e-08, 0))
hIsland = hIsland.add(rect(9.111928364243586e-09, 4.164257842595913e-10).transl(4.928712656036896e-08, 4e-08, 0))
hIsland = hIsland.sub(rect(2.4095138823559525e-09, -7.88782179949258e-10).transl(7.645435060426312e-08, 3.776425590812446e-08, 0))
hIsland = hIsland.add(rect(3.5151240000300794e-09, 4.452333381399729e-09).transl(2.2291266692782328e-09, 4e-08, 0))
hIsland = hIsland.sub(rect(6.477663753403661e-09, -1.8329272118704983e-09).transl(-9.52304039945097e-08, 3.01841435259564e-08, 0))
hIsland = hIsland.sub(rect(3.446681212462246e-09, -1.2892393552811112e-09).transl(-5.521716108264978e-08, 4e-08, 0))
vIsland = hIsland.rotz(pi / 2)
hIslands = hIslands.add(hIsland.transl(-a/2, a, 0))
hIsland = rect(islandLength-2*ellipseConstant, islandWidth)
hIsland = hIsland.add(ellipse(ellipseConstant*2, islandWidth).transl(islandLength/2-ellipseConstant, 0, 0))
hIsland = hIsland.add(ellipse(ellipseConstant*2, islandWidth).transl(-islandLength/2+ellipseConstant, 0, 0))
hIsland = hIsland.add(rect(3.488115713699877e-09, 3.0411304218440888e-09).transl(8.952143924978592e-08, -3.322332696976746e-08, 0))
hIsland = hIsland.add(rect(3.0536112144313273e-09, 2.957651562519997e-09).transl(-2.6000159875444023e-08, -4e-08, 0))
hIsland = hIsland.add(rect(9.962806926698847e-09, 2.0506167578871731e-10).transl(-5.290878693865195e-10, -4e-08, 0))
hIsland = hIsland.sub(rect(9.827026659360037e-09, -3.073541620377267e-11).transl(8.115743934719615e-08, -3.645758714226172e-08, 0))
hIsland = hIsland.add(rect(9.37802964472814e-09, 8.614766247218827e-10).transl(5.217191736641736e-08, -4e-08, 0))
hIsland = hIsland.add(rect(6.544800854611297e-09, 1.4154332861866278e-09).transl(9.593604466841876e-08, -2.9750177212965658e-08, 0))
hIsland = hIsland.sub(rect(3.3996510584691386e-09, -1.6809628730688445e-09).transl(-3.6029959128223843e-09, -4e-08, 0))
hIsland = hIsland.sub(rect(8.033086859734422e-09, -3.137307873810329e-09).transl(9.556771987234005e-08, -2.997848214291034e-08, 0))
hIsland = hIsland.add(rect(2.4497927913302713e-09, 2.3376857311468245e-09).transl(-3.036264463934805e-08, -4e-08, 0))
hIsland = hIsland.add(rect(9.606551993586762e-09, 2.233522563541976e-09).transl(-6.599426647184787e-08, -3.956113079466072e-08, 0))
hIsland = hIsland.sub(rect(8.194232397705307e-09, -1.3605442128075437e-09).transl(2.5793228491199493e-08, -4e-08, 0))
hIsland = hIsland.add(rect(7.572364816093198e-09, 2.143366509673631e-09).transl(8.658230528240097e-08, -3.450651830102716e-08, 0))
hIsland = hIsland.add(rect(2.2220486538041984e-09, 1.1988239163548698e-10).transl(1.003949602497846e-07, -2.6637868726493827e-08, 0))
hIsland = hIsland.sub(rect(6.567544552294798e-09, -6.574889004436506e-10).transl(-2.0770661146709636e-09, -4e-08, 0))
hIsland = hIsland.sub(rect(3.561248675003336e-09, -5.591879918494324e-10).transl(-2.969216991600438e-08, -4e-08, 0))
hIsland = hIsland.add(rect(9.642657994541069e-09, 2.1215074845115646e-09).transl(3.641142724428685e-08, -4e-08, 0))
hIsland = hIsland.sub(rect(6.734214011260672e-09, -2.6511660181030926e-09).transl(5.982578907287723e-08, -3.996726497309502e-08, 0))
hIsland = hIsland.sub(rect(5.353493539275212e-09, -1.091612425417814e-09).transl(-1.084363254953237e-07, -1.855893543696749e-08, 0))
hIsland = hIsland.sub(rect(6.639930249479471e-09, -1.4783099228855252e-09).transl(4.563208065450587e-08, -4e-08, 0))
hIsland = hIsland.sub(rect(3.751913772080113e-09, -3.207915504160598e-09).transl(1.0241925395478399e-08, -4e-08, 0))
hIsland = hIsland.add(rect(2.094786038534343e-09, 9.173732315211416e-10).transl(9.805852031345277e-08, -2.835374858363973e-08, 0))
hIsland = hIsland.add(rect(2.5725352725473016e-09, 1.3732689683598312e-09).transl(-4.874890724621844e-09, -4e-08, 0))
hIsland = hIsland.add(rect(8.00376481435296e-09, 1.0918233405799693e-09).transl(5.4052003024428904e-08, -4e-08, 0))
hIsland = hIsland.sub(rect(5.575180679183039e-09, -9.150509013087444e-10).transl(2.5793573753445983e-08, -4e-08, 0))
hIsland = hIsland.add(rect(8.383475119006225e-09, 2.8488502326521645e-10).transl(1.6687399286737475e-09, -4e-08, 0))
hIsland = hIsland.sub(rect(7.686145861906123e-09, -2.2385709470808845e-10).transl(5.9363672749809397e-08, -3.9978984113222787e-08, 0))
hIsland = hIsland.add(rect(9.765615268270584e-09, 3.134229406409614e-10).transl(-1.0306248401046333e-07, -2.4400539714964546e-08, 0))
hIsland = hIsland.add(rect(7.292800536513493e-09, 1.4805528784918796e-09).transl(-8.083437615726134e-08, -3.655820549203242e-08, 0))
hIsland = hIsland.add(rect(2.1862803769873003e-09, 1.0542182126598691e-09).transl(-3.3341251588140667e-08, -4e-08, 0))
hIsland = hIsland.sub(rect(3.439447058920653e-09, -3.298627306024728e-09).transl(-3.5934741983308356e-08, -4e-08, 0))
hIsland = hIsland.sub(rect(9.12855954615925e-09, -1.0091948745346938e-09).transl(6.95329783879365e-08, -3.9114322827046906e-08, 0))
hIsland = hIsland.sub(rect(9.742201306950688e-09, -1.5222496330294725e-09).transl(-7.729795059053029e-08, -3.755420870843722e-08, 0))
hIsland = hIsland.sub(rect(8.347664322398245e-09, -1.1438000590248061e-09).transl(-9.5950392773691e-08, -2.9741203451156664e-08, 0))
hIsland = hIsland.sub(rect(4.860600300278865e-09, -2.276193587378446e-09).transl(-5.2112790622653e-08, -4e-08, 0))
hIsland = hIsland.add(rect(5.97262801806985e-09, 3.1170062594566884e-09).transl(-9.542427669708533e-08, -3.006633512565153e-08, 0))
hIsland = hIsland.add(rect(7.171165071616299e-09, 6.590995374791468e-10).transl(9.456197199130129e-08, -3.0582282929051326e-08, 0))
hIsland = hIsland.sub(rect(6.196919998345119e-09, -1.618492223730052e-09).transl(3.5777832376334003e-09, -4e-08, 0))
hIsland = hIsland.add(rect(4.351754911562972e-09, 2.115396171839459e-10).transl(1.0977998328990961e-07, -1.6652892304002986e-08, 0))
hIsland = hIsland.sub(rect(8.988240584918848e-09, -1.2311281848045512e-09).transl(5.599073321195628e-08, -4e-08, 0))
hIsland = hIsland.add(rect(4.466921881406644e-09, 1.1810738379212776e-09).transl(9.230288716832254e-08, -3.184088262210285e-08, 0))
hIsland = hIsland.add(rect(2.898489145949421e-09, 2.209816541096495e-09).transl(3.1903111024475596e-08, -4e-08, 0))
hIsland = hIsland.sub(rect(9.82791328433782e-09, -1.589511987543381e-09).transl(7.162905871252513e-08, -3.877360597336145e-08, 0))
hIsland = hIsland.sub(rect(8.70381654455848e-09, -2.0368783792988597e-09).transl(6.856773461948305e-08, -3.925201749358487e-08, 0))
hIsland = hIsland.sub(rect(8.170748293914364e-09, -2.8632961291173304e-10).transl(2.6552909032144398e-08, -4e-08, 0))
hIsland = hIsland.add(rect(4.8197009869971725e-09, 6.087467600692427e-10).transl(-1.0073011598290566e-08, -4e-08, 0))
hIsland = hIsland.add(rect(3.998190812721842e-09, 7.216155740963622e-10).transl(2.347490021398625e-09, -4e-08, 0))
hIsland = hIsland.sub(rect(3.642913186411919e-09, -1.4268758435729488e-09).transl(1.486115615198479e-08, -4e-08, 0))
hIsland = hIsland.add(rect(9.297408339266503e-09, 2.728166013256502e-09).transl(-1.145986400407233e-08, -4e-08, 0))
hIsland = hIsland.add(rect(4.77671632125025e-09, 2.698275517135005e-09).transl(5.014263167468788e-08, -4e-08, 0))
hIsland = hIsland.sub(rect(9.636175233717949e-09, -4.5028134252983355e-11).transl(4.029620596773123e-08, -4e-08, 0))
hIsland = hIsland.add(rect(7.32381465601732e-09, 1.6300363019016115e-09).transl(8.90052659465536e-08, -3.346129055244111e-08, 0))
hIsland = hIsland.add(rect(4.3261992923951835e-09, 6.896626376298252e-10).transl(3.135309802236118e-08, -4e-08, 0))
hIsland = hIsland.sub(rect(5.925741770438921e-09, -3.9419478461252443e-10).transl(-1.5778178311063037e-08, -4e-08, 0))
hIsland = hIsland.sub(rect(4.042906526336352e-09, -1.6652425965387725e-09).transl(5.850098730382003e-08, -3.999393844078736e-08, 0))
hIsland = hIsland.add(rect(4.201473689556882e-09, 5.734400974781216e-10).transl(-3.968034529285799e-09, -4e-08, 0))
hIsland = hIsland.sub(rect(9.69793415708464e-09, -5.337687653388199e-10).transl(6.63106921859459e-08, -3.95276256203688e-08, 0))
hIsland = hIsland.sub(rect(6.774947269688116e-09, -3.9957290380617873e-10).transl(-9.666969992184104e-08, -2.928344176396184e-08, 0))
hIsland = hIsland.add(rect(9.739351233609122e-09, 6.63791749188111e-09).transl(-1.9400757291128435e-08, -4e-08, 0))
hIsland = hIsland.add(rect(7.597564225186354e-09, 3.1092646126265773e-09).transl(2.62493960789563e-08, -4e-08, 0))
hIsland = hIsland.sub(rect(3.752144303415829e-09, -8.495181309087101e-10).transl(-3.938703417162196e-08, -4e-08, 0))
hIsland = hIsland.add(rect(9.86346379139422e-09, 1.7571901121729225e-09).transl(-1.015475611461405e-07, -2.5711499689423718e-08, 0))
hIsland = hIsland.sub(rect(2.8333260133114476e-09, -4.1615795035489027e-10).transl(1.0694940245932346e-07, -2.0412461846714866e-08, 0))
hIsland = hIsland.sub(rect(3.906108358892553e-09, -2.820157557749679e-09).transl(-1.0991081236292648e-07, -1.645267759071805e-08, 0))
hIsland = hIsland.sub(rect(4.764249056133523e-09, -8.036835713592275e-10).transl(5.159924635089881e-08, -4e-08, 0))
hIsland = hIsland.sub(rect(4.211631085149532e-09, -2.328107475705107e-09).transl(9.0592132199803e-08, -3.2711639284534536e-08, 0))
hIsland = hIsland.sub(rect(6.6129217519226085e-09, -4.611363007183994e-10).transl(3.83199132826673e-09, -4e-08, 0))
hIsland = hIsland.add(rect(3.0392317051613173e-09, 2.4278569074906413e-09).transl(-6.737811094308276e-08, -3.940532115992523e-08, 0))
hIsland = hIsland.add(rect(6.977378097190813e-09, 1.4830006728360159e-09).transl(9.50607393589779e-08, -3.028637293170582e-08, 0))
hIsland = hIsland.add(rect(6.246411909672508e-09, 3.3464324164567086e-09).transl(-4.421461012003033e-08, -4e-08, 0))
hIsland = hIsland.add(rect(7.614394411105903e-09, 1.5098802105568459e-09).transl(-9.401175205736857e-10, -4e-08, 0))
hIsland = hIsland.sub(rect(4.083849287537062e-09, -4.151295367734606e-09).transl(1.0884401087866439e-08, -4e-08, 0))
hIsland = hIsland.add(rect(8.666794948621853e-09, 1.338039190073265e-09).transl(7.128555548531546e-08, -3.883339835122463e-08, 0))
hIsland = hIsland.add(rect(9.143254320558991e-09, 6.009222954845092e-10).transl(-1.6844615809487162e-08, -4e-08, 0))
hIsland = hIsland.sub(rect(9.275116154259696e-09, -6.146845769283821e-10).transl(-6.222933088983895e-08, -3.986447167476983e-08, 0))
hIsland = hIsland.add(rect(7.263104711566622e-09, 1.7008043504691968e-09).transl(-6.124752208128637e-08, -3.9914955813618986e-08, 0))
hIsland = hIsland.add(rect(2.572797454951239e-09, 3.0645845380042255e-09).transl(-1.567128708477572e-08, -4e-08, 0))
hIsland = hIsland.sub(rect(3.56500777948303e-09, -4.2299155654995196e-10).transl(8.924093058458755e-08, -3.335333584549515e-08, 0))
hIsland = hIsland.sub(rect(3.845239379242951e-09, -1.0653646097055253e-09).transl(7.872861992525314e-09, -4e-08, 0))
hIsland = hIsland.sub(rect(5.426740777405242e-09, -1.0310344373340393e-09).transl(7.045604814321138e-08, -3.897136870191366e-08, 0))
hIsland = hIsland.sub(rect(2.7951328225215015e-09, -2.050049240067783e-09).transl(2.728538243460038e-08, -4e-08, 0))
hIsland = hIsland.add(rect(5.0074421524163295e-09, 1.8478672885555283e-09).transl(-1.1277387091852624e-07, -1.1022283116891798e-08, 0))
hIsland = hIsland.sub(rect(3.953712530908204e-09, -2.8742332359910897e-09).transl(-8.994947590276113e-09, -4e-08, 0))
hIsland = hIsland.add(rect(6.654180508940583e-09, 3.4205098021318175e-09).transl(-5.291713418704464e-08, -4e-08, 0))
hIsland = hIsland.sub(rect(5.0664012976844785e-09, -1.4253373825672498e-09).transl(4.279885229213182e-08, -4e-08, 0))
hIsland = hIsland.add(rect(8.816539874090648e-09, 2.9276057110860986e-09).transl(-2.9838991617442365e-08, -4e-08, 0))
hIsland = hIsland.add(rect(7.897479460482133e-09, 5.479736114201794e-10).transl(7.320705917637654e-08, -3.847867361015752e-08, 0))
hIsland = hIsland.add(rect(2.56212011769368e-09, 3.647240459742955e-09).transl(-6.086875753809093e-08, -3.993129205351266e-08, 0))
hIsland = hIsland.sub(rect(5.642775007479593e-09, -8.281554615029491e-10).transl(-9.47976746818736e-08, -3.044329590904592e-08, 0))
hIsland = hIsland.sub(rect(9.286025067930278e-09, -3.132361660259473e-09).transl(-1.0767018135307747e-07, -1.9542786328507812e-08, 0))
hIsland = hIsland.add(rect(6.505593053292073e-09, 2.8152539384022327e-10).transl(-5.792982735617608e-08, -3.999888239463353e-08, 0))
hIsland = hIsland.add(rect(4.122749866574369e-09, 2.9369165593336157e-09).transl(1.1031452915670875e-07, -1.5815580037588618e-08, 0))
hIsland = hIsland.sub(rect(6.354092307089161e-09, -1.0913722337842784e-09).transl(7.447087883675165e-08, -3.821809005410889e-08, 0))
hIsland = hIsland.sub(rect(9.55577559500603e-09, -3.3311538620599695e-09).transl(4.4488783075021446e-08, -4e-08, 0))
hIsland = hIsland.sub(rect(4.984869127547542e-09, -1.9489794776240048e-10).transl(-3.5276766580474475e-08, -4e-08, 0))
hIsland = hIsland.sub(rect(2.7421716783068232e-09, -1.6837475852554549e-09).transl(-3.6187992357070726e-08, -4e-08, 0))
hIsland = hIsland.sub(rect(5.738277761730687e-09, -2.5949776268466114e-09).transl(2.6021132570720047e-08, -4e-08, 0))
hIsland = hIsland.sub(rect(5.725267581066153e-09, -1.7592737092508276e-10).transl(4.5595919134193925e-08, -4e-08, 0))
hIsland = hIsland.sub(rect(8.593159189575343e-09, -3.808820201491579e-10).transl(4.980371311110945e-09, -4e-08, 0))
hIsland = hIsland.add(rect(9.26174314775943e-09, 1.105956970495603e-09).transl(9.685811606216372e-08, -2.916092846564267e-08, 0))
hIsland = hIsland.add(rect(3.954174333681372e-09, 2.5303703238306622e-09).transl(-5.84942357230193e-08, -3.99940199405979e-08, 0))
hIsland = hIsland.sub(rect(2.582029063485524e-09, -6.263688697329101e-10).transl(-5.5871815353881196e-08, -4e-08, 0))
hIsland = hIsland.sub(rect(4.884752090958849e-09, -3.068345961518637e-09).transl(1.50755300216205e-08, -4e-08, 0))
hIsland = hIsland.add(rect(7.836336703077308e-09, 2.032877410979536e-09).transl(1.0522611586796857e-08, -4e-08, 0))
hIsland = hIsland.sub(rect(2.0884281673812917e-09, -1.3780328406154206e-09).transl(1.8486940203761497e-08, -4e-08, 0))
hIsland = hIsland.sub(rect(2.9352399026471387e-09, -1.569739877217535e-09).transl(5.2720411197109696e-08, -4e-08, 0))
hIsland = hIsland.sub(rect(6.185759241726725e-09, -2.7109611420761084e-09).transl(3.699255066908816e-08, -4e-08, 0))
hIsland = hIsland.sub(rect(6.374219283447361e-09, -1.3252460004616176e-09).transl(-1.0326769797128248e-07, -2.4213970663769797e-08, 0))
hIsland = hIsland.add(rect(9.376742514455657e-09, 8.672418846155434e-10).transl(-8.694685756938279e-08, -3.4356574018036334e-08, 0))
hIsland = hIsland.add(rect(2.4415021034747985e-09, 1.000653634991958e-09).transl(1.0821324138648773e-07, -1.885226565773702e-08, 0))
hIsland = hIsland.add(rect(8.523521536048876e-09, 1.8434468093869782e-09).transl(9.76071666001432e-08, -2.866277061916719e-08, 0))
hIsland = hIsland.sub(rect(6.489675132848488e-09, -3.135313931909657e-09).transl(-8.876805039466404e-08, -3.3568796561713064e-08, 0))
hIsland = hIsland.sub(rect(9.841248562863053e-09, -2.3164218129671094e-09).transl(-9.398084016786753e-09, -4e-08, 0))
hIsland = hIsland.add(rect(5.569717932649971e-09, 1.1614195029866677e-09).transl(-5.266105279959307e-08, -4e-08, 0))
hIsland = hIsland.sub(rect(5.741240498570755e-09, -2.265212637128863e-09).transl(-1.1115186285852634e-07, -1.438718374105e-08, 0))
hIsland = hIsland.add(rect(6.238939635059355e-09, 3.713639792477742e-10).transl(1.71895919156395e-08, -4e-08, 0))
hIsland = hIsland.add(rect(4.379017697052197e-09, 2.3391017551031986e-11).transl(-9.719863003081347e-08, -2.893669532962667e-08, 0))
hIsland = hIsland.add(rect(2.8835742463996512e-09, 6.526334904916658e-10).transl(5.914897316375363e-08, -3.998354829922051e-08, 0))
hIsland = hIsland.sub(rect(6.658778254775429e-09, -4.468923327041623e-10).transl(8.813118545484499e-08, -3.385175627886288e-08, 0))
hIsland = hIsland.add(rect(5.012923638784067e-09, 2.4394620035871618e-09).transl(-5.8422626925616673e-08, -3.9994850387950844e-08, 0))
hIsland = hIsland.sub(rect(3.776915974114602e-09, -5.851284172912383e-10).transl(-1.087309907837e-07, -1.8162192462046536e-08, 0))
hIsland = hIsland.add(rect(5.164968232250394e-09, 6.357953785447202e-10).transl(-1.5719102256135824e-08, -4e-08, 0))
hIsland = hIsland.add(rect(4.700488839752795e-09, 3.9000889736920595e-09).transl(9.467199004792672e-08, -3.051759689173212e-08, 0))
hIsland = hIsland.add(rect(5.685855305929486e-09, 1.189964879407018e-09).transl(8.853931858401377e-08, -3.3671366835306506e-08, 0))
hIsland = hIsland.add(rect(3.4733936060357265e-09, 1.7351624760768847e-09).transl(2.8211125370778366e-08, -4e-08, 0))
hIsland = hIsland.sub(rect(2.067250793640577e-09, -2.3313061868519173e-09).transl(1.007387981280565e-07, -2.636747803951586e-08, 0))
hIsland = hIsland.add(rect(5.035077637874142e-09, 8.737819720929059e-10).transl(8.819587094987229e-08, -3.382338923234207e-08, 0))
hIsland = hIsland.add(rect(3.413535313208093e-09, 1.3673558599294757e-10).transl(-9.97482176741424e-09, -4e-08, 0))
hIsland = hIsland.add(rect(5.766556221378273e-09, 3.6902631751224354e-09).transl(-9.858036497022563e-08, -2.798782226277613e-08, 0))
hIsland = hIsland.add(rect(5.781914754557616e-09, 7.969429915226823e-10).transl(-8.392836740600152e-08, -3.55245488070032e-08, 0))
hIsland = hIsland.add(rect(6.0719369377372305e-09, 5.517100783941526e-10).transl(4.07823384400138e-08, -4e-08, 0))
hIsland = hIsland.add(rect(5.2694746066787355e-09, 2.5086916444269584e-10).transl(-4.49228734551315e-09, -4e-08, 0))
hIsland = hIsland.add(rect(2.914314195527245e-09, 1.3233526462146997e-09).transl(1.1355648370361544e-07, -8.906538719226118e-09, 0))
hIsland = hIsland.add(rect(2.1169760783482537e-09, 1.3035279150454203e-09).transl(-3.868818546518907e-08, -4e-08, 0))
hIsland = hIsland.add(rect(7.579128810432529e-09, 6.031488093979813e-10).transl(3.7039485808299246e-08, -4e-08, 0))
hIsland = hIsland.add(rect(5.527238813236336e-09, 1.0672432761493643e-09).transl(-4.209884090601398e-08, -4e-08, 0))
hIsland = hIsland.sub(rect(7.66448656347926e-09, -3.520306347994457e-10).transl(7.587223741578155e-09, -4e-08, 0))
hIsland = hIsland.sub(rect(6.478410772129057e-09, -7.825120908094908e-10).transl(8.19836833012696e-08, -3.619263229373268e-08, 0))
hIsland = hIsland.sub(rect(5.777569085037403e-09, -1.5021486617991636e-09).transl(8.334360387675996e-08, -3.573213947009199e-08, 0))
hIsland = hIsland.add(rect(7.632751771801335e-09, 1.5486631426273802e-09).transl(-1.0720396890675604e-07, -2.011103213587128e-08, 0))
hIsland = hIsland.sub(rect(4.434836702771136e-09, -1.0853176261970195e-09).transl(-9.320566232446046e-08, -3.135343535296226e-08, 0))
hIsland = hIsland.add(rect(8.594317809951665e-09, 2.4594120774318346e-09).transl(3.3545310762046915e-08, -4e-08, 0))
hIsland = hIsland.sub(rect(5.219352241107539e-09, -2.9536049941208975e-09).transl(-9.924075585446933e-08, -2.7510904556643156e-08, 0))
hIsland = hIsland.sub(rect(2.0373992498038095e-09, -1.6249337773986144e-09).transl(5.5338915054089035e-08, -4e-08, 0))
hIsland = hIsland.sub(rect(5.264380718880109e-09, -4.0040861251678246e-09).transl(-1.0936328641984889e-07, -1.7271931487892422e-08, 0))
hIsland = hIsland.sub(rect(7.381465329176239e-09, -4.390624507518483e-09).transl(6.712876252032265e-08, -3.9435176995194136e-08, 0))
hIsland = hIsland.add(rect(2.856673817344435e-09, 3.997232787931313e-09).transl(9.906475627455004e-08, -2.763955773087357e-08, 0))
hIsland = hIsland.add(rect(3.464871300348392e-09, 4.594516720850303e-10).transl(1.469616251719982e-08, -4e-08, 0))
hIsland = hIsland.add(rect(2.2963819829232046e-09, 3.6936679668463747e-09).transl(7.492464510641143e-08, -3.811914775651693e-08, 0))
hIsland = hIsland.add(rect(5.48733904716028e-09, 1.0326959741821294e-09).transl(-8.899224240718421e-08, -3.346722288534632e-08, 0))
hIsland = hIsland.sub(rect(4.987683901984603e-09, -1.9493737444281244e-09).transl(6.831276141044524e-09, -4e-08, 0))
hIsland = hIsland.sub(rect(2.562869294956858e-09, -8.627463496305188e-10).transl(-3.6995921226146257e-09, -4e-08, 0))
hIsland = hIsland.sub(rect(7.80833367306651e-09, -9.123303206129904e-11).transl(-2.976075135405184e-08, -4e-08, 0))
hIsland = hIsland.sub(rect(6.797466060710503e-09, -6.763173726661652e-10).transl(-2.94964606851903e-08, -4e-08, 0))
hIsland = hIsland.sub(rect(7.411754256761957e-09, -8.966458091969586e-10).transl(-2.4318393162053036e-08, -4e-08, 0))
hIsland = hIsland.sub(rect(3.921825608409292e-09, -1.347666369299551e-09).transl(3.956406258722691e-08, -4e-08, 0))
hIsland = hIsland.add(rect(2.207145125295626e-09, 7.443881039781464e-10).transl(6.723596233247004e-08, -3.9422437682081874e-08, 0))
hIsland = hIsland.add(rect(8.147855335536566e-09, 5.102988331769919e-10).transl(-8.359254229444017e-08, -3.564448179407876e-08, 0))
hIsland = hIsland.add(rect(7.791911843273892e-09, 3.4008039514672365e-09).transl(2.1185060230015522e-10, -4e-08, 0))
hIsland = hIsland.sub(rect(9.19933516936796e-09, -3.569643171414549e-10).transl(-6.481115645937686e-08, -3.967533719311657e-08, 0))
hIsland = hIsland.sub(rect(9.338812043307785e-09, -1.4385643973916745e-09).transl(-2.4204971390171564e-08, -4e-08, 0))
hIsland = hIsland.add(rect(7.971608708655751e-09, 2.451452223565682e-09).transl(-1.1855873417600742e-08, -4e-08, 0))
hIsland = hIsland.add(rect(5.112347837625638e-09, 1.2841157375248902e-10).transl(-8.540161441309436e-08, -3.497511883000792e-08, 0))
hIsland = hIsland.sub(rect(6.963023664651087e-09, -2.0907971818727296e-09).transl(8.568826731609976e-08, -3.4863707790133935e-08, 0))
hIsland = hIsland.sub(rect(7.975629893403454e-09, -9.502285213361835e-10).transl(-3.728123571311646e-08, -4e-08, 0))
hIsland = hIsland.add(rect(6.475145065511481e-09, 5.345343618158775e-10).transl(8.672399574637254e-08, -3.444853882535069e-08, 0))
hIsland = hIsland.sub(rect(6.121835139258566e-09, -1.0349196561278446e-10).transl(-1.6893763869322374e-08, -4e-08, 0))
hIsland = hIsland.sub(rect(9.754733812551208e-09, -9.050979416238693e-10).transl(5.1392733023222943e-08, -4e-08, 0))
hIsland = hIsland.add(rect(8.272059103525432e-09, 3.4163437203070666e-09).transl(-5.9063377124015955e-08, -3.998521225008062e-08, 0))
hIsland = hIsland.sub(rect(9.489138000383114e-09, -1.0272465475202654e-09).transl(-2.3997276453151068e-08, -4e-08, 0))
hIsland = hIsland.sub(rect(9.426863917221472e-09, -9.679058573405024e-10).transl(7.04440555650667e-08, -3.8973297167768566e-08, 0))
hIsland = hIsland.sub(rect(3.772292466517397e-09, -1.364744285433517e-09).transl(1.825136416481262e-08, -4e-08, 0))
hIsland = hIsland.sub(rect(4.377251991660716e-09, -9.870081587698366e-10).transl(2.1015497617347506e-08, -4e-08, 0))
hIsland = hIsland.add(rect(8.797258743057142e-09, 2.366381241092466e-09).transl(7.616772582068631e-08, -3.783328515335824e-08, 0))
hIsland = hIsland.sub(rect(3.5332390838741568e-09, -2.8245457562733754e-09).transl(-3.8373176366930476e-08, -4e-08, 0))
hIsland = hIsland.sub(rect(7.838598710999667e-09, -1.7114029380654718e-09).transl(-2.7650951892300805e-08, -4e-08, 0))
hIsland = hIsland.sub(rect(2.1552475243609823e-09, -3.833590321803915e-10).transl(8.5620304304998e-08, -3.4890257667176025e-08, 0))
hIsland = hIsland.add(rect(6.033017317654521e-09, 1.1496768914541388e-09).transl(-8.22659989579936e-08, -3.609955766572944e-08, 0))
hIsland = hIsland.add(rect(7.85274873018291e-09, 6.485733041152949e-10).transl(-3.242118788835164e-08, -4e-08, 0))
hIsland = hIsland.sub(rect(9.508964896736494e-09, -2.881155027779557e-09).transl(-8.708751390188296e-08, -3.429804398472155e-08, 0))
hIsland = hIsland.add(rect(9.531465480986086e-09, 3.4264531480809336e-09).transl(1.1140127194766799e-07, -1.392873693043187e-08, 0))
hIsland = hIsland.sub(rect(9.175557925368573e-09, -2.7354311604926958e-09).transl(-7.758797479253983e-09, -4e-08, 0))
hIsland = hIsland.sub(rect(3.986030097838527e-09, -3.515717424008021e-09).transl(-5.464899178625068e-08, -4e-08, 0))
hIsland = hIsland.sub(rect(3.7002987114610673e-09, -2.448864250596146e-10).transl(6.1094394205497e-08, -3.9921770490352705e-08, 0))
hIsland = hIsland.sub(rect(7.20508103565359e-09, -2.400297607166098e-09).transl(6.948384762686808e-08, -3.9121621553171846e-08, 0))
hIsland = hIsland.sub(rect(7.191165123324113e-09, -3.000576855934577e-09).transl(1.0041616978406787e-07, -2.6621331434034433e-08, 0))
hIsland = hIsland.sub(rect(5.2567761282387965e-09, -1.3898687841944826e-09).transl(8.11574466649193e-08, -3.645758484431391e-08, 0))
hIsland = hIsland.add(rect(6.225877049914412e-09, 8.895933244310999e-10).transl(5.440771135355476e-08, -4e-08, 0))
hIsland = hIsland.add(rect(6.910621233956133e-09, 1.5119176066530413e-09).transl(9.061163309695362e-08, -3.270208820023791e-08, 0))
hIsland = hIsland.add(rect(2.3817528323617404e-09, 1.8205748411952035e-10).transl(-1.8119727042061613e-08, -4e-08, 0))
hIsland = hIsland.sub(rect(3.2293308299648306e-09, -3.900731672545126e-09).transl(-9.76727879383372e-08, -2.8618263893891402e-08, 0))
hIsland = hIsland.add(rect(5.097721509891095e-09, 1.66526265354825e-09).transl(-2.622641137562721e-09, -4e-08, 0))
hIsland = hIsland.sub(rect(8.662423928604835e-09, -9.740128075756967e-10).transl(-2.2212824204675703e-08, -4e-08, 0))
hIsland = hIsland.sub(rect(3.4297423491833102e-09, -1.2260163313471582e-10).transl(-8.304368151718576e-08, -3.583635367995118e-08, 0))
hIsland = hIsland.sub(rect(9.455287633369138e-09, -4.306881409897772e-09).transl(1.461246632738384e-08, -4e-08, 0))
hIsland = hIsland.add(rect(2.0433854976484965e-09, 1.9681465620564707e-09).transl(1.1060959454709045e-07, -1.532995434172679e-08, 0))
hIsland = hIsland.add(rect(5.761151990254639e-09, 5.329022761222227e-11).transl(-3.85156733856439e-08, -4e-08, 0))
hIsland = hIsland.add(rect(5.812168990754166e-09, 4.792213232354523e-10).transl(7.810543940334131e-08, -3.73434087064906e-08, 0))
hIsland = hIsland.add(rect(2.769944385255731e-09, 7.447256636047983e-10).transl(-2.4518945660230692e-08, -4e-08, 0))
hIsland = hIsland.add(rect(8.645758914771758e-09, 1.2738629958554323e-09).transl(1.0151586555020339e-07, -2.5737753945486746e-08, 0))
hIsland = hIsland.sub(rect(3.5295824158719917e-09, -2.568904682837352e-09).transl(7.14026913482359e-08, -3.881318458287372e-08, 0))
hIsland = hIsland.sub(rect(3.6671409897300846e-09, -1.1866531485058403e-09).transl(9.130685483382041e-08, 3.235602750632432e-08, 0))
hIsland = hIsland.sub(rect(8.44905588537634e-09, -1.4664404471517641e-09).transl(-5.5165449291555535e-08, 4e-08, 0))
hIsland = hIsland.add(rect(6.6926550018712356e-09, 1.928610831937816e-09).transl(2.33810844840274e-08, 4e-08, 0))
hIsland = hIsland.add(rect(4.3010183257017846e-09, 1.2444431942201432e-09).transl(-5.863044074578188e-08, 3.999226906747353e-08, 0))
hIsland = hIsland.sub(rect(2.2691058693664064e-09, -4.346205225275447e-09).transl(-5.374213065269723e-09, 4e-08, 0))
hIsland = hIsland.sub(rect(3.2693304762906587e-09, -1.314214718908202e-09).transl(-4.7313654116494544e-08, 4e-08, 0))
hIsland = hIsland.add(rect(5.5329115487226484e-09, 1.1654683715100913e-09).transl(-5.238897770045469e-08, 4e-08, 0))
hIsland = hIsland.sub(rect(2.5783232005556896e-09, -2.0255858426750077e-09).transl(-3.860033502772283e-08, 4e-08, 0))
hIsland = hIsland.sub(rect(6.74821393812016e-09, -6.275714229682915e-10).transl(4.013575642561621e-08, 4e-08, 0))
hIsland = hIsland.add(rect(7.579818849718347e-09, 7.813709117425007e-10).transl(-7.919806811501355e-08, 3.704270317262994e-08, 0))
hIsland = hIsland.sub(rect(2.0595925446535122e-09, -6.271920532046624e-10).transl(-1.2335720468649898e-08, 4e-08, 0))
hIsland = hIsland.add(rect(3.034264133160454e-09, 3.368234381034804e-09).transl(4.7967464282754405e-09, 4e-08, 0))
hIsland = hIsland.sub(rect(3.2255839185761658e-09, -1.2135871156956895e-09).transl(-4.81373944279047e-08, 4e-08, 0))
hIsland = hIsland.add(rect(3.51577963612734e-09, 1.2765881786250029e-09).transl(2.326287578912105e-09, 4e-08, 0))
hIsland = hIsland.sub(rect(3.303386285736113e-09, -1.741931641461615e-09).transl(-8.446061702261545e-08, 3.533046884444751e-08, 0))
hIsland = hIsland.sub(rect(7.939252156421043e-09, -1.6285311635529665e-09).transl(-4.036333838246588e-08, 4e-08, 0))
hIsland = hIsland.sub(rect(9.947994181374221e-09, -6.584352849660838e-10).transl(-9.770510870540891e-08, 2.8596290554200664e-08, 0))
hIsland = hIsland.sub(rect(4.565100502606454e-09, -1.2563499226955425e-10).transl(-1.2533133428700305e-08, 4e-08, 0))
hIsland = hIsland.sub(rect(2.402066910883688e-09, -2.205844394922967e-09).transl(-1.0867753525455803e-07, 1.823497805397573e-08, 0))
hIsland = hIsland.sub(rect(7.805801635764792e-09, -1.7534854134749538e-09).transl(6.066796711821693e-08, 3.993924450211613e-08, 0))
hIsland = hIsland.sub(rect(7.749443151529719e-09, -1.9941732301123337e-09).transl(6.886198096744001e-08, 3.921131205785398e-08, 0))
hIsland = hIsland.sub(rect(5.641389617009117e-09, -2.680703903707484e-09).transl(3.947964499684646e-10, 4e-08, 0))
hIsland = hIsland.sub(rect(3.192631049304513e-09, -2.0023145111661455e-09).transl(-6.974037069193083e-08, 3.908316882752839e-08, 0))
hIsland = hIsland.add(rect(9.64544679877263e-09, 1.137960189123117e-09).transl(-1.0447376039539338e-07, 2.3069192116853e-08, 0))
hIsland = hIsland.add(rect(5.272798402377813e-09, 4.6890065145031614e-09).transl(-8.445588059141478e-08, 3.533221775280938e-08, 0))
hIsland = hIsland.sub(rect(2.170561160004967e-09, -2.1701651259854027e-09).transl(4.252448465364053e-08, 4e-08, 0))
hIsland = hIsland.add(rect(3.9211717195906405e-09, 2.0554856510945341e-10).transl(3.023357322446793e-08, 4e-08, 0))
[...]
hIsland = hIsland.sub(rect(2.2238963418855536e-09, -2.9993569864535966e-09).transl(-6.288349615821535e-08, 3.982429747482722e-08, 0))
hIsland = hIsland.add(rect(7.467033733295989e-09, 1.8916099229964087e-09).transl(9.473920133240609e-09, 4e-08, 0))
hIsland = hIsland.sub(rect(5.307864237646425e-09, -2.2028878477663193e-09).transl(-1.0907594810712031e-07, 1.7683412264805302e-08, 0))
hIsland = hIsland.sub(rect(3.763246221343697e-09, -2.5729620279328776e-09).transl(1.4180419327178913e-08, 4e-08, 0))
hIsland = hIsland.add(rect(9.805224520379402e-09, 2.3109201198477618e-09).transl(-3.212808103366232e-08, 4e-08, 0))
hIsland = hIsland.add(rect(9.087846778016055e-09, 2.39742890715079e-09).transl(6.502484419880769e-08, 3.9655998105651366e-08, 0))
hIsland = hIsland.add(rect(9.667623928556474e-09, 2.2139613184416646e-10).transl(5.0996099498995345e-08, 4e-08, 0))
hIsland = hIsland.sub(rect(5.094196864103527e-09, -2.960949262380911e-10).transl(-6.043018562074619e-08, 3.994802831454844e-08, 0))
hIsland = hIsland.add(rect(8.453707855067765e-09, 1.7733053849042983e-09).transl(-1.0910255723581257e-07, 1.7645805137320103e-08, 0))
hIsland = hIsland.add(rect(7.431169417842035e-09, 3.470250619896676e-09).transl(4.116148862610098e-08, 4e-08, 0))
hIsland = hIsland.sub(rect(3.799713830261742e-09, -2.0523696498379048e-09).transl(9.618388535859504e-08, 2.959431418185627e-08, 0))
hIsland = hIsland.add(rect(4.757917252005916e-09, 3.3579059616173344e-09).transl(-1.1420153007832593e-07, 6.642895008376744e-09, 0))
hIsland = hIsland.add(rect(6.175624779375158e-09, 3.325101354415639e-09).transl(-1.0221126506640704e-07, 2.5151003719249695e-08, 0))
hIsland = hIsland.sub(rect(9.913609175535374e-09, -1.567275419542894e-09).transl(-4.607809247134721e-08, 4e-08, 0))
hIsland = hIsland.sub(rect(7.062417990005316e-09, -1.5123200417036062e-09).transl(-5.020293720278542e-08, 4e-08, 0))
hIsland = hIsland.add(rect(8.968390715047545e-09, 1.325940321624117e-09).transl(-5.69977560885714e-08, 4e-08, 0))
hIsland = hIsland.sub(rect(3.0625695249759782e-09, -9.909297463983662e-10).transl(-5.1992591170092295e-08, 4e-08, 0))
hIsland = hIsland.add(rect(8.88883208471278e-09, 2.1368220940035315e-10).transl(-7.777840700083211e-08, 3.7429941353219975e-08, 0))
hIsland = hIsland.sub(rect(7.736366730130893e-09, -1.0536837270250568e-09).transl(6.49594786295186e-08, 3.966197394426749e-08, 0))
hIsland = hIsland.sub(rect(7.695454223155271e-09, -1.8349526053879395e-09).transl(5.635690343643555e-08, 4e-08, 0))
hIsland = hIsland.sub(rect(5.228117343768619e-09, -1.8075889080659273e-09).transl(-1.4789464825370467e-08, 4e-08, 0))
hIsland = hIsland.sub(rect(4.018534586535497e-09, -1.1475094194440139e-09).transl(-1.073762913664453e-07, 1.9903501759875557e-08, 0))
hIsland = hIsland.add(rect(6.123725180097461e-09, 9.65837089130334e-10).transl(2.514098442976225e-09, 4e-08, 0))
hIsland = hIsland.sub(rect(9.054145545858074e-09, -2.6034690705697667e-09).transl(-3.916537367649895e-09, 4e-08, 0))
hIsland = hIsland.sub(rect(9.438276092101514e-09, -8.895306414245426e-11).transl(8.746195069509731e-10, 4e-08, 0))
hIsland = hIsland.add(rect(8.692434143339603e-09, 5.156417397664558e-09).transl(-1.0922552985205507e-07, 1.7470699627189746e-08, 0))
hIsland = hIsland.sub(rect(8.32861116947067e-09, -4.559119078818326e-09).transl(1.0087918642947593e-07, 2.6255651053891103e-08, 0))
hIsland = hIsland.sub(rect(2.2464212100315185e-09, -2.577428797544013e-09).transl(5.561527887223402e-09, 4e-08, 0))
hIsland = hIsland.add(rect(7.063786972856143e-09, 2.794819755112021e-10).transl(-1.0712627881434358e-07, 2.0203665629078697e-08, 0))
hIsland = hIsland.add(rect(5.355603045015321e-09, 8.924193502404035e-10).transl(8.988373851366591e-08, 3.30529486099601e-08, 0))
hIsland = hIsland.sub(rect(2.715320257203062e-09, -4.767820962161992e-10).transl(-7.300505351199231e-08, 3.8518301171325855e-08, 0))
hIsland = hIsland.sub(rect(6.6738152101189605e-09, -3.5215098359518483e-09).transl(-6.532749973655032e-08, 3.962763694137362e-08, 0))
hIsland = hIsland.sub(rect(4.910718494626047e-09, -8.491624817772567e-10).transl(-5.940802319824925e-08, 3.9977971688520396e-08, 0))
hIsland = hIsland.add(rect(4.87575545605212e-09, 2.1454026683047083e-10).transl(9.786752895518955e-08, 2.8485343531778428e-08, 0))
hIsland = hIsland.sub(rect(9.602301010783187e-09, -4.890330738164669e-10).transl(-5.592653484103385e-08, 4e-08, 0))
hIsland = hIsland.sub(rect(8.948988620762868e-09, -1.7317275850662374e-09).transl(5.858077262666669e-08, 3.999293354915094e-08, 0))
hIsland = hIsland.sub(rect(3.3143691714318362e-09, -2.5603704491843565e-09).transl(-8.994006343024847e-08, 3.302620901333459e-08, 0))
hIsland = hIsland.sub(rect(7.182353395365326e-09, -1.2871593581575012e-10).transl(3.158058100068669e-08, 4e-08, 0))
hIsland = hIsland.sub(rect(6.890296253891596e-09, -1.751465710448498e-09).transl(-6.344767090603121e-08, 3.978543715208033e-08, 0))
hIsland = hIsland.add(rect(2.9685960855481624e-09, 6.329776498126455e-11).transl(-1.8484261416638635e-08, 4e-08, 0))
hIsland = hIsland.sub(rect(8.951569790729194e-09, -2.3637237313723762e-09).transl(-4.2974588687140523e-08, 4e-08, 0))
hIsland = hIsland.sub(rect(3.836315907860204e-09, -6.084917692188403e-09).transl(-7.757771116972573e-08, 3.748226276503971e-08, 0))
hIsland = hIsland.sub(rect(4.043487452702912e-09, -5.335063460036095e-11).transl(-3.930418736232453e-08, 4e-08, 0))
hIsland = hIsland.sub(rect(2.1923894527359197e-09, -5.728197888396694e-10).transl(-1.897933560352994e-08, 4e-08, 0))
hIsland = hIsland.add(rect(7.104221284205256e-09, 8.832867111625729e-10).transl(1.6871538266020185e-08, 4e-08, 0))
hIsland = hIsland.sub(rect(9.074193136754936e-09, -1.8981849870624114e-09).transl(5.1549949805252606e-09, 4e-08, 0))
hIsland = hIsland.add(rect(7.130156067870426e-09, 1.2385887060967994e-09).transl(-4.688196482236998e-09, 4e-08, 0))
hIsland = hIsland.add(rect(4.465222134063088e-09, 1.8781404886082895e-09).transl(5.3478384182751105e-08, 4e-08, 0))
hIsland = hIsland.sub(rect(7.773170525652488e-09, -2.532130155019806e-10).transl(1.7116576462964073e-08, 4e-08, 0))
hIsland = hIsland.add(rect(6.156697245864045e-09, 5.380815675098044e-10).transl(4.220922630784068e-08, 4e-08, 0))
hIsland = hIsland.sub(rect(6.605233238578976e-09, -1.6912859848594158e-09).transl(-8.295768342580075e-08, 3.586595572815409e-08, 0))
hIsland = hIsland.sub(rect(3.406832439214134e-09, -4.612033658262787e-09).transl(2.214466854742546e-08, 4e-08, 0))
hIsland = hIsland.sub(rect(6.0282460142488975e-09, -2.7991793363380166e-09).transl(-3.731766897167132e-08, 4e-08, 0))
hIsland = hIsland.sub(rect(6.401243452702004e-09, -3.63947858235991e-09).transl(-2.0096065357812122e-08, 4e-08, 0))
hIsland = hIsland.add(rect(5.826571817822341e-09, 1.5402029727151853e-09).transl(7.356673673478701e-08, 3.8406741504607776e-08, 0))
hIsland = hIsland.add(rect(4.675224988222148e-09, 3.2711389988712964e-09).transl(-8.242657471987148e-08, 3.604603398449658e-08, 0))
hIsland = hIsland.add(rect(3.4499026837860774e-09, 1.450498244485891e-10).transl(4.041573282570356e-08, 4e-08, 0))
hIsland = hIsland.add(rect(6.139486142865458e-09, 1.7572113135094052e-09).transl(-9.423945422853003e-08, 3.077002938642021e-08, 0))
hIsland = hIsland.add(rect(4.916693626939017e-09, 3.786874903351862e-09).transl(1.0964051172930497e-07, 1.6863174572313315e-08, 0))
hIsland = hIsland.add(rect(4.582158812054628e-09, 2.8475123408250303e-09).transl(1.1144823480709893e-07, 1.384047091997969e-08, 0))
hIsland = hIsland.sub(rect(7.95573466262695e-09, -9.261102879487954e-10).transl(-8.88457931531913e-10, 4e-08, 0))
hIsland = hIsland.sub(rect(5.244807557880799e-09, -2.9796424269701505e-09).transl(3.6057875361367854e-08, 4e-08, 0))
hIsland = hIsland.add(rect(7.345565333959799e-09, 2.0959785687955222e-10).transl(-5.9250498982844e-08, 3.998145961734664e-08, 0))
hIsland = hIsland.add(rect(7.817662299496335e-09, 2.7045753923283924e-09).transl(-9.561241661171574e-08, 2.9950986653523675e-08, 0))
hIsland = hIsland.add(rect(9.855260491707403e-09, 3.0825114726866475e-09).transl(1.5068568759024327e-09, 4e-08, 0))
hIsland = hIsland.sub(rect(5.986668553408431e-09, -4.336420265936646e-11).transl(6.261607686432676e-08, 3.984135348946808e-08, 0))
hIsland = hIsland.sub(rect(4.471628227528844e-09, -1.5453376689529253e-09).transl(1.1407586146014143e-07, 7.1426203421129855e-09, 0))
hIsland = hIsland.add(rect(2.183368601701426e-09, 2.600373769177783e-10).transl(-1.9715776433105533e-08, 4e-08, 0))
hIsland = hIsland.sub(rect(9.918189242289466e-09, -1.2140343829431807e-10).transl(1.867577651649071e-08, 4e-08, 0))
hIsland = hIsland.add(rect(8.399008191177309e-09, 3.2525826510597627e-09).transl(7.72728187903768e-08, 3.756061573801179e-08, 0))
hIsland = hIsland.sub(rect(6.4777887635295926e-09, -1.3472019657368456e-11).transl(3.0453978465926846e-09, 4e-08, 0))
hIsland = hIsland.sub(rect(3.785256094656922e-09, -3.4210753805862594e-10).transl(6.16355191940259e-08, 3.98964101728278e-08, 0))
hIsland = hIsland.add(rect(4.972542960876248e-09, 8.741128018570519e-10).transl(-7.823021994334079e-08, 3.730997330548899e-08, 0))
hIsland = hIsland.add(rect(2.0143401875914772e-09, 7.496485890295558e-10).transl(1.2142796959928734e-08, 4e-08, 0))
hIsland = hIsland.add(rect(5.184727346546217e-09, 9.62647950055461e-10).transl(8.909772168838769e-08, 3.341907529303053e-08, 0))
hIsland = hIsland.sub(rect(7.525501039010495e-09, -1.0858421827755002e-09).transl(-4.8262131809319544e-08, 4e-08, 0))
hIsland = hIsland.sub(rect(2.8472635948058296e-09, -2.1318503639079774e-09).transl(5.244336782193282e-10, 4e-08, 0))
hIsland = hIsland.sub(rect(2.1897114777423055e-09, -2.3037564473305393e-09).transl(-3.7895721889242867e-08, 4e-08, 0))
hIsland = hIsland.sub(rect(7.1443729978454335e-09, -1.7386130158686874e-09).transl(-6.046428289716983e-08, 3.994681092404686e-08, 0))
hIsland = hIsland.sub(rect(9.880905236008668e-09, -1.7199024967966223e-09).transl(3.322322234325019e-08, 4e-08, 0))
hIsland = hIsland.sub(rect(7.619675095897853e-09, -3.2077499006902787e-09).transl(-7.062347062533648e-08, 3.8944249736278914e-08, 0))
hIsland = hIsland.sub(rect(4.147089679334564e-09, -9.425008165026385e-10).transl(3.969842012374024e-09, 4e-08, 0))
hIsland = hIsland.sub(rect(9.966936548540375e-09, -8.877200395144996e-10).transl(3.55102580242421e-08, 4e-08, 0))
hIsland = hIsland.sub(rect(5.372528922759416e-09, -1.883011057063407e-10).transl(8.442623199060528e-08, 3.5343156434744244e-08, 0))
hIsland = hIsland.add(rect(8.832947154955915e-09, 2.043713116405142e-11).transl(5.099842162368456e-09, 4e-08, 0))
hIsland = hIsland.sub(rect(4.365233034472124e-09, -2.3613736214686394e-09).transl(-1.0460532355015205e-07, 2.2939002466444562e-08, 0))
hIsland = hIsland.sub(rect(7.987329889812516e-09, -2.1029102095395677e-09).transl(-4.0232150058917164e-08, 4e-08, 0))
hIsland = hIsland.sub(rect(3.263189730886823e-09, -1.758473976215626e-09).transl(8.537003725692024e-08, 3.4987300476593316e-08, 0))
hIsland = hIsland.add(rect(5.044101257310685e-09, 1.1822987314320156e-09).transl(8.82004953249426e-08, 3.382135806392899e-08, 0))
hIsland = hIsland.sub(rect(4.72310007450809e-09, -3.981734900955482e-10).transl(6.07273621276692e-08, 3.993694316719188e-08, 0))
hIsland = hIsland.sub(rect(2.667384190885429e-09, -1.2678014354413443e-09).transl(-4.002045713268921e-08, 4e-08, 0))
hIsland = hIsland.add(rect(4.704619273221191e-09, 5.1894343046544465e-11).transl(-8.590047821750122e-08, 3.4780263134946674e-08, 0))
hIsland = hIsland.sub(rect(4.046283336559385e-09, -6.084908671827711e-10).transl(-3.6344782672359483e-09, 4e-08, 0))
hIsland = hIsland.sub(rect(5.724980418691272e-09, -1.0274791588437285e-09).transl(-8.637474436321428e-08, 3.4590769317279826e-08, 0))
hIsland = hIsland.sub(rect(6.1818358405005554e-09, -8.431819079762838e-11).transl(-8.896450770965044e-08, 3.34798446032758e-08, 0))
hIsland = hIsland.sub(rect(3.1909062346286037e-09, -1.2229382732162599e-09).transl(-3.045187752781535e-08, 4e-08, 0))
hIsland = hIsland.add(rect(2.878515103153892e-09, 3.3638929584294483e-09).transl(2.7828136167105882e-08, 4e-08, 0))
hIsland = hIsland.add(rect(3.1992363716634647e-09, 1.3493469886630223e-09).transl(-3.223612136425997e-09, 4e-08, 0))
hIsland = hIsland.sub(rect(8.91923676501273e-09, -1.0034833024987911e-10).transl(-5.5481207974245115e-08, 4e-08, 0))
hIsland = hIsland.add(rect(6.247224573345343e-09, 1.2684867309868525e-09).transl(5.18744941238396e-08, 4e-08, 0))
hIsland = hIsland.sub(rect(4.3896293486965016e-09, -7.353703911571741e-10).transl(-3.7252537924141e-08, 4e-08, 0))
hIsland = hIsland.sub(rect(4.729844937866121e-09, -1.76707740688943e-09).transl(-5.690629037907842e-08, 4e-08, 0))
hIsland = hIsland.sub(rect(6.353805062213616e-09, -1.6123548233684987e-09).transl(5.5193006024565734e-08, 4e-08, 0))
hIsland = hIsland.add(rect(3.4353990846571013e-09, 1.1982926270637015e-09).transl(9.467329281797952e-08, 3.051682894585213e-08, 0))
hIsland = hIsland.sub(rect(9.563809904915997e-09, -1.572111685683339e-09).transl(8.062864745229428e-08, 3.662141704918105e-08, 0))
hIsland = hIsland.sub(rect(2.6526559285382884e-09, -1.81410982640104e-09).transl(-2.8638331734543575e-08, 4e-08, 0))
hIsland = hIsland.add(rect(5.0962836745448336e-09, 7.370984903299556e-10).transl(-1.1170887439566083e-07, 1.3338537471189302e-08, 0))
hIsland = hIsland.add(rect(2.0202710286200923e-09, 2.9557492018972554e-09).transl(-7.380174654077015e-08, 3.835878733435999e-08, 0))
hIsland = hIsland.sub(rect(5.1859935649364356e-09, -1.0432118941583355e-09).transl(-4.7194080532074113e-08, 4e-08, 0))
hIsland = hIsland.add(rect(8.669080114245225e-09, 2.8306832517576932e-09).transl(6.178865486097274e-08, 3.988858548980681e-08, 0))
hIsland = hIsland.sub(rect(8.477063275896575e-09, -7.883377730842913e-10).transl(2.2661911260992175e-09, 4e-08, 0))
hIsland = hIsland.sub(rect(2.6202610566168007e-09, -2.1815401791467837e-09).transl(8.971636368527536e-08, 3.313200707184095e-08, 0))
hIsland = hIsland.add(rect(5.1214838380098156e-09, 8.498266736252177e-11).transl(-7.982774944105724e-08, 3.6861174467023286e-08, 0))
hIsland = hIsland.add(rect(3.6578516088009137e-09, 7.377955740144492e-11).transl(-5.973414308606997e-08, 3.996979489989691e-08, 0))
hIsland = hIsland.add(rect(2.5490327277135497e-09, 6.236280328522497e-10).transl(-1.522489612562143e-08, 4e-08, 0))
hIsland = hIsland.add(rect(2.9975293722548683e-09, 1.973897248623723e-09).transl(-2.9339711664654333e-08, 4e-08, 0))
hIsland = hIsland.add(rect(5.122771146034164e-09, 1.9324258018407073e-09).transl(-1.1021437107977563e-08, 4e-08, 0))
hIsland = hIsland.sub(rect(9.819244406012854e-09, -5.152753531941159e-10).transl(4.943211151363945e-08, 4e-08, 0))
hIsland = hIsland.add(rect(4.363192315658353e-09, 2.1625480404932173e-09).transl(-5.2470111488144186e-09, 4e-08, 0))
hIsland = hIsland.add(rect(6.059827487397754e-09, 1.8723219720754945e-09).transl(-6.775924801141152e-08, 3.935816449677088e-08, 0))
hIsland = hIsland.sub(rect(9.437807742094652e-09, -9.753569099263502e-10).transl(8.934352943255074e-08, 3.330597527296339e-08, 0))
hIsland = hIsland.add(rect(4.4056535339198855e-09, 4.974841681245563e-10).transl(7.728191797167859e-09, 4e-08, 0))
hIsland = hIsland.sub(rect(4.504869697286812e-09, -2.3618576619509368e-09).transl(-4.969405614824834e-08, 4e-08, 0))
hIsland = hIsland.add(rect(6.694059997296277e-09, 2.923846688352895e-09).transl(-4.738434176839269e-08, 4e-08, 0))
hIsland = hIsland.sub(rect(9.470448421215292e-09, -1.5978494009412375e-09).transl(-4.69888952741928e-08, 4e-08, 0))
hIsland = hIsland.sub(rect(8.557949080861623e-09, -7.605764803402075e-10).transl(9.753900808337767e-08, 2.8708848247591076e-08, 0))
hIsland = hIsland.sub(rect(6.634012089028225e-09, -1.938536471601001e-09).transl(-5.077778441991669e-08, 4e-08, 0))
hIsland = hIsland.add(rect(4.5165177476431856e-09, 1.6182083005573824e-09).transl(-1.442516522219465e-08, 4e-08, 0))
hIsland = hIsland.sub(rect(9.275221118486656e-09, -1.4775729004144535e-09).transl(5.124747406797734e-09, 4e-08, 0))
hIsland = hIsland.sub(rect(8.83905831865788e-09, -1.888666343635816e-09).transl(-7.260543510468972e-08, 3.8595067428170755e-08, 0))
hIsland = hIsland.add(rect(3.824124748356109e-09, 2.1028682141888264e-09).transl(9.905315091965035e-08, 2.7648000985863967e-08, 0))
hIsland = hIsland.add(rect(4.669687550017819e-09, 2.1489422957096968e-09).transl(-2.2280068883825114e-08, 4e-08, 0))
hIsland = hIsland.add(rect(7.058530995237491e-09, 3.6693962717941985e-09).transl(-4.1537724078793787e-08, 4e-08, 0))
hIsland = hIsland.add(rect(5.603035151616682e-09, 9.10054618392056e-10).transl(-8.143519910493032e-08, 3.636974579374283e-08, 0))
hIsland = hIsland.add(rect(3.245856278484093e-09, 1.9100044437135266e-09).transl(-7.756991690652575e-08, 3.748428276682693e-08, 0))
hIsland = hIsland.sub(rect(8.083427207843301e-09, -3.223342618220103e-10).transl(-8.773211427499528e-08, 3.402492504084804e-08, 0))
hIsland = hIsland.sub(rect(3.8150550454259095e-09, -3.966538018604926e-09).transl(9.534537353432756e-08, 3.011440980855127e-08, 0))
hIsland = hIsland.add(rect(3.2375497018258194e-09, 3.469388640258205e-09).transl(1.608424044888021e-09, 4e-08, 0))
hIsland = hIsland.sub(rect(4.992451085436475e-09, -8.369700529729591e-10).transl(6.407899886137408e-08, 3.9737310731322264e-08, 0))
hIsland = hIsland.add(rect(3.072280478882508e-09, 9.657763069152843e-10).transl(5.895444519525098e-08, 3.998720151648683e-08, 0))
hIsland = hIsland.add(rect(7.341705232170039e-09, 1.550941657563587e-09).transl(-7.17006612347235e-08, 3.876094521797916e-08, 0))
hIsland = hIsland.add(rect(6.9894128220027295e-09, 3.518514045392505e-11).transl(4.209279146874543e-08, 4e-08, 0))
hIsland = hIsland.sub(rect(4.680110601123956e-09, -4.208838664491545e-09).transl(3.546620168537125e-08, 4e-08, 0))
hIsland = hIsland.add(rect(8.518587340903533e-09, 7.221118594245954e-10).transl(-4.6656210073188714e-08, 4e-08, 0))
hIsland = hIsland.add(rect(4.413845464596645e-09, 1.6320150371568176e-09).transl(-7.096598523018018e-08, 3.8887623805618515e-08, 0))
hIsland = hIsland.add(rect(6.287191248493053e-09, 2.515617871616845e-09).transl(6.381703267928483e-08, 3.975787649183314e-08, 0))
hIsland = hIsland.add(rect(2.7868982824450034e-09, 1.401397669604986e-09).transl(-3.314312756829335e-08, 4e-08, 0))
hIsland = hIsland.add(rect(6.7845778416162535e-09, 1.4626379878254542e-09).transl(-4.8897612203500315e-08, 4e-08, 0))
hIsland = hIsland.add(rect(6.7328958725414034e-09, 4.556965675687619e-11).transl(1.3609961269603988e-08, 4e-08, 0))
hIsland = hIsland.add(rect(9.513837971625853e-09, 7.364655832251631e-10).transl(8.164085129197824e-08, 3.6303908888730006e-08, 0))
hIsland = hIsland.add(rect(6.4964654067002285e-09, 1.0653856398209417e-09).transl(8.769039234836729e-08, 3.404284784029599e-08, 0))
hIsland = hIsland.add(rect(4.25910047463023e-09, 2.4382195500447517e-10).transl(1.0375944912257124e-07, 2.3757447222421057e-08, 0))
hIsland = hIsland.sub(rect(8.245716216272512e-09, -1.177105822707699e-09).transl(-6.659008299949302e-08, 3.9496998524712796e-08, 0))
hIsland = hIsland.sub(rect(2.4380813206992518e-09, -8.025134418774672e-10).transl(-5.354516739263822e-08, 4e-08, 0))
vIsland = hIsland.rotz(pi / 2)
vIslands = vIslands.add(vIsland.transl(0, -a/2, 0))
DefRegion(1, hIslands)
DefRegion(2, vIslands)
TableAdd(m_full.Region(1))
TableAdd(m_full.Region(2))
setgeom(hIslands.add(vIslands))
save(geom)
r2o2 := sqrt(2) / 2
m = RandomMagSeed(4)
B_ext = vector(Bmax*r2o2, Bmax*r2o2, 0)
relax()
minimize()
for B := Bmax; B >= -Bmax; B -= Bstep {
	B_ext = vector(B*r2o2, B*r2o2, 0)
	minimize()
	tablesave()
}
//********************************************************************//
//Please cite the following references, relevant for your simulation. //
//See bibtex file in output folder for justification.                 //
//********************************************************************//
//   * Vansteenkiste et al., AIP Adv. 4, 107133 (2014).
//   * Exl et al., J. Appl. Phys. 115, 17D118 (2014).
