//mumax 3.10 [windows_amd64 go1.11.6(gc) CUDA-11.0]
//GPU info: NVIDIA GeForce RTX 3090(24575MB), CUDA Driver 12.1, cc=8.6, using cc=80 PTX
//(c) Arne Vansteenkiste, Dynamat LAB, Ghent University, Belgium
//This is free software without any warranty. See license.txt
//********************************************************************//
//  If you use mumax in any work or publication,                      //
//  we kindly ask you to cite the references in references.bib        //
//********************************************************************//
//output directory: r1;p0.5;a3.4000000000000003e-07;l1.8000000000000002e-07;s0.out/
randSeed(0)
ThermSeed(0)
resolution := 2e-09
zResolution := 5e-09
a := 3.4000000000000003e-07
gridSize := 340
gridDepth := 5
SetCellsize(resolution, resolution, zResolution)
SetGridsize(gridSize, gridSize, gridDepth)
SetPBC(16, 16, 0)
//resizing...
Msat = 700e3
Aex = 13e-12
alpha = 0.2
Bmax := 0.1
Bstep := Bmax / 500.0
TableAdd(B_ext)
TableAdd(m_full)
islandWidth := 8e-08
islandLength := 1.8000000000000002e-07
ellipseConstant := 4.5000000000000006e-08
hIsland := Universe().Inverse()
vIsland := Universe().Inverse()
vIslands := Universe().Inverse()
hIslands := Universe().Inverse()
hIsland = rect(islandLength-2*ellipseConstant, islandWidth)
hIsland = hIsland.add(ellipse(ellipseConstant*2, islandWidth).transl(islandLength/2-ellipseConstant, 0, 0))
hIsland = hIsland.add(ellipse(ellipseConstant*2, islandWidth).transl(-islandLength/2+ellipseConstant, 0, 0))
hIsland = hIsland.sub(rect(6.24036957655111e-09, -2.100489893787073e-09).transl(2.370468960731927e-08, -4e-08, 0))
hIsland = hIsland.sub(rect(6.512432267871101e-09, -1.0694147172228268e-10).transl(4.279185085201447e-08, -4e-08, 0))
hIsland = hIsland.add(rect(5.64994436382372e-09, 1.7880199698265781e-09).transl(1.2185751442464108e-08, -4e-08, 0))
hIsland = hIsland.add(rect(3.150057070558004e-09, 5.311840262073987e-10).transl(-4.59633730937658e-08, -3.999083265104909e-08, 0))
hIsland = hIsland.add(rect(8.834983406739309e-09, 1.5110289781403058e-09).transl(7.228586417366192e-08, -3.180783804385916e-08, 0))
hIsland = hIsland.sub(rect(6.550697570562541e-09, -3.980549506757557e-09).transl(-7.501456238716222e-08, -2.980265686665906e-08, 0))
hIsland = hIsland.add(rect(9.178073533039208e-09, 3.3347394767518104e-09).transl(4.551454890259706e-08, -3.9997384995280754e-08, 0))
hIsland = hIsland.sub(rect(9.438529888018903e-09, -5.410781381273346e-10).transl(-7.521500021808622e-08, -2.9642195641121274e-08, 0))
hIsland = hIsland.sub(rect(2.9155267412707435e-09, -1.2705263391490743e-09).transl(8.321551784812077e-09, -4e-08, 0))
hIsland = hIsland.sub(rect(4.38518293573691e-09, -2.437013288208434e-09).transl(-3.805383585889657e-08, -4e-08, 0))
hIsland = hIsland.add(rect(9.113598734620987e-09, 9.010965809316834e-10).transl(7.606719424165234e-08, -2.893779712214845e-08, 0))
hIsland = hIsland.sub(rect(2.7319224875292623e-09, -2.114860226152736e-11).transl(3.1542912232790785e-08, -4e-08, 0))
hIsland = hIsland.add(rect(9.415663116702692e-09, 2.9711143975311966e-09).transl(-8.171808472981931e-08, -2.312447910431657e-08, 0))
hIsland = hIsland.add(rect(5.160559343514374e-09, 3.7559368370347397e-10).transl(-5.787012007303121e-08, -3.832915284701689e-08, 0))
hIsland = hIsland.add(rect(4.946556955619975e-09, 1.4627719380966281e-09).transl(4.9475731403210833e-08, -3.980165965551415e-08, 0))
hIsland = hIsland.sub(rect(2.7241670452198382e-09, -1.3189696030773848e-09).transl(4.959549009321642e-08, -3.979087526944666e-08, 0))
hIsland = hIsland.add(rect(5.587204370294888e-09, 1.3172611691792458e-10).transl(-7.367185114422801e-08, -3.0829518668060355e-08, 0))
hIsland = hIsland.sub(rect(7.402840127949697e-09, -2.342190964190372e-09).transl(-5.3149196574945515e-08, -3.933863713326296e-08, 0))
hIsland = hIsland.sub(rect(6.969065745594082e-09, -1.295572959586411e-09).transl(4.9130512118940256e-08, -3.9831138581510405e-08, 0))
hIsland = hIsland.add(rect(4.333751092584122e-09, 4.612931801880749e-10).transl(-4.263304381010507e-08, -4e-08, 0))
hIsland = hIsland.sub(rect(2.8347536414396405e-09, -8.007291314450977e-10).transl(6.621725026269673e-08, -3.5274761138312675e-08, 0))
hIsland = hIsland.sub(rect(2.3138203902964777e-09, -2.6639313251045183e-09).transl(-4.482895750970978e-08, -4e-08, 0))
hIsland = hIsland.add(rect(4.69474071040369e-09, 3.8394511876043845e-10).transl(8.164313199573504e-08, -2.321822830162078e-08, 0))
hIsland = hIsland.sub(rect(5.494896600942002e-09, -2.6881897656815824e-09).transl(2.9767818659444326e-08, -4e-08, 0))
hIsland = hIsland.add(rect(2.320060440894506e-09, 1.3199634336105909e-09).transl(-4.9178382310380296e-08, -3.98271933530952e-08, 0))
hIsland = hIsland.add(rect(7.14915395691661e-09, 2.6865189454527777e-09).transl(2.4022318559356673e-08, -4e-08, 0))
hIsland = hIsland.add(rect(4.267346078253007e-09, 9.897798752242634e-10).transl(-3.121374748239295e-08, -4e-08, 0))
hIsland = hIsland.sub(rect(5.2205260666257574e-09, -2.182609271720398e-09).transl(5.065286748049097e-08, -3.968314094745042e-08, 0))
hIsland = hIsland.sub(rect(2.5260275439816885e-09, -1.146553473369848e-09).transl(2.536698795071511e-08, -4e-08, 0))
hIsland = hIsland.add(rect(5.37596634804134e-09, 2.1300955990922604e-09).transl(-8.776018885825802e-08, -1.2462407632353765e-08, 0))
hIsland = hIsland.add(rect(4.106239020799007e-09, 3.644128689660129e-09).transl(-5.790961060472253e-08, -3.831865823094281e-08, 0))
hIsland = hIsland.sub(rect(9.307778105551897e-09, -1.8614627398344806e-09).transl(2.2320053519805827e-08, -4e-08, 0))
hIsland = hIsland.sub(rect(7.93272356170296e-09, -1.3382438133267055e-09).transl(-1.2909492633330225e-08, -4e-08, 0))
hIsland = hIsland.add(rect(9.578992090335007e-09, 8.29248469722758e-10).transl(4.582578786421731e-08, -3.9993264365268696e-08, 0))
hIsland = hIsland.add(rect(5.308342267945236e-09, 1.8278057519230254e-09).transl(7.766441859776733e-08, -2.7513024635227456e-08, 0))
hIsland = hIsland.sub(rect(9.283391140654322e-09, -2.6225858026124354e-09).transl(-8.939316898227678e-10, -4e-08, 0))
hIsland = hIsland.add(rect(8.240183403839063e-09, 3.2183782509722684e-10).transl(-2.2007748504213984e-08, -4e-08, 0))
hIsland = hIsland.sub(rect(4.819964688046207e-09, -5.364890129725537e-10).transl(-7.76162189730998e-09, -4e-08, 0))
hIsland = hIsland.sub(rect(4.0098658867064625e-09, -2.5917723639515793e-09).transl(7.728964857958054e-08, -2.7860372772948655e-08, 0))
hIsland = hIsland.add(rect(5.205172544218112e-09, 3.458570695349757e-10).transl(-6.658446968036556e-08, -3.509828928888593e-08, 0))
hIsland = hIsland.add(rect(9.183632656505168e-09, 2.9274037319122082e-09).transl(-2.9041449371620568e-08, -4e-08, 0))
hIsland = hIsland.sub(rect(4.928573922544375e-09, -2.3356879126806622e-09).transl(2.0476515818410056e-08, -4e-08, 0))
hIsland = hIsland.sub(rect(4.109969206713582e-09, -3.1061753383937208e-09).transl(6.252769921896414e-08, -3.684098372799027e-08, 0))
hIsland = hIsland.add(rect(9.434795027627694e-09, 3.3374076774969257e-10).transl(-1.639371146115411e-08, -4e-08, 0))
hIsland = hIsland.sub(rect(8.004117487865865e-09, -4.530319667325975e-10).transl(7.920338980320424e-08, -2.5993398986856793e-08, 0))
hIsland = hIsland.add(rect(9.14681809938131e-09, 2.0300848199489321e-10).transl(-7.880921500570706e-08, -2.639771004954877e-08, 0))
hIsland = hIsland.sub(rect(3.5411650365612223e-09, -4.148478560144234e-09).transl(2.811315370344794e-08, -4e-08, 0))
hIsland = hIsland.sub(rect(6.553361184158772e-09, -8.668978291942667e-11).transl(-5.779090408673912e-08, -3.835009898247335e-08, 0))
hIsland = hIsland.sub(rect(6.080648247364664e-09, -1.0497287624248788e-09).transl(6.206086687386585e-08, -3.7013730614926573e-08, 0))
hIsland = hIsland.sub(rect(9.395229367712397e-09, -9.754186531587165e-10).transl(-4.998819604709275e-08, -3.975349128429456e-08, 0))
hIsland = hIsland.add(rect(4.663513203934073e-09, 2.3376545437637115e-09).transl(8.845593742647219e-08, -1.0388274582395171e-08, 0))
hIsland = hIsland.add(rect(2.7886023927179676e-09, 1.6470873916737924e-09).transl(-5.430017390911217e-08, -3.9136423781159214e-08, 0))
hIsland = hIsland.add(rect(5.332199699780298e-09, 6.261223076718842e-10).transl(-5.7608212675519704e-08, -3.839787003484607e-08, 0))
hIsland = hIsland.sub(rect(4.7528611867567135e-09, -1.0704925344174507e-09).transl(-6.682947050367109e-08, -3.497836190424982e-08, 0))
hIsland = hIsland.add(rect(6.374654888170246e-09, 9.428359684807857e-10).transl(-8.844071469930249e-08, -1.0438459047671772e-08, 0))
hIsland = hIsland.sub(rect(4.864972098563235e-09, -4.2912033031810216e-10).transl(-4.1555431720922505e-11, -4e-08, 0))
hIsland = hIsland.add(rect(5.4389864894108596e-09, 2.2481929400244487e-09).transl(3.800195258776226e-08, -4e-08, 0))
hIsland = hIsland.sub(rect(4.990726104126893e-09, -2.416594216478578e-09).transl(-2.3431653141920853e-08, -4e-08, 0))
hIsland = hIsland.add(rect(7.817514864421698e-09, 1.8107824653102109e-09).transl(1.7892038823274803e-08, -4e-08, 0))
hIsland = hIsland.sub(rect(8.825582078252624e-09, -4.732916836500409e-09).transl(4.866797843604716e-08, -3.986689888888336e-08, 0))
hIsland = hIsland.sub(rect(5.304626782832463e-09, -1.1857563676873538e-09).transl(-1.4466925106356143e-08, -4e-08, 0))
hIsland = hIsland.sub(rect(7.074513255005246e-09, -1.0005901758366097e-09).transl(-5.452415786911641e-08, -3.909383878086817e-08, 0))
hIsland = hIsland.sub(rect(3.419411669665189e-09, -1.3022173103718406e-10).transl(4.0820587985498935e-08, -4e-08, 0))
hIsland = hIsland.sub(rect(7.67491306591236e-09, -4.081072526888808e-09).transl(-2.352389513313682e-08, -4e-08, 0))
hIsland = hIsland.add(rect(4.406120676514185e-09, 1.2823302697741185e-09).transl(-5.74633005957425e-08, -3.843523217317104e-08, 0))
hIsland = hIsland.sub(rect(8.04117040508825e-09, -1.109877925517818e-09).transl(6.912643892938322e-08, -3.3765084686270314e-08, 0))
hIsland = hIsland.add(rect(3.1351783792035476e-09, 1.2409990207762945e-09).transl(-6.299128582880558e-09, -4e-08, 0))
hIsland = hIsland.add(rect(7.198361626793919e-09, 2.00052097562243e-09).transl(-4.6553138823234555e-08, -3.997616830601976e-08, 0))
hIsland = hIsland.sub(rect(2.8177427790113916e-09, -5.926299014758618e-10).transl(-6.731693372216806e-08, -3.473445758317409e-08, 0))
hIsland = hIsland.sub(rect(3.769404471187566e-09, -4.870592870611355e-10).transl(1.5732666609036613e-08, -4e-08, 0))
hIsland = hIsland.add(rect(5.548985689246293e-09, 7.031891685204815e-10).transl(-2.883487591866208e-08, -4e-08, 0))
hIsland = hIsland.sub(rect(4.510268979344496e-09, -1.4228741654557632e-10).transl(4.501625771189497e-11, -4e-08, 0))
hIsland = hIsland.add(rect(3.7183840897727507e-09, 1.0705569768365855e-09).transl(7.516325578392028e-08, -2.9683805293497363e-08, 0))
hIsland = hIsland.sub(rect(4.308479477891784e-09, -4.283248250328094e-09).transl(-1.0288724127222441e-08, -4e-08, 0))
hIsland = hIsland.add(rect(5.243498589413729e-09, 9.179581219422527e-11).transl(-4.055273384987685e-08, -4e-08, 0))
hIsland = hIsland.add(rect(5.846857298329801e-09, 2.9491626559145335e-09).transl(-5.136045285905594e-08, -3.9598425103265725e-08, 0))
hIsland = hIsland.add(rect(6.041649421041455e-09, 1.5639527994853582e-09).transl(-6.067356557659644e-08, -3.749530306312328e-08, 0))
hIsland = hIsland.add(rect(6.2365674892653225e-09, 1.6422271037089918e-09).transl(-2.638262344120509e-08, -4e-08, 0))
hIsland = hIsland.sub(rect(7.637932479280967e-09, -4.256365695071224e-09).transl(-4.795893361414521e-08, -3.991343434828961e-08, 0))
hIsland = hIsland.sub(rect(4.875220520366507e-09, -1.7110169521924e-09).transl(5.9199841939562224e-08, -3.795633086787063e-08, 0))
hIsland = hIsland.add(rect(8.733087036873482e-09, 7.753789896727906e-11).transl(-8.537931791828955e-08, -1.7655371583209343e-08, 0))
hIsland = hIsland.add(rect(7.168110926837418e-09, 1.3324028411193963e-09).transl(4.587904671709255e-08, -3.9992367438409126e-08, 0))
hIsland = hIsland.sub(rect(7.24679319293496e-09, -1.9885601247986577e-09).transl(3.393885760582153e-08, -4e-08, 0))
hIsland = hIsland.sub(rect(7.63446382370261e-09, -3.51557169168928e-09).transl(-8.140290664473559e-08, -2.3514906441233897e-08, 0))
hIsland = hIsland.sub(rect(3.914440581111077e-09, -6.451579599769203e-10).transl(7.904789618799923e-08, -2.6154198249252786e-08, 0))
hIsland = hIsland.add(rect(5.7748291965798205e-09, 5.622951348384995e-11).transl(-3.269065871136065e-08, -4e-08, 0))
hIsland = hIsland.add(rect(3.5428513556815773e-09, 3.3647015643919722e-09).transl(-1.2376914511835565e-08, -4e-08, 0))
hIsland = hIsland.add(rect(8.522666525703705e-09, 9.751134905851428e-10).transl(8.401364939715374e-08, -1.9934414155580194e-08, 0))
hIsland = hIsland.add(rect(6.136401675397619e-09, 1.2468831772058365e-10).transl(-7.370003295189817e-08, -3.080879282616248e-08, 0))
hIsland = hIsland.add(rect(6.122605619952705e-09, 3.001992007410337e-09).transl(7.446630809626435e-08, -3.023185058621913e-08, 0))
hIsland = hIsland.add(rect(4.087650262814059e-09, 4.790205546105873e-09).transl(4.4955475538680976e-08, -4e-08, 0))
hIsland = hIsland.add(rect(2.7215041714711224e-09, 6.840408809887334e-10).transl(2.2923752213862956e-08, -4e-08, 0))
hIsland = hIsland.add(rect(7.016846341068776e-09, 6.790463493926441e-10).transl(-6.576297026844376e-08, -3.548770265192554e-08, 0))
hIsland = hIsland.sub(rect(3.138270305882551e-09, -3.7063000075861262e-09).transl(1.951012814245966e-08, -4e-08, 0))
hIsland = hIsland.sub(rect(2.9243209130108413e-09, -3.549181836452786e-09).transl(-3.5110175385872544e-08, -4e-08, 0))
hIsland = hIsland.sub(rect(5.232801564774803e-09, -4.179294857718604e-09).transl(-5.765737650604016e-08, -3.838508784510617e-08, 0))
hIsland = hIsland.add(rect(2.7016001548074702e-09, 6.726551628410449e-10).transl(1.998893595638303e-08, -4e-08, 0))
hIsland = hIsland.sub(rect(7.298859161375512e-09, -2.7716246176121213e-10).transl(3.233566919173975e-08, -4e-08, 0))
hIsland = hIsland.sub(rect(8.804592422047787e-09, -1.3077266451126394e-10).transl(-3.8839565572147184e-08, -4e-08, 0))
hIsland = hIsland.add(rect(8.086609104624889e-09, 2.56925632225438e-10).transl(-4.682287911628921e-09, -4e-08, 0))
hIsland = hIsland.sub(rect(2.9862300187574436e-09, -2.5071308916753465e-10).transl(-4.49971084656115e-08, -4e-08, 0))
hIsland = hIsland.add(rect(7.156046746475277e-09, 7.159023224480767e-10).transl(4.631824656750143e-08, -3.9982833116100494e-08, 0))
hIsland = hIsland.add(rect(2.378669557858596e-09, 2.7933723310681893e-09).transl(-8.291128275548975e-08, -2.1549545825849555e-08, 0))
hIsland = hIsland.add(rect(4.7355075403545186e-09, 2.3687499477498753e-09).transl(5.2375891701954435e-08, -3.945902049657302e-08, 0))
hIsland = hIsland.sub(rect(3.0319532735334082e-09, -1.3469736627578058e-09).transl(-6.196628021834405e-09, -4e-08, 0))
hIsland = hIsland.add(rect(4.964725599165487e-09, 1.7936667436979045e-09).transl(-8.365797653387783e-08, -2.0474583587497065e-08, 0))
hIsland = hIsland.add(rect(3.940979345948546e-09, 1.8090363658227192e-10).transl(-4.473543055274087e-08, -4e-08, 0))
hIsland = hIsland.sub(rect(7.798995970157844e-09, -1.591999569223855e-09).transl(-3.2169826709862824e-08, -4e-08, 0))
hIsland = hIsland.add(rect(5.901495989452075e-09, 3.2250647105601056e-09).transl(1.9182291719306496e-08, -4e-08, 0))
hIsland = hIsland.sub(rect(9.05155686999389e-09, -2.832323411861521e-09).transl(4.095886551615433e-09, -4e-08, 0))
hIsland = hIsland.add(rect(7.80430217174405e-09, 1.1386578971465433e-09).transl(-2.011076093747586e-08, -4e-08, 0))
hIsland = hIsland.sub(rect(4.160408364272719e-09, -7.121980258969724e-09).transl(7.199168302152347e-08, -3.200554331820988e-08, 0))
hIsland = hIsland.add(rect(8.902351342830415e-09, 5.739680100091641e-10).transl(7.383546700448229e-08, -3.0708709893372105e-08, 0))
hIsland = hIsland.add(rect(7.945371721526324e-09, 6.850254781309613e-10).transl(5.354056584678442e-08, -3.9272985569838995e-08, 0))
hIsland = hIsland.add(rect(6.95118025282152e-09, 2.586150284748684e-10).transl(3.5582728724500103e-08, -4e-08, 0))
hIsland = hIsland.sub(rect(8.207263701591568e-09, -1.4102328174522314e-10).transl(5.9321215301374526e-08, -3.792028329624526e-08, 0))
hIsland = hIsland.add(rect(4.943084746136192e-09, 3.355997003840688e-09).transl(1.2530583943075794e-08, -4e-08, 0))
hIsland = hIsland.sub(rect(3.099786933866951e-09, -1.6046644719489527e-09).transl(7.211639736575798e-08, -3.1922139770506526e-08, 0))
hIsland = hIsland.sub(rect(9.749708484394638e-09, -3.3267963087844606e-09).transl(4.963031113853329e-08, -3.978768560665628e-08, 0))
hIsland = hIsland.sub(rect(7.56647962335798e-09, -3.1041498847976113e-09).transl(-5.857315947268082e-08, -3.813705593774067e-08, 0))
hIsland = hIsland.add(rect(9.180163072800661e-09, 3.2049335971586813e-09).transl(4.1048579424999464e-08, -4e-08, 0))
hIsland = hIsland.sub(rect(8.96415040924157e-09, -1.870390395246349e-09).transl(-4.230475586762398e-08, -4e-08, 0))
hIsland = hIsland.sub(rect(6.922043823387099e-09, -7.905582314982268e-10).transl(2.4842419517184503e-08, -4e-08, 0))
hIsland = hIsland.add(rect(6.937669335182359e-09, 1.1488540906254727e-09).transl(6.85333097488212e-08, -3.409422913136553e-08, 0))
hIsland = hIsland.add(rect(2.9353015392588493e-09, 1.7426938434469764e-09).transl(-2.9180786018951932e-08, -4e-08, 0))
hIsland = hIsland.add(rect(4.774122100868008e-09, 1.8607714493344563e-09).transl(-5.016790879620661e-08, -3.973534887927003e-08, 0))
hIsland = hIsland.add(rect(4.353179655000603e-09, 1.8266433331954975e-10).transl(-2.665133103638356e-10, -4e-08, 0))
hIsland = hIsland.add(rect(9.144977140164518e-09, 2.454498881414375e-10).transl(7.000128059422416e-08, -3.3258416180474914e-08, 0))
hIsland = hIsland.sub(rect(9.529519576092367e-09, -9.449943070645306e-10).transl(3.1479213172012267e-08, -4e-08, 0))
hIsland = hIsland.add(rect(3.386756187532546e-09, 9.948639471428384e-10).transl(2.59587782594051e-08, -4e-08, 0))
hIsland = hIsland.add(rect(6.159740071657761e-09, 2.736834846532895e-09).transl(-7.788590386253532e-08, -2.7303757471536078e-08, 0))
hIsland = hIsland.add(rect(2.0212362286897863e-09, 3.3121194149368178e-09).transl(7.459713397622476e-08, -3.013070667533838e-08, 0))
hIsland = hIsland.sub(rect(5.915281952080667e-09, -4.826302912489503e-11).transl(3.37941887552486e-10, -4e-08, 0))
hIsland = hIsland.sub(rect(9.512100948832616e-09, -1.3514420361232795e-09).transl(1.6706533645601728e-08, -4e-08, 0))
hIsland = hIsland.sub(rect(7.571034130484643e-09, -5.073193419093299e-09).transl(-8.166296154271419e-08, -2.3193481432760818e-08, 0))
hIsland = hIsland.sub(rect(6.453110884176034e-09, -6.59407881633996e-09).transl(5.991863623519024e-08, -3.773785386225669e-08, 0))
hIsland = hIsland.add(rect(7.117904252350748e-09, 2.693738515156826e-09).transl(1.642148725233333e-08, -4e-08, 0))
hIsland = hIsland.sub(rect(4.569198366136403e-09, -1.1692023591018242e-09).transl(-4.5069524400410996e-08, -3.9999952260294944e-08, 0))
hIsland = hIsland.add(rect(8.249699827212798e-09, 4.173377093549758e-09).transl(8.174293225405955e-08, -2.3093273960638606e-08, 0))
hIsland = hIsland.sub(rect(2.785764474389649e-09, -3.602324869455823e-09).transl(2.7971168394970888e-08, -4e-08, 0))
hIsland = hIsland.add(rect(8.80279438745685e-09, 2.0030055058978473e-09).transl(7.633068239829806e-08, -2.8712464233088328e-08, 0))
hIsland = hIsland.add(rect(2.896776781792839e-09, 1.0757256210625978e-09).transl(8.27894651081118e-08, -2.1717946415758772e-08, 0))
hIsland = hIsland.add(rect(7.903272301932849e-09, 3.4414440323381125e-09).transl(3.75693239271581e-08, -4e-08, 0))
hIsland = hIsland.sub(rect(6.6398447874775794e-09, -1.947804091253432e-09).transl(8.823823185989418e-08, -1.108281929207397e-08, 0))
hIsland = hIsland.sub(rect(5.653052905572487e-09, -6.27285170642232e-10).transl(-3.439016752558974e-08, -4e-08, 0))
hIsland = hIsland.sub(rect(7.818893511420972e-09, -2.575386946179478e-11).transl(6.473791619414799e-08, -3.594689816732567e-08, 0))
hIsland = hIsland.sub(rect(4.9102521599207195e-09, -6.587892587332546e-10).transl(8.568847800663696e-08, -1.708535452549823e-08, 0))
hIsland = hIsland.sub(rect(2.041757675605629e-09, -3.330099233451686e-10).transl(1.7216489609002462e-08, -4e-08, 0))
hIsland = hIsland.add(rect(4.2863081118012535e-09, 3.919804318955906e-09).transl(5.28781152284009e-08, -3.938224504831287e-08, 0))
hIsland = hIsland.sub(rect(3.4466854575050862e-09, -8.331809134925271e-11).transl(2.9903874707611556e-08, -4e-08, 0))
hIsland = hIsland.sub(rect(3.6402006030808273e-09, -7.485605895949004e-10).transl(4.308262053224267e-08, -4e-08, 0))
hIsland = hIsland.sub(rect(6.0875772276088e-09, -2.777279388134794e-09).transl(3.8365685918417214e-08, -4e-08, 0))
hIsland = hIsland.sub(rect(4.773585218057207e-09, -7.270229559981658e-10).transl(1.0092942413428587e-08, -4e-08, 0))
hIsland = hIsland.sub(rect(8.604242813228759e-09, -9.82552965238843e-10).transl(3.601365679876193e-08, -4e-08, 0))
hIsland = hIsland.sub(rect(6.616844105986467e-09, -1.0502078893208683e-09).transl(8.263324028785368e-08, -2.1931236651993925e-08, 0))
hIsland = hIsland.sub(rect(4.511056333225599e-09, -8.86420497341946e-10).transl(-8.312911563639928e-09, -4e-08, 0))
hIsland = hIsland.sub(rect(5.416108872168141e-09, -1.0418815919258667e-09).transl(-4.654314077525837e-08, -3.997647423281722e-08, 0))
hIsland = hIsland.add(rect(4.878556322946303e-09, 1.4488144740494482e-09).transl(-3.0330694698239034e-08, -4e-08, 0))
hIsland = hIsland.sub(rect(6.5331820242988364e-09, -7.91731843535312e-11).transl(-3.933698098040428e-08, -4e-08, 0))
hIsland = hIsland.add(rect(2.2489370974095605e-09, 2.1320313658193856e-09).transl(-6.731768666661376e-08, -3.47340753383554e-08, 0))
hIsland = hIsland.add(rect(4.268966665062327e-09, 4.183159954176257e-09).transl(4.015961176251764e-08, -4e-08, 0))
hIsland = hIsland.sub(rect(5.3398713631128464e-09, -2.43512943674318e-09).transl(8.31351103439964e-08, -2.1235206900095248e-08, 0))
hIsland = hIsland.sub(rect(9.405410135375494e-09, -1.8813500306758635e-09).transl(8.520162720144105e-08, -1.7972910652384666e-08, 0))
hIsland = hIsland.sub(rect(3.905119221793532e-09, -5.019337802709406e-10).transl(7.483574001315948e-08, -2.994419326703517e-08, 0))
hIsland = hIsland.sub(rect(2.711187702740257e-09, -1.2630659943933709e-09).transl(2.8306530593729682e-08, -4e-08, 0))
hIsland = hIsland.add(rect(7.4249380659086845e-09, 6.836410781459618e-10).transl(6.093017992794576e-08, -3.7409756355638916e-08, 0))
hIsland = hIsland.sub(rect(5.8428831384025926e-09, -4.341995720468668e-09).transl(5.7987537715549284e-08, -3.8297846263394054e-08, 0))
hIsland = hIsland.add(rect(2.8296238157857254e-09, 1.9098127982648083e-10).transl(4.42666919804841e-08, -4e-08, 0))
hIsland = hIsland.sub(rect(4.740324544282389e-09, -2.6430221732040553e-09).transl(-8.983108354647572e-08, -3.4625557447588215e-09, 0))
hIsland = hIsland.sub(rect(9.868846486826766e-09, -2.4938336498483234e-09).transl(5.309223667367994e-10, -4e-08, 0))
hIsland = hIsland.sub(rect(4.00485153452085e-09, -1.6594175654983398e-09).transl(-3.8956974211214575e-08, -4e-08, 0))
hIsland = hIsland.sub(rect(2.4181923324645658e-09, -6.101025563951787e-10).transl(1.569995700602798e-08, -4e-08, 0))
hIsland = hIsland.add(rect(4.210943293225711e-09, 3.2166588549864912e-09).transl(5.098083349361057e-08, -3.9645138317014044e-08, 0))
hIsland = hIsland.add(rect(3.094671763821479e-09, 2.305125077236117e-09).transl(5.418264292919533e-08, -3.9158345909755545e-08, 0))
hIsland = hIsland.sub(rect(4.783276095694656e-09, -2.860814227348419e-09).transl(-7.19366261911648e-08, -3.20421718341909e-08, 0))
hIsland = hIsland.add(rect(3.3583234678444562e-09, 8.847379938901684e-10).transl(5.327278782502642e-08, -3.931824927694676e-08, 0))
hIsland = hIsland.add(rect(8.285911765609752e-09, 2.986311798542687e-09).transl(2.8802059793876228e-08, -4e-08, 0))
hIsland = hIsland.add(rect(7.01358095351524e-09, 2.808231038438189e-09).transl(1.9488600916198562e-09, -4e-08, 0))
hIsland = hIsland.add(rect(9.192980775497716e-09, 1.615735312588645e-10).transl(4.093180984544657e-08, -4e-08, 0))
hIsland = hIsland.add(rect(9.187695471438438e-09, 2.5822529208520436e-09).transl(7.587211081637846e-08, -2.910229245550812e-08, 0))
hIsland = hIsland.add(rect(7.295635494780061e-09, 1.4477577434338042e-10).transl(2.118968324816114e-08, -4e-08, 0))
hIsland = hIsland.add(rect(9.544219384563809e-09, 2.598723917645343e-09).transl(1.9321839472816985e-08, -4e-08, 0))
hIsland = hIsland.add(rect(7.813650135551517e-09, 1.7483656230057146e-09).transl(2.4024937341247116e-08, -4e-08, 0))
hIsland = hIsland.sub(rect(5.000992637602434e-09, -6.758907291508962e-10).transl(-6.413905611818707e-08, -3.620186510063197e-08, 0))
hIsland = hIsland.add(rect(9.520403665285527e-09, 2.125279312356397e-09).transl(-5.006033593456031e-11, -4e-08, 0))
hIsland = hIsland.sub(rect(5.54663035766336e-09, -8.188175036207809e-10).transl(7.535873832509009e-08, -2.9525926767060046e-08, 0))
hIsland = hIsland.sub(rect(4.024251593989183e-09, -5.354362319191824e-10).transl(4.925629080799841e-08, -3.9820674459581904e-08, 0))
hIsland = hIsland.add(rect(6.366798743016935e-09, 1.8204259995598533e-09).transl(1.5212152935653954e-08, -4e-08, 0))
hIsland = hIsland.add(rect(4.668942116995647e-09, 2.471252501826858e-09).transl(-6.248428433628758e-09, -4e-08, 0))
hIsland = hIsland.add(rect(8.864262200840007e-09, 2.518706982184197e-09).transl(3.084049258750937e-08, -4e-08, 0))
hIsland = hIsland.sub(rect(4.469411766936628e-09, -9.408979835416764e-10).transl(6.474737345270819e-08, -3.594279396348662e-08, 0))
hIsland = hIsland.add(rect(7.616486449933484e-09, 1.1800606025190069e-09).transl(-5.01245741333837e-08, -3.973978312007728e-08, 0))
hIsland = hIsland.sub(rect(6.594105748349154e-09, -1.6440981513063185e-09).transl(8.921930957377798e-08, -7.4185039691608e-09, 0))
hIsland = hIsland.add(rect(2.541729968508591e-09, 3.0941171735669886e-09).transl(1.994409785595573e-08, -4e-08, 0))
hIsland = hIsland.sub(rect(3.6649766555213914e-09, -1.4863131830594302e-09).transl(-8.483433810736828e-08, -1.8607854601681735e-08, 0))
hIsland = hIsland.add(rect(7.924741488689976e-09, 6.109621213792001e-11).transl(4.3148628836421595e-10, -4e-08, 0))
hIsland = hIsland.add(rect(2.095600862571035e-09, 1.2494761852305997e-09).transl(-7.1591952637500695e-09, -4e-08, 0))
hIsland = hIsland.add(rect(7.3073528770858535e-09, 1.664749991863574e-09).transl(1.2645756665464574e-08, -4e-08, 0))
hIsland = hIsland.sub(rect(8.964599865077933e-09, -2.015718453259156e-09).transl(4.245852650338943e-09, -4e-08, 0))
hIsland = hIsland.sub(rect(2.9609647526479866e-09, -1.1077774520494794e-09).transl(7.400934497321387e-08, -3.0579042664084636e-08, 0))
hIsland = hIsland.sub(rect(8.287617793297887e-09, -1.4124020101966784e-09).transl(8.130454208278027e-08, 2.3634755310670533e-08, 0))
hIsland = hIsland.sub(rect(6.804385331520079e-09, -1.4869057584360104e-09).transl(2.8194473043327975e-09, 4e-08, 0))
hIsland = hIsland.sub(rect(9.970840044277445e-09, -1.3211554066460165e-11).transl(-4.656971839672508e-08, 3.997565663354324e-08, 0))
hIsland = hIsland.sub(rect(5.035641110150316e-09, -1.983877778132339e-09).transl(-7.666428405604118e-08, 2.8421839840615518e-08, 0))
hIsland = hIsland.sub(rect(9.641018983048457e-09, -3.0019798864643845e-09).transl(-8.720208760442618e-08, 1.3884427424327004e-08, 0))
hIsland = hIsland.sub(rect(9.99237785288189e-09, -9.318805737074704e-10).transl(-6.121689687648545e-08, 3.7312293073171227e-08, 0))
hIsland = hIsland.sub(rect(2.824262795385478e-09, -4.025865793980596e-09).transl(-1.9702144334450264e-08, 4e-08, 0))
hIsland = hIsland.add(rect(5.0019641078159916e-09, 1.748850729839193e-09).transl(3.0285832477251195e-08, 4e-08, 0))
hIsland = hIsland.sub(rect(7.521370068047514e-09, -1.8667524081990723e-10).transl(5.730463365375844e-08, 3.8475604488532234e-08, 0))
hIsland = hIsland.add(rect(9.428418628987153e-09, 1.8177623687202961e-09).transl(2.812112531615671e-08, 4e-08, 0))
hIsland = hIsland.sub(rect(9.471781335253859e-09, -1.1482546974342145e-10).transl(3.330829869765958e-08, 4e-08, 0))
hIsland = hIsland.sub(rect(8.003462680473244e-09, -3.48090155222936e-09).transl(-7.705289744193574e-08, 2.8075549090837032e-08, 0))
hIsland = hIsland.sub(rect(9.762241892339686e-09, -7.554853605817337e-10).transl(-3.10741445934638e-08, 4e-08, 0))
hIsland = hIsland.sub(rect(9.011652090073144e-09, -3.0124003767066375e-10).transl(6.649602403654513e-08, 3.5141151150663764e-08, 0))
hIsland = hIsland.add(rect(6.585773293185763e-09, 1.0187529993331466e-09).transl(1.7545042012717097e-09, 4e-08, 0))
hIsland = hIsland.sub(rect(8.030785446842355e-09, -1.3782643749036704e-09).transl(-7.590261234623056e-08, 2.907670299279543e-08, 0))
hIsland = hIsland.sub(rect(2.412769728711451e-09, -1.7393066162450092e-09).transl(4.3075845288074795e-08, 4e-08, 0))
hIsland = hIsland.add(rect(3.2906960935954174e-09, 1.5240240919616335e-09).transl(-6.298562610674547e-08, 3.666617915956971e-08, 0))
hIsland = hIsland.add(rect(3.579417293837941e-09, 6.594324819043134e-10).transl(-6.484100491899547e-10, 4e-08, 0))
hIsland = hIsland.add(rect(3.727097399524731e-09, 2.5337862988326015e-09).transl(6.818101267720065e-08, 3.428439548591513e-08, 0))
hIsland = hIsland.add(rect(8.115258607756524e-09, 4.313598757634852e-09).transl(4.579354701016886e-09, 4e-08, 0))
hIsland = hIsland.sub(rect(5.604385966950544e-09, -1.3694017474147698e-10).transl(-7.804091639100582e-08, 2.7155487820138308e-08, 0))
hIsland = hIsland.add(rect(4.114653629304367e-09, 1.7448576750573079e-09).transl(5.791843627546059e-08, 3.8316308017685687e-08, 0))
hIsland = hIsland.sub(rect(5.658940765048765e-09, -9.67637466825843e-10).transl(5.435549588457224e-08, 3.912600420235206e-08, 0))
hIsland = hIsland.sub(rect(9.600276502238462e-09, -3.890477027024319e-09).transl(-4.842932704563146e-08, 3.9883679917533037e-08, 0))
hIsland = hIsland.add(rect(6.8339173828488595e-09, 1.5147785393307783e-09).transl(-1.3439911482000553e-08, 4e-08, 0))
hIsland = hIsland.add(rect(3.5466586586630326e-09, 6.907058107237501e-10).transl(1.7961730234496213e-09, 4e-08, 0))
hIsland = hIsland.sub(rect(9.803465711601441e-09, -2.2017509679964947e-09).transl(8.33531865845704e-08, 2.0922584242983585e-08, 0))
hIsland = hIsland.add(rect(6.065494810162344e-09, 2.5945797092211856e-09).transl(-7.941038194636416e-09, 4e-08, 0))
hIsland = hIsland.add(rect(2.3310990320826344e-09, 2.9084482996130868e-09).transl(-6.843023487049745e-08, 3.415027466051052e-08, 0))
hIsland = hIsland.add(rect(5.398981656135908e-09, 1.0033515009930737e-09).transl(-9.042505995910556e-09, 4e-08, 0))
hIsland = hIsland.sub(rect(5.781868031279535e-09, -9.54296573906637e-10).transl(1.4088417269474126e-08, 4e-08, 0))
hIsland = hIsland.sub(rect(3.729098581471585e-09, -1.3407801128623824e-10).transl(-5.960976916849756e-08, 3.783321051863995e-08, 0))
hIsland = hIsland.sub(rect(8.256420356638163e-09, -1.1990477890153122e-09).transl(3.7403969920360194e-08, 4e-08, 0))
hIsland = hIsland.add(rect(5.945663130231142e-09, 1.0651668676151354e-09).transl(-3.6111564725158584e-08, 4e-08, 0))
hIsland = hIsland.add(rect(8.168743284087447e-09, 7.399330479715272e-10).transl(-2.4243131800379378e-08, 4e-08, 0))
hIsland = hIsland.sub(rect(5.196630495733451e-09, -1.9883363171912312e-09).transl(-6.101090098785056e-08, 3.738251838937087e-08, 0))
hIsland = hIsland.sub(rect(2.066630219616445e-09, -4.822216461501959e-09).transl(-3.533490763254202e-09, 4e-08, 0))
hIsland = hIsland.add(rect(5.723157986052215e-09, 1.5936641424744474e-09).transl(5.2589325950525375e-08, 3.9427028459284506e-08, 0))
hIsland = hIsland.sub(rect(3.94113232096222e-09, -2.5218871583057737e-09).transl(-6.510500128090497e-08, 3.578579811823207e-08, 0))
hIsland = hIsland.sub(rect(4.931556620218455e-09, -3.568678773139977e-09).transl(-2.69286119396093e-08, 4e-08, 0))
hIsland = hIsland.add(rect(6.049372764595887e-09, 1.4582605707359088e-09).transl(-4.9856234109368876e-08, 3.9766399269164034e-08, 0))
hIsland = hIsland.add(rect(2.6488671173738523e-09, 1.3047081104939997e-09).transl(-7.543878201218438e-08, 2.946074081007296e-08, 0))
hIsland = hIsland.add(rect(6.9008117188037555e-09, 2.869122984295127e-09).transl(4.609474209340228e-08, 3.998816160369968e-08, 0))
hIsland = hIsland.add(rect(9.430996641163764e-09, 3.166412052404951e-09).transl(-5.050526120672315e-08, 3.9699534210491375e-08, 0))
hIsland = hIsland.sub(rect(3.6403290878921216e-09, -1.930994085096874e-09).transl(6.45465696561465e-08, 3.6029415852310136e-08, 0))
hIsland = hIsland.add(rect(8.546246677085886e-09, 6.655753546409848e-10).transl(5.380829658270373e-09, 4e-08, 0))
hIsland = hIsland.sub(rect(7.858657675429643e-09, -5.906691497613291e-10).transl(-2.0188063029340373e-08, 4e-08, 0))
hIsland = hIsland.add(rect(7.133132999485838e-09, 4.474767847370071e-10).transl(5.335699986480313e-08, 3.93041755405355e-08, 0))
hIsland = hIsland.add(rect(3.456749186764384e-09, 2.538285880666372e-09).transl(5.878000218225275e-08, 3.8078401666395426e-08, 0))
hIsland = hIsland.sub(rect(9.87825439430643e-09, -1.3772842733415817e-10).transl(7.990600292488116e-08, 2.5244615958856925e-08, 0))
hIsland = hIsland.add(rect(5.585420128689273e-09, 2.6355235730579804e-09).transl(4.800549261997036e-08, 3.991068561130574e-08, 0))
hIsland = hIsland.sub(rect(3.6806237141025113e-09, -4.977545662417924e-10).transl(-5.855858243229703e-08, 3.8141152706998164e-08, 0))
hIsland = hIsland.sub(rect(4.746735109172628e-09, -1.5746243515764452e-09).transl(5.854927151341542e-09, 4e-08, 0))
hIsland = hIsland.add(rect(6.92645599593536e-09, 8.182425359662988e-10).transl(2.3948709163614884e-08, 4e-08, 0))
hIsland = hIsland.sub(rect(4.645606668201565e-09, -5.826152941807581e-10).transl(4.4394059115376074e-09, 4e-08, 0))
hIsland = hIsland.add(rect(5.431089163073357e-09, 9.242827684120261e-10).transl(-6.395459050585582e-08, 3.627846756539053e-08, 0))
hIsland = hIsland.add(rect(6.836523315568646e-09, 1.732794277381554e-09).transl(1.4430412707310604e-08, 4e-08, 0))
hIsland = hIsland.sub(rect(3.0110645706814136e-09, -1.5033543102269884e-09).transl(8.087576858485695e-08, 2.4146535835313064e-08, 0))
hIsland = hIsland.sub(rect(6.5208458886848366e-09, -1.7209129255766246e-09).transl(-4.396008598537486e-09, 4e-08, 0))
hIsland = hIsland.add(rect(2.486624518530935e-09, 2.2233609292878867e-09).transl(-7.591232577758014e-08, 2.9068543806471365e-08, 0))
hIsland = hIsland.add(rect(9.436225822060778e-09, 2.583662913864308e-09).transl(-3.490020570518691e-08, 4e-08, 0))
hIsland = hIsland.add(rect(7.961013176016755e-09, 2.8658051030687893e-09).transl(6.274357001623233e-08, 3.675924445365015e-08, 0))
hIsland = hIsland.add(rect(4.934169606458932e-09, 2.1035529158304592e-09).transl(7.01549236671985e-08, 3.316675194089814e-08, 0))
hIsland = hIsland.add(rect(4.346448850015663e-09, 1.6648380115157334e-10).transl(3.2791016405501086e-08, 4e-08, 0))
hIsland = hIsland.add(rect(2.4419884221214235e-09, 7.535600150346213e-11).transl(-7.444695699915972e-08, 3.0246744606658997e-08, 0))
hIsland = hIsland.sub(rect(7.32854190178927e-09, -1.6459447369578864e-09).transl(-8.479438363478733e-08, 1.8675279095259158e-08, 0))
hIsland = hIsland.add(rect(8.448371350103721e-09, 1.4104800042598766e-09).transl(-6.439917250488024e-09, 4e-08, 0))
hIsland = hIsland.sub(rect(9.79856894199793e-09, -3.1644489371900964e-09).transl(-4.860586187465401e-08, 3.987137601458629e-08, 0))
hIsland = hIsland.sub(rect(3.935451343159709e-09, -1.8976351054633453e-09).transl(-2.520381988096912e-08, 4e-08, 0))
hIsland = hIsland.add(rect(9.442917832126096e-09, 2.1371709138069355e-09).transl(3.3919361128735336e-09, 4e-08, 0))
hIsland = hIsland.add(rect(9.392314794869219e-09, 9.666545953158972e-10).transl(8.294680423569469e-08, 2.1500089891016026e-08, 0))
hIsland = hIsland.sub(rect(9.045650339528898e-09, -2.9842064338854977e-09).transl(4.964970694535086e-08, 3.9785898367344634e-08, 0))
hIsland = hIsland.sub(rect(9.813231059791825e-09, -2.2254548461236918e-09).transl(-5.3297793420550524e-08, 3.931408567955828e-08, 0))
hIsland = hIsland.sub(rect(5.9561071785126295e-09, -1.6693200555349837e-10).transl(2.6622025813227766e-08, 4e-08, 0))
hIsland = hIsland.sub(rect(4.827558423456277e-09, -4.899189452392911e-10).transl(-4.6012880047502075e-08, 3.9989866113927844e-08, 0))
hIsland = hIsland.add(rect(2.4971583531720585e-09, 1.6590966805134102e-09).transl(-7.723389064194897e-08, 2.7911341741196836e-08, 0))
hIsland = hIsland.sub(rect(8.22891706402111e-09, -1.333991235927875e-09).transl(-5.1124002776627306e-08, 3.9627864893821266e-08, 0))
hIsland = hIsland.add(rect(2.1123229941148438e-09, 1.2455226271144164e-09).transl(4.328584395489332e-08, 4e-08, 0))
hIsland = hIsland.add(rect(5.4829824596889654e-09, 3.401653375371089e-10).transl(3.7823792355032425e-08, 4e-08, 0))
hIsland = hIsland.add(rect(3.5493432741489654e-09, 3.596760661212318e-10).transl(2.1665831297731286e-09, 4e-08, 0))
hIsland = hIsland.add(rect(5.5668854109097175e-09, 6.769961118129774e-10).transl(-7.665185094851983e-08, 2.8432779990727845e-08, 0))
hIsland = hIsland.add(rect(4.11128291366418e-09, 1.357674235234707e-09).transl(-8.798308422345484e-08, 1.1841070043051653e-08, 0))
hIsland = hIsland.sub(rect(9.508392077280327e-09, -2.157995835528839e-09).transl(-8.446489163505772e-08, 1.9219790792569644e-08, 0))
hIsland = hIsland.add(rect(8.01155195587458e-09, 2.8495696196284496e-09).transl(2.879489469316437e-08, 4e-08, 0))
hIsland = hIsland.add(rect(3.4361337093045822e-09, 2.5731379555004286e-10).transl(1.6097493295995098e-08, 4e-08, 0))
hIsland = hIsland.sub(rect(6.626846994557157e-09, -2.660487369819293e-10).transl(-3.1930746694707474e-08, 4e-08, 0))
hIsland = hIsland.sub(rect(6.547655102529626e-09, -2.9980239052991907e-09).transl(7.31463138039161e-08, 3.1209811932949235e-08, 0))
hIsland = hIsland.sub(rect(6.5325034868775516e-09, -6.292206535128104e-09).transl(5.7091019590097475e-08, 3.852907571272047e-08, 0))
hIsland = hIsland.add(rect(6.6178417068287475e-09, 5.50677525874452e-10).transl(8.003500136214456e-08, 2.5103026105392615e-08, 0))
hIsland = hIsland.sub(rect(8.174295138013357e-09, -3.3511812761881233e-09).transl(-3.987559039950803e-08, 4e-08, 0))
hIsland = hIsland.sub(rect(8.858437830324959e-09, -8.679835332949815e-10).transl(-6.291612122413627e-08, 3.6693055557540906e-08, 0))
hIsland = hIsland.sub(rect(6.588128541809741e-09, -5.686544008813471e-10).transl(-3.0422712612509146e-08, 4e-08, 0))
hIsland = hIsland.sub(rect(4.13269001519847e-09, -1.2525580602327634e-09).transl(7.983757551678237e-08, 2.5319190315101604e-08, 0))
hIsland = hIsland.sub(rect(5.856594604652573e-09, -3.467611884229366e-10).transl(-5.413863771005512e-08, 3.9166478998995464e-08, 0))
hIsland = hIsland.add(rect(3.3382030627212392e-09, 8.693715000445758e-10).transl(9.317846454091162e-09, 4e-08, 0))
hIsland = hIsland.add(rect(5.542900540545485e-09, 1.0786980672874306e-09).transl(5.7695341888782494e-08, 3.837518019210893e-08, 0))
hIsland = hIsland.sub(rect(7.200455687522651e-09, -2.8149662468464506e-10).transl(-1.628772843598194e-08, 4e-08, 0))
hIsland = hIsland.add(rect(4.5120205572012475e-09, 4.09246253755783e-09).transl(-6.789386761612842e-08, 3.443651034728858e-08, 0))
hIsland = hIsland.add(rect(4.109930277741623e-09, 3.2498712289127647e-10).transl(4.2888927294788834e-08, 4e-08, 0))
hIsland = hIsland.add(rect(7.231517776374214e-09, 3.7239750184129443e-10).transl(4.087790309852049e-08, 4e-08, 0))
hIsland = hIsland.sub(rect(9.520832884042855e-09, -1.074021913104631e-09).transl(-8.045500437659041e-08, 2.4632691952252843e-08, 0))
hIsland = hIsland.sub(rect(8.543647476415149e-09, -6.884088764345926e-10).transl(4.955827548233716e-08, 3.9794257290287864e-08, 0))
hIsland = hIsland.sub(rect(2.4243210807285716e-09, -3.9071183510077453e-10).transl(-8.912124607625648e-08, 7.866322386863026e-09, 0))
hIsland = hIsland.sub(rect(2.7839495708167172e-09, -1.7854728305329252e-09).transl(2.5833358769458962e-08, 4e-08, 0))
hIsland = hIsland.add(rect(6.1732667347488996e-09, 1.8337864079170588e-09).transl(-5.27038329084213e-08, 3.940947766956511e-08, 0))
hIsland = hIsland.add(rect(9.016077778313671e-09, 2.291816949324163e-09).transl(1.875768682114991e-08, 4e-08, 0))
hIsland = hIsland.sub(rect(5.2967951626158976e-09, -9.822276560443768e-10).transl(-3.7381814538020323e-08, 4e-08, 0))
hIsland = hIsland.add(rect(3.84363596085268e-09, 1.5355862571988903e-09).transl(5.719912091289425e-08, 3.850214243405061e-08, 0))
hIsland = hIsland.sub(rect(8.720598144939462e-09, -2.5859684611832973e-09).transl(-1.1021126920537974e-08, 4e-08, 0))
hIsland = hIsland.add(rect(6.605599544654664e-09, 2.7512413956596954e-09).transl(4.1256667177179725e-08, 4e-08, 0))
hIsland = hIsland.sub(rect(2.8707211886859536e-09, -1.4208883286543588e-09).transl(5.812109822288055e-08, 3.826185832663932e-08, 0))
hIsland = hIsland.sub(rect(4.139150364952908e-09, -1.8867172446478464e-09).transl(9.834585154325127e-09, 4e-08, 0))
hIsland = hIsland.sub(rect(5.722595825369733e-09, -8.641654354166378e-10).transl(2.3865938021110903e-08, 4e-08, 0))
hIsland = hIsland.add(rect(6.2734635539217045e-09, 1.8231635650608085e-09).transl(7.714139707335263e-08, 2.7995493029484494e-08, 0))
hIsland = hIsland.sub(rect(2.742104170440435e-09, -1.532690770673121e-11).transl(-6.073787213439809e-08, 3.747401410156135e-08, 0))
hIsland = hIsland.add(rect(5.137748457320113e-09, 1.806176958119513e-09).transl(6.015223944625628e-10, 4e-08, 0))
hIsland = hIsland.add(rect(8.983878882232538e-09, 1.6754159016360352e-09).transl(2.3642998862003885e-08, 4e-08, 0))
hIsland = hIsland.add(rect(9.271872554711664e-09, 9.756529956036723e-10).transl(2.451262650831593e-09, 4e-08, 0))
hIsland = hIsland.sub(rect(7.206773386376905e-09, -2.8856824027734992e-09).transl(6.3269659780781885e-09, 4e-08, 0))
hIsland = hIsland.sub(rect(8.113955109592926e-09, -1.9311097307541122e-09).transl(-6.686880679866133e-08, 3.4958942145227204e-08, 0))
hIsland = hIsland.add(rect(6.805168079081043e-09, 2.1254851225654885e-10).transl(-1.6621703212661673e-08, 4e-08, 0))
hIsland = hIsland.sub(rect(5.532626035081788e-09, -1.2741614065338946e-09).transl(-3.977631297803764e-08, 4e-08, 0))
hIsland = hIsland.sub(rect(5.50646323248578e-09, -5.12769550208459e-11).transl(4.6468147693794066e-08, 3.997870586137064e-08, 0))
hIsland = hIsland.sub(rect(4.01795555002033e-09, -4.825044737946501e-10).transl(6.179463982843453e-08, 3.7109807807141653e-08, 0))
hIsland = hIsland.add(rect(5.803733942620456e-09, 1.0720925379356429e-09).transl(1.3765019560686187e-08, 4e-08, 0))
hIsland = hIsland.add(rect(5.561157370820537e-09, 5.571921448952502e-11).transl(-2.5289977318768058e-08, 4e-08, 0))
hIsland = hIsland.add(rect(6.658813003130109e-09, 3.0616231463578665e-09).transl(-6.5386960281400745e-09, 4e-08, 0))
hIsland = hIsland.add(rect(6.4163645842430115e-09, 6.96672939438699e-10).transl(-4.4555761760715895e-08, 4e-08, 0))
hIsland = hIsland.add(rect(6.600955785757551e-09, 5.752318171052571e-10).transl(8.576912565976133e-08, 1.6932770896196648e-08, 0))
hIsland = hIsland.add(rect(6.432931939648928e-09, 1.1033949615162225e-09).transl(-6.282452794952784e-09, 4e-08, 0))
hIsland = hIsland.sub(rect(3.541435322831955e-09, -7.555307409303703e-10).transl(3.9845607601583686e-08, 4e-08, 0))
hIsland = hIsland.add(rect(6.071960121339182e-09, 2.962778315301681e-09).transl(1.9508308140342332e-08, 4e-08, 0))
hIsland = hIsland.sub(rect(5.558850813904407e-09, -9.168963199277761e-10).transl(-7.144776463635744e-08, 3.236234050642354e-08, 0))
hIsland = hIsland.add(rect(4.541311450311795e-09, 2.271927943733149e-09).transl(5.1482814191580376e-08, 3.958274341705861e-08, 0))
hIsland = hIsland.add(rect(6.959431217170466e-09, 2.445014031610686e-09).transl(-6.86105687726899e-08, 3.4051998491545434e-08, 0))
hIsland = hIsland.sub(rect(6.504086359766351e-09, -6.538920848797403e-10).transl(-1.1504549387965284e-08, 4e-08, 0))
hIsland = hIsland.sub(rect(2.265189286504373e-09, -2.0710588394209873e-10).transl(-5.946438624265498e-08, 3.787732276378227e-08, 0))
hIsland = hIsland.add(rect(6.9398308871677895e-09, 1.0665800869375137e-09).transl(8.519976931283135e-08, 1.7976193797988208e-08, 0))
hIsland = hIsland.sub(rect(4.581546672730934e-09, -3.3814652020278743e-10).transl(-8.614240409754127e-08, 1.620370535462346e-08, 0))
hIsland = hIsland.sub(rect(3.43144800785481e-09, -2.0600064640055784e-09).transl(8.698645111832728e-09, 4e-08, 0))
hIsland = hIsland.add(rect(9.703821752792693e-09, 1.7880845218670736e-09).transl(7.606823561318507e-09, 4e-08, 0))
hIsland = hIsland.add(rect(8.613740317620262e-09, 1.3953255292065674e-09).transl(1.1055518792536993e-08, 4e-08, 0))
hIsland = hIsland.add(rect(8.010525224895113e-09, 2.9811683301457382e-09).transl(7.57429541178815e-08, 2.921012200150627e-08, 0))
hIsland = hIsland.sub(rect(8.097704038500475e-09, -1.932248392083675e-09).transl(4.855411463264906e-09, 4e-08, 0))
hIsland = hIsland.add(rect(7.524232071718777e-09, 1.714510486373798e-09).transl(8.252403889563245e-09, 4e-08, 0))
hIsland = hIsland.add(rect(5.3927670171307575e-09, 5.894013625664136e-10).transl(2.3325827790248243e-08, 4e-08, 0))
hIsland = hIsland.add(rect(3.4670640466325468e-09, 3.0791786555110417e-09).transl(-3.1033486342560294e-08, 4e-08, 0))
hIsland = hIsland.add(rect(7.299152922278883e-09, 3.889649805732801e-09).transl(-2.6491547908441573e-08, 4e-08, 0))
hIsland = hIsland.sub(rect(9.183532355461452e-09, -4.045907048960789e-10).transl(-5.475048152628766e-08, 3.904973072421875e-08, 0))
hIsland = hIsland.add(rect(2.608368509187255e-09, 2.3401156328067625e-09).transl(7.71508265449549e-08, 2.7986936670145678e-08, 0))
hIsland = hIsland.add(rect(4.357195533496975e-09, 1.002520420924755e-09).transl(-5.759673471967955e-08, 3.840084643513642e-08, 0))
hIsland = hIsland.sub(rect(9.571227100088465e-09, -1.565006481047255e-09).transl(6.607251811662303e-08, 3.534324367207794e-08, 0))
hIsland = hIsland.add(rect(6.880078173487419e-09, 1.2570777191548244e-09).transl(3.4810668017826966e-08, 4e-08, 0))
hIsland = hIsland.add(rect(9.431186592785675e-09, 1.913617845669592e-09).transl(5.3586071388091604e-08, 3.926514494309612e-08, 0))
hIsland = hIsland.sub(rect(4.676799969826886e-09, -3.976312636784423e-10).transl(4.825372920181653e-08, 3.9895302449731506e-08, 0))
hIsland = hIsland.sub(rect(9.711262015625747e-09, -1.521113830353592e-09).transl(-1.010847726706472e-08, 4e-08, 0))
hIsland = hIsland.add(rect(5.628137368052371e-09, 3.1314661808381976e-10).transl(-3.712890416744171e-08, 4e-08, 0))
hIsland = hIsland.add(rect(6.913064153524708e-09, 4.615418208668565e-10).transl(2.5940975706676368e-08, 4e-08, 0))
hIsland = hIsland.sub(rect(7.713289663723778e-09, -3.58625351225662e-09).transl(3.128451084171578e-08, 4e-08, 0))
hIsland = hIsland.add(rect(3.5968177083391846e-09, 5.047379801011291e-10).transl(-1.970352239630918e-09, 4e-08, 0))
hIsland = hIsland.add(rect(9.512361283185002e-09, 6.784834917351062e-10).transl(7.756154967478845e-09, 4e-08, 0))
hIsland = hIsland.sub(rect(3.3038864255023567e-09, -1.2962906509944031e-09).transl(8.39689432315497e-08, 2.000338664494507e-08, 0))
hIsland = hIsland.add(rect(6.848194998430127e-09, 9.497952387132009e-11).transl(4.23311127033302e-08, 4e-08, 0))
hIsland = hIsland.add(rect(2.325085568341632e-09, 2.8767391289585885e-09).transl(9.46427717079081e-09, 4e-08, 0))
hIsland = hIsland.sub(rect(2.7631212901690294e-09, -4.540851862295288e-09).transl(7.392536713625245e-08, 3.064183388810271e-08, 0))
hIsland = hIsland.add(rect(9.799005836514585e-09, 1.48671138704934e-09).transl(-4.934824246688896e-08, 3.981282416334028e-08, 0))
hIsland = hIsland.add(rect(2.6497944068788943e-09, 2.2539472959104768e-10).transl(-6.28657611004619e-08, 3.671245174093656e-08, 0))
hIsland = hIsland.sub(rect(2.2672940104227276e-09, -2.521113467397684e-09).transl(-7.183041521891433e-08, 3.211250370443619e-08, 0))
hIsland = hIsland.add(rect(3.5799969446900877e-09, 5.954266974821027e-10).transl(8.750926731284983e-08, 1.3123149050710081e-08, 0))
hIsland = hIsland.add(rect(8.05222774195001e-09, 1.0769202079221245e-09).transl(7.623522802426223e-08, 2.8794519784116934e-08, 0))
hIsland = hIsland.add(rect(3.9217815449238285e-09, 6.216893045372711e-10).transl(-6.179439396624488e-08, 3.710989572254973e-08, 0))
hIsland = hIsland.sub(rect(7.428025252881189e-09, -2.4853347864210176e-09).transl(1.1223617688004254e-08, 4e-08, 0))
hIsland = hIsland.add(rect(5.091774250868422e-09, 1.243629480827419e-09).transl(5.985541805163074e-08, 3.775755332637565e-08, 0))
hIsland = hIsland.sub(rect(6.526314202360562e-09, -5.073922608609766e-10).transl(-6.137928447641336e-08, 3.725620646987566e-08, 0))
hIsland = hIsland.sub(rect(4.9340888730851665e-09, -5.788434154165099e-10).transl(-5.505364627341284e-08, 3.898894249433982e-08, 0))
hIsland = hIsland.sub(rect(5.311654467454336e-09, -8.12926397589773e-10).transl(1.951687879222761e-08, 4e-08, 0))
hIsland = hIsland.sub(rect(9.450725355846947e-09, -1.0920176364873229e-09).transl(4.4441163532837513e-08, 4e-08, 0))
hIsland = hIsland.sub(rect(4.187376639513355e-09, -9.222436255727987e-10).transl(-6.771621079171365e-08, 3.452934359639883e-08, 0))
hIsland = hIsland.sub(rect(8.946235190613561e-09, -1.5851212508595547e-10).transl(-3.060753708366842e-08, 4e-08, 0))
hIsland = hIsland.sub(rect(3.2404778681343286e-09, -2.906130474405771e-09).transl(5.108916204305849e-08, 3.963210675597175e-08, 0))
hIsland = hIsland.add(rect(3.2020697155560837e-09, 4.1057379021073014e-10).transl(4.2894490628374903e-08, 4e-08, 0))
hIsland = hIsland.add(rect(5.345991292552818e-09, 8.433519812456726e-10).transl(-8.756341640005043e-08, 1.2983730274338544e-08, 0))
hIsland = hIsland.add(rect(4.5825256173948925e-09, 2.998883882711813e-11).transl(2.3257043980161e-08, 4e-08, 0))
hIsland = hIsland.add(rect(7.448838437748698e-09, 2.2548466166855454e-10).transl(4.7332419319612875e-08, 3.994623369312402e-08, 0))
hIsland = hIsland.sub(rect(3.1750179113347796e-09, -1.4398080435437788e-10).transl(-3.8238909861756924e-08, 4e-08, 0))
hIsland = hIsland.sub(rect(7.650000802436857e-09, -3.4174768008428354e-10).transl(2.1782864963554942e-08, 4e-08, 0))
hIsland = hIsland.sub(rect(3.090603927160426e-09, -1.958658736852762e-11).transl(3.948462676242209e-08, 4e-08, 0))
hIsland = hIsland.add(rect(2.7887088120119306e-09, 1.100155632582564e-09).transl(1.9830482176627017e-08, 4e-08, 0))
hIsland = hIsland.add(rect(9.682302037814996e-09, 9.369602000990914e-10).transl(4.28356286454237e-08, 4e-08, 0))
hIsland = hIsland.sub(rect(6.419294451007017e-09, -1.2798027277214537e-10).transl(6.319778298820077e-09, 4e-08, 0))
hIsland = hIsland.add(rect(9.003472467295925e-09, 2.430539410708152e-09).transl(-8.476748002541402e-08, 1.872050505656768e-08, 0))
hIsland = hIsland.sub(rect(8.541383310892524e-09, -1.2099977739569582e-10).transl(-4.796673444267191e-08, 3.991297681109855e-08, 0))
hIsland = hIsland.sub(rect(5.715578565022993e-09, -1.058794294983207e-09).transl(-5.170156013820306e-08, 3.955394844889091e-08, 0))
hIsland = hIsland.sub(rect(9.184059457796192e-09, -5.043932582914562e-10).transl(-7.793017790592711e-10, 4e-08, 0))
hIsland = hIsland.sub(rect(8.356933657682345e-09, -7.468527084562425e-10).transl(4.417215646361651e-08, 4e-08, 0))
hIsland = hIsland.add(rect(3.46301220519801e-09, 5.24325844581286e-10).transl(6.26595189217857e-08, 3.679121088226888e-08, 0))
hIsland = hIsland.add(rect(6.545692054550233e-09, 3.500365256451111e-10).transl(7.609150054439348e-08, 2.891716351573811e-08, 0))
hIsland = hIsland.add(rect(3.0317546774832275e-09, 2.9507421426747354e-09).transl(2.4150769349753785e-08, 4e-08, 0))
hIsland = hIsland.sub(rect(4.3492727141052425e-09, -3.6076648126672026e-09).transl(8.107319661181743e-08, 2.391300258863534e-08, 0))
vIsland = hIsland.rotz(pi / 2)
hIslands = hIslands.add(hIsland.transl(-a/2, a, 0))
hIsland = rect(islandLength-2*ellipseConstant, islandWidth)
hIsland = hIsland.add(ellipse(ellipseConstant*2, islandWidth).transl(islandLength/2-ellipseConstant, 0, 0))
hIsland = hIsland.add(ellipse(ellipseConstant*2, islandWidth).transl(-islandLength/2+ellipseConstant, 0, 0))
hIsland = hIsland.add(rect(8.200673643327304e-09, 6.903547362244136e-10).transl(6.970713246097884e-08, -3.3431648854496953e-08, 0))
hIsland = hIsland.sub(rect(5.350132660379918e-09, -2.845568749966044e-09).transl(-7.898240540346183e-08, -2.622141050336519e-08, 0))
hIsland = hIsland.add(rect(4.390863225021886e-09, 2.568242977032008e-10).transl(2.405144539826578e-08, -4e-08, 0))
hIsland = hIsland.sub(rect(3.6723267445512964e-09, -1.927220455655523e-09).transl(-1.0231762855923106e-08, -4e-08, 0))
hIsland = hIsland.add(rect(9.573339555855998e-09, 1.8635218743914107e-11).transl(8.197994860522354e-09, -4e-08, 0))
hIsland = hIsland.sub(rect(2.5749271914365464e-09, -2.9670678806650328e-09).transl(3.3421854856026365e-08, -4e-08, 0))
hIsland = hIsland.add(rect(5.2308610324561165e-09, 1.004974869319072e-09).transl(1.9302487821823053e-08, -4e-08, 0))
hIsland = hIsland.sub(rect(2.102127014389785e-09, -1.4850512120027298e-09).transl(6.456781819644394e-08, -3.602030144751856e-08, 0))
hIsland = hIsland.add(rect(3.419859898644422e-09, 7.434054530409504e-10).transl(8.26701644225342e-08, -2.1881092123044875e-08, 0))
hIsland = hIsland.add(rect(3.453410959957763e-09, 1.278678224019677e-09).transl(-6.863325637478961e-08, -3.403956092764618e-08, 0))
hIsland = hIsland.add(rect(2.764120833625634e-09, 3.3844623784660034e-09).transl(-2.7924239525073936e-08, -4e-08, 0))
hIsland = hIsland.sub(rect(2.3469507455960196e-09, -1.6194570060342337e-09).transl(-3.7925559517203704e-08, -4e-08, 0))
hIsland = hIsland.add(rect(6.383136348799655e-09, 6.539180893899134e-10).transl(-3.2453216389194846e-08, -4e-08, 0))
hIsland = hIsland.sub(rect(4.1082010305808605e-09, -2.274488641085798e-09).transl(6.460710845287277e-08, -3.600341600382555e-08, 0))
hIsland = hIsland.sub(rect(7.150042166865832e-09, -4.6348265639000156e-10).transl(8.312657714151255e-09, -4e-08, 0))
hIsland = hIsland.add(rect(8.363754436925664e-09, 2.0551060335123415e-09).transl(-6.769260335692834e-08, -3.4541606363642665e-08, 0))
hIsland = hIsland.add(rect(6.693458374218625e-09, 2.0175623464450144e-09).transl(6.636461113710199e-08, -3.520441488543043e-08, 0))
hIsland = hIsland.sub(rect(9.019128101189126e-09, -1.5184468878906302e-09).transl(-3.4971332218580196e-08, -4e-08, 0))
hIsland = hIsland.add(rect(7.631976414543593e-09, 5.289797229160114e-10).transl(-2.6725443684444525e-08, -4e-08, 0))
hIsland = hIsland.sub(rect(7.970796898582559e-09, -5.907829228995722e-09).transl(5.99530945912546e-08, -3.772707669259418e-08, 0))
hIsland = hIsland.sub(rect(9.353440788693592e-09, -8.262896539592766e-10).transl(-4.2042805413926766e-08, -4e-08, 0))
hIsland = hIsland.add(rect(7.111616521767296e-09, 1.4143900471688252e-09).transl(-3.792801922964763e-08, -4e-08, 0))
hIsland = hIsland.add(rect(3.935143511138725e-09, 2.806196315996779e-10).transl(-2.0689355736572213e-08, -4e-08, 0))
hIsland = hIsland.sub(rect(4.905387400092188e-09, -1.3387208612334973e-09).transl(3.076889349902238e-08, -4e-08, 0))
hIsland = hIsland.sub(rect(9.807062373686226e-09, -2.6306669322053915e-09).transl(-8.977548590590196e-08, -3.990691578086233e-09, 0))
hIsland = hIsland.sub(rect(3.9210778902589664e-09, -9.65251591479227e-10).transl(-1.8236990371516496e-08, -4e-08, 0))
hIsland = hIsland.sub(rect(7.923549971026046e-09, -9.594666993755843e-10).transl(-9.38399714776478e-09, -4e-08, 0))
hIsland = hIsland.add(rect(3.1824925847433524e-09, 1.3370209201465658e-09).transl(-2.3457564450325216e-08, -4e-08, 0))
hIsland = hIsland.sub(rect(6.198938099772961e-09, -1.8713809722810157e-09).transl(4.6166705757236875e-08, -3.9986553766414964e-08, 0))
hIsland = hIsland.add(rect(2.764088232049999e-09, 1.6536458455189778e-09).transl(-2.3002942160814763e-08, -4e-08, 0))
hIsland = hIsland.add(rect(3.04649792348388e-09, 3.3951895244802233e-09).transl(-3.9183732097554766e-08, -4e-08, 0))
hIsland = hIsland.add(rect(2.394932725317455e-09, 3.845739623181401e-10).transl(-5.760431957069561e-08, -3.839887990300314e-08, 0))
hIsland = hIsland.add(rect(8.437299009786047e-09, 1.4633317421555209e-09).transl(8.672731400603485e-08, -1.497537114438286e-08, 0))
hIsland = hIsland.add(rect(3.2092519973853703e-09, 2.415004962325184e-10).transl(5.00296841968801e-08, -3.974936069371725e-08, 0))
hIsland = hIsland.add(rect(3.052498612697225e-09, 1.4847790915206154e-09).transl(-1.1120658615414753e-08, -4e-08, 0))
hIsland = hIsland.sub(rect(5.412810055576641e-09, -7.773642409793079e-10).transl(-8.669957771684151e-08, -1.503629106453645e-08, 0))
hIsland = hIsland.sub(rect(7.714391576839932e-09, -4.411751669546608e-09).transl(-7.356311809247345e-08, -3.090916405511492e-08, 0))
hIsland = hIsland.sub(rect(6.046845644455587e-09, -3.8525537085961734e-10).transl(-4.627664880457228e-08, -3.99838996518809e-08, 0))
hIsland = hIsland.sub(rect(9.233141064600833e-09, -3.808566442687201e-09).transl(4.2256143221210986e-08, -4e-08, 0))
hIsland = hIsland.add(rect(9.076298411641912e-09, 1.778589403677547e-09).transl(3.8402261187743446e-08, -4e-08, 0))
hIsland = hIsland.add(rect(4.5238436460094395e-09, 1.3141718755542083e-09).transl(-8.616162929842877e-08, -1.6165081061578153e-08, 0))
hIsland = hIsland.add(rect(5.185258459340247e-09, 7.35934033916738e-10).transl(4.660703403698414e-08, -3.9974485112791255e-08, 0))
hIsland = hIsland.add(rect(3.935635688792174e-09, 1.9746560410297183e-09).transl(-7.946099154137837e-08, -2.5723161482021648e-08, 0))
hIsland = hIsland.sub(rect(3.966460491823393e-09, -9.393205297931045e-12).transl(6.488992704302397e-08, -3.5880633956420206e-08, 0))
hIsland = hIsland.add(rect(2.718564678705332e-09, 2.37154020724229e-09).transl(2.170953814525545e-08, -4e-08, 0))
hIsland = hIsland.add(rect(2.8843070874789744e-09, 2.391052272737516e-09).transl(-1.534689847599964e-08, -4e-08, 0))
hIsland = hIsland.add(rect(9.38976258777813e-09, 1.2080007092153714e-09).transl(-8.847863538675245e-08, -1.0312960175425976e-08, 0))
hIsland = hIsland.sub(rect(5.987255857561538e-09, -1.0532796544742007e-09).transl(-8.41674061073012e-08, -1.9694743023860395e-08, 0))
hIsland = hIsland.add(rect(2.6989771063309774e-09, 3.4198414918418184e-09).transl(-9.670258590461601e-10, -4e-08, 0))
hIsland = hIsland.add(rect(9.220948096515315e-09, 2.404479312632251e-09).transl(5.361530690819274e-09, -4e-08, 0))
hIsland = hIsland.add(rect(6.6956865811017505e-09, 1.0757438022434623e-09).transl(5.136214454417039e-08, -3.959821037780876e-08, 0))
hIsland = hIsland.sub(rect(8.134913781994336e-09, -3.838081549597684e-10).transl(8.720857674166045e-08, -1.386883314823276e-08, 0))
hIsland = hIsland.add(rect(6.376244301256352e-09, 9.259392384568041e-10).transl(-1.021277067234508e-08, -4e-08, 0))
hIsland = hIsland.add(rect(9.636062093162773e-09, 1.0027606482185375e-09).transl(3.922519237766059e-08, -4e-08, 0))
hIsland = hIsland.add(rect(9.388764643339308e-09, 2.0092892530186157e-09).transl(2.2173189270217916e-08, -4e-08, 0))
hIsland = hIsland.add(rect(6.596794711175129e-09, 5.614555245074281e-10).transl(8.397677096847097e-08, -1.999133293432307e-08, 0))
hIsland = hIsland.add(rect(8.559393092166186e-09, 2.2736953993251868e-09).transl(-7.753144196305969e-08, -2.7637230695866708e-08, 0))
hIsland = hIsland.sub(rect(7.296347872703919e-09, -1.5948164351371215e-09).transl(-3.322155973330424e-08, -4e-08, 0))
hIsland = hIsland.sub(rect(4.037955607887767e-09, -2.5937162178465727e-09).transl(-2.43407093045227e-08, -4e-08, 0))
hIsland = hIsland.sub(rect(7.020281233589734e-09, -6.959091138666877e-10).transl(-3.8438331031005786e-08, -4e-08, 0))
hIsland = hIsland.sub(rect(2.8867453833187854e-09, -5.865918232523798e-10).transl(-1.490310343981671e-08, -4e-08, 0))
hIsland = hIsland.add(rect(8.143461940546985e-09, 1.5190381220319297e-09).transl(-7.902617335630648e-08, -2.61765255573214e-08, 0))
hIsland = hIsland.add(rect(5.0901660918401085e-09, 2.463339303977119e-09).transl(4.0681793594697845e-08, -4e-08, 0))
hIsland = hIsland.add(rect(6.119046382031974e-09, 2.0922700617459394e-10).transl(5.210596572671304e-08, -3.9498138113613626e-08, 0))
hIsland = hIsland.sub(rect(2.648008929426583e-09, -1.4739604568268997e-09).transl(-6.496568697995545e-08, -3.5847372956552523e-08, 0))
hIsland = hIsland.sub(rect(6.02366634283436e-09, -2.0876174317670797e-09).transl(-4.5526560583629034e-08, -3.999726147615009e-08, 0))
hIsland = hIsland.sub(rect(3.782938842877963e-09, -1.5082841460617641e-09).transl(-2.4741971883362083e-08, -4e-08, 0))
hIsland = hIsland.add(rect(8.783308771496654e-09, 1.369623023433004e-10).transl(5.5130742688963586e-08, -3.897317142496252e-08, 0))
hIsland = hIsland.sub(rect(6.721132293670055e-09, -1.2489220857218226e-09).transl(5.6647748452556526e-08, -3.863682072635848e-08, 0))
hIsland = hIsland.add(rect(6.203626073631199e-09, 1.6805182681513041e-09).transl(-5.981313752174266e-08, -3.7770676004495797e-08, 0))
hIsland = hIsland.sub(rect(7.915402685312064e-09, -1.831469877543775e-10).transl(1.5598953466097807e-08, -4e-08, 0))
hIsland = hIsland.add(rect(9.074256765877766e-09, 3.445432747774444e-09).transl(7.79502169578515e-09, -4e-08, 0))
hIsland = hIsland.add(rect(8.382775124286358e-09, 3.2670177126053283e-09).transl(6.699121225046375e-08, -3.489821909218954e-08, 0))
hIsland = hIsland.add(rect(3.4523085694201117e-09, 6.207764426099897e-11).transl(-2.798175520920609e-08, -4e-08, 0))
hIsland = hIsland.sub(rect(9.22904678656283e-09, -1.648080845130878e-09).transl(-6.695274636663213e-08, -3.491734920672744e-08, 0))
hIsland = hIsland.add(rect(7.822689976659617e-09, 1.2147979404077226e-09).transl(4.4345502521503586e-08, -4e-08, 0))
hIsland = hIsland.sub(rect(9.239834541096482e-09, -3.295311438460754e-09).transl(-4.806763268196789e-08, -3.9906949842244586e-08, 0))
hIsland = hIsland.add(rect(5.988611462553742e-09, 1.3526735967049924e-09).transl(-3.135355151175541e-08, -4e-08, 0))
hIsland = hIsland.add(rect(5.262988986377843e-09, 5.738158209582857e-09).transl(2.710979999706646e-08, -4e-08, 0))
hIsland = hIsland.add(rect(9.127409808654067e-09, 2.6663213455286073e-09).transl(-2.209177056648916e-08, -4e-08, 0))
hIsland = hIsland.sub(rect(7.894004090426298e-09, -2.2192243979590827e-09).transl(-5.220188974421197e-08, -3.948440826565169e-08, 0))
hIsland = hIsland.add(rect(7.5676199651868e-09, 8.450496050869167e-10).transl(1.3398691877766562e-08, -4e-08, 0))
hIsland = hIsland.sub(rect(2.0775131373571502e-09, -4.4399718496189995e-09).transl(8.854502218057157e-08, -1.008922342249207e-08, 0))
hIsland = hIsland.sub(rect(7.484957530027459e-09, -2.1349190963231748e-09).transl(8.218103015652233e-09, -4e-08, 0))
hIsland = hIsland.add(rect(2.8542758931496944e-09, 3.3326894123844334e-09).transl(-1.9381118575934902e-08, -4e-08, 0))
hIsland = hIsland.sub(rect(4.636465707111634e-09, -2.4672586108353443e-09).transl(5.951921149606775e-08, -3.786074546853311e-08, 0))
hIsland = hIsland.sub(rect(6.358957763552895e-09, -4.699182467342986e-10).transl(3.142727213664189e-08, -4e-08, 0))
hIsland = hIsland.add(rect(7.936704429886704e-09, 2.249133384408095e-09).transl(-5.015806985274389e-08, -3.9736358973980105e-08, 0))
hIsland = hIsland.sub(rect(5.0217134393926675e-09, -7.913237143264339e-10).transl(-5.288330725669622e-08, -3.9381424127102525e-08, 0))
hIsland = hIsland.add(rect(7.621994662023298e-09, 2.9479443325821987e-09).transl(7.941073682121196e-09, -4e-08, 0))
hIsland = hIsland.sub(rect(3.3010576416003377e-09, -1.052673607234485e-09).transl(3.052746415600577e-08, -4e-08, 0))
hIsland = hIsland.sub(rect(9.754993866521635e-09, -7.701349498798568e-10).transl(-2.3250986241681585e-08, -4e-08, 0))
hIsland = hIsland.add(rect(9.761747946296812e-09, 1.319409203676429e-09).transl(-3.426476777162887e-08, -4e-08, 0))
hIsland = hIsland.add(rect(8.500734024759308e-09, 3.0479262823497e-10).transl(-7.20775689572695e-08, -3.1948171106161856e-08, 0))
hIsland = hIsland.add(rect(3.486127687074043e-09, 8.311789309603645e-10).transl(-8.97499600714473e-08, -4.2108453604916305e-09, 0))
hIsland = hIsland.add(rect(9.478124141476507e-09, 9.000373950740843e-10).transl(-6.024061704840416e-08, -3.763605932569881e-08, 0))
hIsland = hIsland.add(rect(7.890881877134749e-09, 5.079798221198686e-10).transl(-2.5505361073134057e-08, -4e-08, 0))
hIsland = hIsland.sub(rect(6.547090037676317e-09, -2.582941115887099e-09).transl(7.557153887820193e-08, -2.935192690997079e-08, 0))
hIsland = hIsland.add(rect(8.171983686384108e-09, 2.619900068486943e-09).transl(1.8206010697945495e-08, -4e-08, 0))
hIsland = hIsland.sub(rect(3.6371623448900465e-09, -5.35286038401651e-10).transl(-5.341948641100701e-10, -4e-08, 0))
hIsland = hIsland.sub(rect(2.653655252754783e-09, -3.4989032381779965e-09).transl(-6.371837575647107e-08, -3.637524497028905e-08, 0))
hIsland = hIsland.add(rect(5.9255192490618715e-09, 3.999313537731833e-09).transl(6.35189186414469e-08, -3.6455821014051646e-08, 0))
hIsland = hIsland.sub(rect(9.660142081646827e-09, -1.1596787058702719e-10).transl(-6.072177070038118e-08, -3.747935386659555e-08, 0))
hIsland = hIsland.add(rect(8.228483310010273e-09, 2.2996480959634915e-10).transl(3.9001537473838895e-08, -4e-08, 0))
hIsland = hIsland.add(rect(9.231267363171314e-09, 1.7816852530797747e-10).transl(-2.9118494988347942e-08, -4e-08, 0))
hIsland = hIsland.sub(rect(7.536128631250922e-09, -2.237646927341958e-09).transl(-4.697841544955891e-09, -4e-08, 0))
hIsland = hIsland.sub(rect(9.391159241275453e-09, -3.842631464754e-09).transl(5.494176819654822e-08, -3.901160316283098e-08, 0))
hIsland = hIsland.sub(rect(4.507995586147268e-09, -4.958790273354196e-10).transl(-1.5626663661195606e-08, -4e-08, 0))
hIsland = hIsland.add(rect(8.305654858756886e-09, 1.3117503131104986e-09).transl(-3.1785206364784085e-08, -4e-08, 0))
hIsland = hIsland.sub(rect(9.726264331522166e-09, -1.161024425985681e-09).transl(-8.36021787680619e-08, -2.055759594646579e-08, 0))
hIsland = hIsland.sub(rect(8.53538427312228e-09, -2.5505422324420046e-09).transl(8.327722377102063e-08, -2.1032210742046304e-08, 0))
hIsland = hIsland.sub(rect(7.865547005536768e-09, -1.2832161839123316e-09).transl(3.1901942426212915e-08, -4e-08, 0))
hIsland = hIsland.sub(rect(7.019670488034396e-09, -1.3573460303768915e-10).transl(-6.778556217104729e-08, -3.449322030704143e-08, 0))
hIsland = hIsland.add(rect(2.9474787591103607e-09, 1.4663748356252095e-09).transl(-2.4253436278718486e-08, -4e-08, 0))
hIsland = hIsland.add(rect(6.794543680141185e-09, 1.0607944522209655e-09).transl(-5.370615373237302e-08, -3.92442470078163e-08, 0))
hIsland = hIsland.add(rect(9.433313109791064e-09, 1.4658568232318625e-09).transl(8.130395580190408e-09, -4e-08, 0))
hIsland = hIsland.sub(rect(9.984732383641496e-09, -5.627712222596951e-10).transl(2.044286542448608e-08, -4e-08, 0))
hIsland = hIsland.add(rect(6.115565062254825e-09, 4.484509229290905e-09).transl(4.893172950642107e-08, -3.984703099332971e-08, 0))
hIsland = hIsland.add(rect(4.11420366448175e-09, 1.2187163663986234e-09).transl(8.12624390576537e-08, -2.3685770294449862e-08, 0))
hIsland = hIsland.add(rect(4.24547694694599e-09, 3.682664553748278e-09).transl(4.268441417330017e-09, -4e-08, 0))
hIsland = hIsland.sub(rect(4.114635900669279e-09, -2.2763067825461052e-10).transl(9.76293120144186e-09, -4e-08, 0))
hIsland = hIsland.sub(rect(9.137129301845783e-09, -1.3769731970354461e-09).transl(-8.154738986518362e-08, -2.3337155988115793e-08, 0))
hIsland = hIsland.add(rect(6.355961861969789e-09, 3.5192999884132535e-10).transl(-5.707026943984352e-08, -3.853421601602968e-08, 0))
hIsland = hIsland.add(rect(5.0256510702601036e-09, 2.4254968671284994e-09).transl(1.1486968460677442e-08, -4e-08, 0))
hIsland = hIsland.sub(rect(9.613851110735362e-09, -2.409193819149533e-09).transl(-4.91484180920045e-08, -3.982966822583255e-08, 0))
hIsland = hIsland.add(rect(9.8308284849652e-09, 2.9404934494483823e-10).transl(-1.5256753503940895e-08, -4e-08, 0))
hIsland = hIsland.sub(rect(2.4661367990405314e-09, -1.9124573331130923e-09).transl(4.63702582250986e-08, -3.9981451426753715e-08, 0))
hIsland = hIsland.sub(rect(8.692700826928118e-09, -2.0673702245043845e-09).transl(-1.9153634950806696e-08, -4e-08, 0))
hIsland = hIsland.sub(rect(4.212799061791786e-09, -1.3281495663161015e-09).transl(-5.9285760245596464e-08, -3.793084862479099e-08, 0))
hIsland = hIsland.add(rect(6.328373619958136e-09, 2.9188661607442653e-10).transl(4.7562272381129085e-09, -4e-08, 0))
hIsland = hIsland.add(rect(4.5549879401905945e-09, 1.565538540783132e-09).transl(-3.199465514606291e-08, -4e-08, 0))
hIsland = hIsland.add(rect(3.3259393754814613e-09, 2.5336241643960916e-09).transl(-5.365766415381329e-08, -3.925272192961622e-08, 0))
hIsland = hIsland.sub(rect(8.054760208533934e-09, -2.556727611923972e-09).transl(-2.9847327417347226e-08, -4e-08, 0))
hIsland = hIsland.sub(rect(9.002648957798243e-09, -1.6267035677390862e-09).transl(5.826725073208487e-09, -4e-08, 0))
hIsland = hIsland.add(rect(4.802583441847112e-09, 5.2496294736052e-10).transl(-3.8530384462249224e-08, -4e-08, 0))
hIsland = hIsland.add(rect(5.355710229907982e-09, 5.085805518708739e-10).transl(6.958626297399831e-08, -3.350198134370998e-08, 0))
hIsland = hIsland.sub(rect(8.244984479653515e-09, -1.8082245631536623e-09).transl(7.52066350982597e-08, -2.9648931141935423e-08, 0))
hIsland = hIsland.add(rect(8.795689196513052e-09, 4.158248429103058e-09).transl(2.834684499174237e-08, -4e-08, 0))
hIsland = hIsland.add(rect(9.050428462720213e-09, 8.318879434800779e-10).transl(1.4425805481168362e-08, -4e-08, 0))
hIsland = hIsland.add(rect(4.9343392240872714e-09, 3.164423664684128e-09).transl(4.409636972236059e-08, -4e-08, 0))
hIsland = hIsland.sub(rect(5.730311423647064e-09, -1.0661900227635042e-09).transl(-6.200436627174252e-08, -3.703426804377152e-08, 0))
hIsland = hIsland.sub(rect(8.526953989477915e-09, -7.362052284588494e-10).transl(8.333883302993081e-08, -2.0943359371184634e-08, 0))
hIsland = hIsland.sub(rect(5.080735616991483e-09, -1.08863187086102e-09).transl(-3.3057546239131666e-08, -4e-08, 0))
hIsland = hIsland.add(rect(3.9524339161278404e-09, 2.0157048046349228e-10).transl(-8.242953337369767e-08, -2.220497164087698e-08, 0))
hIsland = hIsland.sub(rect(7.1540962622888665e-09, -2.12460493711386e-09).transl(-8.294532402771814e-08, -2.1502153955731553e-08, 0))
hIsland = hIsland.add(rect(8.811694201815205e-09, 1.5100072861389893e-09).transl(5.9581969869104565e-08, -3.7841683513684326e-08, 0))
hIsland = hIsland.add(rect(5.803602387708598e-09, 7.467275767895375e-10).transl(-2.7278806196440255e-08, -4e-08, 0))
hIsland = hIsland.sub(rect(5.5488979584677085e-09, -1.5712052786752976e-09).transl(-5.5431797686154465e-08, -3.891036965634224e-08, 0))
hIsland = hIsland.add(rect(8.359274282506806e-09, 1.985622914937875e-09).transl(3.2727860522526336e-08, -4e-08, 0))
hIsland = hIsland.add(rect(3.32893408562106e-09, 2.855954424862065e-09).transl(-5.134392623888805e-10, -4e-08, 0))
hIsland = hIsland.sub(rect(7.577666255629428e-09, -1.3249048985908566e-09).transl(-6.58044591039045e-08, -3.5468498770768725e-08, 0))
hIsland = hIsland.add(rect(9.058062203485235e-09, 1.437299686756375e-09).transl(-4.644160104461827e-08, -3.9979469164918464e-08, 0))
hIsland = hIsland.sub(rect(6.179834871131558e-09, -2.4637995521132533e-09).transl(-3.5771173365012492e-09, -4e-08, 0))
hIsland = hIsland.add(rect(9.263656262896288e-09, 1.2512636621787861e-09).transl(2.0189606707054808e-08, -4e-08, 0))
hIsland = hIsland.sub(rect(6.814003271436195e-09, -3.38346760514133e-09).transl(8.160860698876771e-08, -2.3261220109047154e-08, 0))
hIsland = hIsland.sub(rect(8.413568434525466e-09, -6.267372870229029e-10).transl(4.7787788623620334e-08, -3.9923168033723214e-08, 0))
hIsland = hIsland.add(rect(4.915059706359434e-09, 1.5265214728620395e-09).transl(1.3556091388520174e-08, -4e-08, 0))
hIsland = hIsland.sub(rect(2.3679436030773512e-09, -1.5989351418049945e-09).transl(-7.1009421151869715e-09, -4e-08, 0))
hIsland = hIsland.sub(rect(7.3397699371505145e-09, -2.908007501346976e-09).transl(-6.168843514678935e-08, -3.714764543499458e-08, 0))
hIsland = hIsland.add(rect(7.80291406906991e-09, 2.799721725068415e-10).transl(2.6449857730803377e-08, -4e-08, 0))
hIsland = hIsland.add(rect(7.649456937194267e-09, 2.9412044477262727e-09).transl(-6.542071207194317e-09, -4e-08, 0))
hIsland = hIsland.add(rect(6.353059122837577e-09, 2.407140033182513e-09).transl(2.680926664814847e-08, -4e-08, 0))
hIsland = hIsland.sub(rect(2.7776412867922594e-09, -5.839848196724657e-10).transl(8.472962019219357e-08, -1.878391283097629e-08, 0))
hIsland = hIsland.sub(rect(4.847612502566385e-09, -3.917908004265662e-10).transl(5.015513855799631e-08, -3.9736659532145095e-08, 0))
hIsland = hIsland.sub(rect(2.2878113858254382e-09, -1.1694018099906217e-09).transl(9.880987760809242e-09, -4e-08, 0))
hIsland = hIsland.add(rect(6.582332739327902e-09, 2.580760555503557e-09).transl(-1.3379934906679515e-08, -4e-08, 0))
hIsland = hIsland.sub(rect(8.368728594488917e-09, -6.894444644298246e-10).transl(-6.238905929070562e-08, -3.6892857799709556e-08, 0))
hIsland = hIsland.add(rect(9.378908326369255e-09, 6.930297005967845e-11).transl(-1.6654239420045284e-08, -4e-08, 0))
hIsland = hIsland.add(rect(7.124040008871146e-09, 5.158363117959682e-10).transl(-1.9833648848008237e-08, -4e-08, 0))
hIsland = hIsland.add(rect(5.68820991622376e-09, 5.218877039803628e-10).transl(-2.4844446939214746e-08, -4e-08, 0))
hIsland = hIsland.add(rect(9.705671528154712e-09, 1.0775923201348745e-09).transl(7.822136627367926e-08, -2.6980974702177522e-08, 0))
hIsland = hIsland.sub(rect(9.01766448296083e-09, -2.171589935190109e-09).transl(6.744436531077848e-08, -3.4669520860239426e-08, 0))
hIsland = hIsland.sub(rect(7.399936390372269e-09, -1.6604904779358926e-09).transl(2.684154422236928e-08, -4e-08, 0))
hIsland = hIsland.sub(rect(6.2552086359197555e-09, -2.2116575313796104e-09).transl(-5.529986040645995e-08, -3.8938131369571724e-08, 0))
hIsland = hIsland.add(rect(3.0613944892584453e-09, 3.340614622621369e-09).transl(6.34347905565116e-08, -3.648949515953285e-08, 0))
hIsland = hIsland.add(rect(7.164960044360063e-09, 9.574823898511732e-10).transl(-7.372789505656176e-08, -3.07882683524674e-08, 0))
hIsland = hIsland.add(rect(3.6404972498971136e-09, 1.554484791049166e-09).transl(2.2054801329122077e-08, -4e-08, 0))
hIsland = hIsland.add(rect(3.26539887601074e-09, 2.2828951146723881e-10).transl(8.348683520608504e-08, -2.0727766613790683e-08, 0))
hIsland = hIsland.add(rect(6.862973323740715e-09, 4.640999568245514e-10).transl(3.194903217746563e-10, -4e-08, 0))
hIsland = hIsland.add(rect(6.25852144914166e-09, 1.623551651876721e-09).transl(2.3667714131124583e-08, -4e-08, 0))
hIsland = hIsland.sub(rect(5.531758352781879e-09, -3.822775835115436e-09).transl(2.6260462310598677e-08, -4e-08, 0))
hIsland = hIsland.add(rect(2.1582705704823345e-09, 1.1438368212096296e-09).transl(-5.2768011868273225e-08, -3.9399522379651816e-08, 0))
hIsland = hIsland.sub(rect(5.88578879604069e-09, -1.4631954260347157e-09).transl(8.504060542347587e-08, -1.825471179106987e-08, 0))
hIsland = hIsland.add(rect(8.530962690994356e-09, 8.585055748227351e-11).transl(8.447832428616236e-08, -1.9197981613180926e-08, 0))
hIsland = hIsland.add(rect(9.13812578922622e-09, 1.7761871412801686e-09).transl(1.8229677503777416e-08, -4e-08, 0))
hIsland = hIsland.sub(rect(7.328503416721524e-09, -2.854820441617251e-09).transl(5.49140897735591e-08, -3.9017168227123466e-08, 0))
hIsland = hIsland.sub(rect(2.676546190823551e-09, -3.949824587243361e-09).transl(4.8488662135604016e-09, -4e-08, 0))
hIsland = hIsland.sub(rect(3.737628647301384e-09, -1.306489496966203e-09).transl(-7.676463315111165e-08, -2.833322814133396e-08, 0))
hIsland = hIsland.add(rect(6.3420314934645625e-09, 1.126452054179798e-09).transl(8.747915456381212e-08, -1.3199967902505266e-08, 0))
hIsland = hIsland.add(rect(3.806786300735971e-09, 1.0956444904988634e-09).transl(-4.650440403925248e-08, -3.9977640847018224e-08, 0))
hIsland = hIsland.add(rect(4.6694503144587316e-09, 4.659087526177564e-10).transl(6.89451585353163e-08, -3.386689276936562e-08, 0))
hIsland = hIsland.sub(rect(9.923499612034481e-09, -3.7231433381595124e-09).transl(8.484371657838551e-08, -1.8591982856737354e-08, 0))
hIsland = hIsland.add(rect(7.3092349782475114e-09, 8.733649767737605e-10).transl(5.006646288525465e-08, -3.9745670009568354e-08, 0))
hIsland = hIsland.add(rect(9.092050339170937e-09, 1.1919040158006283e-09).transl(7.182406727658122e-08, -3.211669358307748e-08, 0))
hIsland = hIsland.add(rect(6.996447642661901e-09, 2.912551362197903e-09).transl(-6.440998800846604e-08, -3.608771060486119e-08, 0))
hIsland = hIsland.sub(rect(2.1071203752645983e-09, -1.5517566122764145e-09).transl(1.422395692441414e-08, -4e-08, 0))
hIsland = hIsland.add(rect(5.166630599309303e-09, 1.2832693787165643e-09).transl(8.229037737922872e-08, -2.238919942286473e-08, 0))
hIsland = hIsland.add(rect(7.2875870327834535e-09, 5.836812977617706e-10).transl(4.1241755903737996e-08, -4e-08, 0))
hIsland = hIsland.sub(rect(7.811595145092268e-09, -1.0448946222425787e-09).transl(-7.855784104721734e-08, -2.6649940002244218e-08, 0))
hIsland = hIsland.sub(rect(8.653120427182785e-09, -4.9359584180592e-10).transl(4.8212697391005386e-08, -3.9897929775545773e-08, 0))
hIsland = hIsland.add(rect(8.486887726985413e-09, 9.31654519333896e-10).transl(8.565507585545297e-08, 1.7148065312171842e-08, 0))
hIsland = hIsland.add(rect(4.7242815494020115e-09, 3.3781818895684458e-09).transl(-6.442786996534598e-08, 3.608010696225264e-08, 0))
hIsland = hIsland.sub(rect(5.579932028298862e-09, -2.6104360600064187e-09).transl(-5.486103273459983e-08, 3.902779037375164e-08, 0))
hIsland = hIsland.sub(rect(7.100899937137116e-09, -1.418037636368833e-09).transl(5.40679610269578e-08, 3.917945627274592e-08, 0))
hIsland = hIsland.add(rect(4.925513290206961e-09, 2.5242762302447655e-09).transl(6.029068724840371e-08, 3.762000921203087e-08, 0))
hIsland = hIsland.sub(rect(2.533589307299513e-09, -2.7958774459703227e-09).transl(5.31384824100886e-08, 3.934038961500368e-08, 0))
hIsland = hIsland.sub(rect(7.407799853927143e-09, -1.8823577295051765e-09).transl(-8.059625856283073e-08, 2.4471199520817013e-08, 0))
hIsland = hIsland.sub(rect(6.414043598240903e-09, -3.3523389568094874e-09).transl(8.991825570313171e-08, 2.40990623668052e-09, 0))
hIsland = hIsland.add(rect(9.67258584824646e-09, 4.8462333732176065e-09).transl(-6.146918053317476e-08, 3.722488048952363e-08, 0))
hIsland = hIsland.sub(rect(3.1015793786189985e-09, -2.2908373102407647e-09).transl(5.0238759646050535e-08, 3.9728017515356516e-08, 0))
hIsland = hIsland.sub(rect(3.7572378508524384e-09, -2.76451987344835e-10).transl(4.8258295679399614e-08, 3.98950079789685e-08, 0))
hIsland = hIsland.sub(rect(9.940426602578443e-09, -1.582900449105871e-09).transl(1.9121230793449805e-08, 4e-08, 0))
hIsland = hIsland.add(rect(9.676343076835401e-09, 3.623074196430835e-10).transl(-3.06788028565032e-09, 4e-08, 0))
hIsland = hIsland.sub(rect(9.198919434569187e-09, -7.266313765083561e-10).transl(-6.253953900739408e-08, 3.683653121196211e-08, 0))
hIsland = hIsland.sub(rect(8.085173762137118e-09, -1.3093168553055137e-09).transl(2.0825719308688694e-08, 4e-08, 0))
hIsland = hIsland.sub(rect(7.566325447771432e-09, -1.11863366345334e-09).transl(4.6626719962245863e-08, 3.997385597132631e-08, 0))
hIsland = hIsland.sub(rect(7.994869376729232e-09, -3.5211722700432564e-10).transl(1.346961052323122e-08, 4e-08, 0))
hIsland = hIsland.add(rect(5.680975188023988e-09, 1.2881841370324823e-09).transl(7.990934303864263e-10, 4e-08, 0))
hIsland = hIsland.sub(rect(5.741647194688099e-09, -3.940999849222101e-11).transl(7.801594712558777e-08, 2.717947279751629e-08, 0))
hIsland = hIsland.sub(rect(9.087886726696758e-09, -1.2822609725909603e-09).transl(1.0917637818233972e-08, 4e-08, 0))
hIsland = hIsland.add(rect(7.480348678198065e-09, 2.302418964089389e-09).transl(-7.774609986344953e-08, 2.7436199481011752e-08, 0))
hIsland = hIsland.add(rect(3.2400597747665332e-09, 5.1210393070643917e-11).transl(-5.4056522708704545e-08, 3.918154664094651e-08, 0))
hIsland = hIsland.add(rect(8.350427296969745e-09, 1.7961760424354193e-09).transl(8.613882649123772e-08, 1.6210880782434142e-08, 0))
hIsland = hIsland.sub(rect(8.779949183150273e-09, -2.1664026535200265e-09).transl(-8.18433608006079e-08, 2.296650082040822e-08, 0))
hIsland = hIsland.add(rect(7.16643558877617e-09, 3.420708224839143e-10).transl(7.285280026406616e-08, 3.141718039010227e-08, 0))
hIsland = hIsland.sub(rect(7.560564205903255e-09, -1.8982873693644074e-09).transl(-4.103261822595286e-08, 4e-08, 0))
[...]
hIsland = hIsland.sub(rect(2.057909541018597e-09, -2.500757829886335e-11).transl(8.388915623112366e-08, 2.0125699364705905e-08, 0))
hIsland = hIsland.sub(rect(9.927376201456514e-09, -4.851636106510165e-10).transl(-3.784198331165695e-10, 4e-08, 0))
hIsland = hIsland.add(rect(9.911186198494144e-09, 1.7498224035152562e-09).transl(3.952761284416021e-08, 4e-08, 0))
hIsland = hIsland.sub(rect(6.555171922772125e-09, -1.6655994690247793e-09).transl(1.2246218694170366e-08, 4e-08, 0))
hIsland = hIsland.sub(rect(5.213460229511471e-09, -1.4697737128105887e-10).transl(6.154141750179067e-08, 3.719956465462987e-08, 0))
hIsland = hIsland.add(rect(9.67681319705418e-09, 6.845574102555831e-10).transl(5.2623858471405225e-08, 3.942176406606358e-08, 0))
hIsland = hIsland.sub(rect(8.682356749559035e-09, -2.7297882805144535e-09).transl(-7.483275356519479e-08, 2.994654417333687e-08, 0))
hIsland = hIsland.add(rect(9.13121162595777e-09, 2.136581343337909e-09).transl(-7.014224789977876e-08, 3.3174345233418415e-08, 0))
hIsland = hIsland.add(rect(3.5829637996203164e-09, 3.3393983365410764e-09).transl(-7.485839259267274e-08, 2.9926347669982264e-08, 0))
hIsland = hIsland.sub(rect(5.273690060799642e-09, -7.129243811924406e-10).transl(-5.016794939849171e-08, 3.973534470687931e-08, 0))
hIsland = hIsland.add(rect(2.1916235605632943e-09, 7.351846553560049e-10).transl(-8.475581577390519e-08, 1.8740069692244277e-08, 0))
hIsland = hIsland.add(rect(5.494061425024402e-09, 1.2176615833848869e-09).transl(8.109593781784055e-08, 2.388587305905016e-08, 0))
hIsland = hIsland.add(rect(5.280276877158831e-09, 3.118859837316463e-10).transl(4.6580348305430845e-08, 3.997532571550924e-08, 0))
hIsland = hIsland.sub(rect(8.990134784884862e-09, -5.419764100827628e-10).transl(-8.643942188742853e-08, 1.559422023061926e-08, 0))
hIsland = hIsland.add(rect(8.641968505184818e-09, 5.302426848559112e-10).transl(4.699921029504654e-08, 3.996050552154868e-08, 0))
hIsland = hIsland.add(rect(4.447334256457083e-09, 6.22992171671902e-10).transl(1.9600898049006195e-08, 4e-08, 0))
hIsland = hIsland.add(rect(4.502237098783596e-09, 8.363402071506581e-10).transl(-1.545698498693387e-08, 4e-08, 0))
hIsland = hIsland.add(rect(3.846510044764146e-09, 3.787811518086227e-09).transl(-6.595444510058566e-08, 3.539866754026074e-08, 0))
hIsland = hIsland.add(rect(8.41088119680495e-09, 2.482468823188122e-09).transl(4.6912492660316526e-08, 3.9963858950082784e-08, 0))
hIsland = hIsland.add(rect(6.867887472297293e-09, 1.6541000703850276e-09).transl(3.997893595470118e-08, 4e-08, 0))
hIsland = hIsland.sub(rect(4.9549769737666944e-09, -1.3801938897878155e-09).transl(4.7221740667830456e-09, 4e-08, 0))
hIsland = hIsland.sub(rect(3.938261196332319e-09, -5.215738375221185e-10).transl(2.125317221190942e-08, 4e-08, 0))
hIsland = hIsland.add(rect(9.391265658477515e-09, 1.7869043280041329e-09).transl(1.1069973339118455e-08, 4e-08, 0))
hIsland = hIsland.sub(rect(6.093873635703789e-09, -2.3196191583871226e-09).transl(-5.2655850658291385e-08, 3.9416864981831105e-08, 0))
hIsland = hIsland.sub(rect(5.842374892449703e-09, -9.854526383374615e-11).transl(-3.441957367006826e-08, 4e-08, 0))
hIsland = hIsland.sub(rect(9.250019426413323e-09, -1.5049766402998604e-09).transl(-5.158027084663313e-08, 3.957003515840606e-08, 0))
hIsland = hIsland.add(rect(3.732991593653381e-09, 5.481536671219125e-10).transl(5.188570432588669e-08, 3.952895061271413e-08, 0))
hIsland = hIsland.sub(rect(5.87446074186333e-09, -4.417742964645262e-09).transl(4.15949186940793e-09, 4e-08, 0))
hIsland = hIsland.sub(rect(8.933707891642986e-09, -5.371808552746027e-09).transl(5.83072750808528e-08, 3.821102089017828e-08, 0))
hIsland = hIsland.sub(rect(9.300634184356527e-09, -1.7083588724952271e-09).transl(1.4333310954638623e-09, 4e-08, 0))
hIsland = hIsland.add(rect(2.4947228431290606e-09, 2.730335099266211e-10).transl(-3.956608052462936e-08, 4e-08, 0))
hIsland = hIsland.add(rect(2.105193129043827e-09, 1.0855927443980382e-09).transl(3.371925036509621e-08, 4e-08, 0))
hIsland = hIsland.add(rect(7.448724339056937e-09, 4.890026564591406e-10).transl(8.634440704136879e-08, 1.579223141155616e-08, 0))
hIsland = hIsland.sub(rect(7.47079995142826e-09, -9.747376358007348e-10).transl(8.562418604416018e-08, 1.7205810290499585e-08, 0))
hIsland = hIsland.add(rect(4.3439044702317484e-09, 3.551905686440684e-09).transl(-4.5796974153062184e-08, 3.9993726245771466e-08, 0))
hIsland = hIsland.add(rect(6.73528270418435e-09, 1.3630319168241505e-09).transl(-1.0507215276984553e-08, 4e-08, 0))
hIsland = hIsland.sub(rect(4.012871639426314e-09, -2.715337215838967e-09).transl(7.094616003101933e-08, 3.268159029806621e-08, 0))
hIsland = hIsland.add(rect(2.2029578958126725e-09, 9.567557416918188e-10).transl(1.907718552434176e-09, 4e-08, 0))
hIsland = hIsland.sub(rect(4.898772940183657e-09, -2.8511192467277787e-09).transl(4.9911198976118154e-08, 3.9761065386694785e-08, 0))
hIsland = hIsland.add(rect(5.827534375199931e-09, 8.097181686804105e-10).transl(-4.9040802577606827e-08, 3.983840856089429e-08, 0))
hIsland = hIsland.add(rect(2.3801504299951283e-09, 1.0283155148675113e-09).transl(7.520404318814411e-08, 2.9651017430064784e-08, 0))
hIsland = hIsland.add(rect(4.054141316872442e-09, 5.332220089630302e-09).transl(-6.231157339198937e-08, 3.6921639295294895e-08, 0))
hIsland = hIsland.add(rect(5.122712330987175e-09, 1.8030693180619112e-09).transl(-2.130668964460482e-08, 4e-08, 0))
hIsland = hIsland.sub(rect(3.2366466972782844e-09, -2.835128307056474e-10).transl(2.2200779997411134e-08, 4e-08, 0))
hIsland = hIsland.sub(rect(7.330085029756146e-09, -5.339365789915277e-09).transl(4.307069870705e-08, 4e-08, 0))
hIsland = hIsland.sub(rect(4.2341332251822725e-09, -4.01476958746961e-09).transl(4.8286381694657694e-08, 3.989318771370748e-08, 0))
hIsland = hIsland.sub(rect(5.8060087043701675e-09, -6.466361776927747e-11).transl(-7.372187392673435e-09, 4e-08, 0))
hIsland = hIsland.add(rect(9.893728130548022e-09, 1.927888794258998e-09).transl(-4.078032847019134e-08, 4e-08, 0))
hIsland = hIsland.sub(rect(3.912898443692578e-09, -3.4854792219159257e-09).transl(7.918390109769166e-08, 2.6013647407686712e-08, 0))
hIsland = hIsland.add(rect(4.292463165104452e-09, 1.2220750961799133e-10).transl(3.987001357750634e-08, 4e-08, 0))
hIsland = hIsland.sub(rect(4.376200790248271e-09, -8.588275177843285e-10).transl(6.658917163210024e-08, 3.509600426895058e-08, 0))
hIsland = hIsland.sub(rect(3.3576357497531018e-09, -8.250402574712241e-10).transl(5.2546781607384536e-08, 3.943348041544661e-08, 0))
hIsland = hIsland.add(rect(8.998715668462373e-09, 2.225348461169193e-09).transl(4.7930618664030974e-08, 3.9915084922151234e-08, 0))
hIsland = hIsland.sub(rect(7.239558496860312e-09, -1.845314958265174e-09).transl(8.274770198299756e-08, 2.1775255999169683e-08, 0))
hIsland = hIsland.sub(rect(9.959151453278477e-09, -4.425995993163448e-09).transl(5.91884940767481e-08, 3.7959683729019366e-08, 0))
hIsland = hIsland.add(rect(6.8886843649298e-09, 1.0789753577174725e-10).transl(1.656963661262845e-08, 4e-08, 0))
hIsland = hIsland.sub(rect(5.312963765037652e-09, -2.8042367573501222e-09).transl(-3.650136817552789e-08, 4e-08, 0))
hIsland = hIsland.add(rect(2.0064003448204764e-09, 1.737330017372441e-09).transl(-8.497434834629115e-08, 1.8369087813302985e-08, 0))
hIsland = hIsland.add(rect(6.795107780702511e-09, 1.9400859653166937e-09).transl(6.681898150598722e-08, 3.4983532448156524e-08, 0))
hIsland = hIsland.sub(rect(6.940098177675732e-09, -5.503735699452809e-10).transl(8.063220521977994e-08, 2.442982918514169e-08, 0))
hIsland = hIsland.add(rect(8.186987644737615e-09, 2.083848951966743e-10).transl(7.957109378536695e-08, 2.5606163987596705e-08, 0))
hIsland = hIsland.add(rect(5.638156349918561e-09, 2.1339458674501257e-09).transl(-7.872396326580513e-08, 2.6483732557740565e-08, 0))
hIsland = hIsland.add(rect(3.6585653724399694e-09, 3.1185324102819224e-09).transl(6.218371263704955e-08, 3.696880254332364e-08, 0))
hIsland = hIsland.sub(rect(3.816045516279779e-09, -1.8962586141507787e-09).transl(-2.137393358531812e-09, 4e-08, 0))
hIsland = hIsland.add(rect(3.0335796540133394e-09, 1.5440035923329782e-09).transl(-1.4211830581713456e-08, 4e-08, 0))
hIsland = hIsland.add(rect(3.1983609172668564e-09, 1.7725490444536208e-10).transl(-2.7373591141288328e-08, 4e-08, 0))
hIsland = hIsland.sub(rect(3.149453815489191e-09, -3.042535281657682e-09).transl(2.0540754520864004e-08, 4e-08, 0))
hIsland = hIsland.sub(rect(9.569615395255064e-09, -3.7177827551764384e-10).transl(4.409440755180858e-08, 4e-08, 0))
hIsland = hIsland.sub(rect(4.180573215484948e-09, -5.24595743123824e-10).transl(-2.671679829253758e-08, 4e-08, 0))
hIsland = hIsland.add(rect(4.975826869186806e-09, 2.492437762939158e-11).transl(6.776785268751514e-08, 3.4502458773713366e-08, 0))
hIsland = hIsland.sub(rect(7.512778186616707e-09, -2.1473679457825464e-09).transl(6.448510424581745e-08, 3.605571230951992e-08, 0))
hIsland = hIsland.add(rect(3.7297919508408605e-09, 6.082896016703042e-11).transl(-2.8092681372986438e-08, 4e-08, 0))
hIsland = hIsland.sub(rect(5.574661070576909e-09, -3.1840586128344854e-09).transl(-3.910229124604054e-08, 4e-08, 0))
hIsland = hIsland.sub(rect(3.4647594972111632e-09, -2.6511863159328455e-09).transl(9.181031764962192e-09, 4e-08, 0))
hIsland = hIsland.add(rect(9.887100049111958e-09, 1.3500129966593187e-09).transl(1.9835414617333254e-08, 4e-08, 0))
hIsland = hIsland.add(rect(6.651560377740668e-09, 3.041466946717492e-09).transl(3.0415078167821966e-08, 4e-08, 0))
hIsland = hIsland.sub(rect(9.257600809293243e-09, -1.4473365860160188e-09).transl(3.353800387999725e-08, 4e-08, 0))
hIsland = hIsland.add(rect(3.491658471450234e-09, 1.932524297789063e-09).transl(6.034541553335502e-08, 3.76023978443053e-08, 0))
hIsland = hIsland.sub(rect(4.5421315003817025e-09, -8.928197203341806e-10).transl(-2.397886848357339e-08, 4e-08, 0))
hIsland = hIsland.sub(rect(3.9940156395285735e-09, -1.9963658243647932e-09).transl(2.8370252578116817e-08, 4e-08, 0))
hIsland = hIsland.sub(rect(9.932756408014328e-09, -2.6863717150294253e-09).transl(5.845167805554442e-08, 3.817104954284023e-08, 0))
hIsland = hIsland.add(rect(2.1928717387139136e-09, 2.6661993435854873e-09).transl(-1.3515159816190949e-08, 4e-08, 0))
hIsland = hIsland.sub(rect(6.572397411398701e-09, -2.055695976174229e-09).transl(2.2952698417465452e-08, 4e-08, 0))
hIsland = hIsland.sub(rect(2.787981447247206e-09, -5.632476176175297e-10).transl(-9.945275784489046e-09, 4e-08, 0))
hIsland = hIsland.add(rect(9.630193583541746e-09, 2.399025372719121e-10).transl(-1.4148177350612939e-08, 4e-08, 0))
hIsland = hIsland.add(rect(2.6046086434508684e-09, 1.7130199531823645e-09).transl(-9.115961354875985e-09, 4e-08, 0))
hIsland = hIsland.sub(rect(2.728842434759057e-09, -9.848712024988393e-10).transl(1.5462144130444162e-08, 4e-08, 0))
hIsland = hIsland.add(rect(5.54723770056841e-09, 3.5731056856068406e-10).transl(-3.343630535868898e-08, 4e-08, 0))
hIsland = hIsland.add(rect(3.0672098998409664e-09, 1.25692344220527e-09).transl(-5.961652994777363e-08, 3.7831147162533334e-08, 0))
hIsland = hIsland.sub(rect(4.709145759343859e-09, -1.1403125349765767e-09).transl(-4.4093917960319515e-08, 4e-08, 0))
hIsland = hIsland.add(rect(2.7413387762772053e-09, 8.216451514922984e-10).transl(-5.089721885077619e-08, 3.965503405977999e-08, 0))
hIsland = hIsland.add(rect(3.3453322732802137e-09, 1.296021712725257e-09).transl(2.609152339142631e-08, 4e-08, 0))
hIsland = hIsland.sub(rect(6.777736038287979e-09, -5.200238817438044e-10).transl(3.2000424860133025e-08, 4e-08, 0))
hIsland = hIsland.add(rect(9.747805397258521e-09, 1.456652223215424e-09).transl(1.1289203188662717e-08, 4e-08, 0))
hIsland = hIsland.sub(rect(5.850264767969675e-09, -4.793960853366527e-10).transl(5.334855312590735e-08, 3.930559384137119e-08, 0))
hIsland = hIsland.add(rect(6.7218634308346215e-09, 1.0483405886909152e-09).transl(7.373535552699958e-08, 3.0782766931195355e-08, 0))
hIsland = hIsland.add(rect(6.855127798018221e-09, 8.682329233858965e-11).transl(4.0407363324074004e-08, 4e-08, 0))
hIsland = hIsland.add(rect(6.320072176951082e-09, 4.453080495331913e-09).transl(-6.31266824697548e-08, 3.66112538336459e-08, 0))
hIsland = hIsland.sub(rect(5.6254363617167446e-09, -2.2577552003098313e-10).transl(5.746844991697713e-09, 4e-08, 0))
hIsland = hIsland.add(rect(5.617601216323881e-09, 1.2337620202797916e-09).transl(-8.721019232551e-08, 1.3864947581288134e-08, 0))
hIsland = hIsland.sub(rect(6.715777278924996e-09, -1.1169611550081307e-09).transl(4.57194224281146e-08, 3.999488788438942e-08, 0))
hIsland = hIsland.add(rect(9.450148917611047e-09, 5.451826492536299e-10).transl(-1.368479835603798e-08, 4e-08, 0))
hIsland = hIsland.add(rect(9.011979634612594e-09, 1.1136147356862743e-09).transl(-8.941633259500618e-08, 6.421531608221803e-09, 0))
hIsland = hIsland.sub(rect(8.241248471265487e-09, -1.8831643242795754e-09).transl(-6.40128586377018e-08, 3.625436835510814e-08, 0))
hIsland = hIsland.sub(rect(4.37119042562571e-09, -1.867518884537541e-09).transl(1.304836061281458e-08, 4e-08, 0))
hIsland = hIsland.add(rect(6.922642422752223e-09, 3.406484549113789e-09).transl(2.9796592337310213e-08, 4e-08, 0))
hIsland = hIsland.sub(rect(4.789946806110586e-09, -1.9336269955418753e-09).transl(7.962090735895165e-08, 2.555293163175405e-08, 0))
hIsland = hIsland.add(rect(2.009507400760171e-09, 2.1718097599619596e-09).transl(-2.5650344001260873e-08, 4e-08, 0))
hIsland = hIsland.add(rect(2.8325507789787035e-09, 4.4209002314781375e-10).transl(3.801362137152711e-09, 4e-08, 0))
hIsland = hIsland.add(rect(8.837206941296383e-09, 1.7788856147267318e-09).transl(6.388159121739401e-08, 3.630853262270738e-08, 0))
hIsland = hIsland.sub(rect(9.68108176616305e-09, -1.9685493367182545e-09).transl(-8.788387280888558e-08, 1.2121963021123734e-08, 0))
hIsland = hIsland.sub(rect(9.211669897707293e-09, -2.9646967150297796e-10).transl(2.4585204230250968e-08, 4e-08, 0))
hIsland = hIsland.add(rect(7.601057645733122e-09, 3.0318980852921473e-09).transl(-8.854553666133598e-08, 1.0087468793887307e-08, 0))
hIsland = hIsland.add(rect(5.487643962736707e-09, 2.4304628109283855e-09).transl(-4.687162523481096e-08, 3.996538768143928e-08, 0))
hIsland = hIsland.sub(rect(9.087098250110228e-09, -3.7875413378356415e-09).transl(-7.239775511477161e-09, 4e-08, 0))
hIsland = hIsland.add(rect(3.16981189223016e-09, 2.645351525734153e-10).transl(1.5664716319253352e-08, 4e-08, 0))
hIsland = hIsland.add(rect(8.098576092708826e-09, 5.079134562144315e-09).transl(4.816679179240763e-08, 3.990082945757272e-08, 0))
hIsland = hIsland.add(rect(4.94708704261218e-09, 4.887686183114078e-10).transl(1.3508415541743824e-08, 4e-08, 0))
hIsland = hIsland.sub(rect(5.625485527226849e-09, -2.8538755450395417e-09).transl(7.04907085228072e-08, 3.296356422063051e-08, 0))
hIsland = hIsland.add(rect(6.5896087064374065e-09, 4.6210680480631665e-10).transl(-7.232009851990063e-09, 4e-08, 0))
hIsland = hIsland.sub(rect(4.940487243199985e-09, -8.407645544011724e-10).transl(6.524198048113245e-08, 3.572473336203928e-08, 0))
hIsland = hIsland.add(rect(2.7260598480967905e-09, 3.513839119632953e-10).transl(-4.530986057279748e-09, 4e-08, 0))
hIsland = hIsland.sub(rect(9.083705699720071e-09, -1.867220701539887e-09).transl(-6.254583136447955e-08, 3.683416344140377e-08, 0))
hIsland = hIsland.add(rect(6.428254989478328e-09, 2.0414141023765862e-09).transl(-1.0686291215382734e-08, 4e-08, 0))
hIsland = hIsland.sub(rect(9.17089475123874e-09, -2.6927232962187006e-09).transl(8.693452797498755e-08, 1.4510831741805923e-08, 0))
hIsland = hIsland.add(rect(6.5756485336207106e-09, 2.5517967802422278e-09).transl(-5.5823361851342316e-08, 3.882577571459362e-08, 0))
hIsland = hIsland.sub(rect(8.710639483035487e-09, -2.0307881332681722e-11).transl(3.628295889090535e-08, 4e-08, 0))
hIsland = hIsland.add(rect(4.465118809989935e-09, 4.497841896115582e-10).transl(-3.6352762650690358e-09, 4e-08, 0))
hIsland = hIsland.add(rect(8.119815504842362e-09, 1.1438854175682459e-09).transl(7.079897504105872e-08, 3.277352604386376e-08, 0))
hIsland = hIsland.sub(rect(9.175268463894586e-09, -7.572981158749301e-10).transl(1.4685898107666124e-10, 4e-08, 0))
hIsland = hIsland.sub(rect(2.484964763643369e-09, -2.8136943876198154e-09).transl(8.402812281997894e-08, 1.991201643078035e-08, 0))
hIsland = hIsland.sub(rect(2.7440786925570254e-09, -1.562442166556808e-09).transl(7.38114161651872e-08, 3.072654120889364e-08, 0))
hIsland = hIsland.sub(rect(8.403111141079797e-09, -2.287918743114945e-10).transl(-8.85129022961476e-08, 1.0198129434518453e-08, 0))
hIsland = hIsland.sub(rect(7.3351452446195425e-09, -3.883526240033184e-09).transl(-6.569606140439894e-08, 3.5518570122986514e-08, 0))
hIsland = hIsland.sub(rect(8.084555544747219e-09, -2.8019943337119027e-10).transl(-9.437670348442225e-09, 4e-08, 0))
hIsland = hIsland.sub(rect(4.594380866513444e-09, -5.474636809446226e-11).transl(-4.802261907289153e-08, 3.990966366036688e-08, 0))
hIsland = hIsland.sub(rect(4.494786229592001e-09, -1.7268668204147285e-09).transl(-5.418196044510495e-08, 3.915847235834957e-08, 0))
hIsland = hIsland.sub(rect(9.891094853666761e-09, -2.25048172908924e-09).transl(1.0226216053823853e-08, 4e-08, 0))
hIsland = hIsland.sub(rect(3.2137918920195824e-09, -1.4679162986130002e-09).transl(-3.3689126372641854e-08, 4e-08, 0))
hIsland = hIsland.add(rect(4.718107508643803e-09, 8.322901016339722e-11).transl(7.020070693962122e-08, 3.3139279528958254e-08, 0))
hIsland = hIsland.add(rect(5.534466093812586e-09, 3.3619511200452844e-09).transl(-2.305568623132645e-08, 4e-08, 0))
hIsland = hIsland.sub(rect(6.384219348827067e-09, -7.144998155732237e-10).transl(5.1537154204682676e-08, 3.957568142084614e-08, 0))
hIsland = hIsland.sub(rect(3.1759005945595222e-09, -5.204939259378465e-10).transl(-6.910915937750299e-08, 3.377483535850985e-08, 0))
hIsland = hIsland.add(rect(6.369505640485132e-09, 2.442145739608001e-09).transl(6.877307099352668e-08, 3.396254838450393e-08, 0))
hIsland = hIsland.add(rect(4.602038876627756e-09, 1.2597439103328427e-09).transl(4.868472747928846e-08, 3.9865678505314417e-08, 0))
hIsland = hIsland.sub(rect(7.661017029913478e-09, -2.2676933797113117e-09).transl(-2.8916032016743885e-08, 4e-08, 0))
hIsland = hIsland.sub(rect(2.738520018682681e-09, -3.9873393691948924e-10).transl(-3.399879240633108e-08, 4e-08, 0))
hIsland = hIsland.add(rect(3.4111465870229555e-09, 2.284665043073127e-09).transl(-6.634456582215552e-09, 4e-08, 0))
hIsland = hIsland.add(rect(4.899896258220569e-09, 5.417885519052558e-11).transl(8.37564436954764e-08, 2.0326968224467543e-08, 0))
hIsland = hIsland.add(rect(2.000540644663417e-09, 5.160937219467277e-10).transl(4.559766096836517e-08, 3.999647195667699e-08, 0))
hIsland = hIsland.add(rect(7.017621775024658e-09, 8.637541837793827e-10).transl(6.073942462907541e-08, 3.747349891410865e-08, 0))
hIsland = hIsland.sub(rect(9.26365114234578e-09, -3.8231415875728373e-10).transl(-5.573976674084911e-08, 3.884411299479391e-08, 0))
hIsland = hIsland.sub(rect(5.4010885964916855e-09, -9.443240950578485e-10).transl(-2.159210776710491e-08, 4e-08, 0))
hIsland = hIsland.add(rect(4.1070870500829964e-09, 2.369338352566959e-09).transl(-7.524757521614844e-08, 2.9615934230252163e-08, 0))
vIsland = hIsland.rotz(pi / 2)
vIslands = vIslands.add(vIsland.transl(0, -a/2, 0))
DefRegion(1, hIslands)
DefRegion(2, vIslands)
TableAdd(m_full.Region(1))
TableAdd(m_full.Region(2))
setgeom(hIslands.add(vIslands))
save(geom)
r2o2 := sqrt(2) / 2
m = RandomMagSeed(4)
B_ext = vector(Bmax*r2o2, Bmax*r2o2, 0)
relax()
minimize()
for B := Bmax; B >= -Bmax; B -= Bstep {
	B_ext = vector(B*r2o2, B*r2o2, 0)
	minimize()
	tablesave()
}
//********************************************************************//
//Please cite the following references, relevant for your simulation. //
//See bibtex file in output folder for justification.                 //
//********************************************************************//
//   * Vansteenkiste et al., AIP Adv. 4, 107133 (2014).
//   * Exl et al., J. Appl. Phys. 115, 17D118 (2014).
