//mumax 3.10 [windows_amd64 go1.11.6(gc) CUDA-11.0]
//GPU info: NVIDIA GeForce RTX 3090(24575MB), CUDA Driver 12.0, cc=8.6, using cc=80 PTX
//(c) Arne Vansteenkiste, Dynamat LAB, Ghent University, Belgium
//This is free software without any warranty. See license.txt
//********************************************************************//
//  If you use mumax in any work or publication,                      //
//  we kindly ask you to cite the references in references.bib        //
//********************************************************************//
//output directory: r1;p0.1;a5.12e-07;l3.0000000000000004e-07;s2.out/
randSeed(2)
ThermSeed(2)
resolution := 2e-09
zResolution := 5e-09
a := 5.12e-07
gridSize := 512
gridDepth := 5
SetCellsize(resolution, resolution, zResolution)
SetGridsize(gridSize, gridSize, gridDepth)
SetPBC(16, 16, 0)
//resizing...
Msat = 700e3
Aex = 13e-12
alpha = 0.2
Bmax := 0.1
Bstep := Bmax / 500.0
TableAdd(B_ext)
TableAdd(m_full)
islandWidth := 8e-08
islandLength := 3.0000000000000004e-07
ellipseConstant := 1.5000000000000002e-08
hIsland := rect(islandLength-2*ellipseConstant, islandWidth)
hIsland = hIsland.add(ellipse(ellipseConstant*2, islandWidth).transl(islandLength/2-ellipseConstant, 0, 0))
hIsland = hIsland.add(ellipse(ellipseConstant*2, islandWidth).transl(-islandLength/2+ellipseConstant, 0, 0))
hIsland = hIsland.add(rect(6.000000000000001e-09, 2.7086720436681984e-10).transl(-1.2433234396458225e-07, -4e-08, 0))
hIsland = hIsland.add(rect(6.000000000000001e-09, 3.1731095191122585e-09).transl(1.4403927049946736e-07, -3.192119060296502e-08, 0))
hIsland = hIsland.sub(rect(6.000000000000001e-09, -1.0622626433880503e-09).transl(7.577010781165467e-08, -4e-08, 0))
hIsland = hIsland.sub(rect(6.000000000000001e-09, -5.431336995286386e-09).transl(-7.796898201527897e-08, -4e-08, 0))
hIsland = hIsland.sub(rect(6.000000000000001e-09, -3.937542916061564e-09).transl(1.384940960943177e-08, -4e-08, 0))
hIsland = hIsland.sub(rect(6.000000000000001e-09, -3.2000602588477772e-09).transl(-8.277709583124387e-08, -4e-08, 0))
hIsland = hIsland.add(rect(6.000000000000001e-09, 3.9703525597401634e-09).transl(-8.74226548689839e-08, -4e-08, 0))
hIsland = hIsland.sub(rect(6.000000000000001e-09, -1.7473010829590813e-09).transl(-9.60474083226983e-08, -4e-08, 0))
hIsland = hIsland.add(rect(6.000000000000001e-09, 9.235508426461036e-10).transl(-1.474151329925117e-07, -2.2448276988589324e-08, 0))
hIsland = hIsland.sub(rect(6.000000000000001e-09, -2.9537254973415727e-09).transl(-3.884136664948014e-08, -4e-08, 0))
hIsland = hIsland.sub(rect(6.000000000000001e-09, -3.864394566014815e-09).transl(-6.613188644193539e-08, -4e-08, 0))
hIsland = hIsland.add(rect(6.000000000000001e-09, 1.0110469164600183e-10).transl(8.626723191012849e-08, -4e-08, 0))
hIsland = hIsland.add(rect(6.000000000000001e-09, 1.3708887725102327e-10).transl(-4.73746541773925e-09, -4e-08, 0))
hIsland = hIsland.sub(rect(6.000000000000001e-09, -1.1172399658847095e-09).transl(4.863312920942633e-08, -4e-08, 0))
hIsland = hIsland.sub(rect(6.000000000000001e-09, -3.2548794492179294e-10).transl(-5.0835353856923236e-08, -4e-08, 0))
hIsland = hIsland.sub(rect(6.000000000000001e-09, -5.389886141071067e-09).transl(1.429496026591432e-07, -3.392056787383593e-08, 0))
hIsland = hIsland.add(rect(6.000000000000001e-09, 4.607400610194611e-11).transl(-2.5642267157069053e-08, -4e-08, 0))
hIsland = hIsland.sub(rect(6.000000000000001e-09, -3.627868790575617e-09).transl(6.715055564808854e-08, -4e-08, 0))
hIsland = hIsland.add(rect(6.000000000000001e-09, 1.579611646746281e-09).transl(-1.1024465685184027e-07, -4e-08, 0))
hIsland = hIsland.add(rect(6.000000000000001e-09, 7.500543527150114e-10).transl(-1.1380419588638768e-08, -4e-08, 0))
hIsland = hIsland.add(rect(6.000000000000001e-09, 6.461889690086031e-09).transl(-7.405434360940534e-08, -4e-08, 0))
hIsland = hIsland.add(rect(6.000000000000001e-09, 3.5076732662000527e-09).transl(-2.2089725431109823e-08, -4e-08, 0))
hIsland = hIsland.sub(rect(6.000000000000001e-09, -3.136120577605875e-09).transl(6.283129910584613e-08, -4e-08, 0))
hIsland = hIsland.sub(rect(6.000000000000001e-09, -1.040649879784755e-09).transl(2.533940194977697e-08, -4e-08, 0))
hIsland = hIsland.sub(rect(6.000000000000001e-09, -1.3557482525415429e-09).transl(2.8539745240170757e-08, -4e-08, 0))
hIsland = hIsland.add(rect(6.000000000000001e-09, 2.6061847020297218e-09).transl(-2.806423716837794e-09, -4e-08, 0))
hIsland = hIsland.sub(rect(6.000000000000001e-09, -4.718639214438042e-10).transl(1.2869086099423326e-08, -4e-08, 0))
hIsland = hIsland.sub(rect(6.000000000000001e-09, -2.7303009355451444e-10).transl(-1.401551490727096e-07, -3.7563522545802406e-08, 0))
hIsland = hIsland.sub(rect(6.000000000000001e-09, -4.0010315236184784e-10).transl(5.002944681917785e-08, -4e-08, 0))
hIsland = hIsland.add(rect(6.000000000000001e-09, 1.7870272639102904e-09).transl(-7.229286186146955e-08, -4e-08, 0))
hIsland = hIsland.sub(rect(6.000000000000001e-09, -8.279923688750428e-10).transl(4.9022789566657316e-08, -4e-08, 0))
hIsland = hIsland.sub(rect(6.000000000000001e-09, -2.8095646780003357e-09).transl(4.266302199331092e-08, -4e-08, 0))
hIsland = hIsland.sub(rect(6.000000000000001e-09, -5.528258657007619e-10).transl(9.991881620946347e-09, -4e-08, 0))
hIsland = hIsland.add(rect(6.000000000000001e-09, 1.9924812877944944e-09).transl(-9.249041385662229e-08, -4e-08, 0))
hIsland = hIsland.add(rect(6.000000000000001e-09, 5.579871558628788e-12).transl(7.577181665876478e-08, -4e-08, 0))
hIsland = hIsland.sub(rect(6.000000000000001e-09, -1.3133771005946611e-09).transl(1.1603164179118448e-07, -4e-08, 0))
hIsland = hIsland.add(rect(6.000000000000001e-09, 1.4587783035066623e-09).transl(-1.0594287829819253e-07, -4e-08, 0))
hIsland = hIsland.sub(rect(6.000000000000001e-09, -1.4855800911715913e-09).transl(-1.207972696757372e-07, -4e-08, 0))
hIsland = hIsland.add(rect(6.000000000000001e-09, 3.600821515602726e-11).transl(4.9797013903423266e-08, -4e-08, 0))
hIsland = hIsland.add(rect(6.000000000000001e-09, 3.843343582255941e-10).transl(-1.1257298502918894e-07, -4e-08, 0))
hIsland = hIsland.sub(rect(6.000000000000001e-09, -1.555989017707224e-11).transl(9.457629166149484e-08, -4e-08, 0))
hIsland = hIsland.sub(rect(6.000000000000001e-09, -3.3294953160003865e-09).transl(-7.808155585430303e-08, -4e-08, 0))
hIsland = hIsland.add(rect(6.000000000000001e-09, 1.0624248070326088e-10).transl(-3.771740072112824e-08, -4e-08, 0))
hIsland = hIsland.add(rect(6.000000000000001e-09, 2.7271714718384068e-09).transl(-1.0035272415402868e-07, -4e-08, 0))
hIsland = hIsland.add(rect(6.000000000000001e-09, 5.1354814178864884e-09).transl(1.1939163865628753e-07, -4e-08, 0))
hIsland = hIsland.add(rect(6.000000000000001e-09, 2.585100610982011e-09).transl(8.326817303650105e-09, -4e-08, 0))
hIsland = hIsland.sub(rect(6.000000000000001e-09, -3.752695876656679e-09).transl(-9.819057985858681e-08, -4e-08, 0))
hIsland = hIsland.add(rect(6.000000000000001e-09, 1.8496443959200722e-09).transl(1.1701958746305151e-07, -4e-08, 0))
hIsland = hIsland.sub(rect(6.000000000000001e-09, -1.7722557430808883e-09).transl(8.576892346076151e-08, -4e-08, 0))
hIsland = hIsland.add(rect(6.000000000000001e-09, 1.587687057383807e-09).transl(8.905805064171965e-08, -4e-08, 0))
hIsland = hIsland.add(rect(6.000000000000001e-09, 2.3042171791998065e-09).transl(-1.3266044117420456e-07, -4e-08, 0))
hIsland = hIsland.sub(rect(6.000000000000001e-09, -3.3174872931661346e-10).transl(-1.1256107417879845e-07, -4e-08, 0))
hIsland = hIsland.add(rect(6.000000000000001e-09, 4.354887036041506e-10).transl(-3.465621286377932e-08, -4e-08, 0))
hIsland = hIsland.add(rect(6.000000000000001e-09, 1.301054883670245e-09).transl(1.2164691048496283e-08, -4e-08, 0))
hIsland = hIsland.add(rect(6.000000000000001e-09, 1.8420423652224635e-09).transl(6.160931878867256e-08, -4e-08, 0))
hIsland = hIsland.sub(rect(6.000000000000001e-09, -1.5218935138693554e-09).transl(1.4214044804912168e-08, -4e-08, 0))
hIsland = hIsland.add(rect(6.000000000000001e-09, 3.766101368822575e-09).transl(-7.717106159174805e-08, -4e-08, 0))
hIsland = hIsland.sub(rect(6.000000000000001e-09, -1.7012256572671903e-09).transl(1.9558890731619224e-08, -4e-08, 0))
hIsland = hIsland.sub(rect(6.000000000000001e-09, -3.827942599803749e-11).transl(-1.41952398170509e-07, -3.54440188018562e-08, 0))
hIsland = hIsland.add(rect(6.000000000000001e-09, 2.787945519895226e-09).transl(9.887155467257135e-08, -4e-08, 0))
hIsland = hIsland.add(rect(6.000000000000001e-09, 4.186326354594881e-09).transl(3.0687325444317885e-08, -4e-08, 0))
hIsland = hIsland.sub(rect(6.000000000000001e-09, -4.469519042274051e-09).transl(8.720554473571363e-08, -4e-08, 0))
hIsland = hIsland.add(rect(6.000000000000001e-09, 2.331741791218816e-09).transl(-1.8245743356925983e-09, -4e-08, 0))
hIsland = hIsland.add(rect(6.000000000000001e-09, 1.9118426600051543e-09).transl(-1.4009564825283301e-07, -3.76212109329263e-08, 0))
hIsland = hIsland.sub(rect(6.000000000000001e-09, -1.7420012397871504e-10).transl(5.7045200719521616e-08, -4e-08, 0))
hIsland = hIsland.add(rect(6.000000000000001e-09, 1.9240162108802194e-09).transl(-1.2116604546285188e-07, -4e-08, 0))
hIsland = hIsland.sub(rect(6.000000000000001e-09, -2.8863689289557376e-09).transl(-9.856510913215036e-08, -4e-08, 0))
hIsland = hIsland.sub(rect(6.000000000000001e-09, -1.3401510878383453e-09).transl(1.1581576052522458e-07, -4e-08, 0))
hIsland = hIsland.add(rect(6.000000000000001e-09, 1.263193682702386e-09).transl(1.1915765688027752e-07, -4e-08, 0))
hIsland = hIsland.sub(rect(6.000000000000001e-09, -2.677545270237802e-09).transl(-4.690283075427418e-08, -4e-08, 0))
hIsland = hIsland.add(rect(6.000000000000001e-09, 5.6163432324041265e-11).transl(8.252370842049151e-08, -4e-08, 0))
hIsland = hIsland.sub(rect(6.000000000000001e-09, -8.520744383540935e-11).transl(-4.6067076208735966e-08, -4e-08, 0))
hIsland = hIsland.add(rect(6.000000000000001e-09, 5.809624648108127e-10).transl(6.89724080380485e-08, -4e-08, 0))
hIsland = hIsland.add(rect(6.000000000000001e-09, 2.1163309503384043e-09).transl(-2.563372169651548e-08, -4e-08, 0))
hIsland = hIsland.add(rect(6.000000000000001e-09, 9.733025098143388e-11).transl(-1.3762874795117457e-07, -3.938095956929852e-08, 0))
hIsland = hIsland.add(rect(6.000000000000001e-09, 1.6202649175248373e-09).transl(1.4263372182691118e-07, -3.443267606413319e-08, 0))
hIsland = hIsland.add(rect(6.000000000000001e-09, 1.2776792665997706e-09).transl(1.414282766952566e-07, -3.614068891717195e-08, 0))
hIsland = hIsland.sub(rect(6.000000000000001e-09, -9.532282589164721e-10).transl(4.176527313804508e-08, -4e-08, 0))
hIsland = hIsland.sub(rect(6.000000000000001e-09, -2.718439060373424e-09).transl(6.997321188691643e-09, -4e-08, 0))
hIsland = hIsland.sub(rect(6.000000000000001e-09, -3.1552329103680842e-09).transl(-1.496957705352218e-07, -8.015242535117805e-09, 0))
hIsland = hIsland.add(rect(6.000000000000001e-09, 1.2260779238173519e-09).transl(-1.37624857700503e-07, -3.93828047803932e-08, 0))
hIsland = hIsland.add(rect(6.000000000000001e-09, 1.3261889046429213e-10).transl(9.455789033553052e-08, -4e-08, 0))
hIsland = hIsland.add(rect(6.000000000000001e-09, 1.3627455868809733e-09).transl(-1.2201780734524286e-07, -4e-08, 0))
hIsland = hIsland.sub(rect(6.000000000000001e-09, -2.3553435657239926e-09).transl(-1.226825353579007e-07, -4e-08, 0))
hIsland = hIsland.sub(rect(6.000000000000001e-09, -3.8605122097340396e-09).transl(3.394738907288635e-08, -4e-08, 0))
hIsland = hIsland.sub(rect(6.000000000000001e-09, -3.4160357022286367e-10).transl(-1.1552856460247294e-08, -4e-08, 0))
hIsland = hIsland.add(rect(6.000000000000001e-09, 2.0506203041976593e-09).transl(9.937798399720964e-09, -4e-08, 0))
hIsland = hIsland.add(rect(6.000000000000001e-09, 1.1038645531762933e-09).transl(3.130017997553823e-08, -4e-08, 0))
hIsland = hIsland.sub(rect(6.000000000000001e-09, -2.9457961779271845e-09).transl(-1.2048505184097434e-07, -4e-08, 0))
hIsland = hIsland.add(rect(6.000000000000001e-09, 4.508023306490061e-10).transl(-1.2175204888060288e-07, -4e-08, 0))
hIsland = hIsland.add(rect(6.000000000000001e-09, 1.0428755283844155e-09).transl(-1.210045401809195e-07, -4e-08, 0))
hIsland = hIsland.add(rect(6.000000000000001e-09, 2.856483653439478e-09).transl(-1.2250314762356964e-08, -4e-08, 0))
hIsland = hIsland.sub(rect(6.000000000000001e-09, -2.3375616304201847e-10).transl(7.954749358507388e-08, -4e-08, 0))
hIsland = hIsland.add(rect(6.000000000000001e-09, 1.1174254796668475e-09).transl(-2.0040481075767822e-08, -4e-08, 0))
hIsland = hIsland.sub(rect(6.000000000000001e-09, -1.9672830763360183e-09).transl(-5.642459109488818e-08, -4e-08, 0))
hIsland = hIsland.add(rect(6.000000000000001e-09, 3.837714827490862e-10).transl(-1.3614753117949182e-07, -3.988277687353002e-08, 0))
hIsland = hIsland.add(rect(6.000000000000001e-09, 2.218785643964875e-09).transl(-7.778233500458674e-09, -4e-08, 0))
hIsland = hIsland.add(rect(6.000000000000001e-09, 2.4431521393742017e-09).transl(-5.6683441726341384e-08, -4e-08, 0))
hIsland = hIsland.add(rect(6.000000000000001e-09, 9.401950029078254e-10).transl(-6.289936418123909e-09, -4e-08, 0))
hIsland = hIsland.sub(rect(6.000000000000001e-09, -1.0726210784677476e-09).transl(-1.2560022551696394e-07, -4e-08, 0))
hIsland = hIsland.add(rect(6.000000000000001e-09, 9.646754175173083e-10).transl(5.7861407939517734e-08, 4e-08, 0))
hIsland = hIsland.add(rect(6.000000000000001e-09, 2.430764818085783e-09).transl(-2.123852123172556e-08, 4e-08, 0))
hIsland = hIsland.add(rect(6.000000000000001e-09, 1.5124485331940532e-09).transl(-4.685433746761242e-08, 4e-08, 0))
hIsland = hIsland.sub(rect(6.000000000000001e-09, -1.9841437277474437e-09).transl(1.4366673278330536e-07, 3.2647639940597295e-08, 0))
hIsland = hIsland.sub(rect(6.000000000000001e-09, -1.132517857182889e-09).transl(1.2551001823141777e-07, 4e-08, 0))
hIsland = hIsland.sub(rect(6.000000000000001e-09, -2.760661002094115e-09).transl(-2.3705577855261993e-08, 4e-08, 0))
hIsland = hIsland.sub(rect(6.000000000000001e-09, -2.468782727152905e-09).transl(-7.183595361564571e-08, 4e-08, 0))
hIsland = hIsland.add(rect(6.000000000000001e-09, 2.140237481988781e-09).transl(-1.1441249308445875e-07, 4e-08, 0))
hIsland = hIsland.add(rect(6.000000000000001e-09, 4.800725205660923e-10).transl(-8.777025418371751e-08, 4e-08, 0))
hIsland = hIsland.add(rect(6.000000000000001e-09, 5.398373245541864e-09).transl(-9.235942407761198e-08, 4e-08, 0))
hIsland = hIsland.add(rect(6.000000000000001e-09, 7.846009023911615e-10).transl(3.282844100274705e-08, 4e-08, 0))
hIsland = hIsland.sub(rect(6.000000000000001e-09, -1.3036893292448807e-09).transl(-1.3181644803746861e-08, 4e-08, 0))
hIsland = hIsland.sub(rect(6.000000000000001e-09, -9.679190774153434e-10).transl(3.8526054915814426e-08, 4e-08, 0))
hIsland = hIsland.sub(rect(6.000000000000001e-09, -7.179407159269951e-10).transl(1.1783929530702643e-07, 4e-08, 0))
hIsland = hIsland.add(rect(6.000000000000001e-09, 5.226899246697231e-10).transl(1.282321646202356e-07, 4e-08, 0))
hIsland = hIsland.add(rect(6.000000000000001e-09, 5.31259023062117e-10).transl(-6.908514096074268e-08, 4e-08, 0))
hIsland = hIsland.sub(rect(6.000000000000001e-09, -1.3393684175709927e-09).transl(7.758220923901722e-08, 4e-08, 0))
hIsland = hIsland.sub(rect(6.000000000000001e-09, -2.4474463864328768e-09).transl(1.2840287315032471e-07, 4e-08, 0))
hIsland = hIsland.sub(rect(6.000000000000001e-09, -2.673157981744616e-10).transl(-7.407176089129715e-08, 4e-08, 0))
hIsland = hIsland.sub(rect(6.000000000000001e-09, -8.918954996167471e-10).transl(1.399700313892832e-07, 3.7740521151866817e-08, 0))
hIsland = hIsland.sub(rect(6.000000000000001e-09, -1.1229615803212185e-09).transl(2.110013345604405e-08, 4e-08, 0))
hIsland = hIsland.add(rect(6.000000000000001e-09, 3.3156772647790853e-09).transl(6.976986602712232e-08, 4e-08, 0))
hIsland = hIsland.sub(rect(6.000000000000001e-09, -4.880060961550571e-10).transl(-1.1666237646066075e-07, 4e-08, 0))
hIsland = hIsland.sub(rect(6.000000000000001e-09, -3.7220816754291243e-10).transl(-1.3145841647004297e-07, 4e-08, 0))
hIsland = hIsland.add(rect(6.000000000000001e-09, 3.495208507681698e-10).transl(-2.6012014654936204e-08, 4e-08, 0))
hIsland = hIsland.add(rect(6.000000000000001e-09, 3.335958109690034e-10).transl(1.726517140800018e-08, 4e-08, 0))
hIsland = hIsland.add(rect(6.000000000000001e-09, 2.6842480100502315e-09).transl(-1.2877938279134704e-07, 4e-08, 0))
hIsland = hIsland.add(rect(6.000000000000001e-09, 1.8988625965249537e-09).transl(7.614049988336593e-08, 4e-08, 0))
hIsland = hIsland.add(rect(6.000000000000001e-09, 2.265738187419655e-09).transl(6.043201032531513e-08, 4e-08, 0))
hIsland = hIsland.add(rect(6.000000000000001e-09, 1.9870217944918847e-09).transl(3.231793865751025e-08, 4e-08, 0))
hIsland = hIsland.add(rect(6.000000000000001e-09, 2.0380394409915655e-09).transl(-4.190547842117426e-08, 4e-08, 0))
hIsland = hIsland.sub(rect(6.000000000000001e-09, -3.0547516898818264e-09).transl(2.0036119839621134e-08, 4e-08, 0))
hIsland = hIsland.sub(rect(6.000000000000001e-09, -4.476168040197899e-09).transl(-8.168533374429204e-08, 4e-08, 0))
hIsland = hIsland.sub(rect(6.000000000000001e-09, -8.593908044365965e-10).transl(1.1585071178097897e-07, 4e-08, 0))
hIsland = hIsland.sub(rect(6.000000000000001e-09, -3.084860888976904e-09).transl(-9.246387654978259e-08, 4e-08, 0))
hIsland = hIsland.add(rect(6.000000000000001e-09, 4.301264969923187e-10).transl(1.433103374583541e-07, 3.330006780942333e-08, 0))
hIsland = hIsland.add(rect(6.000000000000001e-09, 8.189072761204785e-10).transl(-1.4020796998703045e-07, 3.751167390338962e-08, 0))
hIsland = hIsland.add(rect(6.000000000000001e-09, 1.2393207313066101e-09).transl(-5.4869920848637825e-08, 4e-08, 0))
hIsland = hIsland.sub(rect(6.000000000000001e-09, -1.979749778485197e-09).transl(-1.1437774093161202e-07, 4e-08, 0))
hIsland = hIsland.sub(rect(6.000000000000001e-09, -4.029196823445652e-09).transl(-7.533557756786843e-08, 4e-08, 0))
hIsland = hIsland.sub(rect(6.000000000000001e-09, -2.7210430576464593e-10).transl(-5.490231905671602e-08, 4e-08, 0))
hIsland = hIsland.add(rect(6.000000000000001e-09, 1.0957743181494835e-09).transl(-2.4197961360226946e-08, 4e-08, 0))
hIsland = hIsland.sub(rect(6.000000000000001e-09, -8.807612288499981e-10).transl(7.437349803475644e-08, 4e-08, 0))
hIsland = hIsland.add(rect(6.000000000000001e-09, 5.065988914052136e-10).transl(4.794279200201481e-08, 4e-08, 0))
hIsland = hIsland.sub(rect(6.000000000000001e-09, -6.122911927177359e-10).transl(2.6412069248189518e-08, 4e-08, 0))
hIsland = hIsland.add(rect(6.000000000000001e-09, 1.7595702258205514e-09).transl(1.6304290154944698e-08, 4e-08, 0))
hIsland = hIsland.sub(rect(6.000000000000001e-09, -8.377276622716667e-10).transl(9.173904767237879e-08, 4e-08, 0))
hIsland = hIsland.add(rect(6.000000000000001e-09, 8.833428289909758e-10).transl(-1.4426673297126543e-07, 3.1453970324397666e-08, 0))
hIsland = hIsland.add(rect(6.000000000000001e-09, 1.937217318047688e-09).transl(-1.0550528716422738e-07, 4e-08, 0))
hIsland = hIsland.sub(rect(6.000000000000001e-09, -6.669399502657519e-09).transl(-3.5532736256759165e-08, 4e-08, 0))
hIsland = hIsland.add(rect(6.000000000000001e-09, 2.119528392329547e-09).transl(-6.420184597334761e-08, 4e-08, 0))
hIsland = hIsland.sub(rect(6.000000000000001e-09, -1.5951983097236712e-10).transl(1.0822946567628376e-07, 4e-08, 0))
hIsland = hIsland.add(rect(6.000000000000001e-09, 5.087062308493524e-09).transl(-6.707096228460701e-08, 4e-08, 0))
hIsland = hIsland.add(rect(6.000000000000001e-09, 2.9867738462936196e-09).transl(-9.50389325084972e-09, 4e-08, 0))
hIsland = hIsland.add(rect(6.000000000000001e-09, 4.606092533316418e-10).transl(7.62460765877859e-08, 4e-08, 0))
hIsland = hIsland.add(rect(6.000000000000001e-09, 1.14242582578408e-10).transl(-1.147008877424802e-07, 4e-08, 0))
hIsland = hIsland.sub(rect(6.000000000000001e-09, -2.592090503245529e-10).transl(9.959687410018609e-08, 4e-08, 0))
hIsland = hIsland.sub(rect(6.000000000000001e-09, -3.835858037140697e-09).transl(7.627030324029027e-08, 4e-08, 0))
hIsland = hIsland.sub(rect(6.000000000000001e-09, -8.392710134784604e-10).transl(5.125416768063789e-10, 4e-08, 0))
hIsland = hIsland.sub(rect(6.000000000000001e-09, -2.57258133649034e-09).transl(8.206309127531548e-08, 4e-08, 0))
hIsland = hIsland.add(rect(6.000000000000001e-09, 9.995074965245213e-10).transl(-7.985383893985199e-08, 4e-08, 0))
hIsland = hIsland.add(rect(6.000000000000001e-09, 1.939674856029796e-09).transl(9.412636735336217e-08, 4e-08, 0))
hIsland = hIsland.sub(rect(6.000000000000001e-09, -1.1149223732538828e-09).transl(1.1158104669191735e-07, 4e-08, 0))
hIsland = hIsland.add(rect(6.000000000000001e-09, 1.890007337235677e-09).transl(7.29582898037402e-08, 4e-08, 0))
hIsland = hIsland.sub(rect(6.000000000000001e-09, -1.4200974787861052e-09).transl(-4.8048626738180745e-08, 4e-08, 0))
hIsland = hIsland.add(rect(6.000000000000001e-09, 1.1109900886902127e-09).transl(-5.5634960901976926e-08, 4e-08, 0))
hIsland = hIsland.sub(rect(6.000000000000001e-09, -9.075799884533349e-10).transl(-2.3398466555991452e-08, 4e-08, 0))
hIsland = hIsland.sub(rect(6.000000000000001e-09, -9.431557167564993e-10).transl(1.4633473299809783e-07, 2.619907755618991e-08, 0))
hIsland = hIsland.sub(rect(6.000000000000001e-09, -7.782217061114979e-10).transl(-2.534279286145705e-08, 4e-08, 0))
hIsland = hIsland.sub(rect(6.000000000000001e-09, -2.566568504692657e-09).transl(-9.56797203001626e-08, 4e-08, 0))
hIsland = hIsland.add(rect(6.000000000000001e-09, 9.444338114905567e-10).transl(4.978460984274286e-08, 4e-08, 0))
hIsland = hIsland.add(rect(6.000000000000001e-09, 4.900180755511106e-10).transl(-3.809362357346896e-08, 4e-08, 0))
hIsland = hIsland.add(rect(6.000000000000001e-09, 9.317530673393633e-10).transl(1.411775241571768e-07, 3.645033835904504e-08, 0))
hIsland = hIsland.add(rect(6.000000000000001e-09, 4.33485748394206e-11).transl(-2.7773229981302205e-08, 4e-08, 0))
hIsland = hIsland.sub(rect(6.000000000000001e-09, -8.92033682479104e-10).transl(-2.5753507693313162e-08, 4e-08, 0))
hIsland = hIsland.add(rect(6.000000000000001e-09, 7.890715613845573e-10).transl(-1.325302793862195e-07, 4e-08, 0))
hIsland = hIsland.sub(rect(6.000000000000001e-09, -1.612528325804261e-09).transl(-1.0663026155607217e-07, 4e-08, 0))
hIsland = hIsland.sub(rect(6.000000000000001e-09, -1.0890807802696339e-09).transl(-4.538073999516418e-08, 4e-08, 0))
hIsland = hIsland.add(rect(6.000000000000001e-09, 8.169542898666032e-10).transl(-1.4437792798801557e-07, 3.1218737012146435e-08, 0))
hIsland = hIsland.add(rect(6.000000000000001e-09, 1.3933851484517842e-09).transl(4.8527616359185254e-08, 4e-08, 0))
hIsland = hIsland.sub(rect(6.000000000000001e-09, -1.6529070838527557e-09).transl(-1.4695287568978168e-07, 2.4166645553223198e-08, 0))
hIsland = hIsland.sub(rect(6.000000000000001e-09, -1.9165708583496773e-09).transl(-6.554498510690193e-08, 4e-08, 0))
hIsland = hIsland.add(rect(6.000000000000001e-09, 1.190141721335393e-09).transl(-4.9404122946812214e-08, 4e-08, 0))
hIsland = hIsland.add(rect(6.000000000000001e-09, 1.7328422529636826e-10).transl(1.1397297608773898e-07, 4e-08, 0))
hIsland = hIsland.sub(rect(6.000000000000001e-09, -2.7789630536639202e-09).transl(1.0437607534812436e-07, 4e-08, 0))
hIsland = hIsland.sub(rect(6.000000000000001e-09, -1.3580943545687724e-09).transl(1.0456037089209438e-07, 4e-08, 0))
hIsland = hIsland.sub(rect(6.000000000000001e-09, -2.1368651100674705e-09).transl(2.745908685197462e-08, 4e-08, 0))
hIsland = hIsland.sub(rect(6.000000000000001e-09, -4.7418420289097685e-09).transl(1.7542632841753658e-08, 4e-08, 0))
hIsland = hIsland.add(rect(6.000000000000001e-09, 1.4750563904260505e-09).transl(1.0733787411994913e-07, 4e-08, 0))
hIsland = hIsland.add(rect(6.000000000000001e-09, 2.736512856058111e-09).transl(-8.033668531091977e-08, 4e-08, 0))
hIsland = hIsland.add(rect(6.000000000000001e-09, 2.6165658448875967e-09).transl(-8.536047913825377e-08, 4e-08, 0))
hIsland = hIsland.sub(rect(6.000000000000001e-09, -4.989160911537946e-09).transl(6.536285386494174e-08, 4e-08, 0))
hIsland = hIsland.add(rect(6.000000000000001e-09, 5.258660260254931e-10).transl(5.682603095658418e-08, 4e-08, 0))
hIsland = hIsland.sub(rect(6.000000000000001e-09, -2.6659669292329966e-09).transl(8.386682983590064e-08, 4e-08, 0))
hIsland = hIsland.sub(rect(6.000000000000001e-09, -5.001778375256743e-09).transl(-7.739872221135099e-08, 4e-08, 0))
hIsland = hIsland.sub(rect(6.000000000000001e-09, -1.9914682511814503e-09).transl(4.6313256692668235e-08, 4e-08, 0))
hIsland = hIsland.sub(rect(6.000000000000001e-09, -7.234746125827118e-10).transl(2.690308749722029e-08, 4e-08, 0))
hIsland = hIsland.add(rect(6.000000000000001e-09, 1.9619983063683183e-09).transl(-2.7669638058116247e-08, 4e-08, 0))
hIsland = hIsland.sub(rect(6.000000000000001e-09, -1.4110216464727011e-09).transl(-8.801286263803466e-08, 4e-08, 0))
hIsland = hIsland.sub(rect(6.000000000000001e-09, -1.0511077849281866e-11).transl(-2.854518270317043e-08, 4e-08, 0))
vIsland := hIsland.rotz(pi / 2)
vIslands := Universe().Inverse()
hIslands := Universe().Inverse()
hIslands = hIslands.add(hIsland.transl(-a/2, a, 0))
hIslands = hIslands.add(hIsland.transl(-a/2, -a, 0))
hIslands = hIslands.add(hIsland.transl(a/2, a, 0))
hIslands = hIslands.add(hIsland.transl(a/2, -a, 0))
hIslands = hIslands.add(hIsland.transl(-a/2, 0, 0))
hIslands = hIslands.add(hIsland.transl(a/2, 0, 0))
vIslands = vIslands.add(vIsland.transl(-a, a/2, 0))
vIslands = vIslands.add(vIsland.transl(a, a/2, 0))
vIslands = vIslands.add(vIsland.transl(-a, -a/2, 0))
vIslands = vIslands.add(vIsland.transl(a, -a/2, 0))
vIslands = vIslands.add(vIsland.transl(0, a/2, 0))
vIslands = vIslands.add(vIsland.transl(0, -a/2, 0))
DefRegion(1, hIslands)
DefRegion(2, vIslands)
TableAdd(m_full.Region(1))
TableAdd(m_full.Region(2))
setgeom(hIslands.add(vIslands))
save(m)
r2o2 := sqrt(2) / 2
m = RandomMagSeed(4)
B_ext = vector(Bmax*r2o2, Bmax*r2o2, 0)
relax()
minimize()
for B := Bmax; B >= -Bmax; B -= Bstep {
	B_ext = vector(B*r2o2, B*r2o2, 0)
	minimize()
	tablesave()
}
//********************************************************************//
//Please cite the following references, relevant for your simulation. //
//See bibtex file in output folder for justification.                 //
//********************************************************************//
//   * Vansteenkiste et al., AIP Adv. 4, 107133 (2014).
//   * Exl et al., J. Appl. Phys. 115, 17D118 (2014).
