# t (s)	mx ()	my ()	mz ()	B_extx (T)	B_exty (T)	B_extz (T)	m_fullx (A/m)	m_fully (A/m)	m_fullz (A/m)	m_full.region1x (A/m)	m_full.region1y (A/m)	m_full.region1z (A/m)	m_full.region2x (A/m)	m_full.region2y (A/m)	m_full.region2z (A/m)
0	0.642864	0.64286065	4.9548195e-11	0.07071067	0.07071067	0	149144.44	149143.67	1.3552296e-05	652693.44	247312.7	0.00012122845	247316.22	652692.1	-6.157636e-05
0	0.6427595	0.6427566	-4.679552e-10	0.07056918	0.07056918	0	149120.2	149119.55	-0.00011065051	652780.3	247079.86	-0.00033289718	247082.94	652779.44	-0.00030403325
0	0.6426521	0.64264923	-2.1470885e-10	0.070427895	0.07042789	0	149095.3	149094.64	-4.6237245e-05	652870.4	246839.53	-0.00010775862	246842.53	652869.44	-0.0001924261
0	0.642544	0.6425411	-5.670516e-10	0.070286386	0.070286386	0	149070.2	149069.53	-0.00012978316	652960.8	246597.7	-0.0002867149	246600.7	652959.8	-0.0004849138
0	0.64243543	0.64243263	-8.900324e-11	0.07014502	0.07014502	0	149045.03	149044.36	-2.4872448e-05	653051.3	246355.33	-2.5015393e-05	246358.33	653050.3	-8.611068e-05
0	0.64232713	0.6423243	-3.0279454e-10	0.07000352	0.07000352	0	149019.89	149019.23	-7.461735e-05	653141.6	246113.36	-0.00022513854	246116.34	653140.7	-0.0002270628
0	0.6422183	0.64221543	-6.1659977e-10	0.06986222	0.06986222	0	148994.64	148993.97	-0.00014445154	653232.1	245870.44	-0.00034829124	245873.42	653231.2	-0.00055033865
0	0.6421088	0.64210594	-4.6428494e-10	0.069720745	0.069720745	0	148969.23	148968.58	-0.00010427296	653323	245626.28	-0.00016548645	245629.28	653322	-0.00048876234
0	0.64199954	0.64199674	-2.7067995e-10	0.06957926	0.06957926	0	148943.9	148943.25	-6.696428e-05	653413.4	245383.08	-0.00024053264	245386.08	653412.4	-0.00015778941
0	0.64189005	0.6418872	-1.9727522e-10	0.06943794	0.06943794	0	148918.47	148917.83	-5.484694e-05	653504.06	245138.9	-0.00024438117	245141.9	653503.1	-4.2333744e-05
0	0.64177996	0.64177716	1.6974845e-10	0.0692964	0.0692964	0	148892.97	148892.3	4.2410713e-05	653594.94	244894.03	0.00011545567	244897.05	653594	0.00014456011
0	0.64167005	0.6416672	-4.4501622e-10	0.0691551	0.0691551	0	148867.45	148866.8	-0.00010235969	653685.5	244649.56	-0.00025785097	244652.58	653684.56	-0.0003810037
0	0.6415593	0.6415563	-9.056309e-10	0.0690136	0.0690136	0	148841.75	148841.08	-0.00020998086	653776.5	244403.34	-0.0007466133	244406.36	653775.6	-0.00056188426
0	0.64144874	0.64144593	-8.2580325e-11	0.068872124	0.068872124	0	148816.11	148815.45	-1.8654337e-05	653867.4	244157.95	6.734914e-05	244160.94	653866.4	-0.00018857759
0	0.64133805	0.6413352	-3.2848618e-10	0.06873082	0.06873082	0	148790.42	148789.77	-7.52551e-05	653958.06	243912.17	-0.00022129003	243915.19	653957.2	-0.00025015394
0	0.6412272	0.64122427	-1.9635767e-10	0.06858932	0.06858932	0	148764.69	148764.03	-4.40051e-05	654048.8	243666.12	-0.00016933498	243669.16	654047.8	-0.00011160714
0	0.64111555	0.64111274	-1.7158357e-10	0.068447955	0.068447955	0	148738.83	148738.17	-3.9859693e-05	654139.9	243418.97	-9.2364535e-05	243422	654138.94	-0.00018088054
0	0.64100397	0.6410011	-7.156962e-11	0.06830648	0.06830648	0	148712.92	148712.25	-2.1045918e-05	654230.9	243171.62	-5.7727833e-05	243174.67	654229.9	-3.078818e-05
0	0.6408915	0.6408887	-1.9452255e-10	0.06816515	0.06816515	0	148686.83	148686.17	-3.8265305e-05	654322.44	242922.69	-0.0003213516	242925.72	654321.44	5.7727833e-05
0	0.6407798	0.6407769	-1.908523e-10	0.068023674	0.068023674	0	148660.9	148660.25	-4.432398e-05	654413.1	242675.55	-0.00021551724	242678.61	654412.2	-5.6044104e-05
0	0.64066744	0.6406646	-2.2663713e-10	0.06788219	0.06788219	0	148634.83	148634.17	-5.9311224e-05	654504.2	242427.19	-0.00011160714	242430.23	654503.25	-0.00026169952
0	0.64055455	0.6405516	-2.7893798e-10	0.06774088	0.06774088	0	148608.66	148608	-6.377551e-05	654595.4	242177.86	-0.00012507697	242180.9	654594.5	-0.00025400246
0	0.6404419	0.640439	-1.4772703e-10	0.067599334	0.067599334	0	148582.5	148581.83	-2.997449e-05	654686.44	241929.08	-1.34698275e-05	241932.08	654685.56	-0.00016933498
0	0.6403285	0.6403257	-5.4319504e-10	0.06745803	0.06745803	0	148556.22	148555.55	-0.00012563776	654777.8	241679.08	-0.00039639778	241682.12	654776.9	-0.00038870075
0	0.6402151	0.6402121	-1.6332553e-10	0.06731653	0.06731653	0	148529.88	148529.22	-3.109056e-05	654869.2	241428.75	-0.00019819889	241431.78	654868.25	-7.697045e-06
0	0.6401013	0.64009845	-3.0462965e-10	0.06717506	0.06717506	0	148503.48	148502.86	-7.732781e-05	654960.5	241178.31	-0.00015394088	241181.34	654959.56	-0.00028094213
0	0.63998747	0.63998467	-5.9457833e-10	0.06703376	0.06703376	0	148477.1	148476.42	-0.00013839286	655051.75	240927.69	-0.00038292794	240930.72	655050.9	-0.00049645937
0	0.639873	0.6398702	-1.1194222e-10	0.066892266	0.066892266	0	148450.56	148449.89	-2.9336734e-05	655143.3	240675.89	-0.00010775862	240678.97	655142.3	-3.848522e-05
0	0.6397585	0.6397557	-2.2571955e-10	0.066750884	0.066750884	0	148423.97	148423.33	-4.7831632e-05	655234.7	240424.22	-7.312192e-05	240427.25	655233.75	-0.00024197584
0	0.6396439	0.6396411	-3.7252904e-10	0.06660941	0.06660941	0	148397.39	148396.72	-9.008291e-05	655326.06	240172.36	-0.0003656096	240175.45	655325.2	-0.00016933498
0	0.63952875	0.63952595	-7.3404734e-11	0.06646809	0.06646809	0	148370.69	148370.02	-1.8494899e-05	655417.6	239919.61	-6.157636e-05	239922.66	655416.7	-3.4636698e-05
0	0.63941365	0.6394108	-2.3673027e-10	0.06632662	0.06632662	0	148343.97	148343.31	-5.707908e-05	655509.1	239666.9	-0.0002078202	239669.97	655508.2	-0.00016163793
0	0.63929844	0.6392955	-2.1012106e-10	0.06618514	0.06618514	0	148317.22	148316.56	-4.815051e-05	655600.5	239414.17	-0.00021359298	239417.25	655599.56	-6.9273396e-05
0	0.63918245	0.63917965	-1.4772703e-10	0.066043824	0.066043824	0	148290.34	148289.69	-2.9336734e-05	655692.2	239160.31	-0.0001924261	239163.36	655691.25	1.1545567e-05
0	0.6390661	0.63906324	-3.3582667e-10	0.06590227	0.06590227	0	148263.33	148262.67	-7.142857e-05	655784.1	238905.33	-0.00023475985	238908.39	655783.2	-0.00023475985
0	0.63895005	0.63894725	-2.7526776e-11	0.06576097	0.06576097	0	148236.42	148235.75	-5.739796e-06	655875.5	238651.5	-6.157636e-05	238654.58	655874.6	2.6939655e-05
0	0.6388331	0.6388302	-1.6240798e-10	0.065619476	0.065619476	0	148209.27	148208.62	-3.8265305e-05	655967.56	238395.67	-0.00012122845	238398.75	655966.6	-0.00011160714
0	0.6387165	0.6387136	-9.634372e-11	0.06547816	0.06547816	0	148182.22	148181.56	-2.3915816e-05	656059.2	238140.84	-2.6939655e-05	238143.92	656058.2	-7.697044e-05
0	0.6385991	0.63859624	-3.4133202e-10	0.0653367	0.0653367	0	148155	148154.34	-8.2748724e-05	656151.1	237884.6	-0.00023283559	237887.69	656150.2	-0.00027709358
0	0.6384818	0.63847893	-4.5877958e-11	0.06519521	0.06519521	0	148127.78	148127.11	-1.4030612e-05	656242.9	237628.56	-8.659175e-05	237631.64	656242	-1.1545567e-05
0	0.6383639	0.638361	8.441545e-11	0.0650539	0.0650539	0	148100.42	148099.75	1.5625e-05	656334.94	237371.36	5.0030787e-05	237374.44	656334.06	7.697044e-05
0	0.6382462	0.6382434	-2.5141123e-10	0.06491236	0.06491236	0	148073.11	148072.45	-4.8788264e-05	656426.6	237114.9	-0.00015586514	237117.98	656425.75	-0.00014239532
0	0.638128	0.638125	-3.0279454e-10	0.06477103	0.064771034	0	148045.67	148045.02	-6.473214e-05	656518.6	236857.4	-0.0002366841	236860.48	656517.7	-0.00018857759
0	0.63800955	0.63800675	-4.688727e-10	0.06462956	0.06462956	0	148018.2	148017.56	-0.00011128827	656610.6	236599.77	-0.00033289718	236602.83	656609.6	-0.00037330666
0	0.63789076	0.6378878	-4.1748943e-10	0.06448809	0.06448809	0	147990.62	147989.98	-9.773597e-05	656702.7	236341.23	-0.0002424569	236344.33	656701.7	-0.0003656096
0	0.6377718	0.6377689	-6.496319e-10	0.06434676	0.06434676	0	147963.06	147962.38	-0.00014955357	656794.5	236082.81	-0.0005407174	236085.88	656793.7	-0.00041179187
0	0.6376522	0.63764936	-2.3673027e-10	0.06420529	0.06420529	0	147935.33	147934.67	-5.580357e-05	656886.8	235823.31	-0.0001924261	235826.38	656885.9	-0.00013469828
0	0.63753283	0.63753	-3.4775494e-10	0.06406391	0.06406391	0	147907.62	147906.95	-7.8125e-05	656978.75	235564.1	-0.00033482144	235567.19	656977.94	-0.00018088054
0	0.63741267	0.63740987	-1.8075916e-10	0.06392241	0.06392241	0	147879.75	147879.08	-4.336735e-05	657071.2	235303.52	-0.00012892549	235306.6	657070.3	-0.00013469828
0	0.63729286	0.63729	-4.000558e-10	0.063781105	0.063781105	0	147851.94	147851.28	-9.263393e-05	657163.2	235043.77	-0.00029826048	235046.86	657162.2	-0.00026169952
0	0.6371722	0.6371693	-3.2756864e-10	0.06363964	0.06363964	0	147823.95	147823.28	-7.7646684e-05	657255.5	234782.47	-0.00022129003	234785.6	657254.6	-0.00023091133
0	0.6370517	0.63704884	-5.26679e-10	0.06349814	0.06349814	0	147795.98	147795.34	-0.00012244898	657347.7	234521.62	-0.0003656096	234524.73	657346.75	-0.00039254926
0	0.63693076	0.6369279	-4.2024212e-10	0.06335683	0.06335683	0	147767.94	147767.28	-9.29528e-05	657439.9	234260	-0.00028094213	234263.16	657439.06	-0.00030788177
0	0.63680965	0.6368068	-1.4772703e-10	0.06321529	0.06321529	0	147739.84	147739.17	-3.7149235e-05	657532.1	233998.28	-0.00016548645	234001.42	657531.2	-6.9273396e-05
0	0.63668793	0.6366851	-3.1839303e-10	0.06307396	0.06307396	0	147711.61	147710.94	-6.8877554e-05	657624.56	233735.45	-0.0002078202	233738.56	657623.6	-0.00022321429
0	0.6365663	0.63656336	-1.2020025e-10	0.06293249	0.06293249	0	147683.39	147682.72	-3.1887754e-05	657716.9	233472.83	-0.00011930419	233475.92	657715.94	-6.9273396e-05
0	0.63644415	0.6364413	-1.2111781e-10	0.06279103	0.06279103	0	147655.03	147654.36	-2.3118622e-05	657809.3	233209.28	-4.0409483e-05	233212.4	657808.44	-0.00011545567
0	0.6363216	0.63631874	-2.0736837e-10	0.06264969	0.06264969	0	147626.61	147625.94	-4.9107144e-05	657901.8	232945.28	-0.00015394088	232948.36	657900.94	-0.00013469828
0	0.63619864	0.6361958	-2.3306004e-10	0.062508225	0.062508225	0	147598.1	147597.42	-5.197704e-05	657994.56	232680.45	-0.00020397168	232683.53	657993.6	-0.00014239532
0	0.63607615	0.63607335	-1.3121096e-10	0.06236684	0.06236684	0	147569.69	147569.02	-3.0133928e-05	658086.75	232416.88	-0.000100061574	232420	658085.9	-0.000100061574
0	0.6359524	0.6359496	-1.8993475e-10	0.062225346	0.062225346	0	147540.97	147540.3	-4.655612e-05	658179.7	232150.7	-0.00011930419	232153.83	658178.75	-0.00014239532
0	0.6358295	0.63582665	-9.359104e-11	0.062084038	0.062084038	0	147512.45	147511.78	-1.9929847e-05	658271.75	231886.4	-0.00012507697	231889.53	658270.9	-1.924261e-05
0	0.63570523	0.6357024	-2.1929665e-10	0.061942577	0.061942577	0	147483.61	147482.94	-4.7193877e-05	658364.75	231619.47	-0.00013084976	231622.6	658363.9	-0.00015778941
0	0.63558114	0.6355782	-2.587517e-10	0.061801083	0.061801083	0	147454.83	147454.16	-5.8992347e-05	658457.5	231352.97	-0.00021166872	231356.1	658456.56	-0.00015009237
0	0.6354567	0.6354537	-1.5139727e-10	0.061659772	0.061659772	0	147425.95	147425.28	-3.0612246e-05	658550.1	231086.1	-8.851601e-05	231089.22	658549.2	-0.000100061574
0	0.6353322	0.6353293	-4.6428494e-10	0.06151823	0.061518237	0	147397.08	147396.4	-0.000106345666	658642.75	230819.25	-0.0004194889	230822.38	658641.8	-0.00025400246
0	0.6352069	0.635204	-1.7617137e-10	0.061376892	0.061376892	0	147368	147367.31	-3.746811e-05	658735.6	230550.9	-0.00020012315	230554.05	658734.75	-2.3091134e-05
0	0.6350822	0.6350792	-3.0004185e-10	0.06123543	0.06123543	0	147339.03	147338.38	-7.126913e-05	658828.2	230283.6	-0.0002078202	230286.72	658827.3	-0.00021936576
0	0.63495666	0.6349538	-2.6609218e-10	0.061093967	0.061093967	0	147309.94	147309.27	-5.5325254e-05	658920.9	230015.34	-0.00015586514	230018.45	658920	-0.00018857759
0	0.63483095	0.6348281	-1.9911034e-10	0.060952656	0.060952656	0	147280.8	147280.11	-5.1339284e-05	659013.5	229746.73	-0.00013277402	229749.84	659012.7	-0.00015778941
0	0.63470423	0.63470143	-4.0831383e-10	0.060811166	0.060811166	0	147251.4	147250.73	-9.646046e-05	659106.7	229476.1	-0.00032904863	229479.25	659105.9	-0.00026554803
0	0.634578	0.6345751	-2.2388444e-10	0.060669772	0.060669772	0	147222.1	147221.42	-5.2614796e-05	659199.56	229206.52	-0.00020012315	229209.62	659198.6	-0.00012700123
0	0.6344515	0.6344486	-6.2485783e-10	0.060528316	0.060528316	0	147192.77	147192.06	-0.00014269771	659292.3	228936.66	-0.0004387315	228939.81	659291.44	-0.00045797415
0	0.6343248	0.634322	-3.5601297e-10	0.060386974	0.060386974	0	147163.34	147162.69	-8.322704e-05	659385	228666.56	-0.00035406405	228669.7	659384.1	-0.00018088054
0	0.6341969	0.634194	-1.9635767e-10	0.06024551	0.06024551	0	147133.67	147133.02	-4.4642857e-05	659478.4	228394.06	-0.00023860838	228397.19	659477.5	-3.848522e-05
0	0.63406956	0.6340667	-1.8075916e-10	0.060104053	0.06010405	0	147104.14	147103.47	-4.4802295e-05	659571.25	228122.94	-3.271244e-05	228126.11	659570.3	-0.00021936576
0	0.6339416	0.6339387	-4.312528e-10	0.059962712	0.059962712	0	147074.44	147073.78	-9.773597e-05	659664.2	227850.9	-0.00034251847	227854.08	659663.3	-0.00028479064
0	0.6338131	0.63381016	-2.0553326e-10	0.059821166	0.059821166	0	147044.64	147043.94	-4.575893e-05	659757.56	227577.53	-0.00012122845	227580.67	659756.6	-0.00016933498
0	0.63368505	0.63368213	-4.633674e-10	0.05967985	0.05967986	0	147014.94	147014.25	-0.000111447705	659850.25	227305.61	-0.00038870075	227308.75	659849.4	-0.00030403325
0	0.633556	0.63355315	-4.5235668e-10	0.059538368	0.059538368	0	146985	146984.33	-0.00010012755	659943.56	227031.77	-0.00036945814	227034.92	659942.56	-0.00026939655
0	0.63342696	0.63342404	-2.8903113e-10	0.059396908	0.059396908	0	146955.05	146954.39	-6.919643e-05	660036.7	226757.95	-0.00027901787	226761.11	660035.75	-0.00013084976
0	0.63329744	0.6332944	-2.1929665e-10	0.059255596	0.059255596	0	146924.98	146924.31	-5.1339284e-05	660129.9	226483.23	-0.00017703202	226486.39	660129.06	-0.00010775862
0	0.63316786	0.63316494	-3.2940375e-10	0.059114102	0.059114102	0	146894.95	146894.27	-7.4776784e-05	660222.94	226208.9	-0.00023091133	226212.03	660222.06	-0.0002424569
0	0.6330376	0.63303477	-5.220912e-10	0.058972705	0.058972705	0	146864.72	146864.06	-0.00012436224	660316.4	225933.19	-0.0003752309	225936.36	660315.4	-0.00039639778
0	0.63290757	0.6329047	1.2754073e-10	0.05883125	0.058831252	0	146834.55	146833.88	2.1205356e-05	660409.4	225658	6.3500614e-05	225661.14	660408.5	8.466749e-05
0	0.6327768	0.6327739	-4.312528e-11	0.0586899	0.0586899	0	146804.23	146803.56	-5.1020406e-06	660502.75	225381.62	-2.3091134e-05	225384.83	660501.8	1.924261e-05
0	0.6326459	0.6326431	-3.2022815e-10	0.05854845	0.05854845	0	146773.86	146773.2	-7.700893e-05	660595.9	225105.27	-0.0001731835	225108.42	660595	-0.00028479064
0	0.63251454	0.6325116	-2.835258e-10	0.058406986	0.058406986	0	146743.38	146742.7	-7.1906885e-05	660689.25	224827.88	-0.00022321429	224831.02	660688.44	-0.00020012315
0	0.63238287	0.63237995	-1.2020025e-10	0.05826565	0.05826565	0	146712.81	146712.14	-2.1364796e-05	660782.75	224550.14	-0.00012892549	224553.3	660781.75	-3.8485223e-06
0	0.6322513	0.6322484	-5.5053553e-12	0.058124106	0.058124106	0	146682.3	146681.64	3.3482142e-06	660875.94	224272.67	5.580357e-05	224275.89	660875.1	-4.6182267e-05
0	0.632119	0.63211614	-1.8809963e-10	0.05798278	0.05798278	0	146651.6	146650.95	-4.4642857e-05	660969.3	223994.1	-0.00014816811	223997.25	660968.5	-0.00014624384
0	0.6319865	0.6319836	-2.6425703e-10	0.05784131	0.05784131	0	146620.88	146620.19	-5.883291e-05	661062.75	223715.2	-0.00016741072	223718.4	661061.8	-0.0002424569
0	0.6318537	0.6318507	-2.1103862e-10	0.057699848	0.057699848	0	146590.05	146589.38	-5.0701532e-05	661156.2	223435.7	-0.00017510777	223438.86	661155.3	-0.00015009237
0	0.63172084	0.631718	-3.211457e-11	0.05755853	0.05755853	0	146559.23	146558.56	-1.1160714e-05	661249.5	223156.52	-1.7318349e-05	223159.69	661248.56	-1.539409e-05
0	0.63158685	0.631584	-2.3764782e-10	0.05741706	0.05741706	0	146528.17	146527.5	-5.229592e-05	661343.3	222875.2	-0.00012700123	222878.39	661342.4	-0.00017703202
0	0.6314532	0.63145036	-7.6983214e-10	0.057275645	0.057275645	0	146497.14	146496.47	-0.0001747449	661436.8	222594.52	-0.00065040024	222597.69	661435.9	-0.00045797415
0	0.6313195	0.6313166	-1.5598506e-10	0.05713419	0.05713419	0	146466.14	146465.45	-3.8105867e-05	661530.1	222314.06	-0.00010968288	222317.23	661529.25	-0.00011545567
0	0.6311851	0.63118225	-3.3674422e-10	0.056992844	0.056992844	0	146434.95	146434.28	-7.9081634e-05	661623.7	222032.34	-0.00031365457	222035.55	661622.8	-0.00019627463
0	0.63105035	0.63104755	-5.872379e-11	0.056851387	0.056851387	0	146403.69	146403.03	-7.653061e-06	661717.2	221750.2	9.621305e-06	221753.4	661716.3	-8.466749e-05
0	0.63091516	0.6309123	8.99208e-11	0.056709927	0.056709927	0	146372.31	146371.64	2.3756378e-05	661810.94	221467.06	2.8863917e-05	221470.25	661810.06	0.00012315271
0	0.63078004	0.63077724	-1.8167672e-10	0.056568585	0.056568585	0	146340.98	146340.31	-4.3686225e-05	661904.44	221184.44	-0.00013469828	221187.64	661903.6	-0.00013854679
0	0.6306444	0.6306416	-1.9544011e-10	0.056427047	0.056427047	0	146309.5	146308.83	-4.2729593e-05	661998.06	220900.92	-0.00018665333	220904.1	661997.1	-8.0818965e-05
0	0.6305087	0.6305058	-2.55999e-10	0.05628571	0.05628571	0	146278.03	146277.36	-5.994898e-05	662091.6	220617.39	-0.00020397168	220620.58	662090.8	-0.00016163793
0	0.63037217	0.6303693	-3.174755e-10	0.05614425	0.05614425	0	146246.36	146245.66	-8.0357146e-05	662185.5	220332.47	-0.00027324507	220335.67	662184.6	-0.00021551724
0	0.63023597	0.63023305	-4.138192e-10	0.056002792	0.0560028	0	146214.75	146214.06	-9.550383e-05	662278.94	220048.25	-0.0003405942	220051.45	662278	-0.00025400246
0	0.6300987	0.6300958	-3.303213e-10	0.05586147	0.05586147	0	146182.89	146182.22	-8.163265e-05	662372.75	219762.16	-0.0002713208	219765.34	662371.9	-0.00021551724
0	0.62996185	0.6299589	-5.064927e-10	0.055719994	0.055719994	0	146151.14	146150.47	-0.00011670918	662466.2	219477.12	-0.00036945814	219480.36	662465.4	-0.0003848522
0	0.62982434	0.6298215	4.679552e-11	0.055578664	0.055578664	0	146119.27	146118.58	7.653061e-06	662559.9	219191	-2.1166872e-05	219194.22	662559	8.0818965e-05
0	0.62968606	0.6296832	-5.1108046e-10	0.055437125	0.055437125	0	146087.17	146086.48	-0.00012117347	662653.94	218903.33	-0.00033289718	218906.53	662653.1	-0.00037330666
0	0.62954783	0.6295449	-1.5231483e-10	0.05529578	0.05529578	0	146055.1	146054.42	-3.396046e-05	662747.75	218615.95	-0.00012892549	218619.17	662746.94	-7.312192e-05
0	0.62940913	0.6294062	-3.2298084e-10	0.055154327	0.055154327	0	146022.94	146022.25	-7.413903e-05	662841.6	218328.03	-0.00027901787	218331.2	662840.8	-0.00017703202
0	0.6292705	0.62926763	-5.909081e-10	0.05501287	0.05501287	0	145990.77	145990.1	-0.00013472576	662935.25	218040.27	-0.0004598984	218043.47	662934.44	-0.00039254926
0	0.62913096	0.62912816	-3.890451e-10	0.054871522	0.054871522	0	145958.39	145957.7	-9.008291e-05	663029.25	217750.84	-0.00032904863	217754.06	663028.5	-0.0002424569
0	0.628992	0.6289891	-7.156962e-11	0.05473008	0.05473008	0	145926.17	145925.47	-1.5625e-05	663122.9	217462.8	-2.3091134e-05	217466.02	663122	-5.0030787e-05
0	0.6288521	0.62884927	-3.193106e-10	0.05458865	0.05458865	0	145893.7	145893.03	-7.366071e-05	663216.7	217173.06	-0.00028094213	217176.27	663215.9	-0.00020012315
0	0.6287114	0.62870854	-1.7617137e-10	0.054447185	0.054447185	0	145861.05	145860.38	-3.9221937e-05	663310.9	216881.86	-0.00017703202	216885.1	663310.06	-6.9273396e-05
0	0.6285713	0.6285683	-1.5873775e-10	0.054305855	0.054305855	0	145828.53	145827.86	-4.033801e-05	663404.56	216592	-0.00015394088	216595.2	663403.75	-7.697044e-05
0	0.6284299	0.62842697	-3.5142517e-10	0.054164406	0.054164406	0	145795.73	145795.05	-8.0357146e-05	663498.6	216299.9	-0.00032327586	216303.1	663497.9	-0.00018857759
0	0.62828916	0.6282863	2.9361895e-11	0.054022938	0.054022938	0	145763.08	145762.4	1.9132654e-06	663592.44	216009.17	-2.6939655e-05	216012.39	663591.6	7.312192e-05
0	0.62814736	0.6281445	-3.578481e-11	0.0538816	0.0538816	0	145730.19	145729.52	-1.2276786e-05	663686.5	215716.64	-1.1545567e-05	215719.86	663685.6	-2.3091134e-05
0	0.62800574	0.62800294	5.1383314e-11	0.05374007	0.053740066	0	145697.36	145696.67	1.5943877e-05	663780.2	215424.73	8.659175e-05	215427.98	663779.25	1.924261e-05
0	0.6278632	0.62786037	-2.156264e-10	0.05359871	0.05359871	0	145664.27	145663.61	-5.3730866e-05	663874.5	215130.88	-0.00013662253	215134.1	663873.6	-0.0001731835
0	0.627721	0.62771803	-4.6153228e-10	0.053457264	0.053457264	0	145631.28	145630.6	-0.000112404334	663968.3	214837.88	-0.00042911022	214841.1	663967.44	-0.0002424569
0	0.6275779	0.62757504	-4.1290162e-11	0.053315822	0.053315822	0	145598.1	145597.4	-9.247449e-06	664062.44	214543.44	-2.6939655e-05	214546.66	664061.56	-4.2333744e-05
0	0.62743443	0.6274315	-1.0827198e-10	0.053174462	0.053174462	0	145564.78	145564.1	-2.4872448e-05	664156.56	214248.44	-0.00010775862	214251.67	664155.7	-3.848522e-05
0	0.62729144	0.6272886	-1.2845829e-10	0.053033024	0.053033024	0	145531.64	145530.95	-3.3163265e-05	664250.1	213954.73	-5.7727833e-05	213957.97	664249.4	-0.00013854679
0	0.6271472	0.6271443	-2.55999e-10	0.052891586	0.052891586	0	145498.16	145497.47	-6.218112e-05	664344.56	213658.31	-0.00027516932	213661.58	664343.7	-0.00010775862
0	0.6270026	0.6269997	-4.9548195e-11	0.052750126	0.052750126	0	145464.6	145463.9	-7.971938e-06	664438.8	213361.6	9.428879e-05	213364.84	664438	-0.00013469828
0	0.6268581	0.62685525	-1.7892404e-10	0.052608777	0.052608773	0	145431.11	145430.42	-4.1135205e-05	664532.75	213065.38	-8.659175e-05	213068.61	664531.94	-0.00015009237
0	0.6267131	0.6267103	7.891009e-11	0.05246734	0.05246734	0	145397.45	145396.78	1.3233418e-05	664626.8	212768.34	-5.7727834e-06	212771.6	664625.94	0.00011930419
0	0.626568	0.62656504	-1.8075916e-10	0.052325882	0.052325882	0	145363.78	145363.11	-3.6989797e-05	664720.9	212471.05	-0.00018665333	212474.3	664720.06	-5.0030787e-05
0	0.62642276	0.62641984	-3.349091e-10	0.05218454	0.05218454	0	145330.08	145329.39	-7.669005e-05	664814.75	212173.92	-0.00030788177	212177.16	664813.8	-0.00016163793
0	0.6262761	0.6262732	-3.688588e-10	0.052043002	0.052043002	0	145296.05	145295.38	-8.609694e-05	664909.1	211874.19	-0.0003213516	211877.42	664908.3	-0.0002078202
0	0.6261302	0.62612736	-6.3311585e-11	0.051901635	0.051901635	0	145262.19	145261.53	-1.0841837e-05	665003	211576.03	-4.2333744e-05	211579.25	665002.2	-3.4636698e-05
0	0.62598294	0.6259801	-3.817046e-10	0.0517602	0.0517602	0	145228.03	145227.36	-8.609694e-05	665097.56	211275.34	-0.00020397168	211278.6	665096.7	-0.00033482144
0	0.6258362	0.62583333	-1.0276663e-10	0.051618766	0.051618766	0	145194.02	145193.34	-2.0408163e-05	665191.44	210976.05	-0.00011160714	210979.3	665190.6	-3.078818e-05
0	0.62568885	0.6256859	-1.9544011e-10	0.05147742	0.05147742	0	145159.81	145159.12	-4.2729593e-05	665285.6	210675.45	-0.0002366841	210678.72	665284.9	-4.2333744e-05
0	0.6255414	0.6255385	-1.3855143e-10	0.05133596	0.05133596	0	145125.61	145124.94	-3.093112e-05	665379.56	210375.19	-0.0002713208	210378.45	665378.7	7.312192e-05
0	0.6253929	0.62539	-2.404005e-10	0.051194515	0.051194515	0	145091.16	145090.47	-5.197704e-05	665473.94	210072.81	-6.542488e-05	210076.08	665473.1	-0.00025400246
0	0.6252443	0.6252414	-1.7066601e-10	0.05105309	0.05105309	0	145056.67	145056	-3.5554847e-05	665568.2	209770.56	-5.0030787e-05	209773.83	665567.4	-0.00018857759
0	0.62509537	0.6250925	-1.7525381e-10	0.050911706	0.050911706	0	145022.14	145021.45	-4.001913e-05	665662.44	209467.9	-0.00017125923	209471.17	665661.7	-6.157636e-05
0	0.6249465	0.62494373	9.175592e-12	0.05077028	0.05077028	0	144987.58	144986.92	-2.2321428e-06	665756.56	209165.34	-4.4258006e-05	209168.6	665755.75	6.9273396e-05
0	0.624797	0.62479407	-1.5414994e-10	0.050628845	0.050628845	0	144952.9	144952.22	-3.3003827e-05	665850.7	208861.8	-7.119766e-05	208865.08	665849.9	-0.00015778941
0	0.62464684	0.62464404	-4.2391235e-10	0.050487474	0.050487474	0	144918.06	144917.4	-0.00010028699	665945.06	208557.28	-0.00031557883	208560.55	665944.25	-0.00027709358
0	0.6244966	0.6244936	-3.555542e-10	0.050345946	0.050345946	0	144883.19	144882.53	-8.147321e-05	666039.25	208252.6	-0.00030018474	208255.88	666038.5	-0.00020012315
0	0.6243462	0.6243433	-2.0920349e-10	0.05020459	0.05020459	0	144848.33	144847.64	-4.846939e-05	666133.44	207948.03	-8.0818965e-05	207951.3	666132.56	-0.00019627463
0	0.6241949	0.624192	-2.587517e-10	0.050063137	0.050063133	0	144813.2	144812.53	-6.521046e-05	666227.75	207641.83	-0.0001828048	207645.08	666226.94	-0.00017703202
0	0.6240439	0.624041	-1.8167672e-10	0.04992171	0.04992171	0	144778.17	144777.52	-3.8105867e-05	666321.9	207336.38	-2.6939655e-05	207339.64	666320.94	-0.00022321429
0	0.62389225	0.6238893	-3.4591982e-10	0.049780354	0.049780354	0	144743	144742.33	-7.653061e-05	666416	207029.88	-0.0002520782	207033.16	666415.2	-0.00021166872
0	0.62373996	0.6237371	-1.5139727e-10	0.0496389	0.0496389	0	144707.67	144706.98	-3.9221937e-05	666510.3	206722.36	-8.659175e-05	206725.62	666509.6	-0.00013469828
0	0.62358695	0.6235841	-2.1057983e-10	0.049497455	0.049497455	0	144672.17	144671.52	-4.4802295e-05	666604.9	206413.67	-8.466749e-05	206416.94	666604.06	-0.00018088054
0	0.62343436	0.62343156	-2.0553326e-10	0.04935602	0.04935602	0	144636.77	144636.11	-4.591837e-05	666699	206105.89	-0.00015778941	206109.17	666698.2	-0.00013854679
0	0.6232819	0.6232789	-5.615462e-10	0.04921464	0.04921464	0	144601.38	144600.72	-0.00013440689	666793	205798.34	-0.00055033865	205801.61	666792.1	-0.00025785097
0	0.62312776	0.6231249	-2.9178382e-10	0.04907321	0.04907321	0	144565.64	144564.97	-6.5369895e-05	666887.5	205488.1	-0.0002270628	205491.38	666886.7	-0.00016163793
0	0.6229743	0.6229714	4.49604e-11	0.04893179	0.04893179	0	144530.06	144529.36	1.8494899e-05	666981.44	205179.28	5.580357e-05	205182.53	666980.6	4.6182267e-05
0	0.6228196	0.6228167	2.5508146e-10	0.048790418	0.048790418	0	144494.16	144493.5	5.8673468e-05	667076	204868.19	0.00020397168	204871.48	667075.2	0.0001731835
0	0.6226649	0.622662	-2.3856538e-11	0.048648883	0.048648883	0	144458.27	144457.58	-1.0522959e-05	667170.25	204557.38	-9.8137316e-05	204560.64	667169.44	3.078818e-05
0	0.6225098	0.6225069	-8.5333005e-11	0.04850753	0.04850753	0	144422.28	144421.61	-1.8654337e-05	667264.5	204245.97	-6.9273396e-05	204249.23	667263.7	-3.848522e-05
0	0.62235457	0.62235165	6.3311585e-11	0.048366077	0.048366077	0	144386.23	144385.58	1.8494899e-05	667358.7	203934.25	0.00012315271	203937.53	667358	3.8485223e-06
0	0.62219864	0.62219566	-5.688867e-11	0.048224654	0.04822465	0	144350.08	144349.39	-1.690051e-05	667453.1	203621.61	-7.119766e-05	203624.9	667452.3	-1.1545567e-05
0	0.6220424	0.6220395	-1.7617137e-10	0.04808329	0.04808329	0	144313.83	144313.17	-4.575893e-05	667547.4	203308.75	-0.00017703202	203312.02	667546.6	-6.9273396e-05
0	0.6218857	0.6218828	6.606426e-11	0.04794185	0.047941845	0	144277.48	144276.81	1.8973215e-05	667641.75	202994.98	0.00018857759	202998.23	667640.94	-6.542488e-05
0	0.62172884	0.62172586	-1.00472734e-10	0.047800384	0.047800384	0	144241.08	144240.42	-2.4394132e-05	667735.94	202681.06	-0.0001039101	202684.36	667735.1	-2.3091134e-05
0	0.6215716	0.6215687	-1.7800648e-10	0.047658965	0.047658965	0	144204.64	144203.97	-4.2091837e-05	667830.2	202366.88	-0.00018088054	202370.14	667829.4	-6.9273396e-05
0	0.6214143	0.6214115	-3.211457e-11	0.04751758	0.04751758	0	144168.12	144167.47	-1.2914541e-05	667924.2	202052.67	-0.00012122845	202055.95	667923.4	5.387931e-05
0	0.62125576	0.62125283	-4.4318108e-10	0.047376156	0.047376156	0	144131.34	144130.67	-0.000101403064	668018.75	201736.03	-0.00029633622	201739.3	668018	-0.00032327586
0	0.6210971	0.62109417	-2.0828593e-10	0.047234733	0.047234733	0	144094.52	144093.84	-4.7193877e-05	668113.06	201419.52	-0.00017703202	201422.8	668112.3	-0.00011160714
0	0.6209384	0.6209356	-2.9361895e-11	0.047093347	0.047093347	0	144057.72	144057.05	-7.971938e-06	668207.25	201103.36	-1.34698275e-05	201106.62	668206.44	-4.6182267e-05
0	0.6207794	0.6207765	-9.083836e-11	0.046951823	0.04695183	0	144020.81	144020.14	-2.2640306e-05	668301.44	200786.47	1.9242611e-06	200789.77	668300.6	-0.00013084976
0	0.6206196	0.6206168	-7.799253e-11	0.046810456	0.046810456	0	143983.77	143983.08	-1.817602e-05	668395.7	200468.48	-7.889471e-05	200471.77	668394.94	-1.924261e-05
0	0.62046	0.620457	-3.303213e-11	0.04666902	0.04666902	0	143946.69	143946.03	-7.653061e-06	668489.75	200150.81	-0.00010198584	200154.11	668489	4.6182267e-05
0	0.6202991	0.6202962	-4.1106651e-10	0.046527658	0.046527658	0	143909.39	143908.72	-0.000103635204	668584.25	199831.22	-0.00033866995	199834.52	668583.5	-0.00030403325
0	0.620138	0.620135	-3.0279453e-11	0.046386234	0.046386234	0	143872	143871.33	-1.2914541e-05	668678.7	199511.05	-1.924261e-05	199514.36	668678.06	-2.6939655e-05
0	0.6199772	0.6199743	-3.0829989e-10	0.0462448	0.0462448	0	143834.72	143834.05	-7.063138e-05	668772.7	199192.14	-0.00017125923	199195.4	668772	-0.00025400246
0	0.61981523	0.61981237	5.872379e-11	0.04610342	0.04610342	0	143797.17	143796.47	1.2117347e-05	668867.1	198870.95	6.734914e-05	198874.28	668866.3	1.1545567e-05
0	0.6196534	0.6196505	-6.698182e-11	0.045961898	0.045961898	0	143759.6	143758.94	-1.5146684e-05	668961.3	198550.17	-0.00012892549	198553.47	668960.56	5.7727833e-05
0	0.6194908	0.6194879	-2.5416388e-10	0.045820512	0.045820512	0	143721.86	143721.19	-5.9151786e-05	669055.7	198228.11	-0.00015201663	198231.42	669054.94	-0.00019627463
0	0.6193274	0.61932456	-8.6067053e-10	0.0456791	0.0456791	0	143683.97	143683.3	-0.00020057398	669150.06	197905.1	-0.00086014473	197908.39	669149.3	-0.00035863416
0	0.619165	0.61916214	-2.6150437e-10	0.045537677	0.045537677	0	143646.28	143645.6	-5.7716836e-05	669243.9	197583.8	-0.00023091133	197587.1	669243.1	-0.00013469828
0	0.61900157	0.61899877	-3.2756864e-10	0.045396283	0.045396283	0	143608.39	143607.72	-7.637117e-05	669338.1	197260.89	-0.00017895628	197264.2	669337.4	-0.00026939655
0	0.61883795	0.6188351	-1.5782017e-10	0.04525487	0.04525487	0	143570.42	143569.73	-3.3322704e-05	669432	196937.83	-0.0001924261	196941.11	669431.3	-1.1545567e-05