# t (s)	mx ()	my ()	mz ()	B_extx (T)	B_exty (T)	B_extz (T)	m_fullx (A/m)	m_fully (A/m)	m_fullz (A/m)	m_full.region1x (A/m)	m_full.region1y (A/m)	m_full.region1z (A/m)	m_full.region2x (A/m)	m_full.region2y (A/m)	m_full.region2z (A/m)
0	0.638113	0.6381094	-2.988651e-10	0.07071087	0.07071087	0	63249.76	63249.4	-3e-05	657601.8	235752.06	-0.0002830376	235756.36	657601.06	-0.00012800141
0	0.6379916	0.63798785	-3.0307445e-10	0.070569105	0.07056911	0	63237.723	63237.355	-2.9375e-05	657696.6	235487.2	-0.0003084172	235491.61	657695.8	-0.00011475989
0	0.63786495	0.63786125	-4.840773e-10	0.07042788	0.07042788	0	63225.18	63224.8	-4.875e-05	657795.2	235211.33	-0.00036248675	235215.73	657794.4	-0.00034427966
0	0.6377385	0.63773483	2.9465572e-11	0.07028652	0.07028653	0	63212.64	63212.277	6.25e-07	657893.44	234936.08	-3.3103814e-05	234940.5	657892.7	7.5035314e-05
0	0.6376114	0.6376076	-1.557466e-10	0.070144884	0.070144884	0	63200.035	63199.668	-1.78125e-05	657992.2	234659.27	-5.6276484e-05	234663.69	657991.4	-0.0001897952
0	0.63748413	0.6374803	-4.0830866e-10	0.07000352	0.07000352	0	63187.426	63187.055	-3.9375e-05	658090.7	234382.66	-0.0004286944	234387.12	658089.9	-0.00015007063
0	0.63735664	0.63735294	-6.229864e-10	0.06986229	0.06986229	0	63174.793	63174.42	-6.09375e-05	658189.06	234105.77	-0.0004617982	234110.17	658188.3	-0.00038400423
0	0.6372285	0.6372247	-8.9238594e-10	0.069720544	0.069720544	0	63162.086	63161.723	-8.90625e-05	658287.94	233827.42	-0.00059007545	233831.86	658287.1	-0.00067973166
0	0.6371004	0.6370968	-2.9044636e-10	0.06957919	0.06957919	0	63149.395	63149.023	-2.875e-05	658386.44	233549.77	-0.00029076182	233554.19	658385.7	-0.00014565678
0	0.63697106	0.6369673	-2.7781827e-10	0.069437966	0.069437966	0	63136.566	63136.2	-2.5625e-05	658485.9	233269.2	-0.00028414108	233273.66	658485	-0.00010151836
0	0.6368432	0.6368395	-5.1775223e-10	0.069296576	0.069296576	0	63123.895	63123.527	-5.0625e-05	658583.75	232992.25	-0.0002910377	232996.67	658583.06	-0.00041931498
0	0.6367133	0.6367096	-5.219616e-10	0.06915496	0.06915496	0	63111.02	63110.652	-5.1875e-05	658683.1	232710.98	-0.0004325565	232715.4	658682.4	-0.00033103814
0	0.6365843	0.6365806	-8.839672e-11	0.069013596	0.069013596	0	63098.234	63097.867	-1e-05	658781.5	232432.1	-0.00014124294	232436.52	658780.8	1.9862287e-05
0	0.6364546	0.63645095	-5.051241e-10	0.068872236	0.068872236	0	63085.383	63085.016	-4.65625e-05	658880.3	232151.75	-0.0004309013	232156.19	658879.5	-0.0002626236
0	0.636324	0.6363202	-3.9988993e-10	0.06873064	0.06873064	0	63072.43	63072.062	-3.75e-05	658979.56	231869.55	-0.0003685558	231874	658978.9	-0.00019420905
0	0.6361939	0.6361902	-3.367494e-11	0.06858927	0.06858927	0	63059.53	63059.176	-9.375e-07	659078.25	231588.73	-5.5173024e-07	231593.17	659077.5	-8.827684e-06
0	0.6360631	0.6360595	-3.241213e-10	0.068448015	0.068448015	0	63046.574	63046.21	-3.1875e-05	659177.1	231306.8	-0.00029131357	231311.23	659176.44	-0.00015227754
0	0.63593227	0.6359285	-2.7781827e-10	0.06830665	0.06830665	0	63033.6	63033.242	-2.90625e-05	659276	231024.7	-0.00024220957	231029.14	659275.3	-0.00016772599
0	0.63580096	0.6357972	-5.303803e-10	0.06816504	0.06816504	0	63020.586	63020.223	-5.25e-05	659374.94	230741.9	-0.00051200564	230746.34	659374.3	-0.00023393362
0	0.6356691	0.6356654	-5.303803e-10	0.068023674	0.068023674	0	63007.523	63007.16	-5.28125e-05	659474	230458.27	-0.00041159074	230462.7	659473.3	-0.00032221046
0	0.635537	0.6355333	-2.988651e-10	0.06788232	0.06788232	0	62994.42	62994.055	-2.9375e-05	659573.1	230174.16	-0.00028248588	230178.56	659572.44	-0.00016772599
0	0.63540316	0.6353995	3.5358688e-10	0.067740716	0.067740716	0	62981.156	62980.79	3.65625e-05	659673.4	229886.5	0.00016772599	229890.95	659672.7	0.00033103814
0	0.63527226	0.63526845	-2.8202762e-10	0.06759932	0.06759932	0	62968.184	62967.812	-2.40625e-05	659771.25	229605.34	-0.00022896804	229609.8	659770.56	-0.00012358757
0	0.63513887	0.6351352	-2.988651e-10	0.06745809	0.06745809	0	62954.97	62954.598	-2.9375e-05	659870.7	229319.34	-0.00022565766	229323.78	659869.94	-0.00017655367
0	0.6350058	0.635002	-2.9465572e-10	0.067316726	0.067316726	0	62941.77	62941.402	-2.84375e-05	659969.7	229033.9	-0.00034565898	229038.34	659969.06	-6.1793784e-05
0	0.6348722	0.6348685	-2.9465572e-10	0.067174986	0.06717498	0	62928.53	62928.168	-2.96875e-05	660068.8	228747.78	-7.7793964e-05	228752.22	660068.06	-0.00032221046
0	0.6347378	0.6347341	-3.5358688e-10	0.06703377	0.06703377	0	62915.21	62914.848	-3.40625e-05	660168.44	228460	-0.00026372704	228464.42	660167.75	-0.00022951978
0	0.63460416	0.63460046	-4.6303045e-11	0.066892385	0.066892385	0	62901.965	62901.598	-4.375e-06	660267.25	228174.06	2.37244e-05	228178.53	660266.5	-8.8276836e-05
0	0.6344693	0.63446563	-4.0830866e-10	0.06675075	0.066750765	0	62888.59	62888.227	-4.3125e-05	660366.75	227885.81	-0.00031834835	227890.27	660366	-0.00025600282
0	0.63433444	0.6343308	-2.609808e-10	0.0666094	0.0666094	0	62875.24	62874.87	-2.71875e-05	660466	227597.89	-0.0002664857	227602.33	660465.25	-9.269068e-05
0	0.63419944	0.6341957	-5.682646e-10	0.06646816	0.066468164	0	62861.844	62861.48	-5.65625e-05	660565.2	227309.55	-0.0004460739	227313.97	660564.44	-0.00034427966
0	0.6340634	0.63405967	-3.1991193e-10	0.06632643	0.06632643	0	62848.367	62848.004	-3.21875e-05	660664.8	227019.47	-0.00023834746	227023.9	660664.1	-0.00020303672
0	0.6339281	0.6339243	-3.1991193e-10	0.06618507	0.06618507	0	62834.945	62834.586	-3.1875e-05	660763.94	226730.92	-0.00027145128	226735.38	660763.1	-0.0001588983
0	0.6337912	0.6337876	-3.7042436e-10	0.06604384	0.06604385	0	62821.383	62821.02	-3.75e-05	660863.7	226439.52	-0.00028496867	226443.97	660863.06	-0.00023393362
0	0.63365495	0.63365126	-2.0625901e-10	0.065902434	0.065902434	0	62807.87	62807.51	-2e-05	660963	226149.39	-6.813868e-05	226153.83	660962.4	-0.00022951978
0	0.633518	0.6335142	-2.5256205e-10	0.06576085	0.06576085	0	62794.3	62793.938	-2.4375e-05	661062.5	225858.14	-0.0001313118	225862.58	661061.8	-0.00020745056
0	0.63338095	0.6333773	-4.1251802e-10	0.065619476	0.065619476	0	62780.723	62780.355	-4.0625e-05	661161.8	225567.08	-0.00047007416	225571.53	661161.06	-0.00014124294
0	0.63324296	0.6332393	-3.367494e-10	0.06547824	0.06547824	0	62767.047	62766.684	-3.1875e-05	661261.7	225274.14	-0.0002444165	225278.58	661261	-0.00021627825
0	0.6331055	0.6331019	-2.1046838e-11	0.06533652	0.065336525	0	62753.418	62753.055	-1.875e-06	661360.9	224982.38	-5.9035134e-05	224986.83	661360.25	8.827684e-06
0	0.632967	0.63296324	-7.155925e-11	0.06519514	0.06519514	0	62739.69	62739.324	-8.125e-06	661460.75	224688.61	-0.00016800185	224693.1	661459.94	8.386299e-05
0	0.6328287	0.6328251	-7.408487e-10	0.065053925	0.065053925	0	62725.984	62725.613	-7.4375e-05	661560.06	224395.66	-0.00052055746	224400.12	661559.4	-0.00053407485
0	0.6326894	0.6326857	-2.3151521e-10	0.06491251	0.064912505	0	62712.168	62711.81	-2.375e-05	661659.94	224100.69	-0.00015007063	224105.11	661659.3	-0.00016772599
0	0.63255	0.63254637	-7.155925e-10	0.06477093	0.06477093	0	62698.35	62697.996	-7.09375e-05	661759.7	223805.8	-0.0006187654	223810.22	661759.06	-0.00042814267
0	0.6324107	0.63240707	0	0.06462956	0.06462956	0	62684.543	62684.19	1.25e-06	661859.1	223511.39	-5.0483315e-05	223515.84	661858.5	5.29661e-05
0	0.63227063	0.632267	-3.1570258e-10	0.06448818	0.06448818	0	62670.664	62670.3	-3.265625e-05	661958.94	223215.5	-0.00022731285	223219.94	661958.3	-0.00022951978
0	0.63213056	0.6321269	-5.219616e-10	0.0643466	0.0643466	0	62656.777	62656.418	-5.28125e-05	662058.6	222919.8	-0.00048110876	222924.23	662057.8	-0.00030455508
0	0.6319896	0.63198596	-4.7144916e-10	0.06420522	0.06420522	0	62642.812	62642.453	-4.546875e-05	662158.44	222622.5	-0.0003431762	222626.97	662157.8	-0.00031338277
0	0.6318488	0.6318452	-3.5358688e-10	0.064063966	0.064063966	0	62628.86	62628.496	-3.625e-05	662258.1	222325.84	-0.00031283105	222330.28	662257.44	-0.0001897952
0	0.63170767	0.63170403	-2.2730585e-10	0.063922584	0.063922584	0	62614.86	62614.496	-1.96875e-05	662357.8	222028.36	-0.0002088299	222032.81	662357.2	-6.1793784e-05
0	0.6315658	0.6315621	-6.0193955e-10	0.06378101	0.06378101	0	62600.797	62600.438	-5.84375e-05	662457.75	221729.83	-0.00048028116	221734.25	662457.1	-0.00036634886
0	0.6314236	0.6314201	-6.734988e-10	0.06363963	0.06363963	0	62586.71	62586.35	-6.671875e-05	662557.6	221430.95	-0.0005329714	221435.39	662557.06	-0.00041490112
0	0.63128144	0.6312778	-1.0102482e-10	0.06349824	0.06349824	0	62572.617	62572.258	-7.5e-06	662657.44	221132.16	-0.00015834658	221136.61	662656.8	1.7655368e-05
0	0.6311388	0.63113517	-4.5882106e-10	0.06335668	0.06335668	0	62558.48	62558.125	-4.46875e-05	662757.25	220832.66	-0.0003897974	220837.08	662756.7	-0.00027145128
0	0.6309955	0.63099194	-5.851021e-10	0.063215286	0.06321527	0	62544.28	62543.914	-5.9375e-05	662857.3	220532.03	-0.0005161436	220536.48	662856.7	-0.00033103814
0	0.63085216	0.63084847	-2.483527e-10	0.06307404	0.06307404	0	62530.062	62529.7	-2.5625e-05	662957.2	220231.27	-0.00024165784	220235.73	662956.56	-9.48976e-05
0	0.6307084	0.6307048	-2.6519015e-10	0.062932655	0.062932655	0	62515.812	62515.457	-2.4375e-05	663057.06	219930.16	-0.00022096795	219934.61	663056.5	-0.00011475989
0	0.6305642	0.63056064	-4.4619297e-10	0.062790945	0.062790945	0	62501.53	62501.168	-4.21875e-05	663157.06	219628.36	-0.00026152012	219632.83	663156.44	-0.00034869352
0	0.6304184	0.6304147	-8.671297e-10	0.062649705	0.062649705	0	62487.074	62486.72	-8.6875e-05	663257.9	219323.47	-0.0009009755	219327.9	663257.3	-0.00037076272
0	0.63027525	0.6302715	-2.2309649e-10	0.06250833	0.06250833	0	62472.867	62472.516	-2.0625e-05	663356.8	219023.97	-0.00025269244	219028.4	663356.25	-4.4138418e-05
0	0.6301299	0.63012624	-6.3140514e-11	0.06236674	0.06236674	0	62458.47	62458.113	-7.96875e-06	663457	218720.39	-0.0002587615	218724.84	663456.3	0.00013241525
0	0.6299842	0.6299806	-1.557466e-10	0.062225346	0.062225346	0	62444.043	62443.68	-1.71875e-05	663557	218416.53	-0.00018593308	218420.95	663556.44	-7.062147e-05
0	0.6298385	0.62983495	-3.1991193e-10	0.06208412	0.06208412	0	62429.605	62429.234	-3.1875e-05	663656.94	218112.61	-0.00032607256	218117.06	663656.25	-0.00013241525
0	0.6296918	0.6296882	-4.8828663e-10	0.061942417	0.061942417	0	62415.055	62414.695	-4.8125e-05	663757.3	217806.78	-0.0005075918	217811.27	663756.6	-0.00020303672
0	0.6295453	0.6295417	-1.5995597e-10	0.061801024	0.06180102	0	62400.53	62400.176	-1.40625e-05	663857.25	217501.72	-0.00015669139	217506.19	663856.7	-3.7517657e-05
0	0.6293984	0.6293947	-4.4619297e-10	0.06165979	0.06165979	0	62385.965	62385.613	-4.21875e-05	663957.3	217195.94	-0.0003051068	217200.36	663956.75	-0.00031338277
0	0.6292511	0.62924755	-4.546117e-10	0.061518367	0.061518367	0	62371.367	62371.01	-4.5625e-05	664057.4	216889.7	-0.00032607256	216894.17	664056.8	-0.00032441737
0	0.62910336	0.62909985	-5.219616e-10	0.06137681	0.06137681	0	62356.734	62356.38	-5.03125e-05	664157.44	216582.88	-0.00039724575	216587.3	664156.9	-0.00036634886
0	0.62895507	0.6289515	-1.8100281e-10	0.061235435	0.061235435	0	62342.03	62341.68	-2.0625e-05	664257.8	216274.95	-0.00022345074	216279.4	664257.25	-7.062147e-05
0	0.62880665	0.6288031	4.2093677e-12	0.061094042	0.061094042	0	62327.312	62326.957	6.25e-07	664357.9	215966.95	1.18622e-05	215971.42	664357.3	3.5310735e-05
0	0.628658	0.62865436	-4.5040233e-10	0.060952503	0.0609525	0	62312.582	62312.223	-4.28125e-05	664458	215658.69	-0.000331314	215663.16	664457.4	-0.00029131357
0	0.6285088	0.6285052	-4.7144916e-10	0.060811102	0.060811102	0	62297.793	62297.43	-4.8125e-05	664558.2	215349.62	-0.0003605557	215354.06	664557.6	-0.00031338277
0	0.628359	0.6283553	-4.2093676e-11	0.06066984	0.06066984	0	62282.938	62282.59	-2.8125e-06	664658.56	215039.45	-6.786282e-05	215043.92	664658	8.827684e-06
0	0.628209	0.6282054	-5.682646e-10	0.060528446	0.060528446	0	62268.08	62267.727	-5.34375e-05	664758.8	214729.34	-0.0006562831	214733.78	664758.25	-0.000110346045
0	0.6280591	0.6280554	-3.0728384e-10	0.0603869	0.060386896	0	62253.21	62252.85	-3.03125e-05	664858.9	214419.34	-0.00023558881	214423.8	664858.25	-0.0002118644
0	0.62790805	0.6279045	-3.7884307e-10	0.060245506	0.060245506	0	62238.242	62237.89	-3.78125e-05	664959.25	214107.52	-0.00040055613	214111.97	664958.7	-0.00015448446
0	0.6277572	0.6277536	-2.567714e-10	0.060104124	0.060104124	0	62223.293	62222.93	-2.5625e-05	665059.44	213796.23	-0.0002868997	213800.67	665058.9	-8.386299e-05
0	0.6276058	0.6276023	-3.914712e-10	0.059962578	0.05996258	0	62208.285	62207.938	-4e-05	665159.56	213484.05	-0.00029076182	213488.48	665159.06	-0.0002736582
0	0.6274538	0.62745017	-2.8202762e-10	0.059821147	0.059821147	0	62193.22	62192.86	-2.8125e-05	665260.1	213170.77	-0.0002753134	213175.2	665259.56	-0.00012800141
0	0.627301	0.6272974	2.8202762e-10	0.059679918	0.059679918	0	62178.074	62177.72	2.875e-05	665360.7	212856.2	0.00022179555	212860.66	665360.2	0.00020745056
0	0.6271491	0.6271456	-2.609808e-10	0.05953851	0.05953851	0	62163.027	62162.68	-2.59375e-05	665460.56	212543.8	-0.00019834701	212548.23	665460.06	-0.0002118644
0	0.6269969	0.62699324	-5.345897e-10	0.059396826	0.059396826	0	62147.926	62147.58	-5.3125e-05	665560.5	212230.7	-0.000574627	212235.14	665559.94	-0.00018538136
0	0.6268426	0.62683904	-2.483527e-10	0.059255596	0.059255596	0	62132.64	62132.285	-2.125e-05	665661.4	211913.89	-0.00030455508	211918.36	665660.8	-1.5448446e-05
0	0.62668955	0.626686	-2.0625901e-10	0.059114188	0.059114188	0	62117.47	62117.113	-2.3125e-05	665761.3	211599.61	-0.0001406912	211604.05	665760.8	-0.00018096752
0	0.62653553	0.62653196	-1.8100281e-10	0.058972627	0.058972627	0	62102.2	62101.855	-1.9375e-05	665861.56	211283.72	-0.0002532442	211288.17	665861	-3.0896892e-05
0	0.6263809	0.6263774	-1.8521218e-10	0.058831234	0.058831234	0	62086.883	62086.523	-2e-05	665962	210966.86	-5.4621294e-05	210971.3	665961.44	-0.00022510593
0	0.62622595	0.6262224	-3.3254005e-10	0.05868999	0.058689985	0	62071.51	62071.164	-3.1875e-05	666062.44	210649.34	-0.00028331348	210653.8	666062	-0.00016551907
0	0.62607086	0.62606734	-3.7042436e-10	0.0585483	0.0585483	0	62056.145	62055.793	-3.734375e-05	666162.7	210332.06	-0.000247451	210336.47	666162.2	-0.00029131357
0	0.62591547	0.6259119	-3.2833067e-10	0.058406904	0.058406904	0	62040.734	62040.383	-3.125e-05	666262.94	210014.14	-0.00026041668	210018.58	666262.44	-0.0002118644
0	0.62575907	0.6257554	-3.6621498e-10	0.058265664	0.058265664	0	62025.24	62024.883	-3.703125e-05	666363.7	209694.62	-0.00022896804	209699.03	666363.06	-0.00027807202
0	0.6256029	0.6255994	-3.6200562e-10	0.05812423	0.05812423	0	62009.754	62009.41	-3.625e-05	666463.75	209375.81	-0.00037103856	209380.25	666463.25	-0.0001368291
0	0.62544596	0.62544245	-3.5779624e-10	0.057982713	0.057982713	0	61994.203	61993.855	-3.71875e-05	666564.3	209055.56	-0.0003194518	209060.03	666563.8	-0.00020303672
0	0.62528884	0.62528527	-2.3151521e-10	0.057841305	0.057841305	0	61978.625	61978.277	-2.25e-05	666664.6	208735.2	-0.00027641683	208739.66	666664.1	-9.269068e-05
0	0.6251314	0.6251279	-1.936309e-10	0.057699904	0.057699904	0	61963.027	61962.684	-1.78125e-05	666764.9	208414.72	-0.00023614053	208419.16	666764.4	-8.827684e-06
0	0.6249731	0.6249696	-2.1888712e-10	0.057558388	0.057558388	0	61947.332	61946.99	-2.21875e-05	666865.56	208092.34	-0.00022676113	208096.77	666865	-8.386299e-05
0	0.62481517	0.62481165	-1.1365293e-10	0.057416987	0.057416987	0	61931.68	61931.336	-1.15625e-05	666965.6	207771.23	-0.00014096707	207775.66	666965.2	-3.0896892e-05
0	0.62465584	0.6246523	-2.567714e-10	0.05727571	0.05727571	0	61915.887	61915.547	-2.40625e-05	667066.4	207447.33	-0.000286348	207451.75	667065.9	-7.062147e-05
0	0.62449723	0.6244938	-3.493775e-10	0.0571343	0.0571343	0	61900.164	61899.82	-3.375e-05	667166.5	207125.27	-0.00027641683	207129.7	667165.94	-0.00022510593
0	0.6243377	0.62433416	-2.1888712e-10	0.05699279	0.05699279	0	61884.344	61883.992	-2.09375e-05	667267.06	206801.27	-0.00022014035	206805.72	667266.44	-7.062147e-05
0	0.62417763	0.6241742	-2.1888712e-10	0.056851387	0.056851387	0	61868.492	61868.145	-2.046875e-05	667367.3	206476.94	-0.0001313118	206481.36	667366.9	-0.0001588983
0	0.6240173	0.6240138	-2.483527e-10	0.056709986	0.05670998	0	61852.59	61852.254	-2.5e-05	667467.8	206151.98	-0.00027089953	206156.42	667467.3	-8.8276836e-05
0	0.6238565	0.62385297	-2.3151521e-10	0.05656847	0.05656847	0	61836.656	61836.31	-2.34375e-05	667568.25	205826.44	-0.00028358932	205830.9	667567.75	-5.29661e-05
0	0.6236953	0.6236918	-1.7679344e-10	0.05642703	0.05642703	0	61820.67	61820.324	-1.53125e-05	667668.7	205500.28	-6.841455e-05	205504.69	667668.2	-0.0001588983
0	0.6235339	0.6235304	-4.293555e-10	0.056285787	0.056285787	0	61804.676	61804.336	-4.375e-05	667769	205174.1	-0.00034483138	205178.48	667768.5	-0.00027807202
0	0.6233721	0.62336844	-3.6621498e-10	0.05614437	0.056144364	0	61788.633	61788.29	-3.375e-05	667869.3	204847.05	-0.00033103814	204851.48	667868.9	-0.0001588983
0	0.62320966	0.62320614	-4.967054e-10	0.0560027	0.056002706	0	61772.543	61772.195	-4.859375e-05	667969.75	204519.33	-0.0004223495	204523.77	667969.3	-0.0002957274
0	0.6230467	0.6230432	-4.293555e-10	0.05586147	0.055861466	0	61756.387	61756.047	-4.1875e-05	668070.3	204190.61	-0.0004055217	204195.06	668069.9	-0.00025820974
0	0.6228835	0.62288004	-3.7884307e-10	0.05572005	0.055720054	0	61740.21	61739.867	-3.8125e-05	668170.7	203861.77	-0.0003161414	203866.2	668170.25	-0.00021627825
0	0.62272	0.6227165	-4.3777423e-10	0.05557856	0.05557856	0	61723.996	61723.66	-4.40625e-05	668271.06	203532.36	-0.0003740731	203536.8	668270.6	-0.00026924434
0	0.62255627	0.62255275	-3.2833067e-10	0.0554371	0.055437103	0	61707.777	61707.43	-3.15625e-05	668371.3	203203.03	-0.00024055438	203207.45	668370.8	-0.00021848518
0	0.6223919	0.62238836	-4.2093676e-10	0.05529586	0.05529586	0	61691.496	61691.14	-4e-05	668471.6	202872.62	-0.00026703742	202877.03	668471.2	-0.00029131357
0	0.6222265	0.622223	-5.051241e-11	0.055154454	0.055154454	0	61675.086	61674.742	-4.0625e-06	668572.44	202540.25	-9.765625e-05	202544.66	668571.94	2.2069209e-05
0	0.6220616	0.6220581	-2.1888712e-10	0.05501279	0.05501279	0	61658.746	61658.402	-1.9375e-05	668672.56	202209.27	-0.00025489935	202213.69	668672.1	-3.5310735e-05
0	0.62189597	0.6218926	-1.304904e-10	0.054871544	0.054871544	0	61642.332	61641.996	-1.34375e-05	668772.94	201877.1	-0.00015007063	201881.55	668772.5	-2.2069209e-05
0	0.62173	0.6217266	-4.798679e-10	0.05473013	0.05473012	0	61625.875	61625.54	-4.4375e-05	668873.25	201544.39	-0.0004016596	201548.81	668872.8	-0.00026041668
0	0.62156326	0.6215599	-3.0307445e-10	0.054588605	0.054588605	0	61609.344	61609.01	-2.78125e-05	668973.9	201210.38	-0.00019255385	201214.81	668973.44	-0.00019420905
0	0.62139666	0.6213932	-6.52452e-10	0.05444718	0.05444718	0	61592.844	61592.492	-6.4375e-05	669073.94	200876.97	-0.00047228107	200881.36	669073.56	-0.000445798
0	0.62122864	0.6212252	-1.2628103e-10	0.05430595	0.05430595	0	61576.184	61575.844	-1.28125e-05	669174.7	200540.94	2.427613e-05	200545.39	669174.3	-0.00019862287
0	0.62106127	0.62105787	-4.967054e-10	0.054164287	0.054164287	0	61559.594	61559.25	-4.71875e-05	669274.8	200206.5	-0.00027420992	200210.9	669274.56	-0.000390625
0	0.62089324	0.62088984	-2.3151521e-10	0.05402286	0.05402286	0	61542.94	61542.6	-2.3125e-05	669375.2	199871	-0.00014289813	199875.4	669374.7	-0.00016772599
0	0.62072444	0.62072104	-2.8202762e-10	0.053881623	0.053881623	0	61526.2	61525.867	-2.78125e-05	669475.56	199534.19	-0.00026758917	199538.61	669475.2	-0.00014124294
0	0.62055576	0.62055236	-2.0625901e-10	0.053740162	0.053740162	0	61509.484	61509.145	-2.125e-05	669575.7	199198	-0.00028910663	199202.39	669575.4	-1.7655368e-05
0	0.6203863	0.62038285	-3.6200562e-10	0.053598683	0.053598687	0	61492.69	61492.35	-3.34375e-05	669676.06	198860.31	-0.00023724399	198864.72	669675.6	-0.00026924434
0	0.6202161	0.62021273	-4.251461e-10	0.053457264	0.053457264	0	61475.824	61475.48	-4.234375e-05	669776.5	198521.64	-0.00034676245	198526.03	669776.1	-0.00024717514
0	0.62004596	0.62004256	-3.6200562e-10	0.05331584	0.05331584	0	61458.953	61458.617	-3.75e-05	669876.7	198183.2	-0.00037076272	198187.6	669876.4	-0.0001368291
0	0.6198754	0.61987203	-3.6621498e-10	0.053174376	0.053174376	0	61442.055	61441.71	-3.59375e-05	669976.94	197844.23	-0.00036579714	197848.62	669976.56	-0.00017655367
0	0.6197044	0.619701	-2.1888712e-10	0.05303295	0.053032946	0	61425.1	61424.77	-2.375e-05	670077.06	197504.72	-0.00027641683	197509.11	670076.7	-7.944915e-05
0	0.61953217	0.6195288	-2.609808e-10	0.05289166	0.05289166	0	61408.03	61407.69	-2.59375e-05	670177.7	197162.92	-0.00033324506	197167.33	670177.3	-5.9586866e-05
0	0.6193608	0.61935747	2.5256205e-11	0.052750226	0.052750226	0	61391.047	61390.703	6.25e-07	670277.56	196823.2	-0.00016413974	196827.6	670277.2	0.00016331214
0	0.61918765	0.61918426	-7.5768614e-11	0.05260877	0.05260877	0	61373.88	61373.547	-6.875e-06	670378.25	196480.14	-0.00016496734	196484.56	670377.8	2.648305e-05
0	0.61901504	0.61901164	-2.483527e-10	0.052467342	0.052467342	0	61356.77	61356.438	-2.46875e-05	670478.3	196138.4	-0.0002703478	196142.83	670477.9	-9.269068e-05
0	0.6188417	0.61883837	-4.672398e-10	0.052325904	0.052325908	0	61339.586	61339.254	-4.21875e-05	670578.56	195795.48	-0.00031117586	195799.86	670578.1	-0.00029131357
0	0.6186681	0.6186647	-4.967054e-10	0.05218446	0.05218446	0	61322.375	61322.04	-4.75e-05	670678.6	195452.28	-0.00041959083	195456.67	670678.25	-0.00024276129
0	0.61849415	0.61849076	-2.988651e-10	0.052042987	0.052042987	0	61305.14	61304.8	-2.8125e-05	670778.5	195108.8	-0.00037903865	195113.19	670778.2	-3.5310735e-05
0	0.61831903	0.6183157	-4.419836e-10	0.051901728	0.051901728	0	61287.79	61287.45	-4.25e-05	670878.94	194763.38	-0.00037765934	194767.77	670878.56	-0.00022069209
0	0.6181439	0.6181405	-7.2401124e-10	0.0517603	0.051760294	0	61270.426	61270.098	-6.9375e-05	670979.1	194418.05	-0.00064304157	194422.45	670978.75	-0.0003795904
0	0.6179683	0.61796504	-3.1991193e-10	0.051618665	0.051618665	0	61253.027	61252.7	-3.03125e-05	671079.25	194072.12	-0.0002016574	194076.52	671078.9	-0.0002118644
0	0.6177924	0.6177891	-2.1046838e-10	0.05147743	0.05147743	0	61235.59	61235.26	-2.1875e-05	671179.4	193725.77	-6.206965e-05	193730.14	671179	-0.00022069209
0	0.6176161	0.61761284	-4.5040233e-10	0.051335983	0.051335983	0	61218.12	61217.785	-4.375e-05	671279.3	193378.9	-0.00027434787	193383.3	671279	-0.00035752117
0	0.61743927	0.61743593	-4.0409928e-10	0.051194493	0.051194496	0	61200.58	61200.25	-4.0625e-05	671379.44	193031.17	-0.00035848672	193035.55	671379.06	-0.00022510593
0	0.6172621	0.6172587	-3.914712e-10	0.051053066	0.051053066	0	61183.027	61182.695	-3.9375e-05	671479.3	192683.31	-0.00032041734	192687.7	671478.94	-0.0002736582
0	0.6170838	0.61708045	-5.472178e-11	0.050911807	0.050911807	0	61165.332	61165.004	-4.0625e-06	671579.7	192333.14	-0.00022220935	192337.52	671579.3	0.00011917373
0	0.6169055	0.6169022	-5.72474e-10	0.050770186	0.050770186	0	61147.668	61147.34	-5.4375e-05	671679.7	191983.58	-0.00046124647	191987.95	671679.5	-0.00034207274
0	0.61672723	0.6167239	-1.7679344e-10	0.050628755	0.050628755	0	61130.004	61129.676	-1.28125e-05	671779.44	191634.33	-0.00012275997	191638.7	671779.06	-8.8276836e-05
0	0.61654854	0.61654514	-3.7884307e-10	0.050487496	0.050487496	0	61112.29	61111.957	-3.71875e-05	671879.25	191284.33	-0.00018110545	191288.67	671878.9	-0.00036634886
0	0.616368	0.61636466	-1.431185e-10	0.050346017	0.050346017	0	61094.39	61094.062	-1.5625e-05	671979.7	190931.12	-0.00010951845	190935.48	671979.4	-9.710452e-05
0	0.6161882	0.616185	-2.8202762e-10	0.05020459	0.05020459	0	61076.58	61076.25	-2.8125e-05	672079.4	190579.8	-0.00033848648	190584.16	672079.1	-5.7379944e-05
0	0.6160078	0.6160046	-5.303803e-10	0.050063144	0.05006314	0	61058.703	61058.37	-5.125e-05	672179.2	190227.45	-0.0004897985	190231.81	672178.94	-0.00026924434
0	0.61582685	0.6158235	-2.483527e-10	0.049921695	0.049921695	0	61040.754	61040.43	-2.46875e-05	672279.1	189874.06	-9.600106e-05	189878.42	672278.9	-0.00024717514
0	0.615645	0.6156417	-9.639451e-10	0.049780272	0.04978028	0	61022.734	61022.402	-9.21875e-05	672379.1	189519.44	-0.0007100768	189523.8	672378.9	-0.00063117937
0	0.6154636	0.61546034	-4.1251802e-10	0.049638826	0.049638826	0	61004.758	61004.42	-4.28125e-05	672478.75	189166.02	-0.00035421082	189170.38	672478.44	-0.00020745056
0	0.61528146	0.6152782	-5.7668337e-10	0.04949753	0.04949753	0	60986.7	60986.38	-5.5e-05	672578.4	188811.38	-0.00046924656	188815.73	672578.1	-0.0003266243
0	0.6150978	0.6150945	-1.431185e-10	0.04935608	0.049356084	0	60968.492	60968.16	-1.34375e-05	672678.6	188453.95	-0.00022317488	188458.27	672678.3	1.7655368e-05
0	0.6149148	0.6149115	-1.7258407e-10	0.049214657	0.049214657	0	60950.348	60950.03	-1.4375e-05	672778.2	188098.14	-0.00021558859	188102.48	672778	-2.648305e-05
0	0.61473143	0.61472815	-2.1046838e-11	0.049073208	0.04907321	0	60932.18	60931.85	-1.5625e-06	672877.7	187741.95	-3.944871e-05	187746.3	672877.5	4.855226e-05
0	0.614547	0.61454374	-2.9044636e-10	0.048931766	0.048931774	0	60913.895	60913.57	-3e-05	672977.5	187383.94	-0.00022786458	187388.28	672977.2	-0.00017213983
0	0.61436117	0.61435795	-1.8942153e-10	0.04879036	0.04879036	0	60895.49	60895.156	-1.78125e-05	673077.7	187023.66	-0.00012482896	187028	673077.44	-0.00011696681
0	0.6141771	0.6141739	-3.6200562e-10	0.048648857	0.048648857	0	60877.234	60876.914	-3.53125e-05	673176.8	186666.9	-0.0001897952	186671.22	673176.5	-0.00030234817
0	0.613991	0.61398774	-4.967054e-10	0.04850761	0.04850761	0	60858.79	60858.465	-4.75e-05	673276.5	186306.5	-0.0004317289	186310.83	673276.4	-0.00026703742
0	0.6138052	0.61380196	-7.5768614e-11	0.048366144	0.048366148	0	60840.367	60840.047	-6.25e-06	673376.06	185946.89	-2.1793345e-05	185951.2	673375.8	-6.1793784e-05
0	0.6136188	0.6136155	-7.155925e-11	0.048224546	0.04822455	0	60821.895	60821.57	-5.625e-06	673475.5	185586.53	-5.2414372e-05	185590.83	673475.25	-1.7655368e-05
0	0.6134318	0.61342853	-2.9465572e-10	0.048083294	0.048083294	0	60803.36	60803.043	-2.65625e-05	673574.9	185225.3	-0.00018041578	185229.62	673574.7	-0.00022069209
0	0.61324424	0.61324096	-4.2093676e-10	0.04794183	0.04794183	0	60784.76	60784.44	-4.09375e-05	673674.3	184863.17	-0.00050855736	184867.5	673674.1	-8.8276836e-05
0	0.6130561	0.61305296	-5.514271e-10	0.047800392	0.047800392	0	60766.125	60765.81	-5.40625e-05	673773.75	184500.5	-0.0005415232	184504.83	673773.56	-0.00024717514
0	0.6128672	0.61286396	-6.52452e-10	0.04765895	0.047658946	0	60747.4	60747.07	-6.53125e-05	673873.44	184136.28	-0.00045821196	184140.58	673873.3	-0.0005252472
0	0.6126785	0.6126753	-1.936309e-10	0.047517676	0.047517676	0	60728.7	60728.375	-1.859375e-05	673972.6	183773.03	-0.00022510593	183777.31	673972.44	-6.1793784e-05
0	0.61248904	0.6124859	-8.839672e-11	0.04737623	0.047376227	0	60709.914	60709.598	-1.09375e-05	674072	183408.38	-7.889742e-05	183412.7	674071.75	-2.648305e-05
0	0.6122991	0.61229587	-5.5563654e-10	0.047234632	0.04723464	0	60691.082	60690.77	-5.59375e-05	674171.1	183043.27	-0.00039365952	183047.58	674170.94	-0.0004016596
0	0.6121087	0.6121054	-1.431185e-10	0.047093365	0.047093365	0	60672.215	60671.89	-1.359375e-05	674270.44	182677.33	-0.00017186397	182681.66	674270.3	-5.7379944e-05
0	0.61191696	0.61191374	-2.2309649e-10	0.046951856	0.046951856	0	60653.203	60652.89	-2.375e-05	674370	182309.34	-0.00028027897	182313.66	674369.9	-5.5173023e-05
0	0.61172605	0.61172295	1.0944356e-10	0.046810478	0.046810478	0	60634.293	60633.98	1.4375e-05	674468.94	181943.3	9.48976e-05	181947.62	674468.75	0.00011475989
0	0.6115346	0.6115313	-4.0409928e-10	0.046669014	0.046669014	0	60615.3	60614.984	-3.96875e-05	674567.9	181576.2	-0.0005274541	181580.5	674567.7	-7.5035314e-05
0	0.6113411	0.61133796	-3.746337e-10	0.046527762	0.046527762	0	60596.137	60595.824	-3.96875e-05	674667.44	181205.89	-0.00034207274	181210.17	674667.3	-0.00022069209
0	0.6111489	0.6111456	-2.3151521e-10	0.04638618	0.04638618	0	60577.074	60576.758	-2.34375e-05	674766.25	180837.84	-0.00024386476	180842.12	674766	-6.841455e-05
0	0.6109553	0.61095214	-4.4619297e-10	0.046244707	0.046244707	0	60557.89	60557.574	-4.25e-05	674865.25	180467.81	-0.00047779837	180472.12	674865.2	-0.00013903601
0	0.6107614	0.6107583	-3.0307445e-10	0.046103448	0.046103448	0	60538.67	60538.36	-2.84375e-05	674964.2	180097.5	-0.0002300715	180101.78	674964.1	-0.0001588983
0	0.6105668	0.61056364	-5.345897e-10	0.045961928	0.045961928	0	60519.387	60519.066	-5.34375e-05	675063.25	179726	-0.00047007416	179730.28	675063.1	-0.00031338277
0	0.6103718	0.61036867	8.839672e-11	0.04582056	0.04582056	0	60500.05	60499.742	7.5e-06	675162.25	179354.03	-2.4414063e-05	179358.3	675162.06	0.00012358757
0	0.6101766	0.61017346	-5.4721777e-10	0.0456791	0.045679096	0	60480.71	60480.39	-5.46875e-05	675260.94	178982.03	-0.0005139367	178986.33	675260.8	-0.00028248588
0	0.60998046	0.60997736	-4.167274e-10	0.04553763	0.04553762	0	60461.266	60460.95	-4e-05	675359.8	178608.53	-0.0002736582	178612.8	675359.7	-0.0002957274
0	0.6097842	0.609781	-4.0830866e-10	0.045396265	0.04539626	0	60441.81	60441.496	-4.140625e-05	675458.5	178235.08	-0.00041572872	178239.34	675458.4	-0.00018538136
0	0.60958725	0.6095841	-3.7042436e-10	0.04525479	0.045254786	0	60422.29	60421.977	-3.6875e-05	675557.25	177860.67	-0.00036083156	177864.94	675557.1	-0.0001897952
0	0.6093896	0.6093864	-2.86237e-10	0.04511347	0.04511347	0	60402.688	60402.38	-2.71875e-05	675656	177485.1	-0.00024138197	177489.36	675655.9	-0.0001588983
0	0.6091919	0.6091888	-3.4095876e-10	0.04497199	0.04497199	0	60383.098	60382.785	-3.3125e-05	675754.5	177109.9	-0.00029338256	177114.2	675754.3	-0.00017213983
0	0.6089936	0.6089905	-2.9044636e-10	0.04483065	0.04483065	0	60363.453	60363.14	-2.96875e-05	675852.94	176733.92	-0.00031669316	176738.19	675852.8	-9.710452e-05
0	0.6087939	0.6087909	-3.493775e-10	0.044689175	0.044689175	0	60343.656	60343.348	-3.8125e-05	675951.9	176355.45	-0.0003084172	176359.7	675951.75	-0.00020745056