# t (s)	mx ()	my ()	mz ()	B_extx (T)	B_exty (T)	B_extz (T)	m_fullx (A/m)	m_fully (A/m)	m_fullz (A/m)	m_full.region1x (A/m)	m_full.region1y (A/m)	m_full.region1z (A/m)	m_full.region2x (A/m)	m_full.region2y (A/m)	m_full.region2z (A/m)
0	0.6368461	0.6368476	-3.587694e-10	0.07071087	0.07071087	0	130349.64	130349.97	-7.0625e-05	640728.7	250857.19	-0.0002607729	250855.77	640729.56	-0.00024794802
0	0.6367485	0.63674855	-5.707695e-11	0.070569105	0.07056911	0	130329.68	130329.68	-5e-06	640793.7	250654.28	-6.839945e-05	250654.16	640793.7	3.2062244e-06
0	0.6366475	0.6366474	-2.283078e-10	0.07042788	0.07042788	0	130309.016	130308.984	-4.1875e-05	640861.9	250444.6	-0.0001367989	250444.66	640861.8	-0.00017313611
0	0.63654506	0.6365449	-1.6307701e-10	0.07028652	0.07028652	0	130288.05	130288.016	-3e-05	640930.06	250232.94	-7.6949385e-05	250233	640929.94	-0.0001880985
0	0.6364427	0.63644254	-2.609232e-10	0.070144884	0.070144884	0	130267.09	130267.055	-4.75e-05	640998.44	250021.27	-0.00017099864	250021.33	640998.25	-0.00018382353
0	0.63634133	0.6363411	-5.707695e-11	0.07000352	0.07000352	0	130246.33	130246.3	-5e-06	641066.44	249811.22	-7.053694e-05	249811.3	641066.4	-3.2062244e-06
0	0.6362384	0.6362382	-1.956924e-10	0.06986229	0.06986229	0	130225.28	130225.234	-4e-05	641134.8	249598.88	-5.7712037e-05	249598.97	641134.7	-0.00020947332
0	0.6361351	0.63613486	-6.1153876e-10	0.069720544	0.069720544	0	130204.11	130204.086	-0.00013	641202.94	249385.97	-0.0005151334	249386.06	641202.75	-0.00043177154
0	0.63603216	0.6360319	-5.707695e-11	0.069579184	0.06957919	0	130183.055	130183.016	-1e-05	641271.5	249173.34	4.2749657e-06	249173.42	641271.44	-0.00012824897
0	0.6359299	0.63592964	1.63077e-11	0.069437966	0.069437966	0	130162.12	130162.09	3.75e-06	641339.6	248962.1	0	248962.17	641339.4	-4.2749657e-06
0	0.63582546	0.63582534	-1.5492316e-10	0.069296576	0.069296576	0	130140.766	130140.73	-2.5e-05	641408.3	248747.28	-8.977428e-05	248747.36	641408.1	-0.0001367989
0	0.63572305	0.6357229	-8.1538505e-11	0.06915497	0.06915496	0	130119.805	130119.766	-1.9375e-05	641476.44	248535.84	-5.129959e-05	248535.9	641476.25	-3.526847e-05
0	0.6356186	0.6356183	-6.52308e-11	0.069013596	0.069013596	0	130098.414	130098.38	-1.25e-05	641544.7	248321.25	-8.549932e-05	248321.3	641544.56	1.2824898e-05
0	0.63551456	0.6355143	-1.3861545e-10	0.068872236	0.068872236	0	130077.125	130077.08	-2.125e-05	641613.3	248106.95	-5.129959e-05	248107.02	641613.1	-0.00012824897
0	0.6354108	0.63541067	-9.78462e-11	0.06873064	0.06873064	0	130055.9	130055.87	-2.25e-05	641681.8	247893.31	1.7099863e-05	247893.38	641681.7	-0.000120767785
0	0.6353062	0.63530606	-3.26154e-11	0.06858927	0.06858927	0	130034.484	130034.445	1.875e-06	641750.2	247678.52	0.00013252394	247678.58	641750.06	-0.00010259918
0	0.6352023	0.6352021	-2.0384626e-10	0.068448015	0.06844801	0	130013.195	130013.164	-4.25e-05	641818.3	247464.75	-0.00018382353	247464.83	641818.2	-0.00012931772
0	0.63509774	0.6350976	-2.0384626e-10	0.06830665	0.06830665	0	129991.81	129991.77	-4.5625e-05	641886.7	247250.16	-0.0001367989	247250.2	641886.5	-0.00015443315
0	0.6349922	0.63499194	-1.956924e-10	0.06816504	0.06816504	0	129970.195	129970.164	-5e-05	641955.06	247033.95	-0.0001880985	247034.02	641954.9	-0.00014534884
0	0.63488674	0.6348865	-2.2015395e-10	0.068023674	0.068023674	0	129948.61	129948.59	-3.4375e-05	642023.75	246817.58	-8.336183e-05	246817.66	642023.6	-0.0001880985
0	0.6347824	0.63478225	-8.969235e-11	0.06788232	0.06788232	0	129927.25	129927.24	-1.375e-05	642092.06	246603.19	-5.129959e-05	246603.27	642091.9	-5.984952e-05
0	0.63467586	0.63467556	-1.793847e-10	0.067740716	0.067740716	0	129905.44	129905.41	-2.75e-05	642160.75	246385.31	-0.00012824897	246385.36	642160.56	-0.00014107388
0	0.6345711	0.6345708	-1.141539e-10	0.06759932	0.06759932	0	129884	129883.95	-2.5e-05	642229.1	246170.2	-2.992476e-05	246170.28	642228.94	-0.00013252394
0	0.6344656	0.63446546	-8.969235e-11	0.06745809	0.06745809	0	129862.414	129862.37	-2.5e-05	642297.4	245954.36	-5.129959e-05	245954.42	642297.2	-0.00013252394
0	0.6343587	0.6343585	-1.467693e-10	0.067316726	0.067316726	0	129840.54	129840.5	-3e-05	642365.9	245736.25	-0.00010259918	245736.34	642365.7	-0.00010259918
0	0.63425183	0.63425165	-8.1538505e-11	0.067174986	0.067174986	0	129818.66	129818.625	-2.25e-05	642434.7	245517.81	-2.1374829e-06	245517.88	642434.56	-0.00012824897
0	0.63414574	0.63414556	-8.969235e-11	0.06703377	0.06703377	0	129796.945	129796.92	-1.1875e-05	642503.25	245300.77	-5.129959e-05	245300.81	642503	-8.336183e-05
0	0.63403964	0.63403934	-1.141539e-10	0.066892385	0.066892385	0	129775.22	129775.195	-2.375e-05	642571.6	245083.75	-0.0001367989	245083.81	642571.44	-1.7099863e-05
0	0.63393193	0.63393176	-5.707695e-11	0.06675075	0.06675076	0	129753.19	129753.15	-1.25e-05	642640.2	244864.45	-5.129959e-05	244864.53	642640	-4.5955883e-05
0	0.63382494	0.6338247	-2.2015395e-10	0.0666094	0.0666094	0	129731.29	129731.24	-3.75e-05	642709	244645.88	-0.00010259918	244645.97	642708.75	-0.00014855506
0	0.63371795	0.6337177	-1.7123085e-10	0.066468164	0.06646817	0	129709.375	129709.34	-3.75e-05	642777.5	244427.44	-8.549932e-05	244427.52	642777.3	-0.0001496238
0	0.63360953	0.6336093	-1.6307701e-10	0.06632643	0.06632643	0	129687.18	129687.164	-2.75e-05	642846.4	244206.81	-5.984952e-05	244206.86	642846.25	-0.00015283003
0	0.63350224	0.63350195	-1.141539e-10	0.06618507	0.06618507	0	129665.24	129665.19	-1.75e-05	642915.2	243987.89	-1.7099863e-05	243987.98	642914.94	-0.00010259918
0	0.6333947	0.6333944	-1.467693e-10	0.06604384	0.06604384	0	129643.21	129643.18	-3e-05	642983.6	243768.84	-6.412449e-06	243768.92	642983.4	-0.00016992989
0	0.6332865	0.63328636	-2.283078e-10	0.065902434	0.065902434	0	129621.086	129621.055	-3.5625e-05	643052.1	243548.9	-5.5574554e-05	243549.02	643051.94	-0.00017954856
0	0.6331771	0.6331769	-1.8753855e-10	0.06576085	0.06576085	0	129598.68	129598.65	-3.5625e-05	643120.94	243326.88	-5.129959e-05	243326.97	643120.8	-0.00014748632
0	0.6330696	0.63306946	-1.956924e-10	0.065619476	0.065619476	0	129576.67	129576.64	-3.75e-05	643189.25	243108.08	-9.404925e-05	243108.16	643189.06	-0.00016672366
0	0.6329601	0.63295984	-2.609232e-10	0.06547825	0.06547825	0	129554.25	129554.22	-5.5e-05	643258	242885.84	-0.00020092339	242885.92	643257.9	-0.00020306087
0	0.63285094	0.63285077	-1.956924e-10	0.06533652	0.065336525	0	129531.94	129531.914	-3.75e-05	643326.94	242664.39	-0.00017099864	242664.47	643326.75	-0.00012290527
0	0.6327415	0.6327414	-1.467693e-10	0.06519514	0.06519514	0	129509.53	129509.5	-4.25e-05	643395.9	242442.2	-0.00011114911	242442.31	643395.56	-0.00016672366
0	0.63263255	0.6326324	-1.793847e-10	0.06505392	0.06505392	0	129487.22	129487.195	-4.5e-05	643464.56	242220.89	-7.48119e-05	242220.94	643464.4	-0.00021588577
0	0.6325233	0.632523	-1.5492316e-10	0.06491251	0.06491251	0	129464.85	129464.81	-3.1875e-05	643533	241999.39	-0.00010259918	241999.47	643532.9	-0.00014641757
0	0.63241255	0.6324124	-1.793847e-10	0.06477093	0.06477093	0	129442.18	129442.15	-3e-05	643601.8	241775.69	-8.122435e-05	241775.77	643601.56	-0.000115424074
0	0.63230246	0.6323022	-1.6307701e-10	0.06462956	0.06462956	0	129419.66	129419.625	-3.5e-05	643670.7	241552.7	-0.000113286595	241552.75	643670.44	-0.00013252394
0	0.6321925	0.6321923	-1.141539e-10	0.06448818	0.06448818	0	129397.16	129397.12	-7.5e-06	643739.6	241329.8	-5.129959e-05	241329.89	643739.44	-6.839945e-05
0	0.6320819	0.6320818	-1.2230775e-10	0.0643466	0.0643466	0	129374.55	129374.49	-2.125e-05	643808.44	241106.33	-8.549932e-05	241106.42	643808.2	-7.6949385e-05
0	0.63197166	0.63197154	-1.8753855e-10	0.06420522	0.06420524	0	129351.95	129351.92	-3.75e-05	643876.7	240883.5	-0.0001367989	240883.58	643876.6	-0.00010473666
0	0.6318604	0.63186014	-1.467693e-10	0.064063966	0.064063966	0	129329.195	129329.14	-2.375e-05	643945.7	240658.72	-0.0001367989	240658.84	643945.56	-6.839945e-05
0	0.6317497	0.6317495	-1.956924e-10	0.063922584	0.06392258	0	129306.53	129306.49	-4.5625e-05	644014.2	240435.25	-0.00016672366	240435.33	644014.06	-0.00015389877
0	0.6316377	0.6316376	-2.935386e-10	0.063781016	0.063781016	0	129283.6	129283.56	-6.25e-05	644083.1	240209.56	-0.00021588577	240209.66	644083	-0.00019878591
0	0.63152623	0.631526	-1.8753855e-10	0.06363963	0.06363963	0	129260.78	129260.74	-4.25e-05	644152.2	239984.42	-0.00010259918	239984.5	644151.94	-0.00019023598
0	0.6314147	0.6314146	-4.0769253e-11	0.06349825	0.06349824	0	129237.96	129237.94	-5e-06	644220.9	239759.7	-2.7787277e-05	239759.8	644220.7	-2.137483e-05
0	0.6313021	0.63130194	-2.0384626e-10	0.06335668	0.06335668	0	129214.914	129214.88	-3.75e-05	644289.7	239533.14	-0.00010687415	239533.23	644289.56	-0.00021161081
0	0.63119066	0.6311905	-7.338465e-11	0.063215286	0.06321527	0	129192.1	129192.06	-2e-05	644358.44	239308.42	0	239308.52	644358.25	-0.00014321135
0	0.6310771	0.63107693	-3.26154e-11	0.06307404	0.06307404	0	129168.87	129168.81	-1e-05	644427.56	239080.36	0	239080.4	644427.4	-1.7099863e-05
0	0.6309651	0.63096493	-1.793847e-10	0.062932655	0.062932655	0	129145.94	129145.91	-3.8125e-05	644496.4	238854.69	-0.000113286595	238854.8	644496.2	-0.0001624487
0	0.630852	0.6308518	-1.2230775e-10	0.062790945	0.062790945	0	129122.79	129122.734	-2.375e-05	644565.44	238627.27	-6.839945e-05	238627.33	644565.25	-0.000115424074
0	0.6307394	0.6307393	-2.772309e-10	0.062649705	0.062649705	0	129099.734	129099.71	-5.125e-05	644633.94	238401.14	-0.00020519836	238401.2	644633.9	-0.0001752736
0	0.6306254	0.6306252	-1.7123085e-10	0.06250833	0.06250833	0	129076.41	129076.37	-4e-05	644702.6	238172.8	-5.5574554e-05	238172.9	644702.44	-0.00023245126
0	0.6305122	0.63051194	-2.2015395e-10	0.06236674	0.06236674	0	129053.234	129053.19	-3.8125e-05	644771.6	237945.31	-0.00020519836	237945.4	644771.4	-0.000107942884
0	0.63039815	0.630398	-2.2015395e-10	0.062225346	0.062225346	0	129029.89	129029.836	-5e-05	644840.8	237716.4	-0.00023939808	237716.47	644840.7	-0.00015389877
0	0.63028437	0.6302842	-2.0384626e-10	0.06208412	0.06208412	0	129006.625	129006.58	-4.25e-05	644909.75	237488.44	-7.48119e-05	237488.52	644909.5	-0.0001934422
0	0.6301702	0.63017005	-1.7123085e-10	0.061942413	0.061942413	0	128983.24	128983.21	-3.5e-05	644978.5	237259.7	-5.129959e-05	237259.77	644978.4	-0.0001934422
0	0.63005584	0.6300556	-1.0600005e-10	0.06180102	0.06180102	0	128959.81	128959.77	-1.5e-05	645047.4	237030.56	-0.00010901163	237030.66	645047.25	-1.7099863e-05
0	0.62994146	0.6299413	-2.446155e-10	0.06165979	0.06165979	0	128936.43	128936.375	-4.875e-05	645116.1	236801.77	-0.0001367989	236801.86	645116	-0.00022229821
0	0.6298256	0.62982535	-2.446155e-10	0.061518367	0.061518367	0	128912.68	128912.65	-4.375e-05	645185.5	236570.17	-0.00015389877	236570.27	645185.25	-0.00018916724
0	0.62971157	0.6297113	-1.2230775e-10	0.061376818	0.06137681	0	128889.34	128889.31	-2.25e-05	645254.06	236342.03	5.129959e-05	236342.12	645253.75	-0.0001752736
0	0.62959516	0.6295949	-2.609232e-10	0.061235435	0.061235435	0	128865.54	128865.484	-5.5e-05	645323.3	236109.88	-0.00017099864	236109.97	645323.1	-0.0002244357
0	0.62948036	0.6294802	-9.78462e-11	0.061094042	0.061094042	0	128842.04	128841.984	-1.5e-05	645392.3	235880.08	-3.4199726e-05	235880.2	645392.1	-6.4124484e-05
0	0.6293638	0.62936366	-7.338465e-11	0.0609525	0.060952503	0	128818.19	128818.15	-1.75e-05	645461.1	235648.16	-6.839945e-05	235648.2	645460.94	-4.7024623e-05
0	0.62924844	0.6292483	-1.8753855e-10	0.060811102	0.060811102	0	128794.586	128794.54	-3.875e-05	645530.2	235417.62	-0.00010046169	235417.7	645530	-0.00015389877
0	0.6291321	0.6291319	-1.793847e-10	0.06066984	0.06066984	0	128770.766	128770.73	-4e-05	645599.1	235185.67	-0.0001367989	235185.77	645598.94	-0.00015817373
0	0.62901604	0.62901586	-2.5276936e-10	0.060528446	0.060528446	0	128747.01	128746.97	-4.75e-05	645668.06	234954.34	-0.0001880985	234954.42	645667.9	-0.00023084815
0	0.6288985	0.6288983	-1.5492316e-10	0.060386896	0.060386896	0	128722.945	128722.91	-3e-05	645736.94	234720.92	-0.00010259918	234720.98	645736.8	-0.00010046169
0	0.6287822	0.62878203	-2.120001e-10	0.060245506	0.060245506	0	128699.15	128699.1	-4.8125e-05	645806	234489.02	-6.839945e-05	234489.1	645805.75	-0.00021802326
0	0.6286648	0.62866455	0	0.060104124	0.060104124	0	128675.125	128675.07	5e-06	645875.3	234255.34	1.9237346e-05	234255.42	645875.1	-2.3512312e-05
0	0.6285479	0.62854767	-2.0384626e-10	0.059962578	0.05996258	0	128651.18	128651.14	-4.25e-05	645944.06	234022.88	-4.7024623e-05	234022.98	645943.9	-0.0002319169
0	0.6284297	0.62842953	-1.467693e-10	0.059821147	0.059821147	0	128626.99	128626.95	-4.125e-05	646013.44	233788.1	-0.00011969904	233788.2	646013.25	-0.00011756156
0	0.62831235	0.6283122	-1.3861545e-10	0.059679918	0.05967991	0	128602.984	128602.945	-2.5e-05	646082.06	233555.11	-6.839945e-05	233555.2	646081.94	-0.00010687415
0	0.62819314	0.628193	-2.2015395e-10	0.05953851	0.05953851	0	128578.58	128578.53	-4.75e-05	646151.3	233319.14	-7.6949385e-05	233319.23	646151.1	-0.00026344476
0	0.62807566	0.6280754	-8.1538505e-11	0.059396826	0.059396826	0	128554.516	128554.48	-1.1875e-05	646220.25	233085.58	-3.4199726e-05	233085.67	646220	-5.5574554e-05
0	0.6279569	0.62795675	-2.446155e-10	0.059255593	0.059255596	0	128530.22	128530.19	-4.75e-05	646289.2	232850.4	-0.00010473666	232850.48	646289	-0.00020519836
0	0.6278383	0.627838	-1.8753855e-10	0.059114188	0.059114188	0	128505.94	128505.9	-4.25e-05	646358.3	232615.19	-5.129959e-05	232615.3	646358.06	-0.00019451094
0	0.6277195	0.6277194	-2.609232e-10	0.05897263	0.058972627	0	128481.65	128481.61	-5.5e-05	646427.3	232380.06	-0.0001880985	232380.14	646427.1	-0.00017741109
0	0.62759936	0.6275992	-4.0769253e-11	0.058831234	0.058831234	0	128457.04	128457	-7.5e-06	646496.4	232142.75	-8.549931e-06	232142.81	646496.2	-3.4199726e-05
0	0.6274811	0.6274808	-9.78462e-11	0.05868999	0.05868999	0	128432.836	128432.8	-2.5e-05	646565.2	231908.27	-3.4199726e-05	231908.38	646564.94	-0.00011969904
0	0.6273606	0.6273604	-1.956924e-10	0.0585483	0.0585483	0	128408.164	128408.125	-3e-05	646634.1	231670.53	-2.5649795e-05	231670.61	646633.94	-0.00019023598
0	0.6272409	0.62724066	-1.304616e-10	0.058406904	0.058406904	0	128383.664	128383.63	-3.25e-05	646703.56	231433.58	-9.404925e-05	231433.69	646703.44	-0.00011114911
0	0.6271207	0.6271205	-1.141539e-10	0.058265664	0.058265664	0	128359.055	128359.01	-2e-05	646772.6	231196.2	-3.8474693e-05	231196.3	646772.44	-0.00010901163
0	0.62700063	0.6270004	-1.2230775e-10	0.05812423	0.058124237	0	128334.49	128334.44	-2.25e-05	646841.44	230959.25	-5.129959e-05	230959.33	646841.4	-0.00010153044
0	0.62687904	0.62687886	-2.6907707e-10	0.057982713	0.057982713	0	128309.61	128309.55	-4.75e-05	646910.7	230719.86	-0.00016672366	230719.97	646910.44	-0.00017954856
0	0.6267588	0.62675846	-9.78462e-11	0.057841305	0.05784131	0	128284.97	128284.94	-2e-05	646979.94	230482.16	-8.122435e-05	230482.27	646979.75	-5.5574554e-05
0	0.62663805	0.62663776	-1.304616e-10	0.057699904	0.057699904	0	128260.27	128260.22	-2.5e-05	647048.8	230244.34	-1.7099863e-05	230244.45	647048.5	-0.0001880985
0	0.62651587	0.6265157	-1.3861545e-10	0.057558388	0.057558395	0	128235.27	128235.21	-3.25e-05	647117.6	230004.48	-5.984952e-05	230004.62	647117.44	-0.00014107388
0	0.62639505	0.62639487	-3.26154e-11	0.057416987	0.057416987	0	128210.53	128210.49	-1e-05	647186.6	229766.33	-7.267442e-05	229766.44	647186.44	-4.2749657e-06
0	0.62627286	0.6262727	-1.6307701e-10	0.0572757	0.05727571	0	128185.54	128185.484	-3.5e-05	647255.9	229526	-0.00010259918	229526.1	647255.7	-0.00014748632
0	0.6261492	0.62614894	6.52308e-11	0.0571343	0.0571343	0	128160.23	128160.16	1.25e-05	647325.3	229283.38	4.488714e-05	229283.47	647325.1	2.0306088e-05
0	0.62602866	0.6260284	-2.609232e-10	0.05699279	0.05699279	0	128135.55	128135.51	-5.25e-05	647394.2	229045.83	-0.00021802326	229045.94	647393.94	-0.00019023598
0	0.6259063	0.6259061	-8.1538505e-11	0.056851387	0.056851387	0	128110.5	128110.445	-1.75e-05	647463	228805.72	-7.6949385e-05	228805.81	647462.75	-7.267442e-05
0	0.6257827	0.6257825	-2.446155e-10	0.056709986	0.056709986	0	128085.195	128085.164	-3.75e-05	647532.06	228563.58	-0.00014534884	228563.66	647531.9	-0.0001624487
0	0.62565994	0.62565976	-1.7123085e-10	0.05656847	0.05656847	0	128060.086	128060.05	-3.625e-05	647601.6	228322.31	-0.00010259918	228322.42	647601.4	-0.0001624487
0	0.6255366	0.6255364	-9.78462e-11	0.05642703	0.05642703	0	128034.83	128034.8	-1.25e-05	647670.4	228080.7	-8.549932e-05	228080.77	647670.25	-2.2176386e-05
0	0.6254136	0.6254134	-1.467693e-10	0.056285787	0.056285787	0	128009.66	128009.62	-3.25e-05	647739.4	227839.5	-0.0001367989	227839.61	647739.2	-6.4124484e-05
0	0.6252895	0.6252892	-2.446155e-11	0.056144364	0.056144364	0	127984.25	127984.21	-1.25e-05	647808.6	227596.64	-1.2824898e-05	227596.73	647808.3	-4.38184e-05
0	0.6251659	0.6251656	-2.446155e-10	0.056002706	0.056002706	0	127958.97	127958.9	-4.8125e-05	647877.6	227354.55	-6.839945e-05	227354.67	647877.4	-0.0002319169
0	0.6250408	0.6250406	-2.283078e-10	0.055861473	0.055861473	0	127933.37	127933.33	-4.5e-05	647946.5	227110.69	-0.00017099864	227110.75	647946.3	-0.00020092339
0	0.62491703	0.6249168	-1.793847e-10	0.055720054	0.055720054	0	127908	127907.96	-2.6875e-05	648015.6	226868.08	-8.122435e-05	226868.2	648015.4	-0.00014534884
0	0.62479186	0.62479174	-1.467693e-10	0.05557856	0.05557856	0	127882.41	127882.36	-3.5625e-05	648084.8	226623.7	-0.00015389877	226623.8	648084.6	-0.00011114911
0	0.6246651	0.6246649	-2.3646166e-10	0.055437103	0.05543711	0	127856.44	127856.39	-4e-05	648154.4	226376.56	1.2824898e-05	226376.62	648154.2	-0.00032062244
0	0.62454206	0.6245418	-2.283078e-10	0.05529586	0.05529586	0	127831.266	127831.21	-4.5e-05	648222.94	226135.81	-0.00013252394	226135.9	648222.75	-0.00019557969
0	0.62441605	0.62441593	-2.446155e-10	0.055154454	0.055154454	0	127805.484	127805.44	-5.75e-05	648292.06	225890.34	-0.0002137483	225890.42	648291.94	-0.00019023598
0	0.624291	0.6242908	-7.338465e-11	0.055012785	0.05501279	0	127779.88	127779.84	-7.5e-06	648360.94	225646.4	-5.129959e-05	225646.48	648360.75	-3.4199726e-05
0	0.6241641	0.6241639	-9.78462e-11	0.054871537	0.054871544	0	127753.914	127753.86	-1.5e-05	648430	225399.69	-8.336183e-05	225399.81	648429.75	-2.7787277e-05
0	0.6240383	0.624038	-1.141539e-10	0.054730132	0.05473013	0	127728.16	127728.09	-2.0625e-05	648499.3	225154.16	-0.00011114911	225154.27	648499.1	-6.4124484e-05
0	0.6239118	0.6239116	-4.89231e-11	0.054588605	0.054588605	0	127702.28	127702.22	-7.5e-06	648568.5	224908.05	2.1374829e-06	224908.14	648568.25	-4.1680916e-05
0	0.62378496	0.62378484	-1.7123085e-10	0.05444719	0.05444718	0	127676.31	127676.27	-3.5e-05	648637.6	224661.3	-8.336183e-05	224661.39	648637.4	-0.00014748632
0	0.6236584	0.6236582	-1.2230775e-10	0.05430595	0.05430595	0	127650.38	127650.34	-2.625e-05	648706.4	224415.27	-0.00012824897	224415.36	648706.1	-3.9543433e-05
0	0.62353015	0.62353	-1.793847e-10	0.054164287	0.05416429	0	127624.15	127624.11	-3.25e-05	648775.44	224166.7	-0.00012824897	224166.8	648775.3	-0.00012397401
0	0.62340343	0.6234032	-1.956924e-10	0.05402286	0.05402286	0	127598.21	127598.164	-3.9375e-05	648844.5	223920.16	-0.00013252394	223920.23	648844.4	-0.00015817373
0	0.62327605	0.6232759	0	0.053881623	0.053881623	0	127572.13	127572.1	8.75e-06	648913.44	223673.02	5.129959e-05	223673.08	648913.1	2.1374829e-06
0	0.62314725	0.623147	-2.283078e-10	0.053740162	0.053740162	0	127545.78	127545.734	-5e-05	648982.3	223423.73	-0.00015389877	223423.81	648982.1	-0.00019664843
0	0.6230191	0.6230188	-2.6907707e-10	0.053598683	0.053598687	0	127519.54	127519.484	-6e-05	649051.6	223174.95	-0.00020733585	223175.06	649051.4	-0.00019664843
0	0.6228909	0.6228906	-9.78462e-11	0.053457264	0.053457264	0	127493.305	127493.266	-2.1875e-05	649120.7	222926.48	-3.8474693e-05	222926.56	649120.4	-0.00011008037
0	0.62276125	0.622761	-2.935386e-10	0.05331584	0.05331584	0	127466.766	127466.71	-5.75e-05	649189.8	222675.78	-0.00015389877	222675.9	649189.5	-0.00026932286
0	0.62263244	0.6226322	-4.89231e-11	0.053174376	0.053174376	0	127440.41	127440.35	-1e-05	649258.8	222426.55	-4.274966e-05	222426.66	649258.56	-8.549931e-06
0	0.622504	0.62250376	-1.304616e-10	0.053032946	0.053032946	0	127414.125	127414.08	-3.125e-05	649327.8	222177.8	-5.129959e-05	222177.88	649327.5	-0.00019237347
0	0.62237364	0.62237334	-1.8753855e-10	0.052891657	0.052891657	0	127387.445	127387.39	-3.5e-05	649396.7	221926.3	-8.549932e-05	221926.44	649396.44	-0.00014107388
0	0.62224436	0.6222441	-1.6307701e-10	0.052750226	0.052750226	0	127360.984	127360.914	-3.375e-05	649466.06	221675.97	-0.00013038646	221676.08	649465.75	-8.549932e-05
0	0.6221134	0.62211305	-1.2230775e-10	0.05260877	0.052608766	0	127334.164	127334.11	-2e-05	649534.9	221423.66	-3.4199726e-05	221423.78	649534.7	-0.00013252394
0	0.6219837	0.6219834	-9.78462e-11	0.052467342	0.052467342	0	127307.625	127307.57	-2.25e-05	649603.9	221173.12	-1.7099863e-05	221173.25	649603.7	-0.00015389877
0	0.6218535	0.62185323	-1.793847e-10	0.052325904	0.052325908	0	127280.97	127280.93	-4e-05	649673.06	220921.66	-0.0001496238	220921.8	649672.9	-0.00015389877
0	0.6217227	0.62172246	-1.63077e-11	0.05218445	0.05218445	0	127254.21	127254.16	-1.0625e-05	649741.9	220669.78	1.7099863e-05	220669.9	649741.7	-6.9468195e-05
0	0.621592	0.6215917	-1.793847e-10	0.052042987	0.052042987	0	127227.445	127227.39	-3.25e-05	649810.8	220417.92	-0.00014534884	220418.03	649810.5	-0.00010259918
0	0.62145936	0.6214591	-4.89231e-11	0.051901728	0.051901728	0	127200.305	127200.26	-1.5e-05	649880	220163.1	-6.4124484e-05	220163.22	649879.7	-6.0918264e-05
0	0.62132895	0.6213287	-1.0600005e-10	0.0517603	0.051760294	0	127173.61	127173.56	-1.75e-05	649948.7	219911.69	0	219911.8	649948.56	-0.00010687415
0	0.6211966	0.6211963	-3.26154e-11	0.051618673	0.051618665	0	127146.52	127146.48	-1e-05	650018	219657.2	-4.7024623e-05	219657.33	650017.75	-1.7099863e-05
0	0.62106484	0.6210646	-2.446155e-11	0.05147743	0.05147742	0	127119.55	127119.484	-1.0625e-05	650086.8	219403.84	-9.832421e-05	219403.94	650086.56	-2.5649795e-05
0	0.62093186	0.62093157	-1.8753855e-10	0.051335983	0.051335983	0	127092.33	127092.266	-2.875e-05	650155.3	219149.06	-5.129959e-05	219149.2	650155.06	-0.00016124637
0	0.62079954	0.6207991	-1.0600005e-10	0.051194493	0.051194493	0	127065.234	127065.18	-2.5e-05	650224.8	218894.27	-4.7024623e-05	218894.39	650224.56	-0.0001367989
0	0.6206641	0.62066394	8.15385e-12	0.051053062	0.051053066	0	127037.54	127037.49	-5e-06	650293.9	218635.8	-0.00014534884	218635.94	650293.6	0.00013893639
0	0.62053335	0.62053305	-1.793847e-10	0.05091181	0.050911807	0	127010.76	127010.71	-3.75e-05	650362.6	218383.86	-9.832421e-05	218384	650362.5	-0.00016886115
0	0.62040013	0.62039995	-1.304616e-10	0.050770182	0.050770186	0	126983.516	126983.47	-2.75e-05	650431.44	218128.75	-7.267442e-05	218128.89	650431.1	-0.00013466143
0	0.62026626	0.620266	-6.52308e-11	0.050628755	0.050628755	0	126956.09	126956.055	-1.5e-05	650500.25	217872.39	-5.984952e-05	217872.5	650500	-2.992476e-05
0	0.62013227	0.620132	-2.772309e-10	0.050487496	0.050487496	0	126928.68	126928.63	-6.25e-05	650569.5	217615.64	-0.0001880985	217615.77	650569.2	-0.00024153557
0	0.6199978	0.6199976	-5.707695e-11	0.050346017	0.050346017	0	126901.16	126901.1	-7.5e-06	650638.56	217358.36	-7.6949385e-05	217358.5	650638.25	-3.8474693e-05
0	0.61986244	0.61986214	-1.8753855e-10	0.05020459	0.050204586	0	126873.445	126873.38	-4e-05	650707.25	217100.02	-0.00014107388	217100.11	650706.94	-0.00014534884
0	0.61972845	0.61972815	-1.6307701e-10	0.050063144	0.05006314	0	126846.016	126845.97	-2.75e-05	650776.25	216843.42	-0.0001880985	216843.56	650776	-6.0918264e-05
0	0.6195938	0.6195935	-1.2230775e-10	0.049921695	0.049921695	0	126818.445	126818.38	-2.4375e-05	650844.9	216586.25	-5.984952e-05	216586.36	650844.6	-0.00010259918
0	0.61945736	0.6194571	-2.2015395e-10	0.04978028	0.04978028	0	126790.53	126790.484	-3.3125e-05	650913.6	216326.62	-0.00011969904	216326.7	650913.4	-0.00015924248
0	0.6193226	0.6193223	-2.283078e-10	0.049638826	0.049638826	0	126762.95	126762.88	-4e-05	650982.7	216068.8	-0.00019664843	216068.92	650982.44	-0.00013573017
0	0.61918676	0.61918646	-1.956924e-10	0.04949753	0.04949753	0	126735.15	126735.086	-3.5e-05	651051.5	215809.86	-0.00017099864	215809.98	651051.2	-8.549932e-05
0	0.6190495	0.6190492	-1.8753855e-10	0.049356084	0.049356084	0	126707.05	126706.99	-3.75e-05	651120.4	215548.89	-0.00017099864	215549	651120.06	-0.00011435534
0	0.6189143	0.61891407	-1.304616e-10	0.049214657	0.049214657	0	126679.39	126679.336	-2.6875e-05	651188.94	215291.06	-7.6949385e-05	215291.16	651188.6	-0.00011969904
0	0.6187769	0.61877674	-1.2230775e-10	0.04907321	0.04907321	0	126651.266	126651.21	-2e-05	651258.25	215029.39	-8.549932e-05	215029.52	651258	-7.588064e-05
0	0.61864	0.61863965	-9.78462e-11	0.048931766	0.048931766	0	126623.234	126623.164	-2e-05	651327.2	214768.7	-8.76368e-05	214768.84	651326.9	-6.839945e-05
0	0.61850286	0.61850256	-1.141539e-10	0.04879036	0.04879036	0	126595.164	126595.11	-3.25e-05	651395.6	214508.28	-7.6949385e-05	214508.4	651395.4	-0.00010046169
0	0.6183657	0.61836547	-3.0984632e-10	0.048648857	0.048648857	0	126567.086	126567.03	-5e-05	651464.3	214247.6	-0.00016672366	214247.7	651464.06	-0.0001880985
0	0.6182277	0.61822736	-3.0169245e-10	0.04850761	0.04850761	0	126538.84	126538.79	-5.6875e-05	651533.2	213985.5	-0.00027787278	213985.62	651532.9	-0.00010687415
0	0.6180888	0.6180886	-1.8753855e-10	0.048366144	0.048366148	0	126510.43	126510.36	-3.1875e-05	651601.7	213722.55	-8.549932e-05	213722.67	651601.4	-0.00017634234
0	0.6179509	0.6179507	-2.0384626e-10	0.04822455	0.048224546	0	126482.2	126482.125	-4.5e-05	651670.94	213460.23	-0.000113286595	213460.38	651670.7	-0.00019237347
0	0.61781263	0.61781234	-1.8753855e-10	0.048083294	0.048083294	0	126453.89	126453.82	-4.5e-05	651739.44	213198.06	-0.00017954856	213198.19	651739.25	-0.00014107388
0	0.61767346	0.6176731	-1.3861545e-10	0.04794183	0.04794183	0	126425.4	126425.34	-2.25e-05	651808.25	212934.36	-7.6949385e-05	212934.48	651807.94	-7.053694e-05
0	0.6175337	0.61753345	-3.0169245e-10	0.047800392	0.047800392	0	126396.8	126396.74	-6.25e-05	651876.9	212670.23	-0.00021802326	212670.36	651876.56	-0.00023512312
0	0.6173949	0.61739457	-1.6307701e-10	0.047658946	0.047658946	0	126368.375	126368.32	-3.75e-05	651945.6	212407.03	-0.00011969904	212407.16	651945.44	-0.00011969904
0	0.6172541	0.6172538	-2.120001e-10	0.047517676	0.047517676	0	126339.57	126339.5	-4.875e-05	652014.2	212141.38	-0.00011969904	212141.55	652014	-0.00020346165
0	0.61711484	0.6171146	-1.8753855e-10	0.047376227	0.047376227	0	126311.08	126311.016	-3.5e-05	652083.06	211877.62	-0.00010687415	211877.75	652082.75	-0.00017099864
0	0.6169741	0.6169738	-2.935386e-10	0.047234632	0.047234632	0	126282.25	126282.195	-6e-05	652151.5	211612.12	-0.00020306087	211612.27	652151.1	-0.0002137483
0	0.6168341	0.6168338	-3.1800015e-10	0.047093365	0.047093365	0	126253.6	126253.54	-6.75e-05	652220.25	211347.3	-0.00015389877	211347.44	652220.06	-0.0002607729
0	0.6166926	0.61669225	-1.467693e-10	0.046951856	0.046951856	0	126224.63	126224.57	-2.5e-05	652289	211080.47	-0.00014107388	211080.6	652288.7	-0.00010259918
0	0.61655134	0.61655104	-1.956924e-10	0.04681048	0.04681048	0	126195.734	126195.68	-4e-05	652357.3	210814.5	-0.0001624487	210814.61	652357.06	-0.00011114911
0	0.61641055	0.6164102	-1.141539e-10	0.046669014	0.046669014	0	126166.914	126166.86	-3.375e-05	652426.1	210548.48	-0.00010259918	210548.62	652425.94	-9.084302e-05
0	0.61626774	0.61626744	-2.0384626e-10	0.04652776	0.046527762	0	126137.68	126137.64	-4.5e-05	652494.6	210280.14	-0.00012824897	210280.25	652494.3	-0.00020519836
0	0.616124	0.6161238	-1.956924e-10	0.04638618	0.04638618	0	126108.266	126108.2	-4.9375e-05	652563.7	210009.72	-6.839945e-05	210009.86	652563.5	-0.00019664843
0	0.6159841	0.61598384	-1.8753855e-10	0.04624471	0.04624471	0	126079.63	126079.57	-3.75e-05	652632.06	209745.56	-0.0001367989	209745.7	652631.75	-0.00014321135
0	0.6158415	0.6158412	-1.141539e-10	0.046103448	0.04610345	0	126050.44	126050.38	-2.5e-05	652700.56	209477.34	-0.00010473666	209477.5	652700.3	-0.00010259918
0	0.61569846	0.6156982	-1.304616e-10	0.045961928	0.045961928	0	126021.164	126021.1	-2.75e-05	652769.2	209208.52	-0.00010687415	209208.64	652768.9	-0.00013359268
0	0.6155556	0.61555535	-5.707695e-11	0.04582056	0.04582056	0	125991.914	125991.87	-1e-05	652837.5	208940.27	1.7099863e-05	208940.4	652837.2	-6.626197e-05
0	0.61541164	0.6154114	-1.304616e-10	0.045679096	0.0456791	0	125962.47	125962.414	-2.8125e-05	652906.1	208670.12	-8.122435e-05	208670.28	652905.8	-0.00011114911
0	0.61526835	0.6152681	-2.0384626e-10	0.04553762	0.04553762	0	125933.14	125933.08	-3.9375e-05	652974.4	208401.28	-0.00017099864	208401.4	652974.1	-0.00014534884
0	0.6151232	0.615123	-1.141539e-10	0.04539626	0.045396265	0	125903.42	125903.35	-1.875e-05	653042.75	208129.61	-2.5649795e-05	208129.75	653042.5	-0.0001186303
0	0.6149794	0.6149791	-3.0984632e-10	0.04525479	0.04525479	0	125873.99	125873.92	-5.5e-05	653111.56	207859.5	-0.0002137483	207859.66	653111.25	-0.00021802326
0	0.6148346	0.61483425	-4.89231e-11	0.04511347	0.04511347	0	125844.36	125844.27	-2.5e-06	653179.7	207588.61	-2.5649795e-05	207588.75	653179.44	-3.2062244e-06
0	0.61469	0.6146897	-2.120001e-10	0.044972	0.04497199	0	125814.74	125814.68	-3.625e-05	653248.2	207317.61	-0.00012824897	207317.75	653247.94	-0.00016565493
0	0.6145441	0.6145437	-3.0984632e-10	0.04483065	0.04483065	0	125784.88	125784.805	-6.25e-05	653316.75	207044.8	-0.00028214775	207044.95	653316.5	-0.00016672366
0	0.6143991	0.6143988	-2.2015395e-10	0.044689175	0.044689175	0	125755.21	125755.15	-4.5e-05	653385.06	206773.56	-0.0001624487	206773.7	653384.7	-0.00012931772
0	0.61425346	0.6142532	-1.8753855e-10	0.044547684	0.044547684	0	125725.41	125725.35	-4.6875e-05	653453.25	206501.4	-0.00015389877	206501.56	653453.06	-0.00015176128
0	0.6141074	0.6141071	-9.78462e-11	0.04440635	0.04440635	0	125695.51	125695.44	-2.25e-05	653521.56	206228.62	-5.984952e-05	206228.78	653521.4	-0.00011114911