# t (s)	mx ()	my ()	mz ()	B_extx (T)	B_exty (T)	B_extz (T)	m_fullx (A/m)	m_fully (A/m)	m_fullz (A/m)	m_full.region1x (A/m)	m_full.region1y (A/m)	m_full.region1z (A/m)	m_full.region2x (A/m)	m_full.region2y (A/m)	m_full.region2z (A/m)
0	0.64562345	0.64562213	-3.5886147e-10	0.070710756	0.070710756	0	132985.03	132984.77	-7.266436e-05	639065.4	264806.66	-0.0002587018	264807.47	639064.4	-0.00027928033
0	0.64552975	0.6455293	-1.5700188e-10	0.07056913	0.07056913	0	132965.72	132965.62	-3.114187e-05	639141.56	264599.94	-0.00014111007	264600.1	639141.2	-0.00010877234
0	0.6454322	0.645432	-3.5886147e-10	0.07042789	0.07042789	0	132945.62	132945.6	-7.958477e-05	639224.06	264381.06	-0.00023518344	264381.03	639223.7	-0.00030573847
0	0.64533454	0.6453343	2.0185957e-10	0.07028644	0.07028644	0	132925.52	132925.47	3.114187e-05	639305.6	264162.75	0.00014111007	264162.72	639305.25	9.9952966e-05
0	0.6452371	0.6452369	-8.971537e-11	0.07014497	0.07014497	0	132905.45	132905.42	-1.384083e-05	639387.9	263944.12	-2.3518345e-05	263944.12	639387.5	-0.0001293509
0	0.645139	0.6451388	-3.812903e-10	0.07000352	0.07000352	0	132885.23	132885.2	-8.99654e-05	639470.25	263724.34	-0.00028222013	263724.34	639470	-0.00026752116
0	0.6450412	0.6450409	-2.5793168e-10	0.06986227	0.06986227	0	132865.1	132865.05	-5.882353e-05	639552.3	263505.34	-0.00011759172	263505.34	639552	-0.00022048448
0	0.64494306	0.6449429	-1.3457305e-10	0.069720656	0.069720656	0	132844.89	132844.84	-3.4602075e-05	639634.25	263286.03	-0.00011759172	263286.03	639633.94	-9.407338e-05
0	0.6448445	0.64484423	-1.682163e-10	0.06957922	0.06957922	0	132824.56	132824.52	-4.8442907e-05	639716.6	263065.66	-2.3518345e-05	263065.62	639716.25	-0.0002939793
0	0.6447453	0.64474523	-3.0278935e-10	0.06943795	0.06943795	0	132804.16	132804.11	-6.228374e-05	639799.1	262844.38	-0.0002116651	262844.38	639798.75	-0.0002528222
0	0.6446463	0.6446461	-1.12144204e-10	0.06929647	0.06929648	0	132783.77	132783.7	-1.7301038e-05	639881.56	262623.28	-4.703669e-05	262623.28	639881.25	-0.00010583255
0	0.64454734	0.64454716	-1.00929785e-10	0.06915505	0.069155045	0	132763.36	132763.33	-2.0761247e-05	639963.75	262402.56	0	262402.53	639963.44	-0.00015580903
0	0.6444479	0.6444477	-2.1307399e-10	0.0690136	0.0690136	0	132742.9	132742.83	-4.1738753e-05	640046.3	262180.7	2.3518345e-05	262180.7	640046	-0.0002528222
0	0.6443481	0.64434785	-2.3550284e-10	0.06887216	0.06887216	0	132722.33	132722.3	-4.8442907e-05	640128.94	261958.39	-0.00022930386	261958.38	640128.6	-9.701317e-05
0	0.64424837	0.6442481	-1.7943073e-10	0.068730734	0.068730734	0	132701.8	132701.75	-3.8062284e-05	640211.4	261736.33	-0.00018814676	261736.33	640211.06	-7.937441e-05
0	0.6441469	0.6441468	1.3457305e-10	0.068589285	0.068589285	0	132680.9	132680.88	3.114187e-05	640294.94	261510.9	0.0001646284	261510.94	640294.56	2.939793e-05
0	0.6440481	0.6440478	-2.691461e-10	0.06844799	0.06844799	0	132660.55	132660.48	-4.8442907e-05	640376.6	261290.7	-0.00014111007	261290.66	640376.25	-0.0002146049
0	0.6439477	0.64394736	6.7286524e-11	0.06830654	0.06830654	0	132639.86	132639.8	2.4221454e-05	640459.44	261067.31	2.3518345e-05	261067.31	640459.2	7.0555034e-05
0	0.6438459	0.6438456	-3.5045064e-10	0.06816512	0.06816512	0	132618.88	132618.83	-8.650519e-05	640542.06	260842.14	-0.00035277515	260842.14	640541.7	-0.00022048448
0	0.6437444	0.6437441	-6.7286524e-11	0.068023674	0.06802368	0	132597.98	132597.92	-2.0761247e-05	640626.06	260616.1	-0.00011759172	260616.06	640625.75	-5.8795863e-06
0	0.64364505	0.64364475	-2.803605e-10	0.06788224	0.06788223	0	132577.5	132577.45	-5.536332e-05	640707.7	260395.3	-0.0001646284	260395.3	640707.3	-0.00024400282
0	0.64354366	0.64354336	-1.00929785e-10	0.06774081	0.06774081	0	132556.64	132556.58	-1.816609e-05	640790.56	260170.56	-4.703669e-05	260170.58	640790.2	-0.00010289276
0	0.64344215	0.64344186	-2.4671726e-10	0.06759933	0.06759933	0	132535.7	132535.67	-4.8442907e-05	640873.6	259945.34	-0.00018814676	259945.34	640873.3	-0.0001646284
0	0.64334035	0.6433402	-1.3457305e-10	0.06745807	0.06745807	0	132514.77	132514.72	-3.4602075e-05	640956.5	259719.97	-0.00023518344	259720.02	640956.25	2.9397931e-06
0	0.64323854	0.6432383	-3.364326e-10	0.06731661	0.06731661	0	132493.78	132493.72	-7.3313146e-05	641039.56	259494.4	-0.0002587018	259494.44	641039.2	-0.00026164157
0	0.64313614	0.64313585	-2.5793168e-10	0.06717501	0.06717501	0	132472.69	132472.64	-5.536332e-05	641122.56	259268.03	-0.00017638758	259268.03	641122.2	-0.00017638758
0	0.6430337	0.64303344	-1.3457305e-10	0.06703376	0.06703377	0	132451.6	132451.55	-3.114187e-05	641205.75	259041.47	-0.00011759172	259041.44	641205.44	-7.643462e-05
0	0.6429308	0.64293045	-1.7943073e-10	0.0668923	0.0668923	0	132430.39	132430.33	-3.3520762e-05	641288.7	258814.31	-4.703669e-05	258814.3	641288.4	-0.00015874882
0	0.642828	0.64282775	-2.691461e-10	0.066750854	0.066750854	0	132409.22	132409.17	-4.8442907e-05	641372.44	258586.8	-0.0001646284	258586.8	641372.06	-0.00022342427
0	0.6427251	0.64272493	-2.3550284e-10	0.066609405	0.06660941	0	132388.05	132388	-4.49827e-05	641455.7	258359.56	-0.0001646284	258359.58	641455.3	-0.00015874882
0	0.6426217	0.6426214	-1.682163e-10	0.06646814	0.06646814	0	132366.73	132366.67	-3.114187e-05	641539.06	258131.33	-0.00014111007	258131.33	641538.7	-6.467545e-05
0	0.64251804	0.6425178	-3.2521819e-10	0.06632654	0.06632655	0	132345.38	132345.33	-8.3044986e-05	641622.56	257902.73	-0.00037629352	257902.75	641622.1	-0.00024106303
0	0.6424128	0.6424126	-1.5770278e-10	0.0661851	0.066185094	0	132323.72	132323.66	-3.114187e-05	641707.1	257670.89	-9.407338e-05	257670.89	641706.8	-0.00014698965
0	0.6423106	0.64231026	-3.700759e-10	0.06604383	0.06604383	0	132302.64	132302.58	-7.266436e-05	641789.2	257445.64	-0.00011759172	257445.64	641788.75	-0.00040569145
0	0.6422056	0.6422053	-1.12144204e-10	0.06590232	0.06590232	0	132281.02	132280.95	-2.768166e-05	641872.75	257214.97	-7.0555034e-05	257214.97	641872.4	-0.00014111007
0	0.6421017	0.6421014	-1.7943073e-10	0.06576094	0.06576094	0	132259.61	132259.56	-3.4602075e-05	641956.75	256985.56	-7.0555034e-05	256985.56	641956.4	-0.00018814676
0	0.64199704	0.6419968	-2.2428841e-10	0.06561947	0.06561947	0	132238.05	132238	-4.7685986e-05	642040.5	256755.23	-0.0001646284	256755.27	642040.1	-0.00013817028
0	0.64189225	0.6418919	-2.803605e-10	0.06547822	0.06547822	0	132216.45	132216.4	-5.882353e-05	642123.7	256525.34	-4.703669e-05	256525.39	642123.3	-0.00036453432
0	0.64178634	0.6417861	-2.2428842e-11	0.06533663	0.06533663	0	132194.67	132194.61	3.4602076e-06	642207.6	256293.25	4.703669e-05	256293.25	642207.25	-4.11571e-05
0	0.6416815	0.6416812	-1.2335863e-10	0.06519518	0.06519517	0	132173.08	132173.02	-3.114187e-05	642291.8	256062.3	-9.407338e-05	256062.34	642291.4	-8.819379e-05
0	0.64157575	0.64157546	-2.9157493e-10	0.0650539	0.06505391	0	132151.28	132151.22	-7.266436e-05	642375.5	255830.5	-0.00018814676	255830.53	642375.1	-0.0003380762
0	0.64146954	0.64146924	-5.2707777e-10	0.0649124	0.0649124	0	132129.4	132129.33	-0.00010034602	642459.25	255598.08	-0.00035277515	255598.11	642458.9	-0.00035277515
0	0.6413623	0.64136213	-1.682163e-10	0.06477102	0.06477102	0	132107.34	132107.28	-3.8062284e-05	642544.9	255362.44	-0.00011759172	255362.45	642544.5	-0.0001264111
0	0.6412573	0.641257	-4.0371914e-10	0.06462957	0.06462957	0	132085.69	132085.62	-7.612457e-05	642628.1	255132.03	-0.00023518344	255132.06	642627.75	-0.00027634055
0	0.64115095	0.64115065	-1.682163e-10	0.06448809	0.06448808	0	132063.78	132063.73	-2.4221454e-05	642711.8	254899.52	-0.00023518344	254899.48	642711.4	-3.5277517e-05
0	0.64104426	0.641044	-3.0278935e-10	0.06434671	0.064346716	0	132041.81	132041.75	-5.1903113e-05	642796.1	254665.81	-0.0001646284	254665.84	642795.8	-0.00020578552
0	0.64093775	0.6409375	-3.4764702e-10	0.064205244	0.064205244	0	132019.88	132019.81	-7.266436e-05	642879.8	254433.08	-0.0002587018	254433.11	642879.44	-0.00027046097
0	0.6408302	0.64083	-2.2428841e-10	0.064063944	0.064063944	0	131997.72	131997.67	-4.49827e-05	642964.3	254198.05	-0.0002116651	254198.08	642963.94	-0.00013523048
0	0.64072275	0.64072245	-1.5700188e-10	0.06392247	0.06392247	0	131975.58	131975.5	-4.346886e-05	643048.5	253963.3	-9.407338e-05	253963.31	643048	-0.0001646284
0	0.6406146	0.6406143	-2.9157493e-10	0.063781105	0.063781105	0	131953.31	131953.25	-5.882353e-05	643133.3	253727.11	-0.00018814676	253727.11	643132.94	-0.0002116651
0	0.6405072	0.6405069	-2.691461e-10	0.06363964	0.06363964	0	131931.19	131931.12	-5.882353e-05	643217.2	253492.86	-9.407338e-05	253492.86	643216.8	-0.00019402635
0	0.6403992	0.64039886	-1.12144204e-10	0.063498154	0.063498154	0	131908.94	131908.89	-2.0761247e-05	643301.44	253257.48	-0.00014111007	253257.55	643301	-4.9976483e-05
0	0.6402905	0.64029026	-1.9064515e-10	0.063356794	0.063356794	0	131886.55	131886.5	-4.1522493e-05	643386.3	253020.36	-0.00014111007	253020.38	643385.9	-0.00012347131
0	0.64018214	0.6401819	-4.822201e-10	0.06321528	0.06321528	0	131864.23	131864.17	-0.00010034602	643470.6	252784.39	-0.00023518344	252784.44	643470.25	-0.0003821731
0	0.6400717	0.6400714	-4.1493356e-10	0.06307401	0.06307401	0	131841.48	131841.4	-7.936851e-05	643556.3	252544	-0.00028222013	252544.05	643555.9	-0.00026752116
0	0.6399644	0.639964	-2.691461e-10	0.06293254	0.06293254	0	131819.38	131819.31	-5.536332e-05	643639.2	252310.9	-0.0002116651	252310.95	643638.8	-0.00020872531
0	0.63985395	0.6398536	-3.9250472e-10	0.06279098	0.062790975	0	131796.62	131796.55	-7.958477e-05	643724.2	252071.3	-0.0002116651	252071.33	643723.8	-0.0003351364
0	0.6397449	0.63974464	-3.2521819e-10	0.06264971	0.062649705	0	131774.17	131774.12	-6.920415e-05	643809.25	251833.7	-0.0002116651	251833.75	643808.8	-0.00028809972
0	0.6396353	0.63963497	-3.364326e-10	0.06250823	0.06250823	0	131751.6	131751.55	-6.920415e-05	643893.94	251595.5	-0.00018814676	251595.58	643893.5	-0.00027046097
0	0.63952494	0.63952464	-1.7943073e-10	0.062366836	0.062366836	0	131728.86	131728.8	-3.8062284e-05	643978.75	251356.06	-0.0001646284	251356.11	643978.4	-0.000111712136
0	0.639414	0.6394136	-2.9157493e-10	0.062225346	0.062225346	0	131706	131705.94	-6.5743945e-05	644063.44	251116.02	-0.0001646284	251116.11	644063.06	-0.00024694263
0	0.6393042	0.6393038	-4.4857681e-10	0.062084086	0.062084086	0	131683.38	131683.34	-8.3044986e-05	644148.56	250877.3	-0.00023518344	250877.33	644148.06	-0.00031749764
0	0.63919353	0.6391931	-2.4671726e-10	0.061942536	0.061942536	0	131660.6	131660.52	-4.8442907e-05	644233.56	250637.27	-0.0002116651	250637.34	644233.06	-0.00014111007
0	0.63908273	0.6390825	-5.495066e-10	0.061801046	0.061801046	0	131637.78	131637.7	-0.00011764706	644318	250397.81	-0.00028222013	250397.89	644317.6	-0.000526223
0	0.63897103	0.63897073	-5.1586335e-10	0.061659783	0.061659783	0	131614.77	131614.72	-0.000103806226	644403.06	250156.4	-0.0002587018	250156.45	644402.6	-0.00039981186
0	0.63885784	0.6388574	-8.971537e-11	0.061518256	0.061518256	0	131591.44	131591.38	-1.7301038e-05	644490.06	249910.81	4.703669e-05	249910.84	644489.7	-0.00013523048
0	0.638748	0.6387477	-2.691461e-10	0.061376907	0.061376907	0	131568.83	131568.77	-5.7958478e-05	644573.5	249673.64	-0.00023518344	249673.72	644573.1	-0.00018226716
0	0.6386349	0.63863456	-2.5793168e-10	0.061235435	0.061235435	0	131545.53	131545.47	-6.228374e-05	644658.9	249429.9	-0.00023518344	249430	644658.44	-0.00022048448
0	0.6385234	0.6385231	-2.9157493e-10	0.061093953	0.061093953	0	131522.58	131522.52	-5.882353e-05	644744.4	249188.42	-0.0002116651	249188.52	644743.94	-0.00021754469
0	0.63841105	0.6384108	-1.4578747e-10	0.06095263	0.06095263	0	131499.42	131499.36	-3.4602075e-05	644829.25	248946.16	-4.703669e-05	248946.22	644828.8	-0.00011759172
0	0.63829625	0.6382959	-7.850094e-11	0.060811136	0.060811136	0	131475.78	131475.7	-1.384083e-05	644916.6	248698.05	-2.3518345e-05	248698.08	644916.2	-0.00010877234
0	0.63818526	0.6381849	5.6072102e-11	0.060669806	0.060669806	0	131452.9	131452.83	1.7301038e-05	645000.3	248458.94	4.703669e-05	248459	644999.94	8.819379e-05
0	0.6380714	0.63807106	-3.2521819e-10	0.060528323	0.060528323	0	131429.45	131429.39	-6.228374e-05	645086.06	248213.86	-0.00022342427	248213.92	645085.7	-0.00024400282
0	0.6379588	0.6379585	-2.691461e-10	0.06038699	0.06038699	0	131406.27	131406.2	-5.536332e-05	645170.94	247971.28	-0.00014111007	247971.38	645170.56	-0.0002116651
0	0.63784385	0.6378435	-2.2428842e-11	0.060245506	0.060245514	0	131382.6	131382.53	-6.920415e-06	645256.7	247724.67	4.703669e-05	247724.72	645256.2	-0.00011759172
0	0.6377289	0.6377285	-2.803605e-10	0.060104024	0.060104024	0	131358.9	131358.83	-5.536332e-05	645344	247476.5	-0.0001646284	247476.6	645343.4	-0.00022048448
0	0.6376159	0.6376155	-1.4578747e-10	0.0599627	0.0599627	0	131335.62	131335.56	-3.8062284e-05	645428.56	247233.58	-0.00023518344	247233.66	645428.06	-6.467545e-05
0	0.63749963	0.63749915	-7.850094e-11	0.05982116	0.05982116	0	131311.67	131311.61	-1.7301038e-05	645515.5	246983.89	4.703669e-05	246983.95	645515.06	-0.00019108655
0	0.63738686	0.63738656	-2.0185957e-10	0.059679892	0.059679892	0	131288.47	131288.39	-3.4602075e-05	645599.6	246741.92	-9.407338e-05	246741.97	645599.2	-0.0001264111
0	0.6372702	0.6372698	-2.2428841e-10	0.059538387	0.059538387	0	131264.42	131264.36	-4.1522493e-05	645686.7	246491.42	-0.00011759172	246491.52	645686.3	-0.00015874882
0	0.63715637	0.63715607	-2.3550284e-10	0.059396856	0.059396863	0	131240.97	131240.9	-4.49827e-05	645771.3	246247.53	-0.00018814676	246247.61	645770.94	-0.0001293509
0	0.6370412	0.63704085	0	0.05925559	0.05925559	0	131217.27	131217.19	6.920415e-06	645857	246000.64	-2.3518345e-05	246000.7	645856.56	5.8795863e-06
0	0.63692325	0.6369229	-2.691461e-10	0.059114084	0.059114084	0	131192.97	131192.88	-3.8062284e-05	645944.6	245747.86	-9.407338e-05	245747.95	645944.2	-0.00022342427
0	0.6368085	0.63680816	-3.1400377e-10	0.05897273	0.05897273	0	131169.34	131169.27	-6.228374e-05	646029.6	245502.3	-0.0003292568	245502.36	646029.2	-0.0001646284
0	0.63669103	0.6366906	-4.2614798e-10	0.05883124	0.05883124	0	131145.12	131145.03	-7.958477e-05	646116.6	245250.66	-0.00028222013	245250.72	646116.2	-0.00029691908
0	0.63657635	0.63657594	-3.4764702e-10	0.058689952	0.05868996	0	131121.5	131121.44	-6.920415e-05	646200.94	245005.83	-0.0003027987	245005.89	646200.5	-0.00019696614
0	0.63645893	0.6364585	-2.2428841e-10	0.058548428	0.058548428	0	131097.31	131097.25	-5.882353e-05	646287.1	244755.27	-0.00018814676	244755.34	646286.7	-0.000111712136
0	0.6363421	0.63634175	-4.710057e-10	0.058406938	0.058406938	0	131073.27	131073.19	-0.00010034602	646373.2	244505.75	-0.00023518344	244505.84	646372.7	-0.00040569145
0	0.63622403	0.63622373	-2.803605e-10	0.05826566	0.05826566	0	131048.95	131048.87	-5.536332e-05	646459.7	244253.94	-0.00011759172	244254	646459.25	-0.00027634055
0	0.63610727	0.6361069	-1.682163e-10	0.058124106	0.058124106	0	131024.89	131024.805	-3.8927337e-05	646545.94	244004.1	-0.00014111007	244004.17	646545.6	-0.000111712136
0	0.6359888	0.6359884	-1.1214421e-11	0.057982814	0.057982814	0	131000.5	131000.414	-3.4602076e-06	646632.56	243751.64	-4.703669e-05	243751.73	646632.1	2.9397931e-06
0	0.63587105	0.6358707	-2.2428841e-10	0.057841312	0.057841305	0	130976.25	130976.164	-3.8062284e-05	646718.5	243500.97	-0.0001646284	243501.03	646717.94	-0.00011465193
0	0.6357521	0.6357517	-2.9157493e-10	0.057699807	0.057699807	0	130951.73	130951.66	-5.536332e-05	646805.4	243247.47	-0.0001646284	243247.6	646804.8	-0.00023812323
0	0.63563406	0.6356337	0	0.057558525	0.057558525	0	130927.44	130927.35	-3.4602076e-06	646891.44	242996.23	0	242996.33	646891	1.1759173e-05
0	0.63551456	0.63551414	-4.4857684e-11	0.05741701	0.05741701	0	130902.82	130902.74	-1.384083e-05	646977.8	242742.58	-0.00011759172	242742.67	646977.3	4.11571e-05
0	0.6353952	0.6353948	-2.2428841e-10	0.057275683	0.057275683	0	130878.23	130878.14	-4.8442907e-05	647064.8	242488.4	-9.407338e-05	242488.5	647064.4	-0.00018814676
0	0.63527644	0.6352759	-5.60721e-10	0.057134178	0.057134178	0	130853.75	130853.65	-0.00011764706	647151.44	242235.36	-0.00035277515	242235.48	647150.94	-0.0004586077
0	0.63515645	0.635156	-4.822201e-10	0.056992896	0.056992896	0	130829.016	130828.945	-0.00011072664	647237.94	241980.9	-0.00035277515	241981	647237.5	-0.0004145108
0	0.6350361	0.6350357	-2.5793168e-10	0.056851387	0.056851387	0	130804.26	130804.19	-4.8442907e-05	647324.75	241725.67	-0.0001646284	241725.8	647324.3	-0.00011759172
0	0.6349158	0.63491535	-2.0185957e-10	0.056709882	0.056709882	0	130779.47	130779.38	-3.8062284e-05	647411.8	241470.19	-0.00018814676	241470.3	647411.4	-8.819379e-05
0	0.6347955	0.63479495	-1.12144204e-10	0.056568604	0.056568604	0	130754.68	130754.58	-2.0761247e-05	647498.44	241215.12	-9.407338e-05	241215.19	647497.94	-2.939793e-05
0	0.63467443	0.63467413	-1.4578747e-10	0.056427035	0.05642703	0	130729.766	130729.68	-3.4602075e-05	647585.25	240958.92	-0.00011759172	240959.03	647584.75	-0.00018520695
0	0.6345533	0.63455284	-3.1400377e-10	0.056285758	0.056285758	0	130704.805	130704.72	-6.5743945e-05	647672.4	240702.08	-0.00030573847	240702.19	647671.94	-0.00018814676
0	0.63443035	0.6344299	-7.850094e-11	0.05614425	0.05614425	0	130679.48	130679.39	-1.7301038e-05	647760.44	240441.89	-5.7325964e-05	240442.05	647759.94	-2.3518345e-05
0	0.63431	0.6343096	-7.850094e-11	0.056002736	0.056002736	0	130654.69	130654.6	-1.0380623e-05	647846.44	240187.44	-0.00011759172	240187.56	647846	8.819379e-06
0	0.6341887	0.63418823	-1.7943073e-10	0.055861462	0.05586146	0	130629.69	130629.6	-2.768166e-05	647932.8	239931.1	-0.00011759172	239931.2	647932.44	-0.00013523048
0	0.63406575	0.6340653	-1.682163e-10	0.055719953	0.055719953	0	130604.36	130604.29	-3.114187e-05	648020.4	239671.39	-7.0555034e-05	239671.56	648019.94	-0.00014111007
0	0.63394356	0.63394314	-4.822201e-10	0.05557868	0.05557868	0	130579.22	130579.12	-9.34256e-05	648107.5	239413.38	-0.0002587018	239413.48	648107	-0.00044684854
0	0.6338212	0.63382065	-1.2335863e-10	0.05543712	0.05543712	0	130554.01	130553.92	-3.114187e-05	648194.4	239155.08	-0.00011759172	239155.2	648193.8	-7.0555034e-05
0	0.63369775	0.63369733	-4.0371914e-10	0.05529583	0.05529583	0	130528.58	130528.49	-8.99654e-05	648281.75	238894.89	-0.00031161806	238895.02	648281.4	-0.00032337723
0	0.63357437	0.6335739	4.4857684e-11	0.055154327	0.055154327	0	130503.164	130503.07	1.384083e-05	648369.2	238634.77	7.0555034e-05	238634.92	648368.7	2.9397931e-06
0	0.63345116	0.63345075	-2.1307399e-10	0.055012815	0.055012815	0	130477.8	130477.71	-4.8442907e-05	648455.94	238375.6	-0.00018814676	238375.72	648455.44	-0.00015874882
0	0.6333269	0.6333264	-3.1400377e-10	0.054871533	0.054871533	0	130452.19	130452.1	-6.5743945e-05	648543.6	238113.9	-0.0002587018	238114.03	648543.06	-0.00017050799
0	0.63320243	0.63320196	-5.6072102e-11	0.05473003	0.05473003	0	130426.55	130426.48	-2.0761247e-05	648630.94	237852.33	-9.407338e-05	237852.44	648630.4	-1.1759173e-05
0	0.6330773	0.63307685	-1.12144204e-10	0.054588694	0.054588694	0	130400.78	130400.695	-2.4221454e-05	648718.5	237589.58	-4.703669e-05	237589.72	648718.06	-0.0001264111
0	0.632954	0.6329536	-3.1400377e-10	0.05444718	0.05444718	0	130375.38	130375.3	-6.5743945e-05	648805.7	237329.88	-0.0002116651	237329.98	648805.2	-0.0002528222
0	0.632829	0.63282853	-4.0371914e-10	0.05430591	0.054305915	0	130349.63	130349.55	-9.34256e-05	648893.1	237067.27	-0.00028222013	237067.39	648892.7	-0.0003292568
0	0.63270324	0.6327028	-4.4857681e-10	0.054164402	0.054164402	0	130323.75	130323.63	-9.34256e-05	648980.9	236803.52	-0.00028222013	236803.64	648980.44	-0.00035571496
0	0.63257796	0.6325776	-3.364326e-10	0.054022882	0.054022882	0	130297.94	130297.83	-6.5743945e-05	649068.56	236540.48	-0.00023518344	236540.62	649068.06	-0.00023518344
0	0.6324522	0.6324517	-2.4671726e-10	0.053881615	0.053881615	0	130272.016	130271.92	-5.536332e-05	649156.25	236276.58	-0.00018814676	236276.75	649155.75	-0.00018814676
0	0.6323263	0.63232577	-1.3457305e-10	0.05374005	0.05374005	0	130246.08	130245.984	-2.4221454e-05	649243.8	236012.81	-0.0001646284	236012.95	649243.3	-5.5856068e-05
0	0.6321991	0.6321987	-3.3643262e-11	0.053598765	0.053598765	0	130219.89	130219.805	-1.384083e-05	649331.8	235746.9	2.9397931e-06	235747	649331.2	-9.9952966e-05
0	0.63207257	0.63207215	0	0.053457264	0.053457264	0	130193.84	130193.74	0	649419.6	235481.88	2.3518345e-05	235482.02	649419.2	5.8795863e-06
0	0.6319453	0.6319449	-2.691461e-10	0.05331577	0.05331577	0	130167.61	130167.52	-5.536332e-05	649508	235215.3	-0.00014111007	235215.45	649507.5	-0.00020872531
0	0.6318186	0.6318182	-2.691461e-10	0.053174473	0.053174473	0	130141.516	130141.43	-5.536332e-05	649595.4	234950.56	-0.00018814676	234950.73	649594.9	-0.0002146049
0	0.631691	0.6316905	-1.7943073e-10	0.053032972	0.053032972	0	130115.21	130115.11	-4.1522493e-05	649683.06	234684.11	-0.0001646284	234684.25	649682.56	-5.879586e-05
0	0.63156307	0.6315626	1.3457305e-10	0.052891634	0.052891634	0	130088.875	130088.79	2.768166e-05	649771.2	234416.98	4.703669e-05	234417.12	649770.7	0.00012347131
0	0.6314346	0.63143414	-1.3457305e-10	0.05275012	0.05275012	0	130062.43	130062.33	-3.114187e-05	649859.2	234149.11	-7.0555034e-05	234149.3	649858.75	-0.000111712136
0	0.6313061	0.6313057	-2.691461e-10	0.052608836	0.052608836	0	130035.95	130035.836	-5.536332e-05	649947.56	233880.86	-0.0001646284	233881.02	649947.06	-0.00019990593
0	0.6311771	0.6311767	4.4857684e-11	0.052467342	0.052467342	0	130009.39	130009.305	6.920415e-06	650035.94	233612.02	0	233612.16	650035.4	-8.819379e-06
0	0.63104844	0.63104796	-1.00929785e-10	0.052325826	0.052325826	0	129982.86	129982.76	-1.7301038e-05	650123.8	233343.81	-0.00010583255	233343.97	650123.3	-8.23142e-05
0	0.63091874	0.63091826	-2.3550284e-10	0.05218455	0.05218455	0	129956.16	129956.06	-4.49827e-05	650212.06	233074.03	-0.00014111007	233074.22	650211.5	-0.00014111007
0	0.6307894	0.6307888	-1.9064515e-10	0.05204299	0.05204299	0	129929.516	129929.414	-4.736159e-05	650300.3	232804.64	-0.00018814676	232804.81	650299.75	-0.00014111007
0	0.630659	0.6306584	-1.4578747e-10	0.051901694	0.051901694	0	129902.66	129902.54	-3.4602075e-05	650389.1	232533.2	-6.761524e-05	232533.39	650388.56	-0.00018226716
0	0.6305291	0.6305286	2.2428842e-11	0.051760197	0.051760197	0	129875.914	129875.8	3.4602076e-06	650477.06	232263.45	0	232263.62	650476.56	1.1759173e-05
0	0.630399	0.63039845	-1.5700188e-10	0.051618703	0.051618703	0	129849.11	129849	-3.4602075e-05	650564.94	231993.47	-9.407338e-05	231993.66	650564.4	-8.819379e-05
0	0.6302677	0.63026714	-3.812903e-10	0.05147742	0.05147742	0	129822.055	129821.94	-7.958477e-05	650653.56	231720.92	-0.0002484125	231721.08	650653.1	-0.00027046097
0	0.63013697	0.63013643	-4.822201e-10	0.051335912	0.051335912	0	129795.125	129795.02	-9.6885815e-05	650742	231449.58	-0.00028222013	231449.75	650741.4	-0.00040275164
0	0.630005	0.63000447	-4.5979123e-10	0.051194567	0.051194567	0	129767.95	129767.84	-9.937284e-05	650830.9	231175.95	-0.00028222013	231176.14	650830.3	-0.00035277515
0	0.6298735	0.6298731	-2.4671726e-10	0.051053073	0.051053073	0	129740.88	129740.77	-5.1903113e-05	650919.25	230903.52	-0.0001646284	230903.72	650918.75	-0.0001646284
0	0.6297413	0.62974083	-1.4578747e-10	0.05091177	0.05091177	0	129713.64	129713.53	-2.768166e-05	651007.75	230629.94	-0.00011759172	230630.11	651007.25	-0.000111712136
0	0.6296089	0.62960845	-2.0185957e-10	0.050770275	0.050770275	0	129686.375	129686.266	-4.8442907e-05	651096.3	230356.05	-0.00014111007	230356.23	651095.7	-0.00017344778
0	0.62947625	0.6294758	-4.710057e-10	0.05062879	0.05062879	0	129659.05	129658.94	-9.6885815e-05	651185.1	230081.48	-0.00037629352	230081.62	651184.56	-0.0003351364
0	0.62934333	0.62934285	-3.0278935e-10	0.05048749	0.05048749	0	129631.664	129631.555	-6.5743945e-05	651274.2	229806.33	-0.00023518344	229806.53	651273.6	-0.00022930386
0	0.6292101	0.6292096	-1.7943073e-10	0.05034593	0.05034593	0	129604.23	129604.12	-3.8062284e-05	651363.06	229530.86	-4.703669e-05	229531.06	651362.56	-0.00018520695
0	0.6290767	0.6290761	-4.0371914e-10	0.050204646	0.050204642	0	129576.734	129576.63	-8.3044986e-05	651451.44	229255.66	-0.00018814676	229255.84	651450.94	-0.00035865474
0	0.6289426	0.628942	-2.803605e-10	0.050063137	0.050063137	0	129549.11	129549	-5.1903113e-05	651540.4	228978.97	-7.0555034e-05	228979.16	651539.9	-0.0002587018
0	0.6288086	0.6288081	-3.5886147e-10	0.04992165	0.04992165	0	129521.516	129521.414	-7.698962e-05	651629.3	228702.48	-0.00018814676	228702.69	651628.75	-0.00030573847
0	0.6286741	0.6286736	-2.9157493e-10	0.04978036	0.04978036	0	129493.805	129493.71	-6.228374e-05	651718.4	228425.22	-0.00013670037	228425.38	651717.9	-0.00020578552
0	0.6285394	0.6285388	-2.4671726e-10	0.049638852	0.049638852	0	129466.04	129465.945	-5.1903113e-05	651807.3	228147.56	-4.703669e-05	228147.75	651806.75	-0.0002528222
0	0.6284041	0.6284036	-6.7286524e-11	0.049497508	0.049497508	0	129438.195	129438.06	-1.7301038e-05	651896.6	227868.9	-4.703669e-05	227869.11	651896	-5.2916275e-05
0	0.62826824	0.6282677	-3.1400377e-10	0.04935601	0.04935601	0	129410.21	129410.1	-5.882353e-05	651986.1	227589.17	-0.00018814676	227589.39	651985.6	-0.00023518344
0	0.6281329	0.6281324	-1.5700188e-10	0.049214706	0.049214706	0	129382.336	129382.23	-3.114187e-05	652074.8	227310.97	-0.00014111007	227311.22	652074.25	-0.00010289276
0	0.62799627	0.62799567	-7.850094e-11	0.049073216	0.049073216	0	129354.19	129354.08	-2.4221454e-05	652164.1	227030.4	-0.00014111007	227030.61	652163.6	0
0	0.6278604	0.62785983	3.3643262e-11	0.048931725	0.048931725	0	129326.195	129326.07	-1.0380623e-05	652253.06	226751.27	-2.3518345e-05	226751.48	652252.44	5.2916275e-05
0	0.6277229	0.62772244	-1.7943073e-10	0.048790433	0.048790433	0	129297.89	129297.78	-3.8062284e-05	652342.56	226469.4	-0.00011759172	226469.62	652342.06	-0.00016168861
0	0.62758696	0.62758636	-1.682163e-10	0.048648868	0.048648868	0	129269.875	129269.76	-3.4602075e-05	652431.56	226189.89	-9.407338e-05	226190.1	652430.94	-0.00013523048
0	0.6274491	0.6274486	-3.1400377e-10	0.04850758	0.04850758	0	129241.5	129241.375	-6.228374e-05	652520.94	225907.62	-0.0002587018	225907.89	652520.3	-0.00014111007
0	0.62731117	0.6273106	1.1214421e-11	0.04836608	0.04836608	0	129213.07	129212.95	-3.4602076e-06	652610.5	225624.81	-2.3518345e-05	225625.06	652610	-1.1759173e-05
0	0.6271729	0.62717235	-2.2428841e-10	0.04822459	0.04822459	0	129184.61	129184.47	-4.8442907e-05	652700.75	225341	-0.00018814676	225341.25	652700.2	-9.9952966e-05
0	0.62703526	0.6270347	-2.2428841e-10	0.04808329	0.04808329	0	129156.266	129156.13	-4.1522493e-05	652789.4	225059.78	-0.00014111007	225060	652788.9	-0.00014111007
0	0.62689656	0.62689596	-3.5886147e-10	0.047941796	0.047941796	0	129127.664	129127.55	-6.5743945e-05	652879.2	224775.69	-0.00023518344	224775.95	652878.6	-0.00029691908
0	0.6267578	0.6267572	-6.7286524e-11	0.047800433	0.047800433	0	129099.1	129098.98	-1.6868513e-05	652968.44	224492.3	-8.23142e-05	224492.56	652967.9	-1.1759173e-05
0	0.626618	0.62661743	-2.803605e-10	0.047658954	0.047658954	0	129070.305	129070.19	-5.882353e-05	653058	224206.92	-0.00030573847	224207.16	653057.44	-0.00014698965
0	0.6264789	0.6264784	-2.9157493e-10	0.047517646	0.047517646	0	129041.63	129041.516	-5.536332e-05	653147.75	223922.42	-0.00023518344	223922.69	653147.2	-0.00018520695
0	0.62633854	0.626338	-2.9157493e-10	0.047376156	0.047376156	0	129012.75	129012.63	-5.2119376e-05	653237.75	223635.98	-0.0002116651	223636.23	653237.1	-0.00020578552
0	0.6261983	0.6261977	-3.0278935e-10	0.04723467	0.04723467	0	128983.85	128983.734	-6.920415e-05	653327.56	223349.77	-0.0001646284	223350.03	653327	-0.00027634055
0	0.6260565	0.62605584	1.5700188e-10	0.04709336	0.04709336	0	128954.64	128954.49	3.4602075e-05	653417.3	223061.56	-2.3518345e-05	223061.83	653416.6	0.00024694263
0	0.62591714	0.6259165	-5.6072102e-11	0.046951808	0.046951808	0	128925.92	128925.81	-1.0380623e-05	653506.4	222777.25	0	222777.53	653505.8	-5.879586e-05
0	0.6257761	0.6257756	-7.850094e-11	0.04681051	0.046810508	0	128896.9	128896.76	-2.4221454e-05	653596.4	222489.97	-0.00014111007	222490.2	653595.7	-5.879586e-05
0	0.62563413	0.6256335	-1.9064515e-10	0.046669018	0.046669018	0	128867.63	128867.5	-3.8062284e-05	653686.4	222201.06	-7.0555034e-05	222201.33	653685.8	-0.00017050799
0	0.6254924	0.6254918	-1.2335863e-10	0.04652772	0.04652772	0	128838.43	128838.32	-2.0761247e-05	653776.44	221912.7	-8.23142e-05	221912.94	653775.8	-0.000111712136
0	0.6253501	0.6253495	-2.9157493e-10	0.046386234	0.046386234	0	128809.14	128809.01	-5.882353e-05	653866.5	221623.36	-9.407338e-05	221623.66	653865.9	-0.00028809972
0	0.62520736	0.6252067	-3.1400377e-10	0.04624474	0.04624474	0	128779.73	128779.6	-7.266436e-05	653956.7	221333.36	-0.00018814676	221333.66	653956.1	-0.0002528222
0	0.62506473	0.62506413	-2.1307399e-10	0.046103436	0.046103436	0	128750.36	128750.234	-4.6929064e-05	654046.5	221043.89	-8.23142e-05	221044.16	654045.9	-0.0002146049
0	0.62492156	0.6249209	-1.3457305e-10	0.045961883	0.045961883	0	128720.85	128720.73	-2.4221454e-05	654136.6	220753.2	-0.00017638758	220753.5	654136	-3.5277517e-05
0	0.624778	0.6247774	-1.682163e-10	0.045820575	0.045820575	0	128691.305	128691.164	-3.4602075e-05	654226.7	220462.23	-0.00014111007	220462.53	654226.06	-7.0555034e-05
0	0.6246338	0.6246332	-2.4671726e-10	0.045679096	0.045679096	0	128661.59	128661.47	-5.525519e-05	654316.56	220170.47	-0.00011759172	220170.73	654315.94	-0.0002528222
0	0.62448806	0.6244874	-2.2428842e-11	0.045537613	0.045537613	0	128631.58	128631.44	-1.0380623e-05	654408.6	219874.38	-2.3518345e-05	219874.67	654407.94	-2.3518345e-05
0	0.6243452	0.6243444	4.4857684e-11	0.0453963	0.0453963	0	128602.125	128602.016	3.4602076e-06	654497.25	219585.6	-2.3518345e-05	219585.89	654496.7	9.701317e-05
0	0.6241998	0.62419915	-2.4671726e-10	0.04525482	0.04525482	0	128572.195	128572.055	-5.536332e-05	654587.6	219291.84	-0.00014111007	219292.11	654586.94	-0.00018814676
0	0.62405384	0.6240532	-2.2428841e-10	0.045113444	0.045113444	0	128542.15	128542.01	-4.8442907e-05	654678.2	218996.92	-7.0555034e-05	218997.2	654677.6	-0.00020578552