# t (s)	mx ()	my ()	mz ()	B_extx (T)	B_exty (T)	B_extz (T)	m_fullx (A/m)	m_fully (A/m)	m_fullz (A/m)	m_full.region1x (A/m)	m_full.region1y (A/m)	m_full.region1z (A/m)	m_full.region2x (A/m)	m_full.region2y (A/m)	m_full.region2z (A/m)
0	0.6369748	0.6369719	-4.0868164e-10	0.0707109	0.0707109	0	73839.9	73839.56	-4.858503e-05	657466.6	234295.22	-0.00024723102	234298.17	657465.44	-0.00033128957
0	0.63667107	0.63666844	-1.06885965e-10	0.07035726	0.07035726	0	73804.69	73804.38	-1.0917984e-05	657702.1	233634.67	-9.0651374e-05	233637.38	657701.2	-4.2853375e-05
0	0.63636327	0.6363607	-2.483527e-10	0.07000352	0.07000352	0	73769.01	73768.7	-3.1935102e-05	657940.9	232965.08	-0.00017553402	232967.8	657939.9	-0.00020767405
0	0.63605255	0.63605	-3.238016e-10	0.0696499	0.0696499	0	73732.99	73732.68	-3.6302295e-05	658180.3	232290.62	-0.00027689873	232293.34	658179.3	-0.0002167392
0	0.6357404	0.6357377	-2.9550826e-10	0.069296606	0.069296606	0	73696.79	73696.484	-3.5210498e-05	658419.8	231613.97	-0.0001944884	231616.67	658418.8	-0.00024063818
0	0.6354247	0.63542205	-3.0179567e-10	0.068943	0.06894301	0	73660.2	73659.9	-3.439165e-05	658660.75	230931.12	-0.00023734177	230933.88	658659.8	-0.00020025713
0	0.6351111	0.6351085	-2.0905637e-10	0.068589255	0.06858925	0	73623.84	73623.54	-2.2381868e-05	658899.25	230253.53	-0.00021591509	230256.28	658898.25	-7.664161e-05
0	0.63479406	0.6347914	-6.161662e-10	0.06823563	0.06823563	0	73587.09	73586.79	-7.0693946e-05	659139	229569.94	-0.00037908755	229572.7	659138.06	-0.00055214926
0	0.63447464	0.63447195	-5.014209e-10	0.067882344	0.067882344	0	73550.07	73549.76	-5.8138266e-05	659379.3	228882.42	-0.00030327003	228885.2	659378.3	-0.0004606738
0	0.63415325	0.6341505	-2.9865196e-10	0.067528725	0.067528725	0	73512.805	73512.5	-3.0297406e-05	659619.9	228191.86	-0.00030986287	228194.64	659618.8	-7.9113925e-05
0	0.63383013	0.6338273	-1.7290377e-10	0.06717497	0.06717497	0	73475.35	73475.04	-1.8833523e-05	659860.6	227498.78	-3.9556962e-05	227501.53	659859.56	-0.0001944884
0	0.63350475	0.6335022	-2.8922084e-10	0.066821806	0.0668218	0	73437.64	73437.336	-3.41187e-05	660101.75	226802.17	-0.00025135154	226804.98	660100.75	-0.00017470992
0	0.633177	0.63317436	-3.3323272e-10	0.06646817	0.06646817	0	73399.65	73399.33	-3.8212944e-05	660343.25	226101.75	-0.00028596388	226104.53	660342.4	-0.00019943302
0	0.6328485	0.63284594	-3.3480457e-10	0.066114426	0.066114426	0	73361.57	73361.26	-3.7667047e-05	660584.3	225400.92	-0.0001714135	225403.72	660583.3	-0.0002966772
0	0.6325174	0.63251466	-4.558372e-10	0.06576082	0.06576082	0	73323.164	73322.85	-5.1587474e-05	660826.2	224695.2	-0.00037908755	224697.98	660825.25	-0.00028678798
0	0.6321845	0.63218176	-4.9513355e-10	0.06540751	0.06540751	0	73284.59	73284.28	-5.677352e-05	661067.75	223987.62	-0.00042523735	223990.44	661066.9	-0.00029502902
0	0.6318494	0.63184667	-1.8547859e-10	0.065053925	0.065053925	0	73245.74	73245.43	-1.992532e-05	661310	223276.3	-0.0001714135	223279.12	661309	-6.592827e-05
0	0.6315112	0.6315086	-3.0965494e-10	0.06470017	0.06470017	0	73206.55	73206.234	-3.6575246e-05	661552.75	222560.08	-0.00021426688	222562.92	661551.9	-0.00025052743
0	0.63117313	0.6311704	-3.803883e-10	0.06434657	0.06434657	0	73167.35	73167.03	-4.2307187e-05	661794.8	221844.78	-0.00033046547	221847.62	661793.75	-0.00023898997
0	0.63083196	0.6308293	-3.3952013e-10	0.063993245	0.063993245	0	73127.805	73127.49	-3.57564e-05	662037.4	221124.58	-0.00017800633	221127.4	662036.44	-0.0002900844
0	0.6304889	0.6304862	-3.0493938e-10	0.06363964	0.06363963	0	73088.03	73087.71	-3.2208052e-05	662280.1	220401.5	-0.00031315928	220404.36	662279.1	-0.0001219673
0	0.6301429	0.6301402	-3.8353198e-10	0.063285895	0.063285895	0	73047.92	73047.61	-4.6128484e-05	662523.7	219673.62	-0.00016646888	219676.48	662522.7	-0.00042853376
0	0.6297958	0.6297931	-3.3952013e-10	0.0629327	0.0629327	0	73007.69	73007.36	-3.985064e-05	662766.7	218944.61	-0.00045490506	218947.47	662765.75	-7.25211e-05
0	0.6294463	0.62944365	-5.029928e-11	0.06257909	0.06257909	0	72967.18	72966.86	-3.0024457e-06	663010	218212.03	-6.592827e-06	218214.9	663008.94	-3.9556962e-05
0	0.62909496	0.6290923	-2.7664604e-10	0.062225346	0.062225346	0	72926.445	72926.13	-3.1662155e-05	663253.3	217476.75	-0.00013515295	217479.61	663252.44	-0.00026041668
0	0.6287413	0.62873864	-5.5014837e-10	0.061871756	0.061871756	0	72885.45	72885.13	-6.4143154e-05	663497	216738	-0.00041864451	216740.9	663496.06	-0.00042935787
0	0.6283841	0.62838143	-3.6781347e-10	0.06151841	0.06151841	0	72844.04	72843.73	-4.2307187e-05	663741.7	215993.19	-0.00035930908	215996.1	663740.75	-0.00018542325
0	0.6280271	0.62802434	-1.1317337e-10	0.06116484	0.06116484	0	72802.66	72802.336	-1.364748e-05	663985	215250.02	-3.2964135e-06	215252.92	663984.1	-0.00013680116
0	0.62766707	0.6276643	-3.3952013e-10	0.0608111	0.0608111	0	72760.914	72760.6	-3.8758844e-05	664229.2	214501.86	-0.0002933808	214504.77	664228.2	-0.0002208597
0	0.6273046	0.6273018	-3.8353198e-10	0.0604575	0.0604575	0	72718.9	72718.58	-4.121539e-05	664473.5	213750.08	-0.0003148075	213752.97	664472.5	-0.00022745253
0	0.62693894	0.62693626	-6.28741e-12	0.060104154	0.060104154	0	72676.516	72676.195	-2.4565463e-06	664718.44	212993.25	-8.241034e-05	212996.14	664717.5	9.889241e-05
0	0.6265727	0.62657005	-1.6661636e-10	0.059750553	0.059750553	0	72634.06	72633.75	-2.074417e-05	664962.5	212236.47	-0.00012856013	212239.4	664961.6	-0.00011949499
0	0.62620413	0.62620133	-2.640712e-10	0.059396815	0.059396815	0	72591.33	72591.01	-3.0024456e-05	665206.94	211475.84	-0.00015822785	211478.8	665206.06	-0.00023322126
0	0.62583244	0.62582964	-4.2440015e-10	0.0590436	0.0590436	0	72548.24	72547.93	-4.913093e-05	665451.94	210710.55	-0.00037414292	210713.48	665451	-0.00026041668
0	0.6254591	0.6254563	-4.7155575e-11	0.05869	0.05869	0	72504.95	72504.64	-3.0024457e-06	665696.7	209943.1	-7.25211e-05	209946.03	665695.75	3.2964135e-06
0	0.62508255	0.6250798	-2.3892158e-10	0.05833626	0.05833626	0	72461.32	72460.99	-2.8659708e-05	665942	209170.62	-0.0001961366	209173.6	665941.1	-0.0001483386
0	0.6247037	0.62470096	-3.9925052e-10	0.057982683	0.05798268	0	72417.39	72417.08	-4.3944885e-05	666187.4	208394.9	-0.0003889768	208397.86	666186.44	-0.00018624736
0	0.6243218	0.624319	-4.6841203e-10	0.05762931	0.05762931	0	72373.12	72372.8	-5.540877e-05	666433.4	207614.12	-0.00035930908	207617.08	666432.44	-0.00037249472
0	0.62394124	0.6239385	-3.238016e-10	0.057275716	0.057275716	0	72329.016	72328.68	-3.602935e-05	666677.3	206837.44	-0.00023734177	206840.4	666676.44	-0.00021097047
0	0.6235561	0.6235532	-3.803883e-10	0.05692202	0.05692202	0	72284.36	72284.03	-4.148834e-05	666922.7	206052.84	-0.00040545885	206055.8	666921.75	-0.00019284019
0	0.62316823	0.62316555	-5.029928e-11	0.05656843	0.05656843	0	72239.4	72239.07	-6.5507907e-06	667168.2	205264.39	-0.00016152427	205267.39	667167.25	9.0651374e-05
0	0.62277824	0.62277544	-3.269453e-10	0.056215048	0.056215048	0	72194.19	72193.87	-3.41187e-05	667413.7	204472.8	-0.00030327003	204475.78	667412.9	-0.00015081091
0	0.62238616	0.62238336	-3.3637643e-10	0.055861473	0.055861473	0	72148.75	72148.414	-3.8212944e-05	667658.94	203678.66	-0.00028184336	203681.66	667658.06	-0.00022992484
0	0.62198997	0.6219871	-2.0748453e-10	0.055507734	0.055507734	0	72102.81	72102.48	-2.3473665e-05	667905.44	202877.45	-0.00011867088	202880.45	667904.56	-0.00018789557
0	0.6215935	0.6215906	-4.6212462e-10	0.055154495	0.055154495	0	72056.84	72056.52	-5.3771073e-05	668150.5	202077.28	-0.00033293775	202080.3	668149.6	-0.00032140032
0	0.62119365	0.6211909	-8.1736326e-11	0.05480091	0.05480091	0	72010.49	72010.17	-1.0645034e-05	668396.3	201271.7	-0.00015822785	201274.75	668395.5	3.9556962e-05
0	0.620791	0.6207881	-2.640712e-10	0.05444718	0.05444718	0	71963.83	71963.49	-3.0297406e-05	668642.4	200461.9	-0.00013515295	200464.94	668641.5	-0.0002439346
0	0.62038636	0.6203836	-3.1437047e-11	0.054093614	0.054093607	0	71916.92	71916.6	-1.364748e-06	668887.9	199649.97	2.966772e-05	199653.02	668887.1	-5.356672e-05
0	0.61997896	0.6199761	-2.9550826e-10	0.0537402	0.053740203	0	71869.69	71869.36	-3.602935e-05	669133.8	198833.69	-0.0003642537	198836.73	669132.94	-8.9003166e-05
0	0.61956894	0.61956614	-2.2320305e-10	0.053386625	0.053386625	0	71822.16	71821.83	-2.6203163e-05	669379.75	198013.66	-0.00022745253	198016.67	669378.94	-7.41693e-05
0	0.61915416	0.61915135	-9.431115e-11	0.05303294	0.053032942	0	71774.086	71773.75	-1.4466329e-05	669626.75	197186.02	-0.00010548523	197189.06	669625.94	-4.86221e-05
0	0.61874104	0.6187383	-1.8547859e-10	0.052679367	0.052679367	0	71726.19	71725.87	-1.965237e-05	669871.7	196362.75	-0.00016811708	196365.81	669870.8	-0.00010878165
0	0.61832315	0.61832035	-1.9805341e-10	0.05232594	0.05232594	0	71677.74	71677.42	-2.3473665e-05	670117.7	195531.66	-0.000115374474	195534.73	670116.8	-0.00018459915
0	0.61790323	0.61790055	-4.7784315e-10	0.051972385	0.051972385	0	71629.07	71628.75	-5.3225172e-05	670363.25	194698.28	-0.00040381064	194701.36	670362.44	-0.0002719541
0	0.6174803	0.6174775	-3.238016e-10	0.051618654	0.051618658	0	71580.04	71579.72	-3.8212944e-05	670609.2	193860.22	-0.00019119198	193863.3	670608.2	-0.00030739055
0	0.6170545	0.6170518	-2.5149638e-10	0.05126538	0.05126538	0	71530.68	71530.36	-2.9478557e-05	670854.94	193018.28	-0.0002175633	193021.36	670854.2	-0.00015493143
0	0.6166265	0.6166237	-4.558372e-10	0.05091182	0.050911814	0	71481.055	71480.74	-5.431697e-05	671100.6	192173.36	-0.00043183018	192176.45	671099.8	-0.00025382385
0	0.6161941	0.6161914	-1.1631708e-10	0.050558098	0.050558098	0	71430.945	71430.62	-1.0645034e-05	671347.06	191321.73	-6.263186e-05	191324.83	671346.25	-7.993803e-05
0	0.6157607	0.6157579	-3.741009e-10	0.050204545	0.050204545	0	71380.695	71380.37	-4.2307187e-05	671592.6	190469.2	-0.00033623417	190472.3	671591.8	-0.00022250791
0	0.61532485	0.61532205	-4.0868163e-11	0.04985109	0.04985109	0	71330.17	71329.84	-5.458992e-06	671837.9	189613.77	8.405854e-05	189616.89	671837.1	-0.0001219673
0	0.61488557	0.6148828	-3.929631e-10	0.049497537	0.049497537	0	71279.26	71278.93	-4.776618e-05	672083.56	188753.23	-0.00035930908	188756.33	672082.75	-0.00025464795
0	0.61444336	0.6144407	-3.0179567e-10	0.04914386	0.04914386	0	71228	71227.67	-3.7667047e-05	672329	187888.66	-0.00025052743	187891.77	672328.2	-0.00020025713
0	0.6139984	0.6139956	-1.5718525e-10	0.048790313	0.048790317	0	71176.41	71176.08	-1.8833523e-05	672574.5	187020.1	-0.00025876847	187023.19	672573.75	1.483386e-05
0	0.61355096	0.61354804	-4.7784315e-10	0.048436835	0.048436835	0	71124.53	71124.2	-5.3498123e-05	672819.8	186148.28	-0.0004614979	186151.42	672819	-0.00023239716
0	0.61310047	0.61309767	-3.5209494e-10	0.048083298	0.048083298	0	71072.305	71071.984	-4.2853088e-05	673064.9	185272.6	-0.00028349156	185275.72	673064.1	-0.00024228639
0	0.6126468	0.6126441	-2.7035862e-10	0.047729585	0.047729585	0	71019.73	71019.41	-3.0570354e-05	673310.06	184392.31	-0.00020437763	184395.47	673309.3	-0.00021261867
0	0.61218953	0.61218673	-3.6152606e-10	0.04737627	0.04737627	0	70966.7	70966.39	-4.094244e-05	673555.6	183506.52	-0.0003609573	183509.66	673554.9	-0.00015328322
0	0.61173093	0.6117282	-2.8607713e-10	0.04702273	0.047022734	0	70913.555	70913.234	-3.439165e-05	673800.1	182620.11	-0.0002900844	182623.23	673799.4	-0.0001450422
0	0.61126834	0.6112656	7.544892e-11	0.046669014	0.046669014	0	70859.94	70859.61	7.09669e-06	674045	181727.55	-6.592827e-06	181730.7	674044.25	0.00012856013
0	0.61080325	0.61080045	-5.187113e-10	0.046315487	0.046315487	0	70806.016	70805.69	-5.8138266e-05	674289.5	180831.84	-0.0004639702	180834.98	674288.75	-0.00030327003
0	0.6103354	0.6103327	-3.803883e-10	0.045961984	0.04596198	0	70751.79	70751.46	-4.121539e-05	674533.9	179932.58	-0.00023404536	179935.73	674533.2	-0.0003181039
0	0.609864	0.6098612	-2.6721492e-10	0.04560845	0.04560845	0	70697.13	70696.805	-2.6749061e-05	674778.3	179028.08	-0.00028678798	179031.22	674777.56	-9.80683e-05
0	0.6093904	0.6093876	-5.0299276e-10	0.045254778	0.045254778	0	70642.23	70641.91	-5.458992e-05	675022.06	178121.19	-0.0003889768	178124.33	675021.4	-0.00031975211
0	0.6089105	0.6089077	-1.1946079e-10	0.04490125	0.044901256	0	70586.6	70586.28	-1.6376976e-05	675267.2	177204.33	-0.00011867088	177207.5	675266.5	-5.933544e-05
0	0.60843164	0.60842884	-9.431115e-11	0.044547725	0.04454773	0	70531.086	70530.766	-1.2555682e-05	675510.25	176290.92	-0.00010218882	176294.08	675509.44	-2.6371308e-05
0	0.60794353	0.6079408	-3.929631e-10	0.044194214	0.044194218	0	70474.516	70474.19	-4.5855533e-05	675756.25	175361.62	-0.0003444752	175364.8	675755.5	-0.00022827664
0	0.60746276	0.60745996	-4.872743e-10	0.04384051	0.04384051	0	70418.77	70418.45	-5.650057e-05	675996.44	174448.22	-0.00040216243	174451.39	675995.75	-0.0002966772
0	0.60697275	0.60696995	-5.155676e-10	0.043486986	0.043486986	0	70361.98	70361.66	-6.004891e-05	676239.56	173519.16	-0.00034612342	173522.33	676238.8	-0.00041040347
0	0.60648	0.6064773	-4.589809e-10	0.04313363	0.04313364	0	70304.85	70304.54	-5.1860425e-05	676482.25	172586.53	-0.00039886605	172589.7	676481.6	-0.00025876847
0	0.6059837	0.60598093	-2.6721492e-10	0.04277993	0.04277993	0	70247.32	70247	-3.2208052e-05	676724.94	171649.02	-0.00018130275	171652.17	676724.3	-0.00021591509
0	0.6054839	0.6054811	-3.5838235e-10	0.042426415	0.042426415	0	70189.38	70189.06	-4.5309633e-05	676967.5	170706.83	-0.00028184336	170710	676966.8	-0.00029420492
0	0.6049818	0.60497904	-2.577838e-10	0.04207287	0.04207287	0	70131.17	70130.86	-3.0843305e-05	677209.25	169762.11	-0.00024063818	169765.28	677208.5	-0.00014174578
0	0.6044758	0.6044731	-4.1496906e-10	0.04171936	0.04171936	0	70072.53	70072.2	-4.749323e-05	677451	168811.98	-0.00041864451	168815.16	677450.3	-0.00021014636
0	0.6039661	0.6039633	-6.2874095e-11	0.041365694	0.0413657	0	70013.43	70013.11	-7.09669e-06	677692.75	167856.62	-6.592827e-06	167859.8	677692.06	-9.0651374e-05
0	0.60345453	0.6034517	-1.03742265e-10	0.041012205	0.041012205	0	69954.125	69953.81	-1.364748e-05	677933.44	166899.64	-0.00028019515	166902.84	677932.75	0.00010548523
0	0.60293835	0.6029356	-2.6721492e-10	0.04065862	0.04065862	0	69894.29	69893.98	-3.329985e-05	678174.4	165936.14	-0.00024723102	165939.33	678173.6	-0.00018130275
0	0.6024186	0.6024158	-4.2754386e-10	0.04030513	0.04030513	0	69834.04	69833.73	-5.2679272e-05	678415.06	164967.8	-0.0005142405	164970.97	678414.44	-0.0001450422
0	0.6018961	0.60189337	-1.7290377e-10	0.03995143	0.03995143	0	69773.48	69773.16	-1.992532e-05	678655.1	163996.22	-0.00019943302	163999.39	678654.5	-7.9113925e-05
0	0.6013699	0.6013671	-2.609275e-10	0.039597943	0.039597943	0	69712.48	69712.164	-3.0843305e-05	678894.94	163019.75	-0.00025712026	163022.94	678894.3	-0.00014092168
0	0.6008408	0.6008381	-3.0493938e-10	0.039244547	0.039244547	0	69651.15	69650.83	-3.548345e-05	679134.1	162039.81	-0.00037908755	162043	679133.56	-8.405854e-05
0	0.6003074	0.6003046	-7.230521e-11	0.038890846	0.038890846	0	69589.305	69588.984	-6.0048915e-06	679373.4	161053.72	-0.00015740375	161056.92	679372.7	4.86221e-05
0	0.59977067	0.5997679	-5.6901056e-10	0.03853736	0.03853736	0	69527.086	69526.766	-6.4962005e-05	679612.06	160063.62	-0.00053072255	160066.8	679611.5	-0.00029997362
0	0.5992297	0.5992269	-2.2005935e-10	0.03818374	0.03818374	0	69464.37	69464.055	-2.4838413e-05	679850.6	159067.67	-0.00021591509	159070.86	679850	-0.00012361551
0	0.5986861	0.5986835	-1.1317337e-10	0.03783027	0.03783027	0	69401.375	69401.06	-1.3920429e-05	680088.25	158069.17	-0.00015822785	158072.36	680087.6	-2.0602585e-05
0	0.59813946	0.59813684	-3.0179567e-10	0.03747657	0.03747657	0	69338.01	69337.69	-3.3026903e-05	680325.44	157066.75	-0.00021097047	157069.97	680324.9	-0.00025217564
0	0.5975882	0.5975855	-3.0493938e-10	0.037123155	0.037123155	0	69274.086	69273.77	-3.7121146e-05	680562.44	156057.69	-0.0002439346	156060.88	680561.9	-0.00019119198
0	0.5970333	0.59703064	-5.9730394e-11	0.0367695	0.0367695	0	69209.77	69209.46	-8.188488e-06	680798.94	155044.52	-0.00025052743	155047.7	680798.44	0.00021426688
0	0.5964749	0.59647226	-1.226045e-10	0.03641605	0.03641605	0	69145.03	69144.72	-1.6376976e-05	681034.94	154026.7	-0.00018459915	154029.89	681034.44	-6.592827e-06
0	0.59591305	0.5959103	-3.0493938e-10	0.03606235	0.03606235	0	69079.89	69079.586	-3.41187e-05	681270.5	153004.48	-0.0002966772	153007.66	681269.94	-0.0001450422
0	0.595347	0.5953444	-2.9236455e-10	0.035708904	0.035708904	0	69014.29	69013.98	-3.2753953e-05	681505.56	151977.16	-0.00019119198	151980.34	681505.06	-0.00026536128
0	0.5947774	0.5947747	-3.898194e-10	0.03535545	0.03535545	0	68948.26	68947.95	-4.5036686e-05	681739.94	150945.19	-0.00040545885	150948.38	681739.44	-0.0001714135
0	0.5942036	0.59420097	-4.495498e-10	0.03500176	0.03500176	0	68881.74	68881.44	-5.2952222e-05	681973.9	149907.95	-0.00030491824	149911.14	681973.4	-0.00037249472
0	0.5936265	0.59362394	-3.1751418e-10	0.034648303	0.034648303	0	68814.836	68814.53	-3.5210498e-05	682207.4	148866.53	-0.00027525052	148869.72	682206.9	-0.00017470992
0	0.5930451	0.59304243	-1.886223e-10	0.034294628	0.034294624	0	68747.44	68747.14	-2.4292514e-05	682440.25	147819.7	-0.00013844937	147822.86	682439.8	-0.00019036788
0	0.5924593	0.5924567	-3.206579e-10	0.033941172	0.033941172	0	68679.53	68679.23	-3.6848196e-05	682672.7	146767.16	-0.00026371307	146770.33	682672.25	-0.00020932226
0	0.59187114	0.5918686	-2.8607713e-10	0.033587486	0.033587486	0	68611.35	68611.055	-3.41187e-05	682904	145712.48	-0.00031315928	145715.64	682903.56	-0.0001450422
0	0.5912776	0.591275	-3.3637643e-10	0.033234086	0.033234086	0	68542.55	68542.24	-3.8485894e-05	683135.25	144650.12	-0.00035436446	144653.31	683134.8	-0.0001219673
0	0.59068024	0.5906777	-2.1062822e-10	0.03288041	0.03288041	0	68473.305	68473	-2.8659708e-05	683365.7	143583.5	-0.00026536128	143586.66	683365.3	-4.5325687e-05
0	0.5900793	0.5900767	-7.199084e-10	0.032526962	0.032526962	0	68403.63	68403.336	-8.379553e-05	683595.5	142512.34	-0.00055379746	142515.52	683594.94	-0.0005570939
0	0.5894735	0.5894709	-2.2320305e-10	0.032173283	0.032173283	0	68333.41	68333.12	-2.6476111e-05	683824.7	141435.03	-0.00023404536	141438.17	683824.3	-9.0651374e-05
0	0.5888645	0.5888618	-6.916151e-11	0.03181982	0.03181982	0	68262.805	68262.51	-9.280287e-06	684053.06	140353.94	-9.2299575e-05	140357.1	684052.6	-4.0381066e-05
0	0.58825105	0.5882485	-4.7469945e-10	0.03146635	0.03146635	0	68191.71	68191.414	-5.5681718e-05	684280.75	139267.58	-0.00041946862	139270.73	684280.3	-0.00027607463
0	0.58763343	0.58763087	-1.6976007e-10	0.031112673	0.031112673	0	68120.11	68119.81	-2.1563019e-05	684507.75	138175.89	-0.00024723102	138179.03	684507.4	-8.241034e-07
0	0.58701175	0.58700925	-1.1317337e-10	0.030759204	0.030759204	0	68048.03	68047.734	-1.3920429e-05	684733.94	137079.3	-0.00023404536	137082.42	684733.5	6.098365e-05
0	0.586385	0.5863824	-5.564358e-10	0.03040555	0.030405547	0	67975.375	67975.09	-6.3870204e-05	684959.6	135976.14	-0.00047550764	135979.28	684959.3	-0.00035354035
0	0.58575463	0.58575225	-2.640712e-10	0.030052077	0.030052077	0	67902.32	67902.02	-3.1935102e-05	685184.25	134869.06	-0.00034941983	134872.19	685184	-2.8019515e-05
0	0.58511907	0.5851167	-6.193099e-10	0.029698407	0.029698407	0	67828.63	67828.35	-7.178575e-05	685408.6	133754.98	-0.00045490506	133758.1	685408.25	-0.00044913634
0	0.5844804	0.58447796	-1.4775413e-10	0.029345	0.029345	0	67754.6	67754.31	-1.4466329e-05	685631.6	132637.9	-0.00019778482	132641.03	685631.2	-3.461234e-05
0	0.5838371	0.5838345	-2.2949045e-10	0.02899134	0.028991342	0	67680.016	67679.734	-2.729496e-05	685853.94	131514.88	-0.000115374474	131517.97	685853.56	-0.00022415612
0	0.5831892	0.58318675	-2.0434082e-10	0.02863786	0.02863786	0	67604.914	67604.63	-2.1290069e-05	686075.25	130386.51	-0.00021097047	130389.62	686074.94	-4.7797996e-05
0	0.58253425	0.58253187	-2.609275e-10	0.028284214	0.028284214	0	67529	67528.72	-3.0024456e-05	686296.6	129248.164	-0.00026041668	129251.26	686296.44	-0.00013680116
0	0.58187956	0.5818772	-2.8922084e-10	0.027930737	0.027930737	0	67453.1	67452.82	-3.46646e-05	686515.7	128112.625	-0.0003626055	128115.71	686515.4	-8.4882646e-05
0	0.58121866	0.5812163	-7.544892e-11	0.027577247	0.027577247	0	67376.49	67376.21	-8.734387e-06	686734.25	126968.82	-8.241034e-05	126971.9	686734	-5.7687234e-06
0	0.58055127	0.5805488	-3.5209494e-10	0.02722359	0.02722359	0	67299.125	67298.84	-4.0123592e-05	686952.7	125816.12	-0.00022910074	125819.164	686952.3	-0.0002917326
0	0.579881	0.5798786	-3.6466977e-10	0.026870102	0.026870102	0	67221.414	67221.14	-4.6401434e-05	687169.4	124660.99	-0.00043183018	124664.05	687169.06	-0.00015081091
0	0.5792062	0.5792039	-2.8922084e-10	0.02651647	0.026516471	0	67143.2	67142.93	-3.1935102e-05	687385.06	123500.57	-0.00022415612	123503.625	687384.9	-0.00020272942
0	0.57852584	0.57852346	-3.4580755e-11	0.02616297	0.02616297	0	67064.32	67064.055	-1.9106471e-06	687600.25	122332.87	-8.570675e-05	122335.91	687600	9.6420095e-05
0	0.57784015	0.5778378	-4.3068757e-10	0.025809327	0.025809329	0	66984.84	66984.57	-4.803913e-05	687814.44	121158.805	-0.0005241297	121161.83	687814.2	-8.241034e-05
0	0.5771515	0.57714915	-1.4461042e-10	0.02545591	0.02545591	0	66905.01	66904.734	-1.8833523e-05	688027.06	119981.945	-0.00021426688	119984.96	688026.8	-2.3074894e-05
0	0.5764568	0.57645446	3.4580755e-11	0.025102274	0.025102274	0	66824.47	66824.2	4.094244e-06	688238.94	118797.42	1.6482067e-05	118800.43	688238.75	6.263186e-05
0	0.57575727	0.57575494	-1.5089784e-10	0.024748769	0.024748769	0	66743.38	66743.12	-2.1563019e-05	688449.8	117607.33	-0.00034612342	117610.34	688449.56	8.9003166e-05
0	0.57505184	0.5750496	-5.124239e-10	0.024395157	0.024395157	0	66661.61	66661.36	-5.7319416e-05	688659.7	116409.88	-0.00040875527	116412.84	688659.56	-0.00033376185
0	0.5743433	0.57434106	-2.8922084e-10	0.024041649	0.024041649	0	66579.48	66579.22	-3.548345e-05	688868.1	115209.6	-0.00044913634	115212.57	688867.94	-1.5657964e-05
0	0.57362974	0.57362753	-2.3892158e-10	0.023688136	0.023688138	0	66496.75	66496.5	-2.8932658e-05	689075.25	114003.36	-0.00027360232	114006.29	689075.06	-6.098365e-05
0	0.5729098	0.5729076	-4.8413057e-10	0.023334507	0.023334507	0	66413.3	66413.04	-5.7865316e-05	689281.6	112789.1	-0.00041205168	112792.03	689281.56	-0.00032716905
0	0.57218564	0.57218343	-1.9805341e-10	0.02298099	0.02298099	0	66329.34	66329.09	-2.047122e-05	689486.6	111570.26	-0.00026700948	111573.19	689486.5	-1.9778481e-05
0	0.5714564	0.57145417	-6.570343e-10	0.022627389	0.022627389	0	66244.805	66244.56	-7.888243e-05	689690.44	110345.586	-0.00069224683	110348.484	689690.25	-0.00028678798
0	0.57072145	0.5707193	-1.6347265e-10	0.022273865	0.022273865	0	66159.625	66159.375	-1.9106472e-05	689893	109114.22	-0.00026700948	109117.12	689892.75	-4.9446203e-06
0	0.56998104	0.56997895	-1.0059856e-10	0.021920253	0.021920254	0	66073.8	66073.55	-9.826185e-06	690094.3	107876.36	-0.00015081091	107879.25	690094.1	3.2964133e-05
0	0.5692366	0.5692345	-2.1062822e-10	0.021566816	0.02156682	0	65987.49	65987.25	-2.6203163e-05	690294	106634.336	-0.00020108122	106637.2	690293.94	-0.00012526372
0	0.568484	0.568482	-2.0434082e-10	0.021213207	0.021213207	0	65900.25	65900.016	-2.5384314e-05	690493.1	105381.66	-0.0005406118	105384.51	690493.06	0.00021509099
0	0.56772983	0.5677278	-1.4775413e-10	0.02085968	0.02085968	0	65812.82	65812.58	-1.5831078e-05	690689.94	104128.92	-0.00023074895	104131.76	690689.9	6.263186e-05
0	0.5669685	0.5669664	-3.269453e-10	0.020506103	0.020506103	0	65724.57	65724.33	-3.985064e-05	690885.8	102867.2	-0.00020437763	102870.03	690885.75	-0.0002966772
0	0.5662019	0.56619984	-6.318847e-10	0.020152565	0.020152565	0	65635.71	65635.47	-7.260459e-05	691080.1	101599.68	-0.00060654007	101602.484	691080.2	-0.00031975211
0	0.56542987	0.5654279	-2.6721492e-10	0.019798972	0.019798972	0	65546.21	65545.97	-3.1116255e-05	691273.1	100325.9	-0.00039392142	100328.69	691273.1	-1.6482068e-06
0	0.56465185	0.5646499	2.8293343e-11	0.019445423	0.019445423	0	65456.008	65455.78	2.729496e-07	691464.7	99045.08	-2.6371308e-05	99047.85	691464.7	7.746572e-05
0	0.563868	0.56386596	-2.640712e-10	0.01909187	0.01909187	0	65365.14	65364.91	-2.5657262e-05	691654.8	97757.47	-0.00013844937	97760.23	691654.9	-0.00020602584
0	0.56307924	0.5630773	-6.28741e-10	0.018738285	0.018738285	0	65273.72	65273.492	-7.369639e-05	691843.25	96465	-0.00043842298	96467.73	691843.25	-0.00049775845
0	0.5622846	0.5622826	-4.3383128e-10	0.01838475	0.018384747	0	65181.586	65181.375	-5.1314524e-05	692030.2	95165.49	-0.0005603903	95168.2	692030.2	-0.00010548523
0	0.56148386	0.56148195	-2.7035862e-10	0.018031174	0.018031174	0	65088.773	65088.56	-3.1935102e-05	692215.5	93859.21	-0.00026700948	93861.9	692215.56	-0.00012526372
0	0.56067723	0.5606754	-9.745485e-11	0.017677724	0.017677724	0	64995.266	64995.05	-9.826185e-06	692399.25	92546.22	-7.746572e-05	92548.875	692399.3	-4.6149788e-05
0	0.55986327	0.5598614	-3.4580755e-11	0.017324151	0.017324151	0	64900.914	64900.7	-7.09669e-06	692581.7	91224.23	-6.922468e-05	91226.88	692581.8	-4.9446203e-06
0	0.5590457	0.5590439	4.464061e-10	0.016970586	0.016970586	0	64806.133	64805.92	5.1314524e-05	692761.94	89899.35	0.00030327003	89901.984	692762.06	0.00037249472
0	0.55822253	0.55822086	-1.06885965e-10	0.016617043	0.016617043	0	64710.72	64710.51	-1.364748e-05	692940.3	88568.7	-9.2299575e-05	88571.305	692940.5	-7.746572e-05
0	0.5573925	0.5573907	-3.5209494e-10	0.016263481	0.016263481	0	64614.49	64614.285	-4.0396542e-05	693117.2	87229.66	-0.0003659019	87232.25	693117.4	-0.000115374474
0	0.55655617	0.5565544	-1.226045e-10	0.01590991	0.01590991	0	64517.53	64517.336	-1.1190934e-05	693292.4	85883.65	-0.00018130275	85886.2	693292.5	2.4723102e-05
0	0.5557135	0.55571175	-2.0119711e-10	0.015556336	0.015556336	0	64419.85	64419.66	-1.419338e-05	693465.6	84530.66	-0.00027113	84533.19	693465.8	8.241034e-05
0	0.5548646	0.5548629	1.5089784e-10	0.015202775	0.015202775	0	64321.453	64321.26	1.8833523e-05	693637.2	83170.805	-3.9556962e-05	83173.305	693637.3	0.00030491824
0	0.5540098	0.5540081	-5.0613647e-10	0.014849204	0.014849204	0	64222.355	64222.16	-5.7046465e-05	693806.75	81804.445	-0.00037579113	81806.93	693806.9	-0.00037579113
0	0.55314815	0.55314666	-1.5718525e-10	0.014495671	0.01449567	0	64122.48	64122.3	-1.992532e-05	693974.3	80430.7	-0.0002917326	80433.17	693974.56	6.263186e-05
0	0.55228096	0.55227935	-2.5149638e-10	0.014142107	0.014142107	0	64021.95	64021.77	-2.9478557e-05	694139.9	79050.98	-0.00011207806	79053.41	694140.1	-0.00024723102
0	0.5514069	0.5514053	6.60178e-11	0.013788624	0.013788624	0	63920.617	63920.44	1.419338e-05	694303.6	77663.625	-0.00018130275	77666.02	694303.9	0.00030986287
0	0.5505262	0.55052465	2.483527e-10	0.01343505	0.01343505	0	63818.527	63818.348	3.0843305e-05	694465.25	76268.98	8.982727e-05	76271.36	694465.56	0.0003164557
0	0.54963917	0.5496377	2.514964e-11	0.013081485	0.013081485	0	63715.707	63715.527	-1.0917984e-06	694624.8	74867.64	-0.0001450422	74869.99	694625.1	0.00019119198
0	0.54874516	0.5487437	-3.6466977e-10	0.012727954	0.0127279535	0	63612.062	63611.902	-4.0396542e-05	694782.25	73458.62	-0.00031315928	73460.93	694782.56	-0.00016482068
0	0.54784465	0.54784316	2.0434082e-10	0.012374384	0.012374384	0	63507.676	63507.51	2.5657262e-05	694937.56	72042.59	-3.3788237e-05	72044.875	694937.9	0.00033788237
0	0.5469372	0.5469358	1.1631708e-10	0.0120208245	0.0120208245	0	63402.48	63402.32	1.4739278e-05	695090.75	70619.05	9.2299575e-05	70621.305	695091.06	9.2299575e-05
0	0.5460231	0.5460218	4.0868163e-11	0.011667253	0.011667253	0	63296.523	63296.36	9.280287e-06	695241.56	69188.54	-0.0001944884	69190.78	695241.9	0.00027854694
0	0.54510194	0.5451006	-4.558372e-10	0.0113136945	0.0113136945	0	63189.734	63189.58	-5.1860425e-05	695390.25	67750.266	-0.00048045226	67752.46	695390.6	-0.00016976529
0	0.5441743	0.54417294	6.28741e-12	0.010960127	0.010960126	0	63082.21	63082.06	3.8212943e-06	695536.44	66305.4	-0.00013844937	66307.56	695536.75	0.00015493143
0	0.5432395	0.5432382	-4.1811274e-10	0.010606604	0.010606604	0	62973.836	62973.69	-5.2133375e-05	695680.4	64852.785	-0.00044501582	64854.934	695680.75	-0.00018130275
0	0.5422964	0.54229516	-6.161662e-10	0.010253051	0.010253051	0	62864.51	62864.37	-7.09669e-05	695822.06	63390.824	-0.00047138712	63392.91	695822.5	-0.0004614979
0	0.54134804	0.54134685	-1.9176599e-10	0.009899486	0.009899486	0	62754.574	62754.438	-2.3473665e-05	695961.06	61924.16	-0.0002900844	61926.22	695961.4	-4.120517e-05
0	0.54039156	0.5403903	-4.589809e-10	0.009545935	0.009545935	0	62643.69	62643.56	-5.486287e-05	696097.6	60448.473	-0.00046809073	60450.504	696098	-0.00021261867
0	0.5394279	0.5394268	-2.577838e-10	0.009192375	0.009192375	0	62531.99	62531.855	-3.1662155e-05	696231.7	58965.387	-0.00041864451	58967.387	696232.1	1.3185654e-05
0	0.53845656	0.53845555	-5.3442983e-11	0.008838862	0.008838862	0	62419.387	62419.26	-6.0048915e-06	696363.2	57474.066	2.6371308e-05	57476.023	696363.6	-0.00013515295
0	0.5374781	0.5374771	4.0868163e-11	0.008485293	0.008485293	0	62305.965	62305.84	5.458992e-06	696492	55975.383	-0.00019778482	55977.305	696492.5	0.00026206486
0	0.53649175	0.5364908	-1.06885965e-10	0.008131741	0.008131741	0	62191.63	62191.504	-1.3101581e-05	696618.3	54468.273	-0.0001458663	54470.164	696618.75	-1.9778481e-05
0	0.5354981	0.535497	2.483527e-10	0.007778168	0.007778168	0	62076.43	62076.312	2.5657262e-05	696741.75	52953.688	9.559599e-05	52955.54	696742.25	0.0002686577
0	0.53449684	0.5344959	-4.1182535e-10	0.007424602	0.007424602	0	61960.363	61960.254	-4.3126038e-05	696862.44	51431.324	-0.00011207806	51433.13	696863	-0.00047633174
0	0.5334874	0.5334864	-3.269453e-10	0.0070710536	0.0070710536	0	61843.34	61843.24	-4.0396542e-05	696980.4	49900.203	-0.00037249472	49901.973	696980.9	-0.00012526372
0	0.5324706	0.5324697	-1.6661636e-10	0.0067175254	0.0067175254	0	61725.47	61725.367	-1.7468774e-05	697095.4	48361.727	-0.00023074895	48363.438	697095.8	4.9446204e-05
0	0.5314455	0.53144467	-3.1437047e-11	0.006363977	0.0063639767	0	61606.645	61606.55	-4.9130927e-06	697207.44	46814.598	-0.00014174578	46816.27	697207.94	9.559599e-05