# t (s)	mx ()	my ()	mz ()	B_extx (T)	B_exty (T)	B_extz (T)	m_fullx (A/m)	m_fully (A/m)	m_fullz (A/m)	m_full.region1x (A/m)	m_full.region1y (A/m)	m_full.region1z (A/m)	m_full.region2x (A/m)	m_full.region2y (A/m)	m_full.region2z (A/m)
0	0.63664854	0.63664466	-6.8788775e-10	0.0707108	0.07071081	0	88910.72	88910.164	-9.9922836e-05	658763.94	232539.62	-0.0005308246	232544.02	658762.75	-0.0005298577
0	0.63652915	0.6365259	9.6359615e-11	0.07056912	0.07056912	0	88894.04	88893.6	1.3503087e-05	658854.44	232282.64	7.735149e-06	232286.33	658853.7	0.00012762994
0	0.63640666	0.63640356	-3.1535874e-10	0.070427895	0.070427895	0	88876.945	88876.516	-4.533179e-05	658947.7	232018.08	-8.5086634e-05	232021.69	658946.94	-0.0003751547
0	0.6362828	0.63627964	-1.2725002e-10	0.070286475	0.070286475	0	88859.63	88859.195	-1.8518518e-05	659041.9	231750.38	-6.8649446e-05	231754	659041.1	-0.00011215965
0	0.6361597	0.6361566	-2.5265584e-10	0.07014494	0.07014494	0	88842.45	88842.016	-3.8194445e-05	659135.4	231484.69	-0.00015276918	231488.31	659134.56	-0.0002552599
0	0.63603485	0.6360317	3.0014405e-10	0.07000352	0.07000352	0	88825.016	88824.58	4.0509258e-05	659229.8	231215.34	0.00012376238	231219.05	659229	0.00032100867
0	0.6359113	0.6359082	-2.6095473e-10	0.069862284	0.069862284	0	88807.766	88807.32	-3.6844136e-05	659323.2	230949.02	-0.00023012067	230952.69	659322.56	-0.00017017327
0	0.63578695	0.6357838	-1.3831523e-10	0.06972061	0.06972061	0	88790.4	88789.95	-2.0640433e-05	659417	230681.02	-0.00011022587	230684.67	659416.3	-0.00012376238
0	0.6356622	0.6356591	-1.8257611e-10	0.06957921	0.06957921	0	88772.98	88772.53	-2.7777778e-05	659511	230412.42	-0.00020401455	230416.05	659510.3	-7.7351484e-05
0	0.63553774	0.6355346	-1.2540581e-10	0.06943796	0.06943796	0	88755.59	88755.164	-1.7554012e-05	659604.5	230144.75	-0.00012762994	230148.4	659603.75	-7.348391e-05
0	0.63541174	0.63540864	-5.7170296e-10	0.06929652	0.06929652	0	88738	88737.56	-7.947531e-05	659698.9	229874	-0.0004022277	229877.61	659698.2	-0.00045250618
0	0.6352868	0.63528365	-4.223225e-10	0.06915501	0.069155015	0	88720.54	88720.11	-6.28858e-05	659792.5	229605.39	-0.00041189665	229609.03	659791.7	-0.0002397896
0	0.63516074	0.6351576	1.4753625e-11	0.0690136	0.0690136	0	88702.94	88702.5	5.4012344e-06	659886.56	229334.75	9.668936e-07	229338.38	659885.9	4.6410893e-05
0	0.63503456	0.6350314	-8.114494e-11	0.06887218	0.06887218	0	88685.32	88684.88	-1.5432099e-05	659980.7	229064.06	-8.5086634e-05	229067.72	659979.94	-6.961633e-05
0	0.6349082	0.63490504	-4.6105078e-10	0.0687307	0.0687307	0	88667.664	88667.234	-6.3271604e-05	660074.7	228793.1	-0.00032681003	228796.75	660073.94	-0.0003480817
0	0.63478136	0.63477814	-3.8728267e-11	0.06858927	0.06858927	0	88649.95	88649.516	-6.9444445e-06	660168.8	228521.25	-2.9006807e-05	228524.9	660168.2	-7.348391e-05
0	0.6346546	0.6346515	-4.0572468e-10	0.068448	0.068448	0	88632.26	88631.81	-5.632716e-05	660262.7	228250.02	-0.00034421412	228253.67	660262	-0.00026299505
0	0.63452667	0.63452345	-4.223225e-10	0.068306595	0.06830659	0	88614.39	88613.945	-5.5169752e-05	660357.3	227976.3	-0.0003422803	227979.95	660356.6	-0.00025139234
0	0.6343996	0.63439643	-3.7990583e-10	0.068165086	0.06816509	0	88596.64	88596.21	-5.4976852e-05	660451	227704.73	-0.0003596844	227708.39	660450.4	-0.00022818688
0	0.6342714	0.63426816	-1.5352991e-10	0.06802368	0.06802368	0	88578.734	88578.305	-1.8325618e-05	660545.44	227430.75	-0.00017694152	227434.4	660544.75	-6.188119e-05
0	0.6341431	0.6341401	-3.3933337e-10	0.06788226	0.06788226	0	88560.84	88560.4	-4.66821e-05	660639.7	227157.17	-0.00027363087	227160.81	660638.94	-0.00021271658
0	0.6340148	0.6340116	-2.2683698e-10	0.067740776	0.06774077	0	88542.91	88542.47	-3.317901e-05	660733.9	226883.19	-0.00033261138	226886.83	660733.06	0
0	0.6338858	0.6338827	-2.415906e-10	0.06759933	0.06759932	0	88524.9	88524.47	-3.14429e-05	660828.2	226608.36	-0.0002252862	226612.05	660827.5	-0.00011602723
0	0.6337572	0.6337541	-1.5860147e-10	0.067458086	0.067458086	0	88506.94	88506.49	-2.1990742e-05	660922.1	226334.33	-0.00012762994	226337.98	660921.44	-0.00010055693
0	0.63362694	0.6336238	-3.44866e-10	0.06731665	0.06731665	0	88488.734	88488.305	-4.9382717e-05	661017	226056.97	-0.0002852336	226060.64	661016.3	-0.00021271658
0	0.63349766	0.6334945	-4.0572468e-10	0.067175	0.067175	0	88470.695	88470.25	-6.0378086e-05	661111.06	225781.97	-0.00038675743	225785.64	661110.4	-0.00024365718
0	0.6333678	0.63336474	-2.6118527e-10	0.06703376	0.06703376	0	88452.55	88452.125	-3.452932e-05	661205.4	225505.89	-7.7351484e-05	225509.55	661204.7	-0.0003171411
0	0.63323736	0.6332343	-5.0162324e-10	0.06689233	0.06689233	0	88434.336	88433.9	-6.867284e-05	661299.8	225228.83	-0.00038288985	225232.5	661299.06	-0.00035194925
0	0.63310635	0.6331033	-1.8810872e-10	0.06675082	0.06675082	0	88416.05	88415.61	-2.7391976e-05	661394.5	224950.78	-0.00013923267	224954.45	661393.9	-0.00014310025
0	0.63297564	0.63297254	-3.5708383e-10	0.0666094	0.0666094	0	88397.79	88397.36	-5.131173e-05	661488.9	224673.36	-0.00031133974	224677.05	661488.2	-0.0002243193
0	0.63284475	0.6328417	-4.4814136e-10	0.06646815	0.06646816	0	88379.516	88379.07	-6.1149694e-05	661583.06	224396.05	-0.00031907487	224399.73	661582.4	-0.00038288985
0	0.6327127	0.6327097	-4.112573e-10	0.06632651	0.06632651	0	88361.07	88360.64	-5.941358e-05	661677.8	224116.4	-0.0004505724	224120.06	661677.2	-0.00015083539
0	0.632581	0.63257784	-4.7810966e-10	0.06618509	0.06618509	0	88342.664	88342.234	-6.655093e-05	661772.44	223837.33	-0.00032971072	223841	661771.7	-0.00039449258
0	0.63244903	0.6324458	-9.2210154e-12	0.06604384	0.06604384	0	88324.234	88323.79	-3.0864198e-06	661866.75	223558.14	-6.961633e-05	223561.81	661866.1	3.0940595e-05
0	0.63231635	0.6323132	-4.0802994e-10	0.06590237	0.06590237	0	88305.71	88305.27	-5.3626543e-05	661961.5	223277.69	-0.0003751547	223281.36	661960.8	-0.00020884901
0	0.6321838	0.63218063	-5.4219573e-10	0.06576091	0.0657609	0	88287.195	88286.75	-7.330247e-05	662055.94	222997.64	-0.000390625	223001.31	662055.25	-0.00039836013
0	0.6320506	0.6320475	-3.9742576e-10	0.06561947	0.06561947	0	88268.59	88268.16	-5.5941357e-05	662150.6	222716.47	-0.00035098236	222720.14	662149.9	-0.0002397896
0	0.63191706	0.6319139	-1.4015944e-10	0.06547823	0.06547823	0	88249.945	88249.51	-2.179784e-05	662245.4	222434.81	-0.00016823948	222438.5	662244.6	-4.6410893e-05
0	0.6317838	0.63178074	-4.131015e-10	0.065336585	0.065336585	0	88231.34	88230.91	-5.9606482e-05	662339.7	222154.05	-0.00029877012	222157.72	662339	-0.00030553836
0	0.6316494	0.6316462	5.1637687e-11	0.06519516	0.06519516	0	88212.56	88212.125	5.015432e-06	662434.7	221870.83	7.928527e-05	221874.5	662433.94	-2.707302e-05
0	0.631515	0.6315119	-1.6413408e-10	0.06505392	0.06505392	0	88193.8	88193.37	-2.0254629e-05	662529.3	221587.95	-8.8954206e-05	221591.66	662528.7	-0.00015470297
0	0.6313803	0.6313773	-1.6413408e-10	0.06491244	0.06491244	0	88175	88174.57	-2.2376544e-05	662624.06	221304.77	-7.251702e-05	221308.45	662623.44	-0.00020111386
0	0.6312454	0.6312422	-2.0286234e-11	0.06477098	0.06477098	0	88156.13	88155.7	-2.507716e-06	662718.9	221020.89	-6.0914295e-05	221024.6	662718.25	3.4808167e-05
0	0.63111037	0.6311073	-6.0305444e-10	0.06462956	0.06462956	0	88137.29	88136.85	-8.333333e-05	662813.44	220737.38	-0.00048731436	220741.05	662812.75	-0.000390625
0	0.6309745	0.6309714	2.0747286e-11	0.06448813	0.06448813	0	88118.32	88117.88	4.050926e-06	662908.3	220452.31	-5.2212254e-05	220456.02	662907.7	0.00010055693
0	0.63083893	0.63083595	-3.3380076e-10	0.06434667	0.06434667	0	88099.38	88098.95	-4.9575618e-05	663002.9	220168.03	-0.00025042542	220171.72	663002.25	-0.00023205446
0	0.63070256	0.63069946	-4.0572468e-10	0.064205244	0.064205244	0	88080.35	88079.91	-5.4012347e-05	663097.8	219882.17	-0.00029006807	219885.88	663097.06	-0.0002823329
0	0.63056606	0.6305629	-3.9097106e-10	0.06406396	0.064063944	0	88061.266	88060.83	-5.2276235e-05	663192.6	219596.03	-0.00022045174	219599.73	663192	-0.0003287438
0	0.630429	0.630426	-2.323696e-10	0.06392251	0.06392251	0	88042.13	88041.7	-2.9513889e-05	663287.56	219309.36	-0.00019821318	219313.06	663286.94	-0.00013149752
0	0.6302916	0.63028854	3.3195655e-11	0.06378106	0.06378107	0	88022.945	88022.516	5.4012344e-06	663382.6	219021.98	-1.5470298e-05	219025.69	663381.94	6.574876e-05
0	0.6301545	0.63015145	-3.1443664e-10	0.06363963	0.06363963	0	88003.8	88003.37	-4.4560184e-05	663477.25	218735.36	-0.00020111386	218739.05	663476.5	-0.00024752476
0	0.63001657	0.6300134	-1.788877e-10	0.0634982	0.0634982	0	87984.52	87984.1	-2.2762346e-05	663572.2	218447.27	-0.00020208076	218450.95	663571.5	-5.8013615e-05
0	0.6298783	0.6298752	-2.8354624e-10	0.06335675	0.06335675	0	87965.23	87964.8	-3.9930557e-05	663667.2	218158.73	-0.00027266398	218162.42	663666.44	-0.00016243813
0	0.62973976	0.62973666	-3.1351452e-10	0.063215286	0.06321528	0	87945.88	87945.445	-4.205247e-05	663762.2	217869.8	-0.00020498144	217873.45	663761.56	-0.00023592202
0	0.62960106	0.62959796	-2.7294206e-10	0.06307402	0.06307402	0	87926.516	87926.08	-4.0316358e-05	663857.1	217580.73	-0.00027556467	217584.4	663856.44	-0.00013923267
0	0.62946194	0.6294589	-4.08491e-10	0.06293259	0.06293259	0	87907.086	87906.65	-5.748457e-05	663951.94	217291.17	-0.00035388305	217294.88	663951.3	-0.00024365718
0	0.62932247	0.62931937	-5.292863e-10	0.062790975	0.06279097	0	87887.61	87887.18	-7.1759256e-05	664046.94	217000.88	-0.0004911819	217004.56	664046.25	-0.0002823329
0	0.6291823	0.62917924	-4.0733836e-10	0.06264971	0.06264971	0	87868.02	87867.6	-6.1535495e-05	664142.25	216709.31	-0.00033551207	216713.02	664141.6	-0.00030553836
0	0.6290428	0.6290397	1.04428e-10	0.06250826	0.06250826	0	87848.555	87848.11	1.4853395e-05	664236.8	216419.38	7.735149e-06	216423.06	664236.25	0.00014696782
0	0.62890166	0.6288985	-1.1434059e-10	0.062366802	0.062366802	0	87828.83	87828.39	-1.6782407e-05	664332.4	216126.22	-0.00010249072	216129.9	664331.75	-6.961633e-05
0	0.6287611	0.6287581	-3.2642394e-10	0.062225346	0.062225346	0	87809.21	87808.78	-4.6489196e-05	664427.2	215834.7	-0.0002552599	215838.44	664426.56	-0.00024365718
0	0.6286202	0.6286171	-3.8175005e-10	0.062084105	0.062084105	0	87789.52	87789.09	-5.4205248e-05	664522.2	215542.4	-0.00026686263	215546.11	664521.5	-0.0002823329
0	0.6284787	0.6284755	-2.6925365e-10	0.06194248	0.061942484	0	87769.766	87769.33	-4.2631174e-05	664617.3	215249.12	-0.0003886912	215252.81	664616.7	-3.0940595e-05
0	0.6283367	0.6283337	-2.434348e-10	0.061801035	0.061801035	0	87749.945	87749.51	-3.5493827e-05	664712.5	214955.23	-0.0002862005	214958.94	664711.9	-5.0278464e-05
0	0.6281949	0.6281918	-1.5860147e-10	0.061659794	0.061659794	0	87730.14	87729.71	-1.890432e-05	664807.44	214661.73	-0.0002107828	214665.44	664806.75	-2.3205446e-05
0	0.6280522	0.6280491	-1.9732974e-10	0.0615183	0.0615183	0	87710.2	87709.77	-2.5848765e-05	664902.6	214366.7	-0.00023302135	214370.4	664902	-5.0278464e-05
0	0.6279097	0.6279066	-3.1904715e-10	0.06137688	0.06137688	0	87690.305	87689.875	-4.243827e-05	664997.6	214072.27	-0.00022045174	214075.95	664996.94	-0.00025139234
0	0.6277659	0.62776285	-6.620689e-10	0.06123543	0.061235435	0	87670.23	87669.8	-9.066358e-05	665093.1	213775.36	-0.0005105198	213779.08	665092.56	-0.00048344678
0	0.6276227	0.6276197	-5.071559e-10	0.06109399	0.061093986	0	87650.23	87649.8	-6.751543e-05	665188.1	213480	-0.00035098236	213483.67	665187.5	-0.00040996287
0	0.627479	0.62747586	-4.020363e-10	0.060952578	0.06095258	0	87630.14	87629.72	-5.7098765e-05	665283.4	213183.53	-0.00028329983	213187.23	665282.75	-0.00034421412
0	0.6273351	0.62733203	-3.3195657e-10	0.060811125	0.06081112	0	87610.05	87609.62	-4.9961418e-05	665378.4	212887	-0.00026009436	212890.7	665377.7	-0.0002397896
0	0.62719035	0.6271874	-4.4283927e-10	0.06066982	0.06066982	0	87589.86	87589.42	-6.1342595e-05	665473.6	212589.3	-0.0003877243	212593	665473	-0.00027459778
0	0.62704545	0.62704235	-1.9917394e-10	0.06052838	0.06052838	0	87569.61	87569.17	-2.7391976e-05	665568.94	212291.05	-0.0001343982	212294.75	665568.3	-0.00015857055
0	0.6269007	0.6268975	-6.3440586e-10	0.060386952	0.060386952	0	87549.375	87548.95	-8.526235e-05	665663.9	211993.22	-0.0005578976	211996.94	665663.3	-0.0003480817
0	0.6267549	0.6267518	-3.7437323e-10	0.06024551	0.06024551	0	87529.02	87528.58	-5.5362656e-05	665759.3	211693.78	-0.00038095607	211697.5	665758.7	-0.00017790841
0	0.62660915	0.62660605	-2.5265584e-10	0.060104065	0.060104065	0	87508.67	87508.25	-3.8194445e-05	665854.44	211394.69	-0.00022915377	211398.39	665853.9	-0.00018177599
0	0.62646306	0.62646	1.9825183e-11	0.05996265	0.05996265	0	87488.27	87487.84	3.8580248e-07	665949.56	211095.02	2.9006807e-05	211098.72	665948.94	-1.1602723e-05
0	0.6263164	0.6263133	-2.840073e-10	0.059821155	0.059821155	0	87467.79	87467.36	-3.915895e-05	666044.8	210794.48	-0.00031230663	210798.19	666044.25	-0.00012376238
0	0.6261693	0.62616616	-3.44866e-10	0.059679903	0.059679903	0	87447.26	87446.82	-4.9382717e-05	666140.25	210493.11	-0.00028910118	210496.81	666139.7	-0.00024752476
0	0.6260221	0.626019	-2.2199595e-10	0.059538443	0.059538443	0	87426.695	87426.266	-3.1828702e-05	666235.5	210191.78	-0.00023108756	210195.48	666234.9	-6.574876e-05
0	0.62587446	0.6258714	-6.473153e-10	0.059396844	0.059396844	0	87406.07	87405.64	-9.0470676e-05	666330.8	209889.73	-0.00039449258	209893.45	666330.1	-0.0005646658
0	0.62572664	0.62572366	-6.17808e-11	0.059255593	0.059255593	0	87385.44	87385.01	-8.294753e-06	666425.94	209587.67	-0.00017404085	209591.38	666425.4	7.7351484e-05
0	0.6255782	0.6255752	-3.1720293e-10	0.059114125	0.059114125	0	87364.7	87364.27	-4.340278e-05	666521.4	209284.5	-8.218595e-05	209288.23	666520.7	-0.00036355198
0	0.62542975	0.62542665	-3.1167033e-10	0.058972687	0.058972694	0	87343.95	87343.53	-4.5717592e-05	666616.5	208981.3	-0.00040996287	208985.02	666615.94	-5.0278464e-05
0	0.6252805	0.62527746	-4.6543075e-10	0.058831237	0.05883123	0	87323.12	87322.7	-6.539352e-05	666711.9	208677.03	-0.00036838645	208680.75	666711.4	-0.00030167078
0	0.6251313	0.6251282	-1.5191623e-10	0.058689967	0.058689967	0	87302.3	87301.87	-1.9675927e-05	666807.1	208373.02	-0.00012182859	208376.72	666806.56	-9.2821785e-05
0	0.62498194	0.62497884	-7.192392e-11	0.058548383	0.058548383	0	87281.414	87280.99	-6.7515434e-06	666902.2	208068.72	-8.121906e-05	208072.44	666901.7	-3.0940595e-05
0	0.62483126	0.6248283	-4.6335602e-11	0.058406927	0.058406927	0	87260.39	87259.96	-1.0416667e-05	666997.9	207762.22	-3.287438e-05	207765.94	666997.4	-5.0278464e-05
0	0.6246811	0.624678	3.2919026e-10	0.05826566	0.05826566	0	87239.41	87238.99	4.4753087e-05	667093.1	207456.75	0.00023785581	207460.45	667092.44	0.0002397896
0	0.6245295	0.6245264	-5.1268845e-10	0.058124155	0.058124155	0	87218.24	87217.81	-7.214506e-05	667188.9	207148.67	-0.00052308943	207152.38	667188.25	-0.00023205446
0	0.624379	0.624376	-7.376813e-12	0.057982776	0.057982776	0	87197.23	87196.8	-3.279321e-06	667283.8	206843.06	9.0887996e-05	206846.77	667283.25	-0.00011602723
0	0.6242278	0.6242247	-4.758044e-10	0.05784131	0.05784131	0	87176.1	87175.67	-6.3271604e-05	667378.94	206536.2	-0.0005027847	206539.92	667378.4	-0.00015857055
0	0.6240758	0.62407273	-3.4094705e-10	0.05769985	0.057699844	0	87154.88	87154.46	-4.6875e-05	667474.3	206228.12	-0.00033551207	206231.86	667473.75	-0.00015083539
0	0.6239235	0.6239205	-3.7621745e-10	0.057558466	0.057558466	0	87133.62	87133.195	-5.787037e-05	667569.7	205919.56	-0.00033261138	205923.27	667569.2	-0.00025139234
0	0.62377095	0.6237679	-2.2499277e-10	0.057416998	0.057416998	0	87112.305	87111.89	-3.0478395e-05	667665.06	205610.6	-0.00020304765	205614.31	667664.5	-9.2821785e-05
0	0.62361795	0.62361485	-2.3052539e-10	0.057275698	0.057275694	0	87090.94	87090.516	-3.452932e-05	667760.5	205300.98	-0.00019724629	205304.7	667759.9	-0.00017790841
0	0.62346447	0.62346137	-6.454711e-11	0.057134222	0.057134222	0	87069.51	87069.07	-8.101852e-06	667855.8	204990.62	-0.00010345761	204994.33	667855.25	3.8675744e-06
0	0.6233112	0.6233081	1.6597827e-11	0.056992855	0.056992855	0	87048.1	87047.67	7.1373456e-06	667950.9	204680.97	1.9337872e-06	204684.7	667950.4	7.7351484e-05
0	0.6231567	0.62315375	-2.7478628e-10	0.056851387	0.056851387	0	87026.53	87026.1	-3.5879628e-05	668046.44	204369.27	-0.00021465037	204372.97	668045.94	-0.00018177599
0	0.6230027	0.62299967	-5.883008e-10	0.05670992	0.05670992	0	87005.02	87004.59	-8.2368824e-05	668141.6	204058.52	-0.0005366259	204062.22	668141	-0.00032100867
0	0.62284756	0.6228446	1.9594657e-11	0.05656855	0.05656855	0	86983.35	86982.94	2.507716e-06	668237.06	203745.84	-3.9642637e-05	203749.55	668236.56	5.0278464e-05
0	0.6226919	0.6226889	-3.9281525e-10	0.056427028	0.056427028	0	86961.62	86961.2	-5.613426e-05	668332.7	203432.3	-0.00035775063	203436.05	668332.1	-0.00026299505
0	0.62253743	0.6225344	-1.6597829e-10	0.056285765	0.056285765	0	86940.05	86939.625	-2.4305555e-05	668427.5	203121.25	-0.00020208076	203124.95	668426.9	3.8675744e-06
0	0.6223806	0.6223775	-4.748823e-11	0.05614429	0.056144286	0	86918.15	86917.73	-6.558642e-06	668523.25	202805.89	-4.2543317e-05	202809.6	668522.8	-2.3205446e-05
0	0.6222246	0.6222217	-5.883008e-10	0.056002725	0.056002725	0	86896.38	86895.95	-7.947531e-05	668618.44	202492.47	-0.00045637376	202496.17	668617.94	-0.00042543316
0	0.6220675	0.62206453	-4.0872153e-10	0.055861462	0.055861462	0	86874.41	86874	-5.5941357e-05	668714.06	202176.7	-0.00022721999	202180.44	668713.56	-0.00036741956
0	0.621911	0.62190807	-3.7621745e-10	0.05571998	0.055719987	0	86852.555	86852.14	-5.9220678e-05	668809	201862.61	-0.00039352567	201866.33	668808.56	-0.00020884901
0	0.6217537	0.6217507	-3.042935e-10	0.055578638	0.055578638	0	86830.59	86830.17	-4.340278e-05	668904.44	201547.11	-0.00035484994	201550.81	668903.8	-0.00013149752
0	0.62159604	0.6215931	-1.579099e-10	0.055437114	0.055437114	0	86808.57	86808.16	-2.2762346e-05	668999.6	201231.19	-9.378867e-05	201234.9	668999.1	-0.00013923267
0	0.62143767	0.6214346	-8.471808e-11	0.055295844	0.055295844	0	86786.45	86786.04	-1.3117284e-05	669095.06	200913.98	-8.411974e-05	200917.67	669094.5	-5.8013615e-05
0	0.621279	0.621276	-3.2457975e-10	0.055154365	0.05515437	0	86764.3	86763.875	-4.4560184e-05	669190.4	200596.39	-0.0002552599	200600.11	669189.94	-0.00019724629
0	0.6211202	0.6211172	-2.6049368e-10	0.055012804	0.055012804	0	86742.125	86741.7	-3.7037036e-05	669285.6	200278.9	-0.00028426672	200282.61	669285.1	-0.00010829208
0	0.62096053	0.62095755	-5.010469e-10	0.05487153	0.05487153	0	86719.82	86719.4	-7.407407e-05	669381.2	199959.84	-0.00040319463	199963.55	669380.7	-0.00033647896
0	0.6208011	0.620798	-2.3847851e-10	0.054730058	0.054730058	0	86697.55	86697.14	-3.5493827e-05	669476.4	199641.4	-0.0002252862	199645.16	669475.9	-0.0001353651
0	0.6206411	0.620638	-3.1351453e-11	0.054588675	0.054588675	0	86675.2	86674.78	-5.015432e-06	669571.56	199322.19	-5.124536e-05	199325.88	669571.1	-3.8675744e-06
0	0.6204806	0.6204776	-5.6686195e-10	0.05444718	0.05444718	0	86652.8	86652.375	-7.696759e-05	669666.9	199002.23	-0.00045734065	199005.97	669666.44	-0.00036741956
0	0.62031937	0.62031645	-1.6828354e-10	0.05430593	0.05430593	0	86630.27	86629.86	-2.0254629e-05	669762.44	198681.08	-1.0635829e-05	198684.78	669761.8	-0.0002397896
0	0.6201584	0.6201554	-1.8257611e-10	0.054164376	0.054164376	0	86607.8	86607.38	-2.5462963e-05	669857.44	198360.5	-0.00021561727	198364.2	669856.94	-6.961633e-05
0	0.6199969	0.6199939	-4.5863027e-10	0.05402288	0.05402288	0	86585.25	86584.83	-5.8449074e-05	669952.6	198039.36	-0.00027653156	198043.06	669952.1	-0.00039836013
0	0.61983466	0.61983156	-2.7109787e-10	0.05388161	0.05388161	0	86562.586	86562.18	-3.780864e-05	670048	197716.8	-0.00016050434	197720.5	670047.56	-0.00021271658
0	0.6196722	0.6196692	-2.1577176e-10	0.053740077	0.053740077	0	86539.91	86539.48	-3.0864197e-05	670143.4	197394.06	-0.00028039914	197397.78	670142.9	-4.6410893e-05
0	0.6195097	0.61950666	-2.0839495e-10	0.053598747	0.053598747	0	86517.2	86516.79	-2.8935185e-05	670238.4	197071.47	-0.00016340501	197075.19	670237.94	-0.00015470297
0	0.61934626	0.6193433	-2.2810487e-10	0.05345726	0.053457268	0	86494.38	86493.97	-3.2407406e-05	670333.75	196747.42	-0.00026589574	196751.11	670333.2	-0.00010829208
0	0.6191828	0.61917984	1.04428e-10	0.053315774	0.053315774	0	86471.555	86471.13	1.3117284e-05	670428.8	196423.39	5.704672e-05	196427.1	670428.4	0.00011602723
0	0.61901873	0.61901575	-1.217174e-10	0.053174455	0.053174455	0	86448.65	86448.23	-1.4467592e-05	670524.06	196098.45	-4.4477103e-05	196102.14	670523.7	-0.00012376238
0	0.61885214	0.6188492	-2.895399e-10	0.05303296	0.05303297	0	86425.38	86424.97	-3.761574e-05	670620.5	195768.84	0.00015760364	195772.56	670620.06	-0.0005066522
0	0.6186897	0.61868674	-4.075689e-10	0.052891646	0.052891646	0	86402.69	86402.266	-5.8063273e-05	670714.5	195447.27	-0.00033261138	195451	670714.06	-0.00030553836
0	0.6185245	0.6185215	-4.5551818e-10	0.05275014	0.05275014	0	86379.62	86379.21	-6.674383e-05	670809.7	195120.92	-0.00040996287	195124.62	670809.2	-0.00027459778
0	0.61835915	0.61835617	-1.6597829e-10	0.052608833	0.052608833	0	86356.516	86356.11	-2.5848765e-05	670904.7	194794.36	-8.121906e-05	194798.06	670904.2	-0.00017017327
0	0.6181923	0.6181894	-2.950725e-10	0.052467346	0.05246734	0	86333.234	86332.81	-3.761574e-05	671000.2	194465.33	-0.00020014697	194469.03	670999.8	-0.00021658416
0	0.6180266	0.61802363	-2.0470654e-10	0.05232584	0.052325834	0	86310.09	86309.68	-2.8356482e-05	671095	194138.6	-0.00024752476	194142.33	671094.56	-6.188119e-05
0	0.61785924	0.6178562	-1.2909422e-10	0.052184533	0.052184533	0	86286.72	86286.3	-2.0833333e-05	671190.44	193808.75	-0.00015276918	193812.44	671190.06	-8.5086634e-05
0	0.6176906	0.61768764	8.962827e-10	0.052042995	0.052042995	0	86263.164	86262.74	0.00012770062	671286.4	193476.78	0.00011215965	193480.5	671285.94	0.0012182859
0	0.617525	0.617522	-2.6556524e-10	0.05190171	0.05190171	0	86240.03	86239.625	-3.5108023e-05	671380.4	193150.92	-0.0002562268	193154.6	671380	-0.00010829208
0	0.6173571	0.61735415	-2.932283e-10	0.051760204	0.05176021	0	86216.58	86216.164	-3.8001544e-05	671475.3	192820.81	-0.0002862005	192824.52	671474.94	-0.0001198948
0	0.61718816	0.6171852	-4.816828e-10	0.051618695	0.051618695	0	86192.99	86192.586	-6.404321e-05	671570.75	192488.98	-0.00042833385	192492.69	671570.3	-0.0002823329
0	0.6170191	0.6170162	-3.4302178e-10	0.051477417	0.051477417	0	86169.38	86168.984	-4.533179e-05	671665.9	192157.22	-0.00036935334	192160.92	671665.5	-0.00012376238
0	0.61685044	0.61684746	-6.3256167e-10	0.05133591	0.05133591	0	86145.83	86145.42	-8.584105e-05	671760.6	191826.22	-0.00050568534	191829.92	671760.25	-0.00040996287
0	0.61668056	0.61667764	-2.1946017e-10	0.05119457	0.05119457	0	86122.1	86121.71	-3.1828702e-05	671855.75	191493.42	-0.0002533261	191497.11	671855.3	-6.574876e-05
0	0.6165107	0.61650777	-1.733551e-10	0.051053066	0.051053066	0	86098.375	86097.97	-2.5848765e-05	671950.7	191160.6	-0.0002968363	191164.3	671950.3	1.9337871e-05
0	0.61634034	0.61633736	-2.561137e-10	0.050911784	0.050911784	0	86074.59	86074.18	-3.858025e-05	672045.5	190827.19	-0.00028716738	190830.9	672045.1	-0.00011602723
0	0.6161696	0.61616665	-2.7294206e-10	0.05077028	0.05077028	0	86050.75	86050.336	-3.8001544e-05	672140.5	190493.2	-0.00020691523	190496.9	672140.06	-0.00019724629
0	0.61599827	0.61599535	-1.217174e-10	0.05062878	0.05062878	0	86026.82	86026.414	-1.8325618e-05	672235.3	190158.52	-0.00020594832	190162.22	672234.94	2.707302e-05
0	0.61582625	0.61582327	-1.733551e-10	0.050487492	0.050487492	0	86002.805	86002.38	-2.4691359e-05	672330.4	189822.58	-0.00019337871	189826.27	672330.06	-8.121906e-05
0	0.6156542	0.61565125	5.1637687e-11	0.05034593	0.05034593	0	85978.766	85978.36	7.716049e-06	672425.3	189486.8	0.00012569617	189490.48	672424.94	-2.3205446e-05
0	0.6154818	0.6154789	-1.5122466e-10	0.050204653	0.050204657	0	85954.695	85954.29	-2.2569444e-05	672520.06	189150.73	-0.00017114016	189154.45	672519.7	-5.414604e-05
0	0.6153087	0.61530584	-1.4200364e-10	0.050063137	0.05006314	0	85930.53	85930.125	-1.8132716e-05	672615.06	188813.61	-0.00013923267	188817.3	672614.6	-3.8675742e-05
0	0.6151344	0.6151315	-3.6791853e-10	0.049921636	0.049921636	0	85906.19	85905.77	-4.7453705e-05	672710.25	188474.28	-0.00023495514	188477.98	672709.9	-0.0002862005
0	0.6149617	0.61495876	-5.1637687e-11	0.049780358	0.049780358	0	85882.055	85881.66	-8.101852e-06	672804.56	188138.12	8.702042e-06	188141.83	672804.1	-6.961633e-05
0	0.61478746	0.6147846	-2.471232e-10	0.04963884	0.04963884	0	85857.72	85857.32	-3.4915123e-05	672899.3	187799.52	-0.00017790841	187803.19	672898.94	-0.00017017327
0	0.6146125	0.6146096	-2.6740946e-10	0.049497515	0.049497515	0	85833.3	85832.89	-3.722994e-05	672994.2	187459.61	-0.00021368348	187463.31	672993.8	-0.00017017327
0	0.61443764	0.6144348	-2.5634422e-10	0.049356006	0.04935601	0	85808.88	85808.48	-3.395062e-05	673088.8	187120.31	-0.00019241183	187124.02	673088.44	-0.00018564357
0	0.61426145	0.6142586	-2.840073e-10	0.049214717	0.04921472	0	85784.27	85783.86	-3.9351853e-05	673183.94	186778.48	-0.00027556467	186782.19	673183.56	-0.00013923267
0	0.6140861	0.61408323	-2.0101815e-10	0.049073216	0.049073216	0	85759.78	85759.375	-3.279321e-05	673278.3	186438.61	-0.00032584314	186442.3	673277.94	1.9337871e-05
0	0.61390996	0.61390716	-2.6187685e-10	0.048931714	0.048931714	0	85735.19	85734.78	-3.9737653e-05	673372.8	186097.47	-0.00010055693	186101.17	673372.44	-0.00029393565
0	0.6137327	0.61372983	-4.0572468e-10	0.048790433	0.048790433	0	85710.42	85710.016	-6.26929e-05	673467.7	185754.39	-0.00034324723	185758.06	673467.3	-0.00029393565
0	0.61355513	0.6135522	-4.7718757e-10	0.048648864	0.048648864	0	85685.625	85685.21	-6.558642e-05	673562.44	185411.06	-0.00038192296	185414.75	673562.06	-0.0003171411
0	0.613378	0.61337507	-1.6228988e-10	0.048507594	0.048507594	0	85660.88	85660.47	-1.9290124e-05	673656.75	185068.64	-0.00013923267	185072.33	673656.44	-7.7351484e-05
0	0.613199	0.61319613	-9.811161e-10	0.048366074	0.048366077	0	85635.89	85635.49	-0.00013580247	673751.75	184723.2	-0.0010365099	184726.84	673751.44	-0.00042930074
0	0.6130213	0.6130184	-2.840073e-10	0.048224572	0.048224572	0	85611.08	85610.664	-3.8387345e-05	673845.8	184380.31	-0.0004215656	184384	673845.5	0
0	0.61284226	0.6128394	-5.8276817e-10	0.048083298	0.048083298	0	85586.07	85585.67	-8.487654e-05	673940.3	184035.16	-0.0005607983	184038.84	673939.94	-0.00031327351
0	0.612663	0.6126601	-9.036595e-11	0.047941785	0.04794178	0	85561.04	85560.63	-8.101852e-06	674034.7	183689.75	-0.00023108756	183693.42	674034.44	0.00014310025
0	0.6124827	0.6124798	-5.004706e-10	0.047800448	0.047800448	0	85535.86	85535.45	-7.040895e-05	674129.4	183342.77	-0.00036693612	183346.44	674129.06	-0.00039449258
0	0.61230206	0.61229926	-4.4814136e-10	0.047658946	0.047658946	0	85510.625	85510.234	-6.0378086e-05	674223.94	182995.27	-0.000299737	182998.94	674223.56	-0.0003596844
0	0.6121222	0.61211944	-3.0244932e-10	0.047517657	0.047517657	0	85485.516	85485.11	-4.2824075e-05	674317.9	182649.5	-0.00031230663	182653.2	674317.56	-0.00010829208
0	0.6119402	0.6119374	-3.4302178e-10	0.047376156	0.047376156	0	85460.1	85459.7	-5.304784e-05	674412.56	182300.12	-0.0003504989	182303.8	674412.25	-0.00020111386
0	0.611759	0.6117561	-2.1946017e-10	0.047234654	0.047234654	0	85434.79	85434.39	-2.662037e-05	674506.7	181952.22	-0.00012666306	181955.88	674506.4	-0.00017404085
0	0.6115766	0.61157376	-3.2273553e-10	0.047093365	0.047093365	0	85409.33	85408.92	-4.5138888e-05	674601.2	181602.5	-0.00024655787	181606.17	674600.75	-0.00022818688
0	0.61139417	0.6113913	-3.0982614e-10	0.0469518	0.0469518	0	85383.83	85383.445	-4.4367283e-05	674695.4	181252.84	-0.00010152382	181256.5	674695	-0.00035581682
0	0.6112113	0.6112086	-5.106137e-10	0.046810526	0.046810526	0	85358.31	85357.914	-7.040895e-05	674789.4	180902.81	-0.00034711478	180906.5	674789.06	-0.00038288985
0	0.6110284	0.61102563	-5.1084426e-10	0.04666901	0.04666901	0	85332.766	85332.37	-7.638889e-05	674883.3	180552.81	-0.00053952663	180556.45	674883.06	-0.00021658416
0	0.6108437	0.61084086	-2.468927e-10	0.04652774	0.04652774	0	85306.95	85306.57	-3.8194445e-05	674977.8	180199.64	-0.0002107828	180203.31	674977.56	-0.00020498144
0	0.6106597	0.610657	-2.0839495e-10	0.04638624	0.04638624	0	85281.27	85280.875	-2.8935185e-05	675071.8	179848.2	-2.417234e-05	179851.84	675071.56	-0.0002862005
0	0.6104749	0.61047214	-1.9179712e-10	0.04624473	0.04624473	0	85255.47	85255.06	-2.5270061e-05	675165.9	179495.33	-0.00011022587	179499.02	675165.56	-0.00017404085
0	0.6102898	0.61028695	-4.9874166e-10	0.046103444	0.046103444	0	85229.6	85229.21	-6.712963e-05	675259.8	179142.17	-0.0005835203	179145.86	675259.5	-0.00017404085
0	0.6101039	0.61010116	-6.0512914e-11	0.045961883	0.045961883	0	85203.66	85203.26	-5.2083333e-06	675353.9	178787.98	1.8370978e-05	178791.66	675353.6	-9.668936e-05
0	0.6099176	0.6099148	-5.212755e-10	0.04582059	0.04582059	0	85177.625	85177.234	-7.195216e-05	675447.94	178433	-0.0004950495	178436.69	675447.6	-0.00029780323
0	0.6097312	0.6097284	-4.4814136e-10	0.045679096	0.045679096	0	85151.6	85151.21	-6.3657404e-05	675541.75	178078.33	-0.0003567837	178082	675541.5	-0.00032100867
0	0.60954416	0.60954136	-3.559312e-10	0.0455376	0.0455376	0	85125.48	85125.086	-4.70679e-05	675635.56	177722.58	-0.00036741956	177726.22	675635.3	-0.00014696782
0	0.60935664	0.60935384	-4.58515e-10	0.0453963	0.0453963	0	85099.29	85098.89	-6.1921295e-05	675729.44	177366.23	-0.00033309482	177369.9	675729.2	-0.00034421412
0	0.60916823	0.60916543	-3.1167033e-10	0.04525481	0.04525481	0	85072.97	85072.57	-4.6875e-05	675823.4	177008.42	-0.00025139234	177012.08	675823.1	-0.0002243193
0	0.60898006	0.60897726	-3.1535874e-10	0.045113456	0.045113456	0	85046.7	85046.31	-4.4560184e-05	675917	176651.47	-0.00032681003	176655.11	675916.75	-0.00015857055
0	0.60879093	0.60878813	-3.0798192e-10	0.04497195	0.04497195	0	85020.29	85019.89	-4.1666666e-05	676010.7	176292.9	-0.00037902227	176296.56	676010.44	-4.6410893e-05