//mumax 3.10 [windows_amd64 go1.11.6(gc) CUDA-11.0]
//GPU info: NVIDIA GeForce RTX 3090(24575MB), CUDA Driver 12.1, cc=8.6, using cc=80 PTX
//(c) Arne Vansteenkiste, Dynamat LAB, Ghent University, Belgium
//This is free software without any warranty. See license.txt
//********************************************************************//
//  If you use mumax in any work or publication,                      //
//  we kindly ask you to cite the references in references.bib        //
//********************************************************************//
//output directory: r1;p0.8;a3.4000000000000003e-07;l1.8000000000000002e-07;s6.out/
randSeed(6)
ThermSeed(6)
resolution := 2e-09
zResolution := 5e-09
a := 3.4000000000000003e-07
gridSize := 340
gridDepth := 5
SetCellsize(resolution, resolution, zResolution)
SetGridsize(gridSize, gridSize, gridDepth)
SetPBC(16, 16, 0)
//resizing...
Msat = 700e3
Aex = 13e-12
alpha = 0.2
Bmax := 0.1
Bstep := Bmax / 500.0
TableAdd(B_ext)
TableAdd(m_full)
islandWidth := 8e-08
islandLength := 1.8000000000000002e-07
ellipseConstant := 7.200000000000001e-08
hIsland := Universe().Inverse()
vIsland := Universe().Inverse()
vIslands := Universe().Inverse()
hIslands := Universe().Inverse()
hIsland = rect(islandLength-2*ellipseConstant, islandWidth)
hIsland = hIsland.add(ellipse(ellipseConstant*2, islandWidth).transl(islandLength/2-ellipseConstant, 0, 0))
hIsland = hIsland.add(ellipse(ellipseConstant*2, islandWidth).transl(-islandLength/2+ellipseConstant, 0, 0))
hIsland = hIsland.add(rect(2.1888739397539434e-09, 5.525861127483327e-10).transl(7.16256668628715e-08, -2.6691469099489255e-08, 0))
hIsland = hIsland.sub(rect(6.621799566909938e-09, -4.278306934272543e-09).transl(3.0519349880572016e-09, -4e-08, 0))
hIsland = hIsland.sub(rect(3.851267241819727e-09, -4.0238266482227936e-10).transl(3.3691797215394245e-08, -3.9038472240360574e-08, 0))
hIsland = hIsland.sub(rect(2.7974167402717445e-09, -4.776720823607782e-09).transl(5.604462146156972e-08, -3.395988364034849e-08, 0))
hIsland = hIsland.add(rect(3.1221242109925335e-09, 7.587576100172522e-10).transl(4.5178668582677164e-08, -3.7040684897513046e-08, 0))
hIsland = hIsland.sub(rect(9.556902195447955e-09, -1.6000383585803297e-09).transl(-4.737919948577314e-08, -3.651848271079321e-08, 0))
hIsland = hIsland.add(rect(3.6331510719623355e-09, 1.8417847610471562e-09).transl(-5.0683557872858856e-08, -3.5641324697098995e-08, 0))
hIsland = hIsland.add(rect(2.1510413378900515e-09, 3.1755578696453504e-09).transl(4.51163800881419e-08, -3.705477231770701e-08, 0))
hIsland = hIsland.sub(rect(4.986982333991045e-09, -9.701809491896016e-10).transl(-3.62017589895578e-08, -3.870071923952046e-08, 0))
hIsland = hIsland.sub(rect(9.906741468213973e-09, -4.361343760972688e-11).transl(-2.8994632572582418e-08, -3.953088359233465e-08, 0))
hIsland = hIsland.add(rect(8.603047937295284e-09, 3.3235123372947607e-09).transl(-3.966127750189948e-08, -3.814684531795043e-08, 0))
hIsland = hIsland.add(rect(2.7804488660796445e-09, 1.5695519743981842e-09).transl(-5.146516732615381e-08, -3.5416754142953095e-08, 0))
hIsland = hIsland.add(rect(3.507682262470658e-09, 4.158974117906487e-09).transl(2.6353447604852322e-08, -3.9729874605213444e-08, 0))
hIsland = hIsland.add(rect(8.02442989191955e-09, 1.4608824526695316e-09).transl(-2.3353606323515405e-08, -3.988927150595208e-08, 0))
hIsland = hIsland.add(rect(3.240534688388654e-09, 2.480080606662342e-10).transl(-5.100609652806716e-09, -4e-08, 0))
hIsland = hIsland.add(rect(6.0192321292372285e-09, 1.6504229095872672e-09).transl(3.2319473460012326e-08, -3.920094118857826e-08, 0))
hIsland = hIsland.sub(rect(4.269015074162743e-09, -8.562554808614847e-10).transl(9.925144360473384e-09, -4e-08, 0))
hIsland = hIsland.add(rect(2.198326321193517e-09, 1.3851790023389198e-09).transl(4.1567428759507585e-08, -3.77964671975149e-08, 0))
hIsland = hIsland.add(rect(9.058315609155944e-09, 2.0019104210735596e-09).transl(-5.602120590622508e-08, -3.396797648328894e-08, 0))
hIsland = hIsland.add(rect(4.017538513421094e-09, 1.498967947525194e-09).transl(-7.89697911780826e-08, -2.1276287761152585e-08, 0))
hIsland = hIsland.sub(rect(5.546515949509669e-09, -1.8551606155414809e-09).transl(5.495307648976373e-08, -3.4329872793696456e-08, 0))
hIsland = hIsland.sub(rect(6.5853747866375625e-09, -6.903998260214279e-10).transl(3.256192737931657e-08, -3.9173365349145416e-08, 0))
hIsland = hIsland.sub(rect(4.604871688114407e-09, -1.723135064433483e-09).transl(-7.475978725840845e-08, -2.461008619875076e-08, 0))
hIsland = hIsland.add(rect(2.2976210988295114e-09, 2.3388359523119844e-10).transl(-5.815828103818626e-08, -3.320025501937071e-08, 0))
hIsland = hIsland.sub(rect(5.639164811327307e-09, -2.163324635558774e-09).transl(4.784257962832054e-08, -3.640233187283537e-08, 0))
hIsland = hIsland.sub(rect(6.17266431363212e-09, -1.6452260176054455e-09).transl(1.515014386891913e-08, -4e-08, 0))
hIsland = hIsland.sub(rect(6.851092093368339e-09, -4.869094179035095e-10).transl(6.065163442221665e-08, -3.2226235770698344e-08, 0))
hIsland = hIsland.sub(rect(6.031998675312296e-09, -2.9391027454221215e-10).transl(-7.096588973157003e-08, -2.7095023260301615e-08, 0))
hIsland = hIsland.sub(rect(5.25673056071718e-09, -3.7252244692475603e-10).transl(-1.9488716283001568e-08, -3.99914486377359e-08, 0))
hIsland = hIsland.add(rect(7.024176858810503e-09, 3.4338662447901844e-10).transl(-8.565534113712243e-10, -4e-08, 0))
hIsland = hIsland.sub(rect(3.695570276386068e-09, -1.0105891280883812e-09).transl(-4.3656435721096016e-08, -3.737426371581328e-08, 0))
hIsland = hIsland.add(rect(9.427282527736929e-09, 2.568379762157704e-10).transl(-5.4966339464518284e-08, -3.432546541722718e-08, 0))
hIsland = hIsland.add(rect(6.320524496199908e-09, 8.911452122025845e-10).transl(-7.115427232326402e-08, -2.6980922236799793e-08, 0))
hIsland = hIsland.add(rect(5.619073350036911e-09, 8.720981283029735e-10).transl(-8.514462659434964e-08, -1.4440160898027157e-08, 0))
hIsland = hIsland.sub(rect(3.3493931197045087e-09, -4.581960654941422e-09).transl(1.0484962088995011e-08, -4e-08, 0))
hIsland = hIsland.sub(rect(5.511532319765438e-09, -2.235721693238381e-10).transl(-2.4007819891921952e-08, -3.986050560959481e-08, 0))
hIsland = hIsland.add(rect(7.909128613867098e-09, 9.798429311537985e-10).transl(-6.648993321504814e-08, -2.956853504055447e-08, 0))
hIsland = hIsland.add(rect(6.066922826858407e-09, 2.1121852095099297e-09).transl(-8.385500835629203e-09, -4e-08, 0))
hIsland = hIsland.add(rect(5.417515895452267e-09, 9.1354743234591e-10).transl(7.670167128528357e-08, -2.3161495481435965e-08, 0))
hIsland = hIsland.sub(rect(6.26151887086515e-09, -2.4680247698060277e-09).transl(-6.700599285854632e-08, -2.930476651885704e-08, 0))
hIsland = hIsland.sub(rect(3.2178237285940724e-09, -1.6070496575530507e-09).transl(-4.453998201710136e-08, -3.718335182085275e-08, 0))
hIsland = hIsland.sub(rect(4.375063176858546e-09, -4.757018849166666e-09).transl(1.3464393036264554e-08, -4e-08, 0))
hIsland = hIsland.add(rect(7.896665206282267e-09, 1.1888779518720074e-09).transl(8.574547282911846e-08, -1.3546341485497862e-08, 0))
hIsland = hIsland.add(rect(2.7137639130178553e-09, 2.4854357913369064e-09).transl(1.432296717783449e-08, -4e-08, 0))
hIsland = hIsland.add(rect(6.692014610804294e-09, 3.224104223734519e-09).transl(-5.2531359423085176e-08, -3.509944081891515e-08, 0))
hIsland = hIsland.add(rect(5.355498875450202e-09, 1.256138402743953e-09).transl(-5.799399310765317e-08, -3.32614062646045e-08, 0))
hIsland = hIsland.sub(rect(6.457045984796103e-09, -6.285963261009644e-10).transl(-8.798061366826229e-08, -9.407012596557814e-09, 0))
hIsland = hIsland.add(rect(8.015396417601462e-09, 2.5222877537210113e-09).transl(-3.3016400513293063e-08, -3.912037341250014e-08, 0))
hIsland = hIsland.sub(rect(4.6382929755333076e-09, -1.4611977373685213e-09).transl(3.5533415799097395e-08, -3.8795838401674955e-08, 0))
hIsland = hIsland.add(rect(9.424940901460814e-09, 2.5399907954971152e-09).transl(-7.616978841989038e-08, -2.3572031156328785e-08, 0))
hIsland = hIsland.add(rect(4.519474069992339e-09, 3.234210710555939e-09).transl(-5.123285912564975e-09, -4e-08, 0))
hIsland = hIsland.add(rect(4.203159973430589e-09, 7.740868816001026e-10).transl(-2.065583425527359e-08, -3.9972778331428155e-08, 0))
hIsland = hIsland.add(rect(5.837638368909169e-09, 1.4827712820488267e-09).transl(6.697154531462622e-08, -2.9322534573183276e-08, 0))
hIsland = hIsland.sub(rect(5.762636118151348e-09, -1.0861712801250682e-09).transl(4.968773036667814e-08, -3.591780630747037e-08, 0))
hIsland = hIsland.add(rect(8.384281855538393e-09, 8.588006080212447e-10).transl(-7.719198005128575e-08, -2.2773099096777842e-08, 0))
hIsland = hIsland.add(rect(2.4564210814070143e-09, 2.2254728558198942e-10).transl(-7.289873391254946e-08, -2.5880357528484597e-08, 0))
hIsland = hIsland.add(rect(8.625277762011873e-09, 5.033097201057596e-10).transl(2.48239734911233e-08, -3.9819939580661665e-08, 0))
hIsland = hIsland.add(rect(6.302100314524624e-09, 7.244135050913491e-10).transl(-6.36080689748108e-08, -3.095149552814328e-08, 0))
hIsland = hIsland.sub(rect(4.737069315335081e-09, -1.8674358039408793e-09).transl(-6.739988414642527e-08, -2.909993130491108e-08, 0))
hIsland = hIsland.add(rect(2.367650941408859e-09, 4.0555394823768217e-10).transl(-4.965903554087823e-08, -3.5925615318241415e-08, 0))
hIsland = hIsland.add(rect(6.7776605048490565e-09, 5.721949814959257e-10).transl(-3.6072885290822954e-09, -4e-08, 0))
hIsland = hIsland.sub(rect(6.084970667475808e-09, -4.522052522069314e-09).transl(-6.306466825181227e-08, -3.119619157744182e-08, 0))
hIsland = hIsland.sub(rect(5.603659489068214e-09, -5.567096086675544e-10).transl(-6.435550210898228e-08, -3.0606863106254146e-08, 0))
hIsland = hIsland.sub(rect(4.514160316845834e-09, -1.2839185259883993e-09).transl(5.813615479794846e-08, -3.320851202626359e-08, 0))
hIsland = hIsland.add(rect(7.551672482359148e-09, 2.142134016672798e-09).transl(-7.573529023695171e-08, -2.3899456714568377e-08, 0))
hIsland = hIsland.add(rect(5.664889334473617e-09, 2.1548041122270005e-09).transl(-1.9408197214699225e-08, -3.99923487304347e-08, 0))
hIsland = hIsland.add(rect(4.063577409978015e-09, 1.8632141669627938e-09).transl(8.580913437292903e-08, -1.3447672885951243e-08, 0))
hIsland = hIsland.add(rect(8.840375129921631e-09, 3.74970727789581e-09).transl(-3.9949191461472146e-08, -3.809601658556368e-08, 0))
hIsland = hIsland.sub(rect(2.995661147840199e-09, -1.0468593204426712e-09).transl(8.947355115091463e-08, -4.828269565719889e-09, 0))
hIsland = hIsland.add(rect(2.1492596776170923e-09, 7.182745060467706e-10).transl(-5.752329389598434e-08, -3.343461114028934e-08, 0))
hIsland = hIsland.sub(rect(9.500686973356057e-09, -1.5389553311539001e-09).transl(-1.0061867630407667e-08, -4e-08, 0))
hIsland = hIsland.add(rect(6.803009651172488e-09, 3.8322230820350283e-10).transl(1.9327448558743823e-08, -3.999320112097099e-08, 0))
hIsland = hIsland.sub(rect(4.219434530377364e-09, -6.688050946097696e-10).transl(2.6536772644304043e-08, -3.9717845574036914e-08, 0))
hIsland = hIsland.add(rect(7.883185378399237e-09, 7.442886911490546e-10).transl(-1.266465947576481e-08, -4e-08, 0))
hIsland = hIsland.add(rect(5.842149800649216e-09, 1.2685125871776372e-09).transl(-3.5597187232701975e-08, -3.87869258609916e-08, 0))
hIsland = hIsland.add(rect(5.428651897841194e-09, 4.105421773467403e-09).transl(-2.3358443820979334e-08, -3.988907102951842e-08, 0))
hIsland = hIsland.add(rect(2.6351458659135648e-09, 5.574166803970674e-10).transl(-2.4653087081056805e-08, -3.982886396858887e-08, 0))
hIsland = hIsland.sub(rect(2.8320241335358682e-09, -3.5196690850199368e-09).transl(-6.082237365384796e-08, -3.215627501810796e-08, 0))
hIsland = hIsland.sub(rect(2.0717125775742374e-09, -2.893927542484496e-09).transl(-2.3592676207341285e-08, -3.9879146027886935e-08, 0))
hIsland = hIsland.add(rect(9.615803759248615e-09, 3.30761235062276e-09).transl(3.3495952979545914e-08, -3.906260976776954e-08, 0))
hIsland = hIsland.add(rect(9.921231880388912e-09, 1.9611121016803454e-09).transl(-1.5172725188936702e-08, -4e-08, 0))
hIsland = hIsland.add(rect(3.4693671953130337e-09, 1.6748120650131775e-09).transl(1.7667963240612012e-08, -4e-08, 0))
hIsland = hIsland.sub(rect(2.2821795051478865e-09, -5.108874445126321e-09).transl(-6.802626300893247e-08, -2.876776428832266e-08, 0))
hIsland = hIsland.add(rect(5.8162391248561826e-09, 3.236242561073964e-09).transl(-8.23343141821377e-08, -1.7959969365315907e-08, 0))
hIsland = hIsland.sub(rect(8.926234994263379e-09, -1.938075904472926e-11).transl(4.123926076568722e-08, -3.785913119085073e-08, 0))
hIsland = hIsland.sub(rect(8.950296711201995e-09, -1.0897977896484347e-10).transl(7.307531943176875e-08, -2.5764299574376576e-08, 0))
hIsland = hIsland.sub(rect(6.417548891219044e-09, -3.2820238771887495e-09).transl(-7.81902439585573e-08, -2.1950663902115332e-08, 0))
hIsland = hIsland.sub(rect(6.66600894838873e-09, -6.189646937012291e-11).transl(-2.5859520208158135e-08, -3.976096766968969e-08, 0))
hIsland = hIsland.sub(rect(4.669687921485136e-09, -7.45780804387884e-10).transl(-7.426371574047854e-08, -2.4959190711017842e-08, 0))
hIsland = hIsland.add(rect(9.33502636061838e-09, 5.47701204436935e-10).transl(-4.296651514884385e-08, -3.7518197729928636e-08, 0))
hIsland = hIsland.add(rect(4.528122603159381e-09, 3.873205816417144e-09).transl(-8.646774136883143e-08, -1.2374909799531722e-08, 0))
hIsland = hIsland.add(rect(3.290020651342026e-09, 1.228128051499589e-09).transl(-4.71096596245727e-08, -3.6585042635093114e-08, 0))
hIsland = hIsland.sub(rect(9.395500844420611e-09, -2.1642683058978853e-09).transl(-4.380141705199552e-08, -3.734344637377056e-08, 0))
hIsland = hIsland.sub(rect(6.946124803762668e-09, -1.8481172345379886e-09).transl(-9.826081649222962e-09, -4e-08, 0))
hIsland = hIsland.add(rect(8.071349489732097e-09, 4.212301452440674e-11).transl(4.568753838086553e-08, -3.692418081878462e-08, 0))
hIsland = hIsland.add(rect(4.360035134856168e-09, 7.135659050657068e-10).transl(-4.6255264800870384e-08, -3.679120269844064e-08, 0))
hIsland = hIsland.add(rect(3.4437672806334176e-09, 1.457408322079974e-09).transl(-4.110781754549894e-08, -3.7883955235497314e-08, 0))
hIsland = hIsland.add(rect(7.531422167259128e-09, 4.151805097209026e-09).transl(-5.7589071747625465e-08, -3.3410583625521295e-08, 0))
hIsland = hIsland.add(rect(3.93741793356056e-09, 2.9063895287424072e-09).transl(5.509004224075013e-08, -3.428425459510213e-08, 0))
hIsland = hIsland.add(rect(2.0959082127853766e-09, 1.3054394708899015e-09).transl(1.9765177443254047e-08, -3.998797716148231e-08, 0))
hIsland = hIsland.sub(rect(8.241562217620596e-09, -1.5955982365739378e-09).transl(1.0091889130457847e-09, -4e-08, 0))
hIsland = hIsland.add(rect(2.7389610023586473e-09, 1.538034804387302e-09).transl(-2.110255655835122e-08, -3.9962845949962596e-08, 0))
hIsland = hIsland.add(rect(5.9789038134054496e-09, 1.939298698526514e-09).transl(-8.326281075035914e-09, -4e-08, 0))
hIsland = hIsland.add(rect(3.865769252110542e-09, 4.277327729333789e-09).transl(8.825934921014564e-08, -8.742260220056825e-09, 0))
hIsland = hIsland.add(rect(7.388126351992116e-09, 3.3257692878818e-09).transl(-8.619413676910342e-08, -1.2832728585039502e-08, 0))
hIsland = hIsland.sub(rect(7.454248906017496e-09, -2.8904354952674383e-09).transl(-2.0308801743145514e-10, -4e-08, 0))
hIsland = hIsland.add(rect(2.5474995488290564e-09, 3.120806186194665e-09).transl(5.137395206558219e-08, -3.544330947122331e-08, 0))
hIsland = hIsland.add(rect(8.048808515903575e-09, 9.009699690156949e-10).transl(7.524063268638822e-08, -2.4263916521398662e-08, 0))
hIsland = hIsland.add(rect(4.968297858824326e-09, 1.68664916080789e-09).transl(5.421694451706652e-08, -3.457115104420018e-08, 0))
hIsland = hIsland.sub(rect(6.41515233450271e-09, -3.1654898484746673e-09).transl(-2.1628327593540585e-08, -3.9949177740243794e-08, 0))
hIsland = hIsland.sub(rect(4.958615772175999e-09, -1.2835334570967047e-09).transl(-4.269185431625762e-08, -3.7574257056407116e-08, 0))
hIsland = hIsland.sub(rect(3.87696699770274e-09, -7.700410114884968e-10).transl(-3.670009091486966e-08, -3.8627321136759516e-08, 0))
hIsland = hIsland.sub(rect(8.227154713964158e-09, -1.1404608627503072e-10).transl(-6.98873806264821e-08, -2.773162683786993e-08, 0))
hIsland = hIsland.add(rect(8.333820551622005e-09, 9.224748785019065e-10).transl(3.7195618656776643e-08, -3.855222617863039e-08, 0))
hIsland = hIsland.sub(rect(8.522415686013744e-09, -1.1708919152065774e-09).transl(2.59821383295273e-08, -3.975342778794614e-08, 0))
hIsland = hIsland.sub(rect(2.1743956588675504e-09, -3.7589965509281e-09).transl(-4.292262225638878e-08, -3.752720371246653e-08, 0))
hIsland = hIsland.add(rect(9.337393152707716e-09, 9.351350278421099e-10).transl(6.490105434850812e-08, -3.0349258645115426e-08, 0))
hIsland = hIsland.sub(rect(3.633217631168046e-09, -1.9103783883698957e-09).transl(-4.721510281851147e-08, -3.6559092058348546e-08, 0))
hIsland = hIsland.add(rect(8.227912260404644e-09, 4.455310029166602e-09).transl(7.450984673916944e-08, -2.478697650322596e-08, 0))
hIsland = hIsland.add(rect(3.791566793662133e-09, 3.835591379049486e-09).transl(-6.991467852596042e-08, -2.7715854053399043e-08, 0))
hIsland = hIsland.add(rect(6.642579357362731e-09, 4.485187464380137e-09).transl(-8.914771805798383e-08, -6.136367384157055e-09, 0))
hIsland = hIsland.sub(rect(7.366513178834293e-09, -5.063550322797812e-10).transl(-6.41547649265728e-08, -3.070035224479631e-08, 0))
hIsland = hIsland.sub(rect(8.546571596625065e-09, -1.8232768067436753e-09).transl(2.8405199536190175e-08, -3.958009469250828e-08, 0))
hIsland = hIsland.sub(rect(2.9614763581429397e-09, -1.161858308606154e-09).transl(-8.314626193648787e-08, -1.703268966405874e-08, 0))
hIsland = hIsland.add(rect(4.768554144096078e-09, 3.692736196997024e-09).transl(7.412776317028168e-08, -2.5053487236020135e-08, 0))
hIsland = hIsland.sub(rect(8.719120262100706e-09, -2.1923071685613078e-09).transl(2.2429431492180005e-08, -3.992423432731363e-08, 0))
hIsland = hIsland.sub(rect(2.2261996421528307e-09, -5.655065734073867e-10).transl(6.945343492700778e-08, -2.7980063637822516e-08, 0))
hIsland = hIsland.sub(rect(5.4871721294823805e-09, -3.2367715249605032e-09).transl(8.780735612670679e-08, -9.796274023975594e-09, 0))
hIsland = hIsland.sub(rect(7.328647017695278e-09, -3.0896604341085882e-09).transl(-7.606620350008237e-08, -2.3650725010988085e-08, 0))
hIsland = hIsland.add(rect(2.9235970339993776e-09, 1.4912869115577408e-09).transl(-8.43181484979746e-08, -1.5574424863056657e-08, 0))
hIsland = hIsland.sub(rect(3.4658412800498815e-09, -3.146022454232976e-09).transl(8.634652579516663e-08, -1.258002055645419e-08, 0))
hIsland = hIsland.add(rect(3.1500371581543613e-09, 1.6119635450807259e-09).transl(3.656071318721307e-08, -3.864806355642047e-08, 0))
hIsland = hIsland.sub(rect(4.518417427891204e-09, -1.2962463846402495e-09).transl(5.178235251279339e-08, -3.532369128879162e-08, 0))
hIsland = hIsland.add(rect(5.960266195637868e-09, 1.7281616588223617e-09).transl(6.347817581507723e-08, -3.1010429968498496e-08, 0))
hIsland = hIsland.add(rect(2.110906299052111e-09, 3.332678463471284e-10).transl(-7.492120464597427e-08, -2.4494749132773448e-08, 0))
hIsland = hIsland.sub(rect(2.453078273820145e-09, -2.4596525571198267e-09).transl(-3.7130533779810537e-08, -3.8562209949684654e-08, 0))
hIsland = hIsland.add(rect(2.5925282763553464e-09, 6.889930239916919e-10).transl(1.9773551012687245e-08, -3.998786280677573e-08, 0))
hIsland = hIsland.add(rect(4.8677117894845915e-09, 3.0172254464718843e-10).transl(-4.6209160938512147e-08, -3.680212033924871e-08, 0))
hIsland = hIsland.sub(rect(9.384186384709086e-09, -4.9203720305373806e-11).transl(5.111010379084408e-08, -3.551960433720315e-08, 0))
hIsland = hIsland.sub(rect(2.5390686587670023e-09, -1.4340061865860352e-09).transl(-5.702135119454531e-08, -3.3616088478804335e-08, 0))
hIsland = hIsland.add(rect(2.255356383989801e-09, 9.237687402964399e-10).transl(1.8989192901154575e-08, -3.9996224734667404e-08, 0))
hIsland = hIsland.sub(rect(6.886092587923649e-09, -1.6716479214631356e-09).transl(6.163478244542605e-08, -3.181740808237453e-08, 0))
hIsland = hIsland.sub(rect(4.647945835188309e-09, -2.568611035762212e-09).transl(-4.894703953723719e-08, -3.611658396083729e-08, 0))
hIsland = hIsland.sub(rect(9.739134189138713e-09, -3.2944342041814e-09).transl(-1.7372642809614596e-08, -4e-08, 0))
hIsland = hIsland.sub(rect(5.74235746393979e-09, -9.801652977475368e-10).transl(-1.1549425665596954e-08, -4e-08, 0))
hIsland = hIsland.add(rect(2.6369438433078596e-09, 4.514825835389552e-10).transl(2.692071707705002e-09, -4e-08, 0))
hIsland = hIsland.sub(rect(9.482118658368443e-09, -1.729456566010885e-09).transl(-4.6670688349998594e-08, -3.6691875297130024e-08, 0))
hIsland = hIsland.add(rect(2.1679643183191262e-09, 7.519686476328558e-10).transl(6.586360664206531e-08, -2.988184117245894e-08, 0))
hIsland = hIsland.sub(rect(4.010970818368476e-09, -5.611675020501113e-09).transl(-8.012830976375829e-08, -2.021545312453818e-08, 0))
hIsland = hIsland.add(rect(8.626498579640846e-09, 1.120928807596109e-10).transl(-1.8910986860975327e-08, -3.9996798108496516e-08, 0))
hIsland = hIsland.add(rect(6.238776655121291e-09, 2.3807000562262913e-09).transl(8.812552138063743e-08, -9.067838484557723e-09, 0))
hIsland = hIsland.add(rect(3.755389941018102e-09, 9.532123856765496e-10).transl(-7.246404010165271e-08, -2.6162292249389366e-08, 0))
hIsland = hIsland.add(rect(2.0970437534543447e-09, 5.255542872498987e-10).transl(-2.2985623201665337e-08, -3.9903988016960426e-08, 0))
hIsland = hIsland.add(rect(4.120665265446363e-09, 5.061678260128546e-10).transl(3.8821701942541394e-08, -3.829086507529968e-08, 0))
hIsland = hIsland.add(rect(3.1086090468667405e-09, 5.017017895504279e-09).transl(-2.3260300473384917e-08, -3.9893102682606314e-08, 0))
hIsland = hIsland.add(rect(8.012726680685706e-09, 1.899347058484666e-09).transl(3.361219598245114e-08, -3.904832134915526e-08, 0))
hIsland = hIsland.add(rect(2.902734687384359e-09, 1.2952766360700637e-09).transl(-3.168544404577552e-09, -4e-08, 0))
hIsland = hIsland.add(rect(4.707502895183539e-09, 4.112332970550854e-10).transl(-4.1587011202410805e-08, -3.7792696819384265e-08, 0))
hIsland = hIsland.add(rect(9.141515202207452e-09, 3.4036592506170744e-10).transl(1.2179723275869864e-08, -4e-08, 0))
hIsland = hIsland.sub(rect(3.1035255112964927e-09, -1.913499029835906e-09).transl(-2.510652766284327e-08, -3.98046823373913e-08, 0))
hIsland = hIsland.add(rect(6.187667877500844e-09, 7.633225136419957e-10).transl(-7.944541639144489e-08, -2.0849703231463753e-08, 0))
hIsland = hIsland.sub(rect(4.686826441078092e-09, -1.3162018799218406e-10).transl(-7.947564872729405e-08, -2.0822179336775112e-08, 0))
hIsland = hIsland.sub(rect(8.765616436674693e-09, -1.3973666816678997e-09).transl(-6.831984204432033e-08, -2.8609296040779594e-08, 0))
hIsland = hIsland.sub(rect(2.162211137534525e-09, -2.475764394928288e-09).transl(3.866430009892001e-08, -3.831717333055451e-08, 0))
hIsland = hIsland.add(rect(9.531991830985224e-09, 2.304482735258664e-10).transl(2.49226990864749e-09, -4e-08, 0))
hIsland = hIsland.sub(rect(7.164848519798775e-09, -4.004786189992183e-10).transl(-6.450792433003662e-08, -3.053541242371376e-08, 0))
hIsland = hIsland.add(rect(2.743913803818659e-09, 7.665544606680667e-10).transl(-4.252577304899468e-08, -3.760781397147032e-08, 0))
hIsland = hIsland.add(rect(3.73039445281108e-09, 2.7413938003361105e-09).transl(-5.7709476516373344e-09, -4e-08, 0))
hIsland = hIsland.sub(rect(4.8214805240968465e-09, -3.953517072815356e-09).transl(4.9966534357227586e-08, -3.584147487694081e-08, 0))
hIsland = hIsland.sub(rect(3.976650465933572e-09, -1.7872435610296286e-09).transl(-3.333910680044825e-08, -3.908171165617852e-08, 0))
hIsland = hIsland.sub(rect(2.8379085946067263e-09, -7.004468935499015e-10).transl(8.075672456173475e-08, -1.9607203909505773e-08, 0))
hIsland = hIsland.sub(rect(5.716072343282573e-09, -3.737529965914249e-09).transl(1.1508158986782614e-08, -4e-08, 0))
hIsland = hIsland.sub(rect(9.009024049520925e-09, -5.257249421547538e-10).transl(6.036777934358665e-08, -3.234159532421323e-08, 0))
hIsland = hIsland.sub(rect(2.2340328773308544e-09, -2.0719332132668173e-10).transl(3.759877573609254e-08, -3.848956885163403e-08, 0))
hIsland = hIsland.sub(rect(3.0309809236333617e-09, -9.357978525905741e-10).transl(-7.99722700727064e-08, -2.0362742408772713e-08, 0))
hIsland = hIsland.sub(rect(7.873781200249098e-09, -1.5688039398920008e-09).transl(5.921775075585971e-08, -3.279706128917833e-08, 0))
hIsland = hIsland.sub(rect(7.18358518503589e-09, -4.984703893483323e-09).transl(-3.987869171037124e-08, -3.810853104743575e-08, 0))
hIsland = hIsland.add(rect(3.2714943832874196e-09, 1.3312837741185428e-09).transl(-6.790869113353962e-08, -2.8830724295022492e-08, 0))
hIsland = hIsland.sub(rect(4.422600388133472e-09, -1.1214566200953537e-10).transl(-5.90959939495828e-08, -3.284418546590056e-08, 0))
hIsland = hIsland.add(rect(4.315829274158417e-09, 5.514668553048332e-10).transl(-7.396217373243601e-09, -4e-08, 0))
hIsland = hIsland.sub(rect(3.0745380394993696e-09, -9.342233027290811e-10).transl(-7.990113079375065e-08, -2.042941783564543e-08, 0))
hIsland = hIsland.add(rect(5.0141691746719915e-09, 2.7338130250928653e-09).transl(2.563468555325659e-08, -3.9774486116532376e-08, 0))
hIsland = hIsland.sub(rect(2.0951034869070294e-09, -4.144842805759553e-10).transl(5.675182550912864e-08, -3.371218054642059e-08, 0))
hIsland = hIsland.sub(rect(2.207933938663425e-09, -2.777056326155271e-09).transl(3.205253862275312e-08, -3.923074410984777e-08, 0))
hIsland = hIsland.sub(rect(3.784644919515192e-09, -3.1823795771788365e-09).transl(4.0126123287445654e-08, -3.8064413682228683e-08, 0))
hIsland = hIsland.sub(rect(6.714823225885197e-09, -3.1812997316002793e-10).transl(-5.1669106404082214e-08, -3.535704687279464e-08, 0))
hIsland = hIsland.add(rect(8.340962212185134e-09, 7.45573592063808e-10).transl(-4.451403165962392e-10, -4e-08, 0))
hIsland = hIsland.sub(rect(4.154608807316269e-09, -2.4040131643632696e-09).transl(-7.857188886731548e-08, -2.1624219667970383e-08, 0))
hIsland = hIsland.add(rect(3.806810668661678e-09, 1.3658912104576004e-09).transl(-5.277508340848832e-08, -3.5025094944984063e-08, 0))
hIsland = hIsland.add(rect(3.1018042217124545e-09, 1.3860013029622061e-09).transl(5.516642476450246e-08, -3.4258714626312127e-08, 0))
hIsland = hIsland.sub(rect(3.4588668651668527e-09, -3.369028859854891e-10).transl(5.675672490645142e-08, -3.3710442178806145e-08, 0))
hIsland = hIsland.sub(rect(7.481752748397076e-09, -3.2870987514563663e-10).transl(-5.10146541873361e-08, -3.554701550603076e-08, 0))
hIsland = hIsland.add(rect(5.647985904458469e-09, 1.7947102586924163e-09).transl(8.429628993992845e-08, -1.5603121128508507e-08, 0))
hIsland = hIsland.sub(rect(2.9597532855585387e-09, -6.891670507968724e-11).transl(7.762459585050668e-08, -2.2422070597877825e-08, 0))
hIsland = hIsland.add(rect(5.97717237884436e-09, 9.033692357600719e-10).transl(-8.880459136115627e-08, -7.258665365958256e-09, 0))
hIsland = hIsland.add(rect(5.6896727016192415e-09, 2.2650255955557466e-09).transl(9.60199994158274e-09, -4e-08, 0))
hIsland = hIsland.sub(rect(9.078507378591987e-09, -6.889711076388272e-10).transl(2.4536418679249084e-08, -3.9834825754040945e-08, 0))
hIsland = hIsland.sub(rect(7.27855808638843e-09, -3.6376649664503526e-09).transl(8.766793501099464e-08, -1.009795895682758e-08, 0))
hIsland = hIsland.add(rect(6.501378892776899e-09, 1.0672073669706631e-09).transl(7.4357001961800815e-09, -4e-08, 0))
hIsland = hIsland.sub(rect(4.9155966192807285e-09, -2.7601353505457867e-09).transl(8.578454798814477e-10, -4e-08, 0))
hIsland = hIsland.sub(rect(7.301951765826422e-09, -3.1218528216901336e-10).transl(6.854202081190432e-08, 2.8488161566861026e-08, 0))
hIsland = hIsland.sub(rect(5.559631549022941e-09, -5.949958527677096e-11).transl(-1.9358957444999847e-08, 3.999287449906993e-08, 0))
hIsland = hIsland.add(rect(9.567692315408416e-09, 2.30007078401196e-09).transl(-2.2687194128161497e-08, 3.9915150018372415e-08, 0))
hIsland = hIsland.add(rect(7.000755771753723e-09, 2.355565332390694e-09).transl(5.178051214844616e-08, 3.5324234498397006e-08, 0))
hIsland = hIsland.add(rect(3.505253485227621e-09, 1.8805999897925332e-09).transl(3.659895629477593e-08, 3.864238870939806e-08, 0))
hIsland = hIsland.add(rect(9.52405190088388e-09, 2.691137450500697e-10).transl(4.833173980742102e-08, 3.6277333501852124e-08, 0))
hIsland = hIsland.add(rect(3.767250142055319e-09, 1.2116881744118715e-09).transl(1.780675359672112e-08, 4e-08, 0))
hIsland = hIsland.sub(rect(8.648455319068194e-09, -8.317824397417114e-10).transl(-5.1773082317504645e-08, 3.5326427132430453e-08, 0))
hIsland = hIsland.add(rect(5.37715023374699e-09, 4.478465051167003e-11).transl(-3.19793561387533e-08, 3.923881299230433e-08, 0))
hIsland = hIsland.add(rect(9.695703603093503e-09, 4.935360439081993e-09).transl(6.6095998977281e-08, 2.9766451423765493e-08, 0))
hIsland = hIsland.add(rect(6.799710095659961e-09, 1.27254394673604e-09).transl(-1.913606646249425e-08, 3.999502034201596e-08, 0))
hIsland = hIsland.add(rect(4.5731233934684564e-09, 5.419546020080917e-10).transl(-9.999048013113166e-09, 4e-08, 0))
hIsland = hIsland.add(rect(4.232497635900829e-09, 3.2746368514506473e-10).transl(-6.702543124344018e-08, 2.9294729919351596e-08, 0))
hIsland = hIsland.sub(rect(5.438156662680134e-09, -2.913293926570354e-10).transl(4.859476900825929e-08, 3.6209098292781526e-08, 0))
hIsland = hIsland.sub(rect(7.0919778417643105e-09, -2.1542048205296696e-09).transl(-1.612566291276743e-08, 4e-08, 0))
hIsland = hIsland.add(rect(6.011626864847705e-09, 4.761256947411322e-09).transl(6.16828121086678e-08, 3.179706061362126e-08, 0))
hIsland = hIsland.sub(rect(6.921597084816906e-09, -3.4755011472811498e-09).transl(-3.365850016378351e-08, 3.9042598501155975e-08, 0))
hIsland = hIsland.add(rect(3.5136954982766e-09, 2.607260993086642e-10).transl(1.6242897627806532e-08, 4e-08, 0))
hIsland = hIsland.add(rect(7.409415972000564e-09, 4.495670807616824e-10).transl(6.415157451419116e-08, 3.0701832544036456e-08, 0))
hIsland = hIsland.sub(rect(3.610493480410739e-09, -2.251561973916185e-09).transl(-3.561240963429793e-08, 3.8784793327791933e-08, 0))
hIsland = hIsland.add(rect(6.81977850007803e-09, 1.1935278619569514e-09).transl(6.998150474661108e-08, 2.7677168713346618e-08, 0))
hIsland = hIsland.add(rect(6.041331354444308e-09, 6.133544819567699e-10).transl(-8.218917592138182e-08, 1.8119542128732364e-08, 0))
hIsland = hIsland.add(rect(5.4554198126141715e-09, 3.2171485077767755e-09).transl(4.122434897605887e-08, 3.7861955296035104e-08, 0))
hIsland = hIsland.sub(rect(7.380770756163601e-09, -3.563726087114486e-09).transl(-1.643078362015495e-08, 4e-08, 0))
hIsland = hIsland.add(rect(9.815892588562386e-09, 1.1673290040797727e-09).transl(-5.0549720299044336e-08, 3.567910698782636e-08, 0))
hIsland = hIsland.add(rect(5.5460786392209606e-09, 4.653667593331046e-10).transl(-9.918253844445527e-09, 4e-08, 0))
hIsland = hIsland.sub(rect(9.167612395154194e-09, -2.0452160509345144e-09).transl(7.497928727606837e-08, 2.4453033980199938e-08, 0))
hIsland = hIsland.add(rect(7.883759920804379e-09, 7.84543799487329e-10).transl(3.045012992519339e-08, 3.9397445649659075e-08, 0))
hIsland = hIsland.add(rect(5.1895577823370595e-09, 2.063508007512545e-10).transl(-1.1140226869255682e-08, 4e-08, 0))
hIsland = hIsland.add(rect(9.103202390171824e-09, 7.72083707098134e-10).transl(9.164760429707311e-09, 4e-08, 0))
hIsland = hIsland.add(rect(8.044330782353543e-09, 7.160757134328943e-10).transl(-1.539676911682711e-08, 4e-08, 0))
hIsland = hIsland.sub(rect(2.9006186650895113e-09, -9.771662154783642e-10).transl(8.506202580858203e-08, 1.4558149625174734e-08, 0))
hIsland = hIsland.add(rect(3.2679294279863947e-09, 4.478841979052912e-10).transl(7.379864111404344e-08, 2.527937510109592e-08, 0))
hIsland = hIsland.sub(rect(6.409504763493605e-09, -1.5717039536655453e-09).transl(8.160114909935128e-10, 4e-08, 0))
hIsland = hIsland.sub(rect(3.6688275433085097e-09, -1.0139646582093587e-09).transl(-3.410784562502299e-08, 3.8986137570035865e-08, 0))
hIsland = hIsland.sub(rect(6.457504790035171e-09, -1.1585690300945e-09).transl(8.979134781452547e-08, 3.043023744639839e-09, 0))
hIsland = hIsland.add(rect(3.1697819885229807e-09, 2.7692076220995514e-09).transl(-5.49028742494105e-08, 3.434653590154126e-08, 0))
hIsland = hIsland.sub(rect(9.013823631428395e-09, -2.1060712009553116e-09).transl(7.101746685156566e-08, 2.7063871689316427e-08, 0))
hIsland = hIsland.add(rect(4.053248690009883e-09, 6.221716350844177e-10).transl(5.7095347630635733e-08, 3.358954217782628e-08, 0))
hIsland = hIsland.add(rect(2.776609607618937e-09, 3.1751897541766454e-09).transl(-4.0244282535755456e-08, 3.804315245757553e-08, 0))
hIsland = hIsland.add(rect(7.63408072480015e-09, 4.887416361592499e-10).transl(-8.055269063116603e-08, 1.980741299379295e-08, 0))
hIsland = hIsland.sub(rect(2.0837532121571237e-09, -2.2293503548639664e-09).transl(-8.719957979371607e-08, 1.1047291109403366e-08, 0))
hIsland = hIsland.sub(rect(5.021554173117943e-09, -1.4499326094657742e-10).transl(8.101654642520039e-08, 1.934829303601695e-08, 0))
hIsland = hIsland.add(rect(2.039177079463155e-09, 8.480550076146483e-10).transl(3.805752227928166e-08, 3.841655941182152e-08, 0))
hIsland = hIsland.add(rect(2.619423239914051e-09, 8.11899358812012e-10).transl(8.989248413548078e-08, 2.1851579052504533e-09, 0))
hIsland = hIsland.add(rect(3.205112945831509e-09, 2.1412526302646157e-09).transl(2.2726471647862814e-08, 3.991372047335719e-08, 0))
hIsland = hIsland.add(rect(7.3507052667029184e-09, 4.61478441315105e-10).transl(3.0618559830066883e-08, 3.938090323302757e-08, 0))
hIsland = hIsland.sub(rect(9.067999195556278e-09, -2.189716585204383e-10).transl(1.8358023887907834e-08, 3.999950547107761e-08, 0))
hIsland = hIsland.sub(rect(8.598146289527007e-09, -1.7776296974070645e-09).transl(2.4452222836458162e-08, 3.9839062118918254e-08, 0))
hIsland = hIsland.add(rect(4.429545691369284e-09, 3.5587911902394332e-09).transl(-8.741257776094083e-08, 1.0626865102551281e-08, 0))
hIsland = hIsland.add(rect(3.498269459398074e-09, 9.840139384267759e-10).transl(-4.0327478762621695e-08, 3.802810726301819e-08, 0))
hIsland = hIsland.sub(rect(2.840164569009014e-09, -3.6522783239511346e-09).transl(1.1547951966277875e-08, 4e-08, 0))
hIsland = hIsland.sub(rect(5.231037511102123e-09, -1.6503548893969473e-09).transl(6.109060950921912e-08, 3.204548933091869e-08, 0))
hIsland = hIsland.add(rect(9.680623221769612e-09, 1.2634698264466222e-09).transl(-8.921530047509969e-08, 5.88943860749921e-09, 0))
hIsland = hIsland.add(rect(7.445478083580188e-09, 1.5878844699612948e-10).transl(-6.864820731203405e-08, 2.8429895889199935e-08, 0))
hIsland = hIsland.sub(rect(7.821995385262415e-09, -7.44390905285051e-10).transl(1.958403293138051e-08, 3.999031842584019e-08, 0))
hIsland = hIsland.add(rect(7.652684431079044e-09, 1.5572105041616635e-09).transl(-6.942360863052146e-08, 2.7996982175415676e-08, 0))
hIsland = hIsland.add(rect(6.374353263937023e-09, 1.7179086576361725e-09).transl(1.2874635746589822e-08, 4e-08, 0))
hIsland = hIsland.sub(rect(8.608405190796589e-09, -2.3750066875688814e-09).transl(-6.385850981589911e-08, 3.0837072233092704e-08, 0))
hIsland = hIsland.add(rect(4.680809260381784e-09, 1.8626664087517618e-09).transl(-4.624984599888364e-08, 3.6792486992404056e-08, 0))
hIsland = hIsland.add(rect(5.88591071392289e-09, 8.854228595151179e-10).transl(5.252827791499901e-09, 4e-08, 0))
hIsland = hIsland.add(rect(2.6895282674568517e-09, 3.836072766485267e-09).transl(6.114428606526893e-08, 3.202319076682313e-08, 0))
hIsland = hIsland.sub(rect(5.937120666287617e-09, -6.316641261822661e-10).transl(-8.158172091269244e-09, 4e-08, 0))
hIsland = hIsland.add(rect(8.653425526564718e-09, 2.7632907457980545e-09).transl(-6.396870829751995e-08, 3.07863899776713e-08, 0))
hIsland = hIsland.add(rect(4.466372183665187e-09, 1.8707650934492695e-09).transl(6.658200733174115e-08, 2.9521850892672922e-08, 0))
hIsland = hIsland.sub(rect(5.843451895755692e-09, -1.5010710850375267e-09).transl(-8.291462039852728e-08, 1.730350048895684e-08, 0))
hIsland = hIsland.add(rect(9.801286796959309e-09, 9.586834952305609e-10).transl(2.562993473210803e-08, 3.977476748379622e-08, 0))
hIsland = hIsland.add(rect(3.024176953586588e-09, 1.3857920031169671e-09).transl(2.004645798291197e-09, 4e-08, 0))
hIsland = hIsland.sub(rect(5.107921260762929e-09, -1.0102130907414435e-11).transl(-6.933851193092519e-08, 2.8045142141778264e-08, 0))
hIsland = hIsland.sub(rect(9.360090868324809e-09, -1.229143507317676e-09).transl(4.620113542642708e-08, 3.6804018670890536e-08, 0))
hIsland = hIsland.sub(rect(3.1514733517699133e-09, -3.49207332335408e-09).transl(-4.3864340088733945e-09, 4e-08, 0))
hIsland = hIsland.add(rect(6.8845816344508325e-09, 2.763209695252563e-09).transl(5.4772074524972e-08, 3.438980673308386e-08, 0))
hIsland = hIsland.add(rect(2.2105070679826223e-09, 2.742566977346012e-09).transl(3.5794305825760116e-08, 3.8759159332396664e-08, 0))
hIsland = hIsland.add(rect(9.267940209565758e-09, 7.675699457893754e-10).transl(-1.3327497606444872e-08, 4e-08, 0))
hIsland = hIsland.sub(rect(9.84780813857574e-09, -7.015298213788218e-10).transl(-6.269496488902668e-08, 3.135991835921299e-08, 0))
hIsland = hIsland.sub(rect(5.049984339962086e-09, -7.673310591232197e-10).transl(6.031444202782229e-08, 3.236314011700251e-08, 0))
hIsland = hIsland.add(rect(4.5510400127938545e-09, 4.327860885575545e-09).transl(5.5240735159602107e-08, 3.42337987489206e-08, 0))
hIsland = hIsland.sub(rect(5.611902629886731e-09, -1.5356084281763375e-09).transl(-3.9778948495598374e-08, 3.812616078955836e-08, 0))
hIsland = hIsland.add(rect(9.29387037926854e-09, 6.466704457653604e-10).transl(-6.413725208496776e-08, 3.0708475777588814e-08, 0))
hIsland = hIsland.add(rect(4.334060636493502e-09, 2.1238707631996567e-09).transl(7.072706140025754e-08, 2.7238413530045913e-08, 0))
hIsland = hIsland.add(rect(2.194541486291003e-09, 4.561129754353844e-10).transl(8.326193094980545e-08, 1.6895469923048183e-08, 0))
hIsland = hIsland.add(rect(6.509460239714552e-09, 1.766579846801768e-09).transl(-9.47753124738834e-09, 4e-08, 0))
hIsland = hIsland.sub(rect(5.274848515255047e-09, -1.846709847739475e-09).transl(6.216699043114868e-08, 3.1589950720100875e-08, 0))
hIsland = hIsland.sub(rect(4.874434619654955e-09, -2.5789178603692605e-09).transl(7.069141009846418e-08, 2.725969813739344e-08, 0))
hIsland = hIsland.sub(rect(9.661980179955976e-09, -1.6997761647300194e-10).transl(1.9818971329346435e-08, 3.99872330833408e-08, 0))
hIsland = hIsland.sub(rect(9.853228845246603e-09, -1.1287677376112603e-09).transl(5.7966000429243506e-08, 3.327178952655376e-08, 0))
hIsland = hIsland.sub(rect(4.939998838598944e-09, -6.907829721137858e-10).transl(-6.971068433368802e-09, 4e-08, 0))
hIsland = hIsland.sub(rect(3.4601369711133966e-09, -1.029661075824044e-09).transl(-3.63611723861806e-08, 3.8677470348154815e-08, 0))
hIsland = hIsland.add(rect(3.851492935125676e-09, 3.7353650568926895e-10).transl(7.977430770097962e-08, 2.054755781397711e-08, 0))
hIsland = hIsland.add(rect(7.849231580557309e-09, 3.980998177536645e-09).transl(-5.490871910343443e-08, 3.434459746067397e-08, 0))
hIsland = hIsland.add(rect(5.304762316758137e-09, 2.142530131742656e-09).transl(1.5930803956399498e-09, 4e-08, 0))
hIsland = hIsland.add(rect(2.3766293000672676e-09, 3.4731304162075417e-09).transl(5.3256091256470244e-08, 3.4876360229747837e-08, 0))
hIsland = hIsland.sub(rect(7.149527413133152e-09, -1.828752721894444e-09).transl(-1.8514373237095804e-10, 4e-08, 0))
hIsland = hIsland.add(rect(8.828476683147703e-09, 1.0475799701962925e-09).transl(-2.5489685328134086e-08, 3.978299396931058e-08, 0))
hIsland = hIsland.add(rect(8.27244584750787e-09, 7.665018735249256e-10).transl(1.0873085421818263e-08, 4e-08, 0))
hIsland = hIsland.add(rect(6.769604337498486e-09, 1.3268741901196647e-09).transl(-6.333564254013343e-08, 3.107477796804584e-08, 0))
hIsland = hIsland.add(rect(4.970623009151104e-09, 3.142751408851258e-09).transl(2.8049038525811684e-10, 4e-08, 0))
hIsland = hIsland.add(rect(6.967762781801221e-09, 4.0433884713155334e-10).transl(-4.269998806447426e-08, 3.7572607033101074e-08, 0))
hIsland = hIsland.add(rect(8.613412925044054e-09, 2.8478155693119922e-09).transl(8.234168855965178e-08, 1.7951814046482843e-08, 0))
hIsland = hIsland.sub(rect(9.450881900252795e-09, -2.071128871993521e-10).transl(1.812259686070386e-08, 3.999994201388446e-08, 0))
hIsland = hIsland.sub(rect(5.865758714825549e-09, -3.904010258954965e-09).transl(-1.1095354798947967e-09, 4e-08, 0))
hIsland = hIsland.sub(rect(7.337190989229033e-09, -1.6032225153657291e-09).transl(8.759402648423489e-08, 1.0254048849709397e-08, 0))
hIsland = hIsland.sub(rect(2.002658456884798e-09, -1.337004515648541e-09).transl(-3.873528146379821e-09, 4e-08, 0))
hIsland = hIsland.add(rect(2.530271762096646e-09, 5.038231138734186e-10).transl(3.934976340360038e-08, 3.8201009951301954e-08, 0))
hIsland = hIsland.add(rect(4.058425275953853e-09, 3.594756178908078e-09).transl(-8.62639572909427e-08, 1.271763788073637e-08, 0))
hIsland = hIsland.sub(rect(7.739953705554174e-09, -2.0509489549396413e-09).transl(-1.678201582590907e-08, 4e-08, 0))
hIsland = hIsland.sub(rect(4.072456100847394e-09, -3.43599252787958e-10).transl(-6.601168856230702e-08, 2.9808430333538105e-08, 0))
hIsland = hIsland.sub(rect(9.12618326238437e-09, -2.239538430649404e-09).transl(2.9494265127696564e-08, 3.948699531653232e-08, 0))
hIsland = hIsland.sub(rect(7.002880810353658e-09, -1.0641232601768368e-09).transl(-4.4075089431391234e-08, 3.728473072740513e-08, 0))
hIsland = hIsland.add(rect(7.462238728876279e-09, 1.9631651504941085e-09).transl(-6.637542674927283e-08, 2.9626367170754154e-08, 0))
hIsland = hIsland.add(rect(6.24464182853457e-09, 1.9093819720777827e-09).transl(9.519492728375879e-09, 4e-08, 0))
hIsland = hIsland.add(rect(6.801906189326967e-09, 1.5382166987265927e-09).transl(-3.169215519489029e-08, 3.927005615644785e-08, 0))
hIsland = hIsland.add(rect(2.0666299279098877e-09, 3.239668026857864e-09).transl(-5.9463228173856505e-08, 3.2701420993602666e-08, 0))
hIsland = hIsland.add(rect(2.5310722055516044e-09, 1.6532842974685558e-09).transl(7.111473900512261e-08, 2.7004940679745558e-08, 0))
hIsland = hIsland.add(rect(9.735756926523894e-09, 1.351561021481165e-09).transl(-8.522956978376115e-08, 1.4317658814093432e-08, 0))
hIsland = hIsland.add(rect(4.78936682661411e-09, 6.32215529974243e-11).transl(-1.751685950607933e-08, 4e-08, 0))
hIsland = hIsland.add(rect(5.984429835085302e-09, 4.320800238685101e-10).transl(6.016420695579864e-08, 3.2423602760707054e-08, 0))
hIsland = hIsland.add(rect(3.1099048485707325e-09, 9.38401054030694e-10).transl(-2.6115802983313087e-08, 3.9745074009302744e-08, 0))
hIsland = hIsland.sub(rect(8.503274857521167e-09, -9.671008453485127e-10).transl(-3.438287962951967e-08, 3.895074943035918e-08, 0))
hIsland = hIsland.add(rect(5.3425052849617354e-09, 2.950266006584093e-10).transl(-8.44882509118369e-08, 1.5348950286669796e-08, 0))
hIsland = hIsland.add(rect(5.11893382408603e-09, 5.730059646701438e-10).transl(3.3150340769995875e-08, 3.9104431147324784e-08, 0))
hIsland = hIsland.sub(rect(7.271508523051481e-09, -2.608756195047191e-09).transl(1.6256853387283138e-08, 4e-08, 0))
hIsland = hIsland.sub(rect(9.291353491415912e-09, -1.050778409176283e-09).transl(-7.371677389432404e-08, 2.5335045670740558e-08, 0))
hIsland = hIsland.sub(rect(6.573305580026567e-09, -2.8035523165265287e-09).transl(7.450340377432469e-08, 2.479150941074079e-08, 0))
hIsland = hIsland.add(rect(3.5409145029957207e-09, 1.6519212630253774e-09).transl(-7.87399623288919e-08, 2.1478218770870655e-08, 0))
hIsland = hIsland.add(rect(3.653853867806741e-09, 2.07765164060945e-09).transl(-7.750078456220284e-08, 2.2523353014439552e-08, 0))
hIsland = hIsland.sub(rect(2.1061260699805047e-09, -5.253739621744936e-09).transl(1.289629233451123e-08, 4e-08, 0))
hIsland = hIsland.sub(rect(7.0048508376111945e-09, -1.8665787605625914e-09).transl(-8.990725339507315e-08, 2.0296345514833085e-09, 0))
hIsland = hIsland.add(rect(9.679272165358344e-09, 2.9237530080513713e-09).transl(-6.737321855961482e-08, 2.9113895589184466e-08, 0))
hIsland = hIsland.sub(rect(9.25409969017165e-09, -3.584851264743552e-09).transl(-6.297673516064921e-09, 4e-08, 0))
hIsland = hIsland.add(rect(4.527968904763651e-09, 1.1584518012991025e-09).transl(-5.2184641272894734e-08, 3.5204036231499584e-08, 0))
hIsland = hIsland.sub(rect(8.927377746215602e-09, -1.7459055719638237e-09).transl(4.332710031418394e-08, 3.744352945500625e-08, 0))
hIsland = hIsland.add(rect(5.647885598298101e-09, 4.028424896764751e-10).transl(-5.093743714366688e-08, 3.5569117354593925e-08, 0))
hIsland = hIsland.sub(rect(5.177555307901107e-09, -8.309842222313257e-11).transl(5.862257952126613e-08, 3.302545797403226e-08, 0))
hIsland = hIsland.sub(rect(7.163453655142997e-09, -1.127652779777611e-09).transl(-5.711795276691124e-08, 3.3581418341347266e-08, 0))
hIsland = hIsland.add(rect(8.876284187512586e-09, 2.272336173245698e-10).transl(-2.4632478689102058e-08, 3.982992479775265e-08, 0))
hIsland = hIsland.sub(rect(3.1259842535177312e-09, -1.0448990276244454e-09).transl(8.321442492553789e-08, 1.6951990866286885e-08, 0))
hIsland = hIsland.sub(rect(4.930968697762754e-09, -5.00186061582363e-09).transl(6.315796191579276e-08, 3.1154525638844565e-08, 0))
hIsland = hIsland.sub(rect(4.928590533595373e-09, -4.348526452341181e-10).transl(-4.884933834728925e-08, 3.6142372466547335e-08, 0))
hIsland = hIsland.sub(rect(5.1294839135847206e-09, -6.75252614991571e-10).transl(-2.4568863243606205e-08, 3.983317850460689e-08, 0))
hIsland = hIsland.sub(rect(3.771794619593536e-09, -1.6169697246817873e-09).transl(2.8123949081387592e-08, 3.960260020378023e-08, 0))
hIsland = hIsland.sub(rect(4.11182951221248e-09, -2.240858147810011e-09).transl(2.64121905792357e-08, 3.9726048959643824e-08, 0))
hIsland = hIsland.sub(rect(9.290622296594372e-09, -1.0047794192254912e-09).transl(-7.935505216026179e-08, 2.093167584859673e-08, 0))
hIsland = hIsland.add(rect(2.2561460361997706e-09, 2.56407088809017e-09).transl(-7.789973858069059e-09, 4e-08, 0))
hIsland = hIsland.sub(rect(7.210936557142995e-09, -1.3890704053666992e-09).transl(-2.3598653123280335e-08, 3.98788871831269e-08, 0))
hIsland = hIsland.add(rect(7.272037553911358e-09, 1.0622422118673798e-09).transl(-7.587295673652111e-08, 2.379646772322949e-08, 0))
hIsland = hIsland.sub(rect(9.252214425101072e-09, -1.4893688605242587e-09).transl(-5.97051575700376e-08, 3.260633048462102e-08, 0))
hIsland = hIsland.sub(rect(3.8177965859782864e-09, -2.0552940117447734e-09).transl(-8.132731442741979e-08, 1.9032552096980943e-08, 0))
hIsland = hIsland.sub(rect(6.127872031911661e-09, -8.594024839609482e-10).transl(8.603148519011403e-08, 1.3096472793773704e-08, 0))
hIsland = hIsland.sub(rect(7.595274067629844e-09, -2.552416673833764e-09).transl(-3.592672430959088e-08, 3.874032159311856e-08, 0))
hIsland = hIsland.add(rect(3.922635426968242e-09, 3.4268227166818825e-10).transl(2.7493283204639958e-08, 3.965078103163509e-08, 0))
hIsland = hIsland.add(rect(8.101771780045835e-09, 2.087132491016199e-09).transl(4.0001502614472676e-08, 3.808670210687971e-08, 0))
hIsland = hIsland.add(rect(9.846364909413416e-09, 3.031053764442301e-09).transl(-1.133481456347259e-08, 4e-08, 0))
hIsland = hIsland.sub(rect(4.540759062695177e-09, -1.9261127967951922e-10).transl(-1.5195830040257734e-08, 4e-08, 0))
hIsland = hIsland.sub(rect(3.733759178209722e-09, -4.194180166967527e-09).transl(-6.488467749701822e-08, 3.035706751562693e-08, 0))
hIsland = hIsland.add(rect(9.99597639790108e-09, 1.3726214918599583e-11).transl(-3.853787309943272e-08, 3.833814691416659e-08, 0))
hIsland = hIsland.add(rect(4.935101219238143e-09, 1.5289717768713384e-11).transl(7.060012399155692e-08, 2.7314056866229467e-08, 0))
hIsland = hIsland.sub(rect(7.937925939939545e-09, -1.1972451549358009e-09).transl(-3.0480716038536686e-08, 3.939445865324104e-08, 0))
hIsland = hIsland.sub(rect(6.628254539375751e-09, -2.1311848494368012e-10).transl(-2.0041051509628067e-08, 3.998392465843071e-08, 0))
hIsland = hIsland.sub(rect(4.340390884805909e-09, -1.230084671661262e-09).transl(4.029426004510871e-08, 3.803412198131066e-08, 0))
hIsland = hIsland.add(rect(4.868976133992159e-09, 2.3459404464669875e-09).transl(8.016709230068592e-08, 2.0178620843850462e-08, 0))
hIsland = hIsland.add(rect(5.083812227772344e-09, 5.463955219582799e-09).transl(7.096554658501251e-08, 2.709523029270034e-08, 0))
hIsland = hIsland.add(rect(9.256112162931097e-09, 1.5325708528675925e-09).transl(-6.045264188741744e-08, 3.2307230761852614e-08, 0))
hIsland = hIsland.add(rect(4.118570153614335e-09, 2.8445699522522794e-09).transl(-7.738434789561425e-08, 2.261799802989756e-08, 0))
hIsland = hIsland.sub(rect(9.156626357768698e-09, -9.215931494052727e-10).transl(-5.364172682191875e-09, 4e-08, 0))
hIsland = hIsland.sub(rect(8.168101098288006e-09, -3.849101752629952e-10).transl(-1.814645407940071e-08, 3.999991724992454e-08, 0))
hIsland = hIsland.sub(rect(5.450538837129388e-09, -5.409825224736065e-10).transl(-8.048642607721437e-09, 4e-08, 0))
hIsland = hIsland.sub(rect(3.7778738233021695e-09, -2.4537686968836623e-09).transl(7.730078298754601e-08, 2.2685566310914646e-08, 0))
hIsland = hIsland.add(rect(9.125961936420774e-09, 7.482239059285397e-10).transl(4.497829742439642e-08, 3.708586744600254e-08, 0))
hIsland = hIsland.sub(rect(7.48070138893992e-09, -9.56844263846872e-10).transl(2.0443388048027666e-08, 3.997696039729663e-08, 0))
hIsland = hIsland.sub(rect(9.990609651947698e-09, -8.62497172196567e-10).transl(-7.773657135632472e-08, 2.2329892234835346e-08, 0))
hIsland = hIsland.sub(rect(2.3819370183755923e-09, -2.5588419945931294e-09).transl(-9.849671851446515e-10, 4e-08, 0))
hIsland = hIsland.sub(rect(2.170974721990338e-09, -3.6864894511444544e-09).transl(3.0264939317488466e-08, 3.941536981477259e-08, 0))
hIsland = hIsland.sub(rect(6.80721545308494e-09, -1.2632459861131402e-09).transl(-4.922745398410339e-08, 3.6042011313576765e-08, 0))
hIsland = hIsland.add(rect(6.2425121216747724e-09, 1.9146173906681633e-09).transl(-8.01232296554776e-08, 2.0220271099194866e-08, 0))
hIsland = hIsland.sub(rect(2.0401492558263215e-09, -1.887703099513797e-09).transl(-8.202148092266879e-08, 1.8301740290896354e-08, 0))
hIsland = hIsland.add(rect(9.132301856800902e-09, 1.390022917769115e-09).transl(4.6757860461606244e-08, 3.6670813998070815e-08, 0))
hIsland = hIsland.sub(rect(9.795535822091545e-09, -9.080906232289234e-10).transl(-4.350455343467459e-08, 3.7406334687076094e-08, 0))
hIsland = hIsland.add(rect(8.17845666480951e-09, 4.320588919749569e-09).transl(1.4186613787018286e-08, 4e-08, 0))
hIsland = hIsland.add(rect(8.47216933885697e-09, 7.520409714138456e-09).transl(1.5405702517865187e-08, 4e-08, 0))
hIsland = hIsland.add(rect(7.48277357124516e-09, 3.1380616147215715e-10).transl(-1.2195000435301373e-08, 4e-08, 0))
hIsland = hIsland.add(rect(2.870843182843259e-09, 3.954547191807914e-09).transl(-2.7401142852218265e-08, 3.965755619417168e-08, 0))
hIsland = hIsland.sub(rect(2.355136271874419e-09, -1.9104374904378044e-09).transl(8.047762230543634e-08, 1.988040407980457e-08, 0))
hIsland = hIsland.sub(rect(5.344143856720572e-09, -2.7803206973202347e-09).transl(-6.063150525942855e-08, 3.223445533741479e-08, 0))
hIsland = hIsland.add(rect(7.879784353469813e-09, 1.921637810372715e-09).transl(3.4756744444289926e-08, 3.890163091105231e-08, 0))
hIsland = hIsland.add(rect(8.062584030152329e-09, 8.673352769171692e-10).transl(-3.707642685618969e-08, 3.857048197460364e-08, 0))
hIsland = hIsland.sub(rect(3.2483858478691775e-09, -4.357349425241523e-09).transl(-1.8841016394782464e-08, 3.999727109296158e-08, 0))
hIsland = hIsland.add(rect(8.962849970685913e-09, 3.9365523770751226e-10).transl(-8.428988293169333e-08, 1.5611520565037577e-08, 0))
hIsland = hIsland.sub(rect(2.3500983105377308e-09, -1.445198037414912e-09).transl(7.627050653675601e-08, 2.349512733795042e-08, 0))
hIsland = hIsland.add(rect(7.1787686795958176e-09, 6.338389321201187e-10).transl(-1.91975280332913e-08, 3.999446692676392e-08, 0))
hIsland = hIsland.sub(rect(5.4712718239011146e-09, -3.4480171960635317e-10).transl(-6.106160470132324e-08, 3.2057520643344354e-08, 0))
hIsland = hIsland.sub(rect(2.1649396393352084e-09, -2.1636835977077854e-09).transl(-8.322591203762174e-08, 1.6938344975601342e-08, 0))
hIsland = hIsland.add(rect(8.763165127738941e-09, 3.9120893811619285e-10).transl(-5.955103664873288e-08, 3.26670037464452e-08, 0))
hIsland = hIsland.add(rect(7.463490455134276e-09, 2.540217438394515e-09).transl(-6.397731978796776e-09, 4e-08, 0))
hIsland = hIsland.sub(rect(2.261535104625404e-09, -8.207092100271511e-10).transl(-3.673240280351022e-08, 3.862248867223268e-08, 0))
hIsland = hIsland.add(rect(7.460065172571559e-09, 4.581154718109319e-12).transl(-8.832499391173613e-08, 8.577807126358056e-09, 0))
hIsland = hIsland.add(rect(6.290176294718034e-09, 3.850239024065508e-09).transl(7.835212292032126e-08, 2.1813047255227226e-08, 0))
hIsland = hIsland.sub(rect(7.740082020264654e-09, -2.5832984431303038e-09).transl(6.279958983372e-09, 4e-08, 0))
hIsland = hIsland.add(rect(4.1927106784537106e-09, 3.3368128762311763e-09).transl(-6.232201790675719e-08, 3.152286417253109e-08, 0))
hIsland = hIsland.sub(rect(3.850837075815764e-09, -8.148229324641255e-10).transl(-5.1016430428871254e-08, 3.554650632125133e-08, 0))
vIsland = hIsland.rotz(pi / 2)
hIslands = hIslands.add(hIsland.transl(-a/2, a, 0))
hIsland = rect(islandLength-2*ellipseConstant, islandWidth)
hIsland = hIsland.add(ellipse(ellipseConstant*2, islandWidth).transl(islandLength/2-ellipseConstant, 0, 0))
hIsland = hIsland.add(ellipse(ellipseConstant*2, islandWidth).transl(-islandLength/2+ellipseConstant, 0, 0))
hIsland = hIsland.sub(rect(5.9302378542837e-09, -2.5233795211701234e-09).transl(7.872746750352275e-08, -2.1489120780437516e-08, 0))
hIsland = hIsland.add(rect(5.693054300357739e-09, 2.2636118257078647e-09).transl(7.63239101553293e-09, -4e-08, 0))
hIsland = hIsland.add(rect(6.913183864120637e-09, 9.81024092058116e-10).transl(-3.569475706687024e-08, -3.8773223118158596e-08, 0))
hIsland = hIsland.add(rect(3.849423553080979e-09, 2.3273617522628653e-09).transl(-2.4629039551132017e-08, -3.9830101506232294e-08, 0))
hIsland = hIsland.sub(rect(7.368268929263991e-09, -7.592662295742639e-10).transl(-1.7562417219029233e-08, -4e-08, 0))
hIsland = hIsland.sub(rect(6.992531879947584e-09, -2.0568695489708405e-09).transl(-4.0866832070799584e-10, -4e-08, 0))
hIsland = hIsland.sub(rect(5.261969565342627e-09, -1.2304300687790504e-09).transl(3.9570283528133616e-08, -3.8162756020403155e-08, 0))
hIsland = hIsland.sub(rect(5.229114830487006e-09, -3.471372315649348e-09).transl(-7.091532882705325e-08, -2.7125496952407534e-08, 0))
hIsland = hIsland.sub(rect(6.3697877949924276e-09, -2.001351523455604e-09).transl(-1.0105567336123428e-08, -4e-08, 0))
hIsland = hIsland.sub(rect(3.9737018503145816e-09, -5.981950916025285e-10).transl(1.2060454467406302e-08, -4e-08, 0))
hIsland = hIsland.add(rect(9.295091508486042e-09, 1.4179507110744476e-09).transl(8.631103422684784e-08, -1.2639378535795134e-08, 0))
hIsland = hIsland.sub(rect(4.000494307799745e-09, -9.363194826828975e-10).transl(8.804600215296687e-09, -4e-08, 0))
hIsland = hIsland.add(rect(2.6633152222391445e-09, 5.825234470903661e-10).transl(3.922659394767559e-08, -3.822218874909913e-08, 0))
hIsland = hIsland.sub(rect(8.756701652911952e-09, -9.629311496142194e-10).transl(-5.60282135273897e-08, -3.396555524621555e-08, 0))
hIsland = hIsland.add(rect(5.006565394719472e-09, 2.2014602675426864e-09).transl(4.0522459013902743e-08, -3.799260340605897e-08, 0))
hIsland = hIsland.sub(rect(5.650993724349205e-09, -1.5933549574352079e-09).transl(5.7766275758608724e-08, -3.334556864469016e-08, 0))
hIsland = hIsland.sub(rect(3.780315167538185e-09, -7.789080294278027e-10).transl(6.599059785467021e-08, -2.981891084008066e-08, 0))
hIsland = hIsland.sub(rect(7.548170526982189e-09, -3.154261524118583e-11).transl(2.7176599012935153e-08, -3.9673785661190196e-08, 0))
hIsland = hIsland.add(rect(4.424791960772628e-09, 3.5946205010011155e-09).transl(8.750453887049018e-09, -4e-08, 0))
hIsland = hIsland.sub(rect(3.45800075465444e-09, -1.0326568175085605e-10).transl(7.334097991679897e-08, -2.5587998379403137e-08, 0))
hIsland = hIsland.sub(rect(2.855899146978934e-09, -4.1882114751746804e-10).transl(6.648144570762458e-08, -2.957283028002542e-08, 0))
hIsland = hIsland.sub(rect(7.927204649014477e-09, -3.7334462451637505e-10).transl(-4.319446964687164e-08, -3.747113580178182e-08, 0))
hIsland = hIsland.add(rect(8.683128045558125e-09, 1.9206726383507205e-09).transl(4.8360452558681534e-08, -3.626991968846116e-08, 0))
hIsland = hIsland.add(rect(6.128021564769095e-09, 6.211261262314568e-10).transl(2.5935743087585452e-08, -3.9756294561977426e-08, 0))
hIsland = hIsland.add(rect(7.881537228561842e-09, 3.0152602667550142e-09).transl(8.441099629220375e-08, -1.5451832480293196e-08, 0))
hIsland = hIsland.add(rect(4.273006400121331e-09, 3.280602777364213e-09).transl(-8.075988426027172e-08, -1.9604082212494114e-08, 0))
hIsland = hIsland.sub(rect(9.528968665126253e-09, -2.7030527034700273e-09).transl(-7.856727264942578e-08, -2.1628210057972104e-08, 0))
hIsland = hIsland.add(rect(2.949335173435901e-09, 2.69586951498888e-10).transl(4.502381599482112e-08, -3.707563744146223e-08, 0))
hIsland = hIsland.sub(rect(5.907138421642596e-09, -1.6461775843184585e-09).transl(3.6386284010663606e-08, -3.867378829802875e-08, 0))
hIsland = hIsland.sub(rect(3.333241151919712e-09, -1.4753954734025692e-09).transl(4.2254666580298364e-09, -4e-08, 0))
hIsland = hIsland.sub(rect(3.9600751438465525e-09, -1.880512993096278e-09).transl(-2.4164493144450463e-08, -3.985312163165718e-08, 0))
hIsland = hIsland.add(rect(9.015205103822513e-09, 1.0910156894550106e-10).transl(-2.3412352026545938e-08, -3.9886824635308885e-08, 0))
hIsland = hIsland.add(rect(3.4690646205392927e-09, 1.4353011409036999e-09).transl(4.549322018960674e-08, -3.6968967815721e-08, 0))
hIsland = hIsland.sub(rect(7.194159826511101e-09, -4.0653949635160107e-10).transl(1.5990123938589356e-08, -4e-08, 0))
hIsland = hIsland.sub(rect(4.039380759238032e-09, -9.12210102859545e-10).transl(-2.0413224359404713e-08, -3.997752589395966e-08, 0))
hIsland = hIsland.add(rect(4.370648095861516e-09, 2.0090495762191063e-09).transl(6.509595627430597e-08, -3.025596004242954e-08, 0))
hIsland = hIsland.sub(rect(7.298216855665325e-09, -1.1817115654014203e-09).transl(-7.769003637963277e-08, -2.2368267019236507e-08, 0))
hIsland = hIsland.add(rect(8.94684024926375e-09, 2.374133304901658e-09).transl(8.830595869352355e-08, -8.625832795445792e-09, 0))
hIsland = hIsland.sub(rect(4.529248804156231e-09, -3.539836922462376e-09).transl(-1.285999034976832e-08, -4e-08, 0))
hIsland = hIsland.sub(rect(7.336677408276309e-09, -4.986902227889013e-10).transl(1.0183120223327242e-08, -4e-08, 0))
hIsland = hIsland.add(rect(8.329388644802249e-09, 4.082454152353421e-09).transl(-8.30018416732114e-08, -1.7202144022726632e-08, 0))
hIsland = hIsland.add(rect(7.583056574047052e-09, 8.127041541074307e-10).transl(-5.124852457387397e-08, -3.547967429623362e-08, 0))
hIsland = hIsland.add(rect(9.354468205108874e-09, 2.3205824591565236e-09).transl(-7.993359877522056e-08, -2.0399023690251262e-08, 0))
hIsland = hIsland.sub(rect(8.360999142842712e-09, -1.3445496900970551e-09).transl(-6.496971401122168e-08, -3.031646847869599e-08, 0))
hIsland = hIsland.add(rect(4.628278618103705e-09, 1.355877600293153e-09).transl(-3.1924503066756745e-09, -4e-08, 0))
hIsland = hIsland.sub(rect(9.036024187811538e-09, -6.083918076535119e-10).transl(6.685203177955825e-08, -2.9383999756150527e-08, 0))
hIsland = hIsland.add(rect(5.999042633184604e-09, 2.2967949740325496e-09).transl(1.580137362570799e-08, -4e-08, 0))
hIsland = hIsland.add(rect(7.108840892727067e-09, 8.455474101000271e-10).transl(5.138210235689252e-08, -3.544094044955284e-08, 0))
hIsland = hIsland.sub(rect(8.069029147860183e-09, -8.302267585023477e-10).transl(-2.104748292605153e-08, -3.996415387575172e-08, 0))
hIsland = hIsland.sub(rect(9.9237976748743e-09, -3.4322995404681928e-09).transl(-2.5533740883354414e-08, -3.9780426464820434e-08, 0))
hIsland = hIsland.add(rect(7.582841529394141e-09, 1.2261092475991885e-09).transl(3.2384047731686005e-08, -3.919364386477665e-08, 0))
hIsland = hIsland.add(rect(2.7934279421785074e-09, 3.822581307945396e-09).transl(2.075415970218471e-08, -3.997072464314869e-08, 0))
hIsland = hIsland.sub(rect(7.3966151363755095e-09, -2.9192858649096188e-09).transl(2.787733356134792e-08, -3.962181669932486e-08, 0))
hIsland = hIsland.add(rect(9.096288186014967e-09, 3.5509510660234682e-09).transl(-7.792988025817977e-08, -2.2169447418453604e-08, 0))
hIsland = hIsland.add(rect(4.398394645487345e-09, 1.4963867410702528e-09).transl(1.1903241810524502e-08, -4e-08, 0))
hIsland = hIsland.sub(rect(2.1244440496627785e-09, -1.6232977242593732e-09).transl(-8.216973123876047e-08, -1.8140786805125835e-08, 0))
hIsland = hIsland.add(rect(9.763110998688376e-09, 1.475336413788338e-09).transl(-1.881930861937398e-08, -3.999741015298821e-08, 0))
hIsland = hIsland.add(rect(6.491022808688178e-09, 3.2996270099701935e-10).transl(-7.665959358216216e-08, -2.319437512149029e-08, 0))
hIsland = hIsland.add(rect(5.756256485060878e-09, 8.89125257612893e-12).transl(8.202360235176765e-08, -1.8299449680576585e-08, 0))
hIsland = hIsland.sub(rect(4.625475720783009e-09, -1.8126326253061724e-09).transl(7.096019446712018e-08, -2.7098459035529144e-08, 0))
hIsland = hIsland.add(rect(4.7309900055719684e-09, 1.1026616801936071e-10).transl(-7.504417147695769e-08, -2.4406299154690053e-08, 0))
hIsland = hIsland.add(rect(8.062195444506273e-09, 6.596846377349622e-10).transl(-7.105713327167193e-08, -2.703986887816141e-08, 0))
hIsland = hIsland.add(rect(9.134389326253895e-09, 1.868196761172099e-09).transl(7.054059333034023e-08, -2.7349397111732635e-08, 0))
hIsland = hIsland.sub(rect(6.765607676117921e-09, -1.6749861473396602e-10).transl(4.0289197075688427e-08, -3.803503783356008e-08, 0))
hIsland = hIsland.sub(rect(3.5374049928385632e-09, -8.926181261305085e-10).transl(4.310564388622261e-08, -3.7489532057720375e-08, 0))
hIsland = hIsland.sub(rect(8.784497404788816e-09, -2.8112231241198897e-09).transl(7.675638014546489e-08, -2.3118640548331756e-08, 0))
hIsland = hIsland.add(rect(7.190241543748019e-09, 1.775531072063312e-09).transl(-1.6141215894644654e-08, -4e-08, 0))
hIsland = hIsland.add(rect(8.534994448056239e-09, 8.237509476867891e-11).transl(3.890874783408219e-08, -3.827622260996078e-08, 0))
hIsland = hIsland.add(rect(9.56866523329702e-09, 1.027629543443587e-09).transl(-2.025604964970635e-08, -3.998035875793239e-08, 0))
hIsland = hIsland.sub(rect(6.181494834023523e-09, -1.5900510665860012e-09).transl(7.78273835399905e-09, -4e-08, 0))
hIsland = hIsland.add(rect(6.883076105146786e-09, 2.110536837735339e-10).transl(2.8495742430080764e-08, -3.95727154992943e-08, 0))
hIsland = hIsland.sub(rect(9.24419139496946e-09, -5.562335766240139e-10).transl(2.9155017866056256e-08, -3.951701296538191e-08, 0))
hIsland = hIsland.sub(rect(5.689496260510885e-09, -7.061188172164671e-10).transl(6.190157358349821e-08, -3.1703934390404575e-08, 0))
hIsland = hIsland.sub(rect(4.0126423116512685e-09, -4.889600237551878e-11).transl(6.473802088600713e-08, -3.04267862600871e-08, 0))
hIsland = hIsland.sub(rect(7.735039538040015e-09, -6.529590792240111e-10).transl(-6.794920037806211e-08, -2.880906376146937e-08, 0))
hIsland = hIsland.add(rect(8.938298837706714e-09, 2.4975054561188504e-09).transl(2.1980896512502906e-08, -3.993881301269721e-08, 0))
hIsland = hIsland.sub(rect(9.180385521069252e-09, -5.20344989597572e-09).transl(2.622664261771827e-08, -3.9738040173146115e-08, 0))
hIsland = hIsland.sub(rect(8.91587481857694e-09, -1.3720848642120333e-09).transl(-5.5291573243168775e-08, -3.421671386517545e-08, 0))
hIsland = hIsland.add(rect(3.765799728442312e-09, 2.2408372661255658e-09).transl(7.994339641919216e-08, -2.0389839820806654e-08, 0))
hIsland = hIsland.add(rect(6.9897289615812305e-09, 6.562108413582733e-10).transl(2.6217652911653354e-08, -3.9738614258117136e-08, 0))
hIsland = hIsland.add(rect(8.859546465886927e-09, 1.8460961535684446e-10).transl(8.417488287488502e-08, -1.5761385033604962e-08, 0))
hIsland = hIsland.add(rect(2.9930725712507702e-09, 5.622334648201899e-10).transl(-4.3902904012156936e-08, -3.732175566071128e-08, 0))
hIsland = hIsland.sub(rect(4.181261194365631e-09, -1.0698551620301171e-09).transl(8.375815366436579e-08, -1.629081035595216e-08, 0))
hIsland = hIsland.sub(rect(6.766772695424967e-09, -2.5374684735375507e-09).transl(-2.8769745428473006e-09, -4e-08, 0))
hIsland = hIsland.sub(rect(7.1658671522105675e-09, -1.827289614590314e-09).transl(-8.719276280115264e-08, -1.106046200371513e-08, 0))
hIsland = hIsland.sub(rect(6.4587188310690476e-09, -2.602930542879396e-10).transl(-1.9582086860247062e-08, -3.9990342202785345e-08, 0))
hIsland = hIsland.add(rect(9.040617735373936e-09, 1.1842000339637796e-09).transl(5.881661306631208e-08, -3.295153613850702e-08, 0))
hIsland = hIsland.sub(rect(8.470040928322873e-09, -3.038434102644383e-10).transl(-8.593910618153517e-08, -1.3243655029304154e-08, 0))
hIsland = hIsland.add(rect(5.848169345257697e-09, 3.208032903511911e-09).transl(-6.825054920496585e-09, -4e-08, 0))
hIsland = hIsland.sub(rect(3.926191036531148e-09, -2.964582971317555e-10).transl(6.976376786069235e-08, -2.780283501434121e-08, 0))
hIsland = hIsland.sub(rect(2.2100567380832567e-09, -1.4846897060825366e-09).transl(8.961539125418716e-08, -4.1289304323684e-09, 0))
hIsland = hIsland.add(rect(2.160848828069893e-09, 6.13680588511758e-11).transl(-6.529027587069652e-08, -3.016226593680278e-08, 0))
hIsland = hIsland.add(rect(9.369402582874768e-09, 1.0217140598190585e-09).transl(-4.722735602061773e-08, -3.655606914551431e-08, 0))
hIsland = hIsland.add(rect(3.736732684023418e-09, 7.468066906337285e-10).transl(-8.903770818483803e-08, -6.517877027074148e-09, 0))
hIsland = hIsland.add(rect(8.726218343133962e-09, 1.4194468771133935e-10).transl(-1.678409132061809e-08, -4e-08, 0))
hIsland = hIsland.add(rect(2.4908170882848773e-09, 1.404547238479378e-09).transl(5.310057640939701e-08, -3.492474067229685e-08, 0))
hIsland = hIsland.add(rect(2.808139485783734e-09, 1.6426125933385056e-09).transl(8.508439040332351e-08, -1.452631248415044e-08, 0))
hIsland = hIsland.add(rect(2.507907462518765e-09, 3.695130319463997e-09).transl(-1.3975619944266625e-08, -4e-08, 0))
hIsland = hIsland.add(rect(7.914428895650623e-09, 2.9963865657803913e-09).transl(9.451705963766117e-09, -4e-08, 0))
hIsland = hIsland.add(rect(7.036893041480507e-09, 1.0311719614443638e-09).transl(-8.53593454646221e-09, -4e-08, 0))
hIsland = hIsland.add(rect(6.1923180184400195e-09, 1.3879847968218611e-09).transl(-3.670290332949061e-08, -3.862690087634559e-08, 0))
hIsland = hIsland.add(rect(6.9322396252038234e-09, 2.9967159888355705e-09).transl(-5.1967716002404854e-08, -3.5268783934815945e-08, 0))
hIsland = hIsland.add(rect(6.122878884933429e-09, 3.0815483791900336e-09).transl(3.553024934125171e-08, -3.8796280041675155e-08, 0))
hIsland = hIsland.sub(rect(7.457443093942474e-09, -2.4227275217818844e-09).transl(4.756792542602233e-08, -3.6471440653389315e-08, 0))
hIsland = hIsland.sub(rect(8.061274041855726e-09, -7.596491794648303e-10).transl(-2.7903783866769798e-08, -3.961977879734708e-08, 0))
hIsland = hIsland.add(rect(8.453478195431104e-09, 3.136149263817248e-09).transl(-2.8243544344478583e-08, -3.9593107172523195e-08, 0))
hIsland = hIsland.sub(rect(8.202911327651346e-09, -3.575849745549567e-09).transl(-1.8249687264392332e-08, -3.999975947562716e-08, 0))
hIsland = hIsland.sub(rect(9.497874133768718e-09, -8.527961220661342e-10).transl(6.48540723850859e-08, -3.0371648069553994e-08, 0))
hIsland = hIsland.add(rect(5.414172086815143e-09, 2.4181286331771425e-09).transl(3.696143872442573e-08, -3.858797804816459e-08, 0))
hIsland = hIsland.add(rect(9.521987450092688e-09, 2.5345897226576317e-09).transl(3.263230808378652e-08, -3.916527010962156e-08, 0))
hIsland = hIsland.sub(rect(2.272568632428989e-09, -8.030720624975268e-10).transl(-1.5461270708118494e-08, -4e-08, 0))
hIsland = hIsland.add(rect(9.143518968815795e-09, 9.269125478385842e-11).transl(-1.4798693892422939e-08, -4e-08, 0))
hIsland = hIsland.add(rect(3.703402297500503e-09, 1.7340283742254417e-09).transl(7.130344902204189e-08, -2.688993525486206e-08, 0))
hIsland = hIsland.add(rect(8.646746155180062e-09, 3.7918523758378775e-09).transl(3.8505893201180645e-08, -3.834343000695267e-08, 0))
hIsland = hIsland.add(rect(7.624894619611756e-09, 3.1303466089563033e-09).transl(5.645163662005862e-08, -3.3818102945052233e-08, 0))
hIsland = hIsland.sub(rect(8.303746698551064e-09, -7.710563838966055e-11).transl(6.372602164906189e-08, -3.0897735264750294e-08, 0))
hIsland = hIsland.add(rect(8.585707713023503e-09, 3.5278289886657824e-10).transl(-8.11040375654056e-08, -1.92600818792399e-08, 0))
hIsland = hIsland.add(rect(3.0392545881521784e-09, 5.75211614150741e-10).transl(-4.316844944258718e-08, -3.7476532379807954e-08, 0))
hIsland = hIsland.add(rect(6.060046580132949e-09, 2.0348423926498814e-10).transl(-8.547374698635782e-08, -1.3958641153277731e-08, 0))
hIsland = hIsland.sub(rect(2.6757726533721194e-09, -7.120284788317192e-10).transl(-4.425410881985874e-09, -4e-08, 0))
hIsland = hIsland.sub(rect(6.741732859367699e-09, -2.7604690111109334e-09).transl(-3.826936345557919e-08, -3.838222689060635e-08, 0))
hIsland = hIsland.sub(rect(9.074904229041447e-09, -6.45419429358595e-10).transl(-5.964518639381177e-08, -3.262997963617199e-08, 0))
hIsland = hIsland.add(rect(7.154162691154236e-09, 2.492506618022013e-09).transl(-3.4472890568245246e-08, -3.893903067588292e-08, 0))
hIsland = hIsland.sub(rect(2.1131150450746328e-09, -3.479242026704945e-10).transl(2.4665587047820755e-08, -3.982821890809749e-08, 0))
hIsland = hIsland.add(rect(2.8062891366560712e-09, 1.3073221392121829e-09).transl(4.813012826588889e-09, -4e-08, 0))
hIsland = hIsland.sub(rect(2.8221479278410717e-09, -1.5183051252448733e-10).transl(-5.758138996191621e-08, -3.3413392601604934e-08, 0))
hIsland = hIsland.add(rect(2.090672189773059e-09, 2.493387914396299e-10).transl(-4.607272902029249e-08, -3.683430485292087e-08, 0))
hIsland = hIsland.add(rect(8.722445545020567e-09, 1.1151879854288683e-09).transl(-5.2792143239663204e-08, -3.50198654769238e-08, 0))
hIsland = hIsland.sub(rect(8.344687617747078e-09, -3.647902537871572e-09).transl(-1.3916619902705034e-08, -4e-08, 0))
hIsland = hIsland.sub(rect(6.160751348677823e-09, -3.4644758502848037e-10).transl(-4.1216443537123843e-08, -3.78634516660071e-08, 0))
hIsland = hIsland.add(rect(8.612424538532967e-09, 3.1489776676508747e-09).transl(-3.182271413904991e-09, -4e-08, 0))
hIsland = hIsland.add(rect(3.776104573242836e-09, 4.2862832489044146e-10).transl(-1.8774392164589737e-08, -3.999768634039983e-08, 0))
hIsland = hIsland.add(rect(5.930888885836912e-09, 1.420545222137341e-09).transl(-7.293266173142222e-08, -2.585812833437761e-08, 0))
hIsland = hIsland.sub(rect(6.429751754325987e-09, -1.4394623261846242e-10).transl(-4.96983423140445e-08, -3.591491614940831e-08, 0))
hIsland = hIsland.add(rect(2.866854811134521e-09, 1.5828688181715913e-09).transl(-3.030671375838908e-08, -3.941135073568836e-08, 0))
hIsland = hIsland.sub(rect(4.345676513143012e-09, -3.096160544890118e-10).transl(-2.2309162125484937e-09, -4e-08, 0))
hIsland = hIsland.add(rect(3.860863261495744e-09, 1.5652928342592335e-09).transl(4.283591761457581e-08, -3.754494095657519e-08, 0))
hIsland = hIsland.add(rect(8.099005140771038e-09, 4.6035185977386286e-10).transl(-2.6415504526822138e-08, -3.972583232840928e-08, 0))
hIsland = hIsland.add(rect(5.2557326198003894e-09, 4.062389914365251e-09).transl(-7.716076873841105e-08, -2.2798117221646358e-08, 0))
hIsland = hIsland.sub(rect(7.4224816013965885e-09, -3.5586268739255288e-09).transl(1.4757719287935753e-08, -4e-08, 0))
hIsland = hIsland.add(rect(7.72535665613333e-09, 1.3123989469398793e-09).transl(9.817560739548259e-09, -4e-08, 0))
hIsland = hIsland.sub(rect(7.286955424621651e-09, -3.843322904802998e-10).transl(-8.792617897330123e-08, -9.531129863745547e-09, 0))
hIsland = hIsland.add(rect(8.931013391039042e-09, 2.6624764763017927e-09).transl(-4.774506717007796e-08, -3.642695625057552e-08, 0))
hIsland = hIsland.add(rect(6.808235155541086e-09, 1.510387515393325e-09).transl(8.069961422020747e-08, -1.9663514943919362e-08, 0))
hIsland = hIsland.add(rect(6.409682868271102e-09, 2.7579001397448205e-10).transl(5.223370606642314e-08, -3.518931765236163e-08, 0))
hIsland = hIsland.sub(rect(7.85843227619155e-09, -4.1979797797225863e-10).transl(4.34232145493021e-08, -3.742342041653712e-08, 0))
hIsland = hIsland.add(rect(3.186164364147499e-09, 1.9712210835567124e-09).transl(2.747834820468638e-08, -3.9651883781752153e-08, 0))
hIsland = hIsland.sub(rect(9.557968976604098e-09, -9.864838384490726e-10).transl(6.969002672979451e-08, -2.7845146842437233e-08, 0))
hIsland = hIsland.add(rect(5.774436245570238e-09, 1.7065554255189052e-09).transl(-1.409735186848812e-08, -4e-08, 0))
hIsland = hIsland.sub(rect(5.39529196594578e-09, -2.3634926139780186e-09).transl(-3.3590124904155934e-08, -3.905104290933118e-08, 0))
hIsland = hIsland.add(rect(9.592439027921948e-09, 4.0905122113740385e-10).transl(-6.78107909600934e-08, -2.8882932633464038e-08, 0))
hIsland = hIsland.add(rect(8.760411577856993e-09, 9.172843435509353e-10).transl(6.535205676552959e-08, -3.0132335283752714e-08, 0))
hIsland = hIsland.sub(rect(8.488108083342441e-09, -3.6163193066766143e-09).transl(4.249364371664116e-08, -3.761427615717008e-08, 0))
hIsland = hIsland.add(rect(8.120424647210695e-09, 4.129235624803381e-09).transl(1.6326372495362718e-08, -4e-08, 0))
hIsland = hIsland.add(rect(8.042477706371569e-09, 1.617633304822168e-10).transl(-1.506973319721075e-08, -4e-08, 0))
hIsland = hIsland.add(rect(8.751766782002048e-09, 9.031679382343508e-10).transl(6.941304886884116e-08, -2.800296724803447e-08, 0))
hIsland = hIsland.add(rect(9.817211703612806e-09, 9.47454853835388e-10).transl(1.1568999436894392e-08, -4e-08, 0))
hIsland = hIsland.sub(rect(6.259699448205643e-09, -8.642365251925956e-10).transl(6.995214278433046e-08, -2.7694178980765715e-08, 0))
hIsland = hIsland.add(rect(3.330542973622854e-09, 2.283081018069146e-09).transl(-1.714825730144163e-08, -4e-08, 0))
hIsland = hIsland.add(rect(9.57738213076884e-09, 2.2802353777112893e-09).transl(-7.863074549597915e-08, -2.1573250902604596e-08, 0))
hIsland = hIsland.sub(rect(4.326359411954838e-09, -5.010002586631701e-10).transl(-5.3562461803100027e-08, -3.4780224046477396e-08, 0))
hIsland = hIsland.add(rect(3.913744036316829e-09, 2.0150013868428377e-09).transl(6.085206750443721e-08, -3.214406378483349e-08, 0))
hIsland = hIsland.sub(rect(6.4451011161656535e-09, -4.5297957892401536e-10).transl(3.622116505500434e-08, -3.869790063546167e-08, 0))
hIsland = hIsland.add(rect(6.385888232375135e-09, 5.341171785109919e-10).transl(8.036871536885182e-08, -1.9985668810171464e-08, 0))
hIsland = hIsland.sub(rect(4.861219695336145e-09, -2.852353280041801e-09).transl(-7.272059210812235e-08, -2.599653822714124e-08, 0))
hIsland = hIsland.sub(rect(9.502505989490803e-09, -1.5477165616151488e-09).transl(6.409735827037429e-08, -3.072696146132761e-08, 0))
hIsland = hIsland.add(rect(5.069662245014126e-09, 2.750682772363703e-09).transl(-8.404193828638327e-08, -1.5932558358821936e-08, 0))
hIsland = hIsland.add(rect(5.037647607418071e-09, 5.462241045141805e-09).transl(5.949707383003196e-08, -3.268816782734867e-08, 0))
hIsland = hIsland.add(rect(8.054890451715775e-09, 2.2595929245853726e-09).transl(-1.983934700484475e-08, -3.9986945410599934e-08, 0))
hIsland = hIsland.sub(rect(5.818332543611208e-09, -2.7700872164205504e-09).transl(1.0765055047471027e-08, -4e-08, 0))
hIsland = hIsland.sub(rect(8.314117759082342e-09, -2.7273057490241556e-09).transl(-1.1629672230332406e-08, -4e-08, 0))
hIsland = hIsland.sub(rect(6.72262651218717e-09, -7.596520757513736e-10).transl(6.961360036840569e-08, -2.7888868177341323e-08, 0))
hIsland = hIsland.add(rect(5.212291621244215e-09, 2.2258152185783237e-09).transl(1.1265207316904061e-08, -4e-08, 0))
hIsland = hIsland.sub(rect(5.460610670557516e-09, -5.855087856995153e-11).transl(1.3003815545896514e-08, -4e-08, 0))
hIsland = hIsland.sub(rect(4.9872699998202804e-09, -8.754481556346457e-10).transl(-2.9515691173759123e-08, -3.948506850458684e-08, 0))
hIsland = hIsland.add(rect(2.0913324355545847e-09, 1.4072655133947378e-09).transl(-8.619112061962691e-08, -1.2837674453831593e-08, 0))
hIsland = hIsland.add(rect(9.463574512700579e-09, 4.570819059099868e-09).transl(-3.886834022451886e-09, -4e-08, 0))
hIsland = hIsland.sub(rect(2.967696115343718e-09, -2.9046636703531157e-10).transl(8.843785711840366e-08, -8.287061992733303e-09, 0))
hIsland = hIsland.sub(rect(3.5947535064529614e-09, -2.00045072111232e-09).transl(-6.44929967466244e-08, -3.054242775322922e-08, 0))
hIsland = hIsland.sub(rect(7.924632139026499e-09, -4.065843094706762e-11).transl(2.5502433409632275e-08, -3.9782252591776855e-08, 0))
hIsland = hIsland.sub(rect(9.966265841812089e-09, -1.8227440104208515e-10).transl(-3.451517653675921e-08, -3.893350196548208e-08, 0))
hIsland = hIsland.add(rect(3.6709630431783147e-09, 3.705298757599242e-09).transl(2.969704691284787e-08, -3.9468611898064935e-08, 0))
hIsland = hIsland.sub(rect(3.7308190122087605e-09, -3.6921389623609695e-09).transl(2.3544678984003654e-08, -3.988121457808882e-08, 0))
hIsland = hIsland.sub(rect(7.876833832220468e-09, -2.4083367715078864e-09).transl(1.5260233358776174e-08, -4e-08, 0))
hIsland = hIsland.sub(rect(6.607546101913452e-09, -1.1229958101314486e-09).transl(2.556492865759434e-08, -3.9778599674956705e-08, 0))
hIsland = hIsland.add(rect(8.556981613530553e-09, 8.324109348097162e-11).transl(1.2119561694314933e-08, -4e-08, 0))
hIsland = hIsland.add(rect(2.7442614634660965e-09, 2.3084545039748415e-09).transl(-2.809899245455257e-08, -3.9604566825000797e-08, 0))
hIsland = hIsland.add(rect(5.6368209338469215e-09, 1.319861018835495e-09).transl(7.033871122816806e-08, -2.746860894660022e-08, 0))
hIsland = hIsland.add(rect(3.844421939463095e-09, 2.7066359080067117e-11).transl(-2.8407205342289667e-08, -3.9579931927789646e-08, 0))
hIsland = hIsland.sub(rect(5.704490839028263e-09, -2.481117422659569e-09).transl(8.848713500392198e-09, -4e-08, 0))
hIsland = hIsland.sub(rect(4.9403824146243905e-09, -1.1810392274283244e-09).transl(1.1688828667958408e-08, -4e-08, 0))
hIsland = hIsland.sub(rect(7.685556552529394e-09, -6.076869371536664e-10).transl(3.095134339290176e-08, -3.934754413846091e-08, 0))
hIsland = hIsland.sub(rect(9.379334615154879e-09, -3.532079868601323e-09).transl(2.264585375839018e-08, -3.9916641702828553e-08, 0))
hIsland = hIsland.add(rect(5.956017492686712e-09, 5.428011423217342e-10).transl(-4.2124356983207484e-08, -3.7687864406226165e-08, 0))
hIsland = hIsland.add(rect(9.372538044852159e-09, 7.150830558159904e-11).transl(-2.9000292380910725e-08, -3.953039761574363e-08, 0))
hIsland = hIsland.add(rect(4.4693838396359895e-09, 2.186614880728582e-10).transl(-3.929667597675388e-08, -3.821015471785066e-08, 0))
hIsland = hIsland.add(rect(2.3019176240704615e-09, 7.861127541702002e-10).transl(-3.4407544333574644e-08, -3.894754500631675e-08, 0))
hIsland = hIsland.sub(rect(7.910773633664962e-09, -8.921240572198735e-10).transl(4.568927222693978e-08, -3.692377953190194e-08, 0))
hIsland = hIsland.sub(rect(7.4019192180305684e-09, -7.439920235941573e-10).transl(-5.606495402464625e-08, -3.3952850728064236e-08, 0))
hIsland = hIsland.sub(rect(5.638716684497721e-09, -2.544957179960506e-09).transl(-5.721843875167237e-08, -3.3545224963690526e-08, 0))
hIsland = hIsland.add(rect(7.90719016761009e-09, 1.6909047522535904e-09).transl(6.359621016413132e-08, 3.095688767707004e-08, 0))
hIsland = hIsland.sub(rect(5.2016287401669905e-09, -1.032258789446652e-09).transl(3.815354788376735e-09, 4e-08, 0))
hIsland = hIsland.add(rect(2.224693528146827e-09, 1.2452449776267061e-09).transl(-7.1262052923904095e-09, 4e-08, 0))
[...]
hIsland = hIsland.sub(rect(3.725778205940996e-09, -6.312940307235332e-10).transl(-5.337713443502614e-08, 3.48385090925545e-08, 0))
hIsland = hIsland.add(rect(9.890298204615896e-09, 3.635950931076076e-09).transl(-1.882626893522065e-08, 3.999736596129264e-08, 0))
hIsland = hIsland.add(rect(9.396111826773955e-09, 2.8222153097163244e-09).transl(4.45846096000854e-08, 3.7173510964271554e-08, 0))
hIsland = hIsland.sub(rect(3.976435683364868e-09, -3.0195723934403445e-09).transl(-7.024816518760476e-08, 2.7521760383515518e-08, 0))
hIsland = hIsland.sub(rect(2.171462631965981e-09, -1.8164958384957923e-09).transl(-1.3168006406356643e-08, 4e-08, 0))
hIsland = hIsland.add(rect(6.397478446486859e-09, 1.5072972304083216e-09).transl(-2.575887868914739e-08, 3.9767067930852085e-08, 0))
hIsland = hIsland.sub(rect(5.349326188660286e-09, -1.3658673676197467e-09).transl(-9.904600734563184e-09, 4e-08, 0))
hIsland = hIsland.sub(rect(4.000859470769073e-09, -6.979539033159106e-10).transl(-2.3174314134000937e-08, 3.989657335932049e-08, 0))
hIsland = hIsland.add(rect(2.279838241418366e-09, 9.4451420544435e-10).transl(-4.737332929738053e-08, 3.651994012234135e-08, 0))
hIsland = hIsland.add(rect(5.539060145538403e-09, 2.9353069792575107e-09).transl(8.337301151684587e-08, 1.676240433653426e-08, 0))
hIsland = hIsland.sub(rect(7.697588496049182e-09, -3.359115256366313e-09).transl(-8.058039772470034e-08, 1.9780382323964266e-08, 0))
hIsland = hIsland.add(rect(7.946461469095514e-09, 3.2500725819748115e-09).transl(-2.8234672468808016e-08, 3.959381529618876e-08, 0))
hIsland = hIsland.sub(rect(7.212252798959259e-09, -1.1366686255044302e-09).transl(8.813698406955775e-08, 9.040434983979981e-09, 0))
hIsland = hIsland.sub(rect(8.476567089746e-09, -2.175611593153931e-10).transl(-1.47302745987666e-08, 4e-08, 0))
hIsland = hIsland.add(rect(2.96526583089742e-09, 3.938578702558371e-10).transl(5.037942809050422e-08, 3.572689893583774e-08, 0))
hIsland = hIsland.add(rect(5.975213278140108e-09, 2.1650895322001947e-09).transl(-7.728960585270143e-08, 2.269458138018876e-08, 0))
hIsland = hIsland.sub(rect(5.828157814341952e-09, -1.723492694128637e-09).transl(-3.044862900753723e-09, 4e-08, 0))
hIsland = hIsland.sub(rect(3.1066792763572533e-09, -1.0924451469309362e-10).transl(-6.617064497199708e-08, 2.9729173449773754e-08, 0))
hIsland = hIsland.add(rect(2.108784696278864e-09, 2.9789394885389423e-09).transl(6.222507514050916e-09, 4e-08, 0))
hIsland = hIsland.add(rect(3.768783580783603e-09, 1.1651796908630426e-09).transl(-2.1117747212772572e-08, 3.996248106274821e-08, 0))
hIsland = hIsland.add(rect(2.6743110426802324e-09, 2.2114469641768224e-09).transl(-7.223045447038561e-08, 2.6311628466757143e-08, 0))
hIsland = hIsland.sub(rect(5.801370977167104e-09, -2.7626843222196863e-09).transl(-7.356861492983503e-08, 2.5435278763878504e-08, 0))
hIsland = hIsland.sub(rect(3.2346595859881816e-09, -1.4262719976225641e-09).transl(-4.751276719634583e-08, 3.648522689540727e-08, 0))
hIsland = hIsland.add(rect(7.736010171878811e-09, 1.9335331305631826e-10).transl(7.190080051044349e-09, 4e-08, 0))
hIsland = hIsland.sub(rect(3.932882079407288e-09, -1.1414744132325362e-09).transl(-6.213276800292001e-09, 4e-08, 0))
hIsland = hIsland.sub(rect(4.674985913114297e-09, -1.0281202989230841e-09).transl(3.695749041827549e-08, 3.858857678570156e-08, 0))
hIsland = hIsland.sub(rect(4.483159387694736e-09, -2.492682989669041e-09).transl(3.535120309550583e-09, 4e-08, 0))
hIsland = hIsland.add(rect(5.122033794919054e-09, 2.5039933523898625e-09).transl(6.028872915206077e-08, 3.237351162842002e-08, 0))
hIsland = hIsland.sub(rect(4.368094853601338e-09, -2.609534331559374e-09).transl(-4.506883912954558e-08, 3.706549903311297e-08, 0))
hIsland = hIsland.add(rect(4.420831719483353e-09, 6.4304001978300894e-12).transl(-8.502498879419125e-08, 1.4610697893803481e-08, 0))
hIsland = hIsland.sub(rect(9.555119542644435e-09, -7.899815282844221e-10).transl(3.7383690772818726e-08, 3.852317136615434e-08, 0))
hIsland = hIsland.sub(rect(8.610575642744488e-09, -1.2331715726036775e-09).transl(-7.77295494354562e-09, 4e-08, 0))
hIsland = hIsland.sub(rect(5.785150197113244e-09, -2.751472748167203e-10).transl(7.163735387966135e-08, 2.6684220315074793e-08, 0))
hIsland = hIsland.sub(rect(9.042050496386467e-09, -3.3249345069361557e-10).transl(8.266540583131132e-08, 1.7589149368744085e-08, 0))
hIsland = hIsland.sub(rect(2.958765292419082e-09, -2.274614526801011e-09).transl(-5.566400595965082e-08, 3.409057767379639e-08, 0))
hIsland = hIsland.add(rect(3.26603058187177e-09, 3.8630029359056486e-09).transl(8.21313099189418e-08, 1.818267293569944e-08, 0))
hIsland = hIsland.sub(rect(7.904252183102591e-09, -2.2596736063744965e-10).transl(-3.9742810492617534e-08, 3.813252634426044e-08, 0))
hIsland = hIsland.add(rect(7.589675923925363e-09, 3.071712388273374e-10).transl(6.970757284872885e-09, 4e-08, 0))
hIsland = hIsland.sub(rect(2.2600875656762735e-09, -2.553394255423146e-09).transl(4.0556419582782034e-08, 3.798638456373436e-08, 0))
hIsland = hIsland.add(rect(2.069970842150359e-09, 1.859614782087354e-09).transl(-7.6406044816358e-09, 4e-08, 0))
hIsland = hIsland.add(rect(7.132240400967479e-09, 3.0830858930063743e-09).transl(3.430219521667749e-08, 3.8961196393577694e-08, 0))
hIsland = hIsland.add(rect(8.503826660037277e-09, 2.3669186915008717e-09).transl(-1.818115081610523e-08, 3.999987339633446e-08, 0))
hIsland = hIsland.add(rect(9.018044301719898e-09, 1.17935877186219e-10).transl(-8.667378103605717e-08, 1.2017371662317447e-08, 0))
hIsland = hIsland.sub(rect(8.490711017154742e-09, -6.409094063681313e-10).transl(2.3916771991777052e-08, 3.9864708738916933e-08, 0))
hIsland = hIsland.sub(rect(9.062280894594177e-09, -4.99055970473395e-09).transl(8.314866670086402e-08, 1.7029850581647823e-08, 0))
hIsland = hIsland.add(rect(6.216042106100472e-09, 2.2375894224714683e-09).transl(5.1353032626233964e-08, 3.544938669232731e-08, 0))
hIsland = hIsland.sub(rect(4.047857693516565e-09, -2.651216516734981e-10).transl(5.358897299344632e-09, 4e-08, 0))
hIsland = hIsland.sub(rect(6.26406848963682e-09, -2.0477287440404414e-11).transl(1.791685882756461e-08, 4e-08, 0))
hIsland = hIsland.sub(rect(4.451520891940709e-09, -1.9799779985284666e-09).transl(4.7270961890092996e-08, 3.654529909319849e-08, 0))
hIsland = hIsland.add(rect(5.845965132109078e-09, 1.5137716775415693e-10).transl(-2.712030322884139e-08, 3.967779204787534e-08, 0))
hIsland = hIsland.sub(rect(5.279064106058603e-09, -2.9153465704297564e-09).transl(2.057607451767958e-08, 3.9974389332341655e-08, 0))
hIsland = hIsland.sub(rect(5.102181654626441e-09, -1.7059916760252953e-09).transl(8.404329636833677e-08, 1.5930820784424243e-08, 0))
hIsland = hIsland.add(rect(6.33647268967153e-09, 1.961547353371374e-10).transl(4.4787111954243914e-08, 3.7128616268778435e-08, 0))
hIsland = hIsland.add(rect(6.820757994294106e-09, 1.808568612192955e-09).transl(5.437606918923417e-08, 3.451954890026509e-08, 0))
hIsland = hIsland.add(rect(4.113181868409503e-09, 6.022367630810702e-11).transl(-8.529741012430467e-08, 1.421895134437432e-08, 0))
hIsland = hIsland.add(rect(6.0084110212744594e-09, 6.514222975988075e-11).transl(4.880266627933264e-09, 4e-08, 0))
hIsland = hIsland.sub(rect(8.18077513473973e-09, -3.12342445277576e-09).transl(5.563154073147579e-08, 3.410164156549514e-08, 0))
hIsland = hIsland.add(rect(8.86522537838026e-09, 4.7908566184861e-09).transl(-8.732204646787952e-08, 1.0807717200308207e-08, 0))
hIsland = hIsland.sub(rect(4.9786062423164315e-09, -4.785538181137104e-10).transl(-8.999818217784507e-08, 2.8423771015589116e-10, 0))
hIsland = hIsland.add(rect(4.408667281208885e-09, 1.3887940809723273e-09).transl(-3.27333462742563e-08, 3.915357743286053e-08, 0))
hIsland = hIsland.add(rect(9.898046592703922e-09, 3.56359185122904e-09).transl(-8.978875395628556e-08, 3.0618523706204427e-09, 0))
hIsland = hIsland.sub(rect(8.665843247594872e-09, -1.6422507571800605e-11).transl(-3.5848479001435756e-08, 3.875147069027246e-08, 0))
hIsland = hIsland.add(rect(8.321692555906958e-09, 9.552167688096708e-10).transl(6.148031142908337e-08, 3.1882609321850205e-08, 0))
hIsland = hIsland.add(rect(7.865811650382718e-09, 4.427278741013967e-09).transl(1.4858594800200996e-08, 4e-08, 0))
hIsland = hIsland.add(rect(9.898725029358938e-09, 6.077756998066353e-10).transl(4.2872512270397526e-08, 3.753746331694875e-08, 0))
hIsland = hIsland.sub(rect(6.1043119417214505e-09, -1.289023299032681e-10).transl(-7.282843395303121e-08, 2.5926313140179073e-08, 0))
hIsland = hIsland.sub(rect(7.177914976274474e-09, -1.4309554959125358e-09).transl(6.729693960110092e-08, 2.9153762997302837e-08, 0))
hIsland = hIsland.sub(rect(7.002700288361602e-09, -1.18431859755653e-09).transl(2.8878797127686916e-08, 3.9540773506107665e-08, 0))
hIsland = hIsland.sub(rect(5.140667955363997e-09, -4.2536484721227096e-10).transl(-8.117193034222682e-08, 1.919126615298171e-08, 0))
hIsland = hIsland.add(rect(8.071907761339376e-09, 1.8380552026879233e-09).transl(5.494871758226964e-08, 3.4331320819412944e-08, 0))
hIsland = hIsland.sub(rect(7.017737735448137e-09, -3.1606029378815407e-09).transl(-5.978295695833453e-08, 3.2575574560834805e-08, 0))
hIsland = hIsland.add(rect(3.680799392392545e-09, 1.6687906642897078e-09).transl(4.695183103256387e-08, 3.662367631224417e-08, 0))
hIsland = hIsland.add(rect(9.98025175766584e-09, 1.2445870570917013e-09).transl(-3.2087397702478277e-09, 4e-08, 0))
hIsland = hIsland.sub(rect(9.321901947859622e-09, -2.7933309126700327e-10).transl(3.3558968174441545e-08, 3.905487793527346e-08, 0))
hIsland = hIsland.add(rect(2.0029193581375218e-09, 7.816677395281101e-10).transl(6.522481934450829e-08, 3.019390236597406e-08, 0))
hIsland = hIsland.sub(rect(4.575994308395239e-09, -1.380802916636183e-09).transl(5.659256466437894e-08, 3.376852007922875e-08, 0))
hIsland = hIsland.sub(rect(4.075909969662567e-09, -2.2765088774681983e-09).transl(-2.4188908574051966e-08, 3.98519536932293e-08, 0))
hIsland = hIsland.add(rect(5.375006403109047e-09, 4.632238602994932e-10).transl(4.234230080705625e-08, 3.764458706936607e-08, 0))
hIsland = hIsland.add(rect(8.359776628810762e-09, 1.0781564900633942e-10).transl(-8.731332451136476e-08, 1.0824968924516212e-08, 0))
hIsland = hIsland.add(rect(8.874238524077157e-09, 2.576296047564241e-10).transl(-4.7559490275125824e-08, 3.647355093913243e-08, 0))
hIsland = hIsland.sub(rect(3.6243170211584364e-09, -3.947959984509355e-09).transl(-5.162766939339119e-08, 3.536921593060723e-08, 0))
hIsland = hIsland.add(rect(3.412976567773172e-09, 1.0077451576045605e-09).transl(5.751298463946373e-08, 3.3438371748790956e-08, 0))
hIsland = hIsland.sub(rect(3.565065390157836e-09, -1.120408612870847e-10).transl(6.931390468251766e-08, 2.8059038211968485e-08, 0))
hIsland = hIsland.sub(rect(2.0704472818652314e-09, -4.416688155074969e-10).transl(1.828311353860921e-08, 3.999969076548776e-08, 0))
hIsland = hIsland.sub(rect(8.285346895769397e-09, -2.422402091685972e-10).transl(8.531487592334597e-08, 1.4193411349929734e-08, 0))
hIsland = hIsland.sub(rect(8.073906835697396e-09, -4.396613983545211e-11).transl(2.2543638943631315e-08, 3.992027295682615e-08, 0))
hIsland = hIsland.sub(rect(7.025372728120428e-09, -1.5565376526763718e-09).transl(-8.202604502138435e-08, 1.8296811762004267e-08, 0))
hIsland = hIsland.add(rect(9.462613683646683e-09, 5.112379275656674e-10).transl(2.934067766212739e-11, 4e-08, 0))
hIsland = hIsland.sub(rect(3.080464209887649e-09, -6.533974584084026e-10).transl(-8.018340534890944e-08, 2.0163101148020754e-08, 0))
hIsland = hIsland.add(rect(7.333187367315996e-09, 3.0729526585753072e-09).transl(-7.113281153218591e-08, 2.6993965596157732e-08, 0))
hIsland = hIsland.add(rect(5.223045331175795e-09, 1.6759376030302897e-09).transl(-4.653289392303627e-08, 3.672501235146218e-08, 0))
hIsland = hIsland.sub(rect(8.07814243216561e-09, -1.7777141378545908e-10).transl(-3.875192890990599e-08, 3.830255385273183e-08, 0))
hIsland = hIsland.sub(rect(9.719823602693654e-09, -1.848022431901535e-09).transl(2.4263506950550544e-08, 3.984835638245122e-08, 0))
hIsland = hIsland.add(rect(7.73820314693251e-09, 1.8800402795845217e-09).transl(6.195777873080925e-08, 3.167988851191771e-08, 0))
hIsland = hIsland.add(rect(3.92916355054558e-09, 1.086132487452135e-09).transl(5.533769162262542e-08, 3.420118754839204e-08, 0))
hIsland = hIsland.sub(rect(6.186427851706329e-09, -1.5175298871941632e-09).transl(8.537241830497777e-08, 1.4108893654939363e-08, 0))
hIsland = hIsland.add(rect(8.837381009851743e-09, 4.970411257415934e-10).transl(-8.174366655503131e-08, 1.8598627439408893e-08, 0))
hIsland = hIsland.sub(rect(5.160908311708809e-09, -4.739643227602673e-09).transl(-7.739714170157375e-08, 2.2607627070395178e-08, 0))
hIsland = hIsland.sub(rect(9.198185288988026e-09, -3.412216812058172e-09).transl(-1.0571064138806336e-08, 4e-08, 0))
hIsland = hIsland.add(rect(6.284059670317348e-09, 4.154947218554426e-09).transl(-8.006588733485736e-08, 2.0274547911240423e-08, 0))
hIsland = hIsland.add(rect(9.487262900307285e-09, 1.2242265451663818e-09).transl(-7.58915205175784e-09, 4e-08, 0))
hIsland = hIsland.add(rect(9.003977168917931e-09, 6.888493092139881e-10).transl(-3.7705104296379766e-08, 3.847280932030493e-08, 0))
hIsland = hIsland.add(rect(9.736137569859808e-09, 1.5329821396322352e-10).transl(-2.4534324313122998e-08, 3.9834931804944866e-08, 0))
hIsland = hIsland.sub(rect(6.3749943454739645e-09, -1.4767040628957819e-09).transl(-2.8696470089184303e-08, 3.955612330909329e-08, 0))
hIsland = hIsland.sub(rect(6.325708961441336e-09, -3.3765319439082587e-10).transl(-4.9896191561821076e-08, 3.586081187521086e-08, 0))
hIsland = hIsland.sub(rect(2.755410869781373e-09, -1.0602127817179065e-09).transl(2.399901553727218e-08, 3.9860914875953545e-08, 0))
hIsland = hIsland.add(rect(9.29127536973564e-09, 1.7823828500938026e-09).transl(6.958753972962867e-08, 2.790374628950177e-08, 0))
hIsland = hIsland.sub(rect(9.71672310492598e-09, -7.169639599297808e-10).transl(-8.683858294024775e-08, 1.1722742205142108e-08, 0))
hIsland = hIsland.sub(rect(3.4340383457812744e-09, -1.8253192873317335e-09).transl(-4.0416785759130334e-08, 3.801188782631217e-08, 0))
hIsland = hIsland.add(rect(4.664733411791809e-09, 2.232457645054739e-09).transl(-5.1343643557414114e-08, 3.545211269504275e-08, 0))
hIsland = hIsland.sub(rect(3.009511111498401e-09, -1.3457088166333385e-09).transl(-8.398000539940808e-08, 1.6011559168436594e-08, 0))
hIsland = hIsland.sub(rect(4.612528669663884e-09, -5.190325769305276e-10).transl(1.97875638542868e-09, 4e-08, 0))
hIsland = hIsland.add(rect(2.1624929412501573e-09, 5.224396508778353e-10).transl(4.781168699939279e-08, 3.641014357312403e-08, 0))
hIsland = hIsland.add(rect(7.315391470846432e-09, 1.2076315104839557e-09).transl(-4.0068232634213384e-08, 3.8074784713617826e-08, 0))
hIsland = hIsland.sub(rect(6.137874482588953e-09, -2.437985406137219e-09).transl(-4.139063555145126e-08, 3.783034809767294e-08, 0))
hIsland = hIsland.sub(rect(8.508797494562722e-09, -2.2880124445912903e-09).transl(8.260643084503873e-08, 1.765591123920822e-08, 0))
hIsland = hIsland.sub(rect(2.3157342924424374e-09, -3.2419826078920173e-09).transl(-4.510907958895453e-08, 3.705642096207397e-08, 0))
hIsland = hIsland.sub(rect(3.73219931328909e-09, -1.5109539379721688e-09).transl(-4.558469547535518e-09, 4e-08, 0))
hIsland = hIsland.add(rect(3.012305248013405e-09, 1.7182840787319332e-11).transl(2.225090304996945e-08, 3.99302239532502e-08, 0))
hIsland = hIsland.add(rect(7.992231905063592e-09, 3.20862873470665e-09).transl(8.696413625796587e-09, 4e-08, 0))
hIsland = hIsland.add(rect(4.292769087758891e-09, 1.8747903043785718e-09).transl(5.907481674814419e-08, 3.285236066976073e-08, 0))
hIsland = hIsland.sub(rect(4.882884539740981e-09, -7.435424412052998e-10).transl(-1.8943737392387735e-08, 3.999656374026495e-08, 0))
hIsland = hIsland.add(rect(2.0762813223410418e-09, 1.1217938349911596e-09).transl(-6.110781241991441e-08, 3.203834753010389e-08, 0))
hIsland = hIsland.sub(rect(9.379586989549186e-09, -8.179679033233031e-10).transl(-1.7926971864917373e-08, 4e-08, 0))
hIsland = hIsland.sub(rect(8.83794076668981e-09, -1.7733272197424707e-09).transl(-2.2486062657003402e-08, 3.99222826863407e-08, 0))
hIsland = hIsland.sub(rect(7.185964162807065e-09, -1.601850060577074e-10).transl(-4.03936513591956e-08, 3.801609624494034e-08, 0))
hIsland = hIsland.add(rect(2.0812662111972547e-09, 3.7254565993631994e-10).transl(7.885852187306056e-08, 2.1374384081994804e-08, 0))
hIsland = hIsland.add(rect(2.0267230158735785e-09, 1.613677707158532e-09).transl(-8.160536855017557e-08, 1.8744193270367617e-08, 0))
hIsland = hIsland.sub(rect(5.950343692680115e-09, -4.254309727227195e-11).transl(3.320510806583969e-08, 3.909786979414819e-08, 0))
hIsland = hIsland.sub(rect(9.316010966976855e-09, -1.5551048723642062e-09).transl(2.7877467546531008e-08, 3.96218063902403e-08, 0))
hIsland = hIsland.sub(rect(8.512628649671736e-09, -2.009619830488071e-09).transl(7.421945771972265e-08, 2.498995213945391e-08, 0))
hIsland = hIsland.add(rect(7.3025282069802995e-09, 1.1274779594037456e-09).transl(8.428625809766285e-08, 1.5616270276502457e-08, 0))
hIsland = hIsland.sub(rect(6.29318279018859e-09, -1.2055600575316225e-09).transl(-2.601105924211342e-09, 4e-08, 0))
hIsland = hIsland.sub(rect(9.391725965216709e-09, -1.174225511526328e-10).transl(-8.295381879854364e-09, 4e-08, 0))
hIsland = hIsland.add(rect(6.636089081148577e-09, 9.33545981334399e-10).transl(-8.235654066097922e-09, 4e-08, 0))
hIsland = hIsland.sub(rect(2.3707217326776543e-09, -1.461120791618208e-09).transl(-4.751324066286454e-09, 4e-08, 0))
hIsland = hIsland.sub(rect(4.641386012228453e-09, -2.6017002170686783e-09).transl(-8.525926440929007e-08, 1.4274549474212165e-08, 0))
hIsland = hIsland.sub(rect(5.09430595031973e-09, -1.2426177752313081e-09).transl(-3.173141303449597e-08, 3.926582521293943e-08, 0))
hIsland = hIsland.add(rect(3.1934148916620785e-09, 4.254821309744042e-09).transl(-3.58513436971992e-08, 3.87510634191178e-08, 0))
hIsland = hIsland.add(rect(5.7932210470156146e-09, 2.1112846971226353e-09).transl(8.926740757935171e-08, 5.6915742609104136e-09, 0))
hIsland = hIsland.add(rect(3.4164969915798872e-09, 1.6927353344898594e-09).transl(-4.91674511110763e-08, 3.6058037884240424e-08, 0))
hIsland = hIsland.add(rect(7.925418965847427e-09, 2.373611911445798e-09).transl(-3.79201900063798e-08, 3.843860757757755e-08, 0))
hIsland = hIsland.add(rect(2.909409768717686e-09, 1.644044959904003e-09).transl(7.783856682049948e-08, 2.224544564894002e-08, 0))
hIsland = hIsland.sub(rect(2.6057281239013363e-09, -2.1081917803203964e-09).transl(4.159244276468566e-09, 4e-08, 0))
hIsland = hIsland.add(rect(3.139113949687836e-09, 1.7315315658792472e-09).transl(-1.1183504804724846e-08, 4e-08, 0))
hIsland = hIsland.add(rect(9.26734441735572e-09, 2.975016077795197e-09).transl(-8.51050903248396e-08, 1.449677329460884e-08, 0))
hIsland = hIsland.sub(rect(2.7981157744731614e-09, -9.218919710826733e-10).transl(-8.628859288962845e-08, 1.2676751360175542e-08, 0))
hIsland = hIsland.add(rect(6.294951041899386e-09, 2.2637373667891925e-09).transl(-5.911649997082524e-08, 3.283626340633891e-08, 0))
vIsland = hIsland.rotz(pi / 2)
vIslands = vIslands.add(vIsland.transl(0, -a/2, 0))
DefRegion(1, hIslands)
DefRegion(2, vIslands)
TableAdd(m_full.Region(1))
TableAdd(m_full.Region(2))
setgeom(hIslands.add(vIslands))
save(geom)
r2o2 := sqrt(2) / 2
m = RandomMagSeed(4)
B_ext = vector(Bmax*r2o2, Bmax*r2o2, 0)
relax()
minimize()
for B := Bmax; B >= -Bmax; B -= Bstep {
	B_ext = vector(B*r2o2, B*r2o2, 0)
	minimize()
	tablesave()
}
//********************************************************************//
//Please cite the following references, relevant for your simulation. //
//See bibtex file in output folder for justification.                 //
//********************************************************************//
//   * Vansteenkiste et al., AIP Adv. 4, 107133 (2014).
//   * Exl et al., J. Appl. Phys. 115, 17D118 (2014).
