# t (s)	mx ()	my ()	mz ()	B_extx (T)	B_exty (T)	B_extz (T)	m_fullx (A/m)	m_fully (A/m)	m_fullz (A/m)	m_full.region1x (A/m)	m_full.region1y (A/m)	m_full.region1z (A/m)	m_full.region2x (A/m)	m_full.region2y (A/m)	m_full.region2z (A/m)
0	0.6556487	0.6556453	-7.5133666e-10	0.07071067	0.07071067	0	166722.1	166721.23	-0.00019312021	612135.5	305769.66	-0.00054775283	305772.72	612133.8	-0.0005231742
0	0.6555704	0.65556914	-1.238973e-10	0.07056918	0.07056918	0	166702.2	166701.88	-3.5993304e-05	612199.9	305597.62	-0.000107092696	305598.75	612199.25	-7.724719e-05
0	0.6554894	0.6554883	-2.5972388e-10	0.07042789	0.07042789	0	166681.58	166681.33	-6.4333544e-05	612270.44	305413.75	-0.0002247191	305414.7	612269.94	-0.00015427492
0	0.6554079	0.65540695	-7.366866e-11	0.07028639	0.070286386	0	166660.88	166660.62	-1.969069e-05	612340.8	305229.38	-7.724719e-05	305230.3	612340.4	-2.4578652e-05
0	0.6553264	0.6553255	-4.252691e-10	0.07014502	0.07014502	0	166640.16	166639.89	-0.00010706314	612411.2	305044.94	-0.00023876404	305045.84	612410.7	-0.0003335674
0	0.65524423	0.6552434	-3.047204e-10	0.07000352	0.07000352	0	166619.27	166619.03	-8.09949e-05	612481.8	304859.5	-0.0002457865	304860.38	612481.25	-0.0001847788
0	0.65516263	0.65516174	-2.879775e-10	0.06986222	0.06986222	0	166598.52	166598.28	-7.27838e-05	612552	304674.84	-0.00021067416	304675.75	612551.56	-0.00015800561
0	0.6550799	0.6550788	-3.5829759e-10	0.069720745	0.069720745	0	166577.44	166577.19	-9.195632e-05	612623.44	304487.53	-0.00021769662	304488.38	612622.94	-0.00027387642
0	0.6549978	0.6549968	-1.8417165e-10	0.06957926	0.06957926	0	166556.6	166556.34	-4.8349808e-05	612693.9	304302.16	-0.00012816011	304303.06	612693.5	-0.00012333217
0	0.65491587	0.6549149	-1.9568239e-10	0.06943794	0.06943794	0	166535.75	166535.5	-5.3571428e-05	612764	304117.3	-0.00018082865	304118.2	612763.5	-0.0001264045
0	0.6548322	0.6548312	-3.5934403e-10	0.0692964	0.0692964	0	166514.45	166514.2	-9.119898e-05	612835.8	303928.28	-0.00021769662	303929.22	612835.4	-0.00029143257
0	0.6547497	0.65474874	-5.5251498e-11	0.0691551	0.0691551	0	166493.52	166493.25	-1.28746815e-05	612906	303742.75	2.8089888e-05	303743.6	612905.56	-6.627458e-05
0	0.6546669	0.6546659	-1.3059445e-10	0.0690136	0.0690136	0	166472.44	166472.19	-2.9854911e-05	612976.6	303556.16	1.4044944e-05	303557.1	612976.2	-0.0001755618
0	0.65458304	0.65458214	-2.2770313e-10	0.068872124	0.068872124	0	166451.12	166450.89	-5.6122448e-05	613047.8	303367.7	-0.00018960674	303368.53	613047.3	-0.00014044944
0	0.65449995	0.6544989	-3.4176398e-10	0.06873082	0.06873082	0	166429.98	166429.72	-8.928571e-05	613118.9	303180.06	-0.00026685392	303180.94	613118.4	-0.00024622542
0	0.65441644	0.6544154	-3.6164616e-10	0.06858932	0.06858932	0	166408.75	166408.5	-8.928571e-05	613189.7	302992.4	-0.0002633427	302993.28	613189.2	-0.000225158
0	0.6543321	0.6543311	-4.0182907e-10	0.068447955	0.068447955	0	166387.3	166387.05	-0.000104551975	613260.8	302803.22	-0.0002949438	302804.1	613260.4	-0.00030898876
0	0.6542483	0.65424734	-2.6914176e-10	0.06830648	0.06830648	0	166366	166365.75	-6.521046e-05	613332.2	302614.53	-0.00021769662	302615.44	613331.8	-0.00014044944
0	0.6541641	0.65416306	-1.1385157e-10	0.06816515	0.06816515	0	166344.58	166344.33	-2.7582908e-05	613403.44	302425.34	-3.511236e-06	302426.22	613403	-0.00011587079
0	0.6540798	0.65407884	-2.0510026e-10	0.068023674	0.068023674	0	166323.14	166322.89	-5.452806e-05	613474.5	302236.28	-0.000252809	302237.16	613474	-8.426966e-05
0	0.6539955	0.65399444	-2.879775e-10	0.06788219	0.06788219	0	166301.73	166301.47	-8.282845e-05	613545.5	302047.28	-0.00019662922	302048.22	613545	-0.0002247191
0	0.6539104	0.6539094	-2.0217025e-10	0.06774088	0.06774088	0	166280.06	166279.81	-5.2415497e-05	613617.06	301856.56	-0.00014396067	301857.44	613616.6	-0.00016502809
0	0.65382594	0.6538249	-2.2770313e-10	0.067599334	0.067599334	0	166258.6	166258.36	-6.293846e-05	613688.1	301667.3	-0.00015098315	301668.22	613687.6	-0.00016151686
0	0.6537401	0.6537392	-4.4870913e-10	0.06745803	0.06745803	0	166236.8	166236.53	-0.000113958864	613760	301475.28	-0.00035814606	301476.2	613759.6	-0.00027036516
0	0.6536564	0.6536554	-4.6210344e-10	0.06731653	0.06731653	0	166215.48	166215.23	-0.000117865115	613830	301288.06	-0.00044592697	301289	613829.56	-0.00019662922
0	0.65357006	0.65356904	-4.388727e-10	0.06717506	0.06717506	0	166193.52	166193.25	-0.00011033163	613902.25	301094.78	-0.0003107444	301095.7	613901.8	-0.00027387642
0	0.6534839	0.6534829	-2.4193458e-10	0.06703376	0.06703376	0	166171.62	166171.36	-6.25e-05	613974.06	300902.6	-0.00010884831	300903.5	613973.6	-0.000252809
0	0.6533986	0.6533975	-1.9254309e-10	0.066892266	0.066892266	0	166149.89	166149.64	-4.6157526e-05	614045.25	300711.72	-0.0001667837	300712.66	614044.75	-8.426966e-05
0	0.6533122	0.6533112	-5.516778e-10	0.066750884	0.066750884	0	166127.94	166127.69	-0.00014038585	614116.9	300519.28	-0.00029845507	300520.2	614116.3	-0.0004389045
0	0.6532262	0.6532252	-2.3105172e-10	0.06660941	0.06660941	0	166106.08	166105.83	-6.0586735e-05	614188.5	300327.16	-0.00022823033	300328.1	614188	-0.00011587079
0	0.65313965	0.65313864	-3.683433e-10	0.06646809	0.06646809	0	166084.1	166083.83	-9.8254146e-05	614260.56	300134.06	-0.00022647472	300135	614260.06	-0.00032654495
0	0.65305316	0.6530522	-3.9513193e-10	0.06632662	0.06632662	0	166062.11	166061.84	-9.693878e-05	614332.2	299941.4	-0.00032654495	299942.3	614331.7	-0.00024227529
0	0.6529668	0.6529657	-2.1096026e-10	0.06618514	0.06618514	0	166040.12	166039.86	-5.444834e-05	614403.25	299749.38	-0.00014922753	299750.3	614402.7	-0.00012991573
0	0.6528794	0.65287846	-3.176961e-10	0.066043824	0.066043824	0	166017.92	166017.66	-8.1273916e-05	614475.56	299554.75	-0.000215941	299555.66	614475.1	-0.00021067416
0	0.6527919	0.65279096	-9.376012e-11	0.06590227	0.06590227	0	165995.64	165995.39	-2.1045918e-05	614547.9	299359.84	-7.373595e-05	299360.78	614547.44	-7.373595e-05
0	0.65270483	0.6527039	-2.3774888e-10	0.06576097	0.06576097	0	165973.5	165973.25	-6.186224e-05	614619.56	299166.25	-0.00035814606	299167.2	614619.06	1.4044944e-05
0	0.6526175	0.6526165	-6.462751e-10	0.065619476	0.065619476	0	165951.31	165951.06	-0.0001656569	614691	298972.6	-0.00044241574	298973.53	614690.56	-0.00045294943
0	0.6525294	0.6525283	-3.2188183e-10	0.06547816	0.06547816	0	165928.89	165928.64	-7.948023e-05	614763.56	298776.6	-0.00025983146	298777.53	614763.1	-0.00016853932
0	0.6524416	0.65244067	-3.4490327e-10	0.0653367	0.0653367	0	165906.6	165906.33	-8.38648e-05	614835.56	298581.72	-0.00020716293	298582.7	614835.1	-0.00028792134
0	0.6523535	0.6523525	-2.578403e-10	0.06519521	0.06519521	0	165884.2	165883.94	-6.7442605e-05	614907.2	298386.88	-0.00014044944	298387.78	614906.7	-0.00021418539
0	0.6522654	0.65226436	-5.022863e-10	0.0650539	0.0650539	0	165861.77	165861.52	-0.00013010204	614979.1	298191.56	-0.00037745785	298192.47	614978.56	-0.00030898876
0	0.6521762	0.6521751	-4.353148e-11	0.06491235	0.06491235	0	165839.08	165838.83	-1.0204081e-05	615051.56	297994.2	4.213483e-05	297995.16	615051.06	-8.77809e-05
0	0.65208775	0.6520867	-2.23936e-10	0.06477103	0.06477103	0	165816.6	165816.31	-6.098533e-05	615123.94	297797.88	-0.00016151686	297798.84	615123.5	-0.00016502809
0	0.65199924	0.6519982	-2.9467465e-10	0.06462956	0.06462956	0	165794.1	165793.83	-7.653061e-05	615195.94	297602.06	-0.0001755618	297603.03	615195.44	-0.00023876404
0	0.6519101	0.6519091	-4.5456913e-10	0.06448809	0.06448809	0	165771.44	165771.17	-0.00011834343	615267.8	297405.38	-0.00035814606	297406.38	615267.3	-0.0002457865
0	0.6518204	0.65181935	-3.683433e-10	0.06434676	0.06434676	0	165748.61	165748.34	-9.518495e-05	615340.3	297207.25	-0.00023525281	297208.22	615339.75	-0.00032303372
0	0.651731	0.65173006	-1.7747451e-10	0.06420529	0.06420529	0	165725.9	165725.66	-4.2091837e-05	615412.9	297009.72	-0.00011938202	297010.7	615412.4	-9.129213e-05
0	0.6516415	0.6516405	-1.7412592e-10	0.06406391	0.06406391	0	165703.12	165702.88	-4.4762437e-05	615485.56	296811.66	-0.00010884831	296812.6	615485.1	-0.00013342696
0	0.6515519	0.6515508	-2.6788605e-10	0.06392241	0.06392241	0	165680.33	165680.06	-7.246492e-05	615557.56	296614.12	-0.00013167135	296615.06	615557.1	-0.00021418539
0	0.65146124	0.6514601	-2.6830463e-10	0.063781105	0.063781105	0	165657.28	165657.02	-7.3979594e-05	615630.06	296414.7	-0.00025983146	296415.62	615629.56	-0.00016151686
0	0.6513714	0.65137035	-6.027436e-10	0.06363964	0.06363964	0	165634.44	165634.17	-0.00015198502	615702.94	296216.03	-0.00044241574	296217	615702.44	-0.0003616573
0	0.65128094	0.6512799	-4.353148e-10	0.06349814	0.06349814	0	165611.45	165611.19	-0.000106505104	615775.3	296017.06	-0.00028792134	296017.97	615774.9	-0.00027387642
0	0.6511903	0.6511892	-1.0757299e-10	0.06335683	0.06335683	0	165588.38	165588.11	-2.4234694e-05	615848.1	295817.2	-8.77809e-05	295818.16	615847.6	-5.6179775e-05
0	0.6510996	0.6510986	-2.477946e-10	0.06321529	0.06321529	0	165565.33	165565.08	-6.4333544e-05	615920.44	295618.06	-0.00015449438	295619.03	615919.94	-0.0002247191
0	0.6510082	0.6510071	-2.5114316e-10	0.06307396	0.06307396	0	165542.06	165541.81	-6.616709e-05	615993.5	295416.88	-0.00015976124	295417.84	615993.1	-0.00015800561
0	0.65091705	0.65091604	1.3603588e-11	0.06293249	0.06293249	0	165518.9	165518.64	-7.653061e-06	616066.1	295216.78	-9.129213e-05	295217.75	616065.7	3.511236e-05
0	0.6508254	0.6508243	-2.7207175e-10	0.06279103	0.06279103	0	165495.6	165495.31	-7.270408e-05	616139.06	295015.38	-0.0001755618	295016.34	616138.6	-0.00023174158
0	0.650734	0.6507329	-2.074024e-10	0.06264969	0.06264969	0	165472.34	165472.08	-5.205676e-05	616211.8	294814.75	-5.4424156e-05	294815.72	616211.25	-0.00019662922
0	0.6506423	0.65064126	-1.908688e-10	0.062508225	0.062508225	0	165449.03	165448.77	-4.846939e-05	616284.5	294613.72	-0.0001264045	294614.62	616284	-0.00013693821
0	0.6505501	0.65054905	-1.5738305e-10	0.06236684	0.06236684	0	165425.6	165425.31	-4.3765944e-05	616357.3	294411.75	-5.6179775e-05	294412.75	616356.8	-0.00016502809
0	0.6504575	0.6504565	-3.2481182e-10	0.062225346	0.062225346	0	165402.05	165401.8	-7.808514e-05	616430.5	294209	-0.00015273876	294209.97	616430.06	-0.00032303372
0	0.65036535	0.6503643	-8.371439e-11	0.062084038	0.062084038	0	165378.61	165378.34	-1.8494899e-05	616503.3	294007.16	3.335674e-05	294008.2	616502.8	-0.00014044944
0	0.6502728	0.6502718	-3.2816042e-10	0.061942577	0.061942577	0	165355.08	165354.81	-8.123406e-05	616575.9	293805.03	-0.00023525281	293806.03	616575.4	-0.00020014045
0	0.6501792	0.6501782	-1.6742878e-10	0.06180108	0.061801083	0	165331.28	165331	-4.44037e-05	616649.2	293600.78	-0.00010884831	293601.8	616648.6	-0.00011235955
0	0.6500867	0.6500856	6.697151e-12	0.061659772	0.061659772	0	165307.77	165307.5	-5.1020406e-06	616722.44	293398	-2.4578652e-05	293399	616721.94	2.1067415e-05
0	0.64999336	0.6499923	1.0380584e-10	0.061518237	0.061518237	0	165284.03	165283.78	2.1285077e-05	616795.1	293194.62	5.6179775e-05	293195.62	616794.7	0.00010182584
0	0.6498997	0.64989865	-1.6073162e-10	0.061376892	0.061376892	0	165260.19	165259.94	-4.177296e-05	616868.6	292989.94	-2.633427e-05	292990.88	616868.1	-0.0001755618
0	0.64980567	0.6498047	-5.7930355e-10	0.06123543	0.06123543	0	165236.31	165236.05	-0.00014540816	616942.1	292784.88	-0.0004002809	292785.88	616941.56	-0.0003827247
0	0.6497125	0.6497114	7.4505804e-11	0.061093967	0.061093967	0	165212.6	165212.33	1.9132653e-05	617014.94	292581.53	0.00016151686	292582.5	617014.5	-6.671348e-05
0	0.6496173	0.6496163	-2.5742175e-10	0.060952656	0.060952656	0	165188.4	165188.14	-6.1941966e-05	617088.56	292374.66	-0.00021418539	292375.62	617088.1	-0.00014044944
0	0.6495237	0.64952266	-1.1579793e-09	0.060811166	0.060811166	0	165164.58	165164.33	-0.00029368623	617161.1	292171.03	-0.00095505617	292172	617160.7	-0.0006882023
0	0.649429	0.649428	-1.506859e-10	0.060669772	0.060669776	0	165140.52	165140.25	-4.0058992e-05	617234.6	291965	-9.831461e-05	291966	617234.1	-0.00011235955
0	0.6493342	0.64933306	-5.5251498e-11	0.060528316	0.060528316	0	165116.39	165116.14	-1.34327165e-05	617308.06	291758.78	-5.7935395e-05	291759.75	617307.56	-3.511236e-05
0	0.64924	0.64923906	-2.2100599e-10	0.060386974	0.060386974	0	165092.47	165092.2	-5.8035715e-05	617381.1	291554	-0.00014396067	291554.97	617380.56	-0.00016151686
0	0.64914423	0.6491432	-6.2785792e-12	0.06024551	0.06024551	0	165068.1	165067.84	1.9132654e-06	617455.3	291345.6	8.075843e-05	291346.6	617454.9	-6.320225e-05
0	0.6490489	0.6490479	-2.745832e-10	0.06010405	0.060104053	0	165043.88	165043.6	-7.350127e-05	617528.94	291138.56	-0.00021067416	291139.56	617528.5	-0.00018258426
0	0.6489527	0.64895165	-2.6453748e-10	0.059962712	0.059962712	0	165019.4	165019.14	-7.206632e-05	617602.4	290930.5	-0.00015800561	290931.47	617601.94	-0.00019662922
0	0.6488574	0.64885634	2.0091453e-11	0.059821166	0.059821166	0	164995.17	164994.89	3.1887755e-06	617676.4	290722.97	1.0533708e-05	290723.97	617675.9	3.8623595e-05
0	0.64876187	0.6487608	-4.4201198e-10	0.05967986	0.05967985	0	164970.88	164970.61	-0.00010483099	617749.56	290516.06	-0.00029143257	290517.03	617749.1	-0.00030898876
0	0.64866495	0.64866394	-8.371439e-11	0.059538364	0.059538368	0	164946.25	164945.97	-2.2321428e-05	617823.44	290306.53	-1.755618e-05	290307.53	617823	-9.831461e-05
0	0.6485686	0.6485675	-2.8462893e-10	0.059396908	0.059396908	0	164921.7	164921.45	-7.3222254e-05	617897.56	290097.4	-0.00022998595	290098.44	617897.06	-0.00018258426
0	0.6484721	0.64847094	-2.0468167e-10	0.059255596	0.059255596	0	164897.17	164896.92	-5.4049746e-05	617970.8	289889.03	-9.129213e-05	289890.03	617970.4	-0.0002247191
0	0.64837515	0.64837414	-2.5993319e-10	0.059114102	0.059114102	0	164872.56	164872.28	-7.354114e-05	618044.94	289679.44	-0.00027563202	289680.44	618044.4	-0.00011938202
0	0.6482778	0.6482768	-2.8881465e-11	0.058972705	0.058972713	0	164847.81	164847.53	-7.015306e-06	618118.75	289469.28	-3.511236e-06	289470.3	618118.2	-1.0533708e-05
0	0.64818084	0.6481798	-5.860007e-11	0.058831252	0.05883125	0	164823.12	164822.86	-1.2157207e-05	618192.6	289259.53	-8.075843e-05	289260.5	618192.25	3.511236e-05
0	0.6480833	0.6480823	-2.2435456e-10	0.0586899	0.0586899	0	164798.34	164798.06	-5.6760204e-05	618266.25	289049.53	-0.00023525281	289050.53	618265.7	-5.6179775e-05
0	0.64798504	0.64798397	-4.3866338e-10	0.05854845	0.05854845	0	164773.34	164773.08	-0.000106505104	618340.1	288838	-0.00033005618	288839.03	618339.5	-0.000252809
0	0.6478873	0.6478862	-3.31509e-10	0.058406986	0.058406994	0	164748.47	164748.2	-8.589764e-05	618414.06	288627.12	-0.00020365168	288628.16	618413.56	-0.00023525281
0	0.6477895	0.6477884	-1.3394302e-10	0.05826565	0.05826565	0	164723.62	164723.33	-3.0373087e-05	618488.25	288416	-0.00013342696	288417.03	618487.7	-5.969101e-05
0	0.6476911	0.64769006	6.9064372e-12	0.058124106	0.058124106	0	164698.58	164698.3	3.1887755e-06	618562.44	288204.06	-4.213483e-05	288205.06	618561.94	9.129213e-05
0	0.6475923	0.6475911	-1.7914879e-10	0.05798278	0.05798278	0	164673.44	164673.17	-4.412468e-05	618636.1	287991.94	-9.831461e-05	287992.94	618635.6	-0.00012289325
0	0.64749306	0.64749193	-3.6164616e-10	0.05784131	0.05784131	0	164648.23	164647.95	-9.183674e-05	618710.3	287778.9	-0.00027387642	287779.97	618709.8	-0.00023876404
0	0.6473944	0.64739335	-3.2648612e-10	0.057699848	0.057699848	0	164623.17	164622.89	-8.4821426e-05	618784.75	287566.6	-0.00026685392	287567.6	618784.1	-0.00018609551
0	0.64729476	0.6472936	-3.1246394e-10	0.05755853	0.05755853	0	164597.78	164597.52	-8.223055e-05	618858.94	287352.56	-0.0002440309	287353.56	618858.5	-0.00013342696
0	0.6471965	0.64719534	-3.6332046e-10	0.05741706	0.05741706	0	164572.81	164572.53	-8.968431e-05	618932.8	287141.2	-0.00030021067	287142.2	618932.4	-0.00018258426
0	0.64709616	0.6470951	-1.9254309e-10	0.057275645	0.057275645	0	164547.33	164547.05	-4.7233738e-05	619007.06	286926.6	-0.00015449438	286927.62	619006.56	-5.969101e-05
0	0.64699626	0.6469952	-3.0974323e-10	0.05713419	0.057134192	0	164521.9	164521.62	-7.4776784e-05	619081.6	286712.03	-0.00013869382	286713.06	619081.2	-0.0003019663
0	0.6468952	0.6468941	-3.8592332e-10	0.056992844	0.056992844	0	164496.2	164495.92	-9.693878e-05	619156.2	286496.03	-0.00028089888	286497.06	619155.7	-0.00024929777
0	0.6467956	0.64679444	-4.520577e-10	0.056851387	0.056851387	0	164470.88	164470.58	-0.00011926021	619230.3	286282.53	-0.00016502809	286283.53	619229.6	-0.0004599719
0	0.64669496	0.64669377	-2.8462893e-10	0.056709927	0.056709927	0	164445.28	164445	-7.063138e-05	619305.1	286066.72	-0.0002457865	286067.75	619304.56	-0.00016502809
0	0.64659363	0.64659244	-4.353148e-11	0.056568585	0.056568585	0	164419.52	164419.25	-5.6600766e-06	619379.2	285850.8	-1.2289326e-05	285851.84	619378.7	-7.373595e-05
0	0.6464922	0.6464911	-1.4733732e-10	0.056427047	0.056427047	0	164393.73	164393.44	-3.6989797e-05	619454.1	285633.94	-7.724719e-05	285634.97	619453.6	-0.00010884831
0	0.6463917	0.64639056	-2.8295463e-10	0.05628571	0.05628571	0	164368.17	164367.88	-7.27838e-05	619528.75	285418.62	-0.00017029494	285419.66	619528.2	-0.00023876404
0	0.64629024	0.6462891	-4.4368625e-10	0.05614425	0.05614425	0	164342.39	164342.11	-0.000114317605	619602.8	285202.44	-0.00031425562	285203.47	619602.4	-0.00031952249
0	0.64618814	0.646187	-1.5738305e-10	0.056002792	0.056002792	0	164316.4	164316.1	-4.336735e-05	619678.06	284984.22	-0.00014396067	284985.25	619677.56	-7.373595e-05
0	0.64608663	0.6460855	-1.8584595e-10	0.05586147	0.05586147	0	164290.61	164290.31	-4.6356825e-05	619752.5	284767.72	-0.0002054073	284768.75	619752.06	-3.1601125e-05
0	0.6459837	0.6459826	-3.483565e-10	0.055719994	0.055719994	0	164264.44	164264.17	-8.928571e-05	619827.06	284549.16	-0.0001755618	284550.22	619826.5	-0.00031952249
0	0.6458818	0.64588064	-3.9450407e-10	0.055578664	0.055578664	0	164238.5	164238.22	-9.41486e-05	619901.6	284331.75	-0.00023876404	284332.78	619901.1	-0.0002844101
0	0.6457789	0.6457778	-1.7580022e-10	0.055437125	0.055437125	0	164212.34	164212.08	-4.0178573e-05	619976.4	284113.06	-0.00013167135	284114.1	619975.9	-7.373595e-05
0	0.6456759	0.6456748	-7.701724e-11	0.05529578	0.05529578	0	164186.16	164185.86	-1.9132653e-05	620051.2	283893.97	-8.075843e-05	283894.97	620050.75	-4.213483e-05
0	0.64557266	0.64557165	-2.633864e-10	0.055154327	0.055154327	0	164159.92	164159.64	-6.4971304e-05	620126	283674.75	-0.00013693821	283675.78	620125.44	-0.00021769662
0	0.6454697	0.64546865	-4.1689766e-10	0.05501287	0.05501287	0	164133.73	164133.45	-0.00010546875	620200.9	283455.75	-0.00036516853	283456.78	620200.4	-0.00020365168
0	0.64536566	0.6453646	-3.31509e-10	0.054871522	0.054871522	0	164107.28	164106.98	-8.537946e-05	620276.2	283234.7	-0.0002844101	283235.75	620275.6	-0.0002247191
0	0.6452622	0.64526105	-2.6746746e-10	0.05473008	0.05473008	0	164080.97	164080.67	-6.9276146e-05	620351.2	283014.88	-0.00016853932	283015.94	620350.7	-0.00021067416
0	0.64515805	0.6451569	4.0706123e-11	0.05458865	0.05458865	0	164054.5	164054.2	1.2037627e-05	620425.8	282794.38	6.320225e-05	282795.44	620425.3	7.022472e-06
0	0.6450537	0.64505255	-1.3394302e-11	0.054447185	0.054447185	0	164027.94	164027.66	-7.892219e-06	620500.5	282573.56	-4.213483e-05	282574.66	620500.06	1.4044944e-05
0	0.6449491	0.6449479	-5.3744637e-10	0.054305855	0.054305855	0	164001.33	164001.05	-0.00014070472	620575.75	282351.84	-0.0003599017	282352.9	620575.2	-0.00041432586
0	0.6448443	0.6448433	-1.372916e-10	0.054164406	0.05416441	0	163974.7	163974.4	-3.404018e-05	620650.9	282130.1	-7.022472e-05	282131.16	620650.44	-9.129213e-05
0	0.64473933	0.64473826	-3.164404e-10	0.054022938	0.054022938	0	163948.02	163947.72	-7.653061e-05	620725.94	281908.06	-0.0002440309	281909.12	620725.4	-0.00021418539
0	0.64463365	0.6446326	-1.8584595e-10	0.0538816	0.0538816	0	163921.12	163920.86	-5.1857463e-05	620801.4	281684.78	-0.00011938202	281685.84	620800.75	-0.00015800561
0	0.6445289	0.6445278	-1.1468871e-10	0.05374007	0.05374007	0	163894.52	163894.22	-3.121014e-05	620876.44	281463	-0.0001843399	281464.03	620875.94	1.755618e-05
0	0.64442295	0.64442176	-4.593827e-10	0.05359871	0.05359871	0	163867.55	163867.23	-0.000117346935	620951.3	281239.66	-0.0003511236	281240.72	620950.75	-0.00028792134
0	0.6443168	0.64431566	-2.7123462e-10	0.053457264	0.053457264	0	163840.56	163840.27	-6.656569e-05	621026.9	281015.56	-0.0001755618	281016.66	621026.3	-0.00018960674
0	0.6442109	0.64420974	-3.415547e-10	0.053315822	0.05331583	0	163813.62	163813.33	-9.119898e-05	621102.44	280791.72	-0.00024929777	280792.78	621101.94	-0.00022120787
0	0.6441045	0.6441033	-2.3963243e-10	0.053174462	0.053174462	0	163786.56	163786.28	-6.186224e-05	621177.06	280568.16	-0.00021769662	280569.2	621176.5	-0.00010533708
0	0.6439977	0.64399654	-1.7245164e-10	0.053033024	0.053033024	0	163759.42	163759.14	-4.432398e-05	621252.94	280342.84	-0.00017907303	280343.9	621252.3	-5.266854e-05
0	0.64389044	0.64388925	-1.3017587e-10	0.052891586	0.052891586	0	163732.12	163731.84	-3.762755e-05	621328.25	280117.2	-9.3047754e-05	280118.28	621327.75	-8.426966e-05
0	0.6437838	0.6437826	8.245867e-11	0.052750118	0.052750126	0	163705.03	163704.73	2.3596938e-05	621403.4	279892.97	2.4578652e-05	279894	621402.75	0.00010533708
0	0.6436763	0.643675	-3.0932468e-10	0.052608777	0.052608777	0	163677.67	163677.38	-7.940051e-05	621478.94	279666.66	-0.00025632023	279667.75	621478.5	-0.00017205057
0	0.6435691	0.6435679	-1.506859e-10	0.05246734	0.05246734	0	163650.42	163650.12	-3.7109374e-05	621553.94	279441.66	-0.00011587079	279442.75	621553.4	-9.831461e-05
0	0.64346045	0.64345926	-2.595146e-10	0.052325882	0.052325882	0	163622.81	163622.52	-6.760204e-05	621629.9	279213.7	-0.000215941	279214.75	621629.3	-0.00016502809
0	0.64335245	0.6433514	-8.036581e-11	0.05218454	0.05218454	0	163595.36	163595.06	-2.2959184e-05	621705.3	278987.06	-6.320225e-05	278988.16	621704.75	-7.022472e-05
0	0.64324397	0.64324284	-7.1994376e-11	0.052043002	0.052043002	0	163567.75	163567.45	-1.9092793e-05	621781	278759.47	-0.00012464888	278760.5	621780.5	1.0533708e-05
0	0.643135	0.64313376	-5.357721e-11	0.051901635	0.051901635	0	163540.03	163539.72	-9.566326e-06	621857	278530.8	2.2823033e-05	278531.9	621856.5	-4.9157305e-05
0	0.64302677	0.64302564	-4.0182907e-10	0.0517602	0.0517602	0	163512.53	163512.22	-0.000101403064	621932.56	278303.9	-0.00037219102	278304.97	621932	-0.00021418539
0	0.6429173	0.64291614	-3.9303905e-10	0.051618766	0.051618766	0	163484.69	163484.39	-0.00010339604	622008.06	278075.1	-0.0003335674	278076.2	622007.5	-0.00025632023
0	0.6428085	0.6428073	-8.580725e-11	0.05147742	0.05147742	0	163457.03	163456.72	-1.7857143e-05	622083.3	277847.5	1.0533708e-05	277848.6	622082.75	-0.00011235955
0	0.6426978	0.6426967	-2.3774888e-10	0.05133596	0.05133596	0	163428.89	163428.58	-5.9390943e-05	622159.94	277616.06	-0.00026685392	277617.12	622159.3	-8.77809e-05
0	0.6425888	0.6425876	-2.7290892e-10	0.051194515	0.051194515	0	163401.14	163400.84	-6.8877554e-05	622235.44	277387.75	-0.000252809	277388.84	622234.9	-0.00011938202
0	0.6424784	0.6424771	-3.3988043e-10	0.05105309	0.05105309	0	163373.08	163372.75	-9.0561225e-05	622310.8	277157.75	-0.0002334972	277158.84	622310.3	-0.00025983146
0	0.642368	0.6423668	-3.566233e-10	0.050911706	0.050911706	0	163345.02	163344.7	-9.1477996e-05	622387	276927.16	-0.00032303372	276928.25	622386.44	-0.00018258426
0	0.6422574	0.6422562	-1.657545e-10	0.05077028	0.05077028	0	163316.88	163316.56	-3.910236e-05	622462.94	276696.25	-0.00013342696	276697.34	622462.4	-7.373595e-05
0	0.64214617	0.6421449	-2.8295463e-10	0.050628845	0.050628845	0	163288.6	163288.3	-6.919643e-05	622539.1	276464.4	-0.00018609551	276465.47	622538.6	-0.00019311797
0	0.64203566	0.6420344	-2.1096026e-10	0.050487474	0.050487474	0	163260.48	163260.2	-5.456792e-05	622614.7	276234.12	-0.00014571629	276235.22	622614.1	-0.00012991573
0	0.6419241	0.6419229	6.86458e-11	0.050345946	0.050345946	0	163232.12	163231.84	1.8614477e-05	622690.1	276002.47	3.8623595e-05	276003.6	622689.6	8.77809e-05
0	0.6418122	0.64181095	-3.5494901e-10	0.05020459	0.05020459	0	163203.66	163203.36	-8.753189e-05	622766.6	275769.25	-0.00028089888	275770.38	622766.06	-0.00016151686
0	0.64170045	0.6416994	-1.7914879e-10	0.050063137	0.050063137	0	163175.28	163174.97	-4.5280613e-05	622842.6	275536.88	-0.00021769662	275538.03	622842.2	-3.8623595e-05
0	0.64158857	0.6415874	-3.6478545e-10	0.04992171	0.04992171	0	163146.81	163146.5	-9.0162626e-05	622918.5	275304.38	-0.00025105337	275305.5	622917.94	-0.000252809
0	0.6414761	0.64147496	-2.0928598e-10	0.049780354	0.049780354	0	163118.2	163117.9	-5.739796e-05	622994.2	275071.25	-0.00027914325	275072.3	622993.7	-3.1601125e-05
0	0.6413635	0.64136237	1.3205945e-10	0.0496389	0.0496389	0	163089.58	163089.27	3.3083546e-05	623070.4	274837.38	7.022472e-05	274838.5	623069.8	0.00015098315
0	0.6412505	0.64124936	-1.0715442e-10	0.049497455	0.049497455	0	163060.83	163060.55	-3.0133928e-05	623146.44	274603.1	-6.4957865e-05	274604.22	623145.9	-8.426966e-05
0	0.6411378	0.64113665	-4.3029197e-10	0.04935602	0.04935602	0	163032.17	163031.88	-0.00010686384	623222.25	274369.5	-0.0003019663	274370.62	623221.6	-0.0003019663
0	0.6410237	0.6410225	-1.5403448e-10	0.04921464	0.04921464	0	163003.19	163002.86	-4.0178573e-05	623299.3	274132.72	-4.9157305e-05	274133.8	623298.75	-0.00013693821
0	0.6409104	0.6409093	-2.5114316e-10	0.04907321	0.04907321	0	162974.36	162974.08	-6.592793e-05	623375.2	273898.3	-0.00011587079	273899.4	623374.6	-0.00024227529
0	0.6407962	0.64079493	-2.1096026e-10	0.04893179	0.04893179	0	162945.3	162945	-5.739796e-05	623451.2	273662.28	-0.0002247191	273663.44	623450.7	-8.426966e-05
0	0.6406819	0.6406808	-4.759163e-10	0.048790418	0.048790418	0	162916.27	162915.97	-0.00012436224	623527.44	273426.2	-0.0003511236	273427.3	623526.94	-0.00030547753
0	0.6405677	0.6405665	-2.0761168e-10	0.048648883	0.048648883	0	162887.22	162886.9	-5.0701532e-05	623603.8	273189.9	-0.00015273876	273191.03	623603.25	-0.00014044944
0	0.6404529	0.6404516	-2.4109745e-10	0.04850753	0.04850753	0	162858	162857.72	-6.122449e-05	623680.44	272952.47	-0.00015273876	272953.6	623679.9	-0.00020014045
0	0.6403375	0.6403363	1.7140521e-10	0.048366077	0.04836608	0	162828.67	162828.36	3.8504466e-05	623757.06	272714.3	7.373595e-05	272715.38	623756.5	0.00016151686
0	0.6402223	0.64022106	-3.3318326e-10	0.048224654	0.048224654	0	162799.38	162799.08	-8.565848e-05	623833.44	272476.56	-0.00022647472	272477.7	623832.94	-0.00020365168
0	0.6401075	0.64010644	-2.461203e-10	0.04808329	0.04808329	0	162770.2	162769.9	-6.114477e-05	623909.25	272240.25	-0.00016327247	272241.34	623908.6	-0.00017907303
0	0.6399913	0.63999003	-2.176574e-11	0.04794185	0.04794185	0	162740.64	162740.33	-1.0204081e-05	623986.2	272000.44	3.511236e-06	272001.56	623985.6	-6.671348e-05
0	0.63987535	0.63987416	-8.036581e-11	0.047800384	0.047800384	0	162711.17	162710.88	-2.3596938e-05	624062.4	271761.97	-0.000117626405	271763.12	624061.8	-3.8623595e-05
0	0.63975847	0.63975716	6.2785792e-12	0.047658965	0.047658965	0	162681.42	162681.12	-3.8265307e-06	624139.1	271521.6	9.129213e-05	271522.75	624138.5	-7.373595e-05
0	0.63964236	0.6396411	-1.9589166e-10	0.04751758	0.04751758	0	162651.9	162651.58	-5.1737883e-05	624215.56	271282.62	-0.00011235955	271283.75	624215	-0.00016151686
0	0.63952535	0.6395241	-4.1857195e-10	0.047376156	0.047376156	0	162622.14	162621.84	-0.00010092474	624292.1	271042.16	-0.00034761237	271043.28	624291.6	-0.00023174158
0	0.63940847	0.6394073	-5.022863e-12	0.047234733	0.047234733	0	162592.44	162592.12	-7.015306e-06	624368.44	270802.22	-6.671348e-05	270803.34	624367.94	6.671348e-05
0	0.63929087	0.6392897	-3.9555048e-10	0.047093347	0.047093347	0	162562.53	162562.22	-0.000102040816	624445.25	270560.84	-0.00026685392	270562	624444.6	-0.00027036516
0	0.6391735	0.63917226	-5.3912064e-10	0.046951823	0.046951823	0	162532.69	162532.36	-0.00013855229	624521.4	270320.3	-0.000409059	270321.47	624520.8	-0.00038623594
0	0.63905555	0.6390543	-1.328966e-10	0.046810456	0.046810463	0	162502.67	162502.36	-3.3163265e-05	624598	270078.6	-0.00011235955	270079.75	624597.4	-0.00011587079
0	0.63893765	0.63893634	-2.0970455e-10	0.04666902	0.04666902	0	162472.7	162472.39	-5.1578445e-05	624674.75	269836.8	-0.00011235955	269837.9	624674.2	-0.00016151686
0	0.6388183	0.6388171	-5.056349e-10	0.046527658	0.046527658	0	162442.38	162442.06	-0.00013058036	624752.2	269592.38	-0.00047401685	269593.5	624751.6	-0.000252809
0	0.63869995	0.6386988	-1.2096729e-10	0.046386234	0.046386234	0	162412.28	162411.97	-3.284439e-05	624828.5	269350.34	-0.00013342696	269351.5	624827.94	-1.755618e-05
0	0.6385802	0.638579	-3.047204e-10	0.0462448	0.0462448	0	162381.83	162381.52	-7.469707e-05	624905.3	269105.78	-0.00024929777	269106.94	624904.75	-0.00016151686
0	0.63846177	0.6384605	-3.1811467e-10	0.04610342	0.04610342	0	162351.7	162351.39	-8.0357146e-05	624981.94	268863.38	-0.00020716293	268864.5	624981.4	-0.00023174158
0	0.6383415	0.63834023	-1.657545e-10	0.045961898	0.045961898	0	162321.11	162320.8	-4.0577168e-05	625059.25	268617.7	-0.00011938202	268618.84	625058.7	-0.00012289325
0	0.6382216	0.63822037	-1.3394302e-10	0.045820512	0.045820512	0	162290.62	162290.33	-3.125e-05	625135.44	268373.7	-0.00014044944	268374.84	625134.8	-3.8623595e-05
0	0.638102	0.63810074	-3.3820613e-10	0.0456791	0.045679096	0	162260.23	162259.92	-8.63361e-05	625212.5	268129.2	-0.00015976124	268130.3	625211.9	-0.0003125
0	0.63798106	0.6379798	-1.536159e-10	0.045537677	0.045537677	0	162229.45	162229.14	-4.177296e-05	625289.6	267882.66	-0.00013518258	267883.8	625289.06	-7.373595e-05
0	0.6378605	0.6378592	-2.0593739e-10	0.045396283	0.045396283	0	162198.83	162198.48	-4.9107144e-05	625366.6	267636.9	-0.00013342696	267638.06	625366.06	-0.00014396067
0	0.637739	0.63773775	-9.334154e-11	0.04525487	0.04525487	0	162167.9	162167.6	-2.614796e-05	625443.2	267390.16	1.4044944e-05	267391.3	625442.6	-0.00011587079
0	0.63761884	0.63761765	-3.013718e-10	0.045113385	0.045113385	0	162137.36	162137.05	-7.716837e-05	625519.9	267145.25	-0.00019136236	267146.4	625519.4	-0.00019311797