# t (s)	mx ()	my ()	mz ()	B_extx (T)	B_exty (T)	B_extz (T)	m_fullx (A/m)	m_fully (A/m)	m_fullz (A/m)	m_full.region1x (A/m)	m_full.region1y (A/m)	m_full.region1z (A/m)	m_full.region2x (A/m)	m_full.region2y (A/m)	m_full.region2z (A/m)
0	0.6369668	0.6369688	-4.9601645e-10	0.07071087	0.07071087	0	128590.87	128591.26	-9.75e-05	643263.9	248491.42	-0.00027522538	248489.66	643264.9	-0.00041067094
0	0.6368687	0.636869	-2.1494047e-10	0.07056911	0.07056911	0	128571.06	128571.12	-4.625e-05	643331.1	248285.42	-0.00016253468	248285.05	643331.1	-0.00015928398
0	0.6367676	0.6367677	-2.2320741e-10	0.07042789	0.07042789	0	128550.65	128550.664	-3.4375e-05	643401.1	248073.77	-6.934813e-05	248073.6	643401.06	-0.00019937586
0	0.63666385	0.63666385	-1.9013964e-10	0.07028652	0.07028652	0	128529.695	128529.695	-4e-05	643472.5	247856.98	-0.00014736477	247856.83	643472.44	-0.00015820042
0	0.63656247	0.6365625	-2.0667353e-10	0.070144884	0.070144884	0	128509.23	128509.24	-3.875e-05	643542.5	247645.1	-0.00014519764	247644.95	643542.4	-0.000134362
0	0.63645786	0.6364579	-4.1334706e-11	0.07000352	0.07000352	0	128488.11	128488.12	-2.125e-05	643613.75	247427.44	-6.0679613e-05	247427.28	643613.7	-0.000102938626
0	0.6363562	0.63635623	-8.266941e-11	0.06986229	0.06986229	0	128467.586	128467.586	-2e-05	643684.1	247214.66	-3.9008322e-05	247214.5	643684.06	-0.00011269071
0	0.6362518	0.6362518	-2.645421e-10	0.069720544	0.069720544	0	128446.52	128446.52	-5.5e-05	643755.2	246997.47	-0.00017770458	246997.33	643755.1	-0.000201543
0	0.6361491	0.6361492	-1.1573718e-10	0.069579184	0.069579184	0	128425.78	128425.79	-3e-05	643825.8	246783.14	-0.00011702497	246782.95	643825.75	-0.00013544556
0	0.6360446	0.6360447	-1.4880494e-10	0.069437966	0.069437966	0	128404.695	128404.7	-2.5e-05	643896.6	246566.1	-0.00012352635	246565.92	643896.44	-6.934813e-05
0	0.63594145	0.6359415	-9.920329e-11	0.069296576	0.069296576	0	128383.87	128383.87	-2.1875e-05	643967.06	246351.16	-8.23509e-05	246351.02	643966.9	-7.5849515e-05
0	0.63583636	0.6358365	0	0.06915497	0.069154955	0	128362.65	128362.66	-1.875e-06	644038.3	246132.75	-1.7337032e-05	246132.58	644038.25	2.6005548e-05
0	0.6357331	0.63573325	-1.4880494e-10	0.069013596	0.069013596	0	128341.81	128341.81	-3e-05	644108.6	245917.9	-0.00011269071	245917.75	644108.56	-9.968793e-05
0	0.63562745	0.6356275	-2.8934294e-10	0.068872236	0.068872236	0	128320.484	128320.49	-5.5e-05	644180	245698.62	-0.00019070735	245698.47	644179.94	-0.00023079924
0	0.63552386	0.63552386	-2.645421e-10	0.06873064	0.06873064	0	128299.56	128299.56	-5e-05	644250.44	245483.05	-0.00010402219	245482.89	644250.4	-0.00023079924
0	0.6354177	0.6354178	-3.3067764e-11	0.06858927	0.06858927	0	128278.14	128278.14	-7.5e-06	644321.75	245263.23	-3.9008322e-05	245263.05	644321.7	-8.668516e-06
0	0.63531387	0.63531387	-1.7360575e-10	0.068448015	0.06844801	0	128257.15	128257.16	-3.5625e-05	644392.25	245047.22	-8.0183774e-05	245047.03	644392.2	-0.000134362
0	0.6352073	0.63520736	-1.5707188e-10	0.06830665	0.06830665	0	128235.66	128235.66	-2.6875e-05	644463.56	244826.84	-6.934813e-05	244826.7	644463.56	-9.643724e-05
0	0.63510257	0.6351026	-2.7280905e-10	0.06816504	0.06816504	0	128214.51	128214.516	-6.25e-05	644534.44	244609.28	-0.00016036755	244609.1	644534.4	-0.00024488557
0	0.6349967	0.6349967	-8.266941e-11	0.068023674	0.068023674	0	128193.125	128193.13	-1.5e-05	644605.3	244390.16	-5.6345354e-05	244389.98	644605.25	-9.535367e-05
0	0.63489026	0.63489026	-3.8854622e-10	0.06788232	0.06788232	0	128171.63	128171.66	-7e-05	644676.1	244170.31	-0.00035540917	244170.17	644676	-0.00016578537
0	0.6347837	0.6347838	-1.40538e-10	0.067740716	0.067740716	0	128150.14	128150.14	-3.25e-05	644747.44	243949.88	-0.00014086338	243949.75	644747.4	-0.00010402219
0	0.6346784	0.6346784	-1.818727e-10	0.06759932	0.06759932	0	128128.88	128128.88	-3.75e-05	644818.25	243731.64	-0.00010835645	243731.5	644818.2	-0.00014519764
0	0.6345717	0.63457173	-1.7360575e-10	0.06745809	0.06745809	0	128107.33	128107.36	-3.5e-05	644888.94	243511.62	-2.6005548e-05	243511.44	644888.9	-0.0002503034
0	0.63446397	0.63446397	-1.6533883e-10	0.067316726	0.067316726	0	128085.586	128085.59	-3e-05	644960.56	243289.14	-0.00013869625	243289	644960.5	-8.993586e-05
0	0.63435787	0.63435787	-1.40538e-10	0.067174986	0.067174986	0	128064.17	128064.17	-2.6875e-05	645031.44	243069.67	-8.668516e-06	243069.53	645031.4	-0.00018854022
0	0.6342509	0.6342509	-1.6533883e-10	0.06703377	0.06703377	0	128042.57	128042.57	-2.5e-05	645102.4	242848.98	-5.2011095e-05	242848.86	645102.25	-0.00016253468
0	0.6341436	0.6341436	-2.4800823e-11	0.066892385	0.066892385	0	128020.91	128020.91	-1e-05	645173.4	242627.77	-8.668516e-06	242627.61	645173.25	-4.9843966e-05
0	0.6340348	0.6340348	-9.920329e-11	0.06675076	0.06675076	0	127998.95	127998.95	-2.25e-05	645244.8	242404.08	-3.9008322e-05	242403.94	645244.75	-0.00011485784
0	0.633928	0.633928	-2.1494047e-10	0.0666094	0.0666094	0	127977.4	127977.4	-4.4375e-05	645315.8	242183.7	-0.00010402219	242183.55	645315.56	-0.00023621706
0	0.6338195	0.6338195	-1.3227106e-10	0.06646816	0.06646817	0	127955.484	127955.51	-2.5e-05	645387	241960.4	-8.668516e-05	241960.27	645387	-6.0679613e-05
0	0.6337114	0.63371146	-1.9013964e-10	0.06632643	0.06632643	0	127933.664	127933.664	-3.75e-05	645458.3	241737.81	-0.00010402219	241737.64	645458.25	-0.00016361824
0	0.63360304	0.63360304	-2.8934294e-10	0.06618507	0.06618507	0	127911.78	127911.77	-5.75e-05	645529.5	241514.86	-0.0001647018	241514.66	645529.4	-0.00025355408
0	0.63349473	0.6334948	-9.093635e-11	0.06604384	0.06604384	0	127889.9	127889.92	-2.25e-05	645600.3	241292.44	-3.4674063e-05	241292.25	645600.25	-0.00010618932
0	0.6333848	0.6333848	-4.9601646e-11	0.065902434	0.065902434	0	127867.73	127867.73	-1.5e-05	645671.6	241067.27	-3.0339806e-05	241067.11	645671.5	-2.4921983e-05
0	0.6332767	0.6332767	-1.4880494e-10	0.06576085	0.06576085	0	127845.9	127845.9	-3.3125e-05	645742.75	240844.75	-9.535367e-05	240844.6	645742.6	-0.00015820042
0	0.6331667	0.63316673	-1.1573718e-10	0.065619476	0.065619476	0	127823.695	127823.71	-2e-05	645814.06	240619.5	-8.668516e-05	240619.36	645813.94	-6.934813e-05
0	0.633057	0.633057	-8.266941e-11	0.06547825	0.06547825	0	127801.55	127801.54	-1.75e-05	645885.5	240394.34	-4.334258e-05	240394.16	645885.5	-9.535367e-05
0	0.6329476	0.6329476	-1.3227106e-10	0.06533652	0.065336525	0	127779.47	127779.46	-3.3125e-05	645956.7	240170.1	-0.00013869625	240169.97	645956.6	-9.860437e-05
0	0.6328375	0.6328375	-1.40538e-10	0.06519514	0.06519514	0	127757.22	127757.24	-3e-05	646027.8	239944.77	-0.00010402219	239944.61	646027.7	-0.00013002774
0	0.63272715	0.6327271	-2.81076e-10	0.065053925	0.06505392	0	127734.945	127734.945	-4.5e-05	646099.56	239718.6	-0.00015169903	239718.47	646099.4	-0.00017662102
0	0.6326176	0.6326176	-1.6533882e-11	0.064912505	0.06491251	0	127712.836	127712.836	0	646170.5	239494.22	0.00010402219	239494.08	646170.44	-0.000107272885
0	0.63250613	0.6325062	-5.786859e-11	0.06477093	0.06477093	0	127690.336	127690.34	-2e-05	646242.1	239266.64	4.9843966e-05	239266.47	646242	-0.0001647018
0	0.63239616	0.63239616	-1.2400411e-10	0.06462956	0.06462956	0	127668.125	127668.125	-1.8125e-05	646313.3	239041.4	-0.00011702497	239041.27	646313.25	-6.934813e-05
0	0.63228387	0.6322839	-2.4800823e-10	0.06448818	0.06448818	0	127645.45	127645.46	-4.4375e-05	646385	238812.5	-0.00014736477	238812.33	646384.9	-0.00016686894
0	0.6321741	0.6321741	-1.1573718e-10	0.0643466	0.0643466	0	127623.305	127623.29	-2e-05	646455.9	238587.9	-4.334258e-05	238587.78	646455.75	-0.000121359226
0	0.63206214	0.63206214	-1.4880494e-10	0.06420524	0.06420524	0	127600.7	127600.7	-3.1875e-05	646527.6	238359.52	-9.535367e-05	238359.4	646527.44	-0.00016903607
0	0.63194984	0.6319498	-1.1573718e-10	0.064063966	0.064063966	0	127578.03	127578.03	-2.5e-05	646598.9	238131.02	-9.535367e-05	238130.86	646598.75	-0.00010185506
0	0.6318386	0.6318386	-2.3147435e-10	0.063922584	0.063922584	0	127555.586	127555.586	-4.5e-05	646670.44	237903.83	-0.0001278606	237903.66	646670.4	-0.0002167129
0	0.63172626	0.6317264	-2.3147435e-10	0.06378101	0.063781016	0	127532.914	127532.914	-4.125e-05	646741.6	237675.39	-0.00016036755	237675.23	646741.5	-0.00017337032
0	0.6316131	0.63161314	-8.266941e-11	0.06363963	0.06363963	0	127510.05	127510.055	-1.75e-05	646813.56	237444.9	-4.334258e-05	237444.77	646813.44	-4.2259016e-05
0	0.6315018	0.6315018	-3.1414377e-10	0.06349825	0.06349824	0	127487.58	127487.58	-5.25e-05	646884.7	237218.03	-0.00014736477	237217.88	646884.5	-0.00028606103
0	0.63138777	0.6313878	-2.7280905e-10	0.06335668	0.06335668	0	127464.55	127464.56	-5.5e-05	646956.44	236986.55	-0.00013002774	236986.39	646956.3	-0.00028606103
0	0.6312757	0.6312757	-1.818727e-10	0.063215286	0.06321527	0	127441.95	127441.94	-3.75e-05	647027.9	236758.25	-0.00015603329	236758.11	647027.75	-0.00011377427
0	0.6311625	0.6311625	-1.2400411e-10	0.06307404	0.06307404	0	127419.086	127419.086	-1.9375e-05	647099.4	236528.19	0	236528.02	647099.4	-0.0001712032
0	0.631048	0.631048	-2.2320741e-10	0.062932655	0.062932655	0	127395.984	127395.984	-4.5e-05	647171.06	236296.39	-0.00018637309	236296.27	647170.8	-0.00013219487
0	0.6309356	0.6309356	-2.3147435e-10	0.062790945	0.062790945	0	127373.27	127373.27	-4.5e-05	647242.25	236067.72	-0.00014736477	236067.56	647242.1	-0.00018637309
0	0.6308205	0.6308205	-1.818727e-10	0.062649705	0.062649705	0	127350.05	127350.04	-4e-05	647314.1	235834.77	-0.00010402219	235834.61	647313.94	-0.00016903607
0	0.6307074	0.6307074	-4.1334706e-11	0.06250833	0.06250833	0	127327.22	127327.21	-1.0625e-05	647385.4	235605.16	-0.00015603329	235604.98	647385.25	7.151526e-05
0	0.63059336	0.6305933	-1.818727e-10	0.06236674	0.06236674	0	127304.18	127304.17	-3.9375e-05	647456.94	235373.78	-0.00015603329	235373.64	647456.9	-0.00013219487
0	0.63047755	0.6304775	-1.40538e-10	0.062225346	0.062225346	0	127280.805	127280.805	-2e-05	647528.8	235139.86	-9.535367e-05	235139.7	647528.75	-8.56016e-05
0	0.63036376	0.63036376	-1.7360575e-10	0.06208412	0.06208412	0	127257.84	127257.836	-3.5e-05	647600.1	234909.34	-8.668516e-05	234909.19	647600.06	-0.0001278606
0	0.6302477	0.6302477	-2.1494047e-10	0.061942417	0.061942413	0	127234.41	127234.414	-4.25e-05	647672.06	234674.92	-0.00010402219	234674.73	647671.9	-0.00017987171
0	0.6301336	0.6301336	-9.920329e-11	0.06180102	0.06180102	0	127211.39	127211.375	-1.25e-05	647743.44	234443.88	0	234443.73	647743.25	-0.00014519764
0	0.630017	0.63001704	1.6533882e-11	0.06165979	0.06165979	0	127187.836	127187.83	-7.5e-06	647815.4	234208.61	-2.167129e-06	234208.47	647815.2	4.334258e-06
0	0.62990236	0.6299024	-2.8934294e-10	0.061518367	0.061518367	0	127164.7	127164.7	-5.8125e-05	647886.7	233976.83	-0.00022538142	233976.67	647886.56	-0.00018203883
0	0.62978625	0.62978625	-1.4880494e-10	0.06137681	0.06137681	0	127141.25	127141.25	-2.5e-05	647958.6	233742.3	-4.7676836e-05	233742.12	647958.5	-0.00014303051
0	0.6296703	0.6296704	-1.40538e-10	0.061235435	0.061235435	0	127117.84	127117.84	-2.8125e-05	648030.25	233508.36	-8.668516e-05	233508.22	648030.06	-0.00014736477
0	0.62955284	0.6295528	-2.3147435e-10	0.061094042	0.061094042	0	127094.125	127094.12	-3.75e-05	648102.1	233272.06	-0.00013002774	233271.92	648101.94	-0.00016036755
0	0.6294363	0.6294363	-1.818727e-10	0.0609525	0.060952503	0	127070.59	127070.59	-3.125e-05	648173.75	233037.22	-8.885229e-05	233037.06	648173.6	-0.00014519764
0	0.62932026	0.6293203	-1.3227106e-10	0.060811102	0.060811102	0	127047.17	127047.17	-2.75e-05	648245.4	232803.1	-2.6005548e-05	232802.94	648245.3	-0.00012244278
0	0.62920344	0.6292034	-8.266941e-12	0.06066984	0.06066984	0	127023.58	127023.586	-3.125e-06	648316.94	232567.97	1.7337032e-05	232567.83	648316.7	-5.959605e-05
0	0.62908596	0.62908596	-1.6533883e-10	0.060528446	0.060528446	0	126999.88	126999.89	-3.5e-05	648388.7	232331.86	-0.00020804438	232331.7	648388.56	-6.934813e-05
0	0.6289675	0.6289676	-2.4800823e-10	0.0603869	0.060386896	0	126975.97	126975.98	-5.5e-05	648460.56	232094.19	-0.00018854022	232094.03	648460.4	-0.00016253468
0	0.6288512	0.62885123	-2.3974128e-10	0.060245506	0.060245506	0	126952.48	126952.49	-4.1875e-05	648531.9	231859.98	-0.00013869625	231859.86	648531.75	-0.00018203883
0	0.62873256	0.62873256	-1.1573718e-10	0.060104124	0.060104124	0	126928.53	126928.54	-1e-05	648604.06	231621.66	8.668516e-06	231621.5	648603.94	-0.00012569348
0	0.62861353	0.62861353	-2.2320741e-10	0.059962578	0.05996258	0	126904.51	126904.51	-4.5e-05	648675.8	231383.33	-0.00016903607	231383.17	648675.7	-0.000201543
0	0.62849605	0.62849605	-1.07470234e-10	0.059821147	0.059821147	0	126880.78	126880.766	-1.3125e-05	648747.7	231146.94	-9.535367e-05	231146.8	648747.44	-8.993586e-05
0	0.6283763	0.62837636	-2.4800823e-10	0.05967991	0.059679918	0	126856.61	126856.61	-4.75e-05	648819.4	230907.53	-0.00019937586	230907.39	648819.3	-0.00014736477
0	0.6282585	0.6282585	-1.3227106e-10	0.05953851	0.05953851	0	126832.83	126832.836	-2.5e-05	648890.9	230671.1	-4.334258e-05	230670.95	648890.8	-0.00015169903
0	0.62813854	0.62813854	-1.3227106e-10	0.059396826	0.059396826	0	126808.62	126808.61	-2.75e-05	648962.75	230431.33	-5.2011095e-05	230431.19	648962.6	-0.00014194695
0	0.62801915	0.62801915	-5.5388505e-10	0.059255596	0.059255596	0	126784.516	126784.5	-0.0001075	649034.7	230192.2	-0.00034674065	230192.05	649034.56	-0.00046159848
0	0.6278992	0.6278992	-2.1494047e-10	0.059114188	0.059114188	0	126760.3	126760.3	-3.75e-05	649106.7	229952.38	-0.0001495319	229952.22	649106.5	-0.0001278606
0	0.62778056	0.6277806	-1.9840658e-10	0.05897263	0.058972627	0	126736.35	126736.336	-4.25e-05	649178.25	229714.75	-0.00010402219	229714.61	649178.06	-0.00020371012
0	0.6276604	0.6276604	-2.1494047e-10	0.058831234	0.058831234	0	126712.08	126712.08	-4.5e-05	649250.25	229474.4	-0.00015603329	229474.27	649250.2	-0.00018420596
0	0.62753886	0.62753886	-2.4800823e-10	0.058689985	0.058689985	0	126687.56	126687.56	-4.5e-05	649322.3	229232.36	-0.00013652912	229232.23	649322.06	-0.00022213072
0	0.62741864	0.6274186	-3.3067765e-10	0.0585483	0.0585483	0	126663.27	126663.27	-7.0625e-05	649393.9	228992.39	-0.00033807213	228992.22	649393.7	-0.00015603329
0	0.62729883	0.6272989	-2.4800823e-10	0.058406904	0.058406904	0	126639.12	126639.1	-4.5e-05	649465.6	228753.05	-7.8016645e-05	228752.89	649465.44	-0.0002470527
0	0.6271766	0.6271767	-2.3147435e-10	0.058265664	0.058265664	0	126614.414	126614.414	-5e-05	649537.7	228509.72	-0.000201543	228509.58	649537.56	-0.00014086338
0	0.6270562	0.6270561	-1.9013964e-10	0.05812423	0.05812423	0	126590.086	126590.09	-3.8125e-05	649609.6	228269.06	-9.535367e-05	228268.92	649609.56	-0.0001712032
0	0.6269345	0.6269346	-3.389446e-10	0.057982713	0.057982713	0	126565.55	126565.54	-6.5e-05	649681.4	228027.17	-0.00019070735	228027.02	649681.1	-0.00028172677
0	0.6268119	0.6268119	-2.4800823e-10	0.057841305	0.05784131	0	126540.79	126540.78	-4.5e-05	649753.56	227783.31	-0.00017337032	227783.19	649753.44	-0.0001462812
0	0.62669075	0.6266907	-2.4800823e-10	0.057699904	0.057699904	0	126516.33	126516.33	-4.875e-05	649825.1	227542.05	-0.00011269071	227541.9	649824.94	-0.00022321429
0	0.62656826	0.62656826	-1.4880494e-10	0.057558395	0.057558395	0	126491.59	126491.59	-3.625e-05	649897.3	227298.38	-6.934813e-05	227298.25	649897.1	-0.00017770458
0	0.6264451	0.6264451	-2.81076e-10	0.057416987	0.057416987	0	126466.74	126466.734	-5e-05	649969.06	227054.23	-0.00010402219	227054.06	649969	-0.00023730063
0	0.62632304	0.62632304	-2.645421e-10	0.0572757	0.05727571	0	126442.09	126442.086	-4.75e-05	650041.4	226811.02	-0.0001647018	226810.86	650041.25	-0.00018962378
0	0.62619925	0.62619925	-1.6533882e-11	0.0571343	0.0571343	0	126417.1	126417.08	-5e-06	650113.2	226565.92	8.668516e-05	226565.77	650113	-9.318654e-05
0	0.6260772	0.6260773	-1.9013964e-10	0.05699279	0.05699279	0	126392.46	126392.46	-4e-05	650184.8	226323.44	-0.00013219487	226323.3	650184.6	-0.000149261
0	0.6259527	0.6259527	-1.9013964e-10	0.05685139	0.056851387	0	126367.31	126367.32	-4.375e-05	650257	226076.97	-0.00013869625	226076.83	650256.75	-0.0001647018
0	0.62582827	0.62582827	-1.5707188e-10	0.05670998	0.056709986	0	126342.2	126342.22	-2.75e-05	650329.2	225830.45	-0.00010835645	225830.31	650329.1	-8.23509e-05
0	0.6257058	0.6257058	-1.2400411e-10	0.05656847	0.05656847	0	126317.5	126317.5	-2.5e-05	650400.94	225587.44	-0.00017770458	225587.27	650400.7	-3.6841193e-05
0	0.6255803	0.6255804	-2.0667353e-10	0.05642703	0.05642703	0	126292.17	126292.15	-3.6875e-05	650473.2	225339.47	-0.00013002774	225339.33	650473	-0.00015820042
0	0.62545675	0.62545675	-2.1494047e-10	0.056285787	0.056285787	0	126267.21	126267.21	-4.75e-05	650545.1	225094.42	-0.00017987171	225094.3	650545	-0.00015820042
0	0.6253325	0.6253325	-2.2320741e-10	0.056144364	0.056144364	0	126242.11	126242.11	-3.28125e-05	650616.94	224848.6	-0.00017337032	224848.44	650616.8	-0.00011702497
0	0.6252065	0.6252065	-8.266941e-11	0.0560027	0.056002706	0	126216.695	126216.67	-2.375e-05	650688.8	224600.38	-0.000121359226	224600.25	650688.7	-7.5849515e-05
0	0.6250821	0.6250821	-1.9013964e-10	0.055861466	0.05586147	0	126191.56	126191.58	-4.5e-05	650760.94	224354.16	-6.934813e-05	224354	650760.8	-0.00020587725
0	0.6249557	0.6249557	-8.266941e-11	0.05572005	0.05572005	0	126166.07	126166.07	-1.5e-05	650832.8	224105.36	-0.00013002774	224105.2	650832.6	-9.752081e-06
0	0.6248314	0.6248314	-1.6533883e-10	0.05557856	0.05557856	0	126140.97	126140.97	-3.125e-05	650904.44	223859.66	-0.00011269071	223859.53	650904.25	-0.00014086338
0	0.62470406	0.62470406	-1.6533883e-10	0.055437103	0.05543711	0	126115.24	126115.26	-3e-05	650976.8	223608.95	-6.934813e-05	223608.8	650976.7	-0.00011485784
0	0.6245784	0.6245784	-2.81076e-10	0.05529586	0.05529586	0	126089.9	126089.9	-6.25e-05	651049.06	223360.95	-0.00013002774	223360.81	651048.8	-0.000268724
0	0.62445205	0.6244521	-9.920329e-11	0.055154454	0.055154454	0	126064.38	126064.375	-1.875e-05	651121.06	223112.03	-9.535367e-05	223111.88	651120.8	-7.8016645e-05
0	0.6243246	0.6243246	-1.3227106e-10	0.05501279	0.055012785	0	126038.65	126038.664	-2.5e-05	651192.9	222861.78	-9.535367e-05	222861.61	651192.7	-9.318654e-05
0	0.6241986	0.62419856	2.4800823e-11	0.054871544	0.054871544	0	126013.2	126013.2	0	651264.9	222613.28	1.7337032e-05	222613.12	651264.7	-1.5169903e-05
0	0.6240703	0.6240703	-1.40538e-10	0.05473013	0.054730132	0	125987.305	125987.3	-2.5625e-05	651337.06	222361.53	-7.8016645e-05	222361.34	651336.8	-0.00015494972
0	0.6239433	0.6239433	-7.440247e-11	0.054588605	0.054588605	0	125961.69	125961.68	-1.75e-05	651409.1	222111.78	-0.00010402219	222111.64	651408.94	-2.167129e-05
0	0.62381613	0.6238161	-1.6533883e-10	0.05444718	0.05444719	0	125935.99	125936.01	-2.625e-05	651481	221861.66	-4.334258e-05	221861.52	651480.9	-0.00015820042
0	0.62368673	0.62368673	-2.645421e-10	0.05430595	0.05430595	0	125909.88	125909.875	-4.75e-05	651553.4	221608.2	-0.00018203883	221608.05	651553.25	-0.00020262656
0	0.6235592	0.6235591	-2.3147435e-10	0.05416429	0.05416429	0	125884.12	125884.12	-4.25e-05	651625.2	221357.77	-0.000268724	221357.62	651625	-8.0183774e-05
0	0.62343085	0.6234308	-9.093635e-11	0.05402286	0.05402286	0	125858.22	125858.21	-1e-05	651697.2	221106.06	4.334258e-06	221105.9	651697.06	-6.934813e-05
0	0.62330186	0.62330186	-1.818727e-10	0.053881623	0.053881623	0	125832.17	125832.164	-2.6875e-05	651769.44	220853.22	-0.00017337032	220853.06	651769.3	-3.6841193e-05
0	0.6231736	0.62317353	-2.4800823e-10	0.053740162	0.053740162	0	125806.28	125806.27	-5.25e-05	651841.3	220601.86	-0.00019070735	220601.73	651841.1	-0.00017337032
0	0.6230428	0.6230428	-1.9840658e-10	0.053598683	0.053598683	0	125779.88	125779.88	-3.75e-05	651913.75	220346.39	-0.00012569348	220346.23	651913.5	-0.00018854022
0	0.6229147	0.6229146	-1.5707188e-10	0.053457264	0.053457264	0	125754.02	125754.01	-2.5e-05	651985.4	220095.38	-6.0679613e-05	220095.27	651985.1	-0.0001311113
0	0.62278235	0.6227823	-1.2400411e-10	0.053315844	0.05331584	0	125727.305	125727.3	-1.25e-05	652058.2	219837.25	-2.6005548e-05	219837.12	652057.94	-0.00017987171
0	0.6226549	0.62265486	-1.40538e-10	0.05317437	0.053174376	0	125701.55	125701.56	-2.75e-05	652129.5	219587.44	-0.00010402219	219587.3	652129.3	-6.284674e-05
0	0.6225242	0.6225242	-2.2320741e-10	0.053032946	0.053032946	0	125675.2	125675.195	-4e-05	652201.8	219332.28	-0.00018203883	219332.16	652201.56	-0.00012569348
0	0.6223934	0.6223934	-1.9840658e-10	0.05289166	0.05289166	0	125648.8	125648.78	-4.5e-05	652273.94	219077.06	-3.9008322e-05	219076.92	652273.75	-0.00023404993
0	0.62226194	0.62226194	-1.07470234e-10	0.052750226	0.052750226	0	125622.25	125622.24	-2.6875e-05	652346	218820.9	-0.0001647018	218820.77	652345.9	-2.167129e-05
0	0.62213045	0.6221304	-1.6533883e-10	0.052608766	0.05260877	0	125595.695	125595.68	-3.4375e-05	652418.1	218564.66	-6.0679613e-05	218564.52	652417.94	-0.00018312239
0	0.6220006	0.6220005	-2.3147435e-10	0.052467342	0.052467342	0	125569.48	125569.48	-4.75e-05	652489.8	218311.19	-0.00013002774	218311.05	652489.56	-0.0001712032
0	0.6218673	0.6218673	-1.4880494e-10	0.052325904	0.052325908	0	125542.57	125542.57	-3.25e-05	652562.3	218052.05	-0.00010835645	218051.94	652562.1	-0.00015494972
0	0.62173665	0.6217366	-4.9601646e-11	0.05218446	0.05218446	0	125516.2	125516.19	-5.625e-06	652634.25	217797.3	-3.4674063e-05	217797.17	652634	-5.2011095e-05
0	0.62160313	0.62160313	-2.8934294e-10	0.052042983	0.052042987	0	125489.26	125489.24	-5.5e-05	652706.5	217538.14	-0.00019070735	217538	652706.25	-0.000201543
0	0.62147224	0.62147224	-2.7280905e-10	0.051901728	0.051901728	0	125462.83	125462.81	-5.125e-05	652778.1	217283.16	-9.535367e-05	217283.05	652778	-0.00027955964
0	0.6213391	0.621339	-1.6533883e-10	0.051760297	0.0517603	0	125435.945	125435.94	-3.6875e-05	652850.5	217024.38	-0.00011269071	217024.25	652850.25	-0.00014086338
0	0.621205	0.621205	-2.4800823e-10	0.051618665	0.051618665	0	125408.87	125408.85	-4.75e-05	652922.7	216764.44	-0.00017337032	216764.31	652922.56	-0.0001647018
0	0.6210729	0.6210728	-1.5707188e-10	0.05147742	0.05147742	0	125382.2	125382.195	-3e-05	652994.6	216507.55	-0.000134362	216507.4	652994.5	-0.00010835645
0	0.6209381	0.6209381	-1.7360575e-10	0.051335983	0.051335983	0	125354.984	125354.984	-4e-05	653066.9	216246.72	-0.00013869625	216246.58	653066.6	-0.00012460991
0	0.6208053	0.62080526	-1.4880494e-10	0.051194496	0.051194493	0	125328.18	125328.16	-2.5e-05	653138.9	215988.73	-0.00016036755	215988.61	653138.56	-8.668516e-05
0	0.6206716	0.6206715	-2.0667353e-10	0.051053066	0.051053066	0	125301.18	125301.16	-3.8125e-05	653210.9	215729.5	-0.00019070735	215729.38	653210.7	-9.968793e-05
0	0.62053597	0.6205359	-1.5707188e-10	0.05091181	0.050911807	0	125273.8	125273.78	-2.75e-05	653283	215467.36	-6.934813e-05	215467.22	653282.9	-0.000109440014
0	0.62040246	0.62040246	-1.40538e-10	0.050770186	0.050770186	0	125246.836	125246.836	-3.25e-05	653355.1	215208.44	-0.00014736477	215208.31	653354.9	-9.535367e-05
0	0.62026644	0.62026644	-2.645421e-10	0.050628755	0.050628755	0	125219.4	125219.39	-5e-05	653427.2	214946	-0.00023404993	214945.88	653427.06	-0.00014194695
0	0.62013215	0.6201321	-3.389446e-10	0.050487496	0.050487496	0	125192.28	125192.27	-6.9375e-05	653499.3	214685.86	-0.00016903607	214685.73	653499.06	-0.00033373787
0	0.6199968	0.6199967	-1.40538e-10	0.050346017	0.050346017	0	125164.945	125164.93	-2.5e-05	653571.44	214424.14	-0.00013869625	214424.02	653571.2	-8.451803e-05
0	0.61986005	0.61986	-1.3227106e-10	0.050204586	0.050204586	0	125137.34	125137.336	-2.5e-05	653643.44	214160.77	-4.7676836e-05	214160.64	653643.25	-0.00013869625
0	0.61972517	0.61972517	3.3067764e-11	0.050063144	0.050063144	0	125110.11	125110.11	6.875e-06	653715.5	213899.84	-4.334258e-05	213899.72	653715.25	3.575763e-05
0	0.619589	0.6195889	-8.266941e-11	0.049921695	0.049921695	0	125082.625	125082.59	-1.6875e-05	653787.5	213637.11	-8.668516e-05	213636.98	653787.4	-5.6345354e-05
0	0.6194513	0.6194512	-5.786859e-11	0.04978028	0.04978028	0	125054.81	125054.805	-1.25e-05	653859.6	213372.2	-6.934813e-05	213372.06	653859.5	8.668516e-06
0	0.6193145	0.6193145	-1.4880494e-10	0.049638826	0.049638826	0	125027.22	125027.195	-2.8125e-05	653931.9	213108.56	-9.535367e-05	213108.44	653931.6	-9.860437e-05
0	0.6191784	0.6191784	-2.1494047e-10	0.04949753	0.04949753	0	124999.75	124999.72	-4.25e-05	654003.7	212846.3	-6.934813e-05	212846.17	654003.44	-0.00025138695
0	0.61904	0.6190399	-2.81076e-10	0.049356084	0.049356084	0	124971.79	124971.77	-5.375e-05	654075.9	212580.23	-0.00018637309	212580.1	654075.6	-0.00019612517
0	0.6189039	0.6189039	-1.7360575e-10	0.049214657	0.049214657	0	124944.32	124944.305	-4e-05	654147.56	212318.03	-0.000121359226	212317.95	654147.4	-0.00014844834
0	0.6187646	0.6187646	-8.266941e-11	0.049073208	0.04907321	0	124916.195	124916.18	-2.5e-05	654219.7	212050.84	-6.0679613e-05	212050.72	654219.56	-9.968793e-05
0	0.61862713	0.61862713	-2.8934294e-10	0.048931774	0.048931766	0	124888.43	124888.445	-6.1875e-05	654291.9	211786.25	-0.00022104716	211786.12	654291.75	-0.00020371012
0	0.61848885	0.6184887	-1.4880494e-10	0.04879036	0.04879036	0	124860.53	124860.5	-3.0625e-05	654363.7	211520.73	-0.00010402219	211520.58	654363.56	-0.00010618932
0	0.6183491	0.618349	-1.818727e-10	0.048648857	0.048648857	0	124832.33	124832.305	-3.25e-05	654435.8	211253	-0.00010402219	211252.84	654435.6	-0.00017011963
0	0.6182114	0.6182113	-2.2320741e-10	0.04850761	0.04850761	0	124804.516	124804.51	-4.1875e-05	654507.56	210988.44	-0.00020587725	210988.31	654507.4	-0.00010402219
0	0.6180717	0.61807156	-2.5627517e-10	0.048366144	0.048366148	0	124776.305	124776.3	-5.25e-05	654579.94	210720.55	-0.0001647018	210720.4	654579.7	-0.0002134622
0	0.6179314	0.6179314	-1.3227106e-10	0.048224546	0.04822455	0	124748	124747.984	-2.5e-05	654652	210452.16	-3.4674063e-05	210452	654651.8	-0.00017770458
0	0.61779076	0.6177908	-8.266941e-11	0.048083294	0.048083294	0	124719.62	124719.59	-1.75e-05	654724	210183.2	1.0835645e-05	210183.1	654723.9	-0.000107272885
0	0.6176502	0.6176501	-1.2400411e-10	0.04794183	0.04794183	0	124691.21	124691.2	-2.5625e-05	654796.3	209914.03	-8.0183774e-05	209913.9	654796.06	-0.00011377427
0	0.6175109	0.6175109	-2.5627517e-10	0.0478004	0.047800392	0	124663.11	124663.1	-5.5e-05	654867.94	209647.53	-0.00020804438	209647.42	654867.75	-0.00017770458
0	0.61736935	0.61736935	-1.4880494e-10	0.04765894	0.047658946	0	124634.52	124634.51	-2.75e-05	654940.1	209377.16	-7.3682386e-05	209377.03	654939.9	-8.343447e-05
0	0.61722773	0.6172277	-1.4880494e-10	0.047517676	0.047517676	0	124605.92	124605.914	-2.5e-05	655012.25	209106.62	-8.668516e-05	209106.52	655012.06	-6.39303e-05
0	0.6170881	0.617088	-1.1573718e-10	0.047376227	0.04737622	0	124577.75	124577.75	-2.5e-05	655084	208839.48	-6.934813e-05	208839.34	655083.8	-0.00010618932
0	0.61694545	0.6169453	-2.5627517e-10	0.047234632	0.04723464	0	124548.945	124548.92	-5.75e-05	655156	208567.75	-0.0002167129	208567.61	655155.75	-0.0001647018
0	0.61680317	0.61680317	-1.818727e-10	0.047093365	0.047093365	0	124520.23	124520.21	-3.375e-05	655228.1	208296.44	-0.000121359226	208296.36	655227.9	-0.00014086338
0	0.6166625	0.61666244	-2.4800823e-10	0.046951856	0.046951856	0	124491.83	124491.8	-5e-05	655299.8	208027.77	-0.00017987171	208027.66	655299.7	-0.00019937586
0	0.6165201	0.61652005	-2.4800823e-11	0.04681048	0.04681048	0	124463.086	124463.07	-4.375e-06	655371.8	207756.5	-0.00010835645	207756.38	655371.56	3.0339806e-05
0	0.61637616	0.61637604	-1.07470234e-10	0.046669014	0.046669014	0	124434	124434	-2.125e-05	655443.56	207483	-0.00011269071	207482.9	655443.44	-6.0679613e-05
0	0.61623436	0.61623424	-2.3974128e-10	0.04652776	0.046527762	0	124405.39	124405.37	-4.5e-05	655515.44	207212.77	-0.00010402219	207212.62	655515.25	-0.0001950416
0	0.61608964	0.6160895	-2.3147435e-10	0.04638618	0.04638618	0	124376.164	124376.16	-4.75e-05	655587.6	206937.97	-0.0001647018	206937.84	655587.44	-0.00017987171
0	0.61594546	0.6159454	-1.2400411e-10	0.046244707	0.04624471	0	124347.06	124347.05	-2.75e-05	655659.8	206663.94	-5.2011095e-05	206663.81	655659.6	-0.00016036755
0	0.61580306	0.615803	-4.1334706e-11	0.04610345	0.04610345	0	124318.32	124318.3	-7.5e-06	655731.4	206392.94	0	206392.83	655731.25	-8.885229e-05
0	0.6156575	0.61565745	-1.2400411e-10	0.045961928	0.045961928	0	124288.92	124288.914	-1.75e-05	655803.5	206117.1	-3.6841193e-05	206116.97	655803.25	-8.343447e-05
0	0.6155138	0.61551374	-1.3227106e-10	0.04582056	0.04582056	0	124259.93	124259.914	-2.375e-05	655875.44	205844.1	-4.334258e-05	205843.95	655875.2	-0.00016036755
0	0.61536807	0.615368	-2.0667353e-10	0.045679096	0.0456791	0	124230.516	124230.484	-3.5e-05	655947.2	205568.19	-0.00010402219	205568.1	655947	-0.00017987171
0	0.61522394	0.6152238	-2.1494047e-10	0.045537617	0.04553762	0	124201.414	124201.39	-3.5e-05	656019.1	205294.52	-0.00018637309	205294.4	656018.94	-0.00011702497
0	0.61507726	0.6150772	-1.40538e-10	0.045396265	0.045396265	0	124171.8	124171.79	-3.0625e-05	656091.2	205017.06	-6.0679613e-05	205016.95	656090.94	-0.00016686894
0	0.6149329	0.61493284	-2.1494047e-10	0.04525479	0.04525479	0	124142.66	124142.63	-4.25e-05	656162.8	204743.33	-0.00011485784	204743.25	656162.6	-0.0001495319
0	0.6147863	0.6147862	-1.9013964e-10	0.045113478	0.04511347	0	124113.07	124113.04	-4e-05	656234.56	204466.42	-0.00019937586	204466.3	656234.4	-9.210298e-05
0	0.6146407	0.61464065	-3.637454e-10	0.044972	0.04497199	0	124083.67	124083.65	-6.875e-05	656306.3	204190.81	-0.0002773925	204190.72	656306.1	-0.00020371012
0	0.61449265	0.6144926	-2.2320741e-10	0.04483065	0.04483065	0	124053.79	124053.78	-5e-05	656378.2	203911.72	-0.0001647018	203911.61	656377.94	-0.00018420596
0	0.6143458	0.61434567	-1.5707188e-10	0.044689175	0.044689175	0	124024.125	124024.1	-2.71875e-05	656450.2	203634.02	-0.00011052358	203633.9	656450	-0.000121359226
0	0.61419797	0.61419785	-1.7360575e-10	0.044547684	0.044547684	0	123994.27	123994.266	-3.84375e-05	656522.2	203355.03	-0.000121359226	203354.94	656522	-0.00013869625