# t (s)	mx ()	my ()	mz ()	B_extx (T)	B_exty (T)	B_extz (T)	m_fullx (A/m)	m_fully (A/m)	m_fullz (A/m)	m_full.region1x (A/m)	m_full.region1y (A/m)	m_full.region1z (A/m)	m_full.region2x (A/m)	m_full.region2y (A/m)	m_full.region2z (A/m)
0	0.6516494	0.65164495	-7.1381057e-10	0.07071067	0.07071067	0	142059.58	142058.61	-0.00015433674	642337.56	269967.6	-0.0005897772	269971.62	642335.5	-0.00041775886
0	0.65155226	0.65154946	-9.4719045e-11	0.07056918	0.07056918	0	142038.4	142037.78	-1.6262755e-05	642431.2	269739.4	-4.710026e-05	269742	642429.8	-4.710026e-05
0	0.65145236	0.6514497	-3.7301728e-10	0.07042789	0.07042789	0	142016.62	142016.05	-8.434311e-05	642529.56	269501.44	-0.00028669724	269503.88	642528.2	-0.00024778832
0	0.6513523	0.6513496	1.1913118e-10	0.070286386	0.070286386	0	141994.8	141994.22	2.4394132e-05	642627.75	269262.97	0.00015153998	269265.44	642626.5	3.071756e-05
0	0.6512517	0.65124893	-3.6227593e-10	0.07014501	0.07014502	0	141972.86	141972.27	-7.8125e-05	642726.44	269023.47	-0.00020273592	269025.9	642725.06	-0.00029693643
0	0.65115064	0.651148	-3.4274625e-10	0.07000352	0.07000352	0	141950.84	141950.27	-7.3979594e-05	642825.1	268783.3	-0.0002948886	268785.75	642823.94	-0.00018840104
0	0.6510493	0.6510467	-4.0524128e-10	0.06986222	0.06986222	0	141928.75	141928.17	-8.944515e-05	642924.06	268542.56	-0.00030922345	268545.03	642922.7	-0.00027645807
0	0.65094835	0.65094566	-3.4372272e-10	0.069720745	0.069720745	0	141906.75	141906.17	-7.015306e-05	643022.6	268302.62	-0.00025393185	268305.06	643021.25	-0.0002498362
0	0.6508461	0.65084344	-2.470507e-10	0.06957926	0.06957926	0	141884.48	141883.88	-5.2933672e-05	643122.1	268060.03	-0.00016997052	268062.5	643120.9	-0.00019044889
0	0.6507448	0.6507421	-2.7195107e-10	0.06943794	0.06943794	0	141862.38	141861.78	-5.9630103e-05	643220.56	267819.72	-0.00016587484	267822.2	643219.25	-0.00019864023
0	0.6506422	0.6506394	7.421286e-11	0.0692964	0.0692964	0	141839.98	141839.4	1.945153e-05	643320.1	267576.34	9.624836e-05	267578.8	643318.8	3.071756e-05
0	0.65054	0.65053725	-2.7781e-10	0.0691551	0.0691551	0	141817.7	141817.14	-6.25e-05	643419	267334.5	-0.000163827	267336.97	643417.7	-0.0002621232
0	0.6504372	0.65043443	-3.90594e-10	0.0690136	0.0690136	0	141795.31	141794.7	-8.4980864e-05	643518.44	267091.12	-0.00017611403	267093.66	643517.1	-0.00038499344
0	0.6503335	0.65033084	-4.2916515e-10	0.068872124	0.068872124	0	141772.7	141772.12	-8.896684e-05	643618.4	266846.16	-0.00028055374	266848.62	643617	-0.0002887451
0	0.6502309	0.65022814	-2.3240343e-10	0.06873082	0.06873082	0	141750.33	141749.75	-4.8788264e-05	643717.3	266603.47	-0.00021707077	266605.94	643716	-9.624836e-05
0	0.65012753	0.6501247	-7.81188e-10	0.06858932	0.06858932	0	141727.81	141727.22	-0.00016916454	643816.6	266359.34	-0.0004996724	266361.88	643815.4	-0.00060206425
0	0.6500236	0.6500208	-2.6218622e-10	0.068447955	0.068447955	0	141705.12	141704.53	-5.4368622e-05	643916.5	266113.94	-0.00020068807	266116.47	643915.1	-0.00015973132
0	0.6499201	0.6499174	-2.446095e-10	0.06830648	0.06830648	0	141682.6	141682	-5.6600766e-05	644015.5	265870.25	-0.00016792267	265872.75	644014.1	-0.0001802097
0	0.6498149	0.6498122	-1.9139106e-10	0.06816515	0.06816515	0	141659.64	141659.06	-4.4164542e-05	644116	265622.4	-0.00011877457	265624.94	644114.6	-0.00012696593
0	0.6497107	0.6497081	-2.743923e-10	0.068023674	0.068023674	0	141636.95	141636.36	-6.090561e-05	644215.44	265377.16	-0.00019864023	265379.7	644214.1	-0.0002191186
0	0.6496057	0.64960295	-2.9831618e-10	0.06788219	0.06788219	0	141614.05	141613.45	-6.114477e-05	644315.6	265129.84	-0.00018225754	265132.38	644314.4	-0.00022116645
0	0.64950174	0.64949894	-3.9449993e-10	0.06774088	0.06774088	0	141591.38	141590.77	-8.864796e-05	644414.6	264885.2	-0.0003051278	264887.72	644413.3	-0.00027031454
0	0.64939505	0.64939237	-2.929455e-10	0.067599334	0.067599334	0	141568.12	141567.53	-6.473214e-05	644515.7	264634.78	-0.00020478375	264637.34	644514.44	-0.00022116645
0	0.6492899	0.6492872	-2.6365096e-10	0.06745803	0.06745803	0	141545.2	141544.61	-5.6202167e-05	644615.6	264387.66	-0.00018840104	264390.22	644614.4	-0.0001802097
0	0.64918435	0.64918154	-1.7186136e-10	0.06731653	0.06731653	0	141522.19	141521.58	-3.125e-05	644715.5	264140.03	-2.6621887e-05	264142.53	644714.25	-0.000163827
0	0.64907795	0.64907515	-2.1385022e-10	0.06717506	0.06717506	0	141498.98	141498.38	-4.591837e-05	644816.1	263890.47	-0.00013310944	263893	644814.75	-0.00014130078
0	0.6489719	0.6489692	-1.3280196e-10	0.06703376	0.06703376	0	141475.88	141475.28	-2.7503189e-05	644916.06	263642.1	-0.00011058323	263644.66	644914.7	-8.19135e-05
0	0.6488643	0.6488616	-1.757673e-10	0.066892266	0.066892266	0	141452.44	141451.83	-3.794643e-05	645017.06	263390.47	-0.000100344034	263393.06	645015.8	-0.0001310616
0	0.6487581	0.6487553	4.4430067e-11	0.066750884	0.066750884	0	141429.27	141428.66	6.2978315e-06	645117.1	263141.7	0.00010648755	263144.22	645115.8	-4.5052424e-05
0	0.64865047	0.64864767	-5.6587307e-10	0.06660941	0.06660941	0	141405.8	141405.19	-0.000125	645218.1	262890.03	-0.00045257207	262892.6	645216.7	-0.0003542759
0	0.6485426	0.6485398	-3.4567568e-10	0.06646809	0.06646809	0	141382.3	141381.67	-7.302296e-05	645319	262638.03	-0.00027031454	262640.62	645317.75	-0.00022321429
0	0.64843583	0.6484331	-1.6258475e-10	0.06632662	0.06632662	0	141359.02	141358.4	-3.140944e-05	645418.8	262388.78	-6.7578636e-05	262391.34	645417.56	-0.00016997052
0	0.648327	0.6483242	-9.325432e-11	0.06618514	0.06618514	0	141335.28	141334.66	-1.9610969e-05	645520.25	262134.9	-1.63827e-05	262137.48	645518.9	-8.6009175e-05
0	0.6482194	0.6482166	-1.95297e-10	0.066043824	0.066043824	0	141311.81	141311.22	-4.2091837e-05	645620.56	261883.95	-0.00013515727	261886.58	645619.25	-0.00011877457
0	0.6481108	0.648108	-5.0044857e-10	0.06590227	0.06590227	0	141288.14	141287.53	-0.000104432394	645721.56	261630.94	-0.00025802752	261633.53	645720.3	-0.00039523264
0	0.6480023	0.64799947	-1.5330814e-10	0.06576097	0.06576097	0	141264.48	141263.88	-3.4438777e-05	645822.25	261378.31	-0.00011058323	261380.9	645820.94	-0.00011058323
0	0.6478921	0.6478894	-2.8122768e-10	0.065619476	0.065619476	0	141240.5	141239.89	-6.3376916e-05	645923.9	261122.44	-0.00019044889	261125.03	645922.7	-0.00019864023
0	0.6477832	0.6477805	-2.4412125e-11	0.06547816	0.06547816	0	141216.75	141216.14	-6.4572705e-06	646024.9	260869.14	2.0478376e-05	260871.72	646023.56	-2.8669725e-05
0	0.64767355	0.6476707	-4.101237e-10	0.0653367	0.0653367	0	141192.83	141192.22	-8.601722e-05	646126.3	260614.12	-0.00023754915	260616.75	646124.94	-0.00035632373
0	0.64756334	0.64756054	-1.9920295e-10	0.06519521	0.06519521	0	141168.81	141168.19	-4.033801e-05	646227.5	260358.58	-0.000163827	260361.17	646226.1	-0.000104439714
0	0.6474526	0.6474498	-3.3932854e-10	0.0650539	0.0650539	0	141144.67	141144.06	-7.700893e-05	646329.44	260101.75	-0.00027031454	260104.38	646328	-0.00018635321
0	0.6473427	0.6473399	-5.204665e-10	0.06491236	0.06491236	0	141120.7	141120.08	-0.00010969388	646430.25	259846.94	-0.0001146789	259849.58	646428.8	-0.0005897772
0	0.64723146	0.64722866	-7.421286e-11	0.06477103	0.06477103	0	141096.45	141095.86	-1.554528e-05	646532.2	259589.22	-7.167431e-05	259591.81	646530.9	-4.5052424e-05
0	0.6471207	0.647118	-2.5437435e-10	0.06462956	0.06462956	0	141072.33	141071.7	-5.3890308e-05	646633.44	259332.97	-0.0002191186	259335.61	646632.2	-0.0001249181
0	0.64700866	0.6470059	-1.4744923e-10	0.06448809	0.06448809	0	141047.89	141047.28	-3.148916e-05	646735.5	259074.06	-8.19135e-06	259076.72	646734.2	-0.00020478375
0	0.6468976	0.64689475	-3.573935e-10	0.06434676	0.06434676	0	141023.69	141023.06	-7.676977e-05	646837	258817.06	-0.00026417105	258819.67	646835.7	-0.00021092726
0	0.6467856	0.6467827	-3.6129946e-10	0.06420529	0.06420529	0	140999.27	140998.64	-8.019771e-05	646938.94	258558.28	-0.0003604194	258560.9	646937.6	-0.00015563564
0	0.6466715	0.6466686	-7.030692e-11	0.06406391	0.06406391	0	140974.38	140973.75	-1.698023e-05	647041.9	258295.55	-0.00020478375	258298.17	647040.5	0.000100344034
0	0.64656085	0.646558	-1.171782e-11	0.06392241	0.06392241	0	140950.27	140949.62	-2.5510203e-06	647142.7	258039.78	4.710026e-05	258042.44	647141.4	-8.6009175e-05
0	0.6464485	0.64644575	-6.132326e-10	0.063781105	0.063781105	0	140925.77	140925.16	-0.00013073979	647244.4	257781	-0.00049557665	257783.66	647242.9	-0.00037680208
0	0.6463346	0.6463317	-1.562376e-10	0.06363964	0.06363964	0	140900.94	140900.31	-3.125e-05	647346.94	257518.86	-9.420052e-05	257521.52	647345.56	-0.0001372051
0	0.6462212	0.64621836	2.0994428e-11	0.06349814	0.06349814	0	140876.22	140875.6	5.5006376e-06	647449	257257.94	6.1435126e-06	257260.61	647447.7	8.19135e-06
0	0.64610803	0.6461052	-6.347153e-11	0.06335684	0.06335683	0	140851.55	140850.92	-1.171875e-05	647550.8	256997.72	-0.000102391874	257000.36	647549.5	8.19135e-06
0	0.6459931	0.6459903	2.538861e-11	0.06321529	0.06321529	0	140826.52	140825.88	3.5873725e-06	647654	256733.78	-4.3004587e-05	256736.42	647652.7	5.3243773e-05
0	0.6458794	0.6458764	-1.7772027e-10	0.06307396	0.06307396	0	140801.69	140801.06	-4.049745e-05	647756	256472.28	-7.167431e-05	256474.97	647754.8	-0.000163827
0	0.6457648	0.645762	-4.3941825e-10	0.06293249	0.06293249	0	140776.75	140776.11	-8.84088e-05	647858.44	256209.67	-0.00034813237	256212.38	647857.06	-0.00025393185
0	0.64564973	0.64564687	-3.90594e-10	0.06279103	0.06279103	0	140751.66	140751.03	-8.34662e-05	647961	255945.98	-0.00022526212	255948.67	647959.7	-0.0003235583
0	0.6455343	0.6455314	-5.4487864e-10	0.06264969	0.06264969	0	140726.47	140725.84	-0.0001200574	648064.06	255681.28	-0.00042185452	255683.97	648062.7	-0.00034813237
0	0.64541924	0.64541644	-1.435433e-10	0.062508225	0.062508225	0	140701.4	140700.77	-3.0771684e-05	648166.5	255417.83	-4.710026e-05	255420.53	648165.06	-0.00015563564
0	0.64530385	0.645301	-6.893984e-10	0.06236684	0.06236684	0	140676.23	140675.61	-0.00014795919	648268.8	255153.84	-0.0006102556	255156.55	648267.5	-0.00035222806
0	0.6451871	0.6451842	-2.470507e-10	0.062225346	0.062225346	0	140650.78	140650.16	-5.492666e-05	648372.1	254887.1	-0.00021502294	254889.81	648370.75	-0.0001474443
0	0.6450711	0.64506817	-2.846454e-10	0.062084038	0.062084038	0	140625.48	140624.86	-6.0108418e-05	648475	254621.83	-0.00012901376	254624.56	648473.56	-0.00027031454
0	0.6449545	0.6449516	-5.2925486e-10	0.061942577	0.061942577	0	140600.06	140599.45	-0.00011543367	648577.9	254355.66	-0.0004484764	254358.38	648576.5	-0.0003112713
0	0.64483714	0.6448342	-1.3573141e-10	0.061801083	0.06180108	0	140574.48	140573.86	-2.869898e-05	648680.94	254088.3	-6.348296e-05	254091.02	648679.56	-0.00013925295
0	0.64471966	0.6447168	-4.3404758e-10	0.061659772	0.061659772	0	140548.88	140548.27	-9.741709e-05	648784.44	253820.3	-0.00042185452	253823.02	648783.2	-0.00018225754
0	0.64460236	0.6445995	-1.1229578e-10	0.061518237	0.061518237	0	140523.31	140522.67	-2.1205356e-05	648887.3	253553.2	-0.00015563564	253555.92	648886	2.0478376e-05
0	0.6444853	0.6444824	-4.1402964e-10	0.061376892	0.061376892	0	140497.8	140497.17	-8.577806e-05	648989.94	253286.73	-0.00023959698	253289.48	648988.56	-0.00031946265
0	0.644366	0.64436316	-1.1473699e-10	0.06123543	0.06123543	0	140471.8	140471.16	-2.614796e-05	649094.06	253015.66	-2.6621887e-05	253018.36	649092.8	-0.00011877457
0	0.6442474	0.6442445	-2.514449e-10	0.061093967	0.061093967	0	140445.95	140445.31	-5.484694e-05	649197.56	252746.16	-0.0001372051	252748.89	649196.2	-0.00023345348
0	0.6441295	0.6441266	-1.6990839e-10	0.060952656	0.060952656	0	140420.25	140419.6	-3.7149235e-05	649300.4	252478.23	-0.00012696593	252480.98	649299.06	-8.8057015e-05
0	0.64400923	0.6440063	-4.2770043e-10	0.060811166	0.060811166	0	140394.02	140393.39	-9.119898e-05	649404.75	252205.5	-0.00030103212	252208.25	649403.4	-0.00030922345
0	0.6438908	0.6438878	-4.6236565e-10	0.060669776	0.060669772	0	140368.2	140367.56	-0.00010331633	649507.56	251936.77	-0.0002744102	251939.55	649506.3	-0.0003890891
0	0.6437707	0.64376765	-9.569553e-11	0.060528316	0.060528316	0	140341.98	140341.36	-2.088648e-05	649611.6	251664.45	-6.7578636e-05	251667.2	649610.3	-5.1195937e-05
0	0.6436509	0.6436479	-2.3337993e-10	0.060386974	0.060386974	0	140315.88	140315.23	-5.0382652e-05	649715.2	251393.14	-0.00023345348	251395.92	649713.8	-9.624836e-05
0	0.6435307	0.6435278	-3.4762868e-10	0.06024551	0.06024551	0	140289.7	140289.06	-7.286352e-05	649818.9	251121.47	-0.0002887451	251124.22	649817.44	-0.00017406618
0	0.6434097	0.64340687	-2.7146282e-10	0.06010405	0.06010405	0	140263.33	140262.69	-5.9231505e-05	649922.8	250848.16	-0.0001965924	250850.94	649921.4	-0.00017406618
0	0.64328897	0.64328605	-2.9831618e-10	0.059962712	0.059962712	0	140237.02	140236.34	-6.3536354e-05	650026.6	250575.12	-0.00017611403	250577.95	650025.25	-0.00023345348
0	0.64316744	0.64316446	3.4176974e-11	0.059821166	0.059821166	0	140210.52	140209.86	7.8125e-06	650130.8	250300.77	-1.63827e-05	250303.56	650129.56	7.781782e-05
0	0.64304614	0.6430432	-2.3045046e-10	0.05967986	0.05967986	0	140184.05	140183.4	-5.0382652e-05	650234.75	250027.08	-0.00012082241	250029.86	650233.4	-0.00020068807
0	0.64292395	0.64292103	-2.6804514e-10	0.059538368	0.059538368	0	140157.42	140156.77	-5.8673468e-05	650339.1	249751.61	-0.00016792267	249754.4	650337.7	-0.00023550131
0	0.6428016	0.64279866	-9.5207286e-11	0.059396908	0.059396908	0	140130.75	140130.1	-1.9132653e-05	650443.5	249475.95	-8.3961335e-05	249478.75	650442.1	-4.095675e-05
0	0.6426797	0.64267665	-6.2495044e-11	0.059255596	0.059255596	0	140104.16	140103.52	-1.1798469e-05	650547.1	249201.58	-2.457405e-05	249204.39	650545.8	-8.3961335e-05
0	0.6425563	0.6425533	-4.7701293e-10	0.059114102	0.059114102	0	140077.28	140076.61	-0.00010315689	650651.75	248924.2	-0.0003051278	248926.98	650650.4	-0.00036246722
0	0.6424331	0.6424302	-6.7035694e-10	0.058972705	0.058972705	0	140050.4	140049.77	-0.0001418208	650756.2	248647.39	-0.00042185452	248650.22	650754.8	-0.00054472475
0	0.6423089	0.6423059	-2.7927471e-10	0.05883125	0.05883125	0	140023.34	140022.69	-6.090561e-05	650861.1	248368.52	-9.624836e-05	248371.34	650859.75	-0.0002948886
0	0.6421859	0.6421829	-1.9627348e-10	0.0586899	0.0586899	0	139996.53	139995.88	-4.0816325e-05	650965	248092.44	-4.91481e-05	248095.27	650963.7	-0.00023550131
0	0.6420609	0.6420579	-1.8504391e-10	0.05854845	0.05854845	0	139969.28	139968.61	-3.8105867e-05	651070.2	247812.17	-0.00015768349	247815.02	651068.94	-8.3961335e-05
0	0.6419369	0.64193386	-2.4216829e-10	0.058406986	0.058406986	0	139942.23	139941.6	-5.2535077e-05	651174.6	247534.19	-0.00017611403	247537.02	651173.25	-0.00013515727
0	0.6418117	0.6418088	-1.723496e-10	0.05826565	0.05826565	0	139914.97	139914.31	-3.4677934e-05	651279.5	247254.1	-0.00024369266	247256.92	651278.25	6.1435126e-06
0	0.64168704	0.64168406	-5.1314286e-10	0.058124106	0.058124106	0	139887.78	139887.12	-0.000109375	651384.2	246974.88	-0.0004423329	246977.73	651382.75	-0.0002785059
0	0.6415616	0.6415586	-1.757673e-10	0.05798278	0.05798278	0	139860.42	139859.77	-3.523597e-05	651489.06	246694.28	-0.00016997052	246697.16	651487.6	-5.733945e-05
0	0.6414357	0.64143276	-4.941014e-10	0.05784131	0.05784131	0	139833	139832.34	-0.000106505104	651593.94	246413.22	-0.00043004588	246416.05	651592.56	-0.0002744102
0	0.64130896	0.641306	-3.6471715e-10	0.057699848	0.057699848	0	139805.34	139804.72	-7.629146e-05	651699.4	246130.34	-0.00028669724	246133.2	651698	-0.00020478375
0	0.6411822	0.64117926	1.95297e-11	0.05755853	0.05755853	0	139777.72	139777.08	5.2614796e-06	651804.4	245847.86	-0.00017611403	245850.73	651803.06	0.00017611403
0	0.6410564	0.6410533	-3.0759278e-10	0.05741706	0.05741706	0	139750.28	139749.64	-6.632653e-05	651908.94	245567.14	-0.00026007535	245570.02	651907.56	-0.00017201835
0	0.6409283	0.64092535	-4.5553025e-10	0.057275645	0.057275645	0	139722.38	139721.72	-9.901148e-05	652014.75	245282	-0.00031536698	245284.86	652013.44	-0.00035632373
0	0.6408012	0.6407982	-3.5934647e-10	0.05713419	0.05713419	0	139694.67	139694	-7.6450895e-05	652120.06	244998.83	-0.00022526212	245001.7	652118.7	-0.00027645807
0	0.64067346	0.64067036	-5.370668e-10	0.056992844	0.056992844	0	139666.81	139666.16	-0.00011607143	652225.25	244714.67	-0.00043004588	244717.55	652223.94	-0.0003235583
0	0.6405456	0.64054257	-2.9099254e-10	0.056851387	0.056851387	0	139638.95	139638.28	-6.25e-05	652330.44	244430.53	-0.0001802097	244433.44	652329	-0.00020887943
0	0.6404166	0.64041364	-1.9920295e-10	0.056709927	0.056709927	0	139610.83	139610.17	-4.19324e-05	652436.3	244144.11	-0.0001965924	244147.03	652434.9	-7.576999e-05
0	0.6402879	0.64028496	-3.5934647e-10	0.056568585	0.056568585	0	139582.77	139582.12	-8.075574e-05	652541.56	243858.6	-0.00030103212	243861.48	652540.25	-0.00024164483
0	0.64015865	0.6401557	-4.8091886e-10	0.056427047	0.056427047	0	139554.6	139553.92	-0.00010004783	652647.25	243571.94	-0.0003542759	243574.84	652645.94	-0.00033584534
0	0.64002913	0.64002603	-3.6911132e-10	0.05628571	0.05628571	0	139526.36	139525.69	-7.740752e-05	652752.8	243285.03	-0.00035222806	243287.95	652751.5	-0.00017201835
0	0.6398993	0.6398962	2.2459154e-11	0.05614425	0.05614425	0	139498.05	139497.39	6.377551e-06	652858.5	242997.58	-3.6861074e-05	243000.53	652857.2	9.010485e-05
0	0.63976866	0.63976556	-1.2694305e-10	0.056002792	0.056002792	0	139469.58	139468.9	-2.2321428e-05	652964.5	242708.72	-4.5052424e-05	242711.66	652963.1	-7.986566e-05
0	0.6396379	0.6396348	-2.1873264e-10	0.05586147	0.05586147	0	139441.06	139440.38	-4.679528e-05	653070.7	242419.47	-0.00010853539	242422.38	653069.4	-0.00017816186
0	0.639507	0.63950396	-8.251298e-11	0.055719994	0.055719994	0	139412.53	139411.86	-2.0408163e-05	653176.56	242130.25	-6.143512e-05	242133.17	653175.25	-3.4813238e-05
0	0.63937646	0.63937336	-3.7692321e-10	0.055578664	0.055578664	0	139384.08	139383.4	-8.4821426e-05	653282.06	241842.14	-0.00034813237	241845.05	653280.6	-0.00023140563
0	0.63924503	0.6392419	-2.4412125e-10	0.055437125	0.055437125	0	139355.39	139354.73	-5.1737883e-05	653388.1	241551.95	-0.0002191186	241554.88	653386.75	-0.0001146789
0	0.6391124	0.6391094	-2.148267e-10	0.05529578	0.05529578	0	139326.53	139325.84	-5.1020408e-05	653494.44	241259.94	-0.00017611403	241262.89	653493.2	-0.00013925295
0	0.63898045	0.6389774	-1.2157238e-10	0.055154327	0.055154327	0	139297.75	139297.08	-2.4633291e-05	653600.44	240969.28	-0.00012287025	240972.23	653599.06	-4.3004587e-05
0	0.63884735	0.6388442	-1.0936632e-10	0.05501287	0.05501287	0	139268.72	139268.05	-2.4394132e-05	653707.06	240676.34	-8.19135e-05	240679.3	653705.6	-6.1435126e-06
0	0.63871527	0.63871217	1.3866087e-10	0.054871522	0.054871522	0	139239.92	139239.25	2.606824e-05	653812.56	240385.84	7.781782e-05	240388.83	653811.2	0.0001249181
0	0.63858086	0.6385777	-4.4723014e-10	0.05473008	0.05473008	0	139210.62	139209.95	-0.0001011639	653919.56	240090.62	-0.00034608453	240093.58	653918.2	-0.00030103212
0	0.6384472	0.63844424	-3.2419303e-10	0.05458865	0.05458865	0	139181.52	139180.83	-6.983418e-05	654026.06	239797.17	-0.0002846494	239800.17	654024.75	-0.00018430538
0	0.6383133	0.6383102	-1.7186136e-10	0.054447185	0.054447185	0	139152.3	139151.62	-3.4359055e-05	654132.44	239503.2	-0.0001146789	239506.17	654131.06	-0.00012287025
0	0.63817906	0.63817596	-1.6697893e-10	0.054305855	0.054305855	0	139123.05	139122.36	-3.6989797e-05	654238.75	239208.89	-0.0001474443	239211.88	654237.5	-7.781782e-05
0	0.6380438	0.6380408	-3.10034e-10	0.054164406	0.054164406	0	139093.56	139092.89	-6.4572705e-05	654345.75	238912.75	-0.00027031454	238915.73	654344.4	-0.00013925295
0	0.6379089	0.6379057	-1.9920295e-10	0.054022938	0.054022938	0	139064.14	139063.44	-4.336735e-05	654452.1	238617.23	-6.143512e-05	238620.2	654450.8	-0.00023550131
0	0.63777256	0.6377694	5.077722e-11	0.0538816	0.0538816	0	139034.4	139033.72	1.0044643e-05	654559.06	238319.44	0.00019454455	238322.42	654557.75	-0.000100344034
0	0.63763773	0.6376345	-1.2694305e-10	0.05374007	0.05374007	0	139005.02	139004.33	-2.7901786e-05	654665.44	238024.38	-0.00012082241	238027.38	654664	-4.710026e-05
0	0.6375006	0.6374974	-3.5299932e-10	0.05359871	0.05359871	0	138975.11	138974.42	-7.589286e-05	654772.7	237725.02	-0.00031946265	237728.03	654771.4	-0.00017611403
0	0.6373652	0.637362	-3.320049e-10	0.053457264	0.053457264	0	138945.6	138944.92	-6.8877554e-05	654878.9	237429.3	-0.00020887943	237432.28	654877.5	-0.0002457405
0	0.63722694	0.63722384	-3.9254697e-10	0.053315822	0.053315822	0	138915.48	138914.81	-8.2748724e-05	654986.5	237128.27	-0.00022730997	237131.3	654985.06	-0.000327654
0	0.63709056	0.6370874	-3.5251108e-10	0.053174462	0.053174462	0	138885.75	138885.06	-7.5015945e-05	655093.1	236830.62	-0.00011672674	236833.67	655091.75	-0.00038499344
0	0.63695234	0.6369491	-1.3573141e-10	0.053033024	0.05303302	0	138855.61	138854.92	-2.7024873e-05	655200.2	236530.05	-0.0001474443	236533.06	655198.75	-7.576999e-05
0	0.63681394	0.63681084	-4.8433657e-10	0.052891586	0.052891586	0	138825.45	138824.75	-0.00010435268	655307.5	236229	-0.00047919396	236232	655306.2	-0.00021092726
0	0.6366755	0.6366724	-2.4314475e-10	0.052750126	0.052750126	0	138795.27	138794.58	-5.6122448e-05	655414.94	235927.66	-0.0002191186	235930.72	655413.6	-0.0001310616
0	0.6365378	0.6365346	-2.0994427e-10	0.052608777	0.052608773	0	138765.22	138764.52	-4.177296e-05	655521.3	235628.34	-0.00015563564	235631.38	655520.06	-0.00011263106
0	0.63639736	0.6363942	-2.6365096e-10	0.05246734	0.05246734	0	138734.64	138733.95	-6.218112e-05	655629.5	235323.88	-0.00026007535	235326.9	655628.06	-0.00014949213
0	0.6362584	0.6362553	-1.3084898e-10	0.052325882	0.052325882	0	138704.33	138703.64	-2.9177296e-05	655736.5	235022.19	-1.8430537e-05	235025.25	655735.2	-0.00018635321
0	0.6361166	0.6361134	-1.6844366e-10	0.05218454	0.05218454	0	138673.4	138672.72	-3.5714285e-05	655844.9	234715.2	-0.00015358781	234718.25	655843.5	-5.9387286e-05
0	0.63597786	0.63597476	-5.917499e-10	0.052043002	0.052043002	0	138643.19	138642.48	-0.00013432717	655951.25	234414.77	-0.0004689548	234417.83	655949.8	-0.00041366316
0	0.635837	0.6358338	-1.1913118e-10	0.051901635	0.051901635	0	138612.47	138611.78	-2.9336734e-05	656058.8	234109.97	-0.00011877457	234113.05	656057.5	-0.00010853539
0	0.6356955	0.63569236	-2.870866e-10	0.0517602	0.0517602	0	138581.62	138580.92	-5.883291e-05	656166.9	233803.86	-8.3961335e-05	233806.94	656165.44	-0.0002744102
0	0.63555473	0.6355515	-1.8943809e-10	0.051618766	0.051618766	0	138550.92	138550.22	-3.8584185e-05	656274.2	233499.25	-6.9626476e-05	233502.33	656272.9	-0.00023345348
0	0.63541293	0.6354097	-2.2263859e-10	0.05147742	0.05147742	0	138520.02	138519.33	-4.7831632e-05	656381.6	233193.39	-0.00027031454	233196.44	656380.3	-5.9387286e-05
0	0.6352696	0.63526636	-2.182444e-10	0.05133596	0.05133596	0	138488.77	138488.06	-4.551977e-05	656489.94	232884.28	-0.00013925295	232887.33	656488.6	-0.00015563564
0	0.63512754	0.6351243	-2.538861e-11	0.051194515	0.051194515	0	138457.78	138457.11	-5.341199e-06	656597.7	232577.8	-6.143512e-05	232580.86	656596.3	4.710026e-05
0	0.6349847	0.63498145	-5.1363114e-10	0.05105309	0.05105309	0	138426.66	138425.95	-0.00011296237	656705.3	232270.16	-0.00033174967	232273.27	656703.94	-0.0004198067
0	0.6348412	0.6348379	-4.662716e-10	0.050911706	0.050911706	0	138395.36	138394.67	-0.00010012755	656813.25	231961.2	-0.00026621888	231964.3	656811.9	-0.0003829456
0	0.6346977	0.6346945	-3.652054e-10	0.05077028	0.05077028	0	138364.11	138363.38	-7.924107e-05	656920.94	231652.67	-0.00034198887	231655.77	656919.6	-0.00015973132
0	0.63455313	0.63455	-7.0795164e-10	0.050628845	0.050628845	0	138332.6	138331.89	-0.00015098852	657029.5	231341.88	-0.0004198067	231344.98	657028	-0.0006082077
0	0.63440907	0.63440585	-4.4137122e-10	0.050487474	0.050487474	0	138301.17	138300.48	-9.406888e-05	657137	231032.55	-0.00036656292	231035.67	657135.7	-0.0002682667
0	0.63426346	0.6342602	-5.917499e-10	0.050345946	0.050345946	0	138269.44	138268.73	-0.00012643496	657245.5	230720.25	-0.0005303899	230723.38	657244.06	-0.00031946265
0	0.6341183	0.63411504	-3.3981679e-10	0.05020459	0.05020459	0	138237.78	138237.08	-7.198661e-05	657353.5	230408.88	-0.00025597968	230412	657352.2	-0.0002191186
0	0.63397235	0.6339692	-4.0865897e-10	0.050063137	0.050063137	0	138205.98	138205.28	-8.4980864e-05	657461.9	230096.34	-0.00038089778	230099.44	657460.5	-0.00018430538
0	0.6338259	0.6338226	-2.3923882e-11	0.04992171	0.04992171	0	138174.03	138173.33	-8.290816e-06	657570.25	229782.83	5.1195937e-05	229785.97	657568.94	-5.9387286e-05
0	0.6336797	0.6336766	-3.2077532e-10	0.049780354	0.049780354	0	138142.17	138141.48	-7.03125e-05	657678.3	229470.22	-0.00021092726	229473.33	657676.94	-0.0002785059
0	0.6335328	0.6335296	-5.2339594e-10	0.0496389	0.049638905	0	138110.17	138109.45	-0.000113919006	657786.44	229156.38	-0.0003829456	229159.53	657785.06	-0.0003501802
0	0.63338476	0.63338155	-5.526905e-10	0.049497455	0.049497455	0	138077.88	138077.17	-0.00012013712	657895.44	228840.11	-0.00040137614	228843.23	657894	-0.00038499344
0	0.63323766	0.6332345	-1.918793e-10	0.04935602	0.04935602	0	138045.81	138045.12	-4.0896048e-05	658003.7	228525.92	-0.00018840104	228529.05	658002.25	-6.55308e-05
0	0.6330897	0.6330865	-4.9117194e-10	0.04921464	0.049214646	0	138013.58	138012.88	-0.00010762117	658112.06	228210.48	-0.00040751966	228213.61	658110.6	-0.00026417105
0	0.63294077	0.63293755	-2.6365096e-10	0.04907321	0.04907321	0	137981.08	137980.39	-5.8195154e-05	658220.7	227893.22	-0.00015768349	227896.39	658219.44	-0.00020068807
0	0.6327917	0.6327885	-4.2135329e-10	0.04893179	0.04893179	0	137948.61	137947.9	-9.3191964e-05	658329.3	227576.02	-0.00021502294	227579.19	658327.9	-0.0003501802
0	0.6326422	0.6326389	-5.307196e-10	0.048790418	0.048790418	0	137916	137915.27	-0.00011766582	658438.2	227257.75	-0.00033584534	227260.89	658436.75	-0.00042390235
0	0.632492	0.6324888	-4.882425e-10	0.048648883	0.048648883	0	137883.27	137882.56	-0.00010825893	658547.06	226938.58	-0.00038089778	226941.75	658545.75	-0.00031946265
0	0.63234276	0.6323395	5.2730192e-11	0.04850753	0.04850753	0	137850.7	137850	9.566326e-06	658655.4	226621.19	3.6861074e-05	226624.38	658654.06	7.372215e-05
0	0.6321912	0.63218796	-1.10831046e-10	0.048366077	0.048366077	0	137817.69	137816.95	-2.09662e-05	658764.6	226299.84	-0.000102391874	226303.03	658763.25	-2.2526212e-05
0	0.632041	0.6320377	-1.4842572e-10	0.048224654	0.048224654	0	137784.94	137784.22	-3.1887754e-05	658873.2	225981.02	-2.457405e-05	225984.22	658871.8	-0.0001802097
0	0.631889	0.63188565	-2.148267e-10	0.04808329	0.04808329	0	137751.8	137751.08	-4.6316964e-05	658982.25	225659.06	-0.00021502294	225662.28	658980.94	-6.143512e-05
0	0.63173693	0.6317336	-7.606818e-10	0.04794185	0.04794185	0	137718.64	137717.92	-0.0001640625	659091.4	225337.19	-0.00050581584	225340.39	659089.9	-0.0005979685
0	0.63158417	0.631581	-3.5348757e-10	0.047800384	0.047800384	0	137685.38	137684.64	-7.8125e-05	659200.7	225014.02	-0.00029693643	225017.2	659199.25	-0.00018430538
0	0.6314325	0.6314292	-1.8748512e-10	0.047658965	0.047658965	0	137652.27	137651.56	-4.3686225e-05	659309.4	224692.83	-0.0001310616	224696.03	659308.06	-0.00015563564
0	0.63127935	0.631276	-3.7008782e-10	0.04751758	0.04751758	0	137618.9	137618.19	-7.6052296e-05	659418.44	224369.5	-0.00036861075	224372.73	659417	-0.00011672674
0	0.6311262	0.631123	-5.546435e-10	0.047376156	0.047376156	0	137585.53	137584.81	-0.00011894132	659527.2	224046.33	-0.00028669724	224049.58	659525.9	-0.00046690696
0	0.6309718	0.6309685	-3.9791764e-10	0.047234733	0.047234733	0	137551.84	137551.14	-8.737245e-05	659636.75	223720.6	-0.00035632373	223723.78	659635.4	-0.00021092726
0	0.63081694	0.6308137	-4.3697704e-10	0.047093347	0.047093347	0	137518.1	137517.39	-9.518495e-05	659746.3	223394.22	-0.00059387286	223397.42	659744.94	-5.5291614e-05
0	0.6306627	0.63065934	-1.6795543e-10	0.046951823	0.04695183	0	137484.47	137483.73	-4.049745e-05	659855.3	223069.2	-0.00017611403	223072.42	659853.94	-5.3243773e-05
0	0.6305074	0.6305042	-4.5699497e-10	0.046810456	0.046810463	0	137450.62	137449.9	-0.000102040816	659964.6	222742.67	-0.00035837156	222745.9	659963.1	-0.00030922345
0	0.6303518	0.63034844	-5.038663e-10	0.04666902	0.046669025	0	137416.69	137415.97	-0.00010801977	660073.9	222415.28	-0.00040547183	222418.53	660072.56	-0.000327654
0	0.6301954	0.63019216	-5.7368493e-10	0.046527658	0.046527658	0	137382.6	137381.88	-0.00012476085	660183.3	222087.05	-0.0004423329	222090.27	660182	-0.00038704128
0	0.6300387	0.6300354	-2.6413918e-10	0.046386234	0.046386234	0	137348.44	137347.72	-6.281888e-05	660293.2	221757.8	-0.00026007535	221761.08	660291.7	-0.00013925295
0	0.6298821	0.6298788	-1.7723203e-10	0.0462448	0.0462448	0	137314.3	137313.58	-3.3003827e-05	660402.44	221429.23	-0.00015153998	221432.48	660401.06	-6.9626476e-05
0	0.6297247	0.62972134	-5.038663e-10	0.04610342	0.04610342	0	137279.97	137279.27	-0.00011112883	660511.9	221099.28	-0.000403424	221102.53	660510.6	-0.00032970184
0	0.6295669	0.6295636	-1.503787e-10	0.045961898	0.045961898	0	137245.6	137244.88	-2.742347e-05	660621.5	220768.98	-0.0001372051	220772.23	660620.06	-3.27654e-05
0	0.6294078	0.6294045	-1.4500802e-10	0.045820512	0.045820512	0	137210.92	137210.19	-3.380102e-05	660731.5	220436.17	-4.710026e-05	220439.4	660730.25	-0.00014334862
0	0.6292498	0.6292465	-2.5779204e-10	0.045679096	0.0456791	0	137176.44	137175.73	-5.978954e-05	660840.8	220105.67	-0.00023550131	220108.95	660839.44	-0.0001474443
0	0.62908965	0.6290863	-4.687128e-10	0.045537677	0.045537677	0	137141.55	137140.81	-0.00010315689	660950.94	219771.36	-0.0003440367	219774.64	660949.5	-0.00031741482
0	0.6289311	0.6289279	-2.0847955e-10	0.045396283	0.045396283	0	137106.97	137106.27	-4.40051e-05	661060.25	219440.05	-0.00029079293	219443.33	661058.9	2.0478376e-05
0	0.6287709	0.62876755	-2.734158e-10	0.04525487	0.04525487	0	137072.06	137071.33	-5.7716836e-05	661169.94	219106.08	-0.00020478375	219109.36	661168.6	-0.00019454455
0	0.6286099	0.6286066	-3.031986e-10	0.045113392	0.045113385	0	137036.95	137036.25	-6.377551e-05	661280.06	218770.53	-0.00027031454	218773.84	661278.7	-0.00014949213