//mumax 3.10 [windows_amd64 go1.11.6(gc) CUDA-11.0]
//GPU info: NVIDIA GeForce RTX 3090(24575MB), CUDA Driver 12.0, cc=8.6, using cc=80 PTX
//(c) Arne Vansteenkiste, Dynamat LAB, Ghent University, Belgium
//This is free software without any warranty. See license.txt
//********************************************************************//
//  If you use mumax in any work or publication,                      //
//  we kindly ask you to cite the references in references.bib        //
//********************************************************************//
//output directory: r1;p0.5;a5.12e-07;l3.0000000000000004e-07;s0.out/
randSeed(0)
ThermSeed(0)
resolution := 2e-09
zResolution := 5e-09
a := 5.12e-07
gridSize := 512
gridDepth := 5
SetCellsize(resolution, resolution, zResolution)
SetGridsize(gridSize, gridSize, gridDepth)
SetPBC(16, 16, 0)
//resizing...
Msat = 700e3
Aex = 13e-12
alpha = 0.2
Bmax := 0.1
Bstep := Bmax / 500.0
TableAdd(B_ext)
TableAdd(m_full)
islandWidth := 8e-08
islandLength := 3.0000000000000004e-07
ellipseConstant := 7.500000000000001e-08
hIsland := rect(islandLength-2*ellipseConstant, islandWidth)
hIsland = hIsland.add(ellipse(ellipseConstant*2, islandWidth).transl(islandLength/2-ellipseConstant, 0, 0))
hIsland = hIsland.add(ellipse(ellipseConstant*2, islandWidth).transl(-islandLength/2+ellipseConstant, 0, 0))
hIsland = hIsland.sub(rect(1e-08, -1.2987287771693723e-09).transl(-6.408263278814838e-08, -4e-08, 0))
hIsland = hIsland.sub(rect(1e-08, -6.356629384059826e-09).transl(-7.821496624919667e-08, -3.996323285160208e-08, 0))
hIsland = hIsland.sub(rect(1e-08, -8.060950711764525e-10).transl(8.29867052200181e-08, -3.97725534923339e-08, 0))
hIsland = hIsland.add(rect(1e-08, 3.900832274520039e-09).transl(-3.1459066415384857e-08, -4e-08, 0))
hIsland = hIsland.add(rect(1e-08, 8.856960205749051e-09).transl(-4.4978816962140506e-08, -4e-08, 0))
hIsland = hIsland.sub(rect(1e-08, -3.2469654333500212e-09).transl(5.880280180835718e-10, -4e-08, 0))
hIsland = hIsland.add(rect(1e-08, 1.2920952085549033e-11).transl(1.2888407060873107e-07, -2.7822967635992177e-08, 0))
hIsland = hIsland.sub(rect(1e-08, -2.3701046932475313e-09).transl(-1.2123995899878316e-07, -3.1493169366960594e-08, 0))
hIsland = hIsland.sub(rect(1e-08, -6.6718034011876844e-09).transl(-5.802076184218738e-08, -4e-08, 0))
hIsland = hIsland.sub(rect(1e-08, -5.043040126635018e-09).transl(-1.9539772492459313e-08, -4e-08, 0))
hIsland = hIsland.add(rect(1e-08, 8.406726210337165e-10).transl(-2.218551969242827e-08, -4e-08, 0))
hIsland = hIsland.add(rect(1e-08, 2.626135574930119e-09).transl(-7.022010799243803e-09, -4e-08, 0))
hIsland = hIsland.add(rect(1e-08, 5.8031048230737245e-09).transl(6.895106814630986e-08, -4e-08, 0))
hIsland = hIsland.sub(rect(1e-08, -3.6397524949854338e-09).transl(3.239330348318034e-08, -4e-08, 0))
hIsland = hIsland.sub(rect(1e-08, -1.1963996583966866e-09).transl(1.0129443534121917e-07, -3.746112479093983e-08, 0))
hIsland = hIsland.sub(rect(1e-08, -1.0949566896196018e-10).transl(-1.1541350173909758e-07, -3.369615396053867e-08, 0))
hIsland = hIsland.add(rect(1e-08, 3.182011771013511e-09).transl(-1.0623847592431849e-07, -3.63651901810417e-08, 0))
hIsland = hIsland.add(rect(1e-08, 3.8550723332520517e-10).transl(2.4904080117628996e-08, -4e-08, 0))
hIsland = hIsland.add(rect(1e-08, 3.5735472304825526e-09).transl(7.932609755589297e-08, -3.993340190956613e-08, 0))
hIsland = hIsland.add(rect(1e-08, 1.2930332834396517e-09).transl(7.197125098851372e-08, -4e-08, 0))
hIsland = hIsland.add(rect(1e-08, 6.136278266161011e-09).transl(-8.906977706952032e-08, -3.9289843068926495e-08, 0))
hIsland = hIsland.sub(rect(1e-08, -7.555521123091153e-09).transl(7.055630797364628e-08, -4e-08, 0))
hIsland = hIsland.sub(rect(1e-08, -2.3678979741228215e-09).transl(4.435839114070225e-08, -4e-08, 0))
hIsland = hIsland.add(rect(1e-08, 4.023275745308992e-09).transl(-1.1262528769133548e-07, -3.4602351524024196e-08, 0))
hIsland = hIsland.sub(rect(1e-08, -9.148556766126501e-10).transl(-6.357092453560794e-08, -4e-08, 0))
hIsland = hIsland.sub(rect(1e-08, -1.5769829100186999e-09).transl(-4.968186957136132e-08, -4e-08, 0))
hIsland = hIsland.sub(rect(1e-08, -2.171492787711062e-09).transl(-1.3007876234785835e-07, -2.7149390502395456e-08, 0))
hIsland = hIsland.add(rect(1e-08, 7.744073195963296e-09).transl(-1.162960181373823e-07, -3.3390410380081526e-08, 0))
hIsland = hIsland.sub(rect(1e-08, -1.7083687326400434e-09).transl(5.615422368060199e-08, -4e-08, 0))
hIsland = hIsland.add(rect(1e-08, 4.489611086669293e-09).transl(1.1140803000157261e-07, -3.497079050928035e-08, 0))
hIsland = hIsland.add(rect(1e-08, 9.150659915845912e-10).transl(-2.9277913948262524e-08, -4e-08, 0))
hIsland = hIsland.sub(rect(1e-08, -4.897168303341778e-09).transl(1.3187790871951001e-07, -2.607287428049702e-08, 0))
hIsland = hIsland.sub(rect(1e-08, -4.171191077256374e-09).transl(-1.2566888006279984e-07, -2.9491281872868633e-08, 0))
hIsland = hIsland.add(rect(1e-08, 1.1060974125441244e-08).transl(4.444439372701335e-08, -4e-08, 0))
hIsland = hIsland.add(rect(1e-08, 9.491182409565797e-09).transl(-9.710606894445908e-09, -4e-08, 0))
hIsland = hIsland.add(rect(1e-08, 1.4795724900465111e-09).transl(-1.1010676227380157e-07, -3.534722843321038e-08, 0))
hIsland = hIsland.add(rect(1e-08, 5.207533195684683e-09).transl(6.774453710596535e-08, -4e-08, 0))
hIsland = hIsland.sub(rect(1e-08, -8.35736546154541e-09).transl(1.2066258235107021e-07, -3.1731892731588294e-08, 0))
hIsland = hIsland.sub(rect(1e-08, -2.6532591017273547e-09).transl(1.057349325346048e-07, -3.64870321568862e-08, 0))
hIsland = hIsland.sub(rect(1e-08, -6.964217904230791e-09).transl(-5.3834640975945416e-08, -4e-08, 0))
hIsland = hIsland.sub(rect(1e-08, -1.2885397216506134e-09).transl(8.335277819092714e-08, -3.975115876301598e-08, 0))
hIsland = hIsland.add(rect(1e-08, 3.857288863272616e-09).transl(1.4588519330407694e-07, -1.3067095179299042e-08, 0))
hIsland = hIsland.sub(rect(1e-08, -4.539977509404605e-09).transl(4.9075700434354425e-08, -4e-08, 0))
hIsland = hIsland.add(rect(1e-08, 1.866900628414946e-09).transl(-3.032738486245405e-08, -4e-08, 0))
hIsland = hIsland.add(rect(1e-08, 1.0781260413436508e-08).transl(-1.329427117458788e-07, -2.5397208766509584e-08, 0))
hIsland = hIsland.add(rect(1e-08, 8.146545686507532e-09).transl(-1.043511767477612e-08, -4e-08, 0))
hIsland = hIsland.sub(rect(1e-08, -3.89452231539251e-09).transl(3.6776349220915146e-08, -4e-08, 0))
hIsland = hIsland.add(rect(1e-08, 4.768602555259276e-09).transl(3.590394042339881e-08, -4e-08, 0))
hIsland = hIsland.sub(rect(1e-08, -3.5175535492459943e-09).transl(6.154068372284653e-08, -4e-08, 0))
hIsland = hIsland.sub(rect(1e-08, -5.419677034190273e-09).transl(1.0876270518483039e-07, -3.5717726894859155e-08, 0))
hIsland = hIsland.add(rect(1e-08, 5.680583970618296e-10).transl(-1.0959403823592448e-07, -3.549072875404751e-08, 0))
hIsland = hIsland.sub(rect(1e-08, -3.1138134177837296e-09).transl(-5.537333102811384e-08, -4e-08, 0))
hIsland = hIsland.sub(rect(1e-08, -5.460730692620354e-09).transl(1.497260647103708e-07, -3.415634761696529e-09, 0))
hIsland = hIsland.add(rect(1e-08, 9.208387221301474e-10).transl(5.674115418281551e-08, -4e-08, 0))
hIsland = hIsland.add(rect(1e-08, 8.725312959439831e-10).transl(4.037342400848252e-08, -4e-08, 0))
hIsland = hIsland.add(rect(1e-08, 3.385383057175868e-09).transl(7.166836492192702e-08, -4e-08, 0))
hIsland = hIsland.sub(rect(1e-08, -4.1941607968317286e-10).transl(8.281051052451373e-08, -3.97825053242795e-08, 0))
hIsland = hIsland.sub(rect(1e-08, -3.0255290114701385e-09).transl(1.0672051295809821e-07, -3.624630431375547e-08, 0))
hIsland = hIsland.sub(rect(1e-08, -4.79511189716271e-09).transl(5.7765221188692334e-08, -4e-08, 0))
hIsland = hIsland.add(rect(1e-08, 5.386337010793685e-09).transl(-8.52690384950725e-08, -3.962328150058302e-08, 0))
hIsland = hIsland.add(rect(1e-08, 3.1727956213886315e-09).transl(1.4347701994302706e-07, -1.6315971090686404e-08, 0))
hIsland = hIsland.add(rect(1e-08, 4.677868751380829e-09).transl(9.689136561255344e-08, -3.825813837275648e-08, 0))
hIsland = hIsland.add(rect(1e-08, 1.6801853541364055e-09).transl(5.202650215647058e-08, -4e-08, 0))
hIsland = hIsland.sub(rect(1e-08, -4.823018217664914e-09).transl(1.1336337983640692e-07, -3.4371051747510775e-08, 0))
hIsland = hIsland.sub(rect(1e-08, -1.8263931523298711e-09).transl(-8.768794315236406e-08, -3.942345778329289e-08, 0))
hIsland = hIsland.sub(rect(1e-08, -2.66766039737983e-09).transl(1.4889372262961267e-08, -4e-08, 0))
hIsland = hIsland.sub(rect(1e-08, -3.093266760199047e-09).transl(5.3385345476843556e-08, -4e-08, 0))
hIsland = hIsland.add(rect(1e-08, 9.242994025871818e-10).transl(-1.2433142434204745e-07, -3.012937117259727e-08, 0))
hIsland = hIsland.add(rect(1e-08, 7.360403491513488e-09).transl(1.0130882860962339e-07, -3.745825020414213e-08, 0))
hIsland = hIsland.sub(rect(1e-08, -2.611395456683862e-09).transl(-6.201984440511702e-08, -4e-08, 0))
hIsland = hIsland.add(rect(1e-08, 2.021301546061843e-09).transl(4.340113261300794e-08, -4e-08, 0))
hIsland = hIsland.add(rect(1e-08, 1.6621069314117377e-09).transl(-4.151541698401834e-08, -4e-08, 0))
hIsland = hIsland.add(rect(1e-08, 8.077231280191098e-10).transl(-7.139373053947017e-08, -4e-08, 0))
hIsland = hIsland.sub(rect(1e-08, -1.8229849402136237e-09).transl(-1.201435295040861e-07, -3.194244488036968e-08, 0))
hIsland = hIsland.add(rect(1e-08, 1.6232874190851806e-09).transl(1.0859417650343523e-07, -3.5762898436078615e-08, 0))
hIsland = hIsland.add(rect(1e-08, 5.285502078991045e-09).transl(-9.423409075407265e-08, -3.86622517125082e-08, 0))
hIsland = hIsland.add(rect(1e-08, 2.712645693865119e-09).transl(1.072194674151015e-07, -3.6120906771390363e-08, 0))
hIsland = hIsland.sub(rect(1e-08, -4.0006815737674575e-10).transl(2.9447364323998635e-08, -4e-08, 0))
hIsland = hIsland.add(rect(1e-08, 1.7101594960380632e-09).transl(7.294226703795256e-08, -4e-08, 0))
hIsland = hIsland.sub(rect(1e-08, -5.945800474922663e-10).transl(-1.1092934766295492e-08, -4e-08, 0))
hIsland = hIsland.sub(rect(1e-08, -1.1002691487479338e-09).transl(9.08299932985145e-08, -3.909886750157663e-08, 0))
hIsland = hIsland.sub(rect(1e-08, -2.7071251360809806e-09).transl(1.1958029210963236e-07, -3.216666622085461e-08, 0))
hIsland = hIsland.sub(rect(1e-08, -5.1817247788544e-09).transl(8.401504137146084e-08, -3.970998519043538e-08, 0))
hIsland = hIsland.sub(rect(1e-08, -1.3746661796393053e-09).transl(9.700225048624187e-08, -3.824004081277476e-08, 0))
hIsland = hIsland.sub(rect(1e-08, -2.737683655754273e-09).transl(-3.286946409673065e-08, -4e-08, 0))
hIsland = hIsland.sub(rect(1e-08, -2.7234335114324577e-09).transl(5.918608059864499e-09, -4e-08, 0))
hIsland = hIsland.add(rect(1e-08, 6.746401083824293e-10).transl(-1.4882174437015383e-07, -7.062389813166169e-09, 0))
hIsland = hIsland.sub(rect(1e-08, -8.245756254462384e-09).transl(-6.309653842115912e-08, -4e-08, 0))
hIsland = hIsland.sub(rect(1e-08, -1.8057051689713181e-09).transl(6.11607272920219e-08, -4e-08, 0))
hIsland = hIsland.sub(rect(1e-08, -2.4189349581865085e-09).transl(-1.245289199716997e-07, -3.0037066695961287e-08, 0))
hIsland = hIsland.sub(rect(1e-08, -2.434589385379143e-09).transl(-4.010523509066132e-08, -4e-08, 0))
hIsland = hIsland.add(rect(1e-08, 7.832294712332613e-09).transl(-5.641737958905725e-08, -4e-08, 0))
hIsland = hIsland.add(rect(1e-08, 4.7648906490373684e-09).transl(8.352992405434674e-08, -3.974045715333615e-08, 0))
hIsland = hIsland.add(rect(1e-08, 2.195210113603108e-09).transl(-7.699651663940159e-09, -4e-08, 0))
hIsland = hIsland.add(rect(1e-08, 5.663927746230235e-09).transl(-6.328076414594012e-08, -4e-08, 0))
hIsland = hIsland.sub(rect(1e-08, -3.359809607769656e-09).transl(-5.146290780608885e-08, -4e-08, 0))
hIsland = hIsland.add(rect(1e-08, 4.538852037990646e-09).transl(-7.035350869376408e-08, -4e-08, 0))
hIsland = hIsland.add(rect(1e-08, 5.73812301631072e-09).transl(-9.347770198767172e-08, -3.876704040360441e-08, 0))
hIsland = hIsland.add(rect(1e-08, 2.7250192893503953e-09).transl(2.9009485853225318e-08, -4e-08, 0))
hIsland = hIsland.sub(rect(1e-08, -4.084863120931529e-09).transl(2.4418779133061088e-08, -4e-08, 0))
hIsland = hIsland.sub(rect(1e-08, -1.833305298836432e-09).transl(-9.668617655269506e-08, 3.829136391045328e-08, 0))
hIsland = hIsland.sub(rect(1e-08, -5.347640518589754e-09).transl(1.6637217550778183e-08, 4e-08, 0))
hIsland = hIsland.add(rect(1e-08, 8.890920670439005e-09).transl(-3.492782463772784e-08, 4e-08, 0))
hIsland = hIsland.add(rect(1e-08, 4.8654562878416475e-11).transl(-5.972214971024599e-09, 4e-08, 0))
hIsland = hIsland.add(rect(1e-08, 4.91483128877706e-09).transl(-8.631380752388062e-08, 3.954226186954944e-08, 0))
hIsland = hIsland.add(rect(1e-08, 2.166535776714264e-09).transl(-3.205018464961424e-08, 4e-08, 0))
hIsland = hIsland.add(rect(1e-08, 6.414046354436369e-10).transl(4.030527527826166e-08, 4e-08, 0))
hIsland = hIsland.sub(rect(1e-08, -2.108368167746515e-09).transl(-1.1992479024476268e-07, 3.2030044657664846e-08, 0))
hIsland = hIsland.add(rect(1e-08, 4.4120489355172465e-10).transl(-1.4541256865924085e-07, 1.3774774236938822e-08, 0))
hIsland = hIsland.add(rect(1e-08, 7.364938501617342e-11).transl(1.3440006608898466e-07, 2.4420797831352447e-08, 0))
hIsland = hIsland.add(rect(1e-08, 1.8102435400173567e-09).transl(7.526141805571138e-08, 3.999975701472917e-08, 0))
hIsland = hIsland.add(rect(1e-08, 1.004502820981945e-09).transl(-1.283917700709793e-07, 2.8091628557356647e-08, 0))
hIsland = hIsland.sub(rect(1e-08, -4.618114375143433e-09).transl(-1.8513594280025637e-08, 4e-08, 0))
hIsland = hIsland.add(rect(1e-08, 2.817865912878238e-11).transl(-4.029403276058593e-08, 4e-08, 0))
hIsland = hIsland.sub(rect(1e-08, -2.9432335130488476e-09).transl(-4.568156494746949e-08, 4e-08, 0))
hIsland = hIsland.sub(rect(1e-08, -4.565001121807413e-09).transl(-2.8406657195763738e-09, 4e-08, 0))
hIsland = hIsland.sub(rect(1e-08, -4.0904805862060513e-10).transl(2.0306824387107207e-09, 4e-08, 0))
hIsland = hIsland.sub(rect(1e-08, -1.0315063657431125e-09).transl(1.4502012946522102e-07, 1.4332498279413995e-08, 0))
hIsland = hIsland.add(rect(1e-08, 3.490625924684095e-09).transl(-1.1990207009566099e-08, 4e-08, 0))
hIsland = hIsland.add(rect(1e-08, 4.445485524937943e-09).transl(3.7321080959487734e-08, 4e-08, 0))
hIsland = hIsland.sub(rect(1e-08, -4.745946415454779e-09).transl(1.0779675457328228e-07, 3.5972820908472485e-08, 0))
hIsland = hIsland.add(rect(1e-08, 1.3118683683174978e-09).transl(-8.909680763753505e-08, 3.928708698929749e-08, 0))
hIsland = hIsland.sub(rect(1e-08, -2.1914259865688903e-09).transl(2.3600640288923962e-09, 4e-08, 0))
hIsland = hIsland.sub(rect(1e-08, -3.6509645024890987e-09).transl(-1.4737447772449845e-07, 1.0491020147999401e-08, 0))
hIsland = hIsland.add(rect(1e-08, 5.813576269443507e-09).transl(-1.7791902699819064e-08, 4e-08, 0))
hIsland = hIsland.sub(rect(1e-08, -1.106515625135258e-09).transl(5.072428083717619e-08, 4e-08, 0))
hIsland = hIsland.add(rect(1e-08, 7.874384534892248e-09).transl(-1.0287173725881983e-07, 3.713534649116332e-08, 0))
hIsland = hIsland.add(rect(1e-08, 1.7253277288947954e-09).transl(3.697417755815877e-08, 4e-08, 0))
hIsland = hIsland.add(rect(1e-08, 2.035801523920561e-09).transl(2.1626880930505848e-08, 4e-08, 0))
hIsland = hIsland.add(rect(1e-08, 2.248994959632658e-09).transl(1.2920269000726416e-07, 2.7646368243907544e-08, 0))
hIsland = hIsland.sub(rect(1e-08, -6.373567716105135e-09).transl(-1.0438196452229837e-07, 3.6802705836021576e-08, 0))
hIsland = hIsland.sub(rect(1e-08, -4.935985972909583e-09).transl(5.903869230510611e-08, 4e-08, 0))
hIsland = hIsland.sub(rect(1e-08, -1.9849605666227597e-09).transl(-3.6053770837302444e-08, 4e-08, 0))
hIsland = hIsland.add(rect(1e-08, 3.364179499238465e-09).transl(2.9161116894401865e-08, 4e-08, 0))
hIsland = hIsland.add(rect(1e-08, 1.4097034493383623e-09).transl(-9.834956524947305e-08, 3.8012106806488693e-08, 0))
hIsland = hIsland.add(rect(1e-08, 3.4905184796693737e-09).transl(4.643204473937816e-08, 4e-08, 0))
hIsland = hIsland.sub(rect(1e-08, -5.105173403500844e-09).transl(-6.47749715505182e-08, 4e-08, 0))
hIsland = hIsland.sub(rect(1e-08, -3.6549546891547725e-09).transl(1.3741444215509782e-07, 2.2179469412544446e-08, 0))
hIsland = hIsland.add(rect(1e-08, 1.8452080825939261e-09).transl(1.4461123312507222e-07, 1.4888277007936813e-08, 0))
hIsland = hIsland.sub(rect(1e-08, -9.004701963849762e-09).transl(4.667510205577295e-08, 4e-08, 0))
hIsland = hIsland.add(rect(1e-08, 7.504849018328724e-10).transl(8.014891008586124e-08, 3.9905626358830037e-08, 0))
hIsland = hIsland.sub(rect(1e-08, -5.103817784939529e-09).transl(1.2052035477470873e-07, 3.1789965382233975e-08, 0))
hIsland = hIsland.sub(rect(1e-08, -4.133410142633671e-09).transl(5.6494390234523877e-08, 4e-08, 0))
hIsland = hIsland.sub(rect(1e-08, -3.4199422151219162e-09).transl(-1.8615169554184212e-08, 4e-08, 0))
hIsland = hIsland.sub(rect(1e-08, -7.411345987305063e-10).transl(-1.1713352520620119e-07, 3.309145760442301e-08, 0))
hIsland = hIsland.sub(rect(1e-08, -1.6987466568729493e-09).transl(6.757859889411699e-08, 4e-08, 0))
hIsland = hIsland.sub(rect(1e-08, -1.1015669471666074e-09).transl(-1.0995706123574262e-07, 3.5389405047567226e-08, 0))
hIsland = hIsland.add(rect(1e-08, 1.752974836385312e-09).transl(9.792123349165135e-08, 3.808618831219276e-08, 0))
hIsland = hIsland.sub(rect(1e-08, -3.5110100445500096e-09).transl(-4.6781511579848303e-08, 4e-08, 0))
hIsland = hIsland.add(rect(1e-08, 7.505914645908359e-10).transl(1.1608874985937762e-07, 3.3463063327899904e-08, 0))
hIsland = hIsland.sub(rect(1e-08, -2.584104820124203e-10).transl(-1.4622062299254778e-07, 1.2537563661150633e-08, 0))
hIsland = hIsland.sub(rect(1e-08, -1.1286462221392776e-09).transl(9.23321325250391e-08, 3.8917246657011815e-08, 0))
hIsland = hIsland.add(rect(1e-08, 4.197245201255118e-09).transl(-1.3622740323904077e-07, 2.3101431021249623e-08, 0))
hIsland = hIsland.add(rect(1e-08, 2.4961600438692407e-09).transl(-4.638024176567224e-08, 4e-08, 0))
hIsland = hIsland.add(rect(1e-08, 3.7019456984100483e-09).transl(-1.124219234562065e-07, 3.466502414503835e-08, 0))
hIsland = hIsland.add(rect(1e-08, 2.093018883481233e-09).transl(-3.816576915308558e-08, 4e-08, 0))
hIsland = hIsland.sub(rect(1e-08, -2.248766135131157e-09).transl(-1.206808768465716e-07, 3.1724402062052074e-08, 0))
hIsland = hIsland.sub(rect(1e-08, -3.5476987608998992e-09).transl(4.487504527521097e-08, 4e-08, 0))
hIsland = hIsland.sub(rect(1e-08, -2.1139678881680193e-09).transl(9.715771220086464e-08, 3.8214499317028515e-08, 0))
hIsland = hIsland.sub(rect(1e-08, -3.3334591775234727e-10).transl(-4.6545203255188296e-08, 4e-08, 0))
hIsland = hIsland.sub(rect(1e-08, -7.00959575531659e-09).transl(-1.2953942466359969e-07, 2.7457350691270376e-08, 0))
hIsland = hIsland.sub(rect(1e-08, -4.660968322408157e-09).transl(1.5711074500071554e-08, 4e-08, 0))
hIsland = hIsland.add(rect(1e-08, 4.2848558608127686e-10).transl(-2.889178040385659e-08, 4e-08, 0))
hIsland = hIsland.sub(rect(1e-08, -4.0827011344589165e-09).transl(7.947414720863818e-08, 3.992876147631751e-08, 0))
hIsland = hIsland.add(rect(1e-08, 2.6841148949893345e-09).transl(6.313305751298484e-09, 4e-08, 0))
hIsland = hIsland.add(rect(1e-08, 1.776318181992204e-09).transl(1.3219845405240292e-07, 2.5872641806181628e-08, 0))
hIsland = hIsland.sub(rect(1e-08, -5.3368409260588245e-09).transl(-6.736345197115521e-08, 4e-08, 0))
hIsland = hIsland.sub(rect(1e-08, -7.197359738053184e-10).transl(1.4263732552561695e-07, 1.7283556800544476e-08, 0))
hIsland = hIsland.sub(rect(1e-08, -5.1278577243663526e-09).transl(-7.128577172795742e-08, 4e-08, 0))
hIsland = hIsland.add(rect(1e-08, 3.5862266011456283e-09).transl(6.427482439996476e-08, 4e-08, 0))
hIsland = hIsland.add(rect(1e-08, 7.4305412081553125e-09).transl(8.276264129949879e-08, 3.9785170302711215e-08, 0))
hIsland = hIsland.sub(rect(1e-08, -4.298923443638475e-09).transl(-1.2274519883504717e-07, 3.084767905873532e-08, 0))
hIsland = hIsland.sub(rect(1e-08, -2.090680466858553e-10).transl(1.334528915264143e-07, 2.5062464738318643e-08, 0))
hIsland = hIsland.add(rect(1e-08, 3.0886009177459724e-09).transl(-1.1569986168145588e-07, 3.3597973522425625e-08, 0))
hIsland = hIsland.sub(rect(1e-08, -6.273986136213187e-10).transl(-7.557522712880167e-09, 4e-08, 0))
hIsland = hIsland.sub(rect(1e-08, -9.364431075941182e-10).transl(1.0668333064841948e-07, 3.6255553430702453e-08, 0))
hIsland = hIsland.sub(rect(1e-08, -9.951346042989078e-10).transl(-2.4553639728347548e-09, 4e-08, 0))
hIsland = hIsland.sub(rect(1e-08, -6.010647133038123e-09).transl(1.2039109834120527e-07, 3.1842493219543955e-08, 0))
hIsland = hIsland.sub(rect(1e-08, -5.256246128007346e-09).transl(-2.211738698901291e-08, 4e-08, 0))
hIsland = hIsland.sub(rect(1e-08, -8.396144937115755e-10).transl(3.4302801985800005e-08, 4e-08, 0))
hIsland = hIsland.sub(rect(1e-08, -2.6167539223951194e-09).transl(-2.767190131596483e-09, 4e-08, 0))
hIsland = hIsland.add(rect(1e-08, 8.205894466304649e-09).transl(-4.1452995955914456e-08, 4e-08, 0))
hIsland = hIsland.sub(rect(1e-08, -2.9218367039228976e-10).transl(1.3414665620259174e-07, 2.4595128320087634e-08, 0))
hIsland = hIsland.sub(rect(1e-08, -2.0121588617181543e-09).transl(1.0656570444915059e-07, 3.628472610208495e-08, 0))
hIsland = hIsland.add(rect(1e-08, 1.0348024148554821e-09).transl(1.1262875813276844e-07, 3.460127807072253e-08, 0))
hIsland = hIsland.add(rect(1e-08, 1.6127957698814165e-09).transl(7.624620494170609e-08, 3.999447774589604e-08, 0))
hIsland = hIsland.add(rect(1e-08, 3.6356007279382065e-10).transl(5.177459191644777e-08, 4e-08, 0))
hIsland = hIsland.add(rect(1e-08, 1.188044214580385e-09).transl(1.4744626021213572e-07, 1.0349132094932943e-08, 0))
hIsland = hIsland.add(rect(1e-08, 1.7592883561580312e-09).transl(7.168542769599274e-08, 4e-08, 0))
hIsland = hIsland.sub(rect(1e-08, -3.916920524968535e-09).transl(1.0111780599802186e-07, 3.7496254831079415e-08, 0))
hIsland = hIsland.sub(rect(1e-08, -3.2532573124788246e-10).transl(-1.2641278304539743e-07, 2.912276294353659e-08, 0))
hIsland = hIsland.add(rect(1e-08, 3.677407953555999e-10).transl(1.381353605063661e-07, 2.15912822159311e-08, 0))
hIsland = hIsland.sub(rect(1e-08, -8.232457046095052e-10).transl(-2.6115574901617693e-08, 4e-08, 0))
hIsland = hIsland.sub(rect(1e-08, -3.783113896136407e-09).transl(6.2609918833519195e-09, 4e-08, 0))
hIsland = hIsland.sub(rect(1e-08, -3.6932127423953683e-09).transl(3.548374739227844e-08, 4e-08, 0))
hIsland = hIsland.add(rect(1e-08, 6.264828946984179e-09).transl(9.261049828465115e-08, 3.888168391475995e-08, 0))
hIsland = hIsland.sub(rect(1e-08, -3.4182540597626767e-09).transl(7.042422754506334e-08, 4e-08, 0))
hIsland = hIsland.sub(rect(1e-08, -2.7597970580681747e-09).transl(1.3612468831409148e-07, 2.317867205709507e-08, 0))
hIsland = hIsland.add(rect(1e-08, 3.0530252215380927e-09).transl(-1.3782512680412513e-07, 2.184716816542882e-08, 0))
hIsland = hIsland.sub(rect(1e-08, -1.3403761573523761e-09).transl(1.1870843154241029e-07, 3.250522506883783e-08, 0))
vIsland := hIsland.rotz(pi / 2)
vIslands := Universe().Inverse()
hIslands := Universe().Inverse()
hIslands = hIslands.add(hIsland.transl(-a/2, a, 0))
hIslands = hIslands.add(hIsland.transl(-a/2, -a, 0))
hIslands = hIslands.add(hIsland.transl(a/2, a, 0))
hIslands = hIslands.add(hIsland.transl(a/2, -a, 0))
hIslands = hIslands.add(hIsland.transl(-a/2, 0, 0))
hIslands = hIslands.add(hIsland.transl(a/2, 0, 0))
vIslands = vIslands.add(vIsland.transl(-a, a/2, 0))
vIslands = vIslands.add(vIsland.transl(a, a/2, 0))
vIslands = vIslands.add(vIsland.transl(-a, -a/2, 0))
vIslands = vIslands.add(vIsland.transl(a, -a/2, 0))
vIslands = vIslands.add(vIsland.transl(0, a/2, 0))
vIslands = vIslands.add(vIsland.transl(0, -a/2, 0))
DefRegion(1, hIslands)
DefRegion(2, vIslands)
TableAdd(m_full.Region(1))
TableAdd(m_full.Region(2))
setgeom(hIslands.add(vIslands))
save(m)
r2o2 := sqrt(2) / 2
m = RandomMagSeed(4)
B_ext = vector(Bmax*r2o2, Bmax*r2o2, 0)
relax()
minimize()
for B := Bmax; B >= -Bmax; B -= Bstep {
	B_ext = vector(B*r2o2, B*r2o2, 0)
	minimize()
	tablesave()
}
//********************************************************************//
//Please cite the following references, relevant for your simulation. //
//See bibtex file in output folder for justification.                 //
//********************************************************************//
//   * Vansteenkiste et al., AIP Adv. 4, 107133 (2014).
//   * Exl et al., J. Appl. Phys. 115, 17D118 (2014).
