//mumax 3.10 [windows_amd64 go1.11.6(gc) CUDA-11.0]
//GPU info: NVIDIA GeForce RTX 3090(24575MB), CUDA Driver 12.1, cc=8.6, using cc=80 PTX
//(c) Arne Vansteenkiste, Dynamat LAB, Ghent University, Belgium
//This is free software without any warranty. See license.txt
//********************************************************************//
//  If you use mumax in any work or publication,                      //
//  we kindly ask you to cite the references in references.bib        //
//********************************************************************//
//output directory: r1;p0.1;a5.12e-07;l1.8000000000000002e-07;s6.out/
randSeed(6)
ThermSeed(6)
resolution := 2e-09
zResolution := 5e-09
a := 5.12e-07
gridSize := 512
gridDepth := 5
SetCellsize(resolution, resolution, zResolution)
SetGridsize(gridSize, gridSize, gridDepth)
SetPBC(16, 16, 0)
//resizing...
Msat = 700e3
Aex = 13e-12
alpha = 0.2
Bmax := 0.1
Bstep := Bmax / 500.0
TableAdd(B_ext)
TableAdd(m_full)
islandWidth := 8e-08
islandLength := 1.8000000000000002e-07
ellipseConstant := 9.000000000000001e-09
hIsland := Universe().Inverse()
vIsland := Universe().Inverse()
vIslands := Universe().Inverse()
hIslands := Universe().Inverse()
hIsland = rect(islandLength-2*ellipseConstant, islandWidth)
hIsland = hIsland.add(ellipse(ellipseConstant*2, islandWidth).transl(islandLength/2-ellipseConstant, 0, 0))
hIsland = hIsland.add(ellipse(ellipseConstant*2, islandWidth).transl(-islandLength/2+ellipseConstant, 0, 0))
hIsland = hIsland.add(rect(6.742029826685086e-09, 3.404006273157599e-09).transl(8.836726245753883e-08, -2.297543245358862e-08, 0))
hIsland = hIsland.add(rect(5.57254826052966e-09, 3.0902733579751966e-10).transl(-5.122864956400764e-08, -4e-08, 0))
hIsland = hIsland.add(rect(3.70025062081905e-09, 1.468947299700404e-11).transl(8.836418901026811e-08, -2.2994887342027238e-08, 0))
hIsland = hIsland.sub(rect(9.727128809264184e-09, -1.8476628233801023e-09).transl(2.4603516332836836e-08, -4e-08, 0))
hIsland = hIsland.sub(rect(7.86779288552288e-09, -1.300792012073239e-10).transl(7.211326977263325e-09, -4e-08, 0))
hIsland = hIsland.add(rect(2.065778745452887e-09, 2.5995720061237006e-09).transl(-4.030769110947579e-09, -4e-08, 0))
hIsland = hIsland.sub(rect(6.421691733624155e-09, -3.040611321288627e-09).transl(-7.004382208844738e-08, -4e-08, 0))
hIsland = hIsland.add(rect(3.794817992869364e-09, 4.757622813608971e-09).transl(7.705853898867014e-08, -4e-08, 0))
hIsland = hIsland.sub(rect(2.950104239490034e-09, -7.264449200992092e-11).transl(8.184607312504584e-08, -3.9822857204033504e-08, 0))
hIsland = hIsland.add(rect(3.3358831493062937e-09, 1.2664518940451817e-09).transl(-6.20813104894843e-08, -4e-08, 0))
hIsland = hIsland.add(rect(5.3938705335250225e-09, 2.10158691135262e-09).transl(1.73880994475536e-08, -4e-08, 0))
hIsland = hIsland.add(rect(2.3524070381769405e-09, 6.646657949567172e-11).transl(6.082561542353169e-09, -4e-08, 0))
hIsland = hIsland.sub(rect(4.129300874627273e-09, -2.781928960924633e-10).transl(3.6479934727140614e-09, -4e-08, 0))
hIsland = hIsland.add(rect(9.052067494099117e-09, 1.2548539850437133e-09).transl(-7.48379734922432e-08, -4e-08, 0))
hIsland = hIsland.sub(rect(7.901536356250318e-09, -2.1173655211804616e-09).transl(8.898395555938156e-08, -1.846261681802701e-08, 0))
hIsland = hIsland.sub(rect(9.658218596588707e-09, -1.3761017859781924e-09).transl(-8.748432108675488e-08, -2.7739023648377706e-08, 0))
hIsland = hIsland.add(rect(6.58583276071803e-09, 1.6563709031044748e-09).transl(-2.963927430527878e-08, -4e-08, 0))
hIsland = hIsland.add(rect(8.688743556145496e-09, 1.0856438139493393e-09).transl(-8.383470157105995e-08, -3.796410702600656e-08, 0))
hIsland = hIsland.sub(rect(9.697951769615093e-09, -4.122445797833603e-10).transl(6.753257987871074e-08, -4e-08, 0))
hIsland = hIsland.add(rect(3.2314869926617365e-09, 2.627535602635226e-10).transl(-8.261357411862632e-08, -3.935187976151115e-08, 0))
hIsland = hIsland.sub(rect(4.655955986226719e-09, -1.0117850686652458e-10).transl(-5.819583134783651e-08, -4e-08, 0))
hIsland = hIsland.sub(rect(8.132316757453207e-09, -2.694489871169484e-09).transl(1.1495163912436868e-08, -4e-08, 0))
hIsland = hIsland.add(rect(6.957774669227971e-09, 2.5087800821939903e-09).transl(-2.1998426884792306e-08, -4e-08, 0))
hIsland = hIsland.sub(rect(2.9063260722899717e-09, -1.1476935450940343e-09).transl(8.017036263880805e-08, -4e-08, 0))
hIsland = hIsland.add(rect(3.8283266495834165e-09, 1.4669965093978034e-09).transl(-6.333982165787519e-09, -4e-08, 0))
hIsland = hIsland.sub(rect(9.693004831854051e-09, -3.8523298928199445e-09).transl(-2.9684640767666776e-08, -4e-08, 0))
hIsland = hIsland.sub(rect(2.4111593862380927e-09, -1.2256915201008057e-09).transl(5.578159401569917e-08, -4e-08, 0))
hIsland = hIsland.add(rect(3.737035768981995e-09, 2.6832468463221414e-10).transl(4.47548382323067e-08, -4e-08, 0))
hIsland = hIsland.sub(rect(4.698773734384812e-09, -2.0878040338480204e-09).transl(3.998569650458288e-08, -4e-08, 0))
hIsland = hIsland.add(rect(8.187574331034783e-09, 1.823045983204004e-09).transl(-1.0883767924240327e-08, -4e-08, 0))
hIsland = hIsland.add(rect(7.91144384847621e-09, 6.18761117703182e-10).transl(6.796970353722257e-09, -4e-08, 0))
hIsland = hIsland.add(rect(4.016572572021673e-09, 1.8767656486269606e-09).transl(-6.8837433783962e-08, -4e-08, 0))
hIsland = hIsland.add(rect(8.830570886058465e-09, 1.4909952687173385e-09).transl(1.3240171245477205e-08, -4e-08, 0))
hIsland = hIsland.sub(rect(6.36046636394203e-09, -9.70177434485739e-10).transl(7.375324020217465e-08, -4e-08, 0))
hIsland = hIsland.add(rect(8.32783886944148e-09, 8.958013241049982e-10).transl(2.497752197194803e-08, -4e-08, 0))
hIsland = hIsland.sub(rect(9.710716796387346e-09, -9.962289478236703e-10).transl(-5.613003971742813e-08, -4e-08, 0))
hIsland = hIsland.sub(rect(9.389652443778435e-09, -5.915082539091214e-10).transl(-1.102028809107886e-08, -4e-08, 0))
hIsland = hIsland.sub(rect(5.796373460736625e-09, -5.055359178493141e-10).transl(6.152718497588349e-08, -4e-08, 0))
hIsland = hIsland.add(rect(2.3189781145873475e-09, 4.827452170188978e-12).transl(5.439388648372841e-08, -4e-08, 0))
hIsland = hIsland.sub(rect(6.711457849308994e-09, -6.761160763569997e-10).transl(5.398280283336645e-08, -4e-08, 0))
hIsland = hIsland.sub(rect(6.276585005143891e-09, -3.052556248575461e-09).transl(7.893663237756232e-08, -4e-08, 0))
hIsland = hIsland.sub(rect(2.0998408171511515e-09, -3.6519510776817985e-09).transl(-1.7542157770911247e-08, -4e-08, 0))
hIsland = hIsland.sub(rect(7.515217593549882e-09, -1.2026038516144356e-09).transl(-2.4902814394907124e-09, -4e-08, 0))
hIsland = hIsland.add(rect(2.859020084312225e-09, 1.6186672522799237e-09).transl(-7.889229357696883e-08, -4e-08, 0))
hIsland = hIsland.add(rect(4.036412119881646e-09, 1.4373271483013401e-09).transl(-1.0828545744876884e-08, -4e-08, 0))
hIsland = hIsland.add(rect(2.141863287439975e-09, 1.1869009480799053e-09).transl(-4.6108254977009895e-08, -4e-08, 0))
hIsland = hIsland.add(rect(6.296264803827367e-09, 2.905417819910518e-09).transl(5.4390436282739935e-09, -4e-08, 0))
hIsland = hIsland.add(rect(7.00671085652187e-09, 2.2738796863975503e-09).transl(-5.499845213990284e-10, -4e-08, 0))
hIsland = hIsland.add(rect(4.866699895276634e-09, 2.2639542654621827e-09).transl(2.3002924595420182e-08, -4e-08, 0))
hIsland = hIsland.sub(rect(6.6221129034427366e-09, -3.9103843215038376e-10).transl(4.359908553590489e-08, -4e-08, 0))
hIsland = hIsland.add(rect(3.8886373648299235e-09, 1.4404694351356156e-09).transl(8.722018613616637e-09, -4e-08, 0))
hIsland = hIsland.sub(rect(3.5028746473209743e-09, -2.1301057626536156e-09).transl(6.118311048270722e-08, -4e-08, 0))
hIsland = hIsland.sub(rect(5.859488699102945e-09, -7.071026064338287e-10).transl(8.65892940948632e-08, -3.135138692539337e-08, 0))
hIsland = hIsland.sub(rect(7.707209536948664e-09, -1.3544500756505484e-09).transl(3.972987237542714e-08, -4e-08, 0))
hIsland = hIsland.sub(rect(2.07998649034332e-09, -2.0333290390524736e-09).transl(-3.7049228838858162e-09, -4e-08, 0))
hIsland = hIsland.add(rect(7.177571554355189e-09, 8.57318320360006e-11).transl(-7.617590359499688e-08, -4e-08, 0))
hIsland = hIsland.add(rect(9.189087900348235e-09, 3.348338877811938e-09).transl(3.506751719404686e-08, -4e-08, 0))
hIsland = hIsland.add(rect(7.580587509978367e-09, 4.4102367846710714e-10).transl(-8.861833335610838e-08, -2.129672640477018e-08, 0))
hIsland = hIsland.sub(rect(7.140898157918764e-09, -3.749852802815894e-09).transl(-2.538086175414445e-08, -4e-08, 0))
hIsland = hIsland.add(rect(8.90803709690051e-09, 1.3124266083800685e-09).transl(2.4087578593773102e-08, -4e-08, 0))
hIsland = hIsland.add(rect(6.299439926797522e-09, 3.0611386172163425e-09).transl(-4.822407539365654e-08, -4e-08, 0))
hIsland = hIsland.sub(rect(8.402443361780057e-09, -1.9949288773354372e-09).transl(5.3585780226810684e-08, -4e-08, 0))
hIsland = hIsland.sub(rect(5.576008176923665e-09, -3.010710376106205e-10).transl(-7.838725135057509e-08, -4e-08, 0))
hIsland = hIsland.add(rect(8.0211334530654e-09, 2.220080510217181e-09).transl(-7.462522261250529e-08, -4e-08, 0))
hIsland = hIsland.sub(rect(2.2817791569893045e-09, -1.8408411292581144e-09).transl(-2.083702155531545e-08, -4e-08, 0))
hIsland = hIsland.add(rect(7.953925922219439e-09, 1.6100957813271628e-09).transl(5.452006588040288e-08, -4e-08, 0))
hIsland = hIsland.add(rect(9.189689984816673e-09, 1.6382179255638062e-09).transl(-8.880073240025405e-08, -1.994985022110398e-08, 0))
hIsland = hIsland.add(rect(8.964269446397907e-09, 8.655397311164266e-10).transl(-4.082136719128286e-09, -4e-08, 0))
hIsland = hIsland.add(rect(2.7439992139742575e-09, 1.020762628016383e-09).transl(4.730290688166692e-08, -4e-08, 0))
hIsland = hIsland.sub(rect(4.1863390292865404e-09, -2.606955121253457e-09).transl(-4.8442824431831256e-08, -4e-08, 0))
hIsland = hIsland.add(rect(4.773619854008524e-09, 1.029561420607528e-09).transl(-7.767758053472637e-08, -4e-08, 0))
hIsland = hIsland.add(rect(7.705371602818027e-09, 1.1252676654311578e-09).transl(7.148551705753498e-08, -4e-08, 0))
hIsland = hIsland.add(rect(7.829562386369196e-09, 3.326094961190265e-09).transl(-8.151685550165367e-08, -3.993398512802894e-08, 0))
hIsland = hIsland.add(rect(7.921090216798309e-09, 3.080967577353683e-09).transl(5.193916026778205e-09, -4e-08, 0))
hIsland = hIsland.add(rect(7.827170136620542e-09, 9.71748702005834e-10).transl(4.058691632705205e-08, -4e-08, 0))
hIsland = hIsland.sub(rect(5.230439193526806e-09, -1.3333840272623332e-09).transl(-5.0350578027827563e-08, -4e-08, 0))
hIsland = hIsland.add(rect(3.211469531107242e-09, 2.1301265296344834e-09).transl(6.084784945715316e-08, -4e-08, 0))
hIsland = hIsland.sub(rect(3.201408086093527e-09, -1.4739176677764154e-09).transl(5.053575188118764e-08, -4e-08, 0))
hIsland = hIsland.sub(rect(9.355163398517832e-09, -2.643744197002773e-09).transl(3.272946651483652e-08, -4e-08, 0))
hIsland = hIsland.add(rect(3.3917049034896344e-09, 2.408921644214161e-10).transl(8.770674738234645e-08, -2.667390255509678e-08, 0))
hIsland = hIsland.add(rect(9.861087613010255e-09, 1.5803273422703961e-09).transl(6.834621666746311e-08, -4e-08, 0))
hIsland = hIsland.sub(rect(4.842044298576143e-09, -2.5380384245841324e-09).transl(2.8579503039770333e-08, -4e-08, 0))
hIsland = hIsland.sub(rect(5.182261713752022e-09, -6.557297759195818e-10).transl(4.9438487265429304e-08, -4e-08, 0))
hIsland = hIsland.sub(rect(9.783117030635354e-09, -3.062846232377949e-10).transl(-3.855998651551701e-08, -4e-08, 0))
hIsland = hIsland.sub(rect(7.224413035181525e-09, -4.5222876737684334e-10).transl(-1.8006715696804278e-08, -4e-08, 0))
hIsland = hIsland.sub(rect(8.212817664447379e-09, -3.7034273543542476e-09).transl(5.998721737731526e-08, -4e-08, 0))
hIsland = hIsland.sub(rect(7.387113584409512e-09, -2.037917329818781e-09).transl(-8.354096412635721e-08, -3.83727015387121e-08, 0))
hIsland = hIsland.sub(rect(2.307949653367027e-09, -2.252970726946901e-09).transl(1.3394313670339986e-09, -4e-08, 0))
hIsland = hIsland.add(rect(4.216223414791874e-09, 6.784208711524962e-10).transl(-3.1667145989884066e-08, -4e-08, 0))
hIsland = hIsland.sub(rect(9.179337898827553e-09, -1.7857816292549134e-09).transl(-7.450881999812674e-09, -4e-08, 0))
hIsland = hIsland.add(rect(2.7030050239259095e-09, 3.445830541629383e-10).transl(-6.505817050877572e-08, -4e-08, 0))
hIsland = hIsland.add(rect(7.506763116842618e-09, 1.3190177053417245e-09).transl(5.1941223076830934e-08, -4e-08, 0))
hIsland = hIsland.sub(rect(6.013153694286344e-09, -9.223041716839812e-10).transl(-1.2199912400028556e-09, -4e-08, 0))
hIsland = hIsland.add(rect(3.056391007735488e-09, 2.2620598406567227e-09).transl(1.0893267542185809e-08, -4e-08, 0))
hIsland = hIsland.add(rect(6.117004260612301e-09, 8.235031490077381e-10).transl(8.550453809481879e-08, -3.46293635631193e-08, 0))
hIsland = hIsland.sub(rect(6.508068191113485e-09, -2.984276438680333e-09).transl(-3.180337853456141e-08, -4e-08, 0))
hIsland = hIsland.sub(rect(3.73761004638611e-09, -7.048033421624167e-10).transl(-4.534694915426164e-08, -4e-08, 0))
hIsland = hIsland.sub(rect(2.878779139508016e-09, -1.827171905467733e-09).transl(-4.475993341373291e-08, -4e-08, 0))
hIsland = hIsland.sub(rect(4.749241553247791e-09, -9.698157381374775e-11).transl(-7.978452082991764e-08, -4e-08, 0))
hIsland = hIsland.sub(rect(3.87115795086943e-09, -2.2028240565332016e-09).transl(-8.971028643802867e-09, -4e-08, 0))
hIsland = hIsland.add(rect(3.9064517765432916e-09, 2.64191509322834e-10).transl(-3.4817381365738847e-08, -4e-08, 0))
hIsland = hIsland.add(rect(4.311538682332782e-09, 1.9158404586625237e-09).transl(-7.786822249961156e-08, -4e-08, 0))
hIsland = hIsland.add(rect(7.21334025203013e-09, 4.189057689824296e-11).transl(5.665607927900664e-08, -4e-08, 0))
hIsland = hIsland.add(rect(9.457861166227663e-09, 6.436946890590237e-10).transl(-5.0109477020748825e-08, -4e-08, 0))
hIsland = hIsland.add(rect(5.09963531728518e-09, 4.699825431221103e-10).transl(-3.715083282493369e-08, -4e-08, 0))
hIsland = hIsland.sub(rect(6.0759174708310915e-09, -1.4295929872429244e-09).transl(6.241434874556172e-08, -4e-08, 0))
hIsland = hIsland.sub(rect(7.780099662417664e-09, -3.3670821666098965e-09).transl(6.014382917809559e-08, -4e-08, 0))
hIsland = hIsland.sub(rect(3.2563381811140623e-09, -1.9996905280317252e-09).transl(-1.0793661929593843e-08, -4e-08, 0))
hIsland = hIsland.add(rect(5.503352667061574e-09, 2.1390274387870753e-09).transl(-5.909376584859243e-08, -4e-08, 0))
hIsland = hIsland.add(rect(3.0604622557960433e-09, 1.193643327942845e-09).transl(-3.506346869299415e-08, -4e-08, 0))
hIsland = hIsland.add(rect(4.411801986258141e-09, 8.120744515940051e-11).transl(1.331110655944834e-08, -4e-08, 0))
hIsland = hIsland.add(rect(9.024065143162911e-09, 1.7840155830326101e-10).transl(8.106055676450197e-08, -3.9999094527596696e-08, 0))
hIsland = hIsland.sub(rect(3.6800485628793534e-09, -4.873023531004056e-10).transl(1.944424043699786e-08, -4e-08, 0))
hIsland = hIsland.sub(rect(2.1498581952438427e-09, -1.8312608030408756e-09).transl(-6.832079914757664e-08, -4e-08, 0))
hIsland = hIsland.add(rect(5.780592614568044e-09, 1.1542055477082777e-10).transl(-8.936288166624884e-08, -1.4782178283037054e-08, 0))
hIsland = hIsland.sub(rect(6.36406406013286e-09, -4.784195757690417e-09).transl(-5.830895203469442e-08, -4e-08, 0))
hIsland = hIsland.add(rect(6.84165582867052e-09, 1.1634105994852197e-09).transl(2.830850025607699e-08, -4e-08, 0))
hIsland = hIsland.add(rect(5.408117822210217e-09, 1.8242574986085944e-09).transl(5.515327993052628e-08, -4e-08, 0))
hIsland = hIsland.sub(rect(2.547000783767746e-09, -1.2232120040003302e-09).transl(-5.894855099335846e-09, -4e-08, 0))
hIsland = hIsland.add(rect(2.13557522910876e-09, 7.068825516820826e-10).transl(-1.6938779663558248e-08, -4e-08, 0))
hIsland = hIsland.add(rect(7.91623335857691e-09, 1.5038675980960644e-10).transl(1.6875057962510596e-08, -4e-08, 0))
hIsland = hIsland.add(rect(5.134342459550722e-09, 2.676854204513278e-10).transl(8.072822980320232e-08, -4e-08, 0))
hIsland = hIsland.sub(rect(5.282947819041732e-09, -3.1328817657796826e-09).transl(-7.855863748442946e-08, -4e-08, 0))
hIsland = hIsland.sub(rect(4.785209736442851e-09, -9.222811657723748e-11).transl(-5.893236300395504e-09, -4e-08, 0))
hIsland = hIsland.sub(rect(2.921351310678805e-09, -1.4962202207217244e-09).transl(2.894885284303258e-08, -4e-08, 0))
hIsland = hIsland.add(rect(6.819503864198078e-09, 3.612901338737912e-10).transl(-4.670506688035502e-08, -4e-08, 0))
hIsland = hIsland.sub(rect(5.284067996353895e-09, -1.0259126154069268e-10).transl(4.97930219058039e-08, -4e-08, 0))
hIsland = hIsland.sub(rect(5.878719784068186e-09, -9.821977580458002e-10).transl(-1.0435280659387353e-08, -4e-08, 0))
hIsland = hIsland.sub(rect(9.169587129423171e-09, -1.948755795730865e-09).transl(1.806127678315413e-08, -4e-08, 0))
hIsland = hIsland.add(rect(7.81865422963751e-09, 1.1680337691970611e-09).transl(7.243531554853468e-08, -4e-08, 0))
hIsland = hIsland.sub(rect(7.512720717805322e-09, -1.0215154936830123e-09).transl(-1.8058947543628256e-08, -4e-08, 0))
hIsland = hIsland.add(rect(9.161037538284902e-09, 7.472422522517118e-11).transl(-1.971716299419396e-08, -4e-08, 0))
hIsland = hIsland.sub(rect(6.4280737101828035e-09, -6.434783330681939e-10).transl(-8.333365303684693e-08, -3.8631929096932537e-08, 0))
hIsland = hIsland.sub(rect(4.1037859580679536e-09, -8.590175769418243e-10).transl(4.440700931923474e-08, -4e-08, 0))
hIsland = hIsland.add(rect(6.414891927734246e-09, 4.360001433652971e-09).transl(5.738047193728231e-08, -4e-08, 0))
hIsland = hIsland.add(rect(4.5379950358282636e-09, 3.02441282506135e-09).transl(-5.087951516995287e-08, -4e-08, 0))
hIsland = hIsland.add(rect(5.473885307955002e-09, 3.350167263448157e-10).transl(6.301892939318327e-08, -4e-08, 0))
hIsland = hIsland.add(rect(8.294633451032358e-09, 1.4862666941965226e-09).transl(-7.515997985011212e-08, -4e-08, 0))
hIsland = hIsland.sub(rect(5.9384931285305785e-09, -1.2078196664582605e-10).transl(-8.69965276524162e-09, -4e-08, 0))
hIsland = hIsland.sub(rect(7.959979462121625e-09, -8.995990363189588e-10).transl(6.010634179944355e-08, -4e-08, 0))
hIsland = hIsland.add(rect(7.2928225526489045e-09, 2.070743590966127e-09).transl(7.042705258170644e-08, -4e-08, 0))
hIsland = hIsland.add(rect(4.817163610236713e-09, 1.2137768029964886e-09).transl(7.220994573482704e-09, -4e-08, 0))
hIsland = hIsland.sub(rect(5.797247326201044e-09, -1.3484111806818141e-09).transl(-5.804351354357719e-08, -4e-08, 0))
hIsland = hIsland.sub(rect(5.195274875974579e-09, -1.1392944125569982e-09).transl(6.891079351641234e-08, -4e-08, 0))
hIsland = hIsland.add(rect(2.065458888436413e-09, 1.55663020575306e-09).transl(-8.39255795666611e-08, -3.7827675334567994e-08, 0))
hIsland = hIsland.add(rect(8.55496803785724e-09, 2.651798645121558e-09).transl(1.64396923345674e-08, -4e-08, 0))
hIsland = hIsland.sub(rect(5.129815259628982e-09, -4.3743367030327044e-10).transl(-7.417176475579816e-08, -4e-08, 0))
hIsland = hIsland.sub(rect(2.9764972847016397e-09, -3.370327510493421e-10).transl(-5.017136252011792e-08, -4e-08, 0))
hIsland = hIsland.sub(rect(6.3196067099331885e-09, -7.709067119125852e-10).transl(-3.810130647198632e-08, -4e-08, 0))
hIsland = hIsland.sub(rect(8.145917913426357e-09, -1.2001382300115465e-09).transl(-8.47714872391942e-09, -4e-08, 0))
hIsland = hIsland.add(rect(9.764011852045285e-09, 2.8584806715753583e-10).transl(7.559404469505444e-09, -4e-08, 0))
hIsland = hIsland.sub(rect(8.294099773591619e-09, -2.3224382195001013e-09).transl(-1.418779404051233e-09, -4e-08, 0))
hIsland = hIsland.sub(rect(2.9253510517814418e-09, -2.8688761548309597e-10).transl(-8.808636538075024e-08, -2.4659028122790758e-08, 0))
hIsland = hIsland.sub(rect(6.441284692313053e-09, -9.73120397088525e-10).transl(-7.49905762542227e-08, -4e-08, 0))
hIsland = hIsland.sub(rect(6.334748777796098e-09, -2.434338507107273e-10).transl(-3.4432052759346446e-08, -4e-08, 0))
hIsland = hIsland.sub(rect(7.117222470071019e-09, -1.4893135874819695e-09).transl(-4.857016519640519e-09, -4e-08, 0))
hIsland = hIsland.sub(rect(8.344778578423196e-09, -2.0543690856865122e-10).transl(-7.636452901763874e-08, -4e-08, 0))
hIsland = hIsland.add(rect(8.677276309445083e-09, 6.268814472066779e-10).transl(5.708661098340155e-08, -4e-08, 0))
hIsland = hIsland.sub(rect(7.770281302995601e-09, -1.025489325668496e-09).transl(-2.8752276069715166e-08, -4e-08, 0))
hIsland = hIsland.sub(rect(7.226657338434418e-09, -1.6028802542033861e-09).transl(-2.570158601283073e-08, -4e-08, 0))
hIsland = hIsland.sub(rect(6.5784762520936056e-09, -2.2501729019818176e-10).transl(-2.671089948620149e-08, -4e-08, 0))
hIsland = hIsland.sub(rect(6.803203157523844e-09, -3.9941123140582094e-09).transl(4.171979520897489e-08, -4e-08, 0))
hIsland = hIsland.sub(rect(6.4259052523988895e-09, -5.06923414672695e-09).transl(-6.323108441647893e-10, -4e-08, 0))
hIsland = hIsland.add(rect(3.4331618427341182e-09, 1.1725372172782227e-10).transl(-2.1034791791808105e-08, -4e-08, 0))
hIsland = hIsland.sub(rect(5.702277407819612e-09, -1.4293919563281988e-09).transl(8.905201188323104e-08, -1.7869267158624524e-08, 0))
hIsland = hIsland.add(rect(2.6598289288171176e-09, 2.4363055263943483e-10).transl(3.9173140310795216e-08, -4e-08, 0))
hIsland = hIsland.sub(rect(3.736535989065649e-09, -1.4179804092843796e-09).transl(3.1886282245270237e-09, -4e-08, 0))
hIsland = hIsland.sub(rect(7.856611193947947e-09, -1.958974105988637e-09).transl(8.16248471864046e-09, -4e-08, 0))
hIsland = hIsland.sub(rect(2.780817781569568e-09, -2.3183869550192357e-09).transl(7.064519725330873e-08, -4e-08, 0))
hIsland = hIsland.add(rect(4.644184919743881e-09, 1.6008944543312608e-09).transl(6.147088485512464e-08, -4e-08, 0))
hIsland = hIsland.sub(rect(9.775352594459159e-09, -1.686979253470574e-09).transl(-2.8793410787022268e-08, -4e-08, 0))
hIsland = hIsland.add(rect(7.197953665367732e-09, 6.49524047781686e-10).transl(-6.56185087518276e-08, -4e-08, 0))
hIsland = hIsland.sub(rect(4.243999122145683e-09, -2.0593530498552203e-09).transl(4.263996856539974e-08, -4e-08, 0))
hIsland = hIsland.sub(rect(4.941436712857106e-09, -8.933327290609645e-10).transl(4.8846505993554286e-08, -4e-08, 0))
hIsland = hIsland.add(rect(6.319086681963376e-09, 1.3019441670232712e-09).transl(-6.186529564771142e-08, -4e-08, 0))
hIsland = hIsland.add(rect(4.229216767055318e-09, 2.8960640480818923e-09).transl(6.209097608773503e-08, -4e-08, 0))
hIsland = hIsland.add(rect(3.564901479014119e-09, 9.136153271372373e-10).transl(-7.568744449851334e-08, -4e-08, 0))
hIsland = hIsland.sub(rect(5.469799357549513e-09, -1.248763182217788e-09).transl(-6.569711359010509e-08, -4e-08, 0))
hIsland = hIsland.add(rect(5.67889671544551e-09, 5.182194844497878e-09).transl(1.950385227044357e-08, -4e-08, 0))
hIsland = hIsland.add(rect(2.9638872425835467e-09, 1.2526920182022584e-09).transl(8.17464780053107e-08, -3.9862175044282084e-08, 0))
hIsland = hIsland.add(rect(7.944572891599604e-09, 4.5849332530345417e-10).transl(-7.135767810291558e-08, -4e-08, 0))
hIsland = hIsland.add(rect(6.446573576107938e-09, 8.262166239406207e-10).transl(5.8547665669509934e-08, -4e-08, 0))
hIsland = hIsland.sub(rect(3.337209762776004e-09, -2.3751149420009906e-09).transl(-8.415692035694309e-08, -3.745848173675862e-08, 0))
hIsland = hIsland.add(rect(5.1291144949180845e-09, 7.677075304403129e-10).transl(-5.817397897087996e-08, -4e-08, 0))
hIsland = hIsland.sub(rect(9.515813836194455e-09, -3.0665522335317437e-09).transl(8.596853372280794e-08, -3.335219396646493e-08, 0))
hIsland = hIsland.add(rect(2.6965670488285094e-09, 4.288744235002142e-11).transl(-3.097183514872452e-08, -4e-08, 0))
hIsland = hIsland.sub(rect(3.976730215290499e-09, -2.54328502945856e-09).transl(6.403144697046897e-08, -4e-08, 0))
hIsland = hIsland.sub(rect(5.880020722500029e-09, -3.3215754478299275e-09).transl(4.296834139485043e-08, -4e-08, 0))
hIsland = hIsland.add(rect(3.739407882115641e-09, 2.3177369394837102e-10).transl(-7.269754969119454e-08, -4e-08, 0))
hIsland = hIsland.add(rect(5.028127951356007e-09, 3.5454309028048666e-09).transl(-2.8664254659930297e-08, -4e-08, 0))
hIsland = hIsland.add(rect(8.813420283387618e-09, 2.566858077049071e-09).transl(3.1519319721655976e-08, -4e-08, 0))
hIsland = hIsland.sub(rect(2.461870884542935e-09, -1.4448011431019524e-09).transl(-3.37124177813142e-08, -4e-08, 0))
hIsland = hIsland.sub(rect(6.987118143517546e-09, -7.509002504128715e-11).transl(8.837746237774809e-08, -2.291069031401985e-08, 0))
hIsland = hIsland.sub(rect(9.974731890290014e-09, -2.061890862441191e-09).transl(-1.7132992622324486e-08, -4e-08, 0))
hIsland = hIsland.sub(rect(9.347163241001118e-09, -1.993928931720573e-09).transl(2.7919462757285408e-08, -4e-08, 0))
hIsland = hIsland.sub(rect(9.322258395166614e-09, -1.22463910478043e-09).transl(6.18679219469258e-08, -4e-08, 0))
hIsland = hIsland.sub(rect(7.060434969991755e-09, -4.407893020863996e-10).transl(-6.424698961722401e-08, -4e-08, 0))
hIsland = hIsland.sub(rect(9.760664070434101e-09, -2.513803992955399e-09).transl(-4.1347418948964734e-08, -4e-08, 0))
hIsland = hIsland.add(rect(3.6092689138805075e-09, 1.1501314580968435e-09).transl(5.0115221007275884e-08, -4e-08, 0))
hIsland = hIsland.sub(rect(2.9725764678729227e-09, -1.1425265488028158e-09).transl(3.357482821214302e-08, -4e-08, 0))
hIsland = hIsland.sub(rect(4.090100667110638e-09, -5.347835462721204e-09).transl(3.291685029447774e-08, 4e-08, 0))
hIsland = hIsland.sub(rect(5.94744354277244e-09, -2.0413336675742317e-09).transl(-4.198823002219365e-08, 4e-08, 0))
hIsland = hIsland.sub(rect(5.83462248073844e-09, -1.6228741887909956e-09).transl(8.670567120664897e-08, 3.093451979896303e-08, 0))
hIsland = hIsland.add(rect(7.445494138799577e-09, 1.2497316271184196e-09).transl(-4.346439715955468e-08, 4e-08, 0))
hIsland = hIsland.sub(rect(8.464600262889576e-09, -1.170614231439876e-09).transl(-6.19878881572652e-08, 4e-08, 0))
hIsland = hIsland.sub(rect(2.478418561942771e-09, -7.737841467851676e-10).transl(3.30364695293645e-08, 4e-08, 0))
hIsland = hIsland.sub(rect(3.1597700616869774e-09, -2.546084338808172e-09).transl(7.788407206129393e-08, 4e-08, 0))
hIsland = hIsland.add(rect(5.2425018066404325e-09, 3.530397860454355e-10).transl(4.5173470117924577e-08, 4e-08, 0))
hIsland = hIsland.add(rect(6.042905854936355e-09, 1.3986960948231505e-09).transl(-5.531273775686054e-08, 4e-08, 0))
hIsland = hIsland.sub(rect(5.075264589631479e-09, -1.872683121278945e-09).transl(-7.338406820552976e-08, 4e-08, 0))
hIsland = hIsland.sub(rect(3.947746257451067e-09, -4.945483810667633e-11).transl(4.1531798118349574e-08, 4e-08, 0))
hIsland = hIsland.sub(rect(4.865362271606189e-09, -1.2112955035468175e-09).transl(1.2532265036079108e-08, 4e-08, 0))
hIsland = hIsland.add(rect(2.450962979058149e-09, 1.9554695899919744e-09).transl(7.729538780890959e-08, 4e-08, 0))
hIsland = hIsland.sub(rect(3.4469739330102964e-09, -8.267707147841291e-11).transl(-2.292552342942214e-08, 4e-08, 0))
hIsland = hIsland.sub(rect(3.394101308524128e-09, -2.292868337689033e-09).transl(6.250138104358068e-08, 4e-08, 0))
hIsland = hIsland.add(rect(9.508269985979126e-09, 1.2707647717270934e-09).transl(7.833505475191618e-08, 4e-08, 0))
hIsland = hIsland.sub(rect(5.095436296885089e-09, -1.4492383062692928e-09).transl(-5.699235388828457e-08, 4e-08, 0))
hIsland = hIsland.add(rect(7.58291909952033e-09, 2.9174040815891615e-09).transl(5.631949124676436e-08, 4e-08, 0))
hIsland = hIsland.sub(rect(7.058947246734113e-09, -9.103928366150766e-10).transl(3.456039339125271e-08, 4e-08, 0))
hIsland = hIsland.sub(rect(2.9374285231574054e-09, -4.181671731272326e-09).transl(-1.4988547038124305e-08, 4e-08, 0))
hIsland = hIsland.sub(rect(8.747281028226044e-09, -1.4375173091792071e-09).transl(-7.904571800696171e-08, 4e-08, 0))
hIsland = hIsland.sub(rect(9.010555556368047e-09, -1.227683487888725e-09).transl(3.520460978502758e-08, 4e-08, 0))
hIsland = hIsland.add(rect(7.580778703087302e-09, 3.4471772112364363e-09).transl(-2.5304390779943052e-09, 4e-08, 0))
hIsland = hIsland.sub(rect(8.296950274504024e-09, -2.526119368033327e-09).transl(5.48043691665256e-08, 4e-08, 0))
hIsland = hIsland.sub(rect(2.075434822093339e-09, -6.829113353186604e-10).transl(4.078514842934076e-08, 4e-08, 0))
hIsland = hIsland.sub(rect(2.2921232610066877e-09, -6.523713325200686e-10).transl(8.592556404232799e-08, 3.347785525378819e-08, 0))
hIsland = hIsland.sub(rect(5.365470461407884e-09, -7.242483011330475e-10).transl(2.370675386751658e-09, 4e-08, 0))
hIsland = hIsland.add(rect(8.667239394054589e-09, 3.1259549456250805e-09).transl(-7.388720137259688e-08, 4e-08, 0))
hIsland = hIsland.sub(rect(4.063321998414196e-09, -1.5346442444196993e-09).transl(-8.60230698576877e-08, 3.319044015413881e-08, 0))
hIsland = hIsland.add(rect(3.506557477050164e-09, 1.879231711771087e-09).transl(6.772166930747581e-08, 4e-08, 0))
hIsland = hIsland.add(rect(3.629064550990463e-09, 1.4258598129832174e-09).transl(-7.848116064351963e-08, 4e-08, 0))
hIsland = hIsland.sub(rect(3.012797623844163e-09, -5.95589630005215e-10).transl(-3.44475218147481e-08, 4e-08, 0))
hIsland = hIsland.sub(rect(4.64429253322241e-09, -3.8840834092702706e-09).transl(-1.6436578146044198e-08, 4e-08, 0))
hIsland = hIsland.add(rect(7.392583711373038e-09, 2.3706734676654022e-09).transl(1.916026669895243e-08, 4e-08, 0))
hIsland = hIsland.add(rect(5.622674516296284e-09, 1.934243476737059e-09).transl(-4.322854338019421e-09, 4e-08, 0))
hIsland = hIsland.sub(rect(3.7084819109881872e-09, -1.3270470811314804e-09).transl(-3.264894597241436e-08, 4e-08, 0))
hIsland = hIsland.sub(rect(4.3431773332040926e-09, -9.39276685248833e-10).transl(1.8940474870316925e-08, 4e-08, 0))
hIsland = hIsland.sub(rect(6.899328839319165e-09, -2.986071752812021e-09).transl(1.685258537105152e-08, 4e-08, 0))
hIsland = hIsland.add(rect(8.302843937330469e-09, 2.0253925264595413e-09).transl(4.2702942522784166e-08, 4e-08, 0))
hIsland = hIsland.sub(rect(9.318916657748968e-09, -2.833117749184417e-10).transl(3.945474389772408e-08, 4e-08, 0))
hIsland = hIsland.add(rect(5.265537121013598e-09, 1.0490586859968611e-10).transl(4.626542560596282e-08, 4e-08, 0))
hIsland = hIsland.add(rect(8.978650177427568e-09, 1.0804340805405118e-09).transl(-8.900673062282118e-08, 1.8266755735699445e-08, 0))
hIsland = hIsland.add(rect(8.82399148436533e-09, 4.670129599690652e-10).transl(-5.515764501766824e-08, 4e-08, 0))
hIsland = hIsland.add(rect(3.607008635777034e-09, 2.6035484244710466e-09).transl(8.818136129317324e-08, 2.41100562910745e-08, 0))
hIsland = hIsland.add(rect(4.098848443731004e-09, 2.071289804671877e-12).transl(-8.358287044873168e-09, 4e-08, 0))
hIsland = hIsland.add(rect(7.367807033727058e-09, 2.2291910143913426e-09).transl(-5.2019417935565904e-08, 4e-08, 0))
hIsland = hIsland.sub(rect(2.2936715336784577e-09, -9.429530123073212e-10).transl(-4.398557604539196e-08, 4e-08, 0))
hIsland = hIsland.sub(rect(5.676025823659588e-09, -4.2801171104526086e-10).transl(-6.909876224226912e-08, 4e-08, 0))
hIsland = hIsland.add(rect(3.3563078268247113e-09, 4.170926027620942e-09).transl(8.885224233250023e-08, 1.9546609242344822e-08, 0))
hIsland = hIsland.add(rect(4.816402791420023e-09, 1.8077680296600269e-09).transl(-5.325430294714629e-08, 4e-08, 0))
hIsland = hIsland.add(rect(5.73237465930199e-09, 7.577614771593973e-10).transl(4.105155438713174e-09, 4e-08, 0))
hIsland = hIsland.add(rect(8.034353461988226e-09, 2.5627794157386856e-09).transl(3.235484062400846e-08, 4e-08, 0))
hIsland = hIsland.add(rect(9.074143322250482e-09, 2.4366466960239e-09).transl(4.4009368374924965e-08, 4e-08, 0))
hIsland = hIsland.sub(rect(6.1801838144541636e-09, -8.920862936129409e-10).transl(-8.42215627979749e-08, 3.734960839398829e-08, 0))
hIsland = hIsland.sub(rect(4.066760836093111e-09, -3.490702245899929e-09).transl(1.1221988703056076e-08, 4e-08, 0))
hIsland = hIsland.add(rect(2.9335323326426172e-09, 5.766395972501541e-10).transl(4.683457001840834e-08, 4e-08, 0))
hIsland = hIsland.add(rect(3.0939364331704466e-09, 4.55964311088052e-09).transl(-8.030914549149499e-08, 4e-08, 0))
hIsland = hIsland.add(rect(4.4607450323346655e-09, 2.200340325218233e-09).transl(-4.721101133905601e-09, 4e-08, 0))
hIsland = hIsland.add(rect(4.116759110832093e-09, 2.3967569391441385e-09).transl(-6.83027467915114e-08, 4e-08, 0))
hIsland = hIsland.sub(rect(2.0311832366271487e-09, -1.3862285329225138e-09).transl(4.798585933831651e-08, 4e-08, 0))
hIsland = hIsland.sub(rect(7.260159190311681e-09, -2.7302065421488805e-09).transl(-2.1581103459313677e-08, 4e-08, 0))
hIsland = hIsland.sub(rect(9.234706443858703e-09, -2.9260981647704103e-09).transl(7.994134928930528e-08, 4e-08, 0))
hIsland = hIsland.sub(rect(3.212892294627474e-09, -1.1770222268616736e-09).transl(-8.352916901116844e-08, 3.838809077490217e-08, 0))
hIsland = hIsland.add(rect(4.3958848346031254e-09, 1.04984542605875e-09).transl(2.1737986327243815e-08, 4e-08, 0))
hIsland = hIsland.add(rect(7.185003162968161e-09, 6.496116368608737e-10).transl(-4.841868189837324e-08, 4e-08, 0))
hIsland = hIsland.sub(rect(8.070412844368267e-09, -3.0317811966541884e-09).transl(6.172427351603652e-08, 4e-08, 0))
hIsland = hIsland.sub(rect(3.1385730905703383e-09, -2.389392709985375e-09).transl(3.0529238321909404e-08, 4e-08, 0))
hIsland = hIsland.add(rect(2.884218781053373e-09, 7.176993208006188e-10).transl(4.196644325841865e-08, 4e-08, 0))
hIsland = hIsland.add(rect(8.953635576333729e-09, 6.555470338557857e-10).transl(3.5388058271859325e-08, 4e-08, 0))
hIsland = hIsland.sub(rect(6.108382818004178e-09, -1.6835195910566172e-09).transl(4.1952429882631226e-08, 4e-08, 0))
hIsland = hIsland.add(rect(9.67864264021014e-09, 1.7986624427352423e-09).transl(-5.8356455270323054e-08, 4e-08, 0))
hIsland = hIsland.sub(rect(4.659891367701139e-09, -1.0356956363952586e-09).transl(8.611868892472878e-08, 3.2900605628215857e-08, 0))
hIsland = hIsland.add(rect(3.6134765207188427e-09, 2.5674769320930412e-09).transl(3.4709640216501266e-08, 4e-08, 0))
hIsland = hIsland.add(rect(7.268949719284588e-09, 1.0844739757409912e-09).transl(5.099798914647863e-09, 4e-08, 0))
hIsland = hIsland.sub(rect(6.974447172202451e-09, -3.890363792652132e-09).transl(4.0467923078693994e-08, 4e-08, 0))
hIsland = hIsland.sub(rect(7.865674292285697e-09, -2.8503198848539873e-09).transl(4.4863410355160175e-08, 4e-08, 0))
hIsland = hIsland.add(rect(4.126655072063955e-09, 8.709365861006851e-10).transl(4.955645121357723e-08, 4e-08, 0))
hIsland = hIsland.sub(rect(6.243626112389408e-09, -3.028536705501891e-09).transl(-2.5724595808481487e-08, 4e-08, 0))
hIsland = hIsland.sub(rect(4.334337192239826e-09, -2.495674491672059e-10).transl(5.9573880262071136e-08, 4e-08, 0))
hIsland = hIsland.add(rect(2.432604307399099e-09, 2.488316369579071e-09).transl(8.487071863573497e-08, 3.611163411394914e-08, 0))
hIsland = hIsland.add(rect(5.893737227878772e-09, 1.1881063834775938e-09).transl(2.436411508037191e-08, 4e-08, 0))
hIsland = hIsland.sub(rect(8.258338845669258e-09, -1.453181086755953e-09).transl(7.221858169973888e-09, 4e-08, 0))
hIsland = hIsland.add(rect(3.168228829596652e-09, 2.0848856828902716e-09).transl(-5.5521198882051614e-08, 4e-08, 0))
hIsland = hIsland.add(rect(4.760678358711396e-09, 2.4981196420635556e-09).transl(-7.704729064538756e-08, 4e-08, 0))
hIsland = hIsland.add(rect(6.5807125427250455e-09, 7.012645503004165e-10).transl(-6.625861375627829e-08, 4e-08, 0))
hIsland = hIsland.sub(rect(9.869968445740153e-09, -2.5371481353069086e-09).transl(7.731460180713726e-08, 4e-08, 0))
hIsland = hIsland.sub(rect(8.807580630798148e-09, -1.6183891965434537e-09).transl(7.477386486767232e-08, 4e-08, 0))
hIsland = hIsland.add(rect(6.3250771147673694e-09, 1.7175212945799835e-09).transl(-8.97617595637757e-08, 9.142568293115292e-09, 0))
hIsland = hIsland.sub(rect(9.035426924888439e-09, -7.251418711200358e-10).transl(2.4695618765712903e-08, 4e-08, 0))
hIsland = hIsland.sub(rect(7.122993834502526e-09, -3.2341330939403664e-09).transl(5.92985715255415e-08, 4e-08, 0))
hIsland = hIsland.sub(rect(5.204637056903665e-09, -2.575462787659355e-09).transl(-8.130921660640368e-08, 3.997638440912531e-08, 0))
hIsland = hIsland.sub(rect(2.6947991033610565e-09, -9.583381380947935e-11).transl(4.340329804540494e-08, 4e-08, 0))
hIsland = hIsland.add(rect(8.663684343689304e-09, 1.472210026417753e-09).transl(-4.31725803515443e-08, 4e-08, 0))
hIsland = hIsland.add(rect(4.708861733039612e-09, 2.566730887675173e-10).transl(4.6297372752851546e-08, 4e-08, 0))
hIsland = hIsland.sub(rect(8.352652957762061e-09, -3.3228103814407667e-09).transl(-1.2232568589048637e-08, 4e-08, 0))
hIsland = hIsland.add(rect(5.1068908308477444e-09, 6.27018422533276e-10).transl(-2.2609824630201445e-08, 4e-08, 0))
hIsland = hIsland.sub(rect(9.049900202458605e-09, -1.7949053622646637e-09).transl(6.848724626635797e-09, 4e-08, 0))
hIsland = hIsland.add(rect(9.753168000062843e-09, 1.3496528626261067e-09).transl(2.648536403743716e-08, 4e-08, 0))
hIsland = hIsland.sub(rect(3.740040110730234e-09, -1.5493751499466878e-09).transl(1.6070279904992067e-08, 4e-08, 0))
hIsland = hIsland.sub(rect(6.8568114429770555e-09, -1.006865487421752e-09).transl(-6.967536918098187e-08, 4e-08, 0))
hIsland = hIsland.sub(rect(5.14498917789842e-09, -2.331611648131436e-09).transl(-7.158662682492564e-08, 4e-08, 0))
hIsland = hIsland.sub(rect(2.054991508959895e-09, -8.616424726513153e-10).transl(-6.84972795148287e-08, 4e-08, 0))
hIsland = hIsland.sub(rect(2.859951098646157e-09, -7.975227824395333e-10).transl(-6.278856236976505e-09, 4e-08, 0))
hIsland = hIsland.sub(rect(7.092478530174096e-09, -9.20049998367519e-10).transl(-1.5773209149606025e-08, 4e-08, 0))
hIsland = hIsland.sub(rect(7.054615669405302e-09, -1.646698879580764e-09).transl(-8.887687753600484e-08, 1.9349827080750922e-08, 0))
hIsland = hIsland.add(rect(4.890915597538615e-09, 6.049170382904367e-11).transl(3.5487137879519625e-08, 4e-08, 0))
hIsland = hIsland.sub(rect(6.859744947808445e-09, -3.65743935853336e-09).transl(2.3813635867819947e-08, 4e-08, 0))
hIsland = hIsland.add(rect(5.0607505087654606e-09, 3.3066190195691585e-09).transl(5.73870628724812e-08, 4e-08, 0))
hIsland = hIsland.sub(rect(5.269202389805002e-09, -4.056785245259691e-10).transl(3.3241884431038156e-08, 4e-08, 0))
hIsland = hIsland.sub(rect(3.6329966874550206e-09, -3.2115512352170964e-09).transl(-3.5421062374061796e-08, 4e-08, 0))
hIsland = hIsland.sub(rect(7.781979509392161e-09, -6.110060340139476e-11).transl(-7.708854740892184e-08, 4e-08, 0))
hIsland = hIsland.sub(rect(8.789568661167291e-09, -3.113687200280314e-10).transl(-1.1667588457874562e-08, 4e-08, 0))
hIsland = hIsland.sub(rect(5.405081982336131e-09, -2.8907353764189653e-10).transl(-7.107776282086256e-08, 4e-08, 0))
hIsland = hIsland.sub(rect(9.040060272871874e-09, -2.5898274889153955e-09).transl(-6.25914491180936e-08, 4e-08, 0))
hIsland = hIsland.sub(rect(2.3958479553165734e-09, -3.9551554568857596e-10).transl(-2.0061115882314917e-08, 4e-08, 0))
hIsland = hIsland.sub(rect(6.499922219460966e-09, -2.967154574729847e-09).transl(-4.28884726299185e-08, 4e-08, 0))
hIsland = hIsland.sub(rect(4.643854208242099e-09, -1.1726106958260309e-09).transl(5.226264778576545e-08, 4e-08, 0))
hIsland = hIsland.sub(rect(3.2621284735647748e-09, -2.8082976643267947e-09).transl(5.5044730594658714e-08, 4e-08, 0))
hIsland = hIsland.add(rect(4.423389558018879e-09, 4.4642831013096515e-09).transl(-6.684874630509192e-08, 4e-08, 0))
hIsland = hIsland.sub(rect(3.699598242781577e-09, -1.939014928802094e-09).transl(5.44012476662842e-08, 4e-08, 0))
hIsland = hIsland.sub(rect(4.013743177690746e-09, -1.6137806282099368e-10).transl(-2.956835118429107e-08, 4e-08, 0))
hIsland = hIsland.sub(rect(3.6732607755383192e-09, -1.3534230559661092e-09).transl(-8.82134950091329e-08, 2.391982069928047e-08, 0))
hIsland = hIsland.sub(rect(9.145529068707526e-09, -1.3802993260487148e-09).transl(-6.903550814071798e-08, 4e-08, 0))
hIsland = hIsland.add(rect(2.150261927433519e-09, 8.61409994363045e-10).transl(-2.55684903212698e-08, 4e-08, 0))
hIsland = hIsland.sub(rect(4.9463549627853295e-09, -1.5025094732182621e-09).transl(3.538212343105045e-08, 4e-08, 0))
hIsland = hIsland.sub(rect(8.35923531531772e-09, -2.8772200159556094e-09).transl(1.8696123669963046e-08, 4e-08, 0))
hIsland = hIsland.add(rect(2.182610645309659e-09, 2.9783926059377424e-09).transl(-2.1639339982278604e-08, 4e-08, 0))
hIsland = hIsland.add(rect(6.60391869088871e-09, 6.070504884290132e-10).transl(-3.5401876853658394e-08, 4e-08, 0))
hIsland = hIsland.sub(rect(7.075336068170861e-09, -3.4481432908881265e-09).transl(-8.410221874436315e-08, 3.754864863827239e-08, 0))
hIsland = hIsland.sub(rect(2.63735217458193e-09, -2.886571253591414e-09).transl(-8.360049460778288e-08, 3.829384189151939e-08, 0))
hIsland = hIsland.add(rect(3.695650642007451e-09, 2.4444911975071705e-10).transl(4.115465294759088e-08, 4e-08, 0))
hIsland = hIsland.add(rect(4.10862846404937e-09, 3.3957952021186626e-09).transl(1.464695838608878e-08, 4e-08, 0))
hIsland = hIsland.sub(rect(7.528311773750596e-09, -2.3342048706566743e-09).transl(5.21446016710482e-08, 4e-08, 0))
hIsland = hIsland.sub(rect(9.664120406758666e-09, -1.1908781874925717e-09).transl(3.908919769497011e-08, 4e-08, 0))
hIsland = hIsland.sub(rect(5.609363280765384e-09, -1.887486225345031e-10).transl(3.868201670736373e-08, 4e-08, 0))
hIsland = hIsland.sub(rect(4.1199416695890095e-09, -1.4421008786705293e-09).transl(-2.972770551724353e-08, 4e-08, 0))
hIsland = hIsland.add(rect(6.1852948564082775e-09, 2.756235049494419e-09).transl(-2.5366546048076623e-08, 4e-08, 0))
hIsland = hIsland.add(rect(8.631569281672817e-09, 2.5003720912055257e-09).transl(8.881825351368473e-08, 1.9813905577577732e-08, 0))
hIsland = hIsland.sub(rect(7.452209857534932e-09, -2.488976737975787e-09).transl(-6.599080174703645e-08, 4e-08, 0))
hIsland = hIsland.sub(rect(2.6940601321433003e-09, -2.3645992780805906e-09).transl(4.30479107561845e-09, 4e-08, 0))
hIsland = hIsland.add(rect(8.122849885890163e-09, 2.5646360560550116e-09).transl(5.279539707772872e-08, 4e-08, 0))
hIsland = hIsland.sub(rect(6.640501938190093e-09, -4.655481020431636e-10).transl(2.4966188761811593e-08, 4e-08, 0))
hIsland = hIsland.add(rect(3.6274343004386653e-09, 1.9816082237763485e-10).transl(1.362314326517419e-08, 4e-08, 0))
hIsland = hIsland.sub(rect(9.244135129953666e-09, -2.6529181392374165e-10).transl(-5.709213719272495e-08, 4e-08, 0))
hIsland = hIsland.sub(rect(7.349056822820832e-09, -1.4073442382737398e-10).transl(5.4476541787164415e-08, 4e-08, 0))
hIsland = hIsland.sub(rect(5.621077574131233e-09, -2.935616220662136e-09).transl(3.198511797220428e-08, 4e-08, 0))
hIsland = hIsland.sub(rect(4.294679456678778e-09, -1.9170023881741485e-09).transl(-8.967536254793499e-08, 1.064635534866821e-08, 0))
hIsland = hIsland.add(rect(5.413733550131618e-09, 5.375727088774479e-10).transl(9.896305145723819e-09, 4e-08, 0))
hIsland = hIsland.sub(rect(7.779732804055188e-09, -6.867848050110328e-10).transl(8.055860150855004e-08, 4e-08, 0))
hIsland = hIsland.sub(rect(9.870166868103565e-09, -1.6966717455440048e-09).transl(-1.4553103073904632e-08, 4e-08, 0))
hIsland = hIsland.sub(rect(4.833862930334397e-09, -2.40300179803072e-09).transl(-5.3728631540633525e-09, 4e-08, 0))
hIsland = hIsland.add(rect(5.236596544222294e-09, 2.4929818047224274e-09).transl(-7.071909787612544e-08, 4e-08, 0))
hIsland = hIsland.sub(rect(2.0565088262090337e-09, -4.2339351071717205e-09).transl(6.923221854935033e-09, 4e-08, 0))
hIsland = hIsland.add(rect(4.813331118570234e-09, 4.024795874858525e-09).transl(-5.0756763683545645e-08, 4e-08, 0))
hIsland = hIsland.sub(rect(4.759727561081054e-09, -2.2150529139357246e-09).transl(-7.068984908198887e-08, 4e-08, 0))
hIsland = hIsland.add(rect(3.7433969140515685e-09, 1.9469494906184132e-09).transl(3.815842813664138e-08, 4e-08, 0))
hIsland = hIsland.sub(rect(7.853907223024489e-09, -6.204998717184336e-10).transl(-7.523585212835934e-08, 4e-08, 0))
hIsland = hIsland.sub(rect(3.6970924471722637e-09, -2.3215321036176917e-10).transl(-5.076671409872708e-08, 4e-08, 0))
hIsland = hIsland.add(rect(8.330344640700725e-09, 9.340893664705522e-10).transl(-8.899550691732799e-08, 1.8363608206711127e-08, 0))
hIsland = hIsland.sub(rect(6.031206821523186e-09, -4.690852799227826e-09).transl(-9.078133147788737e-09, 4e-08, 0))
hIsland = hIsland.add(rect(9.035573963260554e-09, 9.172332423601354e-10).transl(-2.377847066978425e-08, 4e-08, 0))
hIsland = hIsland.sub(rect(8.540587214747331e-09, -3.0401207006577755e-09).transl(6.934599606212788e-08, 4e-08, 0))
hIsland = hIsland.add(rect(4.76929978766893e-09, 1.3103743576525008e-09).transl(-7.265964625928796e-08, 4e-08, 0))
hIsland = hIsland.sub(rect(2.4898317501831535e-09, -1.666792963317476e-09).transl(7.166712373985085e-09, 4e-08, 0))
hIsland = hIsland.add(rect(9.060944480663037e-09, 5.816984915190949e-10).transl(-3.5335533461997795e-08, 4e-08, 0))
hIsland = hIsland.sub(rect(2.130413631634367e-09, -3.6691345726354497e-10).transl(-3.7147818378697126e-08, 4e-08, 0))
hIsland = hIsland.sub(rect(2.423087034196269e-09, -1.6079913810359417e-09).transl(3.031064415090524e-08, 4e-08, 0))
hIsland = hIsland.add(rect(4.788258938165328e-09, 5.28684216136116e-10).transl(1.9862720879602384e-08, 4e-08, 0))
hIsland = hIsland.sub(rect(7.422871536262537e-09, -5.085517772289349e-10).transl(4.9016038791091476e-08, 4e-08, 0))
hIsland = hIsland.add(rect(5.20726291662741e-09, 1.414143930863337e-09).transl(6.638341967503428e-08, 4e-08, 0))
hIsland = hIsland.sub(rect(8.928268926140089e-09, -8.644416148215948e-10).transl(6.817046033851948e-08, 4e-08, 0))
hIsland = hIsland.sub(rect(9.396369125898595e-09, -5.169494802805782e-09).transl(4.5062868964053655e-08, 4e-08, 0))
hIsland = hIsland.add(rect(7.61173062078745e-09, 1.978599446409296e-09).transl(-3.32505507506419e-08, 4e-08, 0))
hIsland = hIsland.sub(rect(7.995521281458158e-09, -1.4958870681799355e-09).transl(2.66043254675981e-08, 4e-08, 0))
hIsland = hIsland.sub(rect(6.055655050217971e-09, -2.210889766807285e-09).transl(-5.225435138909409e-08, 4e-08, 0))
hIsland = hIsland.sub(rect(2.6042720900107233e-09, -1.4447800056284333e-09).transl(6.01822732370001e-08, 4e-08, 0))
hIsland = hIsland.sub(rect(4.7954471503999645e-09, -6.222159970399281e-10).transl(-2.826521454435106e-08, 4e-08, 0))
hIsland = hIsland.add(rect(3.936391732033899e-09, 1.6591208522560098e-10).transl(4.391752315798448e-08, 4e-08, 0))
hIsland = hIsland.add(rect(3.7788449229124e-09, 1.8014716134842898e-09).transl(-7.819561019536936e-08, 4e-08, 0))
hIsland = hIsland.sub(rect(2.4981886552284805e-09, -3.4837490855602768e-09).transl(-8.251486846629205e-08, 3.9429305020713645e-08, 0))
hIsland = hIsland.add(rect(3.4791075923913426e-09, 3.715156531997999e-10).transl(1.9240239994397065e-09, 4e-08, 0))
hIsland = hIsland.sub(rect(4.097950229421538e-09, -2.9097951012794086e-09).transl(-6.222716784441436e-08, 4e-08, 0))
hIsland = hIsland.sub(rect(9.12269531081968e-09, -7.395065000329373e-10).transl(6.38142914839174e-08, 4e-08, 0))
hIsland = hIsland.sub(rect(9.968259840622839e-09, -1.1664848055521295e-09).transl(7.196319137040414e-08, 4e-08, 0))
hIsland = hIsland.add(rect(8.009388890444723e-09, 3.120846785235121e-09).transl(5.658472893623374e-09, 4e-08, 0))
hIsland = hIsland.sub(rect(8.866188523143048e-09, -2.9459880419127e-10).transl(-5.411347895327737e-08, 4e-08, 0))
hIsland = hIsland.sub(rect(2.108945178665362e-09, -9.960073962044542e-10).transl(8.793901154542926e-09, 4e-08, 0))
hIsland = hIsland.add(rect(4.853145632977971e-09, 1.589073173310388e-09).transl(-2.465172798084985e-08, 4e-08, 0))
hIsland = hIsland.add(rect(4.432666321790809e-09, 6.099121910349898e-10).transl(-3.721535355610316e-08, 4e-08, 0))
hIsland = hIsland.sub(rect(7.470371893904563e-09, -7.263606138209779e-10).transl(8.008988052576035e-08, 4e-08, 0))
hIsland = hIsland.sub(rect(8.608824184882199e-09, -1.5159328097185709e-09).transl(6.202435859327289e-08, 4e-08, 0))
hIsland = hIsland.add(rect(3.502421425520047e-09, 3.473233897914107e-09).transl(4.193054695970448e-08, 4e-08, 0))
hIsland = hIsland.add(rect(8.138262969649568e-09, 1.5511541576172087e-09).transl(7.273494431993962e-08, 4e-08, 0))
hIsland = hIsland.add(rect(7.962908924787255e-09, 1.2435619851049196e-09).transl(-6.193985001531086e-09, 4e-08, 0))
hIsland = hIsland.sub(rect(2.1930352292875946e-09, -2.0248369772328174e-09).transl(3.5294929092905386e-08, 4e-08, 0))
hIsland = hIsland.sub(rect(5.854195695616459e-09, -1.1624701193023713e-09).transl(-3.312880217556738e-08, 4e-08, 0))
hIsland = hIsland.add(rect(5.4038856247754175e-09, 1.71597320217241e-09).transl(6.75810293261053e-08, 4e-08, 0))
hIsland = hIsland.add(rect(2.866242999645337e-09, 4.611052421290291e-09).transl(4.7814512954884605e-08, 4e-08, 0))
hIsland = hIsland.add(rect(3.7095290661006957e-09, 1.8863752856441436e-09).transl(1.9021954003218753e-08, 4e-08, 0))
hIsland = hIsland.sub(rect(6.27432239900033e-09, -1.2130328585450948e-10).transl(-5.418231980312787e-08, 4e-08, 0))
vIsland = hIsland.rotz(pi / 2)
hIslands = hIslands.add(hIsland.transl(-a/2, a, 0))
hIsland = rect(islandLength-2*ellipseConstant, islandWidth)
hIsland = hIsland.add(ellipse(ellipseConstant*2, islandWidth).transl(islandLength/2-ellipseConstant, 0, 0))
hIsland = hIsland.add(ellipse(ellipseConstant*2, islandWidth).transl(-islandLength/2+ellipseConstant, 0, 0))
hIsland = hIsland.sub(rect(5.020613652366914e-09, -1.6046011058013048e-09).transl(8.859360409537967e-08, -2.147047440010576e-08, 0))
hIsland = hIsland.add(rect(4.775949619030641e-09, 1.6214734260156584e-10).transl(2.961725832181262e-08, -4e-08, 0))
hIsland = hIsland.add(rect(2.96616382410753e-09, 7.282965373169463e-10).transl(-6.164468706470932e-08, -4e-08, 0))
hIsland = hIsland.sub(rect(5.9757437661928515e-09, -5.37845999668164e-10).transl(-1.4177031221109165e-08, -4e-08, 0))
hIsland = hIsland.sub(rect(6.5667280972698155e-09, -3.6535847620784603e-09).transl(-2.1149373848167948e-08, -4e-08, 0))
hIsland = hIsland.add(rect(8.811205741611942e-09, 1.2720260165726738e-09).transl(4.495047744482536e-09, -4e-08, 0))
hIsland = hIsland.add(rect(7.774190224397365e-09, 1.9711955435867858e-09).transl(-8.23065146556278e-08, -3.957627907939888e-08, 0))
hIsland = hIsland.add(rect(2.2001461177106736e-09, 4.4930637710738784e-10).transl(-1.064438899618112e-08, -4e-08, 0))
hIsland = hIsland.add(rect(2.5150331248371e-09, 7.606289265186191e-11).transl(6.04366093113681e-08, -4e-08, 0))
hIsland = hIsland.sub(rect(9.278167165689429e-09, -1.5611490456552608e-09).transl(6.823898591514983e-08, -4e-08, 0))
hIsland = hIsland.add(rect(5.682381342527683e-09, 1.962031513478607e-09).transl(-6.451321507837781e-08, -4e-08, 0))
hIsland = hIsland.add(rect(7.471426463330345e-09, 1.0168792279952078e-09).transl(6.96431548314398e-08, -4e-08, 0))
hIsland = hIsland.sub(rect(6.250703098183537e-09, -1.795973643988787e-09).transl(2.4001373868209334e-08, -4e-08, 0))
hIsland = hIsland.add(rect(3.8039234495150316e-09, 2.248847021414489e-09).transl(7.055829997228804e-08, -4e-08, 0))
hIsland = hIsland.add(rect(6.816280099417447e-09, 3.098050167104261e-10).transl(5.025396030950021e-08, -4e-08, 0))
hIsland = hIsland.sub(rect(9.384685232279744e-09, -3.3911751613544344e-09).transl(-8.705657492671782e-08, -2.95874181324471e-08, 0))
hIsland = hIsland.add(rect(6.235883930216412e-09, 3.979630656902058e-10).transl(-1.7260701196373656e-08, -4e-08, 0))
hIsland = hIsland.sub(rect(3.6061118836961087e-09, -5.663511867794721e-10).transl(6.157696286391473e-08, -4e-08, 0))
hIsland = hIsland.sub(rect(4.7480830468100075e-09, -2.78350650755655e-09).transl(1.3725909635518643e-08, -4e-08, 0))
hIsland = hIsland.sub(rect(8.564450733162805e-09, -1.1940550772934006e-09).transl(-7.332998230201063e-08, -4e-08, 0))
hIsland = hIsland.sub(rect(8.277685517967245e-09, -4.877768218761983e-10).transl(-4.5627916314543696e-08, -4e-08, 0))
hIsland = hIsland.add(rect(4.466603177144783e-09, 1.7577245308929923e-10).transl(-4.325692916779492e-08, -4e-08, 0))
hIsland = hIsland.sub(rect(7.513667649491515e-09, -1.9284643653150686e-09).transl(-4.880333902277042e-08, -4e-08, 0))
hIsland = hIsland.sub(rect(3.1423105446241584e-09, -2.229229541587835e-09).transl(3.4386112594816165e-08, -4e-08, 0))
hIsland = hIsland.sub(rect(6.778387018482478e-09, -1.6302965835061871e-09).transl(8.155249917527933e-08, -3.9924557166171264e-08, 0))
hIsland = hIsland.add(rect(3.864180370996396e-09, 5.207646850656526e-10).transl(1.751365242058115e-09, -4e-08, 0))
hIsland = hIsland.add(rect(2.223516227023244e-09, 1.7772218644206596e-09).transl(5.938855509372624e-08, -4e-08, 0))
hIsland = hIsland.sub(rect(2.1196369423668912e-09, -8.49747503542775e-10).transl(-8.189238132175266e-08, -3.9802886073555454e-08, 0))
hIsland = hIsland.add(rect(7.162639615141735e-09, 2.899272889077054e-09).transl(-5.4555072614375785e-08, -4e-08, 0))
hIsland = hIsland.add(rect(6.685950691217543e-09, 3.48650911369912e-09).transl(-8.649149314393425e-08, -3.169094680870334e-08, 0))
hIsland = hIsland.add(rect(5.86110186760133e-09, 3.749928642805985e-09).transl(4.436944236588698e-08, -4e-08, 0))
hIsland = hIsland.sub(rect(7.218982657832059e-09, -2.5446006902569045e-10).transl(-3.5634816604787806e-08, -4e-08, 0))
hIsland = hIsland.sub(rect(3.9057543621580005e-09, -5.8683497912261505e-09).transl(1.9958142164745074e-08, -4e-08, 0))
hIsland = hIsland.sub(rect(3.7088723985903144e-09, -2.1891920556692203e-09).transl(-4.236650286532917e-09, -4e-08, 0))
hIsland = hIsland.add(rect(2.7344808625271062e-09, 2.415876891080265e-09).transl(4.582491457097981e-08, -4e-08, 0))
hIsland = hIsland.sub(rect(7.234868606233723e-09, -2.3748134269384613e-10).transl(6.785289387282494e-08, -4e-08, 0))
hIsland = hIsland.sub(rect(9.47592280519687e-09, -1.441844911810573e-09).transl(-7.77197408046626e-08, -4e-08, 0))
hIsland = hIsland.add(rect(5.725296846255268e-09, 1.0345332554244642e-10).transl(-8.909846543102288e-08, -1.7449670929736766e-08, 0))
hIsland = hIsland.sub(rect(4.19824573272655e-09, -1.344413927422193e-09).transl(-1.7275116937600567e-08, -4e-08, 0))
hIsland = hIsland.sub(rect(9.996259710053938e-09, -1.3972512455705492e-09).transl(4.8176313592004394e-08, -4e-08, 0))
hIsland = hIsland.sub(rect(2.725520739657875e-09, -7.622626735351175e-11).transl(7.562086657039861e-08, -4e-08, 0))
hIsland = hIsland.sub(rect(8.398950480119148e-09, -3.1090667101973665e-09).transl(-4.3377391745548025e-08, -4e-08, 0))
hIsland = hIsland.add(rect(8.163043487197488e-09, 8.382151512303715e-10).transl(-2.7363251035860002e-08, -4e-08, 0))
hIsland = hIsland.sub(rect(7.729474234770085e-09, -1.202885731844862e-09).transl(-5.057800212866013e-08, -4e-08, 0))
hIsland = hIsland.add(rect(2.6204322727459913e-09, 3.6326473026414497e-09).transl(4.839128878802552e-08, -4e-08, 0))
hIsland = hIsland.sub(rect(6.899129713932226e-09, -5.452856135580713e-10).transl(-3.981156152842014e-08, -4e-08, 0))
hIsland = hIsland.add(rect(4.550335686895928e-09, 6.719434687274303e-10).transl(3.1302592990907106e-08, -4e-08, 0))
hIsland = hIsland.sub(rect(5.365381420361493e-09, -1.2714609513338835e-09).transl(3.238845700708988e-08, -4e-08, 0))
hIsland = hIsland.sub(rect(7.342550869681433e-09, -3.413558563518284e-09).transl(-7.828936691858866e-08, -4e-08, 0))
hIsland = hIsland.sub(rect(7.788372829363768e-09, -2.88734155842601e-09).transl(7.130185870490542e-08, -4e-08, 0))
hIsland = hIsland.add(rect(4.929490943463442e-09, 1.545238802875766e-09).transl(-2.009990378237038e-08, -4e-08, 0))
hIsland = hIsland.add(rect(7.000740925914843e-09, 1.616694136018998e-09).transl(-5.737025102898901e-08, -4e-08, 0))
hIsland = hIsland.add(rect(9.784245496679646e-09, 4.367322747623924e-10).transl(8.656496749664913e-08, -3.143675186979781e-08, 0))
hIsland = hIsland.add(rect(3.3423100187167094e-09, 1.5040025775587937e-09).transl(-7.810345785496125e-08, -4e-08, 0))
hIsland = hIsland.add(rect(2.6685235995997163e-09, 1.3174141618997876e-09).transl(-1.680189873006399e-08, -4e-08, 0))
hIsland = hIsland.add(rect(4.78501738230326e-09, 9.847148745995872e-10).transl(5.918933052068258e-08, -4e-08, 0))
hIsland = hIsland.add(rect(5.106964136269362e-09, 2.6245725612889033e-09).transl(-3.537067813831991e-08, -4e-08, 0))
hIsland = hIsland.add(rect(6.17047518842904e-09, 5.854377364794071e-10).transl(5.973128388073426e-08, -4e-08, 0))
hIsland = hIsland.sub(rect(9.147241120767117e-09, -1.607730252875884e-09).transl(-1.0359718224537626e-08, -4e-08, 0))
hIsland = hIsland.add(rect(4.152114791778231e-09, 1.0536628739207296e-09).transl(-7.35539187741706e-08, -4e-08, 0))
hIsland = hIsland.add(rect(8.105262014339364e-09, 2.2031007307998155e-09).transl(-3.19018614929786e-08, -4e-08, 0))
hIsland = hIsland.sub(rect(7.556404873254557e-09, -1.751394406831425e-09).transl(-2.892167576813266e-08, -4e-08, 0))
hIsland = hIsland.sub(rect(8.330649844951464e-09, -1.439495317512679e-10).transl(6.832829106095638e-08, -4e-08, 0))
hIsland = hIsland.sub(rect(9.597935793220345e-09, -2.342841240459554e-09).transl(4.315386224941403e-08, -4e-08, 0))
hIsland = hIsland.add(rect(8.54782008141514e-09, 2.8168563485631838e-09).transl(5.64282248892176e-09, -4e-08, 0))
hIsland = hIsland.add(rect(6.7864734602015415e-09, 5.151203100206199e-10).transl(-1.4174714522231415e-08, -4e-08, 0))
hIsland = hIsland.sub(rect(3.309579578353602e-09, -1.5677813199091894e-09).transl(8.85781427376027e-08, -2.1578110833232208e-08, 0))
hIsland = hIsland.sub(rect(6.91153905941658e-09, -2.398458855494176e-09).transl(-6.383524863465824e-08, -4e-08, 0))
hIsland = hIsland.add(rect(2.2272771672208913e-09, 3.410914251161127e-09).transl(-8.077880517146414e-08, -4e-08, 0))
hIsland = hIsland.sub(rect(7.535270554984222e-09, -1.3993724485175179e-09).transl(-8.678471281309801e-08, -3.064317866050053e-08, 0))
hIsland = hIsland.sub(rect(4.631909115707458e-09, -9.576204715547587e-11).transl(-4.809033301721297e-08, -4e-08, 0))
hIsland = hIsland.add(rect(5.481918983789382e-09, 4.620212357329761e-09).transl(2.4416010462158085e-08, -4e-08, 0))
hIsland = hIsland.add(rect(9.16773014951889e-09, 8.759899103911604e-10).transl(4.2627040406374e-08, -4e-08, 0))
hIsland = hIsland.add(rect(7.514225000341191e-09, 3.6544286371323674e-09).transl(2.385884644853751e-08, -4e-08, 0))
hIsland = hIsland.add(rect(7.971549804435125e-09, 3.328061736051364e-09).transl(5.2080535791564845e-09, -4e-08, 0))
hIsland = hIsland.sub(rect(4.302506476131488e-09, -2.9889852490699597e-10).transl(-8.746236745043936e-08, -2.7840039355549732e-08, 0))
hIsland = hIsland.add(rect(7.95433377393131e-09, 3.884487274665243e-09).transl(-3.35675763153125e-08, -4e-08, 0))
hIsland = hIsland.add(rect(2.151631395988365e-09, 3.0569873047424016e-09).transl(-1.2835044725940743e-08, -4e-08, 0))
hIsland = hIsland.add(rect(8.455956057857552e-09, 2.443967303247717e-09).transl(-5.4339329776861896e-08, -4e-08, 0))
hIsland = hIsland.sub(rect(6.618880304584402e-09, -1.6523295964794404e-09).transl(-7.247267553638388e-08, -4e-08, 0))
hIsland = hIsland.sub(rect(2.921998066682198e-09, -6.813486900711057e-10).transl(-4.206605648977117e-08, -4e-08, 0))
hIsland = hIsland.sub(rect(3.833115543232558e-09, -3.075060751704532e-09).transl(8.938433735129914e-08, -1.4540118823438483e-08, 0))
hIsland = hIsland.add(rect(6.886665530502169e-09, 9.490908824518592e-10).transl(-6.847888231706339e-09, -4e-08, 0))
hIsland = hIsland.sub(rect(5.0374002842673185e-09, -7.683677737759133e-10).transl(1.1807405688610054e-08, -4e-08, 0))
hIsland = hIsland.add(rect(6.249646735220462e-09, 3.2009380824346275e-09).transl(7.836975091996177e-08, -4e-08, 0))
hIsland = hIsland.sub(rect(8.366788917423642e-09, -1.339577230654413e-09).transl(7.516911944567222e-08, -4e-08, 0))
hIsland = hIsland.sub(rect(8.972046969614279e-09, -2.8899306914821887e-09).transl(-3.397842931686819e-08, -4e-08, 0))
hIsland = hIsland.sub(rect(8.758994672866731e-09, -3.1731946936977706e-09).transl(6.371673018225347e-09, -4e-08, 0))
hIsland = hIsland.sub(rect(7.717997186312961e-09, -1.667033483992743e-09).transl(5.481832527272735e-08, -4e-08, 0))
hIsland = hIsland.sub(rect(8.262020523171421e-09, -7.525135968435923e-10).transl(1.4314258106378075e-08, -4e-08, 0))
hIsland = hIsland.add(rect(7.872413563692917e-09, 3.080273307873203e-09).transl(4.8645923369576313e-08, -4e-08, 0))
hIsland = hIsland.add(rect(9.581711402297736e-09, 9.445298069908861e-10).transl(7.290888671861141e-08, -4e-08, 0))
hIsland = hIsland.sub(rect(5.690042847998181e-09, -1.5341571995559357e-09).transl(-2.5100493336362946e-08, -4e-08, 0))
hIsland = hIsland.add(rect(6.152480798411331e-09, 3.7882822312273994e-09).transl(-4.849295569903611e-08, -4e-08, 0))
hIsland = hIsland.sub(rect(9.421015632418886e-09, -2.6455577276684386e-09).transl(-5.377533323300055e-08, -4e-08, 0))
hIsland = hIsland.sub(rect(9.040641868141607e-09, -1.061964626342999e-09).transl(4.119112355425933e-08, -4e-08, 0))
hIsland = hIsland.sub(rect(3.0253739037258182e-09, -3.0169721021406115e-09).transl(1.9058503654764736e-08, -4e-08, 0))
hIsland = hIsland.add(rect(3.6089198391337017e-09, 4.5574241132976104e-11).transl(5.8632961811213734e-08, -4e-08, 0))
hIsland = hIsland.add(rect(4.512688781806929e-09, 2.8746404552354946e-09).transl(8.469549973107759e-08, -3.6472423335346144e-08, 0))
hIsland = hIsland.sub(rect(9.541305521498509e-09, -1.3212403016067526e-09).transl(4.261204293372937e-08, -4e-08, 0))
hIsland = hIsland.add(rect(3.4782687131630763e-09, 3.713089550756253e-09).transl(7.379736442636256e-08, -4e-08, 0))
hIsland = hIsland.add(rect(9.086914720027384e-09, 7.823093590439955e-11).transl(-8.320953823526714e-08, -3.877582059037743e-08, 0))
hIsland = hIsland.add(rect(4.778921560669502e-09, 4.707993271186997e-09).transl(4.34403482515283e-08, -4e-08, 0))
hIsland = hIsland.add(rect(2.2616507717647558e-09, 2.22833748256693e-09).transl(1.732576119069185e-08, -4e-08, 0))
hIsland = hIsland.sub(rect(5.007194621814213e-09, -3.337687090098594e-10).transl(-4.005215378558099e-08, -4e-08, 0))
hIsland = hIsland.sub(rect(9.79143696921598e-09, -1.122584217346267e-09).transl(7.202675456180259e-08, -4e-08, 0))
hIsland = hIsland.add(rect(9.04009732643712e-09, 1.5915684315215524e-10).transl(7.342179643982263e-09, -4e-08, 0))
hIsland = hIsland.sub(rect(7.424328819769171e-09, -4.369748843494471e-11).transl(-8.702046764545705e-09, -4e-08, 0))
hIsland = hIsland.sub(rect(5.95356157831433e-09, -7.202231762959123e-11).transl(-3.118345977860406e-08, -4e-08, 0))
hIsland = hIsland.sub(rect(2.5037671421056577e-09, -9.81226616988005e-10).transl(8.334598852961277e-08, -3.861716827153573e-08, 0))
hIsland = hIsland.sub(rect(9.076217456999953e-09, -7.599389011242439e-10).transl(6.242838739110373e-08, -4e-08, 0))
hIsland = hIsland.sub(rect(7.585517775510687e-09, -5.683061113156798e-10).transl(-2.5840711002120438e-08, -4e-08, 0))
hIsland = hIsland.sub(rect(8.545901995788959e-09, -2.7221805405448684e-10).transl(2.254698140014418e-08, -4e-08, 0))
hIsland = hIsland.sub(rect(9.892073421652029e-09, -1.603225803842722e-09).transl(9.254117435812215e-09, -4e-08, 0))
hIsland = hIsland.sub(rect(3.909979442802897e-09, -1.4134572436174675e-09).transl(-1.920377383481393e-08, -4e-08, 0))
hIsland = hIsland.add(rect(9.275064073481406e-09, 5.584321470822317e-09).transl(-2.2948525503586167e-08, -4e-08, 0))
hIsland = hIsland.add(rect(2.5242096671570347e-09, 1.6202811921364432e-09).transl(-8.747639278176797e-08, -2.7775586237553643e-08, 0))
hIsland = hIsland.sub(rect(3.5011105705079964e-09, -3.59364943438053e-09).transl(5.507030769297476e-08, -4e-08, 0))
hIsland = hIsland.sub(rect(8.11504164232407e-09, -1.1265570099173736e-09).transl(7.15312803489557e-08, -4e-08, 0))
hIsland = hIsland.sub(rect(9.330399419254696e-09, -4.6907598239695214e-11).transl(6.79092547046106e-08, -4e-08, 0))
hIsland = hIsland.add(rect(6.558284748237711e-09, 1.304886629766464e-09).transl(-2.562963585221218e-08, -4e-08, 0))
hIsland = hIsland.sub(rect(9.89152772314323e-09, -3.1909300181288843e-09).transl(-6.692210171034529e-08, -4e-08, 0))
hIsland = hIsland.add(rect(9.301846578866705e-09, 5.889626204888368e-09).transl(-1.2007609533152456e-08, -4e-08, 0))
hIsland = hIsland.add(rect(4.695932783123872e-09, 1.493423950248789e-09).transl(-8.168897698742016e-08, -3.9882620543891157e-08, 0))
hIsland = hIsland.sub(rect(9.764205015202021e-09, -4.6467354302491514e-10).transl(-2.1414178329800582e-09, -4e-08, 0))
hIsland = hIsland.add(rect(7.908654002201361e-09, 1.7627151209013073e-10).transl(-6.467089283341609e-08, -4e-08, 0))
hIsland = hIsland.add(rect(7.96846586807569e-09, 1.8067706556160038e-11).transl(-1.245379616135009e-08, -4e-08, 0))
hIsland = hIsland.add(rect(4.745348578967639e-09, 2.0995579507910046e-09).transl(6.124774996169393e-08, -4e-08, 0))
hIsland = hIsland.sub(rect(9.283629555878085e-09, -4.4970256464667627e-10).transl(-2.491161282328986e-08, -4e-08, 0))
hIsland = hIsland.add(rect(9.93784394345601e-09, 2.356813898493237e-09).transl(-8.581219815365472e-09, -4e-08, 0))
hIsland = hIsland.add(rect(2.5866533981596495e-09, 1.0876730320338108e-09).transl(-5.129978761755382e-08, -4e-08, 0))
hIsland = hIsland.add(rect(4.591277875125992e-09, 7.120696105991241e-10).transl(8.258978746522366e-08, -3.937099911943528e-08, 0))
hIsland = hIsland.sub(rect(7.752410230554196e-09, -2.0825724457872148e-09).transl(-5.104513211177468e-08, -4e-08, 0))
hIsland = hIsland.add(rect(5.9521043451105274e-09, 3.2240097325044255e-09).transl(-1.7969496558916298e-08, -4e-08, 0))
hIsland = hIsland.sub(rect(9.466911509438231e-09, -3.06946109363329e-10).transl(-6.160749379292682e-08, -4e-08, 0))
hIsland = hIsland.sub(rect(9.82640793229604e-09, -1.1580326456002263e-09).transl(4.2913469161420276e-09, -4e-08, 0))
hIsland = hIsland.sub(rect(3.7907165731484224e-09, -2.0060959048291915e-09).transl(-1.9915751241976787e-08, -4e-08, 0))
hIsland = hIsland.sub(rect(8.866125206088172e-09, -2.0701099691819573e-10).transl(-1.5095697451242447e-08, -4e-08, 0))
hIsland = hIsland.sub(rect(2.742023338267604e-09, -2.0060521753339473e-09).transl(-5.982336280752498e-08, -4e-08, 0))
hIsland = hIsland.sub(rect(3.561383787112764e-09, -1.1472298647393392e-09).transl(7.567498209100788e-09, -4e-08, 0))
hIsland = hIsland.add(rect(5.820628807501404e-09, 9.98573695647916e-10).transl(7.091452478205686e-08, -4e-08, 0))
hIsland = hIsland.sub(rect(3.3261312352604115e-09, -2.313375038077426e-09).transl(-7.193047545009363e-08, -4e-08, 0))
hIsland = hIsland.sub(rect(9.821060597612103e-09, -1.687003939359686e-11).transl(3.757907245228353e-08, -4e-08, 0))
hIsland = hIsland.add(rect(7.9064764219361e-09, 2.38044195491855e-09).transl(-1.754190303024988e-08, -4e-08, 0))
hIsland = hIsland.add(rect(8.193642336585271e-09, 3.4448396932402884e-11).transl(5.3853190677537764e-08, -4e-08, 0))
hIsland = hIsland.sub(rect(9.629525826689734e-09, -3.5745766575164415e-10).transl(-1.43083277714913e-08, -4e-08, 0))
hIsland = hIsland.add(rect(7.491486695722325e-09, 6.254511732480321e-10).transl(5.4748380336720144e-08, -4e-08, 0))
hIsland = hIsland.sub(rect(2.322082435904366e-09, -3.5410725429470677e-09).transl(6.558116651618998e-08, -4e-08, 0))
hIsland = hIsland.sub(rect(8.530113701919731e-09, -1.9439883043492366e-10).transl(-8.901241067111448e-08, -1.821749273985408e-08, 0))
hIsland = hIsland.add(rect(7.650523585918743e-09, 2.478840508537308e-09).transl(-6.946297016048944e-08, -4e-08, 0))
hIsland = hIsland.add(rect(4.712150922169043e-09, 1.7660518177138229e-09).transl(-1.649391276708913e-08, -4e-08, 0))
hIsland = hIsland.add(rect(4.042792959706064e-09, 2.648483664935319e-09).transl(7.3224055382075845e-09, -4e-08, 0))
hIsland = hIsland.add(rect(9.095532701182262e-09, 2.5690497463052975e-10).transl(-5.4711589783196195e-08, -4e-08, 0))
hIsland = hIsland.sub(rect(3.907990514443841e-09, -1.5271586164569275e-09).transl(2.5653084033172403e-08, -4e-08, 0))
hIsland = hIsland.add(rect(6.564579057436135e-09, 1.021339935256208e-09).transl(-4.013914994716112e-08, -4e-08, 0))
hIsland = hIsland.add(rect(3.2017318812268734e-09, 5.712512385440739e-09).transl(-5.0233367687129e-08, -4e-08, 0))
hIsland = hIsland.sub(rect(9.465394891255833e-09, -8.028730319513404e-10).transl(8.903951835817162e-08, -1.7980040823706615e-08, 0))
hIsland = hIsland.sub(rect(8.74152713285125e-09, -3.330360428596933e-09).transl(-8.429360400427713e-08, -3.72252861526392e-08, 0))
hIsland = hIsland.sub(rect(5.515751146263607e-09, -9.082511312102706e-10).transl(5.6348828159647534e-08, -4e-08, 0))
hIsland = hIsland.sub(rect(5.4189105097934355e-09, -3.177768400209943e-09).transl(-3.295298839622048e-08, -4e-08, 0))
hIsland = hIsland.sub(rect(3.66637734581583e-09, -1.7796199270146394e-09).transl(9.61470952578088e-09, -4e-08, 0))
hIsland = hIsland.sub(rect(6.358517057196778e-09, -4.439735739517738e-09).transl(5.459859807555065e-08, -4e-08, 0))
hIsland = hIsland.add(rect(9.687799695393037e-09, 1.0259787048316447e-09).transl(1.0927022849008906e-08, -4e-08, 0))
hIsland = hIsland.add(rect(4.556863397584681e-09, 1.4232474327077856e-09).transl(-3.139578936468306e-08, -4e-08, 0))
hIsland = hIsland.add(rect(9.265955385676488e-09, 5.077739936465096e-10).transl(-6.758894356475272e-09, -4e-08, 0))
hIsland = hIsland.sub(rect(6.461374260570639e-09, -2.852894858388473e-09).transl(-6.152905156196136e-08, -4e-08, 0))
hIsland = hIsland.sub(rect(6.846897945763199e-09, -3.3806933653966743e-09).transl(-5.1288840982453966e-08, -4e-08, 0))
hIsland = hIsland.sub(rect(4.087083883367094e-09, -1.3184002139105549e-09).transl(-1.7976128625396033e-08, -4e-08, 0))
hIsland = hIsland.add(rect(9.689726294960771e-09, 8.522710474697632e-10).transl(-3.9901688741528345e-08, -4e-08, 0))
hIsland = hIsland.add(rect(3.0511894788988835e-09, 1.9816952142099178e-09).transl(3.197387933546992e-08, -4e-08, 0))
hIsland = hIsland.sub(rect(3.1351320833052267e-09, -1.9586693258851267e-09).transl(3.2592949154502707e-09, -4e-08, 0))
hIsland = hIsland.sub(rect(4.325036476063749e-09, -1.8459221817949684e-09).transl(2.4450262341357912e-08, -4e-08, 0))
hIsland = hIsland.add(rect(8.680866464359844e-09, 2.486980307761859e-09).transl(-8.612325107229486e-08, -3.288657602985599e-08, 0))
hIsland = hIsland.add(rect(5.880732276618042e-09, 4.704834746711953e-10).transl(-3.758042957630676e-08, -4e-08, 0))
hIsland = hIsland.add(rect(4.980220500824867e-09, 9.027314162146777e-10).transl(5.654734105408626e-08, -4e-08, 0))
hIsland = hIsland.add(rect(5.515812206546903e-09, 2.284944529416663e-09).transl(6.316176943039764e-08, -4e-08, 0))
hIsland = hIsland.add(rect(5.913148014061066e-09, 7.189205249393372e-10).transl(-7.239077068805007e-09, -4e-08, 0))
hIsland = hIsland.sub(rect(6.7767398440072e-09, -7.586083036407642e-10).transl(2.8396968240754215e-08, -4e-08, 0))
hIsland = hIsland.add(rect(6.9406895584750645e-09, 4.1756195449384255e-09).transl(5.984419461273662e-08, -4e-08, 0))
hIsland = hIsland.sub(rect(6.439052171845472e-09, -3.0357665237959836e-10).transl(-1.1019064137641141e-08, -4e-08, 0))
hIsland = hIsland.sub(rect(2.068949185876898e-09, -1.62301079703764e-09).transl(-5.097168402353353e-08, -4e-08, 0))
hIsland = hIsland.add(rect(8.218289093703882e-09, 1.4556354718785638e-09).transl(3.5015452038042445e-08, -4e-08, 0))
hIsland = hIsland.sub(rect(9.606122022815065e-09, -1.318539915543266e-09).transl(6.331769528563522e-08, -4e-08, 0))
hIsland = hIsland.sub(rect(5.891570938536667e-09, -3.3410663342411237e-09).transl(-5.729089127749316e-08, -4e-08, 0))
hIsland = hIsland.sub(rect(6.652874285624777e-09, -2.6592691358057724e-09).transl(-3.62328734281561e-08, -4e-08, 0))
hIsland = hIsland.add(rect(8.627978164181894e-09, 6.254720048546733e-10).transl(-3.7329881965469107e-08, -4e-08, 0))
hIsland = hIsland.add(rect(4.283654249639479e-09, 1.1761036288225286e-10).transl(-3.1323979442413646e-08, -4e-08, 0))
hIsland = hIsland.sub(rect(6.497197766445205e-09, -2.7432696620422613e-09).transl(3.002236422408998e-08, -4e-08, 0))
hIsland = hIsland.sub(rect(5.8316503321375326e-09, -4.18990378791998e-09).transl(-1.5720058981771057e-08, -4e-08, 0))
hIsland = hIsland.sub(rect(4.412345128801763e-09, -2.9406563521144417e-09).transl(6.202542108062469e-08, -4e-08, 0))
hIsland = hIsland.sub(rect(3.980012202673299e-09, -1.5493816851533477e-09).transl(7.45575319745046e-08, -4e-08, 0))
hIsland = hIsland.add(rect(3.733669671292132e-09, 5.025757541342143e-09).transl(-7.748057573443569e-08, -4e-08, 0))
hIsland = hIsland.sub(rect(8.666438989023775e-09, -4.3174599662738414e-09).transl(-4.1299206345054645e-08, -4e-08, 0))
hIsland = hIsland.sub(rect(2.480212425666177e-09, -1.775213485465399e-09).transl(6.131916720620333e-08, -4e-08, 0))
hIsland = hIsland.add(rect(8.390063865121653e-09, 1.8487895015464014e-09).transl(-6.954257026076464e-08, -4e-08, 0))
hIsland = hIsland.add(rect(3.1266923351575227e-09, 5.378052525600718e-11).transl(-3.736918101794263e-08, -4e-08, 0))
hIsland = hIsland.sub(rect(9.091701972990365e-09, -3.426863205894068e-10).transl(5.926107540934376e-08, -4e-08, 0))
hIsland = hIsland.add(rect(9.917263972363386e-09, 1.2108824998435357e-09).transl(5.040881667147484e-08, -4e-08, 0))
hIsland = hIsland.sub(rect(6.2668510931744e-09, -1.111898304996058e-09).transl(-3.521355210894484e-08, -4e-08, 0))
hIsland = hIsland.add(rect(4.234106757138786e-09, 3.47259991286468e-09).transl(9.312810173671504e-09, -4e-08, 0))
hIsland = hIsland.add(rect(8.631114551009718e-09, 1.0484521913776789e-09).transl(2.8542674472391136e-08, 4e-08, 0))
hIsland = hIsland.add(rect(8.693653509344795e-09, 7.614293367103408e-10).transl(-4.9362604669229194e-08, 4e-08, 0))
hIsland = hIsland.sub(rect(2.5759497102135294e-09, -5.300814002485044e-10).transl(-5.596116046959722e-08, 4e-08, 0))
hIsland = hIsland.add(rect(4.3831640249699155e-09, 2.4874844955062917e-09).transl(5.5427355586917336e-08, 4e-08, 0))
hIsland = hIsland.add(rect(8.278518761830978e-09, 4.833301138570915e-09).transl(-2.0848970267113482e-08, 4e-08, 0))
hIsland = hIsland.sub(rect(2.7556353764885115e-09, -5.795610211721095e-10).transl(-2.150482475588584e-08, 4e-08, 0))
hIsland = hIsland.sub(rect(6.061985372983722e-09, -1.0576265229238045e-09).transl(-4.0133491829405855e-08, 4e-08, 0))
hIsland = hIsland.add(rect(9.77764832459513e-09, 2.274758654852442e-09).transl(6.603057457354592e-08, 4e-08, 0))
hIsland = hIsland.add(rect(3.0988988674319763e-09, 6.523955510223987e-10).transl(2.8230618804528146e-08, 4e-08, 0))
hIsland = hIsland.add(rect(8.778415287696505e-09, 1.8492849865140762e-09).transl(-8.042063366045744e-08, 4e-08, 0))
hIsland = hIsland.add(rect(9.894979050989119e-09, 9.361043288891992e-12).transl(-7.577457983433798e-08, 4e-08, 0))
hIsland = hIsland.add(rect(9.505943615305076e-09, 1.6756273075793293e-09).transl(6.380101881974373e-08, 4e-08, 0))
hIsland = hIsland.sub(rect(3.1547013205222847e-09, -8.85055280765679e-10).transl(-7.729115940788429e-08, 4e-08, 0))
hIsland = hIsland.add(rect(6.2404251281191205e-09, 1.109622786830585e-09).transl(6.492111016581658e-09, 4e-08, 0))
hIsland = hIsland.add(rect(7.012995332733685e-09, 1.7793829324263105e-09).transl(3.816870299422052e-08, 4e-08, 0))
hIsland = hIsland.sub(rect(2.8281351555100873e-09, -2.88250720216241e-09).transl(6.07578565358165e-08, 4e-08, 0))
hIsland = hIsland.add(rect(4.79817080805779e-09, 2.19597455264393e-09).transl(1.5408498784553026e-08, 4e-08, 0))
hIsland = hIsland.add(rect(3.697124419467594e-09, 4.86531759968726e-10).transl(-8.320288066586923e-08, 3.878330219087122e-08, 0))
hIsland = hIsland.sub(rect(8.195123727218527e-09, -3.2249865312015552e-09).transl(5.479878653727451e-08, 4e-08, 0))
hIsland = hIsland.add(rect(2.336906702636453e-09, 1.6580528934248403e-09).transl(-5.00403522053958e-08, 4e-08, 0))
hIsland = hIsland.add(rect(3.1352712905625658e-09, 1.8479575533423777e-09).transl(8.275244105465013e-08, 3.923438913585554e-08, 0))
hIsland = hIsland.sub(rect(6.741819737013448e-09, -3.697912888666295e-10).transl(3.7968974487262796e-08, 4e-08, 0))
hIsland = hIsland.sub(rect(9.129594240702202e-09, -6.942438118242029e-10).transl(-7.655921757646235e-08, 4e-08, 0))
hIsland = hIsland.sub(rect(4.995560776794795e-09, -2.9256607925386646e-10).transl(3.753640892743342e-08, 4e-08, 0))
hIsland = hIsland.sub(rect(3.0770412758967258e-09, -1.1875040074536638e-09).transl(1.7990283368623218e-08, 4e-08, 0))
hIsland = hIsland.add(rect(4.103649189179734e-09, 1.4916656535130095e-09).transl(1.8285397482377804e-08, 4e-08, 0))
hIsland = hIsland.sub(rect(9.23315913261201e-09, -1.4186671329848757e-09).transl(4.39143197333413e-08, 4e-08, 0))
hIsland = hIsland.add(rect(8.962040973313424e-09, 1.207952002044823e-09).transl(1.1750556001426881e-08, 4e-08, 0))
hIsland = hIsland.add(rect(8.92168473956831e-09, 6.749580923745481e-10).transl(1.877425590402023e-08, 4e-08, 0))
hIsland = hIsland.sub(rect(7.559675585293237e-09, -2.7574559256196026e-09).transl(6.353462137160155e-08, 4e-08, 0))
hIsland = hIsland.sub(rect(6.722449937466328e-09, -1.7162140101826407e-09).transl(1.3445259017521921e-08, 4e-08, 0))
hIsland = hIsland.add(rect(6.816790080786876e-09, 3.1066300188986786e-09).transl(-3.3797943980205434e-08, 4e-08, 0))
hIsland = hIsland.add(rect(4.839926622863119e-09, 9.238058953407945e-10).transl(3.3003811657540584e-08, 4e-08, 0))
hIsland = hIsland.add(rect(6.377849830795038e-09, 5.689111510124041e-10).transl(-1.7262428984982497e-08, 4e-08, 0))
hIsland = hIsland.sub(rect(7.3077683703289104e-09, -1.437845770476872e-10).transl(-4.292991571100983e-08, 4e-08, 0))
hIsland = hIsland.sub(rect(3.472692076400475e-09, -8.632633124638936e-10).transl(7.517974164302498e-08, 4e-08, 0))
hIsland = hIsland.add(rect(5.4423812927076005e-09, 1.0854100837167026e-09).transl(-1.5564165534854874e-08, 4e-08, 0))
hIsland = hIsland.sub(rect(9.301253312232638e-09, -1.3392198961520838e-09).transl(5.531839663862875e-08, 4e-08, 0))
hIsland = hIsland.sub(rect(4.7631466868693455e-09, -1.6991706306781512e-09).transl(-5.3477133762684396e-08, 4e-08, 0))
hIsland = hIsland.sub(rect(9.329730593974385e-09, -8.251986486031288e-10).transl(-4.952390524809073e-08, 4e-08, 0))
hIsland = hIsland.sub(rect(4.5771607252246455e-09, -7.649074524339469e-10).transl(-4.2383308459036e-08, 4e-08, 0))
hIsland = hIsland.sub(rect(2.885912519982262e-09, -4.1664645755295945e-10).transl(-6.725022469124604e-08, 4e-08, 0))
hIsland = hIsland.sub(rect(3.8495457040036275e-09, -1.227404218837095e-09).transl(-7.524240742815594e-09, 4e-08, 0))
hIsland = hIsland.add(rect(4.928672914318563e-09, 2.4458107103101587e-09).transl(-1.3667419966382732e-08, 4e-08, 0))
hIsland = hIsland.add(rect(6.7647318490171715e-09, 1.694182986523336e-09).transl(-2.1431071787921358e-08, 4e-08, 0))
hIsland = hIsland.add(rect(3.782184134546047e-09, 8.35409709080679e-10).transl(-1.8940529358111285e-08, 4e-08, 0))
hIsland = hIsland.add(rect(2.2327640362460458e-09, 1.2091274078345228e-10).transl(6.654563305357183e-08, 4e-08, 0))
hIsland = hIsland.sub(rect(9.582309628133111e-09, -2.563385691138619e-09).transl(1.893777521795649e-08, 4e-08, 0))
hIsland = hIsland.sub(rect(4.4379298814143036e-09, -1.5404848060452085e-09).transl(4.4751480012172415e-08, 4e-08, 0))
hIsland = hIsland.sub(rect(7.981110352900638e-09, -4.2508732018710565e-10).transl(4.6101328244008086e-08, 4e-08, 0))
hIsland = hIsland.sub(rect(8.731754046383213e-09, -4.740148280684726e-10).transl(-2.5706689648385116e-08, 4e-08, 0))
hIsland = hIsland.sub(rect(7.807612069261666e-09, -1.1510685794712346e-09).transl(-1.1356750609842778e-08, 4e-08, 0))
hIsland = hIsland.add(rect(5.403037602382875e-09, 1.536284752557095e-09).transl(-1.9237453191030657e-08, 4e-08, 0))
hIsland = hIsland.add(rect(3.216727040256192e-09, 4.2291321704215145e-09).transl(2.8089605143118146e-08, 4e-08, 0))
hIsland = hIsland.sub(rect(3.983840052399758e-09, -2.0716722404651586e-09).transl(-6.932794095398848e-08, 4e-08, 0))
hIsland = hIsland.add(rect(6.0727521880810954e-09, 3.0989938096327422e-09).transl(-7.70656881177646e-08, 4e-08, 0))
hIsland = hIsland.sub(rect(7.469004035052712e-09, -2.2722630553470612e-09).transl(4.240477422742209e-08, 4e-08, 0))
hIsland = hIsland.sub(rect(4.219236478030214e-09, -3.5153802030824083e-09).transl(-8.148381848630538e-09, 4e-08, 0))
hIsland = hIsland.add(rect(9.860015939180327e-09, 1.1558091588924156e-09).transl(-4.3927074601955145e-08, 4e-08, 0))
hIsland = hIsland.sub(rect(6.646933862978415e-09, -1.0092906062133297e-09).transl(3.071522127238319e-08, 4e-08, 0))
hIsland = hIsland.add(rect(9.178746334629295e-09, 3.820279947535983e-10).transl(6.611364992210302e-08, 4e-08, 0))
hIsland = hIsland.sub(rect(6.9781554945165945e-09, -1.6359657041386619e-09).transl(6.38305946470357e-08, 4e-08, 0))
[...]
hIsland = hIsland.add(rect(2.185451696820697e-09, 1.6433681622740642e-10).transl(2.3921133642058477e-08, 4e-08, 0))
hIsland = hIsland.sub(rect(7.259853059898643e-09, -4.116314262444723e-09).transl(-8.18621418526695e-08, 3.981604898229489e-08, 0))
hIsland = hIsland.sub(rect(7.309804439867137e-09, -1.915247061420921e-09).transl(-2.310024772162163e-09, 4e-08, 0))
hIsland = hIsland.add(rect(8.580552306780825e-09, 5.220664089082378e-10).transl(-5.272929348145148e-08, 4e-08, 0))
hIsland = hIsland.add(rect(5.627032609024577e-09, 2.420355469695476e-09).transl(3.408258601568375e-08, 4e-08, 0))
hIsland = hIsland.sub(rect(6.377338730277451e-09, -1.0775766336758548e-09).transl(5.8593062502048485e-08, 4e-08, 0))
hIsland = hIsland.add(rect(9.485257726244561e-09, 4.1551999625039104e-10).transl(6.713560020051234e-08, 4e-08, 0))
hIsland = hIsland.add(rect(3.248838839146017e-09, 3.255523722060771e-09).transl(8.063243921466142e-08, 4e-08, 0))
hIsland = hIsland.sub(rect(4.981548866383179e-09, -1.648371193236008e-09).transl(-5.2517900219347396e-08, 4e-08, 0))
hIsland = hIsland.sub(rect(4.826986607639706e-09, -4.2486404725546934e-10).transl(-5.4473850294265434e-08, 4e-08, 0))
hIsland = hIsland.sub(rect(8.19255599261791e-09, -3.51307341002699e-09).transl(-2.60567078947665e-08, 4e-08, 0))
hIsland = hIsland.sub(rect(9.736920093381166e-09, -1.8905855252580555e-09).transl(-5.988701009388952e-09, 4e-08, 0))
hIsland = hIsland.add(rect(8.936607540857708e-09, 1.497100061415347e-09).transl(8.044808251178185e-08, 4e-08, 0))
hIsland = hIsland.add(rect(4.167887196412613e-09, 4.108979808322937e-09).transl(1.4959203510014794e-08, 4e-08, 0))
hIsland = hIsland.add(rect(9.121344215473935e-09, 1.6513146911674793e-10).transl(-6.93959164213804e-09, 4e-08, 0))
hIsland = hIsland.add(rect(4.639141010007408e-09, 2.2264090833553046e-10).transl(-8.81321124353109e-09, 4e-08, 0))
hIsland = hIsland.add(rect(2.569103100232682e-09, 3.0556625443991524e-09).transl(8.512074667010845e-08, 3.556095705659566e-08, 0))
hIsland = hIsland.sub(rect(6.052123045870125e-09, -1.2245116724418406e-09).transl(7.066813021705048e-08, 4e-08, 0))
hIsland = hIsland.sub(rect(3.977570765701762e-09, -4.4204641978101553e-10).transl(-3.66789621886998e-08, 4e-08, 0))
hIsland = hIsland.sub(rect(3.5292531809909476e-09, -4.6156470397360946e-10).transl(-7.64975050744573e-08, 4e-08, 0))
hIsland = hIsland.add(rect(2.3686785348221395e-09, 8.881540680251479e-10).transl(8.394985725748255e-08, 3.7790414137725356e-08, 0))
hIsland = hIsland.sub(rect(8.863981861442938e-09, -3.332326622847445e-09).transl(-7.38332783857353e-08, 4e-08, 0))
hIsland = hIsland.sub(rect(2.9592128079947195e-09, -1.3780007400637202e-09).transl(-1.7830819524420135e-08, 4e-08, 0))
hIsland = hIsland.add(rect(9.031232656653555e-09, 4.726358578597541e-10).transl(-7.453909867771134e-08, 4e-08, 0))
hIsland = hIsland.add(rect(9.454262766610892e-09, 2.0383191588143748e-09).transl(-2.09093943353451e-09, 4e-08, 0))
hIsland = hIsland.add(rect(9.210654745509996e-09, 1.522714825350936e-09).transl(-4.770742840989012e-08, 4e-08, 0))
hIsland = hIsland.add(rect(5.662264584134262e-09, 2.948960143150975e-09).transl(-1.702825350257889e-08, 4e-08, 0))
hIsland = hIsland.add(rect(5.469676133101153e-09, 3.655330714738667e-10).transl(3.403066975725464e-09, 4e-08, 0))
hIsland = hIsland.sub(rect(4.967201543338908e-09, -2.853205145421962e-09).transl(-4.2825429413521924e-08, 4e-08, 0))
hIsland = hIsland.add(rect(8.344201340084418e-09, 6.113749493499642e-10).transl(-2.283261634899548e-08, 4e-08, 0))
hIsland = hIsland.sub(rect(7.2195991665388716e-09, -1.4415566257631944e-09).transl(5.468639015182489e-08, 4e-08, 0))
hIsland = hIsland.add(rect(3.180581261236075e-09, 8.247893962785151e-11).transl(-6.243818278938048e-08, 4e-08, 0))
hIsland = hIsland.add(rect(3.5637570676765817e-09, 6.053362120752353e-10).transl(6.884320600550186e-08, 4e-08, 0))
hIsland = hIsland.sub(rect(9.578174515376198e-09, -2.7500666445637375e-09).transl(3.448176126090384e-08, 4e-08, 0))
hIsland = hIsland.add(rect(6.870845827148156e-09, 3.3614065727135326e-09).transl(-7.901714308047558e-08, 4e-08, 0))
hIsland = hIsland.add(rect(4.354176654466554e-09, 1.0895198138117568e-09).transl(8.962770655823482e-08, 1.1385656599308381e-08, 0))
hIsland = hIsland.add(rect(5.61944876514579e-09, 1.4635318432914465e-09).transl(6.856995455314545e-08, 4e-08, 0))
hIsland = hIsland.add(rect(7.332881794053466e-09, 1.1296757009980913e-09).transl(-3.738969154969893e-08, 4e-08, 0))
hIsland = hIsland.sub(rect(4.0934676023664405e-09, -1.9948789692468428e-09).transl(-2.328731346929478e-08, 4e-08, 0))
hIsland = hIsland.add(rect(9.016652323282767e-09, 1.8955351312831832e-09).transl(2.5907357974491692e-08, 4e-08, 0))
hIsland = hIsland.add(rect(4.205782415554486e-09, 1.2275690421549523e-09).transl(3.3240364424036574e-08, 4e-08, 0))
hIsland = hIsland.add(rect(6.840735828386705e-09, 2.9576433609365316e-09).transl(6.005178641210808e-08, 4e-08, 0))
hIsland = hIsland.sub(rect(8.145145645076165e-09, -2.1906274030350288e-10).transl(1.7363503156336732e-08, 4e-08, 0))
hIsland = hIsland.sub(rect(4.423447467128918e-09, -5.808963763844684e-10).transl(-3.0033173337810895e-08, 4e-08, 0))
hIsland = hIsland.sub(rect(6.474033551944031e-09, -2.0487522308412e-10).transl(-2.726442272372722e-08, 4e-08, 0))
hIsland = hIsland.add(rect(6.544485475763508e-09, 3.9050053847219495e-10).transl(3.596565146355212e-08, 4e-08, 0))
hIsland = hIsland.sub(rect(3.1670330774325328e-09, -1.4947683609746216e-09).transl(-4.8570533938296187e-08, 4e-08, 0))
hIsland = hIsland.add(rect(7.595219397603678e-09, 3.485153723094426e-09).transl(3.4480332029776214e-08, 4e-08, 0))
hIsland = hIsland.sub(rect(4.0719099903147286e-09, -1.9169413022291727e-10).transl(-3.628141443654772e-08, 4e-08, 0))
hIsland = hIsland.sub(rect(8.558105036211057e-09, -3.5523091043806052e-09).transl(4.606922516179331e-08, 4e-08, 0))
hIsland = hIsland.sub(rect(8.875887335769875e-09, -1.5861788142002278e-09).transl(4.130882821996191e-08, 4e-08, 0))
hIsland = hIsland.add(rect(2.4242380440313386e-09, 2.3182395211163224e-09).transl(-4.9821363677148214e-08, 4e-08, 0))
hIsland = hIsland.sub(rect(3.423645160786554e-09, -7.169516353326519e-10).transl(2.483160641734545e-08, 4e-08, 0))
hIsland = hIsland.add(rect(6.201694487375208e-09, 2.9802759148365004e-10).transl(-8.18211575763826e-08, 3.983315827880319e-08, 0))
hIsland = hIsland.sub(rect(4.279429297696742e-09, -1.2780885524651194e-09).transl(-5.543481233353592e-08, 4e-08, 0))
hIsland = hIsland.add(rect(5.559168002750553e-09, 1.6156774308876606e-09).transl(-7.79116817379035e-09, 4e-08, 0))
hIsland = hIsland.sub(rect(3.284918499227775e-09, -2.7543011506291203e-09).transl(-5.0043930289106796e-08, 4e-08, 0))
hIsland = hIsland.add(rect(6.927134656092396e-09, 4.157778414076438e-09).transl(9.53112773558098e-10, 4e-08, 0))
hIsland = hIsland.sub(rect(5.2035623719275515e-09, -4.882578952128517e-10).transl(6.198956552738315e-08, 4e-08, 0))
hIsland = hIsland.sub(rect(5.08814142011715e-09, -9.436926570018493e-10).transl(-7.070080587996601e-08, 4e-08, 0))
hIsland = hIsland.sub(rect(6.475722537184197e-09, -8.762017890432704e-10).transl(2.6402947599473574e-08, 4e-08, 0))
hIsland = hIsland.sub(rect(7.3334310682487255e-09, -2.386223664295976e-09).transl(7.214040935375003e-09, 4e-08, 0))
hIsland = hIsland.add(rect(6.791167077534249e-09, 2.8144185556394575e-09).transl(1.2906125247564675e-08, 4e-08, 0))
hIsland = hIsland.add(rect(4.347023346404472e-09, 1.4866288865328254e-09).transl(4.639140074246869e-08, 4e-08, 0))
hIsland = hIsland.sub(rect(5.317479598283758e-09, -9.384788607168535e-10).transl(-1.1031630456618531e-08, 4e-08, 0))
hIsland = hIsland.sub(rect(7.060821023773714e-09, -1.342084852752641e-09).transl(1.3530554857551112e-08, 4e-08, 0))
hIsland = hIsland.add(rect(8.822786980356579e-09, 4.101489844296789e-10).transl(8.565052947408044e-08, 3.424604527535499e-08, 0))
hIsland = hIsland.add(rect(5.616897847210738e-09, 9.437704604073258e-10).transl(-7.872170169430836e-08, 4e-08, 0))
hIsland = hIsland.add(rect(8.800675634907106e-09, 7.148250802700432e-10).transl(4.3507840566816684e-08, 4e-08, 0))
hIsland = hIsland.add(rect(5.688063772114168e-09, 8.414359352790762e-10).transl(-3.488610952063417e-08, 4e-08, 0))
hIsland = hIsland.sub(rect(9.141096814439794e-09, -1.706457215133473e-09).transl(-6.313023700511381e-08, 4e-08, 0))
hIsland = hIsland.sub(rect(6.109830648034298e-09, -9.056042998372792e-10).transl(3.4671693046793044e-08, 4e-08, 0))
hIsland = hIsland.add(rect(4.5811118757768586e-09, 4.4873793854143565e-10).transl(-6.61715256307046e-08, 4e-08, 0))
hIsland = hIsland.sub(rect(3.105473096244784e-09, -4.436400449025149e-10).transl(-8.925461271076506e-08, 1.5939000383964523e-08, 0))
hIsland = hIsland.sub(rect(9.730262050781363e-09, -9.308473006691479e-10).transl(-3.71515109888248e-08, 4e-08, 0))
hIsland = hIsland.add(rect(3.5178189012936933e-09, 1.3238237900025318e-09).transl(4.803204163226836e-08, 4e-08, 0))
hIsland = hIsland.add(rect(2.815526102828698e-09, 3.2298503244265906e-09).transl(-8.796956773522158e-08, 2.5308028525257128e-08, 0))
hIsland = hIsland.sub(rect(3.142755213162417e-09, -2.8535862388025283e-11).transl(-2.9548940331610728e-08, 4e-08, 0))
hIsland = hIsland.add(rect(3.2286023529951467e-09, 1.1771365471589862e-09).transl(2.163493778619195e-08, 4e-08, 0))
hIsland = hIsland.add(rect(6.904604994667847e-09, 1.0513202041817114e-09).transl(1.2067049116706466e-08, 4e-08, 0))
hIsland = hIsland.sub(rect(6.3289983772273996e-09, -5.11460083537631e-09).transl(1.179441128265074e-08, 4e-08, 0))
hIsland = hIsland.sub(rect(5.043672484900289e-09, -2.9562041779545943e-09).transl(-4.8745756153025356e-08, 4e-08, 0))
hIsland = hIsland.sub(rect(9.645235194537083e-09, -2.8487256934192185e-09).transl(-1.7408215506906237e-08, 4e-08, 0))
hIsland = hIsland.add(rect(8.495837674769683e-09, 3.4097904566277716e-09).transl(-4.168851754445442e-08, 4e-08, 0))
hIsland = hIsland.sub(rect(5.791384054835777e-09, -2.053212942190034e-09).transl(-2.0034820292715425e-08, 4e-08, 0))
hIsland = hIsland.add(rect(2.5705801665366073e-09, 7.915219465608117e-10).transl(8.543981733424664e-09, 4e-08, 0))
hIsland = hIsland.add(rect(5.477343814941515e-09, 9.884397130478329e-10).transl(7.642877369284976e-08, 4e-08, 0))
hIsland = hIsland.sub(rect(8.656517365296767e-09, -3.3751954575920227e-10).transl(3.1379973394804454e-08, 4e-08, 0))
hIsland = hIsland.add(rect(9.387579230681248e-09, 1.699474302338401e-09).transl(-2.313003099850376e-08, 4e-08, 0))
hIsland = hIsland.sub(rect(8.153817439292481e-09, -1.068759470026005e-09).transl(8.745443708990845e-09, 4e-08, 0))
hIsland = hIsland.add(rect(5.575588035626669e-09, 4.414258361485082e-10).transl(-7.156606946018517e-09, 4e-08, 0))
hIsland = hIsland.add(rect(4.091898011983422e-09, 7.327159102962771e-10).transl(4.566072868440942e-08, 4e-08, 0))
hIsland = hIsland.add(rect(4.353747046687241e-09, 6.326917337767564e-10).transl(-3.181597902720826e-08, 4e-08, 0))
hIsland = hIsland.sub(rect(6.7658894716391246e-09, -8.570557906126128e-10).transl(4.607240653609878e-08, 4e-08, 0))
hIsland = hIsland.sub(rect(4.5773608325119215e-09, -2.020012855996367e-09).transl(-1.568457147102465e-08, 4e-08, 0))
hIsland = hIsland.add(rect(9.451686401653465e-09, 2.960463736116951e-10).transl(7.473501978329118e-08, 4e-08, 0))
hIsland = hIsland.add(rect(2.0508068124755534e-09, 6.992369251394599e-10).transl(8.311591393159364e-08, 3.8878832536983094e-08, 0))
hIsland = hIsland.sub(rect(9.555566865786669e-09, -1.980297284428707e-09).transl(5.902541746324009e-08, 4e-08, 0))
hIsland = hIsland.add(rect(3.56123969369978e-09, 1.388324984427997e-09).transl(-8.536032882580539e-08, 3.499207177389114e-08, 0))
hIsland = hIsland.add(rect(7.623284708396032e-09, 2.519383693207572e-10).transl(6.976845611314693e-08, 4e-08, 0))
hIsland = hIsland.add(rect(9.532097312017551e-09, 4.632916763219845e-09).transl(-7.921530539286698e-08, 4e-08, 0))
hIsland = hIsland.add(rect(4.988342447137544e-09, 3.226829968167151e-09).transl(3.4779413763081936e-08, 4e-08, 0))
hIsland = hIsland.sub(rect(9.45938218123082e-09, -7.948676225727578e-10).transl(-4.65128793763984e-08, 4e-08, 0))
hIsland = hIsland.add(rect(8.576632719138653e-09, 1.1299290358035505e-10).transl(-4.4450088528568715e-08, 4e-08, 0))
hIsland = hIsland.sub(rect(7.465037669312928e-09, -3.8056028578054684e-09).transl(-7.103428114511443e-08, 4e-08, 0))
hIsland = hIsland.add(rect(7.86733048244098e-09, 3.576974470978919e-09).transl(1.3762326784077692e-08, 4e-08, 0))
hIsland = hIsland.sub(rect(2.2059162555428184e-09, -1.8771687124113425e-10).transl(-3.295290698319317e-09, 4e-08, 0))
hIsland = hIsland.sub(rect(4.3195056369205155e-09, -1.820546747158926e-10).transl(-3.7367479616532806e-08, 4e-08, 0))
hIsland = hIsland.sub(rect(5.165583195504158e-09, -1.4025768902886192e-09).transl(5.0107661715950075e-08, 4e-08, 0))
hIsland = hIsland.sub(rect(7.875429278917877e-09, -6.483035147434377e-10).transl(3.0980254943978566e-08, 4e-08, 0))
hIsland = hIsland.sub(rect(2.964481195108042e-09, -3.3138532641163e-09).transl(-7.925475111407643e-08, 4e-08, 0))
hIsland = hIsland.add(rect(5.419326945207084e-09, 3.683536228294939e-09).transl(3.0135724002781025e-08, 4e-08, 0))
hIsland = hIsland.sub(rect(3.013314345903087e-09, -3.0899434305745344e-09).transl(5.784942979296808e-08, 4e-08, 0))
hIsland = hIsland.sub(rect(4.2414600281089116e-09, -5.1439874415360386e-11).transl(2.0733529785677127e-08, 4e-08, 0))
hIsland = hIsland.sub(rect(9.277328402469916e-09, -4.893832356357839e-09).transl(-1.3617650175475737e-08, 4e-08, 0))
hIsland = hIsland.sub(rect(9.694898042548376e-09, -8.217971789949558e-10).transl(1.0725660153969914e-08, 4e-08, 0))
hIsland = hIsland.add(rect(5.137768958028127e-09, 1.0520752636710715e-09).transl(6.055390699533947e-08, 4e-08, 0))
hIsland = hIsland.sub(rect(7.833709687196e-09, -4.103744136593888e-10).transl(-5.59472679569119e-08, 4e-08, 0))
hIsland = hIsland.sub(rect(2.9911173944607336e-09, -3.554176163499294e-09).transl(8.248711593110881e-08, 3.945016827514344e-08, 0))
hIsland = hIsland.sub(rect(6.787970394470093e-09, -1.6643836723086543e-09).transl(-1.7661852924006254e-08, 4e-08, 0))
hIsland = hIsland.add(rect(4.537638234417759e-09, 2.3029826504501797e-09).transl(-6.866299335917978e-08, 4e-08, 0))
hIsland = hIsland.sub(rect(2.3867471867726613e-09, -6.273500832238113e-09).transl(-3.929166557347959e-09, 4e-08, 0))
hIsland = hIsland.sub(rect(9.235881717829651e-09, -3.7495955828908764e-09).transl(-7.626202822950519e-08, 4e-08, 0))
hIsland = hIsland.add(rect(2.5148522580757442e-09, 9.026080831559739e-10).transl(-5.642574454265248e-09, 4e-08, 0))
hIsland = hIsland.sub(rect(2.5511460025272926e-09, -1.18444685997825e-09).transl(1.898861349466528e-08, 4e-08, 0))
hIsland = hIsland.sub(rect(5.882043944207467e-09, -3.0726728897842665e-09).transl(-6.036488058731189e-08, 4e-08, 0))
hIsland = hIsland.sub(rect(6.994985117211993e-09, -4.506673461805398e-09).transl(5.0744939626836025e-08, 4e-08, 0))
hIsland = hIsland.sub(rect(8.424767251151075e-09, -2.3434343548799307e-09).transl(-5.1946547638300934e-08, 4e-08, 0))
hIsland = hIsland.sub(rect(6.157194435306824e-09, -6.998665353695627e-10).transl(8.352088424093691e-08, 3.839885354353302e-08, 0))
hIsland = hIsland.sub(rect(5.498155136894168e-09, -1.8221663236304896e-09).transl(-9.063715348269845e-09, 4e-08, 0))
hIsland = hIsland.add(rect(6.399887885388395e-09, 4.9125917993080655e-09).transl(-8.936361654903502e-08, 1.4773963230793706e-08, 0))
hIsland = hIsland.add(rect(9.631474892601911e-09, 1.1130865222563286e-09).transl(7.540990087350166e-08, 4e-08, 0))
hIsland = hIsland.sub(rect(2.2706136161075518e-09, -2.052811026064409e-09).transl(3.915087484065979e-08, 4e-08, 0))
hIsland = hIsland.sub(rect(7.72293689895467e-09, -8.337302975414927e-10).transl(2.6558263808941445e-09, 4e-08, 0))
hIsland = hIsland.add(rect(8.716682718927192e-09, 1.4033315118557103e-09).transl(8.214217591064377e-08, 3.967657745821744e-08, 0))
hIsland = hIsland.add(rect(4.318904542238951e-09, 2.642511763384463e-09).transl(-3.115216232568564e-08, 4e-08, 0))
hIsland = hIsland.add(rect(8.284864671760803e-09, 2.955169566427998e-09).transl(3.9938686212714296e-09, 4e-08, 0))
hIsland = hIsland.add(rect(5.983798803564429e-09, 1.4905844430440937e-09).transl(-5.560807171466594e-08, 4e-08, 0))
hIsland = hIsland.sub(rect(7.49800033106582e-09, -8.749935639285407e-10).transl(-7.628218067494855e-08, 4e-08, 0))
hIsland = hIsland.sub(rect(2.051081976310739e-09, -7.679575371967944e-10).transl(2.861052282532584e-08, 4e-08, 0))
hIsland = hIsland.sub(rect(5.73278043605605e-09, -4.410456780061052e-09).transl(7.634083135055605e-08, 4e-08, 0))
hIsland = hIsland.add(rect(3.5342000827613167e-09, 1.271118815076892e-09).transl(-3.5435389677529976e-08, 4e-08, 0))
hIsland = hIsland.add(rect(3.96760262864326e-09, 4.091827105656736e-09).transl(-8.19171440580501e-08, 3.979176582773814e-08, 0))
hIsland = hIsland.sub(rect(5.6239146251442645e-09, -1.9310886002002585e-09).transl(3.4037256351445356e-08, 4e-08, 0))
hIsland = hIsland.sub(rect(6.236990215986451e-09, -2.7133605711068273e-09).transl(6.58247065776218e-08, 4e-08, 0))
hIsland = hIsland.sub(rect(7.141345577849405e-09, -8.298529326614331e-10).transl(-5.629388565507475e-08, 4e-08, 0))
hIsland = hIsland.add(rect(4.717599546722804e-09, 3.8026773332174764e-10).transl(8.349147498738e-08, 3.84367500038629e-08, 0))
hIsland = hIsland.sub(rect(2.8572537911940484e-09, -2.924634815864864e-09).transl(-8.865440676745584e-08, 2.1039671892633147e-08, 0))
hIsland = hIsland.add(rect(7.941168643729547e-09, 1.3119974623359275e-09).transl(6.462470919397837e-08, 4e-08, 0))
hIsland = hIsland.add(rect(2.3078851304740295e-09, 7.294880084933713e-11).transl(6.7358051405854156e-09, 4e-08, 0))
hIsland = hIsland.sub(rect(6.8828646814562545e-09, -3.6859982151463225e-10).transl(-4.3093278752888554e-08, 4e-08, 0))
hIsland = hIsland.sub(rect(3.4593713349470187e-09, -1.5951853305784557e-09).transl(5.1074834099597104e-08, 4e-08, 0))
hIsland = hIsland.sub(rect(9.460784710023194e-09, -2.5680636486141354e-10).transl(6.186214213106211e-08, 4e-08, 0))
hIsland = hIsland.add(rect(2.250749363613869e-09, 2.783290925267287e-10).transl(-5.870258450959421e-08, 4e-08, 0))
hIsland = hIsland.add(rect(9.709726527850251e-09, 1.1153441709591777e-09).transl(-2.227825283330716e-08, 4e-08, 0))
hIsland = hIsland.add(rect(3.1140485143348e-09, 2.313878029002621e-10).transl(6.800742539783328e-08, 4e-08, 0))
hIsland = hIsland.add(rect(2.3965506431445845e-09, 2.417026963382225e-09).transl(8.211451464769746e-08, 3.969211312026556e-08, 0))
hIsland = hIsland.add(rect(7.457437134588043e-09, 1.8156286153736447e-09).transl(-3.797988781295758e-08, 4e-08, 0))
hIsland = hIsland.add(rect(6.625455930228694e-09, 8.508109744496981e-11).transl(-2.7988295706114177e-08, 4e-08, 0))
hIsland = hIsland.sub(rect(9.497629476877601e-09, -1.4632411854921152e-09).transl(-3.511784050593908e-08, 4e-08, 0))
hIsland = hIsland.sub(rect(5.4827190843725035e-09, -9.27161742553426e-11).transl(-6.281335781065372e-08, 4e-08, 0))
hIsland = hIsland.add(rect(2.8658418060651797e-09, 2.375545227122232e-09).transl(5.530112469531476e-08, 4e-08, 0))
vIsland = hIsland.rotz(pi / 2)
vIslands = vIslands.add(vIsland.transl(0, -a/2, 0))
DefRegion(1, hIslands)
DefRegion(2, vIslands)
TableAdd(m_full.Region(1))
TableAdd(m_full.Region(2))
setgeom(hIslands.add(vIslands))
save(geom)
r2o2 := sqrt(2) / 2
m = RandomMagSeed(4)
B_ext = vector(Bmax*r2o2, Bmax*r2o2, 0)
relax()
minimize()
for B := Bmax; B >= -Bmax; B -= Bstep {
	B_ext = vector(B*r2o2, B*r2o2, 0)
	minimize()
	tablesave()
}
//********************************************************************//
//Please cite the following references, relevant for your simulation. //
//See bibtex file in output folder for justification.                 //
//********************************************************************//
//   * Vansteenkiste et al., AIP Adv. 4, 107133 (2014).
//   * Exl et al., J. Appl. Phys. 115, 17D118 (2014).
