//mumax 3.10 [windows_amd64 go1.11.6(gc) CUDA-11.0]
//GPU info: NVIDIA GeForce RTX 3090(24575MB), CUDA Driver 12.1, cc=8.6, using cc=80 PTX
//(c) Arne Vansteenkiste, Dynamat LAB, Ghent University, Belgium
//This is free software without any warranty. See license.txt
//********************************************************************//
//  If you use mumax in any work or publication,                      //
//  we kindly ask you to cite the references in references.bib        //
//********************************************************************//
//output directory: r1;p0.8;a4.4e-07;l2.3000000000000002e-07;s6.out/
randSeed(6)
ThermSeed(6)
resolution := 2e-09
zResolution := 5e-09
a := 4.4e-07
gridSize := 440
gridDepth := 5
SetCellsize(resolution, resolution, zResolution)
SetGridsize(gridSize, gridSize, gridDepth)
SetPBC(16, 16, 0)
//resizing...
Msat = 700e3
Aex = 13e-12
alpha = 0.2
Bmax := 0.1
Bstep := Bmax / 500.0
TableAdd(B_ext)
TableAdd(m_full)
islandWidth := 8e-08
islandLength := 2.3000000000000002e-07
ellipseConstant := 9.200000000000002e-08
hIsland := Universe().Inverse()
vIsland := Universe().Inverse()
vIslands := Universe().Inverse()
hIslands := Universe().Inverse()
hIsland = rect(islandLength-2*ellipseConstant, islandWidth)
hIsland = hIsland.add(ellipse(ellipseConstant*2, islandWidth).transl(islandLength/2-ellipseConstant, 0, 0))
hIsland = hIsland.add(ellipse(ellipseConstant*2, islandWidth).transl(-islandLength/2+ellipseConstant, 0, 0))
hIsland = hIsland.add(rect(3.670828064407716e-09, 5.771434127141944e-10).transl(-2.375257203928622e-08, -3.999866168679315e-08, 0))
hIsland = hIsland.sub(rect(2.3365462488154106e-09, -1.2501392136268458e-09).transl(9.593409679694309e-08, -2.4381256259451883e-08, 0))
hIsland = hIsland.sub(rect(6.3357202880183945e-09, -1.5509815908618726e-09).transl(1.0213257929186525e-07, -2.0402541145228292e-08, 0))
hIsland = hIsland.sub(rect(4.624733330266666e-09, -3.5265746857278824e-09).transl(8.46410987893863e-08, -2.9694012750076806e-08, 0))
hIsland = hIsland.add(rect(4.2996429795827605e-09, 2.1986997375466873e-09).transl(-2.9173848549616675e-08, -3.990983124822853e-08, 0))
hIsland = hIsland.add(rect(7.71414432287838e-09, 2.216290131298339e-09).transl(8.986244068744484e-08, -2.7475419587962233e-08, 0))
hIsland = hIsland.sub(rect(9.144721869885346e-09, -6.236866236795111e-10).transl(1.0094385752126518e-07, -2.1249953073248375e-08, 0))
hIsland = hIsland.sub(rect(7.312242136433348e-09, -3.8491363448581215e-10).transl(-4.131384054043668e-08, -3.91994638592716e-08, 0))
hIsland = hIsland.sub(rect(6.90985143466588e-09, -9.652778262794535e-10).transl(-4.9927770503652615e-08, -3.82482567543319e-08, 0))
hIsland = hIsland.add(rect(2.4179656537059676e-09, 1.0613473666203323e-09).transl(5.2889087024087595e-08, -3.7830190873992024e-08, 0))
hIsland = hIsland.add(rect(5.6328390461004736e-09, 4.1980546486169533e-10).transl(9.681371374691482e-08, -2.3875605725304494e-08, 0))
hIsland = hIsland.add(rect(7.64048545881203e-09, 1.5220031135369086e-09).transl(5.3517218561969474e-08, -3.773527172028299e-08, 0))
hIsland = hIsland.sub(rect(7.429124721621312e-09, -2.6846295118587164e-09).transl(4.342683067318412e-08, -3.900158638780503e-08, 0))
hIsland = hIsland.add(rect(8.729440634254666e-09, 3.798153296133057e-09).transl(8.26089977236075e-08, -3.046820335943959e-08, 0))
hIsland = hIsland.sub(rect(4.931445136197789e-09, -9.434235265620523e-10).transl(7.100720222599407e-09, -4e-08, 0))
hIsland = hIsland.sub(rect(5.810931839212998e-09, -2.185114358067599e-09).transl(-9.11914029589421e-08, -2.685088897329432e-08, 0))
hIsland = hIsland.sub(rect(3.902228809609837e-09, -1.956010444139413e-09).transl(-7.88237790595009e-08, -3.179478649561445e-08, 0))
hIsland = hIsland.add(rect(7.315974190803034e-09, 6.466708923971241e-10).transl(9.956709591010107e-08, -2.2175958234298144e-08, 0))
hIsland = hIsland.sub(rect(6.349997251624588e-09, -5.712661694140193e-09).transl(1.43759141021076e-08, -4e-08, 0))
hIsland = hIsland.add(rect(9.191309584527385e-09, 1.0647089203399095e-09).transl(-9.718531743417918e-08, -2.3656883631115058e-08, 0))
hIsland = hIsland.add(rect(2.2782281096282154e-09, 1.165972813148182e-09).transl(-6.49916358560872e-08, -3.559035605161691e-08, 0))
hIsland = hIsland.sub(rect(5.258987192269972e-09, -1.6204502417608253e-09).transl(4.7981133580372514e-08, -3.849715322261723e-08, 0))
hIsland = hIsland.add(rect(5.587274954387386e-09, 1.871884169627257e-09).transl(-7.414360688428623e-08, -3.32497323634796e-08, 0))
hIsland = hIsland.add(rect(3.5836202437140702e-09, 9.273826125672234e-10).transl(-8.489670081090684e-08, -2.9593331992794323e-08, 0))
hIsland = hIsland.sub(rect(3.672975445388712e-09, -1.1447632496375682e-09).transl(-7.57670994280773e-08, -3.276667014787816e-08, 0))
hIsland = hIsland.add(rect(5.951033098588886e-09, 2.3800186860096087e-09).transl(5.861256524339191e-08, -3.688162537778929e-08, 0))
hIsland = hIsland.add(rect(8.646775225823574e-09, 7.618274384070292e-10).transl(1.1092053843531187e-07, -1.1779150152161029e-08, 0))
hIsland = hIsland.sub(rect(4.6734172734430965e-09, -1.1000092336709164e-09).transl(-3.680103126258312e-08, -3.954737183806942e-08, 0))
hIsland = hIsland.add(rect(2.942990768493494e-09, 5.822744793716208e-11).transl(2.184780830441201e-08, -4e-08, 0))
hIsland = hIsland.sub(rect(9.774530817814718e-09, -2.916711141954774e-10).transl(-4.693971677330528e-08, -3.862203539821936e-08, 0))
hIsland = hIsland.add(rect(8.95024789077899e-09, 1.9565431429495055e-09).transl(-6.888275019663249e-08, -3.467039844363953e-08, 0))
hIsland = hIsland.sub(rect(7.608464255932014e-09, -3.730725859698486e-10).transl(1.8294438285256257e-08, -4e-08, 0))
hIsland = hIsland.add(rect(8.901323485025022e-09, 7.668321150964066e-10).transl(-4.364116470169804e-08, -3.898024879083438e-08, 0))
hIsland = hIsland.add(rect(7.854915988607939e-09, 1.9311568405956153e-09).transl(-1.0026790820636807e-07, -2.1711592825651826e-08, 0))
hIsland = hIsland.add(rect(4.599490814247216e-09, 2.429180827392618e-09).transl(-2.3422739245732083e-09, -4e-08, 0))
hIsland = hIsland.add(rect(7.076977664255937e-09, 3.5815640361810715e-10).transl(1.4478684050449678e-08, -4e-08, 0))
hIsland = hIsland.add(rect(2.7231425153804587e-09, 1.637028454658426e-09).transl(-5.430065464814824e-08, -3.7613769495883836e-08, 0))
hIsland = hIsland.sub(rect(2.2206690990340707e-09, -1.3322803626816094e-09).transl(-5.305080623192732e-08, -3.780596427479282e-08, 0))
hIsland = hIsland.add(rect(7.232408105166374e-09, 1.1213585164580045e-09).transl(-5.233854684331819e-08, -3.791157174327948e-08, 0))
hIsland = hIsland.sub(rect(5.447822233789889e-09, -4.393813104039848e-09).transl(-1.050984700717057e-07, -1.805181165279711e-08, 0))
hIsland = hIsland.add(rect(2.6799435634299655e-09, 2.028972182950456e-09).transl(3.998561629082096e-09, -4e-08, 0))
hIsland = hIsland.sub(rect(3.086420176844949e-09, -5.920369470494961e-10).transl(5.635759902008038e-08, -3.727806560636768e-08, 0))
hIsland = hIsland.add(rect(7.191010975789934e-09, 4.97215298993707e-09).transl(-7.88148124228306e-08, -3.179776214678218e-08, 0))
hIsland = hIsland.add(rect(5.901777196591179e-09, 3.0889014809356152e-09).transl(-6.153883628492094e-08, -3.6321287632911323e-08, 0))
hIsland = hIsland.add(rect(5.1754410663190956e-09, 1.3967277719500572e-09).transl(-8.110760703831171e-08, -3.101163268626616e-08, 0))
hIsland = hIsland.add(rect(8.54449908861036e-09, 1.085623931188351e-09).transl(-3.289855395911713e-08, -3.976780106819245e-08, 0))
hIsland = hIsland.sub(rect(4.514007108377691e-09, -3.1893929091165598e-09).transl(-8.229218857360645e-10, -4e-08, 0))
hIsland = hIsland.sub(rect(5.709028850740305e-09, -2.348055098838676e-11).transl(-8.044638376056128e-08, -3.124363978477567e-08, 0))
hIsland = hIsland.sub(rect(9.190143274307687e-09, -1.0520120042288868e-09).transl(1.0751103603755555e-07, -1.580771023294906e-08, 0))
hIsland = hIsland.sub(rect(5.1051297947099054e-09, -1.8864080618309932e-10).transl(2.042121512190626e-08, -4e-08, 0))
hIsland = hIsland.sub(rect(2.982270229098421e-09, -5.229757494309894e-10).transl(-7.519087250748826e-08, -3.294066621834955e-08, 0))
hIsland = hIsland.sub(rect(8.41266899156127e-09, -1.902518532554704e-09).transl(-8.571982548152193e-08, -2.9263884758298288e-08, 0))
hIsland = hIsland.add(rect(8.56086902988979e-09, 1.0756036368487657e-09).transl(-4.576565609786882e-08, -3.87559981391833e-08, 0))
hIsland = hIsland.add(rect(6.613107476005789e-09, 1.80799687197175e-09).transl(1.1445674205946846e-07, -4.3405228198122635e-09, 0))
hIsland = hIsland.add(rect(6.515095614764478e-09, 2.468374728062248e-09).transl(-6.890966868219095e-08, -3.4663661620707444e-08, 0))
hIsland = hIsland.add(rect(9.88316045578253e-09, 2.3144394524325714e-12).transl(9.995001187346583e-08, -2.1923977916626955e-08, 0))
hIsland = hIsland.sub(rect(7.507735526158232e-09, -3.2748245403490144e-09).transl(-5.340722772088642e-08, -3.775205274237137e-08, 0))
hIsland = hIsland.sub(rect(9.198355304044848e-09, -4.768756715457674e-10).transl(-1.911719356579196e-08, -4e-08, 0))
hIsland = hIsland.sub(rect(8.092240637432697e-09, -2.439625700684281e-09).transl(1.6202119482384585e-08, -4e-08, 0))
hIsland = hIsland.sub(rect(5.264837760274146e-09, -1.9076314613930076e-09).transl(-1.1102872735307644e-07, -1.1625400459372626e-08, 0))
hIsland = hIsland.add(rect(5.760377458742766e-09, 8.839421493104455e-11).transl(6.909698636995072e-08, -3.461663620838215e-08, 0))
hIsland = hIsland.add(rect(8.20261073857586e-09, 2.1830440307325608e-11).transl(6.201604262887107e-08, -3.6224850261671903e-08, 0))
hIsland = hIsland.add(rect(6.598138836443042e-09, 1.1569336304138228e-09).transl(7.607933051036867e-08, -3.267120001629759e-08, 0))
hIsland = hIsland.sub(rect(9.339539463169383e-09, -1.4728941872821016e-09).transl(-8.082393750471089e-08, -3.1111702681669595e-08, 0))
hIsland = hIsland.sub(rect(9.692587363781187e-09, -4.655247741419351e-09).transl(-7.656853933296088e-08, -3.251991274147637e-08, 0))
hIsland = hIsland.add(rect(8.839305211874074e-09, 4.049907085223524e-09).transl(5.0138482369836816e-08, -3.8220093822095266e-08, 0))
hIsland = hIsland.sub(rect(4.120978511048854e-09, -3.4239704862930286e-10).transl(1.0343170967562765e-07, -1.9418483967463093e-08, 0))
hIsland = hIsland.add(rect(7.162028372428147e-09, 5.430631926188917e-10).transl(8.834937428668621e-08, -2.815518459757886e-08, 0))
hIsland = hIsland.add(rect(4.455901454587383e-09, 1.4660449590974225e-09).transl(9.648987328164613e-09, -4e-08, 0))
hIsland = hIsland.sub(rect(3.5572567431455984e-09, -8.955998021244426e-10).transl(-4.850624419769361e-08, -3.84320073435558e-08, 0))
hIsland = hIsland.sub(rect(6.89414225078646e-09, -1.615836210389504e-09).transl(3.047912043586267e-08, -3.9867604042386385e-08, 0))
hIsland = hIsland.add(rect(9.43321819496443e-09, 2.686160160379562e-10).transl(-1.0737728631524849e-08, -4e-08, 0))
hIsland = hIsland.add(rect(7.39563118761725e-09, 4.3760593367529945e-10).transl(-1.8930321780434265e-08, -4e-08, 0))
hIsland = hIsland.add(rect(6.22178107403766e-09, 2.0554861312154984e-11).transl(-1.0731018259451036e-07, -1.6009172175324732e-08, 0))
hIsland = hIsland.sub(rect(7.708284999128737e-09, -1.5877773270981927e-09).transl(2.454631930054143e-08, -3.999434954566065e-08, 0))
hIsland = hIsland.sub(rect(9.15827097857304e-09, -3.975291251837228e-09).transl(5.5445586630939185e-09, -4e-08, 0))
hIsland = hIsland.sub(rect(7.294564624734956e-09, -8.203935014745129e-10).transl(3.979741338813674e-08, -3.9327635712210004e-08, 0))
hIsland = hIsland.add(rect(9.380898241884287e-09, 3.774332834003543e-10).transl(2.2713691041684283e-08, -4e-08, 0))
hIsland = hIsland.add(rect(6.13853474582766e-09, 3.6481545850498957e-09).transl(-2.8105552606815227e-08, -3.993835829907794e-08, 0))
hIsland = hIsland.sub(rect(4.662339902641991e-09, -2.67804132079779e-09).transl(8.356656692287404e-08, -3.010909894935367e-08, 0))
hIsland = hIsland.sub(rect(9.514376418366043e-09, -6.089024470569953e-10).transl(-2.916654097003081e-08, -3.991004481599266e-08, 0))
hIsland = hIsland.add(rect(6.939182688106226e-09, 1.3750652649645129e-10).transl(-1.1027324903161666e-07, -1.2656431402791921e-08, 0))
hIsland = hIsland.add(rect(4.633394184411826e-09, 2.964624999485108e-09).transl(4.2406304594962805e-08, -3.909997689498765e-08, 0))
hIsland = hIsland.sub(rect(2.5766422926762713e-09, -1.7519756990379617e-09).transl(7.697919019222147e-08, -3.239129567024098e-08, 0))
hIsland = hIsland.sub(rect(3.868802561627393e-09, -2.043333651230791e-09).transl(6.394699052629368e-08, -3.581971230443799e-08, 0))
hIsland = hIsland.sub(rect(2.116507261717833e-09, -1.2606600930928578e-10).transl(7.18901315853848e-08, -3.3884478029553656e-08, 0))
hIsland = hIsland.add(rect(2.5913318228220634e-09, 1.4153021125354353e-09).transl(1.755267851826372e-08, -4e-08, 0))
hIsland = hIsland.add(rect(2.1167825118441694e-09, 2.428540541973759e-09).transl(-1.8387963087807542e-08, -4e-08, 0))
hIsland = hIsland.add(rect(5.676345194039822e-09, 1.6411565014332191e-09).transl(1.1325445107005911e-07, -7.754918703066687e-09, 0))
hIsland = hIsland.add(rect(6.839934141434165e-09, 5.291095880761196e-10).transl(-3.3660818083744746e-08, -3.973053602665191e-08, 0))
hIsland = hIsland.sub(rect(6.798332503659794e-09, -1.878297282919499e-09).transl(6.175911409142692e-08, -3.627695158661136e-08, 0))
hIsland = hIsland.add(rect(3.5327542493760034e-09, 2.2368247379894842e-10).transl(8.082072942042888e-09, -4e-08, 0))
hIsland = hIsland.add(rect(8.820643144400111e-09, 2.679391959092823e-09).transl(-3.6375002030723063e-08, -3.957503299332916e-08, 0))
hIsland = hIsland.sub(rect(3.398375568006844e-09, -4.2886049318288555e-09).transl(-1.7171862318278882e-08, -4e-08, 0))
hIsland = hIsland.sub(rect(2.7359471445761728e-09, -3.93099499662093e-09).transl(-7.738687725007128e-08, -3.226212227435892e-08, 0))
hIsland = hIsland.add(rect(5.132668578199211e-09, 7.118995266873883e-10).transl(1.0647859269876987e-07, -1.6812794215852133e-08, 0))
hIsland = hIsland.sub(rect(9.175874500941856e-09, -3.3330116307404965e-09).transl(-8.872004489500835e-08, -2.79916126345453e-08, 0))
hIsland = hIsland.sub(rect(8.80075845522719e-09, -4.448561045460529e-09).transl(8.40944257543043e-08, -2.9906821716930735e-08, 0))
hIsland = hIsland.add(rect(8.720416460643694e-09, 1.430041408477204e-09).transl(1.1147161055554074e-08, -4e-08, 0))
hIsland = hIsland.add(rect(4.2626431027080944e-09, 9.935158341344182e-10).transl(5.880793290963453e-08, -3.6845849480752163e-08, 0))
hIsland = hIsland.add(rect(9.810851052241902e-09, 7.749778382028412e-11).transl(1.0592000790338034e-08, -4e-08, 0))
hIsland = hIsland.sub(rect(9.233872173492555e-09, -3.1276063585987213e-09).transl(6.519984928938596e-08, -3.5543771358858307e-08, 0))
hIsland = hIsland.add(rect(4.784819462176636e-09, 9.031131560192029e-10).transl(1.0071973903856599e-07, -2.1404565365440224e-08, 0))
hIsland = hIsland.add(rect(6.241856460894669e-09, 1.6185478665803474e-09).transl(-3.477854546137997e-08, -3.967082386261234e-08, 0))
hIsland = hIsland.sub(rect(2.3578088525535874e-09, -9.42950256495851e-10).transl(-4.0219804060902743e-08, -3.929308791219693e-08, 0))
hIsland = hIsland.sub(rect(7.374108971871915e-09, -6.845669731218873e-10).transl(3.3991985598883346e-09, -4e-08, 0))
hIsland = hIsland.sub(rect(4.877114269817036e-09, -1.2708588042203852e-09).transl(5.216374055868925e-08, -3.793705919822632e-08, 0))
hIsland = hIsland.sub(rect(8.900920157245076e-09, -6.060433643788764e-11).transl(-8.456879321128686e-08, -2.9722356388462194e-08, 0))
hIsland = hIsland.sub(rect(4.7657918888517404e-09, -9.100057214770694e-10).transl(2.2473430981179372e-08, -4e-08, 0))
hIsland = hIsland.sub(rect(2.5365198312793114e-09, -5.583501019948686e-10).transl(-6.586919462518855e-08, -3.539203116492147e-08, 0))
hIsland = hIsland.sub(rect(3.9874491151443854e-09, -2.0971634241163685e-09).transl(3.628950133895742e-09, -4e-08, 0))
hIsland = hIsland.add(rect(4.528000889232014e-09, 8.044064091815538e-10).transl(-1.4670538370979074e-08, -4e-08, 0))
hIsland = hIsland.sub(rect(4.642386163116523e-09, -3.730243609177904e-09).transl(6.170322323472302e-08, -3.628822998433086e-08, 0))
hIsland = hIsland.sub(rect(5.699758738364805e-09, -4.816113387883995e-10).transl(5.651643237292797e-08, -3.725112439401429e-08, 0))
hIsland = hIsland.add(rect(8.177767411403541e-09, 3.000138813473149e-09).transl(1.3618714021183532e-08, -4e-08, 0))
hIsland = hIsland.add(rect(7.048611514381487e-09, 2.8495155787027897e-10).transl(8.180479253014942e-08, -3.076220269191751e-08, 0))
hIsland = hIsland.add(rect(9.073845451051884e-09, 2.987184394958919e-11).transl(-8.544692292034676e-08, -2.937400384114816e-08, 0))
hIsland = hIsland.add(rect(2.8253159137694344e-09, 1.5802968060752897e-09).transl(-9.674008783867047e-08, -2.391857424398182e-08, 0))
hIsland = hIsland.add(rect(8.866952284825637e-09, 4.333148976060638e-09).transl(-1.0542649835797569e-07, -1.7766987762362695e-08, 0))
hIsland = hIsland.sub(rect(8.143443337419477e-09, -1.903020061257976e-09).transl(-6.6178739812799e-08, -3.53208261719688e-08, 0))
hIsland = hIsland.add(rect(5.367595455632443e-09, 2.898194952873699e-09).transl(2.4120557891601428e-08, -3.999703285311583e-08, 0))
hIsland = hIsland.add(rect(8.773983955192812e-09, 5.523244155515222e-10).transl(-1.0656212580845782e-07, -1.6734167137526354e-08, 0))
hIsland = hIsland.sub(rect(7.74698068336484e-09, -4.125237396927904e-09).transl(8.126273324190733e-08, -3.0956564225613086e-08, 0))
hIsland = hIsland.add(rect(5.6653182037838e-09, 1.0335810609408691e-10).transl(-1.938702823215722e-08, -4e-08, 0))
hIsland = hIsland.sub(rect(7.489967064625374e-09, -1.683392166353973e-09).transl(5.966332622533423e-08, -3.668648275633872e-08, 0))
hIsland = hIsland.add(rect(6.871695122422367e-09, 4.74643644080093e-10).transl(3.68994444224839e-08, -3.954085596091934e-08, 0))
hIsland = hIsland.add(rect(7.460162153296121e-09, 2.182166879849223e-09).transl(-9.070264693156146e-08, -2.708368184008935e-08, 0))
hIsland = hIsland.sub(rect(4.642033043058212e-09, -2.6762853112327777e-10).transl(-1.0273789733652087e-07, -1.995205845869587e-08, 0))
hIsland = hIsland.add(rect(5.60496550312571e-09, 2.2307709096285002e-09).transl(4.180480165683611e-08, -3.915549785433222e-08, 0))
hIsland = hIsland.add(rect(5.230121568131168e-09, 2.2114236133594964e-09).transl(-5.9496426336564176e-08, -3.671792767301943e-08, 0))
hIsland = hIsland.sub(rect(4.798333731718194e-09, -2.2951384110360736e-09).transl(-6.093600134437968e-08, -3.644105944168428e-08, 0))
hIsland = hIsland.sub(rect(8.356457331874054e-09, -2.4704938009528883e-09).transl(-6.42999714072833e-08, -3.574302412344465e-08, 0))
hIsland = hIsland.sub(rect(2.7327231316025484e-09, -8.960431462951651e-10).transl(1.124124658684123e-07, -9.419953757627616e-09, 0))
hIsland = hIsland.add(rect(6.847550493322568e-09, 1.364212959009292e-09).transl(-7.624712455442979e-08, -3.2619545228932175e-08, 0))
hIsland = hIsland.add(rect(4.031285637729429e-09, 1.6447767940942232e-09).transl(-2.622148193155362e-08, -3.997546992211933e-08, 0))
hIsland = hIsland.add(rect(7.574198515609412e-09, 9.326338179652548e-10).transl(-8.544557491611372e-08, -2.937454556104594e-08, 0))
hIsland = hIsland.sub(rect(6.760137471660285e-09, -4.621133525065269e-10).transl(9.171293444891949e-08, -2.6598366279472044e-08, 0))
hIsland = hIsland.sub(rect(4.942289587510509e-09, -1.909699534989191e-09).transl(1.183362034394548e-08, -4e-08, 0))
hIsland = hIsland.sub(rect(5.028959777640984e-09, -5.940851060943896e-11).transl(-1.1347378380272539e-07, -7.2557186157503694e-09, 0))
hIsland = hIsland.sub(rect(2.4870262492863544e-09, -3.0866359568476562e-09).transl(5.4122766766960023e-08, -3.764166282838353e-08, 0))
hIsland = hIsland.add(rect(3.5626273308132125e-09, 3.406152907263592e-09).transl(5.27962536646742e-08, -3.7844031894203945e-08, 0))
hIsland = hIsland.add(rect(7.602147495079911e-09, 3.3630043402004238e-09).transl(-7.270736695190561e-08, -3.3658963674966345e-08, 0))
hIsland = hIsland.add(rect(2.674801084553319e-09, 1.5501489980261855e-09).transl(-7.489519852440285e-09, -4e-08, 0))
hIsland = hIsland.add(rect(8.339309434824607e-09, 2.612714430088239e-09).transl(5.187275446096151e-08, -3.7979110888267677e-08, 0))
hIsland = hIsland.add(rect(3.2543975241309602e-09, 1.674999885148842e-09).transl(-1.1433640634911852e-07, -4.795651685693254e-09, 0))
hIsland = hIsland.add(rect(3.5797020787097377e-09, 1.798371370967927e-10).transl(-1.130752574010973e-07, -8.139241964653784e-09, 0))
hIsland = hIsland.sub(rect(3.5861555146663984e-09, -4.6346046243306975e-09).transl(-6.845482921557288e-08, -3.4776788917966834e-08, 0))
hIsland = hIsland.sub(rect(6.719855610992018e-09, -1.7216594540765126e-09).transl(-9.808971287951552e-08, -2.3111200811782932e-08, 0))
hIsland = hIsland.add(rect(3.1471227266821977e-09, 3.383591557013341e-09).transl(5.771646324291825e-08, -3.704278214263032e-08, 0))
hIsland = hIsland.sub(rect(2.08888641794436e-09, -5.893487158029944e-10).transl(-4.3474739906743056e-08, -3.8996837217862306e-08, 0))
hIsland = hIsland.sub(rect(2.7148468269966806e-09, -6.334964125276806e-10).transl(-1.0526920995459217e-07, -1.7904267021837818e-08, 0))
hIsland = hIsland.add(rect(7.761747290855628e-09, 2.91687786596751e-09).transl(1.0913084960791029e-07, -1.4058188189250227e-08, 0))
hIsland = hIsland.add(rect(7.367169267732739e-09, 1.0616447733278448e-09).transl(6.301876649606912e-08, -3.601747719043015e-08, 0))
hIsland = hIsland.add(rect(7.970224691505421e-09, 1.3475500993754666e-09).transl(-1.3254371015606982e-08, -4e-08, 0))
hIsland = hIsland.sub(rect(9.815297595639942e-09, -2.2504479435306047e-09).transl(-1.0082098693532891e-07, -2.1334911494331492e-08, 0))
hIsland = hIsland.add(rect(3.756802767047832e-09, 1.7553506732950173e-09).transl(-8.009299422563735e-09, -4e-08, 0))
hIsland = hIsland.sub(rect(9.847931703887682e-09, -2.0955127429617124e-11).transl(-9.855919363696939e-08, -2.2820116225028572e-08, 0))
hIsland = hIsland.sub(rect(6.3247821789548175e-09, -2.2871852506767462e-09).transl(-1.7854159577437928e-08, -4e-08, 0))
hIsland = hIsland.sub(rect(6.799422679350829e-09, -1.8988888172902573e-10).transl(-9.582987880058496e-08, -2.4440076611604894e-08, 0))
hIsland = hIsland.add(rect(5.0500603158312384e-09, 4.362724516152297e-09).transl(-6.578694060136856e-08, -3.541084204323257e-08, 0))
hIsland = hIsland.sub(rect(9.798327082014603e-09, -4.29864349067835e-10).transl(-1.0737365319109654e-07, -1.5945836057080085e-08, 0))
hIsland = hIsland.add(rect(5.999202561386001e-09, 2.1596335843028696e-09).transl(6.335418292047703e-08, -3.594666265344717e-08, 0))
hIsland = hIsland.add(rect(3.3339757164983956e-09, 1.5213666645806312e-09).transl(-1.1053885254403097e-07, -1.2304803304477934e-08, 0))
hIsland = hIsland.add(rect(3.4716699399872833e-09, 2.741222058440725e-09).transl(-3.9065243609571305e-08, -3.938542030092789e-08, 0))
hIsland = hIsland.add(rect(8.289049656151396e-09, 7.149967108029081e-10).transl(-6.35182465176114e-08, -3.5911758317720047e-08, 0))
hIsland = hIsland.add(rect(6.743698669447484e-09, 6.0230227750922445e-09).transl(7.348551019727053e-08, -3.343931461375477e-08, 0))
hIsland = hIsland.sub(rect(9.897047073874876e-09, -7.74513655328665e-10).transl(8.037133897411993e-08, -3.1269695386864015e-08, 0))
hIsland = hIsland.add(rect(9.876470114314032e-09, 3.210978397072273e-10).transl(6.935395910355627e-08, -3.4551707711075226e-08, 0))
hIsland = hIsland.sub(rect(4.121662384403848e-09, -1.913009390229503e-09).transl(-8.367804266789878e-08, -3.006664034481273e-08, 0))
hIsland = hIsland.sub(rect(5.101223079173327e-09, -3.7189491525875525e-09).transl(-6.466494322809862e-08, -3.566286294111525e-08, 0))
hIsland = hIsland.add(rect(9.697420903366561e-09, 3.451241936636498e-09).transl(-9.903967536602342e-08, -2.2516399275602024e-08, 0))
hIsland = hIsland.add(rect(2.7203100457118776e-09, 2.9607304230368916e-09).transl(9.782451268312675e-08, -2.3273228337025694e-08, 0))
hIsland = hIsland.add(rect(6.88894347539905e-09, 5.177191772745996e-09).transl(-6.373168683086217e-08, -3.58660859654179e-08, 0))
hIsland = hIsland.sub(rect(5.1336652411550585e-09, -2.159743103660299e-09).transl(-2.8215852183042402e-08, -3.9935663965102454e-08, 0))
hIsland = hIsland.sub(rect(3.299876203117208e-09, -7.784718443797296e-10).transl(-3.911257716683611e-08, -3.9381764986217056e-08, 0))
hIsland = hIsland.add(rect(3.028452446784581e-09, 3.5120880014592386e-09).transl(2.1950411677377373e-08, -4e-08, 0))
hIsland = hIsland.add(rect(7.734502453639787e-09, 1.8694728878406678e-09).transl(-4.1119069285386865e-09, -4e-08, 0))
hIsland = hIsland.sub(rect(5.378498974525381e-09, -2.912747115553429e-09).transl(1.123068219211371e-07, -9.607530505260462e-09, 0))
hIsland = hIsland.add(rect(3.9370361396015025e-09, 4.5711858924623354e-09).transl(5.807349968624823e-08, -3.697914811132702e-08, 0))
hIsland = hIsland.sub(rect(4.5815686754641884e-09, -1.3414839374972357e-10).transl(6.775805986016468e-08, -3.49472085732356e-08, 0))
hIsland = hIsland.add(rect(2.36508397968743e-09, 4.940882604864021e-10).transl(9.803755068993182e-08, -2.314320498436178e-08, 0))
hIsland = hIsland.sub(rect(9.53679974429085e-09, -2.3743857513121405e-09).transl(-6.651925438417426e-08, -3.524173741891144e-08, 0))
hIsland = hIsland.add(rect(5.809195780561938e-09, 3.2571441055491517e-09).transl(2.424962658519205e-08, -3.999630992761244e-08, 0))
hIsland = hIsland.add(rect(3.4303044598581894e-09, 3.9160611444758166e-10).transl(1.2634112489771538e-08, -4e-08, 0))
hIsland = hIsland.sub(rect(8.082070057715442e-09, -7.998665478719425e-10).transl(2.622783091590171e-08, -3.99753731079371e-08, 0))
hIsland = hIsland.sub(rect(9.240161723916214e-09, -2.53631926345888e-09).transl(-3.5949618288410727e-08, -3.960176855902692e-08, 0))
hIsland = hIsland.add(rect(2.2074574660773125e-09, 1.170216540903362e-09).transl(5.716211032315934e-08, -3.7140081778731555e-08, 0))
hIsland = hIsland.add(rect(8.276823720125308e-09, 2.7082474155989257e-09).transl(7.504908093757232e-08, -3.298304878703755e-08, 0))
hIsland = hIsland.sub(rect(4.6051422395506884e-09, -2.409010322238747e-09).transl(-3.5518276087590178e-09, -4e-08, 0))
hIsland = hIsland.add(rect(2.5485036470331562e-09, 1.2728493881707792e-09).transl(-2.3139274542485078e-08, -3.999995416491187e-08, 0))
hIsland = hIsland.sub(rect(6.243764731918891e-09, -2.195036350566982e-10).transl(-4.638736024382653e-08, -3.868595721447616e-08, 0))
hIsland = hIsland.sub(rect(8.224840743173458e-09, -2.4239627853960027e-09).transl(-6.458711297594025e-08, -3.568003162516078e-08, 0))
hIsland = hIsland.add(rect(4.106741948728636e-09, 1.3282325109933751e-09).transl(4.140005895706471e-08, -3.919183065210454e-08, 0))
hIsland = hIsland.sub(rect(9.28623123763132e-09, -2.755352452865994e-09).transl(-9.939596386794563e-08, -2.2287249589616428e-08, 0))
hIsland = hIsland.add(rect(5.3382225498569434e-09, 2.6152796345755635e-09).transl(4.573137406769901e-08, -3.875980181658484e-08, 0))
hIsland = hIsland.sub(rect(9.317392744853248e-09, -1.0985175594522604e-09).transl(-2.601521415998129e-08, -3.9978511438724536e-08, 0))
hIsland = hIsland.sub(rect(7.03242826513855e-09, -5.62762801981839e-10).transl(1.1258476945700216e-07, -9.105235218326537e-09, 0))
hIsland = hIsland.sub(rect(7.920531178653239e-09, -2.130259737294356e-09).transl(6.656716512035725e-08, -3.523054537855229e-08, 0))
hIsland = hIsland.add(rect(4.873356023473545e-09, 2.319161014523887e-09).transl(2.497905984735096e-08, -3.9990744019162276e-08, 0))
hIsland = hIsland.add(rect(9.55858741877062e-09, 1.0592126342293338e-09).transl(4.0663502836988135e-08, -3.925583931261136e-08, 0))
hIsland = hIsland.sub(rect(5.766144211432898e-09, -1.2724116261585767e-09).transl(4.1188341283153325e-08, 3.921050802740282e-08, 0))
hIsland = hIsland.sub(rect(6.3722530886176246e-09, -9.907137989070617e-10).transl(2.2076526714854456e-08, 4e-08, 0))
hIsland = hIsland.sub(rect(7.866206701178557e-09, -4.303011174592917e-10).transl(-3.95567876422863e-10, 4e-08, 0))
hIsland = hIsland.sub(rect(4.457434012569347e-09, -2.3314143485445293e-10).transl(2.7858790545949042e-08, 3.994417691314397e-08, 0))
hIsland = hIsland.sub(rect(6.469605486693057e-09, -1.0889808375445327e-09).transl(-4.9373236891776084e-08, 3.832122802278082e-08, 0))
hIsland = hIsland.add(rect(3.835410039703681e-09, 1.9932214900057177e-10).transl(-1.1428994163221986e-08, 4e-08, 0))
hIsland = hIsland.add(rect(4.342271689781803e-09, 7.976998080948205e-10).transl(-8.392676625449982e-08, 2.997140777918939e-08, 0))
hIsland = hIsland.add(rect(7.989759597093787e-09, 4.2720155854803094e-09).transl(3.145571883195933e-08, 3.9830692772961824e-08, 0))
hIsland = hIsland.sub(rect(3.6282275241044054e-09, -3.0224821689828942e-09).transl(-9.714028758678504e-08, 2.3683553977945114e-08, 0))
hIsland = hIsland.sub(rect(6.585699758604807e-09, -9.981220166009068e-10).transl(-1.520318094584102e-08, 4e-08, 0))
hIsland = hIsland.add(rect(4.1237480035396044e-09, 1.8172062353931385e-09).transl(5.261350704194749e-08, 3.7871138091123215e-08, 0))
hIsland = hIsland.sub(rect(7.11545779297649e-09, -2.7311389479278664e-10).transl(9.697429331049637e-08, 2.378147175254188e-08, 0))
hIsland = hIsland.add(rect(2.640276164456518e-09, 2.253944236911838e-09).transl(1.0046147274583404e-07, 2.1580815887623514e-08, 0))
hIsland = hIsland.add(rect(7.73219688643264e-09, 2.2653059361428444e-09).transl(-2.1203655710372852e-08, 4e-08, 0))
hIsland = hIsland.add(rect(7.92439793782661e-09, 1.3188459827006725e-09).transl(-6.049309449471676e-08, 3.6527607875287735e-08, 0))
hIsland = hIsland.add(rect(8.007179579061127e-09, 1.3694073568741322e-09).transl(7.500281145361648e-08, 3.299684237891762e-08, 0))
hIsland = hIsland.sub(rect(2.3154463269340806e-09, -6.38615536758037e-10).transl(-2.4593044008779074e-08, 3.999400288404803e-08, 0))
hIsland = hIsland.sub(rect(5.14216576214368e-09, -2.211733638217961e-09).transl(-7.247932573063043e-08, 3.372241945308472e-08, 0))
hIsland = hIsland.sub(rect(7.1126341433913015e-09, -7.744353880571731e-10).transl(9.696718406569829e-08, 2.3785651507879165e-08, 0))
hIsland = hIsland.add(rect(5.9719305557149675e-09, 5.283189360580723e-10).transl(1.0481762080647127e-07, 1.8291263140932286e-08, 0))
hIsland = hIsland.add(rect(9.723388196985312e-09, 7.580764555393457e-10).transl(5.420019393896491e-08, 3.762954410362036e-08, 0))
hIsland = hIsland.add(rect(8.339272960955967e-09, 5.921240033195738e-10).transl(-2.352655337649352e-08, 3.999934484704891e-08, 0))
hIsland = hIsland.add(rect(9.70376389571831e-09, 1.3506865193973998e-09).transl(-6.429347806218635e-08, 3.5744442294155e-08, 0))
hIsland = hIsland.sub(rect(5.8116873671811375e-09, -1.1132006769839783e-09).transl(-1.729204616644989e-09, 4e-08, 0))
hIsland = hIsland.sub(rect(4.853990227407874e-09, -8.259356668655835e-10).transl(-3.886547419212267e-08, 3.9400725259508275e-08, 0))
hIsland = hIsland.sub(rect(7.835836841680621e-09, -3.4597546564389635e-10).transl(1.107900528520124e-07, 1.196171128674895e-08, 0))
hIsland = hIsland.sub(rect(6.73279160270191e-09, -2.5326498868307714e-10).transl(-9.085351199994824e-08, 2.701221774003292e-08, 0))
hIsland = hIsland.sub(rect(3.411378778759166e-09, -1.3778564760475553e-09).transl(7.195632148250373e-08, 3.38664076970497e-08, 0))
hIsland = hIsland.sub(rect(5.813668918215333e-09, -7.973284475345857e-10).transl(-5.114626138099878e-10, 4e-08, 0))
hIsland = hIsland.add(rect(8.92447665224577e-09, 1.0903286654726965e-09).transl(1.585111969972985e-08, 4e-08, 0))
hIsland = hIsland.add(rect(9.159591995733347e-09, 1.23228771449461e-09).transl(-6.093042752921818e-08, 3.644215622038144e-08, 0))
hIsland = hIsland.sub(rect(3.95556710477505e-09, -1.0199993608317014e-09).transl(-1.0473627080448957e-07, 1.835988700526132e-08, 0))
hIsland = hIsland.sub(rect(3.5874760156180018e-09, -6.650433111487638e-10).transl(-7.38815235665637e-08, 3.3325656027008333e-08, 0))
hIsland = hIsland.add(rect(5.083143123993042e-09, 7.460216945877034e-10).transl(2.6644504659600344e-08, 3.996860201022106e-08, 0))
hIsland = hIsland.sub(rect(9.399075719603997e-09, -7.882820225775507e-10).transl(1.0584216378663895e-07, 1.7397693930294052e-08, 0))
hIsland = hIsland.add(rect(4.079744579765476e-09, 1.5153361353122848e-09).transl(-7.006348366486024e-08, 3.436991173635903e-08, 0))
hIsland = hIsland.sub(rect(4.026263278332236e-09, -2.830630427473577e-10).transl(-8.57071837074082e-08, 2.9269005624754026e-08, 0))
hIsland = hIsland.add(rect(3.6745144739837993e-09, 2.0564320727322475e-09).transl(-3.329561154397471e-08, 3.974873916497494e-08, 0))
hIsland = hIsland.sub(rect(8.048965465332336e-09, -3.4248453809776666e-09).transl(5.5368784330464275e-08, 3.7442487216452816e-08, 0))
hIsland = hIsland.add(rect(2.678396969105462e-09, 1.997778347808784e-09).transl(-8.0206429932804e-08, 3.132675639493253e-08, 0))
hIsland = hIsland.sub(rect(7.295786306046372e-09, -5.808526079178303e-10).transl(-9.505396454996435e-08, 2.4871032917440955e-08, 0))
hIsland = hIsland.sub(rect(4.528678400061256e-09, -8.839885656622592e-10).transl(-1.4857754106323712e-08, 4e-08, 0))
hIsland = hIsland.add(rect(6.74853066078403e-09, 1.7394364000188246e-09).transl(-4.786795416176775e-08, 3.8511002664689723e-08, 0))
hIsland = hIsland.add(rect(8.127836646971435e-09, 2.4466649159998674e-09).transl(-3.178655264025064e-08, 3.981715414511088e-08, 0))
hIsland = hIsland.sub(rect(7.200523478758031e-09, -5.378120995518702e-10).transl(-9.742808866012084e-08, 2.35122926398046e-08, 0))
hIsland = hIsland.add(rect(6.5996290215600304e-09, 3.66899000278845e-09).transl(3.569517210913632e-08, 3.961733930675532e-08, 0))
hIsland = hIsland.sub(rect(7.964852005797545e-09, -2.4613437654311962e-09).transl(1.790061029494133e-08, 4e-08, 0))
hIsland = hIsland.sub(rect(5.8716306298026625e-09, -9.037327708035311e-10).transl(-5.47194520233163e-09, 4e-08, 0))
hIsland = hIsland.add(rect(7.111258581158745e-09, 2.3126394505917987e-09).transl(-8.306411041108604e-08, 3.029877261585665e-08, 0))
hIsland = hIsland.sub(rect(4.507573406902051e-09, -6.363852837903865e-11).transl(9.202543696586285e-08, 2.644496747329889e-08, 0))
hIsland = hIsland.sub(rect(6.064454724909112e-09, -2.7050647454569927e-10).transl(4.775572095573857e-08, 3.8524669335904196e-08, 0))
hIsland = hIsland.add(rect(3.977221084849774e-09, 9.65529884554137e-10).transl(-8.483284496770454e-08, 2.961855573293656e-08, 0))
hIsland = hIsland.add(rect(7.0007939317601156e-09, 2.000945202901315e-09).transl(2.756947743435374e-08, 3.9950630866256624e-08, 0))
hIsland = hIsland.add(rect(3.6888138677083514e-09, 1.0440050923910827e-09).transl(6.216372294863857e-08, 3.6194712887152704e-08, 0))
hIsland = hIsland.sub(rect(4.820868295600172e-09, -2.897333603298703e-09).transl(1.0712925632230647e-07, 1.6188097045244358e-08, 0))
hIsland = hIsland.add(rect(5.708860559036841e-09, 2.8957981921239714e-09).transl(-2.3994562771692235e-08, 3.9997662608676245e-08, 0))
hIsland = hIsland.sub(rect(3.3802186739854528e-09, -5.352902737593445e-09).transl(6.919223061295035e-09, 4e-08, 0))
hIsland = hIsland.add(rect(4.05638919349163e-09, 1.604448271647216e-09).transl(5.313914135661775e-08, 3.77926692921781e-08, 0))
hIsland = hIsland.sub(rect(7.937487273272191e-09, -1.4263822158821902e-09).transl(3.407199377416971e-08, 3.9709271804847026e-08, 0))
hIsland = hIsland.sub(rect(6.2469690218530866e-09, -3.723448678939957e-09).transl(4.590916245191611e-08, 3.8740009446309324e-08, 0))
hIsland = hIsland.sub(rect(7.984334386352687e-09, -6.42940763858383e-10).transl(8.539927824435102e-08, 2.9393137563693284e-08, 0))
hIsland = hIsland.add(rect(5.67138831310169e-09, 1.0507724450562374e-09).transl(1.0907370787538577e-07, 1.4124191346996473e-08, 0))
hIsland = hIsland.sub(rect(7.766780220985586e-09, -2.7264147145202554e-09).transl(-6.018062668313567e-08, 3.65879343160289e-08, 0))
hIsland = hIsland.sub(rect(5.349569302851055e-09, -6.145838056608521e-10).transl(-5.359624625200262e-09, 4e-08, 0))
hIsland = hIsland.sub(rect(2.4586424112087734e-09, -3.895451481844445e-09).transl(-2.3629873213478067e-08, 3.999906251201713e-08, 0))
hIsland = hIsland.add(rect(4.641035995332551e-09, 5.965810881480839e-10).transl(-9.97529972418689e-08, 2.2054141209693503e-08, 0))
hIsland = hIsland.sub(rect(7.673484236259557e-09, -3.947485164132792e-09).transl(1.011644467545758e-07, 2.109622953236541e-08, 0))
hIsland = hIsland.add(rect(6.854393641186095e-09, 6.70962900789105e-10).transl(3.9605925306735654e-08, 3.9343005336943236e-08, 0))
hIsland = hIsland.add(rect(7.408188481071275e-09, 4.1796992489482893e-10).transl(1.1133734166658367e-07, 1.1174116622077663e-08, 0))
hIsland = hIsland.sub(rect(5.72735316675049e-09, -8.757668622249172e-10).transl(3.4837364001824807e-08, 3.966751422725444e-08, 0))
hIsland = hIsland.sub(rect(9.568923025635017e-09, -1.6872176643331476e-09).transl(-2.729367025255206e-09, 4e-08, 0))
hIsland = hIsland.add(rect(6.397511553654518e-09, 2.701178706417455e-10).transl(2.773178740092046e-08, 3.994705898260395e-08, 0))
hIsland = hIsland.sub(rect(3.851994201773073e-09, -1.096316959669319e-09).transl(-4.298264681417141e-08, 3.904506103671852e-08, 0))
hIsland = hIsland.sub(rect(7.711195373203916e-09, -8.75137382382487e-10).transl(-7.518821469371459e-08, 3.294146222143098e-08, 0))
hIsland = hIsland.add(rect(3.790894041384584e-09, 1.4430480402000402e-09).transl(-4.747178526474461e-08, 3.8558946909364776e-08, 0))
hIsland = hIsland.sub(rect(5.256367889972312e-09, -3.304726392775224e-09).transl(-8.814952739015747e-08, 2.824259971606636e-08, 0))
hIsland = hIsland.sub(rect(5.164822406363491e-09, -2.7284150780223187e-09).transl(5.764711602715967e-08, 3.7055053690014476e-08, 0))
hIsland = hIsland.sub(rect(2.651925496813638e-09, -7.227531332517217e-11).transl(1.0153795889907004e-07, 2.0832344580298316e-08, 0))
hIsland = hIsland.sub(rect(3.779237819311565e-09, -1.777170665630045e-09).transl(-1.1186209115563084e-07, 1.0357766101350001e-08, 0))
hIsland = hIsland.add(rect(9.487118457754623e-09, 1.0989025301976748e-09).transl(-4.56979233787871e-09, 4e-08, 0))
hIsland = hIsland.sub(rect(6.420126792551575e-09, -1.900922963675654e-09).transl(9.52481639073145e-09, 4e-08, 0))
hIsland = hIsland.sub(rect(4.242633632199722e-09, -2.4203775697358626e-09).transl(-1.5344410123564544e-09, 4e-08, 0))
hIsland = hIsland.add(rect(6.174588000918638e-09, 3.457928747936202e-09).transl(4.323352245845623e-08, 3.902062991986098e-08, 0))
hIsland = hIsland.sub(rect(5.889076345012132e-09, -2.2959985936562273e-09).transl(7.880941333429623e-08, 3.1799553513295276e-08, 0))
hIsland = hIsland.add(rect(7.55668790316473e-09, 9.410501539816252e-10).transl(4.2118404238413374e-08, 3.9126779103094434e-08, 0))
hIsland = hIsland.sub(rect(7.79633344362665e-09, -1.8030414385259185e-09).transl(8.878203856934229e-08, 2.796407160771126e-08, 0))
hIsland = hIsland.sub(rect(4.209224764755818e-09, -2.3129736565184935e-09).transl(-8.68610964835553e-08, 2.8793510203727887e-08, 0))
hIsland = hIsland.sub(rect(4.725091301976146e-09, -3.957139253196564e-09).transl(-1.5652703114222534e-08, 4e-08, 0))
hIsland = hIsland.sub(rect(8.032377964257979e-09, -4.010860776112102e-09).transl(-3.1556959196280066e-08, 3.9826605391806e-08, 0))
hIsland = hIsland.sub(rect(7.34293759950994e-09, -3.9352303403162205e-09).transl(-4.0896494990449604e-08, 3.9235885610885285e-08, 0))
hIsland = hIsland.add(rect(2.237675016585774e-09, 3.7248392819695877e-10).transl(-1.6156172903746413e-08, 4e-08, 0))
hIsland = hIsland.sub(rect(5.5492497036971466e-09, -9.911712779501647e-10).transl(-1.0141535394701023e-07, 2.0919470518177327e-08, 0))
hIsland = hIsland.sub(rect(2.7897507569078288e-09, -8.985303436486617e-10).transl(1.700861317993827e-08, 4e-08, 0))
hIsland = hIsland.add(rect(6.6392170538379704e-09, 2.5654695112220106e-10).transl(-4.5771950815372336e-08, 3.875529906096424e-08, 0))
hIsland = hIsland.sub(rect(4.06256806552541e-09, -9.227676309094925e-10).transl(2.6575349212177578e-08, 3.996978272163773e-08, 0))
hIsland = hIsland.sub(rect(8.633799722932853e-09, -1.61167878599694e-09).transl(9.484213550793541e-08, 2.4986603464189444e-08, 0))
hIsland = hIsland.add(rect(9.123637683900195e-09, 5.089423704103134e-10).transl(1.7313946336870305e-08, 4e-08, 0))
hIsland = hIsland.add(rect(3.849359775590928e-09, 4.727893097699699e-10).transl(-7.101923575997932e-08, 3.4119087000340025e-08, 0))
hIsland = hIsland.add(rect(4.039744040381944e-09, 3.5054606311496746e-10).transl(5.469968308525873e-09, 4e-08, 0))
hIsland = hIsland.add(rect(6.281766276258397e-09, 3.3237996254979515e-09).transl(-1.075488342055135e-07, 1.5769455739113584e-08, 0))
hIsland = hIsland.add(rect(9.942971139305585e-09, 1.7667842908925755e-09).transl(-5.884048681341845e-09, 4e-08, 0))
hIsland = hIsland.add(rect(4.471282868867129e-09, 1.7988735206076913e-09).transl(1.6733268759921473e-08, 4e-08, 0))
hIsland = hIsland.sub(rect(6.078668323274871e-09, -2.070704124937131e-09).transl(1.1291270864890752e-07, 8.472180912677689e-09, 0))
hIsland = hIsland.sub(rect(6.5227940211405465e-09, -2.930422632262042e-10).transl(-7.919289573078202e-08, 3.1671633021662735e-08, 0))
hIsland = hIsland.sub(rect(4.332933486912213e-09, -3.693331304511953e-10).transl(4.752637440532491e-08, 3.8552389804608344e-08, 0))
hIsland = hIsland.sub(rect(2.2287316512596196e-09, -2.803033503466435e-09).transl(-5.700577008516688e-08, 3.716719390309673e-08, 0))
hIsland = hIsland.add(rect(2.9709464064962737e-09, 3.005743273246322e-09).transl(4.240044267431872e-08, 3.910052679275292e-08, 0))
hIsland = hIsland.add(rect(9.355739445040993e-09, 1.1629052779686162e-09).transl(9.644206837608312e-08, 2.4091282740677255e-08, 0))
hIsland = hIsland.sub(rect(8.386887727632033e-09, -1.134320153683016e-09).transl(-6.675879843661346e-08, 3.518562055760008e-08, 0))
hIsland = hIsland.sub(rect(7.72469653384314e-09, -2.63835256384235e-10).transl(-1.0592262184913645e-07, 1.7325084721790687e-08, 0))
hIsland = hIsland.sub(rect(7.215069509003434e-09, -3.6000583466155347e-09).transl(3.5200529223059096e-08, 3.9646707972517557e-08, 0))
hIsland = hIsland.sub(rect(5.5091408414970045e-09, -2.868779307785248e-09).transl(-6.5597277747942e-08, 3.545404098821572e-08, 0))
hIsland = hIsland.sub(rect(8.115171083357584e-09, -2.668798327550311e-09).transl(3.756025721942966e-08, 3.9495875474891995e-08, 0))
hIsland = hIsland.add(rect(8.867057840272315e-09, 5.298148984803988e-10).transl(-6.95473212242695e-08, 3.4502532404371164e-08, 0))
hIsland = hIsland.sub(rect(3.2458009903677365e-09, -3.1791147929514282e-09).transl(8.366041304674617e-08, 3.007336426135043e-08, 0))
hIsland = hIsland.add(rect(9.31534129400914e-09, 2.90018401612847e-09).transl(6.915917446993728e-08, 3.460096759973866e-08, 0))
hIsland = hIsland.add(rect(9.331738870640594e-09, 7.180139677442576e-11).transl(-4.0454114697241354e-08, 3.927353996553517e-08, 0))
hIsland = hIsland.add(rect(7.595208109307709e-09, 1.5587873538310793e-10).transl(-3.0622713943985755e-08, 3.986246257944401e-08, 0))
hIsland = hIsland.sub(rect(7.692335761046644e-09, -3.97498362522003e-09).transl(1.1156545562639554e-07, 1.0827397071845607e-08, 0))
hIsland = hIsland.add(rect(4.9546655679312214e-09, 2.24516410128061e-09).transl(-3.404454473809747e-08, 3.971071677461773e-08, 0))
hIsland = hIsland.add(rect(9.186294225717852e-09, 5.159317596856643e-09).transl(3.435005025446009e-08, 3.969442914259827e-08, 0))
hIsland = hIsland.sub(rect(2.0072183056118674e-09, -1.8984350165839683e-09).transl(2.147584096323838e-08, 4e-08, 0))
hIsland = hIsland.add(rect(7.67956968536309e-09, 6.145017387864381e-10).transl(1.0824667382896606e-07, 1.5042501860106862e-08, 0))
hIsland = hIsland.sub(rect(8.394297336937483e-09, -1.541039676270103e-09).transl(6.125382255537797e-08, 3.6378198928194506e-08, 0))
hIsland = hIsland.sub(rect(2.058148321754259e-09, -6.245282708754076e-10).transl(-7.711993537487557e-08, 3.2346869419640656e-08, 0))
hIsland = hIsland.add(rect(3.1474614583294998e-09, 1.953499691662112e-09).transl(-1.1251983463905347e-07, 9.225173152677712e-09, 0))
hIsland = hIsland.add(rect(8.01769380628036e-09, 6.080410089569532e-10).transl(4.254621692190836e-08, 3.908680031898397e-08, 0))
hIsland = hIsland.sub(rect(2.479602141906743e-09, -1.3939468849985727e-09).transl(9.625249943398624e-08, 2.420013953729494e-08, 0))
hIsland = hIsland.add(rect(4.0252767277025e-09, 1.5780147414380626e-09).transl(-1.7864310133227556e-08, 4e-08, 0))
hIsland = hIsland.sub(rect(6.59087946209795e-09, -9.127871415710647e-10).transl(-4.604179937085892e-08, 3.8725136499807846e-08, 0))
hIsland = hIsland.sub(rect(3.5717312073480923e-09, -1.989155005846622e-09).transl(-1.0265349069683222e-07, 2.0015690536148826e-08, 0))
hIsland = hIsland.add(rect(3.1960359410047446e-09, 2.7572718784740764e-09).transl(3.4586914557263475e-08, 3.9681490428369285e-08, 0))
hIsland = hIsland.add(rect(7.46871974502967e-09, 2.730004239103204e-09).transl(4.6575738511267375e-09, 4e-08, 0))
hIsland = hIsland.sub(rect(3.133216935484618e-09, -3.1671676777946574e-09).transl(9.036895132347401e-08, 2.72405249567576e-08, 0))
hIsland = hIsland.sub(rect(6.422487231824666e-09, -1.291718274231469e-10).transl(-3.360559834419364e-08, 3.973332962076892e-08, 0))
hIsland = hIsland.add(rect(8.621714256785293e-09, 5.14760713243414e-11).transl(-5.4474148914404554e-08, 3.758639185361524e-08, 0))
hIsland = hIsland.add(rect(4.018160100730571e-09, 2.1799901923832362e-09).transl(-8.957861422361976e-08, 2.7605402501517316e-08, 0))
hIsland = hIsland.sub(rect(5.8802986497358e-09, -1.053420803168126e-09).transl(1.1208878564186564e-07, 9.982861238073135e-09, 0))
hIsland = hIsland.add(rect(8.554314490850303e-09, 7.097940694320593e-10).transl(-9.997686243971025e-08, 2.190615250922996e-08, 0))
hIsland = hIsland.add(rect(4.863308875139085e-09, 4.312779215005215e-09).transl(-6.407606867203362e-08, 3.579176432725714e-08, 0))
hIsland = hIsland.sub(rect(5.453754365778053e-09, -3.145721100906867e-09).transl(7.816264483362422e-09, 4e-08, 0))
hIsland = hIsland.sub(rect(3.4097796674190565e-09, -3.8172434576107986e-10).transl(-4.8331714744255406e-08, 3.845382232548067e-08, 0))
hIsland = hIsland.sub(rect(9.077855917124396e-09, -5.500804700082226e-10).transl(-9.242922791100752e-08, 2.624438840615484e-08, 0))
hIsland = hIsland.add(rect(5.918661744074246e-09, 2.090311332385559e-09).transl(-4.343957701519515e-08, 3.900032400485814e-08, 0))
hIsland = hIsland.sub(rect(4.996590890779844e-09, -2.697810475525335e-09).transl(-2.20270929097608e-09, 4e-08, 0))
hIsland = hIsland.sub(rect(3.6268796327321527e-09, -3.95220510269079e-09).transl(5.6543635355557835e-08, 3.724649544451877e-08, 0))
hIsland = hIsland.add(rect(6.782988670071494e-09, 3.7985026745243725e-09).transl(-8.053925800129544e-08, 3.121131643889503e-08, 0))
hIsland = hIsland.sub(rect(4.923004312211137e-09, -2.528387102619289e-09).transl(9.420204234151067e-08, 2.5330589882947758e-08, 0))
hIsland = hIsland.sub(rect(8.216830023286185e-09, -3.850812689439095e-09).transl(-9.78005623163379e-08, 2.3287777517266343e-08, 0))
hIsland = hIsland.sub(rect(6.9134118478763116e-09, -5.876119037070821e-10).transl(-3.121201390045661e-08, 3.9840330725359123e-08, 0))
hIsland = hIsland.add(rect(3.994573297858425e-09, 9.97124209198069e-10).transl(-7.950145613797347e-08, 3.1567689010577826e-08, 0))
hIsland = hIsland.add(rect(2.01919842950855e-09, 1.2446860843915738e-10).transl(9.811435528705805e-08, 2.3096058264050407e-08, 0))
hIsland = hIsland.sub(rect(4.292894127351976e-09, -1.1868657614635462e-09).transl(-1.0857939116059e-07, 1.4681030857159586e-08, 0))
hIsland = hIsland.add(rect(3.773590915470153e-09, 3.878339857783718e-09).transl(-3.77484299039852e-08, 3.9482675043794134e-08, 0))
hIsland = hIsland.sub(rect(9.287420195734715e-09, -1.7992849987155407e-09).transl(8.41242226247444e-08, 2.9895310114265536e-08, 0))
hIsland = hIsland.add(rect(6.617220539607626e-09, 4.942280934238763e-10).transl(9.925190745150459e-08, 2.2380312244980672e-08, 0))
hIsland = hIsland.sub(rect(6.179826175243986e-09, -1.1088155044252913e-09).transl(1.2575187254848294e-08, 4e-08, 0))
hIsland = hIsland.sub(rect(7.803962358499605e-09, -1.6909874060582596e-09).transl(1.244986373685097e-08, 4e-08, 0))
hIsland = hIsland.add(rect(3.335334639691108e-09, 1.9482025669963306e-10).transl(9.269577537321442e-10, 4e-08, 0))
hIsland = hIsland.add(rect(8.108626107365478e-09, 2.3749902755957698e-09).transl(1.986680966543215e-08, 4e-08, 0))
hIsland = hIsland.sub(rect(8.23186886151743e-09, -2.8157971992063405e-10).transl(1.0393177582294665e-07, 1.902166540181641e-08, 0))
hIsland = hIsland.sub(rect(5.572192263930341e-09, -2.2643076740165407e-09).transl(-7.977838527925044e-08, 3.147362134041715e-08, 0))
hIsland = hIsland.sub(rect(9.403878546912245e-09, -2.6434968841536423e-09).transl(6.327941297221415e-08, 3.596251169972818e-08, 0))
hIsland = hIsland.add(rect(7.486627555198914e-09, 5.871400633261049e-10).transl(4.48565435891607e-08, 3.885480583105788e-08, 0))
hIsland = hIsland.add(rect(3.903517725914192e-09, 3.929177620212751e-10).transl(1.0114365595446461e-08, 4e-08, 0))
hIsland = hIsland.sub(rect(8.106857214459566e-09, -9.977506878435304e-10).transl(1.0301052459135289e-07, 1.974466477968419e-08, 0))
hIsland = hIsland.sub(rect(7.608533939209067e-09, -1.3012097987547638e-09).transl(5.606513678927751e-08, 3.732728779083378e-08, 0))
hIsland = hIsland.add(rect(5.457658549476787e-09, 3.734720758292249e-10).transl(-1.0173841928865536e-07, 2.0688806540099615e-08, 0))
hIsland = hIsland.add(rect(8.107281792879793e-09, 7.480059649998208e-10).transl(3.80660455193092e-08, 3.9459999301558996e-08, 0))
hIsland = hIsland.sub(rect(4.358101258863802e-09, -1.5810039737955345e-09).transl(6.18398355434365e-08, 3.6260627605695724e-08, 0))
hIsland = hIsland.sub(rect(2.1402403009598345e-09, -8.542233418752603e-10).transl(-9.176944506672354e-08, 2.657074383992616e-08, 0))
hIsland = hIsland.sub(rect(4.576348628991823e-09, -2.1741544992195867e-09).transl(2.496842110298754e-08, 3.999084327698066e-08, 0))
hIsland = hIsland.add(rect(7.560744039261011e-09, 1.6515903401601584e-09).transl(-8.666627918674805e-08, 2.8874950042968767e-08, 0))
hIsland = hIsland.add(rect(4.798344477865366e-09, 1.7036434725549476e-09).transl(-4.948942112311692e-08, 3.830607647622372e-08, 0))
hIsland = hIsland.sub(rect(9.776722913508724e-09, -3.454706562002216e-09).transl(-4.555285560136761e-08, 3.87795102686648e-08, 0))
hIsland = hIsland.sub(rect(6.268438440200148e-09, -3.1014855489953896e-09).transl(7.662742345059314e-08, 3.250156155635111e-08, 0))
hIsland = hIsland.sub(rect(8.468945454096421e-09, -4.1820011004106896e-09).transl(-4.658657348274796e-08, 3.8663087302032174e-08, 0))
hIsland = hIsland.sub(rect(8.232384539443622e-09, -3.4500056468278764e-10).transl(-7.653090458930796e-08, 3.253162560100453e-08, 0))
hIsland = hIsland.sub(rect(8.75229141198386e-09, -9.08417639854695e-10).transl(-3.936455693572043e-08, 3.936211913427122e-08, 0))
hIsland = hIsland.add(rect(8.586269586486112e-09, 9.882496007767207e-11).transl(6.343323090939559e-08, 3.592986719907014e-08, 0))
hIsland = hIsland.sub(rect(5.264667425180841e-09, -3.866143404335723e-10).transl(-3.924663353802584e-08, 3.9371352319847875e-08, 0))
hIsland = hIsland.sub(rect(9.585415270527144e-09, -1.029357312338383e-09).transl(5.3358666691093336e-08, 3.775943992873039e-08, 0))
hIsland = hIsland.add(rect(8.580602571378098e-09, 6.396337029789294e-12).transl(4.380838577487086e-08, 3.896343853930345e-08, 0))
hIsland = hIsland.sub(rect(4.612979492958287e-09, -2.3283482840155474e-09).transl(-8.598395903399906e-08, 2.9156448165740267e-08, 0))
hIsland = hIsland.sub(rect(2.0912994372543716e-09, -4.3080436767471566e-10).transl(-4.9683181197615067e-08, 3.828064667015074e-08, 0))
hIsland = hIsland.sub(rect(7.81419120058214e-09, -2.924505250510638e-09).transl(7.198496322830989e-08, 3.3858577716372536e-08, 0))
hIsland = hIsland.sub(rect(9.613073851962446e-09, -1.9767231875256093e-09).transl(-6.21152504269357e-08, 3.6204620077291806e-08, 0))
hIsland = hIsland.add(rect(8.236304897310213e-09, 3.312024210780147e-10).transl(-1.3516230775285538e-08, 4e-08, 0))
hIsland = hIsland.sub(rect(8.267238446830156e-09, -1.8169955858817488e-09).transl(-7.921504851906125e-08, 3.1664200772890726e-08, 0))
hIsland = hIsland.add(rect(5.896577742258425e-09, 1.7885587653383647e-09).transl(-1.5250841146232987e-08, 4e-08, 0))
hIsland = hIsland.sub(rect(7.003653534165822e-09, -1.1656503319862003e-09).transl(6.078574038186202e-08, 3.647055892105422e-08, 0))
hIsland = hIsland.sub(rect(6.85528809930021e-09, -4.3356568639759133e-10).transl(1.007394241782329e-08, 4e-08, 0))
hIsland = hIsland.add(rect(8.031649557054744e-09, 1.7339561558766214e-09).transl(-5.999940283397708e-08, 3.662264577213715e-08, 0))
hIsland = hIsland.add(rect(4.2159394470488934e-09, 1.600852096839106e-09).transl(-1.1047822006792864e-07, 1.2386047807611912e-08, 0))
hIsland = hIsland.add(rect(4.385616854612317e-09, 7.428007332688678e-10).transl(-6.715784875169873e-08, 3.509125126892093e-08, 0))
hIsland = hIsland.sub(rect(2.3395485023260987e-09, -9.77960679776498e-10).transl(-7.631544307415228e-09, 4e-08, 0))
hIsland = hIsland.add(rect(4.210658757475458e-09, 2.9220044149300904e-09).transl(-1.1133485159249264e-07, 1.1177837190593474e-08, 0))
hIsland = hIsland.sub(rect(9.181191018762285e-09, -1.928902195623436e-09).transl(1.0933494738462097e-07, 1.38195011666224e-08, 0))
hIsland = hIsland.sub(rect(4.947969253067457e-09, -1.5548575473164302e-09).transl(7.139403195477373e-08, 3.4018836301110124e-08, 0))
hIsland = hIsland.sub(rect(7.488109427399735e-09, -1.9309076198038677e-09).transl(-8.959215799654398e-08, 2.759922635748726e-08, 0))
vIsland = hIsland.rotz(pi / 2)
hIslands = hIslands.add(hIsland.transl(-a/2, a, 0))
hIsland = rect(islandLength-2*ellipseConstant, islandWidth)
hIsland = hIsland.add(ellipse(ellipseConstant*2, islandWidth).transl(islandLength/2-ellipseConstant, 0, 0))
hIsland = hIsland.add(ellipse(ellipseConstant*2, islandWidth).transl(-islandLength/2+ellipseConstant, 0, 0))
hIsland = hIsland.sub(rect(9.695993055034448e-09, -1.1555529216363607e-09).transl(3.4432328284971026e-08, -3.9689965471959544e-08, 0))
hIsland = hIsland.sub(rect(6.614568943328288e-09, -1.54358841646028e-09).transl(-6.148728895486003e-08, -3.633161847121878e-08, 0))
hIsland = hIsland.sub(rect(2.256437272476653e-09, -1.1608229817245659e-09).transl(7.731725027340409e-08, -3.2284288706794585e-08, 0))
hIsland = hIsland.sub(rect(8.044223451184643e-09, -1.646141270919905e-09).transl(-1.1082409705465724e-07, -1.1914376127732043e-08, 0))
hIsland = hIsland.add(rect(9.25858172880482e-09, 4.0983607268380894e-11).transl(-2.7756348947044925e-08, -3.994650757958747e-08, 0))
hIsland = hIsland.add(rect(2.657898736518839e-09, 1.571014150619574e-09).transl(2.2984893029291775e-08, -4e-08, 0))
hIsland = hIsland.add(rect(2.8076320589244868e-09, 1.6600444920700235e-09).transl(-3.8562388234334195e-08, -3.942356887790186e-08, 0))
hIsland = hIsland.sub(rect(4.375206568342375e-09, -2.6148880068820236e-09).transl(8.88184845771651e-08, -2.794785546914624e-08, 0))
hIsland = hIsland.add(rect(4.645027187037593e-09, 2.1322655415592193e-10).transl(4.3377961974387816e-08, -3.900641861235493e-08, 0))
hIsland = hIsland.sub(rect(7.398566223915529e-09, -1.8309334371030826e-09).transl(1.0096022889030146e-07, -2.1238597347107305e-08, 0))
hIsland = hIsland.sub(rect(5.336186557689922e-09, -1.7170536233619157e-09).transl(-8.280052379375924e-08, -3.0397173514234e-08, 0))
hIsland = hIsland.add(rect(7.299260222304135e-09, 2.123118666305519e-09).transl(7.459235377844942e-08, -3.311841911402697e-08, 0))
hIsland = hIsland.sub(rect(3.0597587809440026e-09, -1.8762483999852455e-09).transl(6.986254502793836e-08, -3.4421774754100254e-08, 0))
hIsland = hIsland.sub(rect(6.849473407208769e-09, -3.0655940584670985e-09).transl(-1.4625451876708027e-08, -4e-08, 0))
hIsland = hIsland.add(rect(7.984717786891266e-09, 2.6922552745121348e-09).transl(-6.539041585216081e-08, -3.550087898983918e-08, 0))
hIsland = hIsland.sub(rect(2.8568536846575645e-09, -5.445553158814332e-10).transl(9.640282755158272e-08, -2.4113879583148536e-08, 0))
hIsland = hIsland.sub(rect(6.177909827976481e-09, -1.3239311645067383e-09).transl(-4.0517519624649934e-08, -3.9268203143378504e-08, 0))
hIsland = hIsland.sub(rect(7.06095677993721e-09, -4.08927058841387e-09).transl(9.725589440905063e-09, -4e-08, 0))
hIsland = hIsland.sub(rect(4.5978648397380395e-09, -4.167627890222128e-10).transl(1.0342304396534302e-07, -1.9425267582990843e-08, 0))
hIsland = hIsland.add(rect(4.110893406020579e-09, 2.269579268716009e-09).transl(5.034195615828088e-09, -4e-08, 0))
hIsland = hIsland.add(rect(2.339470336171097e-09, 1.2222142597202428e-09).transl(-1.1251148429058674e-07, -9.240477447546183e-09, 0))
hIsland = hIsland.add(rect(7.806570721796767e-09, 3.640192061222927e-09).transl(3.368154968705352e-08, -3.972948340778344e-08, 0))
hIsland = hIsland.add(rect(5.310271980750086e-09, 7.27373273537966e-11).transl(-1.0667928589441466e-07, -1.662312776217244e-08, 0))
hIsland = hIsland.sub(rect(2.0328038174347507e-09, -1.7183173151386984e-09).transl(4.735288717031977e-08, -3.8573174235460356e-08, 0))
hIsland = hIsland.sub(rect(9.982479475547089e-09, -3.4140401083878024e-11).transl(7.239274726273492e-08, -3.37464036250625e-08, 0))
hIsland = hIsland.add(rect(6.734197069805938e-09, 1.5017731590600756e-10).transl(-7.427070589769856e-08, -3.321270942634588e-08, 0))
hIsland = hIsland.sub(rect(7.84566104329228e-09, -9.698325211031217e-10).transl(4.940603069026588e-08, -3.8316958747193986e-08, 0))
hIsland = hIsland.sub(rect(5.930990982764809e-09, -9.28833937705803e-10).transl(-1.1162926489564293e-08, -4e-08, 0))
hIsland = hIsland.add(rect(4.2864416128657485e-09, 2.1504913445777232e-09).transl(7.121536728073965e-08, -3.4066759649845427e-08, 0))
hIsland = hIsland.add(rect(2.8416995988078463e-09, 1.1936521503860396e-09).transl(-1.130720802316875e-07, -8.145885838498293e-09, 0))
hIsland = hIsland.add(rect(4.966449601345382e-09, 3.46641299261898e-09).transl(-2.5359359837110738e-08, -3.998684429490808e-08, 0))
hIsland = hIsland.add(rect(3.942442269383309e-09, 5.020404677295027e-10).transl(-8.529779426963028e-10, -4e-08, 0))
hIsland = hIsland.add(rect(6.5977156635904824e-09, 1.001248870165263e-09).transl(-2.0368266905080393e-08, -4e-08, 0))
hIsland = hIsland.add(rect(9.466623828600377e-09, 2.4408489082207157e-09).transl(6.112747763624745e-09, -4e-08, 0))
hIsland = hIsland.sub(rect(4.1089921439049384e-09, -1.085055511403171e-09).transl(-3.694654721508728e-08, -3.9537720547379474e-08, 0))
hIsland = hIsland.add(rect(6.060161268764088e-09, 2.287366951414973e-09).transl(1.1363836526817233e-07, -6.856436843142549e-09, 0))
hIsland = hIsland.add(rect(7.0942281871011545e-09, 5.896961011994582e-10).transl(6.268392511175697e-08, -3.608744391426877e-08, 0))
hIsland = hIsland.sub(rect(6.648020087772265e-09, -5.0022099212567e-09).transl(-8.471907567716148e-08, -2.966337827827952e-08, 0))
hIsland = hIsland.sub(rect(5.2599360449044565e-09, -2.5694348374239486e-09).transl(4.6283762707573396e-08, -3.869776836953418e-08, 0))
hIsland = hIsland.sub(rect(5.978985360938979e-09, -1.948757169895783e-09).transl(2.7885741587082085e-09, -4e-08, 0))
hIsland = hIsland.add(rect(4.408235268165151e-09, 2.2976611255590076e-10).transl(1.8953327534880255e-08, -4e-08, 0))
hIsland = hIsland.sub(rect(3.7079891139933994e-09, -3.661469717179052e-09).transl(4.766278620446061e-08, -3.85359355935047e-08, 0))
hIsland = hIsland.add(rect(7.359437268053465e-09, 7.81896065224214e-10).transl(-1.0980753154834498e-07, -1.3248051299316362e-08, 0))
hIsland = hIsland.sub(rect(9.866183740459822e-09, -1.9294796712788632e-10).transl(6.775332518711005e-08, -3.494835478006139e-08, 0))
hIsland = hIsland.add(rect(9.284792372594744e-09, 2.4460894594963366e-09).transl(4.3126209454693244e-08, -3.903111960155404e-08, 0))
hIsland = hIsland.add(rect(6.970273601466978e-09, 7.786122809299178e-10).transl(4.013909409990347e-08, -3.929975794052992e-08, 0))
hIsland = hIsland.sub(rect(8.129753174009202e-09, -2.9107877488862453e-09).transl(-2.1743666952416795e-08, -4e-08, 0))
hIsland = hIsland.add(rect(7.426380727276598e-09, 1.1067504590038379e-09).transl(-9.291896293247714e-08, -2.599745015287476e-08, 0))
hIsland = hIsland.add(rect(3.758330770798662e-09, 2.6938710409714266e-10).transl(-4.278612190433642e-08, -3.90639758821055e-08, 0))
hIsland = hIsland.sub(rect(6.908028602690649e-09, -1.1824953702750544e-09).transl(-6.057648567399482e-08, -3.65114056923555e-08, 0))
hIsland = hIsland.sub(rect(2.3530422057890395e-09, -3.511502493355497e-09).transl(-3.8134557228751145e-09, -4e-08, 0))
hIsland = hIsland.add(rect(4.238835878206952e-09, 7.637868166330093e-10).transl(5.405964301788184e-08, -3.765151765569706e-08, 0))
hIsland = hIsland.sub(rect(6.1865190660404416e-09, -1.30333776919474e-09).transl(-2.638221912172314e-08, -3.997296012760939e-08, 0))
hIsland = hIsland.add(rect(8.591218334945609e-09, 3.9778502278447e-09).transl(6.537077513136371e-08, -3.5505311018804544e-08, 0))
hIsland = hIsland.add(rect(9.474850099835838e-09, 1.799977841843039e-09).transl(6.154084959296469e-08, -3.6320883796312956e-08, 0))
hIsland = hIsland.sub(rect(3.0320383025911454e-09, -1.4284482894921855e-09).transl(1.1408443810549896e-07, -5.629135908694163e-09, 0))
hIsland = hIsland.add(rect(5.393372691523637e-09, 1.1360440378752934e-10).transl(4.729568000781587e-08, -3.8579993083768594e-08, 0))
hIsland = hIsland.sub(rect(9.156955036780987e-09, -8.309205496487764e-10).transl(-5.810911124308386e-08, -3.6972759368174433e-08, 0))
hIsland = hIsland.sub(rect(8.313310457181751e-09, -2.1172829564034024e-10).transl(6.71342146180782e-08, -3.509687134318981e-08, 0))
hIsland = hIsland.add(rect(5.958007257901779e-09, 7.748005154711929e-10).transl(1.069354821243412e-08, -4e-08, 0))
hIsland = hIsland.sub(rect(8.034011211140678e-09, -1.4734351567236068e-09).transl(9.739014572536624e-09, -4e-08, 0))
hIsland = hIsland.add(rect(9.674433605700167e-09, 3.015089745206278e-09).transl(4.9562787795133253e-08, -3.829647134275395e-08, 0))
hIsland = hIsland.sub(rect(2.6106372324879817e-09, -2.309158719771523e-09).transl(2.0459698752351845e-09, -4e-08, 0))
hIsland = hIsland.add(rect(3.777855489486041e-09, 1.3809625856167523e-09).transl(9.033468513722438e-08, -2.7256535878649935e-08, 0))
hIsland = hIsland.add(rect(9.490494467548311e-09, 9.81680854344807e-11).transl(-7.450598304480601e-08, -3.314382278448018e-08, 0))
hIsland = hIsland.add(rect(5.7919515460978765e-09, 4.222371254231703e-09).transl(-1.0539459961453004e-07, -1.779493542338271e-08, 0))
hIsland = hIsland.add(rect(9.00053837446383e-09, 3.2961153426336855e-09).transl(-1.0643315063120382e-08, -4e-08, 0))
hIsland = hIsland.add(rect(2.938336302061041e-09, 1.0376198741783503e-09).transl(3.2309900858773946e-08, -3.9794666136682424e-08, 0))
hIsland = hIsland.sub(rect(4.120652792140436e-09, -9.419971759164307e-10).transl(2.4891331304459684e-08, -3.999154652142366e-08, 0))
hIsland = hIsland.sub(rect(6.809482868602604e-09, -1.4443376404708153e-10).transl(-6.663393593329477e-08, -3.521492110222782e-08, 0))
hIsland = hIsland.sub(rect(3.681761092803788e-09, -5.616494840130545e-10).transl(6.250115541409439e-08, -3.6125329835953594e-08, 0))
hIsland = hIsland.add(rect(8.53447121795509e-09, 9.213212429515088e-10).transl(-2.551567856367897e-08, -3.9985042953500016e-08, 0))
hIsland = hIsland.sub(rect(9.640727691025594e-09, -6.878537591168746e-10).transl(1.3084071735634992e-08, -4e-08, 0))
hIsland = hIsland.add(rect(5.8502188484894984e-09, 8.934617447260083e-10).transl(-7.666710623824968e-08, -3.248917722373585e-08, 0))
hIsland = hIsland.add(rect(4.273596878803877e-09, 1.951221432483372e-09).transl(1.631503952153005e-08, -4e-08, 0))
hIsland = hIsland.add(rect(3.54654425897124e-09, 3.6729459158751173e-09).transl(2.0761700625388335e-08, -4e-08, 0))
hIsland = hIsland.add(rect(4.4693951293994345e-09, 9.673781631966558e-11).transl(-4.95575084469394e-08, -3.8297163480354156e-08, 0))
hIsland = hIsland.sub(rect(3.2700274599128875e-09, -5.307046144456823e-10).transl(-7.7500508998599e-08, -3.222585266724716e-08, 0))
hIsland = hIsland.add(rect(5.747485711797568e-09, 2.9018751969110633e-10).transl(-7.286291748984881e-08, -3.3615442990508327e-08, 0))
hIsland = hIsland.sub(rect(2.891894583358779e-09, -1.1163388067431601e-09).transl(-1.0003647636715894e-07, -2.1866502114695385e-08, 0))
hIsland = hIsland.sub(rect(3.4691560761730096e-09, -1.5501264330549593e-09).transl(-3.1045255679876074e-08, -3.984676191336293e-08, 0))
hIsland = hIsland.add(rect(3.758376143753272e-09, 9.787266935769229e-10).transl(-1.1806952034799666e-08, -4e-08, 0))
hIsland = hIsland.add(rect(8.54974486294095e-09, 8.002227704830964e-11).transl(-5.0588848780036143e-08, -3.815909245579071e-08, 0))
hIsland = hIsland.sub(rect(4.37127064690036e-09, -4.386451133085278e-09).transl(-8.332703676465567e-08, -3.019986553130432e-08, 0))
hIsland = hIsland.sub(rect(4.339621852713172e-09, -1.348214340635753e-09).transl(3.9859392115432676e-08, -3.932262199626652e-08, 0))
hIsland = hIsland.sub(rect(5.794441300389664e-09, -9.513191953124503e-10).transl(2.86886880022056e-08, -3.992345897257985e-08, 0))
hIsland = hIsland.sub(rect(3.978005552763416e-09, -1.6362877156274332e-09).transl(-1.1167747453715314e-07, -1.0652666445690018e-08, 0))
hIsland = hIsland.add(rect(7.497281819001144e-09, 6.006285187922283e-10).transl(3.300579129399641e-08, -3.9762727606718383e-08, 0))
hIsland = hIsland.add(rect(6.745186137515382e-09, 6.267727119568554e-10).transl(-1.1201119542013157e-07, -1.0112851785905676e-08, 0))
hIsland = hIsland.add(rect(7.0017045609116965e-09, 3.606688320302187e-09).transl(-7.433481331454613e-08, -3.3193984873024875e-08, 0))
hIsland = hIsland.add(rect(3.380735842618578e-09, 3.741650246746673e-09).transl(-1.1447974823133759e-07, -4.2478875775685575e-09, 0))
hIsland = hIsland.sub(rect(6.297771333570961e-09, -1.1590998261848335e-09).transl(4.627772036440387e-08, -3.8698455527756725e-08, 0))
hIsland = hIsland.add(rect(9.910765327120243e-09, 4.355188928810349e-09).transl(5.68526548255321e-11, -4e-08, 0))
hIsland = hIsland.add(rect(6.055998113943852e-09, 4.0027192292081934e-09).transl(9.971218667489399e-08, -2.2080966388831166e-08, 0))
hIsland = hIsland.add(rect(4.553267409886901e-09, 1.6535440224094687e-09).transl(-6.817188953846597e-08, -3.484640995122148e-08, 0))
hIsland = hIsland.sub(rect(4.094265974453584e-09, -2.5988040554215566e-10).transl(-1.0931359342054801e-07, -1.3844693460649274e-08, 0))
hIsland = hIsland.sub(rect(9.989403098501571e-09, -5.883159071683053e-10).transl(1.4925869443905654e-08, -4e-08, 0))
hIsland = hIsland.add(rect(2.849480541778979e-09, 1.3757972567318366e-09).transl(4.447404435003513e-08, -3.8895102541953753e-08, 0))
hIsland = hIsland.sub(rect(5.4702934836626895e-09, -4.311610910368137e-10).transl(-9.872610396104992e-08, -2.2715288768441794e-08, 0))
hIsland = hIsland.sub(rect(5.132599941093129e-09, -7.820115573969994e-10).transl(7.875484931698887e-08, -3.1817641958801726e-08, 0))
hIsland = hIsland.sub(rect(2.1517325064374185e-09, -1.7649880193218504e-09).transl(-4.6570326854830565e-08, -3.8664960207115884e-08, 0))
hIsland = hIsland.sub(rect(7.39406821640502e-09, -8.975749977654948e-10).transl(-1.8260671839037583e-08, -4e-08, 0))
hIsland = hIsland.add(rect(6.760949056802904e-09, 2.1236500672272046e-10).transl(1.527288272600793e-08, -4e-08, 0))
hIsland = hIsland.add(rect(6.704284301633446e-09, 5.483588546504844e-10).transl(4.383250284119709e-08, -3.896100232718174e-08, 0))
hIsland = hIsland.sub(rect(6.545049767897637e-09, -6.088999740173618e-10).transl(-1.0822166217876391e-07, -1.5069268515410274e-08, 0))
hIsland = hIsland.sub(rect(4.800345419018521e-09, -1.922016116063002e-11).transl(1.025881848538249e-07, -2.0064738473126704e-08, 0))
hIsland = hIsland.add(rect(9.663942237101442e-09, 2.035185186158707e-09).transl(6.9274952495223e-08, -3.457172148695819e-08, 0))
hIsland = hIsland.sub(rect(4.969065319081103e-09, -2.1051623964467933e-09).transl(-8.223612477158552e-08, -3.0605365190738064e-08, 0))
hIsland = hIsland.add(rect(4.159987866970775e-09, 6.541496203959451e-12).transl(5.094070039121453e-08, -3.811066678512563e-08, 0))
hIsland = hIsland.sub(rect(7.332159375153055e-09, -1.0695566844267264e-09).transl(-4.808393649838576e-08, -3.848451467170924e-08, 0))
hIsland = hIsland.add(rect(7.045394735313038e-09, 3.219234912409155e-09).transl(-3.259375110013265e-08, -3.97819195469621e-08, 0))
hIsland = hIsland.sub(rect(5.536125532908104e-09, -2.0175704567735926e-10).transl(8.221257546671485e-08, -3.0613978381204834e-08, 0))
hIsland = hIsland.add(rect(9.638510976038302e-09, 3.318205145278644e-09).transl(-1.2041876579278828e-08, -4e-08, 0))
hIsland = hIsland.add(rect(4.722284556878912e-09, 2.400507746647547e-09).transl(-9.684290205085946e-08, -2.385853794820486e-08, 0))
hIsland = hIsland.sub(rect(9.350884831090917e-09, -4.190027045352381e-10).transl(-4.200929848533512e-08, -3.913682694431753e-08, 0))
hIsland = hIsland.add(rect(4.603868409925247e-09, 1.0596985842384526e-09).transl(5.6983512524856587e-08, -3.7171042036280515e-08, 0))
hIsland = hIsland.sub(rect(7.958920325386083e-09, -7.242105360557076e-10).transl(1.1414746692896715e-07, -5.432856570590196e-09, 0))
hIsland = hIsland.add(rect(8.823482960003929e-09, 2.3795486775160793e-10).transl(-3.660266655605862e-08, -3.9560361533277317e-08, 0))
hIsland = hIsland.sub(rect(4.748200831771833e-09, -6.454661921828829e-10).transl(-1.0575122419482376e-07, -1.747931477602376e-08, 0))
hIsland = hIsland.add(rect(2.4562112480016244e-09, 7.051136486412876e-10).transl(1.0865020975432583e-07, -1.4602752213856124e-08, 0))
hIsland = hIsland.sub(rect(9.978442018802654e-09, -1.2444966523711303e-09).transl(8.287101475595345e-08, -3.0370931755045674e-08, 0))
hIsland = hIsland.add(rect(7.782295704609939e-09, 6.987390286931382e-10).transl(-3.3478745427040216e-08, -3.9739691496075646e-08, 0))
hIsland = hIsland.sub(rect(3.2542942895877078e-09, -8.433016866883838e-10).transl(-7.209504066212825e-08, -3.38284255992278e-08, 0))
hIsland = hIsland.sub(rect(9.959585393178557e-09, -4.677952590816098e-09).transl(-1.0804060017325605e-07, -1.5261404190885628e-08, 0))
hIsland = hIsland.add(rect(3.2124064662941017e-09, 3.940269505672849e-09).transl(1.0974036504621446e-07, -1.3330955714951552e-08, 0))
hIsland = hIsland.sub(rect(3.379203195780539e-09, -2.0750204219136207e-09).transl(-9.4816260403217e-08, -2.5000660640410325e-08, 0))
hIsland = hIsland.add(rect(6.196220643100296e-09, 2.613898879349418e-09).transl(7.796313443530572e-08, -3.207698046004522e-08, 0))
hIsland = hIsland.sub(rect(7.445257934412325e-09, -6.019144226871956e-10).transl(1.0129186474211022e-07, -2.1006722819851728e-08, 0))
hIsland = hIsland.add(rect(7.662174513053011e-09, 1.0921187101825066e-09).transl(5.719901807357243e-08, -3.713366028858287e-08, 0))
hIsland = hIsland.sub(rect(5.824495029691843e-09, -1.3459340177611321e-09).transl(-1.09434467376543e-07, -1.3701398720791634e-08, 0))
hIsland = hIsland.add(rect(2.914495174510311e-09, 2.9306838234696985e-09).transl(-9.93891327627833e-08, -2.229167533781849e-08, 0))
hIsland = hIsland.add(rect(8.86332953723584e-09, 3.0970904771257543e-09).transl(8.090317514629444e-08, -3.1083831730995175e-08, 0))
hIsland = hIsland.sub(rect(4.852108054091836e-09, -3.0987855397195346e-10).transl(4.9972180733670806e-09, -4e-08, 0))
hIsland = hIsland.add(rect(4.2947677700004655e-09, 3.3101796256668624e-09).transl(-1.5446913815257877e-08, -4e-08, 0))
hIsland = hIsland.sub(rect(3.4053015380916886e-09, -3.024507522580216e-10).transl(2.870506670567688e-08, -3.9923017163171946e-08, 0))
hIsland = hIsland.add(rect(4.3801418497831305e-09, 6.414745383746734e-10).transl(3.052470110333526e-08, -3.98659826594514e-08, 0))
hIsland = hIsland.sub(rect(7.540353934494195e-09, -2.9081281617895404e-09).transl(-5.734709627231176e-08, -3.7107815576687474e-08, 0))
hIsland = hIsland.sub(rect(8.458055838740948e-09, -2.4124430752823016e-09).transl(-3.988791856342335e-09, -4e-08, 0))
hIsland = hIsland.add(rect(2.8769777431420096e-09, 9.871187417281048e-10).transl(-8.350684161563302e-08, -3.0131790287912925e-08, 0))
hIsland = hIsland.add(rect(9.657288977079248e-09, 3.591712166728772e-09).transl(-3.9556922260939415e-08, -3.9346909250056424e-08, 0))
hIsland = hIsland.sub(rect(8.96412337700073e-09, -6.914377363995903e-10).transl(-4.939436163303232e-08, -3.831847855127892e-08, 0))
hIsland = hIsland.sub(rect(5.945454349842196e-09, -3.496818292278582e-10).transl(-1.0495847897666233e-07, -1.817166474460087e-08, 0))
hIsland = hIsland.add(rect(2.287337259868486e-09, 1.852651329367225e-09).transl(-9.884506186136304e-09, -4e-08, 0))
hIsland = hIsland.add(rect(5.7445370281870595e-09, 1.157441826779687e-09).transl(1.053601183043766e-07, -1.7825084345553728e-08, 0))
hIsland = hIsland.sub(rect(5.721131962895317e-09, -1.4137876246103996e-09).transl(-1.590012172971955e-08, -4e-08, 0))
hIsland = hIsland.sub(rect(5.261718945085247e-09, -1.259476329358168e-09).transl(4.603035836445882e-08, -3.872642302099266e-08, 0))
hIsland = hIsland.add(rect(2.783246412730376e-09, 1.6352803063448236e-09).transl(-7.60810010029957e-09, -4e-08, 0))
hIsland = hIsland.add(rect(6.383937143638528e-09, 1.2361827448522437e-09).transl(2.7804593007808144e-08, -3.9945416174468364e-08, 0))
hIsland = hIsland.sub(rect(8.519854979641723e-09, -3.176602360225658e-09).transl(3.20160513437718e-08, -3.9807454389651825e-08, 0))
hIsland = hIsland.add(rect(2.570241943701114e-09, 7.428915686125971e-10).transl(8.543995748654923e-10, -4e-08, 0))
hIsland = hIsland.sub(rect(3.667248297186161e-09, -2.523341355407436e-09).transl(-6.050573899352571e-08, -3.652515393598183e-08, 0))
hIsland = hIsland.sub(rect(4.129581226498611e-09, -1.0899658472462587e-09).transl(1.0891468832114195e-07, -1.4306041466281947e-08, 0))
hIsland = hIsland.add(rect(6.272298217069817e-09, 2.588735145407523e-09).transl(-1.113033214926228e-07, -1.1224832494575853e-08, 0))
hIsland = hIsland.add(rect(9.698971805836824e-09, 3.666355749841499e-10).transl(1.9005783173459045e-08, -4e-08, 0))
hIsland = hIsland.add(rect(5.5537779554012685e-09, 2.8716736300849255e-09).transl(-3.695513052883348e-08, -3.953714802673006e-08, 0))
hIsland = hIsland.add(rect(4.528256224937148e-09, 2.3611540501017626e-09).transl(4.6328024170367784e-08, -3.8692728976803266e-08, 0))
hIsland = hIsland.sub(rect(9.137692219003494e-09, -1.543567708097436e-09).transl(-1.5427281445448522e-08, -4e-08, 0))
hIsland = hIsland.add(rect(5.3558785255034145e-09, 3.0235321799777315e-09).transl(4.570222526989783e-08, -3.876303114701072e-08, 0))
hIsland = hIsland.sub(rect(3.73321405314891e-09, -9.597866352297491e-11).transl(-9.862391996146418e-08, -2.277954978494804e-08, 0))
hIsland = hIsland.sub(rect(5.1008399714034695e-09, -1.7895734580992866e-09).transl(-1.0068697112937001e-07, -2.1427040301809208e-08, 0))
hIsland = hIsland.add(rect(8.928831958368228e-09, 4.8191994548417e-10).transl(-9.531318662519194e-08, -2.4728403879606202e-08, 0))
hIsland = hIsland.add(rect(7.021908013028664e-09, 1.438900454376448e-09).transl(4.5485394495965835e-09, -4e-08, 0))
hIsland = hIsland.add(rect(9.743088341019301e-09, 4.720188127367526e-09).transl(-7.914552914372863e-08, -3.1687508816032065e-08, 0))
hIsland = hIsland.add(rect(7.045550611237578e-09, 2.657436199588111e-09).transl(-2.903746970878353e-08, -3.9913775117656066e-08, 0))
hIsland = hIsland.add(rect(5.522995401026491e-09, 2.873335177598146e-10).transl(2.7650365955438037e-08, -3.994886641071359e-08, 0))
hIsland = hIsland.sub(rect(5.8290551061350115e-09, -5.380198217403683e-10).transl(-4.575320476468342e-08, -3.8757380351953733e-08, 0))
hIsland = hIsland.sub(rect(7.157807905819e-09, -3.163216756121701e-10).transl(-5.958632502449328e-08, -3.670101140857704e-08, 0))
hIsland = hIsland.add(rect(6.455275125415327e-09, 2.4371353478879054e-09).transl(-7.4987551693402e-08, -3.300138757730608e-08, 0))
hIsland = hIsland.sub(rect(7.887985917654171e-09, -1.1423738746906829e-09).transl(-7.566829183139488e-08, -3.2796707369553515e-08, 0))
hIsland = hIsland.add(rect(6.620238931006126e-09, 4.361350936202514e-09).transl(6.18546465220108e-08, -3.6257627953451225e-08, 0))
hIsland = hIsland.add(rect(9.443307227889514e-09, 1.3194353106389579e-09).transl(4.078187391329598e-08, -3.924573582879065e-08, 0))
hIsland = hIsland.add(rect(3.967199901456397e-09, 4.316705727900944e-09).transl(-3.727149164576778e-08, -3.9515794564661334e-08, 0))
hIsland = hIsland.sub(rect(5.621823636625649e-09, -2.4517686337180122e-09).transl(-8.709217811190129e-08, -2.869628689967425e-08, 0))
hIsland = hIsland.add(rect(3.127903967607939e-09, 1.4202431991474206e-09).transl(6.82191470734666e-08, -3.4834821512134496e-08, 0))
hIsland = hIsland.sub(rect(4.5063051181476e-09, -3.958591677501936e-09).transl(2.8650593522764107e-08, -3.9924481625327756e-08, 0))
hIsland = hIsland.sub(rect(8.339961000423647e-09, -5.330467376326572e-10).transl(9.054990740130058e-08, -2.715568087518764e-08, 0))
hIsland = hIsland.sub(rect(6.970531216340451e-09, -7.966489142717998e-10).transl(-1.3915301983994584e-08, -4e-08, 0))
hIsland = hIsland.sub(rect(4.057593807935728e-09, -1.0269320865028209e-09).transl(-3.6111640651872444e-08, -3.95916893749748e-08, 0))
hIsland = hIsland.sub(rect(3.03016442089748e-09, -1.583577887296027e-09).transl(4.2829319574775685e-08, -3.905983506799562e-08, 0))
hIsland = hIsland.add(rect(8.273269543776526e-09, 3.990113285153275e-09).transl(-1.0674014313881117e-07, -1.6565094299961584e-08, 0))
hIsland = hIsland.add(rect(6.777349050784139e-09, 2.261539704039135e-09).transl(2.2106776481186668e-08, -4e-08, 0))
hIsland = hIsland.sub(rect(9.953830485351033e-09, -1.0826273121643076e-09).transl(8.74604825423405e-08, -2.8539913981270853e-08, 0))
hIsland = hIsland.add(rect(9.341931354189164e-09, 1.5735921423297362e-09).transl(6.779085050405672e-08, -3.493926599602341e-08, 0))
hIsland = hIsland.sub(rect(5.971455760266884e-09, -1.9318788231509417e-09).transl(7.527664727143479e-08, -3.291494495127066e-08, 0))
hIsland = hIsland.sub(rect(4.9374413142066515e-09, -1.0496039576923973e-09).transl(-9.860882897260821e-08, -2.2789017441585938e-08, 0))
hIsland = hIsland.add(rect(5.498122853040657e-09, 1.2848053885299632e-10).transl(9.66948333507469e-08, -2.394492553479445e-08, 0))
hIsland = hIsland.add(rect(7.235632261918567e-09, 3.9380586613635615e-09).transl(1.614588503317346e-09, -4e-08, 0))
hIsland = hIsland.add(rect(3.6585855931147617e-09, 1.6236880864790414e-10).transl(6.36222921430535e-08, -3.5889531678880667e-08, 0))
hIsland = hIsland.add(rect(7.339866905378061e-09, 1.2638173318854846e-09).transl(-1.1683431564480677e-08, -4e-08, 0))
hIsland = hIsland.add(rect(5.117810277202458e-09, 2.625310741578009e-09).transl(-4.7201139610101224e-08, -3.8591224115686506e-08, 0))
hIsland = hIsland.add(rect(6.235206793941231e-09, 5.426015491958927e-11).transl(5.3774859896714376e-09, -4e-08, 0))
hIsland = hIsland.sub(rect(8.33615977826868e-09, -1.1064564922879289e-10).transl(1.9516924009731685e-08, -4e-08, 0))
hIsland = hIsland.add(rect(4.042214865645657e-09, 1.0759539880754239e-09).transl(8.750746481548902e-08, -2.8519840151120288e-08, 0))
hIsland = hIsland.sub(rect(9.957067777227803e-09, -4.0936918259690543e-10).transl(-5.3125290381740505e-08, -3.779475683877387e-08, 0))
hIsland = hIsland.add(rect(9.263602327298727e-09, 2.9678936921797056e-09).transl(-1.121701792577175e-08, -4e-08, 0))
hIsland = hIsland.sub(rect(8.723006948605704e-09, -5.482018946022834e-10).transl(8.527533371279124e-08, -2.9442786179751352e-08, 0))
hIsland = hIsland.add(rect(8.48280032093339e-09, 2.33993634333981e-09).transl(3.2758463294236766e-08, -3.9774345528472786e-08, 0))
hIsland = hIsland.add(rect(3.122663748253491e-09, 4.097630455144709e-09).transl(-6.245733994236328e-08, -3.613438037545031e-08, 0))
hIsland = hIsland.add(rect(6.475833745757334e-09, 6.676576068856882e-10).transl(-2.3973509978708513e-08, -3.999776051935387e-08, 0))
hIsland = hIsland.add(rect(5.124576996130421e-09, 2.3702643713202157e-09).transl(9.74640973083419e-08, -2.349073023163523e-08, 0))
hIsland = hIsland.add(rect(4.268046883332992e-09, 2.7200219620780875e-10).transl(-9.41086874613499e-08, 2.5380114298410663e-08, 0))
hIsland = hIsland.sub(rect(9.256358389018782e-09, -1.362273537001881e-09).transl(6.19246070399003e-08, 3.62434400994681e-08, 0))
hIsland = hIsland.add(rect(2.765714551363252e-09, 3.848892065689356e-09).transl(9.800913847468945e-08, 2.316060938503099e-08, 0))
[...]
hIsland = hIsland.sub(rect(8.478557021149435e-09, -3.4039560903143717e-09).transl(1.4513585291811132e-08, 4e-08, 0))
hIsland = hIsland.add(rect(2.6501170280859026e-09, 1.5910206749245413e-10).transl(6.702927167460066e-08, 3.512177905582466e-08, 0))
hIsland = hIsland.sub(rect(7.183944146111605e-09, -2.7243612837630123e-09).transl(5.52934930080442e-08, 3.745477502132148e-08, 0))
hIsland = hIsland.sub(rect(8.994295885524512e-09, -7.494924678832139e-10).transl(-1.0946702974944944e-08, 4e-08, 0))
hIsland = hIsland.sub(rect(2.8967013203005075e-09, -6.030551666512094e-10).transl(8.542395389495267e-08, 2.9383231397472838e-08, 0))
hIsland = hIsland.add(rect(9.87480361708073e-09, 6.196327057387253e-10).transl(-2.3125112952436456e-08, 3.999996301215004e-08, 0))
hIsland = hIsland.add(rect(7.805757945911518e-09, 8.919192621123765e-10).transl(5.39255210213881e-08, 3.767238173850621e-08, 0))
hIsland = hIsland.sub(rect(9.008698792064524e-09, -2.0953230376415893e-10).transl(-2.8534077949660965e-09, 4e-08, 0))
hIsland = hIsland.sub(rect(4.797702021264106e-09, -2.91067837046982e-09).transl(-6.753681806719886e-09, 4e-08, 0))
hIsland = hIsland.sub(rect(9.76578965720251e-09, -2.447962110571137e-09).transl(8.150659394015935e-08, 3.086949928199116e-08, 0))
hIsland = hIsland.sub(rect(7.77993398362612e-09, -1.1396665839677237e-09).transl(5.604593673271564e-08, 3.733050179117067e-08, 0))
hIsland = hIsland.add(rect(4.892179391852222e-09, 5.722201107328639e-09).transl(6.054867518983039e-08, 3.651681382805539e-08, 0))
hIsland = hIsland.sub(rect(9.622390000967635e-09, -9.614537095904426e-10).transl(-2.338384728167859e-08, 3.9999651844572626e-08, 0))
hIsland = hIsland.add(rect(6.379324179309988e-09, 1.9729560850729193e-09).transl(7.744174589743754e-08, 3.2244623542223956e-08, 0))
hIsland = hIsland.add(rect(2.1889258125159012e-09, 1.8112638228844392e-09).transl(8.294148178790724e-09, 4e-08, 0))
hIsland = hIsland.add(rect(5.680198572498469e-09, 1.276672586200924e-09).transl(-4.411721035166491e-08, 3.8932017300296833e-08, 0))
hIsland = hIsland.add(rect(8.018292851164223e-09, 3.85082826352205e-09).transl(-2.169641829536562e-09, 4e-08, 0))
hIsland = hIsland.add(rect(4.2261056283794955e-09, 1.3584153211220978e-09).transl(-2.6552112755806818e-08, 3.997017435999781e-08, 0))
hIsland = hIsland.sub(rect(9.813578876036856e-09, -2.7304833482490726e-09).transl(5.501134541930981e-08, 3.750053248379511e-08, 0))
hIsland = hIsland.add(rect(7.1042067261663e-09, 3.1382080771942304e-09).transl(-4.844549823269111e-08, 3.8439618571648947e-08, 0))
hIsland = hIsland.sub(rect(3.0582104778978723e-09, -2.688957824299175e-09).transl(9.952698939348839e-08, 2.2202112905330495e-08, 0))
hIsland = hIsland.add(rect(7.372992166639579e-09, 5.363126862828503e-10).transl(6.902382914336259e-08, 3.463503244946557e-08, 0))
hIsland = hIsland.sub(rect(5.644738971194187e-09, -2.661566153014478e-09).transl(-8.036739816325644e-08, 3.127106209836216e-08, 0))
hIsland = hIsland.sub(rect(4.318065140951863e-09, -1.3463389957439663e-09).transl(-1.1418811182922251e-08, 4e-08, 0))
hIsland = hIsland.sub(rect(4.116001435062521e-09, -7.175297934664561e-10).transl(-6.735477397240538e-08, 3.5044271287436604e-08, 0))
hIsland = hIsland.sub(rect(8.158782831132071e-09, -4.595867082979854e-09).transl(1.0806657361398882e-07, 1.5234016096310612e-08, 0))
hIsland = hIsland.add(rect(4.74597112395946e-09, 5.519236355593609e-09).transl(7.526879452282691e-08, 3.29173023467368e-08, 0))
hIsland = hIsland.add(rect(6.839941027994915e-09, 1.9853825703450775e-09).transl(7.14962137768609e-08, 3.399131783205992e-08, 0))
hIsland = hIsland.add(rect(6.048978905643757e-09, 1.2260410687172983e-09).transl(5.279619375858032e-08, 3.7844040810389664e-08, 0))
hIsland = hIsland.sub(rect(9.787906548619183e-09, -2.5889030722457745e-09).transl(-6.05148526094496e-08, 3.652338462569301e-08, 0))
hIsland = hIsland.add(rect(3.1230985206564014e-09, 1.7728093913370599e-09).transl(2.613296474891563e-08, 3.9976799821712406e-08, 0))
hIsland = hIsland.add(rect(3.6670769422264428e-09, 4.5092850734384353e-10).transl(4.32825291676245e-08, 3.9015820092598435e-08, 0))
hIsland = hIsland.add(rect(8.728295866498277e-09, 3.701765744035869e-09).transl(3.423914363775642e-08, 3.970039414100102e-08, 0))
hIsland = hIsland.sub(rect(8.670618695724961e-09, -7.905985550784585e-11).transl(-5.98638047449949e-08, 3.664848581094383e-08, 0))
hIsland = hIsland.sub(rect(9.713840139773189e-09, -3.357645294453956e-10).transl(-6.116114303430432e-08, 3.63965950190689e-08, 0))
hIsland = hIsland.add(rect(5.652006855598953e-09, 3.7599997121261417e-10).transl(-1.2828088126908527e-08, 4e-08, 0))
hIsland = hIsland.sub(rect(7.000165322562298e-09, -1.5692925734546581e-09).transl(6.464642815613578e-08, 3.566695086617228e-08, 0))
hIsland = hIsland.add(rect(8.528441171569546e-09, 5.3234301672739504e-09).transl(4.031650134307383e-08, 3.928505389573493e-08, 0))
hIsland = hIsland.add(rect(4.387052887542533e-09, 5.069224838678223e-10).transl(-4.154363085458516e-08, 3.9179036857231185e-08, 0))
hIsland = hIsland.add(rect(5.847441951800347e-09, 1.858196656835799e-09).transl(1.075809629916952e-07, 1.5736852461847394e-08, 0))
hIsland = hIsland.add(rect(8.757311484879061e-09, 5.650878427509444e-10).transl(-7.76696433101627e-08, 3.217165121409113e-08, 0))
hIsland = hIsland.sub(rect(5.297462409294577e-09, -3.7950349406462524e-10).transl(4.417114646381272e-08, 3.8926479481234686e-08, 0))
hIsland = hIsland.add(rect(5.350166895888123e-09, 8.821234472997727e-11).transl(1.1789450471125037e-08, 4e-08, 0))
hIsland = hIsland.sub(rect(6.399533739337949e-09, -1.3555586007614776e-09).transl(1.1309881492656395e-07, 8.08980254769167e-09, 0))
hIsland = hIsland.add(rect(6.5931272781996565e-09, 3.0430694662565764e-10).transl(4.407664038143754e-08, 3.89361729420189e-08, 0))
hIsland = hIsland.add(rect(8.032233274003679e-09, 5.338434332130685e-10).transl(8.327734812638018e-09, 4e-08, 0))
hIsland = hIsland.sub(rect(6.384643185252771e-09, -2.3960738886699786e-10).transl(3.766442717288525e-08, 3.9488589377906716e-08, 0))
hIsland = hIsland.sub(rect(7.117940675394052e-09, -3.776559445018448e-09).transl(-8.523198784232498e-08, 2.9460106276983712e-08, 0))
hIsland = hIsland.add(rect(3.6487941396834967e-09, 8.38333771714889e-12).transl(-5.193309418370465e-09, 4e-08, 0))
hIsland = hIsland.sub(rect(2.885564172446233e-09, -2.8982724463575088e-11).transl(7.3257756055298514e-09, 4e-08, 0))
hIsland = hIsland.sub(rect(2.487341924153901e-09, -1.9857783562174014e-09).transl(-1.0796540991000367e-07, 1.5340367191250396e-08, 0))
hIsland = hIsland.sub(rect(5.056875656014542e-09, -2.343131370421583e-09).transl(-4.1515948877010286e-08, 3.918151168205135e-08, 0))
hIsland = hIsland.add(rect(7.172686681850314e-09, 9.133010348393061e-10).transl(9.838869985971387e-08, 2.2926462259405466e-08, 0))
hIsland = hIsland.add(rect(3.986248844339647e-09, 3.124058698348695e-09).transl(-8.665302875273772e-08, 2.888047178280802e-08, 0))
hIsland = hIsland.add(rect(7.047892898863824e-09, 3.0849325851077906e-10).transl(1.0600835279217093e-08, 4e-08, 0))
hIsland = hIsland.sub(rect(3.2430236599867142e-09, -2.5259595551457898e-09).transl(7.091436491801682e-08, 3.414694597714131e-08, 0))
hIsland = hIsland.add(rect(2.7146593162195556e-09, 2.8334164150460125e-09).transl(-6.738178194957207e-09, 4e-08, 0))
hIsland = hIsland.add(rect(7.187111582697077e-09, 8.314329414644079e-10).transl(-8.852208458038654e-08, 2.807920350741298e-08, 0))
hIsland = hIsland.add(rect(7.757908696865553e-09, 1.9602598893465978e-09).transl(-3.5372605215868654e-09, 4e-08, 0))
hIsland = hIsland.sub(rect(2.223863490327709e-09, -3.249903020708101e-09).transl(-8.755831451673794e-08, 2.849808147543146e-08, 0))
hIsland = hIsland.sub(rect(7.211259155053245e-09, -5.016861262246464e-10).transl(1.0329265962787122e-07, 1.952696168102008e-08, 0))
hIsland = hIsland.add(rect(4.568221873259969e-09, 1.3714610154925923e-09).transl(-9.885330155555236e-08, 2.2634920589210288e-08, 0))
hIsland = hIsland.sub(rect(6.158246090929377e-09, -9.821625420638117e-10).transl(-2.8796374320478458e-08, 3.992053080463011e-08, 0))
hIsland = hIsland.sub(rect(8.725586414225426e-09, -6.390673219318149e-10).transl(4.136156033265156e-08, 3.919524367905584e-08, 0))
hIsland = hIsland.sub(rect(6.144715507234062e-09, -3.780361739613582e-10).transl(-3.6338314600561585e-08, 3.9577373583127756e-08, 0))
hIsland = hIsland.sub(rect(2.1949414981457025e-09, -1.6042548377983713e-09).transl(9.867101647720582e-08, 2.2749965268493596e-08, 0))
hIsland = hIsland.sub(rect(3.6539483147285568e-09, -1.6410485702376047e-10).transl(8.68455204115674e-09, 4e-08, 0))
hIsland = hIsland.sub(rect(4.414229666739626e-09, -1.0696881216620294e-10).transl(-7.307692042783212e-08, 3.355525319679548e-08, 0))
hIsland = hIsland.sub(rect(3.063539557266853e-09, -7.010136774805572e-10).transl(9.634387921256807e-08, 2.414776260756411e-08, 0))
hIsland = hIsland.add(rect(7.627760758823535e-09, 1.2527180093508502e-09).transl(4.261625260301168e-08, 3.9080167311459296e-08, 0))
hIsland = hIsland.add(rect(2.2222660453791648e-09, 2.2547260231821384e-09).transl(-3.614084152746733e-08, 3.958985922540911e-08, 0))
hIsland = hIsland.add(rect(2.046716210359862e-09, 1.0196972205172835e-09).transl(5.379397290296067e-08, 3.7692746572866974e-08, 0))
hIsland = hIsland.add(rect(6.31178248247944e-09, 1.691661617579183e-10).transl(9.198117785733929e-08, 2.6466789481289653e-08, 0))
hIsland = hIsland.add(rect(5.554002553003174e-09, 2.1170186517007083e-09).transl(2.9303550146405057e-08, 3.990599837309488e-08, 0))
hIsland = hIsland.sub(rect(9.382862425162331e-09, -5.046819344794789e-10).transl(4.087687445877678e-08, 3.9237576410477726e-08, 0))
hIsland = hIsland.add(rect(4.7195388100704645e-09, 3.440726016791424e-10).transl(6.108023771140145e-08, 3.6412609980140325e-08, 0))
hIsland = hIsland.add(rect(4.638592244516417e-09, 1.5120107995205461e-09).transl(-1.4132767134659802e-08, 4e-08, 0))
hIsland = hIsland.sub(rect(2.200266262012548e-09, -2.7539094714539953e-09).transl(-8.72457269463071e-08, 2.8631306543594874e-08, 0))
hIsland = hIsland.add(rect(2.178355542377877e-09, 1.8548805734966406e-10).transl(-2.65178823426967e-08, 3.997074663718474e-08, 0))
hIsland = hIsland.add(rect(7.581961300518242e-09, 1.649465570563538e-09).transl(5.528101269312745e-08, 3.745680869835357e-08, 0))
hIsland = hIsland.add(rect(9.824959722211342e-09, 1.1780029380899257e-09).transl(5.472369154602266e-08, 3.754671292098236e-08, 0))
hIsland = hIsland.add(rect(8.859245779490157e-09, 2.0024651804272124e-09).transl(3.62578387707877e-09, 4e-08, 0))
hIsland = hIsland.add(rect(2.906790558045683e-09, 5.810223531208513e-10).transl(9.381310993516608e-08, 2.553585810966593e-08, 0))
hIsland = hIsland.sub(rect(9.499186249342582e-09, -2.0507532432085924e-09).transl(6.96123879088257e-08, 3.4485922975142747e-08, 0))
hIsland = hIsland.add(rect(3.4037357178537633e-09, 4.861504165152722e-10).transl(-5.509900233861189e-08, 3.748636563447096e-08, 0))
hIsland = hIsland.add(rect(2.2015435150652615e-09, 2.4002679001112105e-10).transl(-1.3139809652384345e-08, 4e-08, 0))
hIsland = hIsland.add(rect(3.135638572805354e-09, 2.7742958482222546e-09).transl(-1.1349261781197338e-07, 7.211182787184976e-09, 0))
hIsland = hIsland.sub(rect(3.229156661315141e-09, -6.283051261651202e-10).transl(2.2765774176569266e-08, 4e-08, 0))
hIsland = hIsland.add(rect(6.068843919743953e-09, 1.848989350652416e-09).transl(1.6478358456965195e-08, 4e-08, 0))
hIsland = hIsland.add(rect(9.59872225274656e-09, 3.0515955894379226e-09).transl(1.0589458682520193e-07, 1.7350427368875388e-08, 0))
hIsland = hIsland.sub(rect(4.323872205358077e-09, -1.350739879757003e-09).transl(3.451694594222524e-08, 3.968534071550645e-08, 0))
hIsland = hIsland.add(rect(2.9418446938345176e-09, 1.5499814242895824e-09).transl(-1.0109757472717584e-07, 2.114299511170563e-08, 0))
hIsland = hIsland.add(rect(2.2549756186229973e-09, 1.7707840257122572e-10).transl(-8.124218097919024e-08, 3.0963874172017e-08, 0))
hIsland = hIsland.add(rect(3.2688625613847926e-09, 4.580653188914172e-09).transl(4.79112375599671e-08, 3.850571421329284e-08, 0))
hIsland = hIsland.sub(rect(2.2181809609364855e-09, -2.735661551692914e-09).transl(-4.855555585908514e-08, 3.842581433026358e-08, 0))
hIsland = hIsland.add(rect(5.466066955435077e-09, 1.2135143353423345e-09).transl(-9.346117396052722e-08, 2.5719230571534274e-08, 0))
hIsland = hIsland.add(rect(9.271094111078395e-09, 6.171011267868387e-09).transl(5.138026314848038e-08, 3.804921860697934e-08, 0))
hIsland = hIsland.add(rect(3.4474158761549154e-09, 1.2302463704819563e-09).transl(-1.0307545409161794e-07, 1.969484426801201e-08, 0))
hIsland = hIsland.add(rect(4.7089380575620085e-09, 1.7808133303769025e-09).transl(-5.2907083815108244e-08, 3.7827502066673345e-08, 0))
hIsland = hIsland.sub(rect(4.944686012453961e-09, -1.59597789762456e-09).transl(1.987704519049577e-08, 4e-08, 0))
hIsland = hIsland.add(rect(9.815336621698308e-09, 3.9138584017812465e-09).transl(-8.227200019518176e-09, 4e-08, 0))
hIsland = hIsland.sub(rect(5.431166837937818e-09, -2.6079682711350597e-09).transl(-1.058233151785661e-07, 1.7414649889707177e-08, 0))
hIsland = hIsland.sub(rect(5.078112174153917e-09, -3.818627623471194e-09).transl(7.249493990271383e-09, 4e-08, 0))
hIsland = hIsland.sub(rect(5.6475341422221455e-09, -3.1182412414352675e-09).transl(3.448089550352418e-08, 3.968731527873219e-08, 0))
hIsland = hIsland.add(rect(2.464382161268932e-09, 1.1334334765971943e-09).transl(-8.841508038444394e-08, 2.8126326083576683e-08, 0))
hIsland = hIsland.add(rect(9.98768481450307e-09, 1.1004217559549047e-10).transl(3.1090207719772976e-08, 3.984504138625042e-08, 0))
hIsland = hIsland.add(rect(4.974130912503613e-09, 1.360245113950122e-09).transl(-1.068155294326851e-07, 1.64928639315663e-08, 0))
hIsland = hIsland.add(rect(6.08230851737471e-09, 9.94696454768991e-10).transl(-3.3705667444479646e-09, 4e-08, 0))
hIsland = hIsland.add(rect(7.312318429151013e-09, 3.267755471148407e-09).transl(1.1160590605870913e-08, 4e-08, 0))
hIsland = hIsland.add(rect(7.407104536411782e-09, 1.1387132587732951e-10).transl(7.49392286257402e-08, 3.301576792840483e-08, 0))
hIsland = hIsland.sub(rect(7.965564487387094e-09, -2.5040091043744e-09).transl(4.621115145122809e-08, 3.8706013386423204e-08, 0))
hIsland = hIsland.add(rect(8.169204746441736e-09, 1.9248101141487214e-09).transl(-7.242692688453726e-08, 3.3736942159959645e-08, 0))
hIsland = hIsland.sub(rect(3.2828013228382134e-09, -2.496745478983854e-09).transl(-3.4939884148906165e-08, 3.96617054870076e-08, 0))
hIsland = hIsland.sub(rect(7.675721938025643e-09, -1.6357156770465625e-11).transl(1.0020833389593257e-07, 2.1751618921624375e-08, 0))
hIsland = hIsland.add(rect(5.8506623284064274e-09, 4.521225097790351e-09).transl(-9.580465099365813e-08, 2.4454281225647773e-08, 0))
hIsland = hIsland.add(rect(7.979312338654066e-09, 2.302418519247222e-09).transl(-1.6032416238188664e-08, 4e-08, 0))
hIsland = hIsland.add(rect(2.7582411073728892e-09, 1.904585426405646e-10).transl(-7.469615301567744e-09, 4e-08, 0))
hIsland = hIsland.sub(rect(9.582714053426855e-09, -3.0022927884432525e-09).transl(2.1936280520416912e-09, 4e-08, 0))
hIsland = hIsland.add(rect(9.752842753283738e-09, 1.947740414795292e-09).transl(2.0169885586966523e-10, 4e-08, 0))
hIsland = hIsland.sub(rect(7.479832718914014e-09, -2.0183245473680162e-10).transl(-1.0520430009153586e-07, 1.7960537746825547e-08, 0))
hIsland = hIsland.add(rect(5.581447373723879e-09, 7.868693083651819e-11).transl(3.682869098736323e-08, 3.954554528999191e-08, 0))
hIsland = hIsland.add(rect(5.1199325451204315e-09, 1.3065423341110706e-09).transl(8.033395260057822e-08, 3.1282655162652893e-08, 0))
hIsland = hIsland.sub(rect(5.399726179073423e-09, -2.014671313148196e-09).transl(3.3555713685737285e-08, 3.973584067009191e-08, 0))
hIsland = hIsland.sub(rect(8.907686837784562e-09, -4.685024581853431e-09).transl(5.036044569642097e-08, 3.819016691526403e-08, 0))
hIsland = hIsland.sub(rect(9.472594792805643e-09, -1.9696998427910547e-09).transl(-1.0974133477328697e-07, 1.3329762892881692e-08, 0))
hIsland = hIsland.add(rect(9.444233916170934e-09, 2.1849510081455555e-09).transl(7.237069770433224e-08, 3.375250241562983e-08, 0))
hIsland = hIsland.sub(rect(3.4102252232489764e-09, -3.6283541255279797e-09).transl(7.301630247081393e-10, 4e-08, 0))
hIsland = hIsland.sub(rect(4.3746340168288426e-09, -3.490972620109983e-09).transl(-2.394293747490574e-08, 3.99978989734563e-08, 0))
hIsland = hIsland.add(rect(4.781810970279581e-09, 1.0839301448112354e-09).transl(-9.787394182753832e-08, 2.3243157967207175e-08, 0))
hIsland = hIsland.sub(rect(9.585705072049262e-09, -4.319559173150163e-09).transl(-2.9098093382998143e-08, 3.9912032896868644e-08, 0))
hIsland = hIsland.add(rect(3.506860783731497e-09, 1.536550464864625e-10).transl(-1.0092159362007833e-07, 2.126538250185859e-08, 0))
hIsland = hIsland.add(rect(6.59149556034962e-09, 1.4802026279634454e-09).transl(6.826548439501913e-08, 3.4823443210960225e-08, 0))
hIsland = hIsland.sub(rect(8.720906713310556e-09, -3.4391350434811578e-09).transl(-3.906745538595838e-08, 3.9385249744453024e-08, 0))
hIsland = hIsland.add(rect(4.809979483804757e-09, 1.0379527083484353e-09).transl(-6.55630866247402e-08, 3.54618026002986e-08, 0))
hIsland = hIsland.add(rect(7.833623141763621e-09, 4.3146173847394237e-10).transl(-3.9665563060482145e-08, 3.933823810129763e-08, 0))
hIsland = hIsland.sub(rect(7.568562386312192e-09, -5.644419372890185e-09).transl(3.57942154594597e-08, 3.961131583653686e-08, 0))
hIsland = hIsland.sub(rect(8.459392977976278e-09, -2.9159372874739044e-09).transl(6.758465031727171e-08, 3.498908540615065e-08, 0))
hIsland = hIsland.sub(rect(9.61383464515733e-09, -2.3741742944498663e-09).transl(-1.708459872190758e-08, 4e-08, 0))
hIsland = hIsland.sub(rect(5.5369630493693195e-09, -8.816881188609882e-10).transl(4.437793305004167e-08, 3.890510965636649e-08, 0))
hIsland = hIsland.add(rect(4.1346183845929375e-09, 6.910800766023818e-10).transl(-6.55205277624332e-08, 3.54714526683828e-08, 0))
hIsland = hIsland.add(rect(6.291204694841327e-09, 1.3309550956551426e-09).transl(9.048521581741421e-08, 2.718606909348208e-08, 0))
hIsland = hIsland.add(rect(9.354903562296202e-09, 1.5286576404203602e-09).transl(1.0218920841769503e-07, 2.036096412617125e-08, 0))
hIsland = hIsland.sub(rect(7.1156780320632475e-09, -1.6443933530927764e-09).transl(-1.0017024005148886e-07, 2.1777158262797892e-08, 0))
hIsland = hIsland.sub(rect(7.287026035528454e-09, -5.276484661845333e-10).transl(8.150418428431894e-08, 3.087036257765816e-08, 0))
hIsland = hIsland.sub(rect(5.384265124451346e-09, -7.129328113967252e-10).transl(-4.7182801712970435e-08, 3.859339713869877e-08, 0))
hIsland = hIsland.sub(rect(6.1997140506605525e-09, -5.972517419888108e-11).transl(-9.488219787986158e-08, 2.4964813150606454e-08, 0))
hIsland = hIsland.add(rect(7.49759525680809e-09, 1.4510743482765725e-09).transl(-1.1271489512234849e-07, 8.85973019497722e-09, 0))
hIsland = hIsland.add(rect(2.7356131797319305e-09, 1.8220515921836832e-09).transl(-7.897835548156564e-08, 3.174336993001968e-08, 0))
hIsland = hIsland.sub(rect(9.297527732058314e-09, -1.5722023784389425e-09).transl(7.824829593495413e-09, 4e-08, 0))
vIsland = hIsland.rotz(pi / 2)
vIslands = vIslands.add(vIsland.transl(0, -a/2, 0))
DefRegion(1, hIslands)
DefRegion(2, vIslands)
TableAdd(m_full.Region(1))
TableAdd(m_full.Region(2))
setgeom(hIslands.add(vIslands))
save(geom)
r2o2 := sqrt(2) / 2
m = RandomMagSeed(4)
B_ext = vector(Bmax*r2o2, Bmax*r2o2, 0)
relax()
minimize()
for B := Bmax; B >= -Bmax; B -= Bstep {
	B_ext = vector(B*r2o2, B*r2o2, 0)
	minimize()
	tablesave()
}
//********************************************************************//
//Please cite the following references, relevant for your simulation. //
//See bibtex file in output folder for justification.                 //
//********************************************************************//
//   * Vansteenkiste et al., AIP Adv. 4, 107133 (2014).
//   * Exl et al., J. Appl. Phys. 115, 17D118 (2014).
