//mumax 3.10 [windows_amd64 go1.11.6(gc) CUDA-11.0]
//GPU info: NVIDIA GeForce RTX 3090(24575MB), CUDA Driver 12.0, cc=8.6, using cc=80 PTX
//(c) Arne Vansteenkiste, Dynamat LAB, Ghent University, Belgium
//This is free software without any warranty. See license.txt
//********************************************************************//
//  If you use mumax in any work or publication,                      //
//  we kindly ask you to cite the references in references.bib        //
//********************************************************************//
//output directory: r1;p0.8;a5.12e-07;l1.8000000000000002e-07;s2.out/
randSeed(2)
ThermSeed(2)
resolution := 2e-09
zResolution := 5e-09
a := 5.12e-07
gridSize := 512
gridDepth := 5
SetCellsize(resolution, resolution, zResolution)
SetGridsize(gridSize, gridSize, gridDepth)
SetPBC(16, 16, 0)
//resizing...
Msat = 700e3
Aex = 13e-12
alpha = 0.2
Bmax := 0.1
Bstep := Bmax / 500.0
TableAdd(B_ext)
TableAdd(m_full)
islandWidth := 8e-08
islandLength := 1.8000000000000002e-07
ellipseConstant := 7.200000000000001e-08
hIsland := rect(islandLength-2*ellipseConstant, islandWidth)
hIsland = hIsland.add(ellipse(ellipseConstant*2, islandWidth).transl(islandLength/2-ellipseConstant, 0, 0))
hIsland = hIsland.add(ellipse(ellipseConstant*2, islandWidth).transl(-islandLength/2+ellipseConstant, 0, 0))
hIsland = hIsland.sub(rect(1e-08, -2.9127472569437307e-09).transl(-5.030717356748091e-08, -3.574708196707388e-08, 0))
hIsland = hIsland.sub(rect(1e-08, -3.851357542440263e-09).transl(7.003438723431685e-08, -2.764648162124238e-08, 0))
hIsland = hIsland.sub(rect(1e-08, -1.4156640570556576e-09).transl(6.846139059648979e-08, -2.8532243289301756e-08, 0))
hIsland = hIsland.sub(rect(1e-08, -1.5186402669881363e-09).transl(1.0934768883688447e-08, -4e-08, 0))
hIsland = hIsland.add(rect(1e-08, 1.6417972018183287e-10).transl(8.228153036310792e-09, -4e-08, 0))
hIsland = hIsland.sub(rect(1e-08, -5.23119218338813e-09).transl(6.62690044833691e-08, -2.967989304717102e-08, 0))
hIsland = hIsland.sub(rect(1e-08, -2.556855388698938e-09).transl(-8.246601821045126e-08, -1.7813614020522357e-08, 0))
hIsland = hIsland.add(rect(1e-08, 1.068612403242718e-09).transl(1.9260015103760957e-08, -3.999387438411738e-08, 0))
hIsland = hIsland.sub(rect(1e-08, -3.7355316177544325e-09).transl(5.3928167052860363e-08, -3.466402595097939e-08, 0))
hIsland = hIsland.sub(rect(1e-08, -1.3126413719461412e-09).transl(-6.148226264508297e-08, -3.188178799794149e-08, 0))
hIsland = hIsland.add(rect(1e-08, 4.6494006639094156e-10).transl(-5.174345583768819e-09, -4e-08, 0))
hIsland = hIsland.sub(rect(1e-08, -3.766101461879893e-09).transl(6.137946272664113e-08, -3.192498060919562e-08, 0))
hIsland = hIsland.sub(rect(1e-08, -5.718038391056208e-10).transl(7.93217128173719e-08, -2.0961807842057314e-08, 0))
hIsland = hIsland.add(rect(1e-08, 9.277492780805189e-11).transl(8.708200545708717e-08, -1.1272118476426631e-08, 0))
hIsland = hIsland.sub(rect(1e-08, -2.083911990666059e-09).transl(-7.418838023862495e-08, -2.501151541062058e-08, 0))
hIsland = hIsland.add(rect(1e-08, 2.661482483997978e-09).transl(-2.8197627051728152e-08, -3.959676537214091e-08, 0))
hIsland = hIsland.sub(rect(1e-08, -4.130511409821685e-09).transl(-3.19926052677263e-08, -3.92373554289283e-08, 0))
hIsland = hIsland.sub(rect(1e-08, -1.1343988497265657e-08).transl(-4.888180343477582e-08, -3.613381430173892e-08, 0))
hIsland = hIsland.sub(rect(1e-08, -7.791371122297589e-10).transl(-2.724289330489288e-09, -4e-08, 0))
hIsland = hIsland.sub(rect(1e-08, -5.66394718880243e-10).transl(-5.520357395294212e-08, -3.424626718925029e-08, 0))
hIsland = hIsland.sub(rect(1e-08, -5.252698981600045e-09).transl(1.298519806302249e-09, -4e-08, 0))
hIsland = hIsland.add(rect(1e-08, 1.7808370136990669e-09).transl(-4.088953522088794e-08, -3.792483297232737e-08, 0))
hIsland = hIsland.sub(rect(1e-08, -1.2996882434459554e-10).transl(2.8334720589882584e-08, -3.9585793492083206e-08, 0))
hIsland = hIsland.sub(rect(1e-08, -4.89107828468126e-09).transl(8.479776477354681e-08, -1.4928415828669696e-08, 0))
hIsland = hIsland.add(rect(1e-08, 3.43834492344201e-09).transl(2.9411679705738004e-08, -3.94943876552539e-08, 0))
hIsland = hIsland.sub(rect(1e-08, -4.603723826603428e-09).transl(-7.291358331518335e-08, -2.5870632377168e-08, 0))
hIsland = hIsland.sub(rect(1e-08, -1.863595849286297e-09).transl(4.3630558079420046e-08, -3.7379743361159326e-08, 0))
hIsland = hIsland.sub(rect(1e-08, -6.208262626543815e-10).transl(-2.5147005408737097e-08, -3.980244546153363e-08, 0))
hIsland = hIsland.sub(rect(1e-08, -2.4923711967757485e-09).transl(-1.194832092502011e-09, -4e-08, 0))
hIsland = hIsland.add(rect(1e-08, 1.0965299362765406e-09).transl(2.3772499643874338e-08, -3.9871236607349155e-08, 0))
hIsland = hIsland.sub(rect(1e-08, -1.4850176250775004e-09).transl(3.179998470620586e-08, -3.9258404864469706e-08, 0))
hIsland = hIsland.sub(rect(1e-08, -1.974144021447734e-09).transl(-3.493631541786451e-08, -3.887762225710616e-08, 0))
hIsland = hIsland.add(rect(1e-08, 6.987179378302044e-09).transl(-3.042208233825314e-08, -3.9400178096912374e-08, 0))
hIsland = hIsland.sub(rect(1e-08, -2.0056727680391525e-09).transl(-4.9509048970644746e-08, -3.59662900855818e-08, 0))
hIsland = hIsland.add(rect(1e-08, 1.4023922730150733e-09).transl(-5.650596192550473e-09, -4e-08, 0))
hIsland = hIsland.sub(rect(1e-08, -8.229326267689546e-09).transl(-7.713439885759108e-08, -2.2819222943074117e-08, 0))
hIsland = hIsland.sub(rect(1e-08, -3.733580003523394e-09).transl(-3.549126087672506e-08, -3.880171098804136e-08, 0))
hIsland = hIsland.sub(rect(1e-08, -6.123976176050164e-10).transl(-8.438441591545201e-08, -1.5487044800595205e-08, 0))
hIsland = hIsland.sub(rect(1e-08, -8.427405130133818e-09).transl(-3.2217771799249225e-08, -3.9212364849861644e-08, 0))
hIsland = hIsland.sub(rect(1e-08, -9.265597064137696e-09).transl(-3.149549538344684e-08, -3.9291061734298375e-08, 0))
hIsland = hIsland.sub(rect(1e-08, -4.010262494243905e-09).transl(3.7166911952658934e-09, -4e-08, 0))
hIsland = hIsland.add(rect(1e-08, 1.935112333557106e-09).transl(8.605063220614995e-08, -1.3065734286737918e-08, 0))
hIsland = hIsland.sub(rect(1e-08, -2.037978921577027e-09).transl(3.991463504926928e-08, -3.8102156263540745e-08, 0))
hIsland = hIsland.sub(rect(1e-08, -3.04908293834235e-09).transl(4.189102869514325e-08, -3.7733711013879405e-08, 0))
hIsland = hIsland.add(rect(1e-08, 3.892501561203245e-09).transl(-3.144692601597354e-08, -3.929620100980192e-08, 0))
hIsland = hIsland.add(rect(1e-08, 7.975299706557098e-10).transl(5.329377398173797e-08, -3.48645948596889e-08, 0))
hIsland = hIsland.sub(rect(1e-08, -6.139366856958622e-11).transl(8.63134501460256e-08, -1.2635347845178848e-08, 0))
hIsland = hIsland.sub(rect(1e-08, -8.62934999897606e-10).transl(5.952399451017197e-08, -3.2677614756097236e-08, 0))
hIsland = hIsland.add(rect(1e-08, 7.319306093310181e-09).transl(1.4819770390501997e-08, -4e-08, 0))
hIsland = hIsland.sub(rect(1e-08, -4.941586637852524e-09).transl(7.893473120422037e-09, -4e-08, 0))
hIsland = hIsland.sub(rect(1e-08, -1.8418897943095339e-09).transl(2.5112725146743538e-09, -4e-08, 0))
hIsland = hIsland.add(rect(1e-08, 8.41783807371945e-09).transl(-8.847278815647618e-08, -8.194889431466451e-09, 0))
hIsland = hIsland.add(rect(1e-08, 1.0831951237786433e-09).transl(5.391433677564585e-09, -4e-08, 0))
hIsland = hIsland.add(rect(1e-08, 5.7788837115523425e-09).transl(-8.9654920760709e-08, -3.911534493203039e-09, 0))
hIsland = hIsland.add(rect(1e-08, 1.2120788503223238e-09).transl(3.175702679162315e-08, -3.926305795942902e-08, 0))
hIsland = hIsland.sub(rect(1e-08, -1.6310683672515295e-10).transl(-3.6709507550615e-08, -3.8625913738097205e-08, 0))
hIsland = hIsland.add(rect(1e-08, 2.405334293411865e-09).transl(-8.778270705369519e-08, -9.850327378437498e-09, 0))
hIsland = hIsland.add(rect(1e-08, 1.055402252252295e-09).transl(-3.247296629849894e-08, -3.918353949613562e-08, 0))
hIsland = hIsland.sub(rect(1e-08, -4.721723056951623e-09).transl(-5.43472052725836e-08, -3.4528931637431665e-08, 0))
hIsland = hIsland.sub(rect(1e-08, -3.778990951595469e-09).transl(-5.304687035693622e-08, -3.4941383359055454e-08, 0))
hIsland = hIsland.add(rect(1e-08, 3.6743167407147272e-09).transl(-5.976983578497955e-08, -3.258076772363844e-08, 0))
hIsland = hIsland.add(rect(1e-08, 1.2842963886593764e-09).transl(2.918454631485022e-08, -3.951443681998918e-08, 0))
hIsland = hIsland.add(rect(1e-08, 2.303254101518738e-09).transl(-5.3280838899373244e-08, -3.486863533920799e-08, 0))
hIsland = hIsland.sub(rect(1e-08, -4.214858859842317e-09).transl(-7.533178547250588e-08, -2.419740302445599e-08, 0))
hIsland = hIsland.add(rect(1e-08, 3.3869546375091356e-09).transl(-1.7592966937929734e-08, -4e-08, 0))
hIsland = hIsland.sub(rect(1e-08, -3.177818720861689e-09).transl(6.890025215298037e-08, -2.8290623205341562e-08, 0))
hIsland = hIsland.add(rect(1e-08, 3.837275194479435e-10).transl(4.88004431145398e-08, -3.615524100093653e-08, 0))
hIsland = hIsland.add(rect(1e-08, 1.008523874918663e-09).transl(-2.9139068333850124e-08, -3.9518401545300676e-08, 0))
hIsland = hIsland.sub(rect(1e-08, -7.420292226781834e-10).transl(6.098986608572141e-08, -3.208722397733286e-08, 0))
hIsland = hIsland.sub(rect(1e-08, -5.91257933883433e-10).transl(1.8375121969180147e-08, -3.999945710861617e-08, 0))
hIsland = hIsland.add(rect(1e-08, 3.463118000323242e-10).transl(-3.3643112171001885e-09, -4e-08, 0))
hIsland = hIsland.add(rect(1e-08, 3.727759112747824e-10).transl(-7.506809656871258e-08, -2.4389030333834945e-08, 0))
hIsland = hIsland.add(rect(1e-08, 9.430789281673704e-10).transl(-8.681150207431233e-08, -1.1771712042284e-08, 0))
hIsland = hIsland.add(rect(1e-08, 1.693999123773755e-10).transl(-4.1958962724982375e-08, -3.7720414394345456e-08, 0))
hIsland = hIsland.sub(rect(1e-08, -2.392732368967305e-09).transl(1.0314435198438695e-08, -4e-08, 0))
hIsland = hIsland.add(rect(1e-08, 1.4736558461221599e-09).transl(3.8875872852568515e-08, -3.8281760527534086e-08, 0))
hIsland = hIsland.sub(rect(1e-08, -2.9331145231368243e-09).transl(8.922698254725215e-08, -5.845673645912688e-09, 0))
hIsland = hIsland.sub(rect(1e-08, -3.368127854644258e-09).transl(6.020508982720966e-08, -3.2407181763285604e-08, 0))
hIsland = hIsland.sub(rect(1e-08, -3.372609520215505e-09).transl(6.762445150481575e-09, -4e-08, 0))
hIsland = hIsland.add(rect(1e-08, 5.01209776299961e-09).transl(3.0462856889179725e-08, -3.939620367027229e-08, 0))
hIsland = hIsland.add(rect(1e-08, 4.558055908263422e-09).transl(3.011445188654682e-08, -3.942973143238231e-08, 0))
hIsland = hIsland.sub(rect(1e-08, -4.4111955306262116e-10).transl(1.5222008490156928e-08, -4e-08, 0))
hIsland = hIsland.add(rect(1e-08, 1.0305615394654214e-08).transl(-2.0587361203982167e-08, -3.9974164349391195e-08, 0))
hIsland = hIsland.sub(rect(1e-08, -7.56990443014676e-10).transl(-8.626718385502136e-08, -1.2712291229511844e-08, 0))
hIsland = hIsland.sub(rect(1e-08, -3.5487903387030614e-09).transl(6.174639675816112e-08, -3.177006885262414e-08, 0))
hIsland = hIsland.add(rect(1e-08, 9.692895669078072e-09).transl(-9.37904225781768e-09, -4e-08, 0))
hIsland = hIsland.sub(rect(1e-08, -2.9909989886303762e-09).transl(5.735681548288612e-08, -3.349516767729734e-08, 0))
hIsland = hIsland.sub(rect(1e-08, -1.877628501368821e-09).transl(4.487277952232792e-08, -3.710950479201725e-08, 0))
hIsland = hIsland.sub(rect(1e-08, -4.120072911282919e-10).transl(8.009583508044877e-08, -2.0246225571587144e-08, 0))
hIsland = hIsland.add(rect(1e-08, 5.018719596212954e-09).transl(-8.055718668066491e-09, -4e-08, 0))
hIsland = hIsland.sub(rect(1e-08, -3.0191130222515556e-09).transl(1.1879478973630065e-08, -4e-08, 0))
hIsland = hIsland.sub(rect(1e-08, -8.899946030527573e-10).transl(-6.183597705718119e-08, -3.173193622159032e-08, 0))
hIsland = hIsland.sub(rect(1e-08, -2.8764531964945274e-09).transl(-4.9827801868347956e-08, -3.587956117272451e-08, 0))
hIsland = hIsland.add(rect(1e-08, 5.8367249284136544e-09).transl(-1.6356692882983593e-08, -4e-08, 0))
hIsland = hIsland.sub(rect(1e-08, -7.698943076449687e-09).transl(-4.301640019585787e-08, -3.7507940399007775e-08, 0))
hIsland = hIsland.add(rect(1e-08, 8.678043064474845e-09).transl(5.925490444305615e-08, -3.278264022029125e-08, 0))
hIsland = hIsland.sub(rect(1e-08, -9.65614377496269e-10).transl(-8.666418658637829e-08, -1.2034280772579655e-08, 0))
hIsland = hIsland.add(rect(1e-08, 2.3394675037185036e-10).transl(-4.881761930505421e-08, -3.615072331793803e-08, 0))
hIsland = hIsland.sub(rect(1e-08, -5.777783626476185e-09).transl(1.064450265954638e-08, -4e-08, 0))
hIsland = hIsland.add(rect(1e-08, 2.168389600843632e-09).transl(7.044856276472567e-08, -2.7403862618131138e-08, 0))
hIsland = hIsland.add(rect(1e-08, 5.3703109571495794e-09).transl(2.1808449806501792e-08, 3.9944002895378105e-08, 0))
hIsland = hIsland.add(rect(1e-08, 7.473069907151446e-10).transl(1.7773795368802468e-08, 4e-08, 0))
hIsland = hIsland.sub(rect(1e-08, -5.174049649302754e-09).transl(1.62284595234634e-08, 4e-08, 0))
hIsland = hIsland.sub(rect(1e-08, -8.41498245792633e-09).transl(2.9654437654794458e-08, 3.9472502082636434e-08, 0))
hIsland = hIsland.sub(rect(1e-08, -8.685029297483223e-09).transl(4.8014850104328104e-08, 3.635859117494466e-08, 0))
hIsland = hIsland.add(rect(1e-08, 7.263310357433509e-10).transl(-1.9905068300013803e-09, 4e-08, 0))
hIsland = hIsland.sub(rect(1e-08, -2.6251883157668644e-09).transl(5.4050591230951114e-08, 3.462477379655519e-08, 0))
hIsland = hIsland.sub(rect(1e-08, -1.038325268769474e-09).transl(-8.64448981708217e-08, 1.2413850219798192e-08, 0))
hIsland = hIsland.sub(rect(1e-08, -1.5498716681476334e-09).transl(4.8608862408439086e-08, 3.620542189659252e-08, 0))
hIsland = hIsland.add(rect(1e-08, 8.780178046212209e-10).transl(2.6726426645667905e-08, 3.9705122496580334e-08, 0))
hIsland = hIsland.add(rect(1e-08, 3.1596001496836483e-09).transl(2.568453809300267e-08, 3.97715229187532e-08, 0))
hIsland = hIsland.sub(rect(1e-08, -8.743799336625117e-09).transl(3.167643876423529e-09, 4e-08, 0))
hIsland = hIsland.add(rect(1e-08, 7.234532869427346e-10).transl(8.449987087243803e-08, 1.5333405534744148e-08, 0))
hIsland = hIsland.add(rect(1e-08, 4.0019756281157405e-09).transl(8.577192747957503e-08, 1.3505438384509607e-08, 0))
hIsland = hIsland.add(rect(1e-08, 5.362974876398405e-09).transl(-3.63618285565135e-08, 3.867737420414593e-08, 0))
hIsland = hIsland.add(rect(1e-08, 8.894333273578535e-10).transl(9.5615849433366e-09, 4e-08, 0))
hIsland = hIsland.sub(rect(1e-08, -3.064342588754001e-11).transl(-3.4044197113019e-08, 3.899423722459462e-08, 0))
hIsland = hIsland.add(rect(1e-08, 2.621730507330829e-09).transl(1.8762850012687606e-09, 4e-08, 0))
hIsland = hIsland.sub(rect(1e-08, -4.954437964561968e-10).transl(5.369735551745531e-08, 3.4737546880720404e-08, 0))
hIsland = hIsland.add(rect(1e-08, 1.7596695924490483e-10).transl(1.799030117304106e-08, 4e-08, 0))
hIsland = hIsland.sub(rect(1e-08, -2.541761270576261e-10).transl(5.959362834105583e-08, 3.265027026822761e-08, 0))
hIsland = hIsland.add(rect(1e-08, 3.7459687094769546e-09).transl(-8.35228031613992e-08, 1.6580911472814188e-08, 0))
hIsland = hIsland.sub(rect(1e-08, -5.764219837216861e-09).transl(8.538341032434988e-08, 1.4092682772795977e-08, 0))
hIsland = hIsland.add(rect(1e-08, 9.032166245807852e-09).transl(-3.874479153705697e-08, 3.830374713354277e-08, 0))
hIsland = hIsland.sub(rect(1e-08, -2.2686020239265744e-09).transl(5.513693290846938e-09, 4e-08, 0))
hIsland = hIsland.add(rect(1e-08, 1.736927433468792e-10).transl(4.6471163208644784e-08, 3.6739796036764537e-08, 0))
hIsland = hIsland.add(rect(1e-08, 1.4158516632227657e-09).transl(-6.4093839785184815e-09, 4e-08, 0))
hIsland = hIsland.sub(rect(1e-08, -6.2466670589254775e-09).transl(2.616092797015406e-08, 3.974222206172012e-08, 0))
hIsland = hIsland.add(rect(1e-08, 2.2373668116043614e-10).transl(-3.561162588636818e-08, 3.87849031723168e-08, 0))
hIsland = hIsland.sub(rect(1e-08, -1.187038988394152e-09).transl(7.389790728166132e-08, 2.5211598114455448e-08, 0))
hIsland = hIsland.sub(rect(1e-08, -4.4523143855314175e-09).transl(-2.4141745188243616e-08, 3.985420561959215e-08, 0))
hIsland = hIsland.sub(rect(1e-08, -9.723325541133695e-10).transl(2.2175949496298256e-08, 3.993266495222342e-08, 0))
hIsland = hIsland.add(rect(1e-08, 3.60678509720638e-10).transl(-6.196943408692022e-08, 3.167489593888984e-08, 0))
hIsland = hIsland.sub(rect(1e-08, -2.7362876515982874e-09).transl(8.16973317011922e-08, 1.864755912061634e-08, 0))
hIsland = hIsland.sub(rect(1e-08, -6.648084189475624e-09).transl(-4.905319133501751e-08, 3.6088451471379275e-08, 0))
hIsland = hIsland.sub(rect(1e-08, -3.859629881416788e-09).transl(-3.586783771592216e-08, 3.874871712475181e-08, 0))
hIsland = hIsland.sub(rect(1e-08, -4.341844079458254e-09).transl(-2.919429612218255e-08, 3.951358468669815e-08, 0))
hIsland = hIsland.add(rect(1e-08, 2.146228008767845e-09).transl(6.717070873618546e-08, 2.9219483407676564e-08, 0))
hIsland = hIsland.add(rect(1e-08, 3.2020512692663543e-09).transl(5.946101593751156e-08, 3.270228669011029e-08, 0))
hIsland = hIsland.sub(rect(1e-08, -4.622821411308689e-10).transl(-8.864070451985889e-08, 7.73581666980043e-09, 0))
hIsland = hIsland.add(rect(1e-08, 4.1007003939317354e-09).transl(-4.791016844748488e-08, 3.63852068681828e-08, 0))
hIsland = hIsland.add(rect(1e-08, 3.4306878332650617e-09).transl(5.337371413602757e-08, 3.4839580993066044e-08, 0))
hIsland = hIsland.add(rect(1e-08, 4.437115463779371e-09).transl(-1.4874511581044728e-08, 4e-08, 0))
hIsland = hIsland.add(rect(1e-08, 1.3746717760790829e-09).transl(7.739342310710711e-08, 2.2610642171086985e-08, 0))
hIsland = hIsland.sub(rect(1e-08, -8.404745747598753e-10).transl(-4.9496017030834564e-08, 3.596981292314921e-08, 0))
hIsland = hIsland.sub(rect(1e-08, -3.271197264052107e-09).transl(-3.623807997503593e-08, 3.869544123636017e-08, 0))
hIsland = hIsland.sub(rect(1e-08, -4.796564779608712e-09).transl(-1.1770252190622892e-08, 4e-08, 0))
hIsland = hIsland.add(rect(1e-08, 3.047468830531352e-09).transl(1.7802853859876587e-08, 4e-08, 0))
hIsland = hIsland.add(rect(1e-08, 2.9034965976675797e-09).transl(8.667309077897518e-08, 1.2018589033867944e-08, 0))
hIsland = hIsland.sub(rect(1e-08, -4.298444335885686e-09).transl(4.0777277934081406e-08, 3.794568734711417e-08, 0))
hIsland = hIsland.sub(rect(1e-08, -3.2949082729038573e-09).transl(8.670896755551375e-08, 1.1955134459944745e-08, 0))
hIsland = hIsland.sub(rect(1e-08, -1.944998604276514e-09).transl(8.336092231335749e-08, 1.677694841904581e-08, 0))
hIsland = hIsland.sub(rect(1e-08, -2.510423417783648e-09).transl(2.6061838663380594e-08, 3.974846358303188e-08, 0))
hIsland = hIsland.sub(rect(1e-08, -4.792803523026163e-09).transl(5.043191343316549e-08, 3.571220263432314e-08, 0))
hIsland = hIsland.add(rect(1e-08, 3.604635120998184e-09).transl(-1.2584713893506966e-09, 4e-08, 0))
hIsland = hIsland.sub(rect(1e-08, -6.889006881175691e-09).transl(-4.880444237262512e-08, 3.615418939111037e-08, 0))
hIsland = hIsland.sub(rect(1e-08, -3.2989598290630296e-09).transl(-5.972059051926802e-08, 3.260023634090068e-08, 0))
hIsland = hIsland.sub(rect(1e-08, -4.612055224834552e-09).transl(1.9387196280996824e-08, 3.999257526183396e-08, 0))
hIsland = hIsland.add(rect(1e-08, 4.371582689796043e-09).transl(4.136676937605858e-08, 3.783489998765629e-08, 0))
hIsland = hIsland.sub(rect(1e-08, -8.154723505631977e-09).transl(-8.73263539339856e-08, 1.0799186215050354e-08, 0))
hIsland = hIsland.sub(rect(1e-08, -3.0061786666641805e-09).transl(-5.304358492524639e-09, 4e-08, 0))
hIsland = hIsland.add(rect(1e-08, 1.4482128780547563e-09).transl(-5.3292843374072354e-08, 3.486488561493275e-08, 0))
hIsland = hIsland.sub(rect(1e-08, -2.951075770477651e-09).transl(-5.638278712785051e-08, 3.384223406137441e-08, 0))
hIsland = hIsland.sub(rect(1e-08, -2.934277695211262e-10).transl(8.50446663125643e-08, 1.4582806541140478e-08, 0))
hIsland = hIsland.sub(rect(1e-08, -4.52569286717776e-09).transl(6.162087627117952e-08, 3.1823292741413385e-08, 0))
hIsland = hIsland.sub(rect(1e-08, -2.791577352343328e-09).transl(-1.4773506712933105e-09, 4e-08, 0))
hIsland = hIsland.sub(rect(1e-08, -4.640949247047327e-09).transl(-4.160669640200032e-09, 4e-08, 0))
hIsland = hIsland.add(rect(1e-08, 2.0850970858960057e-09).transl(6.764959172370063e-08, 2.8968469671062775e-08, 0))
hIsland = hIsland.sub(rect(1e-08, -1.3315506299311247e-09).transl(-7.602556320351883e-08, 2.368148997774815e-08, 0))
hIsland = hIsland.add(rect(1e-08, 4.709102193583907e-10).transl(7.712169628232937e-08, 2.2829379413676168e-08, 0))
hIsland = hIsland.sub(rect(1e-08, -1.5247987588114976e-09).transl(2.7224058286559695e-08, 3.967038867040702e-08, 0))
hIsland = hIsland.add(rect(1e-08, 4.5830380704340443e-10).transl(-4.397019115460693e-08, 3.730732051501742e-08, 0))
hIsland = hIsland.add(rect(1e-08, 4.741296165245644e-09).transl(-4.944043399161621e-09, 4e-08, 0))
hIsland = hIsland.add(rect(1e-08, 1.3837349230675248e-09).transl(4.252549185388317e-08, 3.760787056992255e-08, 0))
hIsland = hIsland.add(rect(1e-08, 7.581500967361165e-09).transl(-7.29115838113366e-08, 2.5871942255843072e-08, 0))
hIsland = hIsland.sub(rect(1e-08, -9.565731023011385e-11).transl(-6.162814604638072e-09, 4e-08, 0))
hIsland = hIsland.sub(rect(1e-08, -7.0781580304452655e-09).transl(3.779901875262429e-08, 3.8457924966465706e-08, 0))
hIsland = hIsland.sub(rect(1e-08, -2.793852069730246e-09).transl(1.4183240304575471e-08, 4e-08, 0))
hIsland = hIsland.sub(rect(1e-08, -4.16169671669941e-09).transl(-5.4307508343403457e-08, 3.454181951846486e-08, 0))
hIsland = hIsland.add(rect(1e-08, 2.5698368060861047e-09).transl(-8.267763830619036e-08, 1.757526234928454e-08, 0))
hIsland = hIsland.sub(rect(1e-08, -1.7933003604665027e-09).transl(8.497944309485909e-08, 1.4675020797328259e-08, 0))
hIsland = hIsland.sub(rect(1e-08, -1.048547920331321e-08).transl(-7.002210254711804e-08, 2.7653616101903596e-08, 0))
hIsland = hIsland.add(rect(1e-08, 9.708543667407258e-10).transl(5.721098571335841e-08, 3.3547913954148316e-08, 0))
hIsland = hIsland.add(rect(1e-08, 2.8964481274606817e-09).transl(7.470525193872891e-08, 2.4648857450828424e-08, 0))
hIsland = hIsland.sub(rect(1e-08, -2.7035650976718175e-09).transl(4.935955316269111e-08, 3.6006594155314663e-08, 0))
hIsland = hIsland.sub(rect(1e-08, -6.464501146017842e-09).transl(-5.690323166341879e-09, 4e-08, 0))
hIsland = hIsland.sub(rect(1e-08, -2.4126898727934513e-09).transl(1.4579368533168872e-08, 4e-08, 0))
hIsland = hIsland.sub(rect(1e-08, -3.580717734163159e-09).transl(4.7464839249123646e-08, 3.649718088226639e-08, 0))
hIsland = hIsland.sub(rect(1e-08, -4.267499543841039e-09).transl(-6.195986000416204e-08, 3.1678997153031084e-08, 0))
hIsland = hIsland.sub(rect(1e-08, -2.1364747800267183e-10).transl(-6.943835667115501e-08, 2.7988619065850414e-08, 0))
hIsland = hIsland.add(rect(1e-08, 2.790728704102057e-09).transl(7.648259949283012e-08, 2.33319150135155e-08, 0))
hIsland = hIsland.sub(rect(1e-08, -1.295420642215425e-09).transl(3.1651976887133595e-08, 3.927437328901386e-08, 0))
hIsland = hIsland.add(rect(1e-08, 3.4582487081492028e-09).transl(-1.938114471348882e-08, 3.999263990650632e-08, 0))
hIsland = hIsland.add(rect(1e-08, 1.5732463156559699e-09).transl(-8.150785735627127e-08, 1.8845964741605076e-08, 0))
hIsland = hIsland.add(rect(1e-08, 2.492274731499541e-09).transl(-9.04491734577075e-09, 4e-08, 0))
hIsland = hIsland.add(rect(1e-08, 2.780429844591846e-10).transl(-8.673030635447602e-09, 4e-08, 0))
hIsland = hIsland.sub(rect(1e-08, -4.36381913011734e-09).transl(7.913641864312568e-08, 2.1128197146424288e-08, 0))
hIsland = hIsland.add(rect(1e-08, 5.977190304712983e-09).transl(7.866673303317149e-08, 2.1542002490984315e-08, 0))
hIsland = hIsland.sub(rect(1e-08, -9.136690295030114e-10).transl(-6.879667999199801e-08, 2.8348020712748476e-08, 0))
hIsland = hIsland.sub(rect(1e-08, -2.077658420303397e-09).transl(1.8428723175864316e-08, 3.999929087503555e-08, 0))
vIsland := hIsland.rotz(pi / 2)
vIslands := Universe().Inverse()
hIslands := Universe().Inverse()
hIslands = hIslands.add(hIsland.transl(-a/2, a, 0))
hIslands = hIslands.add(hIsland.transl(-a/2, -a, 0))
hIslands = hIslands.add(hIsland.transl(a/2, a, 0))
hIslands = hIslands.add(hIsland.transl(a/2, -a, 0))
hIslands = hIslands.add(hIsland.transl(-a/2, 0, 0))
hIslands = hIslands.add(hIsland.transl(a/2, 0, 0))
vIslands = vIslands.add(vIsland.transl(-a, a/2, 0))
vIslands = vIslands.add(vIsland.transl(a, a/2, 0))
vIslands = vIslands.add(vIsland.transl(-a, -a/2, 0))
vIslands = vIslands.add(vIsland.transl(a, -a/2, 0))
vIslands = vIslands.add(vIsland.transl(0, a/2, 0))
vIslands = vIslands.add(vIsland.transl(0, -a/2, 0))
DefRegion(1, hIslands)
DefRegion(2, vIslands)
TableAdd(m_full.Region(1))
TableAdd(m_full.Region(2))
setgeom(hIslands.add(vIslands))
save(m)
r2o2 := sqrt(2) / 2
m = RandomMagSeed(4)
B_ext = vector(Bmax*r2o2, Bmax*r2o2, 0)
relax()
minimize()
for B := Bmax; B >= -Bmax; B -= Bstep {
	B_ext = vector(B*r2o2, B*r2o2, 0)
	minimize()
	tablesave()
}
//********************************************************************//
//Please cite the following references, relevant for your simulation. //
//See bibtex file in output folder for justification.                 //
//********************************************************************//
//   * Vansteenkiste et al., AIP Adv. 4, 107133 (2014).
//   * Exl et al., J. Appl. Phys. 115, 17D118 (2014).
