# t (s)	mx ()	my ()	mz ()	B_extx (T)	B_exty (T)	B_extz (T)	m_fullx (A/m)	m_fully (A/m)	m_fullz (A/m)	m_full.region1x (A/m)	m_full.region1y (A/m)	m_full.region1z (A/m)	m_full.region2x (A/m)	m_full.region2y (A/m)	m_full.region2z (A/m)
0	0.65587765	0.65587455	-5.3206406e-10	0.07071067	0.07071067	0	165843.34	165842.56	-0.00013392857	612130.3	306095.66	-0.00038312146	306098.4	612128.7	-0.0003884181
0	0.6558	0.6557989	-1.7721437e-10	0.07056918	0.07056918	0	165823.7	165823.44	-4.4642857e-05	612194.75	305924.28	-0.00014830509	305925.25	612194.3	-0.000120056495
0	0.65571845	0.65571755	-5.0828114e-10	0.070427895	0.07042789	0	165803.11	165802.9	-0.00013201531	612265.3	305739.75	-0.00033545197	305740.5	612264.94	-0.00039548022
0	0.655637	0.65563613	-2.3909208e-10	0.070286386	0.070286386	0	165782.5	165782.3	-6.1025192e-05	612336	305555.16	-0.00017478813	305555.9	612335.56	-0.0002118644
0	0.6555558	0.65555507	-2.7844965e-10	0.07014501	0.07014502	0	165761.98	165761.78	-7.589286e-05	612406.06	305371.38	-0.00023128532	305372.12	612405.7	-0.00019067797
0	0.6554742	0.65547335	-2.6055985e-10	0.07000352	0.07000352	0	165741.33	165741.12	-6.632653e-05	612476.5	305186.53	-0.00023128532	305187.28	612476.1	-0.00013064971
0	0.6553919	0.65539104	-4.1020287e-10	0.069862224	0.06986222	0	165720.53	165720.31	-0.00010279815	612546.9	305001	-0.0002542373	305001.78	612546.44	-0.00029661017
0	0.6553094	0.65530866	-4.52507e-10	0.069720745	0.069720745	0	165699.67	165699.45	-0.00011021205	612618.25	304814.12	-0.00032838984	304814.9	612617.75	-0.000289548
0	0.6552275	0.65522665	-4.1083428e-10	0.06957926	0.06957926	0	165678.95	165678.75	-0.000102040816	612689.06	304628.72	-0.0002489407	304629.5	612688.56	-0.0003036723
0	0.6551454	0.6551446	-3.9946899e-10	0.06943794	0.06943794	0	165658.2	165657.97	-0.00010331633	612759.44	304443.34	-0.00024011299	304444.12	612759.06	-0.0003742938
0	0.6550619	0.65506107	-2.521411e-10	0.0692964	0.0692964	0	165637.1	165636.88	-5.7756697e-05	612830.3	304255.6	-0.00015183615	304256.34	612829.9	-0.00019774011
0	0.6549795	0.65497863	-5.446922e-10	0.0691551	0.0691551	0	165616.23	165616.02	-0.00013839286	612901.5	304068.97	-0.00038135593	304069.75	612901.1	-0.00039548022
0	0.6548966	0.6548958	-3.4453673e-10	0.0690136	0.0690136	0	165595.28	165595.08	-8.649554e-05	612972.1	303882.3	-0.00020833334	303883.1	612971.75	-0.0002789548
0	0.65481347	0.65481275	-3.8157916e-10	0.068872124	0.068872124	0	165574.27	165574.05	-9.0162626e-05	613043.2	303694.97	-0.00037076272	303695.75	613042.75	-0.00019774011
0	0.65473056	0.65472966	-7.534768e-11	0.06873082	0.06873082	0	165553.28	165553.06	-1.8853636e-05	613113.94	303508.03	-1.059322e-05	303508.8	613113.44	-7.768362e-05
0	0.6546461	0.65464526	1.6416533e-11	0.06858932	0.06858932	0	165531.95	165531.73	5.819515e-06	613185.44	303318.38	6.3559324e-05	303319.16	613185	-5.6497174e-05
0	0.654563	0.6545622	-2.1888712e-10	0.068447955	0.068447955	0	165510.92	165510.7	-6.186224e-05	613256.4	303131.12	-0.00016949153	303131.88	613255.9	-0.00019420905
0	0.6544787	0.65447795	-1.8289702e-10	0.06830648	0.06830648	0	165489.62	165489.4	-5.6122448e-05	613327.56	302941.94	-9.004237e-05	302942.72	613327.25	-0.00016596045
0	0.65439475	0.6543938	-3.872618e-10	0.06816515	0.06816515	0	165468.38	165468.16	-9.921078e-05	613398.4	302753.4	-0.00026659603	302754.2	613397.9	-0.00027542372
0	0.6543101	0.6543091	-3.0959899e-10	0.068023674	0.068023674	0	165446.97	165446.77	-8.0357146e-05	613470.5	302562.88	-0.00023481638	302563.66	613470	-0.00018361582
0	0.65422636	0.6542255	-3.0560007e-10	0.06788219	0.067882195	0	165425.83	165425.6	-7.684949e-05	613540.94	302375.28	-0.00021362994	302376.1	613540.5	-0.0001871469
0	0.65414095	0.65414006	-9.84992e-11	0.06774088	0.06774088	0	165404.22	165404	-2.9336734e-05	613612.56	302184.03	-9.533898e-05	302184.8	613612.2	-6.70904e-05
0	0.65405625	0.6540554	1.4269756e-10	0.067599334	0.067599334	0	165382.81	165382.61	3.7149235e-05	613683.75	301994.25	5.1200564e-05	301995	613683.44	0.00016684322
0	0.6539714	0.6539705	-4.897599e-10	0.06745803	0.06745803	0	165361.31	165361.11	-0.00012866709	613755.5	301803.56	-0.00037076272	301804.34	613755.1	-0.00034604518
0	0.6538863	0.6538854	-4.019946e-10	0.06731653	0.06731653	0	165339.83	165339.61	-0.000101403064	613826.94	301613.1	-0.00022069209	301613.9	613826.56	-0.00035310735
0	0.6538008	0.65379995	-4.2241002e-10	0.06717506	0.06717506	0	165318.2	165317.98	-0.0001075016	613898.44	301421.9	-0.00026659603	301422.7	613898.06	-0.00034957626
0	0.65371525	0.65371436	-2.1173119e-10	0.06703376	0.06703376	0	165296.56	165296.34	-5.229592e-05	613970.06	301230.5	-0.000121822035	301231.28	613969.6	-0.00018008474
0	0.65362936	0.65362865	-1.3133226e-10	0.066892266	0.066892266	0	165274.88	165274.64	-3.3163265e-05	614041.56	301038.78	-0.000109463275	301039.56	614041.1	-6.3559324e-05
0	0.65354365	0.6535427	-4.3377532e-10	0.066750884	0.066750884	0	165253.16	165252.95	-0.00010905612	614113.1	300847.16	-0.00029131357	300847.94	614112.7	-0.00031426555
0	0.65345734	0.6534565	-3.3569705e-10	0.06660941	0.06660941	0	165231.38	165231.14	-8.418367e-05	614184.9	300654.7	-0.00025776835	300655.47	614184.44	-0.00021892655
0	0.6533711	0.6533702	-1.7426782e-10	0.06646809	0.06646809	0	165209.55	165209.31	-4.7751913e-05	614256.44	300462.2	-4.766949e-05	300462.97	614256.1	-0.00021539548
0	0.65328443	0.6532836	6.1667234e-11	0.06632662	0.06632662	0	165187.66	165187.42	1.1041136e-05	614328.4	300269.1	5.826271e-05	300269.88	614328	0
0	0.653198	0.65319705	-2.0226011e-10	0.06618514	0.06618514	0	165165.78	165165.55	-5.835459e-05	614399.9	300076.4	-0.000121822035	300077.22	614399.56	-0.0001588983
0	0.6531109	0.65310997	-2.9434002e-10	0.066043824	0.066043824	0	165143.75	165143.53	-7.453763e-05	614472	299882.5	-0.00019420905	299883.28	614471.5	-0.00022245763
0	0.65302384	0.653023	-3.8284198e-10	0.06590227	0.06590227	0	165121.75	165121.53	-9.693878e-05	614543.94	299688.8	-0.00032309323	299689.56	614543.4	-0.00026129943
0	0.6529367	0.6529358	-3.754756e-10	0.06576097	0.06576097	0	165099.7	165099.48	-9.33514e-05	614615.6	299494.9	-0.00023305084	299495.7	614615.2	-0.00028601696
0	0.65284944	0.6528485	-1.5890363e-10	0.065619476	0.06561947	0	165077.64	165077.4	-3.8265305e-05	614687.44	299300.94	-9.533898e-05	299301.72	614686.94	-0.00012711865
0	0.6527619	0.652761	-2.908673e-10	0.06547816	0.06547816	0	165055.5	165055.27	-7.85236e-05	614758.9	299106.94	-0.00016772599	299107.72	614758.3	-0.0002259887
0	0.6526739	0.65267295	-3.2864636e-10	0.0653367	0.0653367	0	165033.23	165033.02	-8.354592e-05	614831.44	298911.22	-0.0002118644	298912	614830.9	-0.00021892655
0	0.6525855	0.6525846	-2.521411e-10	0.06519521	0.06519521	0	165010.92	165010.69	-6.1941966e-05	614903.3	298715.62	-0.00022775424	298716.4	614902.9	-0.0001341808
0	0.6524977	0.6524968	-3.8378908e-10	0.0650539	0.0650539	0	164988.7	164988.47	-9.29528e-05	614975.2	298520.78	-0.00017125707	298521.56	614974.7	-0.00037076272
0	0.65240914	0.65240824	-3.834734e-10	0.06491236	0.06491235	0	164966.31	164966.1	-9.913106e-05	615047.7	298324.34	-0.0001341808	298325.12	615047.1	-0.0003884181
0	0.6523199	0.6523191	-3.5106126e-10	0.06477103	0.06477103	0	164943.77	164943.53	-8.928571e-05	615120.6	298126.6	-0.00027542372	298127.4	615120.1	-0.00023305084
0	0.6522315	0.6522306	-3.4306347e-10	0.06462956	0.06462956	0	164921.38	164921.16	-8.63361e-05	615192.7	297930.6	-0.0002542373	297931.38	615192.25	-0.00021892655
0	0.6521427	0.6521417	-2.163615e-10	0.06448809	0.06448809	0	164898.92	164898.72	-4.9864477e-05	615264.75	297734.16	-0.00022069209	297734.97	615264.25	-7.768362e-05
0	0.65205324	0.65205234	-4.5787396e-10	0.06434675	0.06434676	0	164876.31	164876.1	-0.00011160714	615337.25	297536.38	-0.0003036723	297537.16	615336.9	-0.00035310735
0	0.6519639	0.65196306	-3.9220782e-10	0.06420529	0.06420529	0	164853.73	164853.5	-0.00010706314	615409.56	297339.12	-0.000384887	297339.94	615409.06	-0.00016949153
0	0.6518746	0.6518737	-1.6753283e-10	0.06406391	0.06406391	0	164831.17	164830.92	-3.9540817e-05	615481.7	297142.06	-0.00014830509	297142.88	615481.2	-5.6497174e-05
0	0.6517842	0.6517832	-3.3022488e-10	0.063922405	0.06392241	0	164808.28	164808.06	-8.330676e-05	615554.4	296942.6	-0.00018185028	296943.4	615554	-0.00027189267
0	0.6516946	0.65169364	4.8828663e-11	0.063781105	0.063781105	0	164785.64	164785.4	9.566326e-06	615626.7	296744.97	6.0028247e-05	296745.78	615626.1	-4.9435028e-05
0	0.65160364	0.6516028	-6.684476e-10	0.06363964	0.06363964	0	164762.64	164762.42	-0.00016729113	615699.4	296544.97	-0.00055614405	296545.78	615698.9	-0.00035663843
0	0.6515139	0.651513	-2.9465572e-10	0.06349815	0.06349815	0	164739.95	164739.7	-7.150829e-05	615771.75	296346.88	-0.00022069209	296347.72	615771.3	-0.00017302259
0	0.6514228	0.6514219	-3.305406e-10	0.06335683	0.06335683	0	164716.94	164716.69	-8.466199e-05	615844.44	296146.7	-0.00025070622	296147.53	615844	-0.00019774011
0	0.65133274	0.6513319	-1.2365017e-10	0.06321529	0.06321529	0	164694.14	164693.9	-3.125e-05	615916.94	295948.03	-5.6497174e-05	295948.88	615916.56	-0.00015183615
0	0.6512412	0.6512402	-1.191251e-10	0.06307396	0.06307396	0	164670.97	164670.75	-3.2047195e-05	615989.75	295747.03	-7.062147e-06	295747.84	615989.3	-0.00016242938
0	0.6511501	0.6511493	-5.013357e-10	0.0629325	0.06293249	0	164647.95	164647.73	-0.0001200574	616063	295546.34	-0.00027189267	295547.22	616062.5	-0.0003742938
0	0.6510591	0.6510582	2.3151522e-11	0.06279103	0.06279103	0	164624.95	164624.72	8.410396e-06	616135.44	295346.47	-3.35452e-05	295347.3	616135	7.062147e-05
0	0.650967	0.6509661	-1.837389e-10	0.06264969	0.06264969	0	164601.67	164601.42	-4.9665177e-05	616208.75	295144.28	-0.00019420905	295145.1	616208.25	-8.121469e-05
0	0.6508755	0.6508746	-2.0552238e-10	0.062508225	0.062508225	0	164578.52	164578.28	-5.2933672e-05	616281.4	294943.44	-0.0001394774	294944.25	616281	-0.00013064971
0	0.65078354	0.6507825	-2.2593781e-10	0.06236684	0.06236684	0	164555.25	164555.02	-5.6720346e-05	616354.25	294741.75	-9.180791e-05	294742.56	616353.94	-0.00021539548
0	0.6506914	0.65069044	-1.3933006e-10	0.062225346	0.062225346	0	164531.95	164531.73	-3.3003827e-05	616427.25	294539.8	-0.00011475989	294540.66	616426.75	-6.70904e-05
0	0.65059835	0.65059733	-3.8757753e-10	0.062084038	0.062084038	0	164508.44	164508.22	-0.000100765305	616500.2	294336.66	-0.000289548	294337.47	616499.75	-0.0002648305
0	0.65050626	0.65050536	-2.3193615e-10	0.061942577	0.061942577	0	164485.16	164484.94	-6.0825892e-05	616573.4	294134.62	-0.000100635596	294135.44	616572.9	-0.00023305084
0	0.650414	0.6504131	-1.4353943e-10	0.061801083	0.06180108	0	164461.81	164461.6	-3.635204e-05	616645.9	293932.9	-0.000120056495	293933.72	616645.44	-9.533898e-05
0	0.65032023	0.65031934	-4.0767725e-10	0.061659772	0.061659772	0	164438.11	164437.88	-0.00010267857	616719.3	293728.22	-0.00021009886	293729.06	616718.9	-0.00034957626
0	0.6502272	0.6502263	-8.797578e-11	0.061518237	0.061518237	0	164414.6	164414.36	-2.7582908e-05	616792.56	293524.7	-0.00020480226	293525.53	616792.2	2.9131355e-05
0	0.65013397	0.6501331	-1.969984e-10	0.061376892	0.061376892	0	164391.02	164390.78	-5.1259565e-05	616865.7	293320.94	-0.0001341808	293321.8	616865.25	-0.0001588983
0	0.6500395	0.6500386	-8.313501e-11	0.06123543	0.06123543	0	164367.16	164366.92	-2.4234694e-05	616938.75	293115.78	-5.826271e-05	293116.62	616938.3	-6.0028247e-05
0	0.64994633	0.6499454	-2.8539512e-10	0.061093967	0.061093967	0	164343.56	164343.34	-7.589286e-05	617012.44	292911.62	-0.00019420905	292912.44	617012	-0.00023658192
0	0.649852	0.64985096	-4.4766624e-10	0.060952656	0.060952656	0	164319.72	164319.47	-0.000112244896	617085.75	292706.16	-0.00023481638	292706.97	617085.3	-0.000384887
0	0.64975816	0.64975727	-6.149886e-10	0.060811166	0.060811166	0	164296.02	164295.77	-0.00015497449	617158.44	292502.2	-0.0004661017	292503.03	617158	-0.0003742938
0	0.64966285	0.64966196	-1.4564412e-10	0.060669772	0.060669776	0	164271.89	164271.67	-3.260523e-05	617232.06	292295.1	-0.00014124294	292295.94	617231.7	-1.4124294e-05
0	0.6495688	0.6495679	-2.1257306e-10	0.060528316	0.060528316	0	164248.1	164247.86	-5.229592e-05	617305.9	292089.53	-0.00026129943	292090.34	617305.44	-3.1779662e-05
0	0.6494738	0.6494729	-3.6789874e-10	0.060386974	0.060386974	0	164224.1	164223.84	-9.630102e-05	617379.3	291883.16	-0.00018361582	291884.03	617378.9	-0.00035663843
0	0.6493791	0.6493781	-2.5929706e-10	0.06024551	0.06024551	0	164200.14	164199.89	-7.027264e-05	617452.2	291677.56	-0.00023305084	291678.4	617451.75	-0.000144774
0	0.64928305	0.6492821	-3.401169e-10	0.060104053	0.06010405	0	164175.84	164175.6	-8.410395e-05	617526.6	291468.66	-0.00015713277	291469.53	617526.2	-0.0003036723
0	0.6491881	0.6491871	-5.2806515e-10	0.059962712	0.059962712	0	164151.83	164151.6	-0.00013042091	617599.9	291262.5	-0.00036193503	291263.38	617599.4	-0.00035663843
0	0.6490924	0.64909154	-1.8521218e-11	0.059821166	0.059821166	0	164127.66	164127.4	-5.1020406e-06	617673.44	291055.12	3.0014124e-05	291055.97	617672.9	-9.180791e-05
0	0.6489961	0.6489952	-2.0478573e-10	0.05967985	0.05967985	0	164103.31	164103.08	-5.5484696e-05	617747.06	290846.7	-9.533898e-05	290847.5	617746.7	-0.0002118644
0	0.6489002	0.6488993	-3.6831965e-10	0.059538368	0.059538364	0	164079.08	164078.83	-0.00010072545	617820.6	290638.97	-0.00017478813	290639.78	617820.1	-0.00034957626
0	0.6488036	0.6488026	1.3049039e-11	0.059396908	0.059396908	0	164054.61	164054.39	-2.1125638e-06	617894.2	290429.94	-5.29661e-06	290430.8	617893.75	2.427613e-05
0	0.648707	0.64870596	-2.8623699e-11	0.059255596	0.059255596	0	164030.19	164029.95	-9.247449e-06	617967.7	290221.16	-5.29661e-06	290222.03	617967.25	-6.0028247e-05
0	0.64861006	0.6486091	-2.2478022e-10	0.059114102	0.059114102	0	164005.7	164005.45	-5.863361e-05	618042.1	290011.12	-0.00019420905	290012	618041.7	-0.00014830509
0	0.6485133	0.64851236	-2.576133e-10	0.058972713	0.058972713	0	163981.22	163980.98	-6.501116e-05	618116	289801.75	-0.00017655367	289802.62	618115.56	-0.0001341808
0	0.6484156	0.6484147	-2.8707886e-10	0.058831252	0.058831252	0	163956.53	163956.28	-7.461735e-05	618190.25	289590.78	-0.00031073447	289591.62	618189.75	-0.0001341808
0	0.6483187	0.64831775	-9.576311e-11	0.0586899	0.0586899	0	163932.02	163931.78	-2.34375e-05	618263.4	289382.03	3.884181e-05	289382.9	618262.9	-0.00017655367
0	0.64822	0.64821905	-3.308563e-10	0.05854845	0.05854845	0	163907.06	163906.81	-9.0322064e-05	618337.8	289169.22	-0.0002648305	289170.1	618337.44	-0.0002118644
0	0.6481231	0.6481221	-1.8710639e-10	0.058406994	0.058406986	0	163882.53	163882.3	-4.655612e-05	618411.3	288960.03	-3.5310735e-05	288960.9	618410.9	-0.00021539548
0	0.6480253	0.64802426	-5.8299743e-10	0.05826565	0.05826565	0	163857.81	163857.56	-0.00015242347	618485.2	288749.28	-0.0004961158	288750.2	618484.7	-0.00036016948
0	0.6479259	0.6479251	-2.5256206e-12	0.058124106	0.058124106	0	163832.72	163832.47	6.377551e-07	618560.44	288535.03	-5.6497174e-05	288535.9	618560	9.533898e-05
0	0.6478279	0.64782697	1.43118494e-11	0.057982784	0.05798278	0	163807.92	163807.67	6.377551e-07	618634	288324.25	1.7655368e-05	288325.1	618633.44	-2.8248587e-05
0	0.647729	0.6477282	-1.4859068e-10	0.05784131	0.05784131	0	163782.92	163782.67	-4.1135205e-05	618707.9	288112.06	-0.00014124294	288112.97	618707.3	-6.70904e-05
0	0.6476299	0.64762896	0	0.057699848	0.057699848	0	163757.84	163757.6	2.5510203e-06	618782	287899	-5.29661e-05	287899.84	618781.5	6.0028247e-05
0	0.6475301	0.6475292	-1.2080885e-10	0.05755853	0.05755853	0	163732.61	163732.36	-2.8061224e-05	618856.7	287684.62	-4.237288e-05	287685.5	618856.2	-0.00012358757
0	0.64743125	0.64743024	-1.6248158e-10	0.05741706	0.05741706	0	163707.61	163707.38	-3.388074e-05	618931	287471.8	-0.00020127119	287472.7	618930.56	1.4124294e-05
0	0.64733195	0.647331	1.0944356e-11	0.057275645	0.057275645	0	163682.53	163682.27	2.2321428e-06	619004.8	287259.1	5.4731638e-05	287259.94	619004.4	-1.4124294e-05
0	0.64723176	0.6472307	-1.1786229e-10	0.057134192	0.05713419	0	163657.16	163656.9	-3.0373087e-05	619079.9	287043.62	-0.00012711865	287044.47	619079.3	-1.059322e-05
0	0.6471315	0.64713055	-1.071284e-10	0.056992844	0.056992844	0	163631.81	163631.58	-2.327806e-05	619154.06	286829.16	-3.0014124e-05	286830.03	619153.56	-0.00011299435
0	0.6470315	0.6470304	-1.5995597e-10	0.056851387	0.056851387	0	163606.53	163606.28	-3.8185586e-05	619228.4	286614.75	-0.000121822035	286615.62	619227.94	-8.8276836e-05
0	0.6469306	0.6469296	-4.8744475e-10	0.056709927	0.056709927	0	163581.02	163580.77	-0.00011989796	619303	286398.84	-0.00038135593	286399.75	619302.56	-0.00031426555
0	0.64682984	0.64682895	-4.040993e-11	0.056568585	0.056568585	0	163555.53	163555.28	-1.0044643e-05	619377	286183.88	0.000121822035	286184.75	619376.5	-0.00019067797
0	0.6467285	0.6467275	-2.0310198e-10	0.056427047	0.056427047	0	163529.92	163529.66	-5.3890308e-05	619451.5	285967.47	-9.180791e-05	285968.4	619451	-0.00017655367
0	0.646627	0.64662594	-3.367494e-10	0.05628571	0.05628571	0	163504.25	163504	-8.4821426e-05	619526.44	285750.44	-0.00030190678	285751.34	619525.9	-0.00018361582
0	0.6465263	0.6465253	-2.2583257e-10	0.05614425	0.05614424	0	163478.8	163478.56	-5.628189e-05	619601	285535	-0.0001871469	285535.88	619600.5	-0.0001588983
0	0.646424	0.64642304	-2.4288052e-10	0.056002792	0.056002792	0	163452.92	163452.67	-6.317761e-05	619675.3	285317.4	-0.00016949153	285318.28	619674.8	-0.00016242938
0	0.6463219	0.6463209	-1.8942153e-10	0.05586147	0.05586147	0	163427.11	163426.88	-5.2335778e-05	619750.4	285099.47	-6.3559324e-05	285100.3	619749.9	-0.0002259887
0	0.6462206	0.6462196	-1.3385788e-10	0.055719994	0.055719994	0	163401.52	163401.25	-3.762755e-05	619824.9	284883.06	-0.00013064971	284883.97	619824.5	-8.474576e-05
0	0.64611757	0.6461165	-7.282206e-11	0.055578664	0.055578664	0	163375.42	163375.19	-1.7378827e-05	619899.9	284663.78	-5.6497174e-05	284664.72	619899.3	-4.237288e-05
0	0.6460156	0.6460146	-1.9194717e-10	0.055437125	0.055437125	0	163349.66	163349.4	-4.5679208e-05	619974.5	284446.4	-0.00012358757	284447.3	619974	-0.00016242938
0	0.6459121	0.6459111	-1.8731686e-10	0.05529578	0.05529578	0	163323.5	163323.25	-4.7552614e-05	620049.4	284226.8	-0.00014830509	284227.72	620048.75	-7.613877e-05
0	0.6458093	0.6458083	-3.401169e-10	0.055154327	0.055154327	0	163297.48	163297.23	-8.765147e-05	620124.1	284008.03	-0.00031956215	284008.88	620123.6	-0.00016242938
0	0.6457061	0.64570504	-1.5995597e-11	0.05501287	0.05501287	0	163271.39	163271.14	-4.5838647e-06	620199.2	283788.44	-3.5310735e-05	283789.34	620198.75	1.059322e-05
0	0.6456024	0.6456014	-1.5827221e-10	0.054871522	0.054871522	0	163245.19	163244.94	-4.0258292e-05	620273.56	283568.97	-8.8276836e-05	283569.84	620273	-0.0001351739
0	0.6454982	0.6454972	4.0830866e-11	0.05473008	0.05473008	0	163218.84	163218.6	1.1080995e-05	620348.6	283348	7.591808e-05	283348.9	620348.1	-1.4124294e-05
0	0.6453946	0.6453936	-1.8310749e-10	0.05458865	0.05458865	0	163192.66	163192.4	-4.5041455e-05	620423.44	283128.2	-0.00020303672	283129.12	620423	-7.768362e-05
0	0.64529014	0.6452892	-3.0938851e-10	0.054447185	0.054447185	0	163166.23	163165.98	-7.8443874e-05	620498.5	282906.75	-0.0002683616	282907.66	620498.1	-0.00019420905
0	0.64518607	0.64518505	-2.7213562e-10	0.054305855	0.054305855	0	163139.89	163139.64	-7.366071e-05	620573.4	282686.12	-8.8276836e-05	282687.06	620572.9	-0.00032485876
0	0.6450808	0.64507985	-2.1530915e-10	0.05416441	0.054164406	0	163113.28	163113.05	-5.994898e-05	620649.44	282462.78	-0.00017655367	282463.7	620649	-0.00014830509
0	0.6449768	0.6449757	-4.432464e-10	0.054022938	0.054022938	0	163086.98	163086.73	-0.00011176658	620723.8	282242.75	-0.00032485876	282243.7	620723.3	-0.00030014126
0	0.6448712	0.6448701	-5.3416876e-10	0.0538816	0.0538816	0	163060.28	163060.02	-0.00013464605	620799.4	282019.3	-0.0003654661	282020.25	620798.9	-0.00037076272
0	0.6447656	0.6447646	-3.9904804e-10	0.053740066	0.05374007	0	163033.58	163033.33	-0.00010538903	620874	281796.94	-0.00029661017	281797.84	620873.56	-0.00024364407
0	0.6446599	0.6446589	-2.2941053e-10	0.05359871	0.05359871	0	163006.86	163006.61	-6.3137755e-05	620949.2	281573.72	-2.648305e-05	281574.6	620948.7	-0.00031073447
0	0.64455396	0.644553	-2.769764e-10	0.053457264	0.053457264	0	162980.06	162979.81	-6.760204e-05	621024.56	281350.03	-0.00014124294	281350.94	621024.06	-0.0002259887
0	0.6444478	0.64444673	-1.9615654e-10	0.053315822	0.05331583	0	162953.23	162952.97	-4.9107144e-05	621099.9	281126.2	-0.0001341808	281127.1	621099.4	-0.00012711865
0	0.64434165	0.64434063	-1.4816974e-10	0.053174462	0.053174462	0	162926.38	162926.11	-3.3163265e-05	621175.06	280902.22	-0.00013064971	280903.2	621174.6	-8.121469e-05
0	0.64423436	0.64423335	-1.5195817e-10	0.053033024	0.053033024	0	162899.25	162899	-3.4598215e-05	621250.94	280676.2	-0.00011299435	280677.06	621250.44	-0.000120056495
0	0.6441283	0.64412725	-1.8942153e-11	0.052891586	0.052891586	0	162872.45	162872.19	-5.739796e-06	621326.1	280452.6	1.7655368e-05	280453.53	621325.6	-2.8248587e-05
0	0.6440205	0.6440195	-2.5382488e-10	0.052750126	0.052750126	0	162845.19	162844.94	-6.664541e-05	621401.25	280226.62	-0.00018538136	280227.56	621400.7	-0.00016596045
0	0.6439133	0.6439123	-3.1612352e-10	0.052608773	0.052608777	0	162818.08	162817.81	-8.354592e-05	621477	280000.75	-0.00012535311	280001.62	621476.5	-0.00031073447
0	0.6438058	0.6438048	-2.8350092e-10	0.05246734	0.05246734	0	162790.89	162790.62	-6.951531e-05	621552.25	279774.84	-0.00025247174	279775.8	621551.75	-0.00012711865
0	0.64369786	0.6436968	-5.2196157e-11	0.052325882	0.052325882	0	162763.6	162763.33	-1.3392857e-05	621627.8	279548.28	2.2951977e-05	279549.16	621627.25	-9.986317e-05
0	0.6435901	0.64358914	-1.5616754e-10	0.05218454	0.05218454	0	162736.34	162736.1	-3.8743623e-05	621703.25	279321.97	-1.2358757e-05	279322.9	621702.75	-0.00020127119
0	0.64348185	0.6434808	-9.05014e-12	0.052043002	0.052043002	0	162708.95	162708.7	-1.2755102e-06	621778.8	279094.75	-3.35452e-05	279095.7	621778.3	2.8248587e-05
0	0.64337265	0.6433717	-2.3909208e-10	0.051901635	0.051901635	0	162681.38	162681.12	-6.0188137e-05	621854.5	278866.3	-0.00012535311	278867.28	621853.94	-0.00018593308
0	0.6432642	0.64326316	-1.6227111e-10	0.0517602	0.0517602	0	162653.97	162653.7	-4.288903e-05	621930.2	278638.78	-7.2387e-05	278639.72	621929.7	-0.0001059322
0	0.6431551	0.6431541	-4.386161e-10	0.051618766	0.051618766	0	162626.38	162626.11	-0.00010666454	622005.7	278410.53	-0.00032132768	278411.44	622005.2	-0.00028248588
0	0.6430461	0.643045	-8.376642e-11	0.05147742	0.05147742	0	162598.8	162598.53	-2.0248724e-05	622081.7	278181.97	-3.5310734e-06	278182.94	622081.1	-5.6497174e-05
0	0.64293617	0.6429351	-1.2080885e-10	0.05133596	0.05133596	0	162571	162570.73	-2.869898e-05	622157.44	277952.28	-3.884181e-05	277953.2	622156.94	-8.8276836e-05
0	0.6428265	0.6428255	8.9238596e-11	0.051194515	0.051194515	0	162543.28	162543.02	2.2959184e-05	622232.9	277723.38	9.180791e-05	277724.3	622232.25	4.237288e-05
0	0.6427163	0.6427153	7.3032524e-11	0.05105309	0.05105309	0	162515.42	162515.14	2.2321428e-05	622309	277492.9	6.3559324e-05	277493.84	622308.5	4.237288e-05
0	0.64260554	0.6426045	-2.2877912e-10	0.05091171	0.050911706	0	162487.4	162487.16	-5.707908e-05	622384.75	277262.06	-0.000144774	277263	622384.25	-0.0001341808
0	0.6424956	0.6424945	-1.2543916e-10	0.05077028	0.05077028	0	162459.61	162459.33	-3.635204e-05	622460.56	277032.28	-0.00013241525	277033.25	622460.1	-7.4152544e-05
0	0.6423845	0.64238346	-7.408487e-11	0.050628845	0.050628845	0	162431.52	162431.25	-1.9610969e-05	622536.1	276801.25	-6.3559324e-05	276802.2	622535.56	-3.5310734e-06
0	0.64227366	0.6422726	-1.2038791e-10	0.050487474	0.050487474	0	162403.48	162403.22	-3.0771684e-05	622611.94	276570.2	-4.9435028e-05	276571.2	622611.4	-0.00014830509
0	0.6421622	0.6421612	-1.2228213e-10	0.050345942	0.050345942	0	162375.31	162375.05	-2.7503189e-05	622688.1	276338.16	2.4717514e-05	276339.06	622687.5	-0.00017302259
0	0.64205045	0.6420494	-3.0433728e-10	0.05020459	0.05020459	0	162347.03	162346.78	-8.0516584e-05	622764.4	276105.3	-0.00025247174	276106.28	622763.9	-0.00016949153
0	0.6419387	0.6419376	-3.135979e-11	0.050063137	0.050063137	0	162318.8	162318.52	-1.2755102e-06	622840.06	275873.12	-1.9420904e-05	275874.06	622839.56	1.7655368e-05
0	0.64182615	0.64182514	-1.7489922e-10	0.04992171	0.04992171	0	162290.31	162290.06	-3.9859693e-05	622916.3	275639.38	-0.00013594633	275640.3	622915.8	-6.3559324e-05
0	0.64171404	0.64171296	-1.757411e-10	0.049780354	0.049780354	0	162261.97	162261.7	-4.6237245e-05	622992.56	275406.1	-0.0002259887	275407.1	622992	-1.059322e-05
0	0.6416017	0.64160055	-2.1762431e-10	0.0496389	0.0496389	0	162233.58	162233.3	-5.580357e-05	623068.2	275173.22	-0.00012711865	275174.12	623067.7	-0.00019067797
0	0.64148873	0.6414876	-4.600839e-10	0.049497455	0.049497455	0	162204.98	162204.72	-0.00010794005	623144.7	274938.5	-0.00034427966	274939.47	623144.1	-0.000289548
0	0.6413751	0.6413741	-3.613742e-10	0.04935602	0.04935602	0	162176.3	162176.03	-8.737245e-05	623220.9	274703.5	-0.00025776835	274704.47	623220.3	-0.00022201624
0	0.64126205	0.641261	-2.9107777e-10	0.04921464	0.04921464	0	162147.67	162147.4	-7.52551e-05	623297	274468.9	-0.00029484462	274469.9	623296.5	-0.00012358757
0	0.6411488	0.64114773	-1.551152e-10	0.049073216	0.049073216	0	162119.05	162118.78	-3.890306e-05	623372.44	274234.94	-0.00020833334	274235.88	623372	-1.7655368e-05
0	0.64103454	0.64103353	-2.3235709e-10	0.04893179	0.04893179	0	162090.19	162089.9	-6.034758e-05	623449.56	273997.97	-0.00024364407	273998.88	623449.06	-9.169756e-05
0	0.6409204	0.6409193	-1.1996698e-10	0.048790418	0.048790418	0	162061.31	162061.05	-3.0612246e-05	623525.4	273762.28	0	273763.25	623524.8	-0.00016596045
0	0.64080584	0.64080477	-1.3027993e-10	0.048648883	0.048648883	0	162032.34	162032.06	-3.380102e-05	623601.44	273525.8	-2.8248587e-05	273526.78	623600.9	-0.00016242938
0	0.6406912	0.64069	-5.783671e-10	0.04850753	0.04850753	0	162003.34	162003.06	-0.00015178572	623678.06	273288.62	-0.00036723164	273289.56	623677.6	-0.00048375706
0	0.640576	0.64057493	-2.3614552e-10	0.048366077	0.048366077	0	161974.22	161973.95	-5.484694e-05	623754.6	273050.88	-0.00011299435	273051.84	623754.06	-0.00017655367
0	0.64046115	0.6404601	-2.336199e-10	0.04822465	0.048224654	0	161945.19	161944.9	-6.122449e-05	623830.9	272813.8	-0.00011652542	272814.84	623830.3	-0.00018008474
0	0.64034575	0.6403446	-9.934108e-11	0.04808329	0.04808329	0	161916	161915.72	-2.4234694e-05	623907	272576	-0.00015007063	272577	623906.5	1.059322e-05
0	0.6402298	0.6402288	-1.9194717e-10	0.04794185	0.04794185	0	161886.69	161886.42	-4.950574e-05	623983.7	272337.12	-0.00013064971	272338.12	623983.1	-0.0001341808
0	0.64011323	0.64011216	-2.4708988e-10	0.047800384	0.047800384	0	161857.22	161856.94	-6.505102e-05	624060.4	272097.22	-0.00023658192	272098.22	624059.8	-9.8870056e-05
0	0.6399976	0.6399965	-7.282206e-11	0.047658965	0.047658965	0	161827.97	161827.69	-1.8734056e-05	624136.56	271859.16	-4.5903955e-05	271860.12	624136.06	-5.6497174e-05
0	0.6398809	0.63987976	6.734988e-11	0.04751758	0.04751758	0	161798.45	161798.17	1.9132653e-05	624213	271619.3	-1.059322e-05	271620.3	624212.44	0.00011652542
0	0.63976353	0.63976246	-8.797578e-11	0.047376156	0.047376156	0	161768.8	161768.52	-1.9292092e-05	624289.75	271378.25	-8.474576e-05	271379.25	624289.25	-4.9435028e-05
0	0.6396468	0.6396457	-3.0054884e-10	0.047234733	0.047234733	0	161739.27	161738.98	-7.3820156e-05	624365.9	271138.6	-3.884181e-05	271139.6	624365.44	-0.00035663843
0	0.63952935	0.6395283	-2.3951302e-10	0.047093347	0.047093347	0	161709.58	161709.3	-6.505102e-05	624443	270897.2	-0.00016242938	270898.16	624442.44	-0.0001588983
0	0.6394125	0.6394114	-5.6152966e-10	0.046951823	0.04695183	0	161680.03	161679.75	-0.00014461097	624519	270657.56	-0.00040077683	270658.53	624518.4	-0.0003884181
0	0.63929415	0.639293	-2.5172017e-10	0.046810463	0.046810456	0	161650.08	161649.81	-6.505102e-05	624596.1	270414.7	-0.00018891243	270415.66	624595.56	-0.00015536723
0	0.639176	0.6391748	-2.9255104e-10	0.046669025	0.04666902	0	161620.22	161619.95	-7.461735e-05	624672.4	270172.9	-0.00027189267	270173.94	624671.9	-0.00013064971
0	0.6390572	0.63905615	4.8828663e-11	0.046527658	0.046527658	0	161590.19	161589.92	1.2755102e-05	624749.56	269929.62	1.7655368e-05	269930.56	624749	5.6497174e-05
0	0.63893896	0.63893783	-4.0157366e-10	0.046386234	0.046386234	0	161560.27	161559.98	-9.893176e-05	624825.75	269687.66	-0.00027542372	269688.66	624825.3	-0.00025070622
0	0.6388197	0.6388185	-1.9784027e-10	0.0462448	0.0462448	0	161530.1	161529.83	-5.4209184e-05	624902.4	269444.1	-0.00022951978	269445.06	624901.8	-4.9435028e-05
0	0.6387001	0.63869894	-4.0157366e-10	0.04610342	0.04610342	0	161499.88	161499.6	-9.5663265e-05	624979.6	269199.53	-0.00030014126	269200.53	624979	-0.00024364407
0	0.63858056	0.6385795	-8.671297e-11	0.045961898	0.045961898	0	161469.66	161469.36	-2.5510204e-05	625056.44	268955.28	-1.9420904e-05	268956.3	625055.9	-0.0001059322
0	0.6384611	0.63846004	-1.7468875e-10	0.045820512	0.045820512	0	161439.45	161439.14	-4.336735e-05	625133.06	268711.4	-6.3559324e-05	268712.4	625132.56	-0.00020127119
0	0.63834083	0.63833976	-2.4751082e-10	0.045679096	0.045679096	0	161409.03	161408.75	-5.994898e-05	625209.75	268466.4	-0.00016949153	268467.47	625209.2	-0.00014830509
0	0.6382203	0.63821924	-2.4582705e-10	0.045537677	0.045537677	0	161378.58	161378.3	-6.0586735e-05	625286.94	268220.66	-0.00028248588	268221.66	625286.3	-7.768362e-05
0	0.6380999	0.6380988	-6.3140514e-11	0.045396283	0.045396283	0	161348.12	161347.83	-1.8734056e-05	625363.6	267975.25	-7.944915e-05	267976.25	625363.1	3.1779662e-05
0	0.63797885	0.63797766	-4.1588552e-10	0.045254868	0.04525487	0	161317.5	161317.2	-9.988839e-05	625440.56	267728.8	-0.00031073447	267729.88	625439.94	-0.00023658192
0	0.63785774	0.63785666	-1.3343696e-10	0.045113392	0.045113385	0	161286.88	161286.6	-3.507653e-05	625517.06	267482.84	-9.533898e-05	267483.9	625516.44	-9.8870056e-05