# t (s)	mx ()	my ()	mz ()	B_extx (T)	B_exty (T)	B_extz (T)	m_fullx (A/m)	m_fully (A/m)	m_fullz (A/m)	m_full.region1x (A/m)	m_full.region1y (A/m)	m_full.region1z (A/m)	m_full.region2x (A/m)	m_full.region2y (A/m)	m_full.region2z (A/m)
0	0.65073025	0.6507309	-2.9864541e-10	0.070710756	0.070710756	0	120797.13	120797.266	-5.536332e-05	624514.94	286508.03	-0.00021203027	286507.25	624515.2	-0.00020387526
0	0.65050733	0.65050685	-2.6131472e-10	0.070357226	0.070357226	0	120755.766	120755.68	-5.1903113e-05	624700.2	286009.78	-0.00018267223	286010.03	624699.8	-0.00020876827
0	0.65027785	0.6502773	-3.297543e-10	0.07000352	0.07000352	0	120713.16	120713.08	-6.0553633e-05	624889.94	285498.78	-0.0002348643	285499.06	624889.4	-0.00016962421
0	0.6500483	0.6500478	-5.039641e-10	0.06965	0.06965001	0	120670.555	120670.45	-9.8615914e-05	625081.2	284986.1	-0.00036534446	284986.4	625080.75	-0.00036534446
0	0.64981717	0.6498167	-1.2443559e-10	0.06929647	0.06929647	0	120627.64	120627.54	-2.0761247e-05	625271.9	284471.78	2.6096033e-05	284472.16	625271.44	-0.00014352819
0	0.6495817	0.6495811	6.221779e-12	0.068942994	0.068942994	0	120583.93	120583.83	8.650519e-07	625463.7	283950.34	-5.2192067e-05	283950.62	625463.2	6.5240085e-05
0	0.6493506	0.6493499	-9.954847e-11	0.068589285	0.068589285	0	120541.03	120540.914	-2.1626298e-05	625654.3	283436	-5.2192067e-05	283436.34	625653.94	-0.00010438413
0	0.64911544	0.64911485	-3.8575032e-10	0.06823578	0.06823578	0	120497.375	120497.266	-6.920415e-05	625846.06	282915.12	-0.0003131524	282915.5	625845.6	-0.0002348643
0	0.6488781	0.6488775	-1.5367795e-09	0.06788224	0.06788223	0	120453.33	120453.24	-0.00028373703	626037.8	282391.25	-0.0011482255	282391.56	626037.3	-0.0009916492
0	0.64864075	0.6486402	-3.3597608e-10	0.067528725	0.067528725	0	120409.27	120409.19	-5.882353e-05	626230.44	281866.38	-0.0002348643	281866.72	626230	-0.00026096034
0	0.64840156	0.648401	-1.1199203e-10	0.06717501	0.06717501	0	120364.875	120364.76	-2.249135e-05	626422.94	281338.97	0	281339.28	626422.44	-0.00022181628
0	0.6481612	0.6481606	6.221779e-12	0.06682165	0.06682165	0	120320.23	120320.125	1.7301038e-06	626615.6	280809.6	0.00010438413	280809.9	626615.2	-5.2192067e-05
0	0.6479202	0.64791965	-3.919721e-10	0.06646814	0.06646814	0	120275.51	120275.4	-7.179931e-05	626808.44	280279.53	-0.00026096034	280279.88	626807.94	-0.0002348643
0	0.6476764	0.6476758	-3.3597608e-10	0.06611443	0.06611444	0	120230.27	120230.16	-6.228374e-05	627001.3	279745.3	-0.0003131524	279745.62	627000.9	-0.00016962421
0	0.6474329	0.6474323	-5.5373833e-10	0.06576095	0.06576094	0	120185.06	120184.945	-0.000103806226	627195.3	279210.5	-0.0003914405	279210.8	627194.8	-0.00033924842
0	0.64718604	0.64718544	-2.9864541e-10	0.06540737	0.065407366	0	120139.23	120139.11	-5.7958478e-05	627388.75	278671.34	-0.00018267223	278671.7	627388.25	-0.00018267223
0	0.64694077	0.6469401	1.3687915e-10	0.0650539	0.0650539	0	120093.69	120093.57	2.9411765e-05	627582.6	278134.06	0.00010438413	278134.38	627582.1	7.82881e-05
0	0.6466915	0.646691	-1.4932271e-10	0.06470021	0.06470021	0	120047.44	120047.33	-2.681661e-05	627777.1	277590.75	5.2192067e-05	277591.1	627776.6	-0.0002348643
0	0.6464428	0.6464421	-1.7420981e-10	0.06434671	0.064346716	0	120001.25	120001.13	-3.114187e-05	627971.3	277048.25	-0.0001565762	277048.6	627970.8	-9.1336115e-05
0	0.6461912	0.6461906	-5.35073e-10	0.06399313	0.06399313	0	119954.55	119954.42	-9.6885815e-05	628166.5	276500.75	-0.00044526358	276501.06	628166.06	-0.00028705638
0	0.6459392	0.6459386	-2.0531872e-10	0.06363964	0.06363964	0	119907.78	119907.664	-3.546713e-05	628361.25	275953.3	-0.00013048017	275953.7	628360.7	-0.00013048017
0	0.64568555	0.64568496	-3.4219785e-10	0.06328593	0.06328593	0	119860.695	119860.58	-6.228374e-05	628556.2	275403.16	-0.0002348643	275403.53	628555.75	-0.0002479123
0	0.6454275	0.645427	-4.479681e-10	0.06293254	0.06293254	0	119812.79	119812.68	-8.217993e-05	628753.3	274844.97	-0.0002348643	274845.28	628752.8	-0.00032620042
0	0.64517343	0.64517283	-1.7420981e-10	0.06257906	0.06257906	0	119765.625	119765.51	-3.2871973e-05	628947.7	274294.8	-0.00018267223	274295.16	628947.2	-0.00010438413
0	0.64491487	0.64491415	-1.1199203e-10	0.062225346	0.062225346	0	119717.6	119717.49	-2.1626298e-05	629142.9	273737.44	-0.0001565762	273737.78	629142.4	-1.3048017e-05
0	0.64465547	0.64465487	-1.8665338e-11	0.06187188	0.06187188	0	119669.48	119669.34	-2.5951558e-06	629340.3	273177.03	-5.708507e-05	273177.4	629339.75	5.2192067e-05
0	0.6443948	0.64439416	-1.4932271e-10	0.061518256	0.061518256	0	119621.086	119620.96	-2.681661e-05	629536.6	272615.75	3.914405e-05	272616.12	629536.06	-0.00016962421
0	0.644132	0.6441314	-1.3687915e-10	0.061164834	0.061164834	0	119572.305	119572.17	-2.5951556e-05	629732.94	272051.53	-2.6096033e-05	272051.9	629732.44	-0.00013048017
0	0.64386886	0.64386827	-1.804316e-10	0.060811136	0.060811136	0	119523.445	119523.32	-3.2871973e-05	629930	271486.06	0	271486.44	629929.44	-0.00019572025
0	0.6436036	0.64360285	-6.3462147e-10	0.060457654	0.060457654	0	119474.195	119474.086	-0.00011937716	630127.2	270917.44	-0.0004958246	270917.84	630126.6	-0.00045668057
0	0.64333373	0.643333	-1.1199203e-10	0.060104024	0.060104024	0	119424.09	119423.984	-2.249135e-05	630325.06	270341.72	-7.82881e-05	270342.12	630324.5	-0.00014352819
0	0.6430682	0.64306754	-1.8665337e-10	0.059750553	0.059750553	0	119374.81	119374.7	-3.3737026e-05	630522.1	269772.97	-2.6096033e-05	269773.34	630521.56	-0.00020876827
0	0.6427976	0.6427969	-2.5509295e-10	0.059396856	0.059396863	0	119324.586	119324.46	-4.9307957e-05	630719.6	269196.6	-0.00020876827	269197	630719.06	-0.00018267223
0	0.6425269	0.6425262	-7.4661353e-11	0.05904343	0.05904343	0	119274.34	119274.22	-1.0380623e-05	630918.56	268618.78	5.2192067e-05	268619.2	630917.94	-0.00011743215
0	0.6422545	0.64225376	-3.235325e-10	0.058689952	0.05868996	0	119223.76	119223.63	-5.968858e-05	631116.56	268039.3	-0.00020876827	268039.7	631115.94	-0.00026096034
0	0.6419808	0.6419801	-4.0441564e-10	0.05833626	0.05833626	0	119172.96	119172.85	-7.439446e-05	631314.6	267458.12	-0.00026096034	267458.53	631314.06	-0.0002479123
0	0.6417045	0.64170384	4.9774233e-11	0.057982814	0.057982814	0	119121.66	119121.53	1.384083e-05	631513.5	266872.38	7.82881e-05	266872.8	631512.9	-1.3048017e-05
0	0.6414273	0.64142656	-1.6176625e-10	0.05762915	0.05762915	0	119070.195	119070.07	-3.114187e-05	631712.4	266285.3	-0.00010438413	266285.72	631711.8	-0.00013048017
0	0.6411477	0.64114696	-2.4887117e-10	0.057275683	0.057275683	0	119018.305	119018.164	-4.4117645e-05	631912.06	265694.22	-0.0002348643	265694.7	631911.5	-0.00010438413
0	0.6408681	0.6408675	-3.1108896e-10	0.056922052	0.056922052	0	118966.42	118966.28	-5.968858e-05	632110.8	265104.22	-0.00028705638	265104.62	632110.3	-0.00019572025
0	0.6405861	0.6405854	-2.4887117e-10	0.056568604	0.056568604	0	118914.055	118913.94	-4.49827e-05	632310.8	264509.3	-0.00020876827	264509.72	632310.25	-0.00011743215
0	0.640303	0.6403023	-1.6176625e-10	0.05621492	0.05621492	0	118861.516	118861.38	-3.0276817e-05	632510.1	263913.7	-0.00013048017	263914.1	632509.6	-0.0001565762
0	0.64001745	0.64001673	-5.475166e-10	0.055861462	0.05586146	0	118808.5	118808.37	-0.00010034602	632710.5	263313.44	-0.00041753653	263313.88	632710	-0.00036534446
0	0.63972735	0.6397267	1.2443558e-11	0.055507787	0.055507787	0	118754.66	118754.52	4.3252594e-06	632912.25	262705.72	0	262706.12	632911.7	3.914405e-05
0	0.63944197	0.6394412	-2.364276e-10	0.055154327	0.055154327	0	118701.67	118701.52	-4.2387543e-05	633111.56	262106.75	-0.00020876827	262107.16	633111	-0.00010438413
0	0.6391511	0.6391503	-5.6618193e-10	0.05480086	0.05480086	0	118647.68	118647.54	-0.000103806226	633311.56	261499.48	-0.00041753653	261499.94	633311	-0.00035229645
0	0.63885945	0.6388587	-4.3552453e-10	0.05444718	0.05444718	0	118593.54	118593.39	-8.044983e-05	633512.75	260889.97	-0.00036534446	260890.45	633512.2	-0.0002479123
0	0.6385673	0.63856655	-2.924236e-10	0.054093737	0.054093737	0	118539.31	118539.18	-5.363322e-05	633713.6	260280.22	-0.00026096034	260280.66	633713.06	-0.00013048017
0	0.6382716	0.63827085	-4.3552453e-10	0.05374005	0.05374005	0	118484.414	118484.28	-8.044983e-05	633915	259664.78	-0.00026096034	259665.19	633914.44	-0.00032620042
0	0.6379755	0.6379748	-4.168592e-10	0.0533866	0.0533866	0	118429.45	118429.31	-7.7854675e-05	634116.4	259048.9	-0.00033924842	259049.34	634115.75	-0.00026096034
0	0.6376758	0.637675	1.1199203e-10	0.053032972	0.053032972	0	118373.81	118373.67	2.1626298e-05	634317.8	258427.83	0.00013048017	258428.27	634317.2	7.82881e-05
0	0.6373764	0.63737553	-2.115405e-10	0.052679513	0.052679513	0	118318.22	118318.07	-3.784602e-05	634520.06	257806.4	-5.2192067e-05	257806.83	634519.44	-0.0002348643
0	0.63707507	0.63707423	4.3552453e-11	0.052325826	0.052325826	0	118262.29	118262.15	7.7854675e-06	634721.56	257183.05	-3.4251043e-05	257183.5	634720.94	0.00011743215
0	0.63677233	0.6367715	-2.115405e-10	0.05197238	0.05197238	0	118206.1	118205.95	-3.8927337e-05	634923.7	256557.11	-0.00010438413	256557.53	634923	-0.00022181628
0	0.6364669	0.63646615	-3.1731073e-10	0.051618703	0.051618703	0	118149.41	118149.26	-5.7093424e-05	635126.2	255926.97	-0.0002348643	255927.42	635125.6	-0.00019572025
0	0.6361568	0.6361561	-5.412948e-10	0.051265247	0.051265247	0	118091.836	118091.7	-9.602076e-05	635329.1	255289.94	-0.0003131524	255290.42	635328.56	-0.00036534446
0	0.6358511	0.6358503	-4.6663345e-10	0.05091177	0.05091177	0	118035.086	118034.93	-8.7370245e-05	635531.8	254659.2	-0.00028705638	254659.69	635531.2	-0.00032620042
0	0.63554025	0.63553935	-2.2398405e-10	0.0505581	0.0505581	0	117977.375	117977.22	-4.130623e-05	635734.5	254021.39	-0.0001565762	254021.88	635733.8	-0.00014352819
0	0.6352288	0.63522804	-2.426494e-10	0.050204646	0.050204642	0	117919.57	117919.43	-4.49827e-05	635937.4	253382.5	-0.00028705638	253383	635936.75	-9.1336115e-05
0	0.6349147	0.6349139	-2.0531872e-10	0.04985097	0.04985097	0	117861.25	117861.1	-3.9792387e-05	636140.75	252739.27	-9.1336115e-05	252739.77	636140.1	-0.00018267223
0	0.6345996	0.63459873	-2.0531872e-10	0.049497508	0.049497508	0	117802.75	117802.6	-3.8927337e-05	636343.6	252095.31	-0.00010438413	252095.81	636342.94	-0.00020876827
0	0.63428175	0.6342809	-4.3863543e-10	0.0491439	0.0491439	0	117743.766	117743.61	-7.958477e-05	636547.4	251446.62	-0.0003131524	251447.16	636546.75	-0.0002479123
0	0.6339604	0.6339596	-2.6442562e-10	0.048790433	0.048790433	0	117684.12	117683.96	-4.67128e-05	636750.5	250793.64	-0.00018267223	250794.14	636749.75	-0.00022181628
0	0.63363886	0.63363796	-2.1776227e-10	0.048436753	0.048436753	0	117624.42	117624.266	-3.633218e-05	636955.9	250138.08	-0.00018267223	250138.56	636955.2	-0.00010438413
0	0.6333178	0.633317	-7.777224e-11	0.04808329	0.04808329	0	117564.81	117564.664	-1.2975778e-05	637159.3	249485.14	-7.82881e-05	249485.66	637158.6	-3.914405e-05
0	0.6329936	0.63299274	-3.017563e-10	0.04772963	0.04772963	0	117504.63	117504.48	-5.536332e-05	637362.75	248827.75	-0.0001565762	248828.27	637362	-0.00028705638
0	0.6326664	0.6326656	-2.5509295e-10	0.047376156	0.047376156	0	117443.91	117443.74	-4.8226644e-05	637567	248165.52	-0.00020876827	248166.03	637566.3	-0.00013048017
0	0.6323346	0.63233364	-2.364276e-10	0.047022674	0.047022674	0	117382.3	117382.14	-4.2387543e-05	637773.2	247494.69	-0.00013048017	247495.22	637772.5	-0.00014352819
0	0.63200736	0.63200647	-5.101859e-10	0.046669018	0.046669018	0	117321.57	117321.4	-9.34256e-05	637976.5	246833.3	-0.00041753653	246833.81	637975.75	-0.00033924842
0	0.6316742	0.63167334	-3.4219787e-11	0.046315555	0.04631556	0	117259.71	117259.54	-3.4602076e-06	638180.06	246163.23	0.00010438413	246163.8	638179.4	-9.1336115e-05
0	0.63134044	0.6313394	-5.91069e-11	0.045961883	0.045961883	0	117197.74	117197.57	-1.0380623e-05	638386.06	245489.86	-0.0001565762	245490.38	638385.44	-1.3048017e-05
0	0.6310012	0.6310003	-1.9909693e-10	0.04560841	0.04560841	0	117134.77	117134.61	-3.8062284e-05	638592.44	244808.69	-0.0001565762	244809.25	638591.6	-0.00011743215
0	0.63066596	0.6306651	-1.8354249e-10	0.04525482	0.04525482	0	117072.555	117072.38	-3.4602075e-05	638796.2	244135.61	-0.00013048017	244136.16	638795.44	-0.0001565762
0	0.63032514	0.6303242	-4.6663343e-11	0.044901337	0.044901337	0	117009.27	117009.12	-8.650519e-06	639001.4	243453.22	-0.00013048017	243453.78	639000.6	3.914405e-05
0	0.6299803	0.62997943	2.1776227e-11	0.04454768	0.04454768	0	116945.28	116945.1	6.0553634e-06	639207.8	242763.97	0	242764.53	639207.2	2.6096033e-05
0	0.6296399	0.62963885	-3.8575032e-10	0.04419421	0.04419421	0	116882.08	116881.9	-7.179931e-05	639411.8	242083.52	-0.0001565762	242084.08	639411.06	-0.00036534446
0	0.6292927	0.62929195	-9.954847e-11	0.04384056	0.04384056	0	116817.664	116817.48	-1.6435986e-05	639617.3	241392.1	-0.00010438413	241392.66	639616.56	-6.5240085e-05
0	0.62894535	0.6289444	-4.168592e-10	0.043487065	0.043487065	0	116753.15	116752.97	-7.7854675e-05	639823.5	240699.34	-0.0002479123	240699.9	639822.75	-0.0002479123
0	0.62859535	0.6285944	-1.8665337e-10	0.043133583	0.043133583	0	116688.19	116688.01	-3.2871973e-05	640029	240003.9	-0.0001565762	240004.48	640028.25	-0.00013048017
0	0.6282424	0.6282414	-2.6442562e-10	0.042779934	0.042779934	0	116622.65	116622.47	-4.9307957e-05	640234.6	239304.05	-0.00010438413	239304.62	640233.9	-0.0002348643
0	0.62788844	0.6278875	-6.19067e-10	0.042426437	0.042426437	0	116556.95	116556.78	-0.0001133218	640441.44	238601.75	-0.00041753653	238602.34	640440.75	-0.00040448853
0	0.6275322	0.62753123	-2.4887117e-10	0.042072807	0.042072807	0	116490.82	116490.64	-4.3252596e-05	640647.5	237897	-7.82881e-05	237897.56	640646.75	-0.0002348643
0	0.6271732	0.6271722	3.1108897e-11	0.04171931	0.04171931	0	116424.17	116423.984	3.4602076e-06	640853.75	237188.11	0.00013048017	237188.73	640852.94	-5.2192067e-05
0	0.6268124	0.62681144	-3.1419986e-10	0.041365743	0.041365743	0	116357.2	116357.03	-5.882353e-05	641060.1	236476.72	-0.0001565762	236477.3	641059.25	-0.00022181628
0	0.6264507	0.6264497	-3.5464143e-10	0.041012246	0.041012246	0	116290.06	116289.875	-6.790658e-05	641266.2	235764.14	-0.00020876827	235764.75	641265.44	-0.00032620042
0	0.62608594	0.626085	-2.1465138e-10	0.040658608	0.040658608	0	116222.36	116222.17	-4.3252596e-05	641472.5	235047.25	-0.00018267223	235047.88	641471.7	-0.00018267223
0	0.62571913	0.62571806	-3.297543e-10	0.040305126	0.040305126	0	116154.26	116154.055	-5.968858e-05	641679.44	234326.72	-0.0002348643	234327.33	641678.6	-0.00022181628
0	0.6253501	0.62534916	-5.164077e-10	0.03995149	0.03995149	0	116085.76	116085.56	-9.4290655e-05	641885.94	233603.64	-0.0003800235	233604.28	641885.1	-0.00033924842
0	0.6249791	0.624978	-1.4310092e-10	0.039597988	0.039597988	0	116016.87	116016.68	-2.9411765e-05	642092.7	232877.34	-0.0001565762	232878.02	642091.9	-5.2192067e-05
0	0.62460613	0.624605	-4.0441564e-10	0.039244484	0.039244484	0	115947.64	115947.445	-7.309688e-05	642299.1	232148.7	-0.00026096034	232149.33	642298.4	-0.0002479123
0	0.6242298	0.6242288	-2.1776227e-11	0.03889085	0.03889085	0	115877.78	115877.59	-5.1903116e-06	642506.25	231414.86	-0.00010438413	231415.53	642505.4	7.82881e-05
0	0.6238521	0.623851	-6.781739e-10	0.03853734	0.03853734	0	115807.664	115807.47	-0.00012586506	642713.25	230679.06	-0.00044363257	230679.7	642712.44	-0.0004958246
0	0.62347174	0.6234707	-3.1108897e-11	0.03818373	0.03818373	0	115737.06	115736.875	-4.3252594e-06	642920.2	229939.52	-0.0001565762	229940.16	642919.44	9.1336115e-05
0	0.6230899	0.6230888	-3.7952852e-10	0.037830215	0.037830215	0	115666.19	115665.98	-6.963668e-05	643127.4	229197.77	-0.00026096034	229198.44	643126.56	-0.0002348643
0	0.62270504	0.62270397	-4.9774233e-11	0.037476584	0.037476584	0	115594.74	115594.53	-8.650519e-06	643334.6	228451.73	-0.0001565762	228452.39	643333.75	7.82881e-05
0	0.62231773	0.6223166	-3.3130973e-10	0.037123162	0.037123162	0	115522.84	115522.625	-6.401384e-05	643541.8	227702.22	-0.00036534446	227702.92	643541	-0.00010438413
0	0.6219295	0.6219285	-2.8309097e-10	0.036769543	0.03676954	0	115450.79	115450.586	-5.3200692e-05	643748.7	226952.06	-0.00020876827	226952.77	643747.9	-0.00016962421
0	0.6215375	0.62153643	-2.2709494e-10	0.036416043	0.036416043	0	115378.016	115377.805	-3.935986e-05	643956.44	226195.4	-0.00020876827	226196.1	643955.6	-0.00010438413
0	0.62114316	0.6211421	-2.1776227e-10	0.036062416	0.036062416	0	115304.82	115304.61	-4.1522493e-05	644163.9	225435.98	-5.2192067e-05	225436.67	644163	-0.00026096034
0	0.62074816	0.6207471	7.4661353e-11	0.0357089	0.035708897	0	115231.484	115231.29	1.6435986e-05	644370.25	224676.53	-2.6096033e-05	224677.25	644369.4	0.00014352819
0	0.62034917	0.6203481	-6.221779e-11	0.035355378	0.035355378	0	115157.42	115157.21	-1.1245675e-05	644578.25	223909.94	0	223910.67	644577.4	-0.00011743215
0	0.6199483	0.6199472	-3.1886618e-10	0.03500176	0.03500176	0	115083.01	115082.8	-5.968858e-05	644785	223142	-0.0001565762	223142.73	644784.1	-0.00028705638
0	0.61954236	0.6195411	-4.199701e-10	0.03464824	0.034648236	0	115007.64	115007.42	-7.871972e-05	644994.2	222364.3	-0.0003979645	222365.06	644993.3	-0.00019572025
0	0.61913955	0.61913836	-3.577523e-10	0.034294643	0.034294643	0	114932.87	114932.65	-6.617647e-05	645200.5	221594.16	-0.00017288623	221594.9	645199.5	-0.00028705638
0	0.61873114	0.61873	-3.6708497e-10	0.03394112	0.033941116	0	114857.055	114856.83	-6.7041525e-05	645407.9	220815.02	-0.0002348643	220815.75	645406.94	-0.0002348643
0	0.6183182	0.61831695	-1.5554448e-11	0.033587504	0.033587504	0	114780.39	114780.164	-3.8927337e-06	645616.56	220028.08	-5.2192067e-05	220028.83	645615.7	3.914405e-05
0	0.6179087	0.6179076	-2.3487218e-10	0.03323407	0.03323407	0	114704.38	114704.164	-4.065744e-05	645822.1	219249.38	-0.00013048017	219250.12	645821.2	-0.0001565762
0	0.617493	0.6174917	-3.6708497e-10	0.03288047	0.03288047	0	114627.195	114626.97	-7.093426e-05	646029.44	218459.88	-0.0003131524	218460.64	646028.5	-0.00020876827
0	0.61707526	0.6170741	-1.3687915e-10	0.03252695	0.03252695	0	114549.66	114549.43	-2.5951556e-05	646236.94	217667.58	-0.00013048017	217668.36	646236.06	-5.2192067e-05
0	0.6166543	0.616653	6.221779e-12	0.032173358	0.032173354	0	114471.51	114471.27	3.0276817e-06	646445	216870.2	0	216870.98	646444	-1.3048017e-05
0	0.61622876	0.6162275	-9.488213e-11	0.03181982	0.03181982	0	114392.53	114392.305	-2.1626298e-05	646653.3	216066.17	-7.82881e-05	216066.97	646652.44	-5.2192067e-05
0	0.6158055	0.6158042	-2.395385e-10	0.03146627	0.03146627	0	114313.95	114313.72	-4.584775e-05	646859.06	215267.83	-0.0002348643	215268.64	646858.06	-0.00014352819
0	0.6153771	0.61537594	-2.706474e-10	0.031112673	0.031112673	0	114234.44	114234.2	-5.017301e-05	647067.06	214460.14	-0.00035392746	214460.94	647066.06	1.3048017e-05
0	0.61494553	0.6149443	-7.4661353e-11	0.030759128	0.030759128	0	114154.31	114154.086	-1.4705883e-05	647274.8	213648.19	-0.00010438413	213649.02	647273.75	2.6096033e-05
0	0.614514	0.6145127	-3.048672e-10	0.030405568	0.030405568	0	114074.2	114073.95	-5.7093424e-05	647481.1	212837.55	-0.0001565762	212838.38	647480.1	-0.00022181628
0	0.61407727	0.61407596	-5.832918e-10	0.030052012	0.030052012	0	113993.14	113992.89	-0.00010467128	647689.1	212018.19	-0.0002267093	212019.05	647688.1	-0.00057411275
0	0.61363864	0.6136374	-2.0220782e-10	0.029698428	0.029698431	0	113911.73	113911.46	-3.611592e-05	647896.4	211196.97	-0.00028705638	211197.81	647895.25	0
0	0.6131978	0.61319655	-1.7420981e-10	0.02934498	0.029344976	0	113829.9	113829.64	-3.049308e-05	648102.2	210373.9	-0.00010438413	210374.78	648101.25	-0.00013048017
0	0.61275315	0.61275184	-2.9708996e-10	0.028991407	0.028991407	0	113747.35	113747.086	-5.4714532e-05	648310.1	209543.42	-0.0002348643	209544.31	648309.1	-0.00020876827
0	0.612307	0.6123057	1.0265936e-10	0.028637841	0.028637841	0	113664.53	113664.27	1.7949827e-05	648517.5	208711.55	0	208712.44	648516.44	0.00010438413
0	0.6118577	0.61185634	-2.224286e-10	0.028284302	0.028284302	0	113581.13	113580.875	-3.9792387e-05	648724.25	207875.73	-0.00026096034	207876.62	648723.2	1.3048017e-05
0	0.61140305	0.6114016	-1.8354249e-10	0.02793073	0.02793073	0	113496.71	113496.45	-3.4602075e-05	648930.94	207032.39	-3.5882047e-05	207033.3	648929.94	-0.00018267223
0	0.6109499	0.61094844	-3.2508796e-10	0.027577164	0.027577164	0	113412.58	113412.32	-6.098616e-05	649138.3	206190.52	-0.00019572025	206191.42	649137.25	-0.00028705638
0	0.6104935	0.61049205	-2.0998504e-10	0.02722359	0.02722359	0	113327.86	113327.6	-4.065744e-05	649343.44	205346.39	-0.00016962421	205347.3	649342.44	-0.00011743215
0	0.6100331	0.6100317	-3.0331174e-10	0.026870025	0.026870025	0	113242.414	113242.15	-5.514706e-05	649550.7	204494.72	-9.1336115e-05	204495.64	649549.6	-0.00027400834
0	0.6095689	0.60956746	-1.7187665e-10	0.026516486	0.026516486	0	113156.234	113155.95	-3.1790656e-05	649758.1	203637.28	-0.00020876827	203638.23	649757.06	-7.82881e-05
0	0.60910016	0.60909873	-5.7007055e-10	0.026162913	0.026162913	0	113069.23	113068.96	-0.00010532007	649966	202773.34	-0.00045668057	202774.28	649964.9	-0.00028705638
0	0.60863364	0.6086322	-1.1665836e-10	0.025809351	0.025809351	0	112982.62	112982.35	-2.33564e-05	650171.25	201914.88	-0.00011743215	201915.81	650170.2	-5.2192067e-05
0	0.6081617	0.6081602	-2.7686917e-10	0.025455885	0.025455885	0	112895.016	112894.74	-5.017301e-05	650377.75	201047.66	-0.0002479123	201048.62	650376.7	-0.00013048017
0	0.60768586	0.60768443	-3.087558e-10	0.025102321	0.025102323	0	112806.69	112806.42	-5.5579585e-05	650582.9	200176.3	-0.00043058457	200177.3	650581.8	-2.6096033e-05
0	0.60720915	0.6072076	-3.2742112e-10	0.024748754	0.024748754	0	112718.17	112717.9	-6.087803e-05	650790.06	199301.62	-0.00022181628	199302.62	650788.94	-0.00018267223
0	0.60672736	0.6067259	-4.0130477e-10	0.024395216	0.024395216	0	112628.75	112628.47	-7.309688e-05	650996.25	198421.02	-0.00032620042	198422.05	650995.2	-0.0002479123
0	0.60624266	0.6062411	-3.6864042e-10	0.024041645	0.024041645	0	112538.77	112538.49	-6.9420414e-05	651202.56	197536.17	-0.00030010438	197537.17	651201.4	-0.00018267223
0	0.6057584	0.60575694	-3.6008546e-10	0.023688078	0.023688078	0	112448.88	112448.61	-6.466263e-05	651406.94	196653.89	-0.00034577245	196654.92	651405.75	-0.0001565762
0	0.6052684	0.6052668	-4.421352e-10	0.023334509	0.023334509	0	112357.93	112357.63	-8.423443e-05	651612.75	195761.92	-0.00035229645	195762.97	651611.7	-0.00026096034
0	0.6047729	0.60477126	-2.294281e-10	0.022980941	0.022980941	0	112265.94	112265.65	-4.0927767e-05	651819.56	194861.47	-0.0002348643	194862.53	651818.3	-9.1336115e-05
0	0.6042799	0.6042783	-3.5853004e-10	0.02262741	0.02262741	0	112174.42	112174.125	-6.85013e-05	652022.3	193968.5	-0.00026748434	193969.56	652021.1	-0.00022181628
0	0.6037814	0.60377973	-1.6059967e-10	0.02227384	0.02227384	0	112081.875	112081.58	-2.9303634e-05	652227.7	193065.08	-0.00018267223	193066.17	652226.5	-5.2192067e-05
0	0.6032782	0.6032766	-1.5418347e-10	0.02192028	0.02192028	0	111988.484	111988.17	-2.7735727e-05	652434.06	192154.33	-6.5240085e-05	192155.44	652432.8	-0.00013048017
0	0.602774	0.6027724	-1.3104623e-10	0.021566791	0.021566791	0	111894.88	111894.58	-2.5302768e-05	652637.56	191244.95	-0.00020876827	191246.06	652636.4	1.3048017e-05
0	0.60226524	0.6022637	-2.5382915e-10	0.021213219	0.021213219	0	111800.44	111800.13	-4.4631273e-05	652842.56	190327.75	-0.00019572025	190328.84	652841.4	-0.00014352819
0	0.6017536	0.6017519	-4.997839e-10	0.020859655	0.020859655	0	111705.44	111705.13	-9.110078e-05	653046.56	189407.23	-0.0003947025	189408.36	653045.44	-0.00036534446
0	0.6012394	0.60123765	-2.1401948e-10	0.020506123	0.020506123	0	111609.99	111609.67	-3.838668e-05	653251.25	188482.77	-0.00020876827	188483.9	653249.9	-6.5240085e-05
0	0.6007211	0.6007194	-2.8425753e-10	0.020152563	0.020152563	0	111513.78	111513.48	-5.5038927e-05	653455.3	187553.06	-0.00019572025	187554.22	653454.06	-0.00020876827
0	0.60019636	0.60019463	2.4984332e-11	0.019798994	0.019798994	0	111416.39	111416.07	5.5687715e-06	653661.4	186612.4	-5.2192067e-05	186613.58	653660.1	6.5240085e-05
0	0.5996722	0.59967035	-3.2061606e-10	0.019445425	0.019445425	0	111319.055	111318.734	-5.9093858e-05	653863.44	185676.31	-0.0001565762	185677.52	653862.2	-0.00032620042
0	0.5991449	0.5991431	-2.3778862e-10	0.019091865	0.019091865	0	111221.18	111220.86	-4.2603806e-05	654068.3	184733.28	-0.00020876827	184734.48	654067	-0.00010438413
0	0.5986142	0.5986124	-2.935902e-10	0.018738292	0.018738292	0	111122.68	111122.34	-5.4065746e-05	654271.25	183787.42	-0.00027400834	183788.64	654270	-9.1336115e-05
0	0.59808016	0.5980783	-1.6371056e-10	0.01838477	0.01838477	0	111023.53	111023.2	-2.8654844e-05	654472.75	182838.22	-0.00013048017	182839.45	654471.4	-9.1336115e-05
0	0.59754133	0.5975396	-2.935902e-10	0.018031208	0.018031208	0	110923.52	110923.19	-5.3308824e-05	654677.25	181879.39	-0.00033924842	181880.62	654675.94	-9.1336115e-05
0	0.59699893	0.5969971	-3.538637e-10	0.017677689	0.017677689	0	110822.83	110822.49	-6.433824e-05	654880.25	180916.94	-0.00019572025	180918.19	654878.94	-0.00027400834
0	0.59645426	0.5964523	-3.4453101e-10	0.017324118	0.017324118	0	110721.71	110721.375	-6.0769897e-05	655082.7	179951.95	-0.00027400834	179953.25	655081.3	-0.00020876827
0	0.5959061	0.5959042	-1.7732071e-10	0.01697056	0.016970558	0	110619.95	110619.62	-3.568339e-05	655284.75	178982.48	-0.00027400834	178983.78	655283.4	2.6096033e-05
0	0.5953538	0.59535193	-3.5075282e-10	0.016617035	0.016617035	0	110517.445	110517.086	-6.3148786e-05	655486.75	178007.28	-0.0002348643	178008.56	655485.44	-0.00026096034
0	0.5947997	0.5947978	-3.017563e-10	0.016263476	0.016263476	0	110414.58	110414.21	-5.4282005e-05	655687.5	177030.69	-0.00017941023	177032.02	655686.2	-0.0002479123
0	0.5942411	0.5942392	1.8665338e-11	0.01590991	0.01590991	0	110310.875	110310.52	5.4065745e-06	655888.06	176048.1	2.6096033e-05	176049.47	655886.7	3.914405e-05
0	0.59367853	0.59367657	-4.4019088e-10	0.015556336	0.015556336	0	110206.46	110206.09	-8.4126295e-05	656088.75	175059.78	-0.00044363257	175061.11	656087.44	-0.0001565762
0	0.5931099	0.59310794	-3.8030626e-10	0.015202784	0.015202784	0	110100.91	110100.53	-6.83391e-05	656292.2	174060.31	-0.00027074636	174061.69	656290.8	-0.00026096034
0	0.5925418	0.5925398	-4.1841466e-10	0.014849216	0.014849216	0	109995.46	109995.086	-7.7854675e-05	656490.6	173066.56	-0.00033924842	173067.97	656489.2	-0.00026096034
0	0.5919666	0.5919646	-2.924236e-10	0.014495703	0.014495703	0	109888.67	109888.31	-5.3416956e-05	656691.5	172060.36	-0.0002348643	172061.73	656690.1	-0.00016962421
0	0.5913882	0.5913862	-1.8976426e-10	0.014142151	0.014142151	0	109781.3	109780.93	-3.8711074e-05	656893.6	171048.52	-0.00010438413	171049.92	656892.2	-0.00018267223
0	0.59080845	0.5908064	-3.0642264e-10	0.013788582	0.013788582	0	109673.67	109673.29	-5.8607267e-05	657092.6	170037.81	-0.00032620042	170039.25	657091.2	-0.00010438413
0	0.5902238	0.59022176	-4.448572e-10	0.013435013	0.013435013	0	109565.14	109564.76	-8.153114e-05	657291.94	169019.98	-0.0003131524	169021.45	657290.5	-0.00030010438
0	0.5896341	0.5896319	-4.4641266e-10	0.013081457	0.013081457	0	109455.67	109455.29	-8.066609e-05	657491.7	167994.6	-0.00035229645	167996.08	657490.2	-0.00026096034
0	0.5890415	0.5890394	-2.3020583e-10	0.012727942	0.012727942	0	109345.67	109345.28	-4.433391e-05	657690.6	166965.97	-0.00026096034	166967.44	657689.2	-7.82881e-05
0	0.5884449	0.58844274	-9.799302e-11	0.012374377	0.012374377	0	109234.92	109234.51	-1.31920415e-05	657889.2	165932.16	-7.82881e-05	165933.69	657887.6	-2.6096033e-05
0	0.58784395	0.5878418	-3.297543e-10	0.012020823	0.012020823	0	109123.37	109122.97	-6.401384e-05	658087.7	164892.36	-0.00026096034	164893.9	658086.2	-0.0002348643
0	0.58723927	0.58723706	-4.199701e-11	0.011667254	0.011667254	0	109011.11	109010.7	-6.487889e-06	658285.75	163847.61	-9.1336115e-05	163849.19	658284.25	5.2192067e-05
0	0.5866318	0.58662957	-3.7330675e-10	0.011313705	0.011313705	0	108898.34	108897.94	-6.963668e-05	658483	162800	-0.00035229645	162801.58	658481.5	-0.00014352819
0	0.5860181	0.5860158	-1.7887615e-10	0.01096014	0.01096014	0	108784.42	108784.01	-3.4602075e-05	658680.8	161742.9	-0.00027400834	161744.52	658679.25	-3.914405e-05
0	0.5854024	0.5854002	-8.243858e-11	0.010606609	0.010606609	0	108670.15	108669.72	-1.25432525e-05	658877.44	160684.5	-0.00016310021	160686.1	658875.9	6.5240085e-05
0	0.58478326	0.584781	-1.4465637e-10	0.010253062	0.010253062	0	108555.195	108554.77	-2.2923876e-05	659072.06	159622.95	-0.00013048017	159624.58	659070.4	-2.6096033e-05
0	0.58415747	0.58415514	-1.1199203e-10	0.009899497	0.009899497	0	108439.03	108438.59	-1.8598615e-05	659269.94	158548.8	-2.6096033e-05	158550.5	659268.4	-0.0001565762
0	0.58352816	0.5835257	-3.9508297e-10	0.0095459325	0.0095459325	0	108322.195	108321.76	-7.8287194e-05	659464.2	157473.52	-0.00028705638	157475.19	659462.5	-0.0002479123
0	0.5828947	0.58289224	-3.017563e-10	0.009192386	0.009192385	0	108204.61	108204.17	-5.7958478e-05	659661.7	156389.06	-0.00020876827	156390.78	659660.2	-0.00022181628
0	0.58225715	0.5822548	-3.297543e-10	0.0088388445	0.0088388445	0	108086.266	108085.83	-5.9256054e-05	659854.8	155303.5	-0.00026096034	155305.23	659853.2	-0.00018267223
0	0.5816149	0.58161247	-1.9909693e-10	0.00848528	0.008485279	0	107967.055	107966.61	-3.8927337e-05	660051.94	154207.22	-0.00020876827	154208.97	660050.3	-3.914405e-05
0	0.5809715	0.580969	-4.3241366e-10	0.008131739	0.008131738	0	107847.6	107847.15	-8.088235e-05	660244.2	153114.05	-0.0003914405	153115.83	660242.5	-0.00022181628
0	0.5803191	0.58031666	-3.3286518e-10	0.007778168	0.007778168	0	107726.516	107726.04	-6.185121e-05	660440.25	152004.73	-0.00032620042	152006.52	660438.56	-0.0001565762
0	0.5796666	0.57966405	-3.2042163e-10	0.007424607	0.007424608	0	107605.38	107604.914	-5.9256054e-05	660631.4	150900.12	-0.00020876827	150901.92	660629.6	-0.0002479123
0	0.5790074	0.5790048	-1.4310092e-10	0.0070710755	0.0070710755	0	107482.99	107482.52	-2.8546712e-05	660824.56	149783.86	-0.00028705638	149785.7	660822.9	7.82881e-05