# t (s)	mx ()	my ()	mz ()	B_extx (T)	B_exty (T)	B_extz (T)	m_fullx (A/m)	m_fully (A/m)	m_fullz (A/m)	m_full.region1x (A/m)	m_full.region1y (A/m)	m_full.region1z (A/m)	m_full.region2x (A/m)	m_full.region2y (A/m)	m_full.region2z (A/m)
0	0.63721186	0.6372094	-6.600723e-11	0.070710704	0.070710704	0	126566.2	126565.734	-1.3199724e-05	657822.1	234271.83	1.5692827e-05	234274.4	657821.44	-7.714408e-05
0	0.63692665	0.6369241	-1.3369579e-10	0.07035722	0.07035722	0	126509.54	126509.03	-2.7289501e-05	658041	233653.42	-0.00011073996	233656.28	658040.1	-9.124922e-05
0	0.63663715	0.6366345	-2.649156e-10	0.07000352	0.07000352	0	126452.05	126451.54	-5.2609503e-05	658262.3	233026.92	-0.0001101195	233029.73	658261.5	-0.00026049436
0	0.63634557	0.63634294	3.1078452e-11	0.06965005	0.06965005	0	126394.12	126393.61	5.479537e-06	658484.1	232396.78	-1.7168763e-06	232399.64	658483.3	5.027376e-05
0	0.6360523	0.63604975	-1.0538462e-10	0.06929643	0.06929643	0	126335.875	126335.36	-1.8126446e-05	658706.1	231764.22	-2.2145161e-05	231767.06	658705.25	-0.00011923645
0	0.6357573	0.63575476	-2.909644e-10	0.068942994	0.068942994	0	126277.32	126276.8	-6.150404e-05	658928.4	231129.17	-0.00012732096	231132.03	658927.56	-0.00028476742
0	0.6354613	0.6354586	-2.0413062e-10	0.06858929	0.06858929	0	126218.47	126217.97	-4.1143696e-05	659150.44	230492.36	-0.00010347054	230495.23	659149.75	-0.00018976747
0	0.6351628	0.63516015	-3.9716008e-10	0.06823583	0.06823583	0	126159.21	126158.7	-8.265501e-05	659373.25	229851.8	-0.00022683157	229854.64	659372.5	-0.000376341
0	0.6348627	0.6348602	-1.5124198e-10	0.067882195	0.067882195	0	126099.6	126099.086	-2.9984925e-05	659596.25	229208.78	-5.2749507e-05	229211.66	659595.4	-0.00016843477
0	0.6345603	0.63455766	3.2994593e-10	0.06752872	0.06752872	0	126039.555	126039.02	6.61118e-05	659819.56	228561.97	0.00024686352	228564.83	659818.94	0.00025504365
0	0.63425857	0.6342559	9.663556e-12	0.06717502	0.06717502	0	125979.62	125979.08	-2.2828635e-06	660041.9	227917.19	-3.4209259e-06	227920.08	660041.06	3.6150086e-06
0	0.6339532	0.63395065	1.3814118e-10	0.066821605	0.066821605	0	125918.98	125918.46	2.6633323e-05	660265.2	227266.44	7.459755e-05	227269.34	660264.56	0.000138494
0	0.63364726	0.6336446	-9.1555305e-11	0.066468135	0.066468135	0	125858.18	125857.66	-1.637071e-05	660488.4	226614.72	-5.6984685e-05	226617.58	660487.8	-4.6401743e-05
0	0.63333875	0.6333361	-3.6900694e-10	0.06611443	0.06611443	0	125796.914	125796.38	-7.315599e-05	660712.06	225959.22	-0.0001296486	225962.08	660711.4	-0.0003873267
0	0.6330287	0.63302606	-3.0053643e-10	0.065760985	0.065760985	0	125735.32	125734.8	-5.987517e-05	660935.9	225301.22	-0.00016525784	225304.14	660935.2	-0.00025432106
0	0.6327167	0.6327141	-1.0739264e-10	0.06540732	0.06540732	0	125673.34	125672.83	-2.3932003e-05	661160	224640.5	-0.00019451175	224643.38	661159.3	2.7008204e-05
0	0.6324035	0.6324008	-2.6569663e-10	0.0650539	0.0650539	0	125611.14	125610.61	-4.800757e-05	661383.8	223978.17	-0.0002590813	223981.1	661383	-8.7077184e-05
0	0.6320887	0.6320861	-1.5687002e-10	0.064700216	0.064700216	0	125548.625	125548.09	-3.3467724e-05	661607.75	223313.58	-0.00010186324	223316.48	661606.94	-0.00012652682
0	0.63177186	0.63176924	-2.6931055e-10	0.06434676	0.06434676	0	125485.67	125485.15	-5.305429e-05	661831.9	222645.8	-0.00018339918	222648.72	661831.2	-0.000191709
0	0.6314534	0.63145083	-2.7174218e-10	0.0639931	0.0639931	0	125422.445	125421.92	-5.081588e-05	662056.06	221975.8	-0.00017005696	221978.72	662055.3	-0.00021857223
0	0.6311328	0.63113004	-1.810382e-10	0.06363964	0.06363964	0	125358.734	125358.21	-3.7750313e-05	662280.8	221302.1	-0.00014980065	221305.03	662279.94	-0.00010520269
0	0.63081056	0.6308079	-2.5544905e-10	0.06328595	0.06328595	0	125294.74	125294.21	-5.041942e-05	662505.4	220626.42	-0.00019432521	220629.34	662504.56	-0.00017634571
0	0.6304866	0.63048404	-5.2185556e-10	0.0629325	0.0629325	0	125230.4	125229.89	-0.00010207931	662729.9	219948.38	-0.00034221658	219951.31	662729.2	-0.0004111452
0	0.6301606	0.630158	-2.8501806e-10	0.06257904	0.06257904	0	125165.664	125165.13	-5.557187e-05	662954.75	219267.22	-0.00024935848	219270.17	662954.06	-0.00015097452
0	0.62983304	0.62983036	-9.622293e-11	0.062225346	0.062225346	0	125100.586	125100.05	-1.96254e-05	663179.8	218583.48	-0.00014887028	218586.45	663179	2.1891643e-05
0	0.62950325	0.6295007	-1.4821125e-10	0.06187191	0.06187191	0	125035.09	125034.58	-3.0016563e-05	663404.94	217896.77	-0.00015363084	217899.67	663404.1	-5.119805e-05
0	0.6291716	0.629169	-1.9666463e-10	0.061518222	0.061518222	0	124969.21	124968.69	-3.842178e-05	663630.2	217207.14	-0.00018734578	217210.06	663629.5	-9.3148905e-05
0	0.6288383	0.6288356	-3.064477e-10	0.061164826	0.061164826	0	124902.99	124902.47	-6.187623e-05	663855.56	216515.1	-0.00019773381	216518.05	663854.9	-0.00024295441
0	0.62850314	0.6285006	-2.5690702e-10	0.060811136	0.060811136	0	124836.44	124835.92	-5.0605824e-05	664080.8	215820.66	-0.00014101912	215823.61	664080.06	-0.00022162058
0	0.62816626	0.6281636	-3.133637e-10	0.060457677	0.060457677	0	124769.52	124768.98	-6.109417e-05	664306.25	215123.48	-0.00020360535	215126.4	664305.5	-0.00023499144
0	0.6278273	0.6278247	-6.930848e-11	0.06010401	0.06010401	0	124702.21	124701.67	-1.16380415e-05	664531.6	214423.69	-0.00021995648	214426.66	664530.9	0.00011535723
0	0.6274865	0.62748384	-3.9879294e-10	0.05975055	0.05975055	0	124634.49	124633.98	-8.05669e-05	664757.2	213720.89	-0.00026348012	213723.86	664756.6	-0.00030128632
0	0.6271434	0.6271407	-2.2839859e-10	0.059396874	0.059396874	0	124566.35	124565.82	-4.46449e-05	664983.1	213014.58	-0.0001043775	213017.55	664982.4	-0.0002114889
0	0.6267985	0.62679595	-2.931115e-10	0.059043404	0.059043404	0	124497.86	124497.34	-5.4802218e-05	665208.9	212306.11	-0.00023136637	212309.11	665208.2	-0.00016783865
0	0.62645173	0.62644917	-1.3291183e-10	0.05868994	0.05868994	0	124428.98	124428.445	-2.3131355e-05	665434.7	211594.75	-0.00010451751	211597.72	665434	-7.50413e-05
0	0.62610304	0.6261004	-2.74609e-10	0.05833627	0.05833627	0	124359.71	124359.2	-5.4447377e-05	665660.75	210880.61	-0.0002801034	210883.6	665660	-0.000112228576
0	0.6257525	0.6257499	-2.0860895e-10	0.057982814	0.057982814	0	124290.09	124289.58	-4.0871026e-05	665886.44	210164.14	-0.00013500106	210167.12	665885.7	-0.0001695409
0	0.6253995	0.62539685	-2.4903207e-10	0.057629142	0.057629142	0	124219.984	124219.45	-5.01582e-05	666112.7	209443.58	-0.0001817831	209446.56	666112	-0.00017318923
0	0.6250449	0.62504226	-1.6981523e-10	0.057275668	0.057275668	0	124149.54	124149.02	-3.1075975e-05	666338.75	208721.17	-0.00015611028	208724.14	666338.06	-6.567504e-05
0	0.62468827	0.62468565	-2.0845824e-10	0.056922063	0.056922063	0	124078.695	124078.18	-3.878375e-05	666564.8	207995.84	-0.000117384574	207998.83	666564.06	-0.00015938947
0	0.62432873	0.624326	-2.1831674e-10	0.0565686	0.0565686	0	124007.29	124006.77	-4.1684656e-05	666791.2	207265.98	-0.00017784855	207268.98	666790.5	-0.00013286946
0	0.6239682	0.6239656	-6.1443725e-11	0.056214936	0.056214936	0	123935.69	123935.17	-1.3887596e-05	667017.2	206535.28	-0.00010958463	206538.3	667016.56	1.9849726e-05
0	0.6236038	0.6236013	-1.750407e-10	0.05586146	0.05586146	0	123863.33	123862.8	-3.3202145e-05	667244.1	205798.34	-0.00015121532	205801.33	667243.56	-8.7130094e-05
0	0.623241	0.6232383	-4.4407025e-10	0.055507805	0.055507805	0	123791.234	123790.72	-8.787446e-05	667469.3	205065.11	-0.00035283447	205068.12	667468.56	-0.0002765137
0	0.6228735	0.6228709	-1.5745198e-10	0.055154327	0.055154327	0	123718.266	123717.73	-3.3060627e-05	667695.7	204324.27	-0.00016648804	204327.28	667695	-5.0253482e-05
0	0.62250435	0.6225018	-1.1662935e-10	0.054800846	0.054800846	0	123644.94	123644.4	-2.7227017e-05	667921.94	203581.19	-7.836401e-05	203584.22	667921.2	-9.508096e-05
0	0.6221328	0.6221301	-2.0090608e-10	0.05444718	0.05444718	0	123571.11	123570.6	-3.6183068e-05	668148.25	202834.6	-0.00014520841	202837.6	668147.6	-0.0001120905
0	0.6217593	0.6217567	-2.1081527e-10	0.054093722	0.054093722	0	123496.93	123496.414	-4.2421238e-05	668374.6	202085.3	-0.00016066869	202088.31	668373.94	-0.00015048867
0	0.6213837	0.62138104	-2.0291682e-10	0.053740054	0.053740054	0	123422.336	123421.805	-3.8284346e-05	668600.8	201333.27	-0.00012560289	201336.28	668600.2	-0.00014857492
0	0.62100565	0.621003	-2.6092084e-10	0.053386588	0.053386588	0	123347.25	123346.73	-5.434445e-05	668827.2	200577.64	-0.00017838519	200580.64	668826.6	-0.00020486677
0	0.62062603	0.62062335	-1.744356e-10	0.053032987	0.053032987	0	123271.83	123271.305	-3.244987e-05	669053.3	199820.05	-0.00012381059	199823.06	669052.7	-0.000109908135
0	0.62024343	0.6202408	-2.3860056e-10	0.05267951	0.05267951	0	123195.87	123195.34	-4.556863e-05	669279.6	199058.1	-9.464462e-05	199061.11	669279	-0.00022533386
0	0.6198579	0.6198553	2.4693167e-10	0.05232584	0.05232584	0	123119.27	123118.766	4.8649923e-05	669506.3	198291.73	4.952272e-05	198294.75	669505.75	0.00033316683
0	0.61947256	0.61946994	-2.1788578e-10	0.05197238	0.05197238	0	123042.74	123042.23	-4.375533e-05	669731.94	197526.72	-0.00018741553	197529.75	669731.25	-0.00012461701
0	0.61908364	0.61908096	-2.630526e-10	0.051618718	0.051618718	0	122965.484	122964.96	-5.2439616e-05	669958.06	196755.94	-0.00016224217	196758.94	669957.5	-0.00021324943
0	0.61869276	0.61869	-3.012905e-10	0.05126525	0.05126525	0	122887.82	122887.31	-6.002615e-05	670184	195982.75	-0.0002835015	195985.8	670183.4	-0.00014166693
0	0.6182991	0.6182966	-1.6469492e-10	0.05091175	0.05091175	0	122809.67	122809.15	-3.2373748e-05	670410.06	195205.75	-0.00012122981	195208.77	670409.44	-0.0001178082
0	0.61790323	0.61790067	-3.0368527e-10	0.0505581	0.0505581	0	122731.016	122730.51	-5.8487483e-05	670636.2	194425.23	-0.00010468536	194428.28	670635.56	-0.0003214728
0	0.6175035	0.6175009	-5.404579e-10	0.050204627	0.050204627	0	122651.65	122651.125	-0.000108746004	670862.75	193639.19	-0.00046398808	193642.23	670862.1	-0.00031064497
0	0.6171049	0.6171023	-3.370836e-10	0.049850974	0.049850974	0	122572.47	122571.96	-6.780104e-05	671087.7	192856.1	-0.00029996294	192859.12	671087.2	-0.0002076853
0	0.6167018	0.6166993	3.5308612e-10	0.049497493	0.049497493	0	122492.4	122491.89	6.977439e-05	671313.75	192065.8	0.00014310899	192068.83	671313.1	0.00034781196
0	0.61629707	0.61629456	-1.2053973e-10	0.049143914	0.049143914	0	122412.016	122411.484	-2.3215305e-05	671539.3	191273.55	-6.789718e-05	191276.6	671538.7	-0.00010126526
0	0.61588997	0.61588734	-8.5785906e-11	0.04879043	0.04879043	0	122331.13	122330.63	-1.7826273e-05	671764.75	190478.2	-0.00012695671	190481.25	671764.06	2.4726804e-05
0	0.61548036	0.6154778	-1.3731456e-10	0.04843677	0.04843677	0	122249.79	122249.28	-2.5570882e-05	671990.06	189679.42	-0.00021829028	189682.47	671989.44	1.6329768e-05
0	0.61506784	0.6150653	-1.1031338e-10	0.04808329	0.04808329	0	122167.85	122167.34	-2.5003608e-05	672215.5	188876.33	-0.00018149725	188879.38	672214.94	-4.460469e-07
0	0.61465317	0.6146506	-1.8426799e-10	0.04772965	0.04772965	0	122085.48	122084.97	-3.1542608e-05	672440.9	188070.53	-0.00012181779	188073.58	672440.3	-0.00010994689
0	0.6142359	0.61423326	-7.91332e-11	0.047376156	0.047376156	0	122002.59	122002.086	-1.8977104e-05	672666.2	187261.02	-6.41282e-05	187264.06	672665.56	-6.4781416e-05
0	0.61381644	0.6138138	-2.3762972e-10	0.04702266	0.04702266	0	121919.29	121918.766	-4.7341295e-05	672891.1	186448.83	-0.00018829235	186451.88	672890.5	-0.00013976905
0	0.6133946	0.61339206	-1.920768e-10	0.046669014	0.046669014	0	121835.52	121835.01	-3.5957415e-05	673115.8	185633.67	-0.00013082623	185636.73	673115.3	-0.000120713215
0	0.61296976	0.61296713	1.9711183e-10	0.046315536	0.046315536	0	121751.125	121750.61	3.974615e-05	673340.7	184813.9	0.00022527984	184816.98	673340.2	8.661143e-05
0	0.6125434	0.61254084	-4.1400344e-10	0.045961887	0.045961887	0	121666.42	121665.92	-8.424629e-05	673565	183992.67	-0.00042672688	183995.75	673564.56	-0.00017360854
0	0.612114	0.6121114	-1.8714304e-10	0.045608394	0.045608394	0	121581.13	121580.63	-4.1029263e-05	673789.4	183167.16	-0.00016543061	183170.22	673788.8	-0.0001063329
0	0.6116816	0.6116791	-2.2037903e-10	0.04525483	0.04525483	0	121495.266	121494.734	-4.5456916e-05	674013.8	182337.31	-0.0002561844	182340.38	674013.25	-7.548958e-05
0	0.61124694	0.6112444	-3.8448006e-10	0.044901334	0.044901334	0	121408.92	121408.414	-7.5601594e-05	674237.94	181504.64	-0.00037966616	181507.69	674237.44	-0.00018137798
0	0.61080974	0.6108071	-3.1232694e-10	0.044547696	0.044547696	0	121322.09	121321.586	-6.5541775e-05	674461.75	180668.78	-0.00019505387	180671.86	674461.25	-0.00027163027
0	0.6103704	0.6103677	-1.08552785e-10	0.04419421	0.04419421	0	121234.79	121234.29	-2.035207e-05	674685.4	179829.9	-0.00021419438	179832.97	674685	5.7161313e-05
0	0.6099244	0.6099219	-3.185756e-10	0.04384058	0.04384058	0	121146.24	121145.74	-6.320323e-05	674910.56	178980.58	-0.00019786159	178983.64	674910	-0.00026636812
0	0.6094836	0.6094809	-1.5702784e-10	0.043487065	0.043487065	0	121058.66	121058.15	-3.1013966e-05	675132	178141.83	-0.00014784945	178144.88	675131.5	-5.7920668e-05
0	0.6090343	0.6090317	-2.6882754e-10	0.04313356	0.04313356	0	120969.414	120968.92	-5.0143517e-05	675355.6	177289.16	-0.00032364583	177292.2	675355.25	-5.3743926e-05
0	0.60858494	0.6085824	-4.183053e-10	0.042779934	0.042779934	0	120880.195	120879.695	-8.2227896e-05	675578.3	176437.62	-0.0003154159	176440.67	675577.8	-0.0002592172
0	0.6081316	0.6081291	-2.1495986e-10	0.04242642	0.04242642	0	120790.14	120789.66	-4.529541e-05	675801.06	175580.12	-0.0001517667	175583.19	675800.56	-0.00016247075
0	0.6076761	0.6076736	-3.9323803e-10	0.04207281	0.04207281	0	120699.664	120699.17	-8.124264e-05	676023.44	174720	-0.0002537347	174723.08	676023	-0.0003247931
0	0.60721767	0.6072151	-4.551326e-11	0.041719295	0.041719295	0	120608.61	120608.12	-1.2207163e-05	676245.6	173856.12	-8.8809895e-05	173859.19	676245.1	1.2604952e-05
0	0.60675615	0.60675365	-3.0735864e-10	0.041365758	0.041365758	0	120516.94	120516.44	-6.405001e-05	676467.7	172987.92	-0.00016886124	172990.97	676467.2	-0.00030334803
0	0.6062928	0.6062903	-2.9166208e-10	0.041012242	0.041012242	0	120424.914	120424.4	-5.510504e-05	676689	172117.83	-7.021873e-05	172120.86	676688.6	-0.0003400287
0	0.6058258	0.6058232	-2.0782934e-10	0.040658627	0.040658627	0	120332.13	120331.65	-4.03855e-05	676910.5	171242.48	-0.00018388794	171245.56	676910.1	-0.00010190966
0	0.6053567	0.60535413	-1.4799281e-10	0.040305126	0.040305126	0	120238.98	120238.484	-2.7479082e-05	677131.5	170364.81	-9.232502e-05	170367.89	677131.06	-0.00011988185
0	0.6048839	0.6048814	-7.705018e-11	0.03995151	0.03995151	0	120145.07	120144.56	-1.8514793e-05	677352.44	169481.92	-0.0002116981	169484.97	677352.06	6.871418e-05
0	0.6044087	0.6044062	-3.0548117e-10	0.039597988	0.039597988	0	120050.67	120050.195	-6.1752486e-05	677572.94	168596.11	-0.00026027585	168599.14	677572.6	-0.00017655542
0	0.60392666	0.6039242	-2.8814612e-10	0.03924446	0.03924446	0	119954.92	119954.445	-5.602543e-05	677794.9	167699.44	-0.00018842096	167702.48	677794.4	-0.00021377
0	0.6034494	0.603447	-5.2983087e-11	0.03889085	0.03889085	0	119860.13	119859.664	-1.3879998e-05	678013.06	166813.1	-8.571056e-05	166816.17	678012.6	-2.060308e-05
0	0.6029661	0.60296357	-1.3228187e-10	0.03853732	0.03853732	0	119764.13	119763.65	-2.9010993e-05	678232.5	165916.97	-0.0001140485	165920	678232.1	-8.589961e-05
0	0.6024787	0.6024762	2.057107e-11	0.03818373	0.03818373	0	119667.33	119666.85	3.9303636e-06	678451.94	165015.12	3.236611e-05	165018.17	678451.6	2.0499061e-05
0	0.6019896	0.60198724	-3.3892236e-10	0.0378302	0.0378302	0	119570.2	119569.71	-6.760132e-05	678670.5	164111.9	-0.00031477146	164114.95	678670.2	-0.00016642426
0	0.6014969	0.60149443	-4.226437e-10	0.03747659	0.03747659	0	119472.32	119471.84	-8.341977e-05	678889.06	163203.47	-0.00034090932	163206.52	678888.75	-0.00026162132
0	0.6009993	0.60099685	-3.8912787e-10	0.037123155	0.037123155	0	119373.48	119373	-7.732591e-05	679107.94	162288.05	-0.0003840978	162291.1	679107.56	-0.00018807272
0	0.60050225	0.6004998	-2.3623134e-10	0.036769558	0.036769558	0	119274.75	119274.26	-4.821497e-05	679325.1	161374.89	-5.114991e-05	161377.92	679324.75	-0.00027526505
0	0.6000008	0.5999984	-1.7919674e-10	0.036416043	0.036416043	0	119175.15	119174.664	-3.5798483e-05	679542.44	160455.67	-0.00013463157	160458.7	679542.06	-0.000102648024
0	0.5994959	0.59949356	-4.5402366e-11	0.036062438	0.036062438	0	119074.88	119074.39	-6.1896667e-06	679759.5	159531.8	-0.00012358766	159534.84	679759.06	8.936737e-05
0	0.5989872	0.5989848	1.6299863e-10	0.035708897	0.035708897	0	118973.83	118973.36	3.4832192e-05	679976.1	158602.89	9.981986e-05	158605.95	679975.8	0.00015785993
0	0.59847695	0.5984745	1.7229801e-11	0.035355352	0.035355352	0	118872.48	118872	3.556326e-06	680192.25	157672.53	6.455297e-05	157675.56	680191.75	-3.875933e-05
0	0.5979633	0.5979609	-3.7636508e-10	0.03500176	0.03500176	0	118770.46	118769.984	-7.189421e-05	680407.8	156737.84	-0.0003406423	156740.88	680407.4	-0.00018744351
0	0.59744555	0.5974432	-4.902559e-10	0.034648214	0.034648214	0	118667.63	118667.15	-9.817659e-05	680623.06	155797.69	-0.0003397209	155800.72	680622.8	-0.00035923836
0	0.59692574	0.59692323	-3.7080267e-10	0.034294646	0.034294646	0	118564.35	118563.9	-7.215077e-05	680837.9	154855.12	-0.00033403054	154858.16	680837.5	-0.00020360427
0	0.596402	0.5963996	-3.8307832e-10	0.033941098	0.033941098	0	118460.37	118459.875	-7.407628e-05	681052.2	153907.61	-0.00038096128	153910.64	681051.9	-0.00014591018
0	0.5958746	0.5958722	-1.19096105e-11	0.03358751	0.03358751	0	118355.6	118355.13	-3.2530875e-06	681266.3	152955.22	-0.00010821685	152958.27	681265.9	7.855492e-05
0	0.59534544	0.595343	3.710493e-11	0.033234067	0.033234067	0	118250.47	118250.01	8.322164e-06	681479.3	152001.14	-1.24227045e-05	152004.17	681479.06	7.61655e-05
0	0.59481066	0.5948082	-4.986565e-10	0.032880493	0.032880493	0	118144.26	118143.77	-0.000100274636	681692.6	151039.12	-0.00031896768	151042.12	681692.44	-0.00038734204
0	0.5942753	0.5942729	-1.08740884e-10	0.03252695	0.03252695	0	118037.92	118037.46	-2.2690787e-05	681904.6	150077.73	-7.220656e-05	150080.75	681904.3	-9.319042e-05
0	0.59373546	0.59373313	6.748687e-11	0.03217338	0.03217338	0	117930.7	117930.24	1.5254224e-05	682116.5	149110.12	7.127653e-05	149113.14	682116.3	2.3262879e-05
0	0.5931921	0.5931898	-5.676115e-11	0.03181982	0.03181982	0	117822.78	117822.32	-8.8164e-06	682327.94	148138.1	-0.0001254669	148141.11	682327.5	7.178693e-05
0	0.59264576	0.5926435	-2.24576e-10	0.03146625	0.03146625	0	117714.27	117713.81	-4.5050994e-05	682538.44	147162.67	-0.0002443857	147165.66	682538.2	-7.207681e-05
0	0.59209615	0.59209377	-3.0714611e-10	0.031112673	0.031112673	0	117605.086	117604.625	-6.400808e-05	682748.6	146182.89	-0.00033197997	146185.88	682748.4	-0.00010871685
0	0.5915425	0.59154016	-9.1218935e-11	0.030759111	0.030759111	0	117495.12	117494.664	-1.9071524e-05	682958.4	145198.06	-0.00019943569	145201.08	682958.1	6.8828245e-05
0	0.59098566	0.59098333	-2.4730493e-10	0.030405568	0.030405568	0	117384.516	117384.06	-4.7438043e-05	683167.4	144209.5	-0.0002821233	144212.48	683167.2	-6.8579946e-05
0	0.5904257	0.5904234	-4.0812587e-10	0.030052004	0.030052004	0	117273.3	117272.83	-7.9321144e-05	683375.7	143217.23	-0.00030186586	143220.23	683375.44	-0.0002748077
0	0.5898618	0.5898595	-3.4256287e-10	0.029698437	0.029698437	0	117161.31	117160.85	-6.952817e-05	683583.6	142219.98	-0.00031760463	142222.95	683583.4	-0.00018210143
0	0.58929473	0.58929247	-2.3375588e-10	0.02934497	0.02934497	0	117048.67	117048.21	-4.492182e-05	683790.7	141218.9	-0.0001099299	141221.88	683790.6	-0.00022913808
0	0.58871955	0.5887173	-2.9612493e-11	0.028991407	0.028991407	0	116934.42	116933.97	-6.411871e-06	683998.7	140205.73	-8.589408e-05	140208.7	683998.5	4.2208463e-05
0	0.5881497	0.5881474	-1.5411188e-10	0.028637834	0.028637834	0	116821.234	116820.78	-3.0247811e-05	684203.2	139203.38	-9.607972e-05	139206.36	684202.94	-0.00013587989
0	0.5875711	0.5875688	-5.3904003e-10	0.0282843	0.0282843	0	116706.305	116705.84	-0.00010518322	684408.6	138187.95	-0.00043997256	138190.92	684408.3	-0.00031915255
0	0.5869879	0.5869857	-6.528149e-11	0.02793073	0.02793073	0	116590.47	116590.03	-1.2074341e-05	684613.5	137166.66	-7.371028e-05	137169.61	684613.4	-9.51084e-06
0	0.5864049	0.5864027	-7.2219085e-11	0.027577164	0.027577164	0	116474.695	116474.25	-1.0566763e-05	684816.8	136147.31	-0.0001858049	136150.25	684816.56	8.884968e-05
0	0.58581614	0.58581394	1.0274959e-10	0.02722359	0.02722359	0	116357.734	116357.305	1.760003e-05	685019.94	135119.78	5.532763e-05	135122.75	685019.75	7.7663484e-05
0	0.5852221	0.5852199	3.969169e-11	0.026870027	0.026870027	0	116239.74	116239.3	9.677747e-06	685222.75	134085.31	2.9140454e-05	134088.27	685222.56	5.072586e-05
0	0.5846275	0.5846253	-1.2904383e-10	0.026516493	0.026516493	0	116121.65	116121.21	-2.5639254e-05	685423.9	133051.69	-9.223501e-05	133054.62	685423.7	-9.190519e-05
0	0.5840231	0.5840209	-7.157425e-11	0.02616292	0.02616292	0	116001.59	116001.17	-1.1937403e-05	685626.1	132003.36	-0.00012336	132006.28	685625.94	4.4825345e-05
0	0.5834235	0.58342135	-5.304851e-10	0.025809359	0.025809359	0	115882.49	115882.06	-0.000102650694	685824.94	130965.03	-0.00044209536	130967.98	685824.9	-0.00031289615
0	0.58281535	0.5828133	-1.1150345e-10	0.025455875	0.025455875	0	115761.695	115761.28	-2.3090884e-05	686024.44	129914.195	-7.411593e-05	129917.11	686024.4	-6.409851e-05
0	0.58220446	0.58220226	-4.5439216e-10	0.025102314	0.025102314	0	115640.35	115639.94	-9.2180875e-05	686222.8	128860.43	-0.00044601242	128863.35	686222.75	-0.00023179235
0	0.5815872	0.58158505	2.3945873e-11	0.024748746	0.024748746	0	115517.76	115517.32	6.407465e-06	686421.1	127798.05	-7.590058e-05	127800.95	686421.06	0.00013783152
0	0.5809702	0.5809681	-5.4921556e-10	0.024395214	0.024395214	0	115395.22	115394.77	-0.00010469167	686617.4	126738	-0.00047082902	126740.92	686617.25	-0.00028340504
0	0.5803469	0.5803448	-8.3479154e-11	0.024041645	0.024041645	0	115271.4	115270.984	-1.7405388e-05	686813.56	125669.3	-0.00014873072	125672.19	686813.4	3.7751855e-05
0	0.5797198	0.57971764	-3.0634684e-10	0.023688078	0.023688078	0	115146.83	115146.42	-6.234952e-05	687008.7	124596.1	-0.000119276905	124598.99	687008.7	-0.00033105747
0	0.57908416	0.5790821	6.3109904e-12	0.023334507	0.023334507	0	115020.59	115020.17	6.5536665e-06	687204.25	123510.61	-2.8028619e-05	123513.484	687204.2	7.000865e-05
0	0.5784531	0.5784511	-2.1268165e-10	0.022980943	0.022980943	0	114895.266	114894.85	-4.2980006e-05	687396.44	122435.086	-0.00015856654	122437.98	687396.44	-0.00013889583
0	0.577814	0.57781196	-3.6613074e-10	0.022627415	0.022627415	0	114768.31	114767.9	-6.9408285e-05	687589	121347.79	-0.0002868112	121350.66	687588.94	-0.00022708665
0	0.57717144	0.57716936	-3.8957745e-10	0.022273848	0.022273848	0	114640.69	114640.27	-7.798647e-05	687780.4	120256.875	-0.00030959578	120259.71	687780.3	-0.0002389561
0	0.57652354	0.57652146	-2.0437375e-10	0.02192029	0.02192029	0	114511.984	114511.57	-3.944661e-05	687971	119159.03	-0.000113656104	119161.88	687971	-0.00016097889
0	0.5758703	0.57586825	1.1753275e-10	0.02156678	0.02156678	0	114382.23	114381.82	2.491556e-05	688161.06	118054.5	3.1763368e-06	118057.336	688161.06	0.00020451921
0	0.57521486	0.5752129	-2.9558359e-10	0.02121321	0.02121321	0	114252.06	114251.66	-5.8792026e-05	688349.7	116948.4	-0.00033266246	116951.234	688349.7	-8.485992e-05
0	0.5745554	0.5745534	-8.012594e-10	0.020859648	0.020859648	0	114121.06	114120.664	-0.00015948004	688537.2	115837.48	-0.0006300408	115840.31	688537.25	-0.00052323134
0	0.57389265	0.5738906	-2.8015798e-10	0.020506121	0.020506121	0	113989.44	113989.03	-5.7502388e-05	688723.5	114723.39	-0.00035521187	114726.21	688723.56	-3.9690385e-05
0	0.5732239	0.573222	1.562323e-10	0.020152563	0.020152563	0	113856.6	113856.195	3.0940093e-05	688909.06	113601.51	0.0001136042	113604.3	688909.2	0.0001243209
0	0.5725472	0.57254523	-1.8126718e-10	0.019798994	0.019798994	0	113722.18	113721.79	-3.853267e-05	689094.75	112468.516	-0.00037182868	112471.305	689094.7	9.175682e-05
0	0.571874	0.5718721	3.1504307e-10	0.019445425	0.019445425	0	113588.48	113588.09	6.159003e-05	689277.06	111343.8	0.00014854532	111346.58	689277.1	0.00029170208
0	0.57119304	0.5711911	-3.645029e-11	0.019091865	0.019091865	0	113453.2	113452.83	-5.792979e-06	689459.44	110208.02	-6.8984235e-05	110210.77	689459.6	2.194377e-05
0	0.5705072	0.57050526	-4.6014387e-10	0.018738296	0.018738296	0	113317.01	113316.625	-9.5526106e-05	689640.6	109066.73	-0.0004341907	109069.51	689640.7	-0.0002504365
0	0.56981647	0.5698146	-2.5563443e-10	0.018384779	0.018384779	0	113179.79	113179.42	-5.1239647e-05	689820.75	107919.53	-0.00032091423	107922.28	689820.9	-6.8066256e-05
0	0.5691219	0.56912005	-3.5243447e-10	0.018031219	0.018031219	0	113041.85	113041.47	-7.2801435e-05	689999.7	106768.28	-0.00046794635	106771	689999.9	-5.050081e-05
0	0.5684225	0.5684207	-8.9335796e-11	0.017677676	0.017677676	0	112902.93	112902.56	-1.9330771e-05	690177.5	105611.336	-0.00024303702	105614.055	690177.56	0.000102217164
0	0.5677186	0.56771684	5.859833e-11	0.017324107	0.017324107	0	112763.12	112762.734	1.2431368e-05	690354	104449.36	0.000100903235	104452.086	690354.06	-4.031007e-06
0	0.56700987	0.567008	1.7487841e-11	0.016970549	0.016970549	0	112622.336	112621.97	2.1519884e-06	690529.44	103281.75	-3.400131e-05	103284.44	690529.56	6.445769e-05
0	0.56629485	0.56629306	-2.0752434e-10	0.016617034	0.016617034	0	112480.32	112479.95	-4.1876123e-05	690703.8	102106.24	-0.00031809887	102108.94	690704.06	1.8092702e-05
0	0.5655742	0.56557244	-3.8727108e-10	0.016263476	0.016263476	0	112337.2	112336.83	-8.063891e-05	690877.56	100923.71	-0.00032608435	100926.41	690877.7	-0.0002518778
0	0.56485397	0.5648521	-2.6343686e-10	0.01590991	0.01590991	0	112194.11	112193.76	-5.0836752e-05	691048.44	99744.46	-0.00028199624	99747.12	691048.56	-7.538752e-05
0	0.5641295	0.5641277	-3.1516972e-10	0.015556336	0.015556336	0	112050.21	112049.86	-6.217514e-05	691218.2	98560.42	-0.00019979142	98563.06	691218.25	-0.00025165846
0	0.56339127	0.56338954	-5.31503e-10	0.015202784	0.015202784	0	111903.61	111903.25	-0.000104948966	691388.56	97356.61	-0.0004811487	97359.26	691388.75	-0.0002762273
0	0.5626607	0.56265897	-2.6843536e-10	0.014849219	0.014849219	0	111758.48	111758.125	-5.40932e-05	691554.6	96167.65	-0.00025263804	96170.28	691554.9	-0.00013168373
0	0.56191874	0.561917	-2.8381086e-10	0.014495703	0.014495703	0	111611.11	111610.766	-5.41053e-05	691720.8	94962.75	-0.00033537915	94965.37	691721.06	-7.468249e-05
0	0.56117237	0.5611707	-4.285178e-10	0.01414215	0.01414215	0	111462.88	111462.53	-8.419581e-05	691885.7	93753.15	-0.00026328946	93755.75	691885.8	-0.00037354013
0	0.5604212	0.56041956	-1.6606125e-10	0.013788582	0.013788582	0	111313.664	111313.32	-3.0572985e-05	692049	92538.125	-0.00024580365	92540.7	692049.2	2.0889958e-05
0	0.55966383	0.55966216	-9.6470026e-11	0.013435014	0.013435014	0	111163.234	111162.914	-1.7579545e-05	692211	91315.8	-0.00012421494	91318.375	692211.25	-1.7880014e-06
0	0.5589026	0.55890095	-2.1931158e-10	0.01308146	0.01308146	0	111012.03	111011.71	-4.2559896e-05	692371.5	90089.516	-0.00020168928	90092.08	692371.8	-9.756817e-05
0	0.5581367	0.5581351	-2.284561e-10	0.012727938	0.012727938	0	110859.92	110859.586	-4.6980083e-05	692530.44	88858.516	-0.00022323441	88861.06	692530.6	-0.00010910638
0	0.5573641	0.5573625	-6.114241e-10	0.012374373	0.012374373	0	110706.45	110706.12	-0.00012272944	692688.2	87619.17	-0.0004730669	87621.695	692688.4	-0.00039826235
0	0.55658734	0.5565858	1.05169665e-10	0.012020823	0.012020823	0	110552.17	110551.86	1.684437e-05	692844	86375.88	3.482997e-05	86378.38	692844.25	9.863629e-05
0	0.55580527	0.5558037	2.6662941e-11	0.011667253	0.011667253	0	110396.83	110396.516	5.0609087e-06	692998.3	85126.57	5.31268e-05	85129.08	692998.6	-1.0874516e-05
0	0.5550178	0.55501634	-1.6850611e-10	0.011313708	0.011313708	0	110240.43	110240.12	-3.0618216e-05	693151.1	83871.42	-0.0002058736	83873.9	693151.44	-1.3476531e-05
0	0.55422586	0.5542244	-5.2524998e-11	0.010960145	0.010960145	0	110083.11	110082.81	-1.1158101e-05	693302.3	82611.516	-0.0001941873	82613.984	693302.5	0.00012604172
0	0.55342746	0.5534259	-7.616321e-11	0.010606605	0.010606605	0	109924.52	109924.234	-1.6931646e-05	693451.9	81344.07	-0.00012417656	81346.516	693452.25	1.6660731e-05
0	0.55262434	0.55262285	-4.4932676e-11	0.010253061	0.010253061	0	109765	109764.71	-9.485713e-06	693599.75	80071.89	-8.344796e-05	80074.34	693600	2.313218e-05
0	0.5518155	0.55181414	-3.002922e-11	0.009899497	0.009899497	0	109604.375	109604.08	-6.559742e-06	693745.9	78793.47	-7.7725475e-05	78795.875	693746.4	2.2311897e-05
0	0.5510012	0.55099976	-3.699978e-10	0.0095459325	0.0095459325	0	109442.62	109442.32	-7.0799775e-05	693890.44	77508.93	-0.00034275695	77511.33	693890.75	-0.00015974695
0	0.5501807	0.5501793	6.4701383e-10	0.009192389	0.009192389	0	109279.63	109279.36	0.00012762634	694033.1	76217.484	0.0003640644	76219.87	694033.5	0.0005429582
0	0.5493566	0.54935515	-3.7957085e-10	0.008838838	0.008838838	0	109115.95	109115.664	-7.423786e-05	694173.94	74922.86	-0.00030605777	74925.234	694174.3	-0.00023234857
0	0.5485255	0.54852414	-2.3675936e-10	0.008485274	0.008485274	0	108950.88	108950.61	-4.8358263e-05	694313.1	73620.29	-0.0002475042	73622.63	694313.5	-9.011799e-05
0	0.5476886	0.54768723	-5.943322e-10	0.008131738	0.008131738	0	108784.66	108784.375	-0.00011872147	694450.44	72311.29	-0.00033496882	72313.62	694450.75	-0.0005272423
0	0.54684657	0.5468452	-1.0296826e-10	0.007778168	0.007778168	0	108617.4	108617.125	-2.154469e-05	694585.9	70997.08	-0.00012307202	70999.39	694586.2	-3.8310565e-05
0	0.54599845	0.54599714	-3.843328e-10	0.0074246093	0.0074246093	0	108448.945	108448.67	-7.225337e-05	694719.4	69676.164	-0.0003995612	69678.48	694719.7	-0.00014641939
0	0.54514503	0.5451437	-2.420115e-10	0.007071075	0.007071075	0	108279.44	108279.19	-4.6666384e-05	694850.9	68349.97	-0.0004254967	68352.25	694851.25	9.911777e-05