//mumax 3.10 [windows_amd64 go1.11.6(gc) CUDA-11.0]
//GPU info: NVIDIA GeForce RTX 3090(24575MB), CUDA Driver 12.0, cc=8.6, using cc=80 PTX
//(c) Arne Vansteenkiste, Dynamat LAB, Ghent University, Belgium
//This is free software without any warranty. See license.txt
//********************************************************************//
//  If you use mumax in any work or publication,                      //
//  we kindly ask you to cite the references in references.bib        //
//********************************************************************//
//output directory: r1;p0.5;a5.12e-07;l2.3000000000000002e-07;s0.out/
randSeed(0)
ThermSeed(0)
resolution := 2e-09
zResolution := 5e-09
a := 5.12e-07
gridSize := 512
gridDepth := 5
SetCellsize(resolution, resolution, zResolution)
SetGridsize(gridSize, gridSize, gridDepth)
SetPBC(16, 16, 0)
//resizing...
Msat = 700e3
Aex = 13e-12
alpha = 0.2
Bmax := 0.1
Bstep := Bmax / 500.0
TableAdd(B_ext)
TableAdd(m_full)
islandWidth := 8e-08
islandLength := 2.3000000000000002e-07
ellipseConstant := 5.7500000000000005e-08
hIsland := rect(islandLength-2*ellipseConstant, islandWidth)
hIsland = hIsland.add(ellipse(ellipseConstant*2, islandWidth).transl(islandLength/2-ellipseConstant, 0, 0))
hIsland = hIsland.add(ellipse(ellipseConstant*2, islandWidth).transl(-islandLength/2+ellipseConstant, 0, 0))
hIsland = hIsland.add(rect(1e-08, 3.859674146453008e-09).transl(-7.035294522262431e-08, -3.898788674688657e-08, 0))
hIsland = hIsland.add(rect(1e-08, 1.3602460303383181e-09).transl(-4.1625825241158385e-08, -4e-08, 0))
hIsland = hIsland.add(rect(1e-08, 5.515447166350928e-09).transl(-8.0642582986477e-08, -3.661715636752585e-08, 0))
hIsland = hIsland.add(rect(1e-08, 6.2436553691548276e-09).transl(9.126283030411911e-08, -3.237826554617658e-08, 0))
hIsland = hIsland.add(rect(1e-08, 1.489898031880733e-09).transl(-3.8950569933557694e-08, -4e-08, 0))
hIsland = hIsland.sub(rect(1e-08, -2.113092924998096e-09).transl(-1.1417803321923774e-07, -6.739234347325092e-09, 0))
hIsland = hIsland.add(rect(1e-08, 4.421631279594278e-09).transl(-3.751666068470651e-08, -4e-08, 0))
hIsland = hIsland.sub(rect(1e-08, -1.729079522625493e-09).transl(9.331834241101097e-08, -3.1291176722331237e-08, 0))
hIsland = hIsland.add(rect(1e-08, 4.7793952095189145e-09).transl(7.459133203225363e-08, -3.819210496896306e-08, 0))
hIsland = hIsland.add(rect(1e-08, 2.478243674134781e-09).transl(3.948221753564704e-08, -4e-08, 0))
hIsland = hIsland.add(rect(1e-08, 2.0216858326474587e-09).transl(4.898167269945557e-08, -4e-08, 0))
hIsland = hIsland.sub(rect(1e-08, -3.4708384419160382e-09).transl(-1.81814429403476e-08, -4e-08, 0))
hIsland = hIsland.add(rect(1e-08, 1.9398116748698828e-11).transl(1.6208520908707496e-08, -4e-08, 0))
hIsland = hIsland.add(rect(1e-08, 6.595797422757266e-09).transl(6.552135607520103e-08, -3.9608872446486505e-08, 0))
hIsland = hIsland.add(rect(1e-08, 2.367701733609193e-09).transl(-1.802336544292331e-08, -4e-08, 0))
hIsland = hIsland.sub(rect(1e-08, -7.092816857424386e-09).transl(1.0949216571405563e-07, -1.7083391835087927e-08, 0))
hIsland = hIsland.sub(rect(1e-08, -1.2838125645609163e-09).transl(8.140714974163282e-08, -3.6378672602654716e-08, 0))
hIsland = hIsland.add(rect(1e-08, 1.0085106945339623e-09).transl(-6.342081017547142e-08, -3.978737594999461e-08, 0))
hIsland = hIsland.add(rect(1e-08, 3.4598544491118255e-09).transl(-1.132011732958413e-07, -9.926868613404538e-09, 0))
hIsland = hIsland.sub(rect(1e-08, -1.1029776400959514e-09).transl(-2.683401233055501e-09, -4e-08, 0))
hIsland = hIsland.add(rect(1e-08, 3.4594304879432868e-09).transl(-1.0546325055821425e-08, -4e-08, 0))
hIsland = hIsland.add(rect(1e-08, 8.329821856505878e-09).transl(-3.429074490985292e-08, -4e-08, 0))
hIsland = hIsland.sub(rect(1e-08, -5.885376635366837e-09).transl(1.8127448222892668e-08, -4e-08, 0))
hIsland = hIsland.add(rect(1e-08, 4.134969592171043e-09).transl(1.921626997450381e-08, -4e-08, 0))
hIsland = hIsland.sub(rect(1e-08, -9.781020593174309e-10).transl(-5.8180806086871905e-08, -3.999719613959471e-08, 0))
hIsland = hIsland.add(rect(1e-08, 3.7128076687918724e-09).transl(8.425788672208306e-08, -3.5404974593362154e-08, 0))
hIsland = hIsland.sub(rect(1e-08, -7.176916028616211e-10).transl(-1.1230014974418366e-07, -1.211301215170054e-08, 0))
hIsland = hIsland.add(rect(1e-08, 5.186780698776961e-09).transl(5.739618551869106e-08, -4e-08, 0))
hIsland = hIsland.add(rect(1e-08, 4.565562845370057e-09).transl(7.480541395585855e-08, -3.814542360302777e-08, 0))
hIsland = hIsland.sub(rect(1e-08, -3.006576625745353e-09).transl(-4.657326968271295e-08, -4e-08, 0))
hIsland = hIsland.add(rect(1e-08, 4.680427111003769e-10).transl(1.8433495511855035e-08, -4e-08, 0))
hIsland = hIsland.add(rect(1e-08, 6.127300817710016e-09).transl(-1.146975749496426e-07, -4.097114916788408e-09, 0))
hIsland = hIsland.sub(rect(1e-08, -3.047908288859374e-09).transl(-1.0549235667482445e-07, -2.2031247245806033e-08, 0))
hIsland = hIsland.sub(rect(1e-08, -4.870854566859371e-09).transl(-2.548931836489474e-08, -4e-08, 0))
hIsland = hIsland.add(rect(1e-08, 6.462850341908774e-09).transl(-8.960921447397486e-08, -3.318230495432423e-08, 0))
hIsland = hIsland.sub(rect(1e-08, -7.362348979269993e-10).transl(9.165054785322532e-08, -3.218088822213838e-08, 0))
hIsland = hIsland.add(rect(1e-08, 1.9104026673496257e-09).transl(-1.0884811595691679e-07, -1.8001416287739005e-08, 0))
hIsland = hIsland.add(rect(1e-08, 1.115745623176591e-09).transl(-3.606949848597696e-08, -4e-08, 0))
hIsland = hIsland.add(rect(1e-08, 4.187927274728465e-09).transl(8.016625158160452e-08, -3.676106127133026e-08, 0))
hIsland = hIsland.sub(rect(1e-08, -7.094031982271165e-09).transl(-4.57601183997651e-08, -4e-08, 0))
hIsland = hIsland.sub(rect(1e-08, -2.2743281123318097e-09).transl(-1.0248147821342867e-07, -2.4916748117457238e-08, 0))
hIsland = hIsland.add(rect(1e-08, 2.980832457969599e-09).transl(4.33746291923668e-08, -4e-08, 0))
hIsland = hIsland.sub(rect(1e-08, -5.37876454022444e-09).transl(2.1821941436178127e-08, -4e-08, 0))
hIsland = hIsland.add(rect(1e-08, 4.7190254006743215e-09).transl(2.2771228721027763e-08, -4e-08, 0))
hIsland = hIsland.add(rect(1e-08, 3.2098520591688263e-09).transl(-2.887476081247153e-08, -4e-08, 0))
hIsland = hIsland.add(rect(1e-08, 3.7683393201382224e-10).transl(1.779411936676732e-08, -4e-08, 0))
hIsland = hIsland.add(rect(1e-08, 5.298095095974099e-10).transl(-4.9892846214627236e-08, -4e-08, 0))
hIsland = hIsland.sub(rect(1e-08, -4.8822768895026455e-09).transl(8.026073532658732e-08, -3.67327991820885e-08, 0))
hIsland = hIsland.add(rect(1e-08, 5.225815234850155e-09).transl(-4.4458133986291655e-08, -4e-08, 0))
hIsland = hIsland.sub(rect(1e-08, -1.9856212709287866e-09).transl(1.0026496219345849e-07, -2.673882821319376e-08, 0))
hIsland = hIsland.sub(rect(1e-08, -7.651295298408817e-09).transl(4.127416355723374e-08, -4e-08, 0))
hIsland = hIsland.sub(rect(1e-08, -1.5245092883112358e-09).transl(9.950835743249724e-09, -4e-08, 0))
hIsland = hIsland.sub(rect(1e-08, -2.4643267635039093e-09).transl(3.854799928855115e-09, -4e-08, 0))
hIsland = hIsland.add(rect(1e-08, 1.1136117889918244e-09).transl(8.874187450510373e-08, -3.358058870313214e-08, 0))
hIsland = hIsland.sub(rect(1e-08, -3.192763268971268e-09).transl(-3.5420438303270455e-08, -4e-08, 0))
hIsland = hIsland.sub(rect(1e-08, -1.70080558982665e-10).transl(6.89942185362921e-08, -3.919265663398142e-08, 0))
hIsland = hIsland.sub(rect(1e-08, -2.3644602729487236e-09).transl(9.212884586678198e-08, -3.193257951637344e-08, 0))
hIsland = hIsland.sub(rect(1e-08, -4.328513112400503e-09).transl(-3.9771759333034554e-08, -4e-08, 0))
hIsland = hIsland.sub(rect(1e-08, -7.280525271593631e-09).transl(9.130235808727908e-08, -3.235830097059694e-08, 0))
hIsland = hIsland.add(rect(1e-08, 3.5233638689648823e-10).transl(-9.030098215547721e-08, -3.285324145579555e-08, 0))
hIsland = hIsland.add(rect(1e-08, 1.5926595744777449e-09).transl(5.716416419515317e-08, -4e-08, 0))
hIsland = hIsland.sub(rect(1e-08, -2.4386264146606208e-09).transl(6.886613979438861e-09, -4e-08, 0))
hIsland = hIsland.sub(rect(1e-08, -8.466164631220248e-11).transl(8.92371892212382e-08, -3.3355058736273717e-08, 0))
hIsland = hIsland.add(rect(1e-08, 7.762976567744701e-09).transl(7.817337891195359e-08, -3.732523281585525e-08, 0))
hIsland = hIsland.add(rect(1e-08, 4.681392743398397e-09).transl(3.8819044337113e-08, -4e-08, 0))
hIsland = hIsland.sub(rect(1e-08, -5.435823765762431e-09).transl(6.541230738793937e-08, -3.9619485484514094e-08, 0))
hIsland = hIsland.add(rect(1e-08, 3.3107101377625185e-09).transl(-5.572122830175193e-08, -4e-08, 0))
hIsland = hIsland.add(rect(1e-08, 9.197093595784751e-11).transl(8.140851747686563e-08, -3.6378237609622353e-08, 0))
hIsland = hIsland.sub(rect(1e-08, -9.269692322045272e-10).transl(2.0572633581305795e-08, -4e-08, 0))
hIsland = hIsland.add(rect(1e-08, 9.749683321428494e-10).transl(5.3501656040208516e-08, -4e-08, 0))
hIsland = hIsland.add(rect(1e-08, 2.1502656390639065e-09).transl(-9.800230619412144e-08, -2.8392608579043706e-08, 0))
hIsland = hIsland.add(rect(1e-08, 1.4068650545425473e-09).transl(-2.221578906960093e-08, -4e-08, 0))
hIsland = hIsland.add(rect(1e-08, 3.3476137569571433e-09).transl(8.234271660547888e-08, -3.607403892702292e-08, 0))
hIsland = hIsland.sub(rect(1e-08, -2.459485539274869e-09).transl(6.423320390939534e-09, -4e-08, 0))
hIsland = hIsland.add(rect(1e-08, 2.9066390245015165e-09).transl(1.0082804742232834e-07, -2.6296483139099212e-08, 0))
hIsland = hIsland.sub(rect(1e-08, -1.0703046238958596e-09).transl(-1.4627844515373061e-08, -4e-08, 0))
hIsland = hIsland.add(rect(1e-08, 4.494885514381842e-09).transl(-2.5394922786373217e-08, -4e-08, 0))
hIsland = hIsland.sub(rect(1e-08, -8.938811266648032e-10).transl(6.678062633183923e-08, -3.947554849836466e-08, 0))
hIsland = hIsland.sub(rect(1e-08, -1.961040823772518e-09).transl(4.0674804966816206e-08, -4e-08, 0))
hIsland = hIsland.add(rect(1e-08, 5.441887560201029e-09).transl(7.129701595558232e-08, -3.883142866474208e-08, 0))
hIsland = hIsland.sub(rect(1e-08, -2.957023592862699e-09).transl(1.0849080246803e-08, -4e-08, 0))
hIsland = hIsland.sub(rect(1e-08, -2.6869771035849256e-09).transl(-2.5491971252679313e-08, -4e-08, 0))
hIsland = hIsland.sub(rect(1e-08, -5.223164478381636e-10).transl(9.646577166632088e-08, -2.941480830987775e-08, 0))
hIsland = hIsland.sub(rect(1e-08, -2.0184511333284204e-10).transl(9.94249268536333e-08, -2.737504452281745e-08, 0))
hIsland = hIsland.sub(rect(1e-08, -2.311915125223837e-09).transl(9.819625384958332e-08, -2.8258080805153878e-08, 0))
hIsland = hIsland.add(rect(1e-08, 2.9607737678029325e-09).transl(8.068383119732284e-08, -3.6604527093546015e-08, 0))
hIsland = hIsland.sub(rect(1e-08, -3.814087044289759e-09).transl(9.34848356617595e-08, -3.11985970497129e-08, 0))
hIsland = hIsland.add(rect(1e-08, 2.3362623833575747e-09).transl(1.1007028049004219e-07, -1.620459898516073e-08, 0))
hIsland = hIsland.add(rect(1e-08, 6.689073521152824e-09).transl(4.5612359802763436e-08, -4e-08, 0))
hIsland = hIsland.sub(rect(1e-08, -4.884108927911273e-09).transl(-6.942861260806267e-08, -3.912978983814332e-08, 0))
hIsland = hIsland.sub(rect(1e-08, -1.5133827051147361e-09).transl(-5.2636148907604515e-08, -4e-08, 0))
hIsland = hIsland.add(rect(1e-08, 2.477391385268399e-09).transl(-4.332689471636254e-08, -4e-08, 0))
hIsland = hIsland.add(rect(1e-08, 5.108109868233951e-09).transl(8.348024471644584e-08, -3.568415539120182e-08, 0))
hIsland = hIsland.sub(rect(1e-08, -3.1321352496747493e-09).transl(-1.139913770212193e-07, -7.459205562777819e-09, 0))
hIsland = hIsland.add(rect(1e-08, 7.606605006145297e-10).transl(2.2947795425170754e-08, -4e-08, 0))
hIsland = hIsland.sub(rect(1e-08, -9.636312709079486e-10).transl(1.738369468181988e-08, -4e-08, 0))
hIsland = hIsland.sub(rect(1e-08, -8.039826942571375e-09).transl(-4.684678183847436e-08, -4e-08, 0))
hIsland = hIsland.sub(rect(1e-08, -3.138306041437005e-09).transl(2.46254661992313e-08, -4e-08, 0))
hIsland = hIsland.add(rect(1e-08, 3.054841947052054e-09).transl(7.44619579100483e-08, -3.8220006535329775e-08, 0))
hIsland = hIsland.add(rect(1e-08, 3.6957183657110744e-09).transl(-2.6641104725012637e-08, -4e-08, 0))
hIsland = hIsland.add(rect(1e-08, 8.502656030727512e-10).transl(-2.0162948175969947e-08, 4e-08, 0))
hIsland = hIsland.add(rect(1e-08, 7.674530957216371e-09).transl(-1.8732485729037497e-08, 4e-08, 0))
hIsland = hIsland.add(rect(1e-08, 4.6109740961909995e-09).transl(-8.499910928346334e-08, 3.512905026021553e-08, 0))
hIsland = hIsland.add(rect(1e-08, 5.525059275550101e-09).transl(3.0081879057193017e-08, 4e-08, 0))
hIsland = hIsland.sub(rect(1e-08, -7.450169504635111e-09).transl(-4.304100165320613e-08, 4e-08, 0))
hIsland = hIsland.sub(rect(1e-08, -4.892744828308365e-09).transl(8.700598025802835e-08, 3.433201796455463e-08, 0))
hIsland = hIsland.add(rect(1e-08, 6.872541562713916e-10).transl(-4.019012636596708e-08, 4e-08, 0))
hIsland = hIsland.add(rect(1e-08, 1.985089148674551e-09).transl(-6.058043359739377e-08, 3.994255794667495e-08, 0))
hIsland = hIsland.add(rect(1e-08, 6.922732940348329e-09).transl(-6.599683883453823e-08, 3.9560863468844415e-08, 0))
hIsland = hIsland.add(rect(1e-08, 3.66198879834641e-09).transl(-6.92072957667272e-08, 3.916212344458837e-08, 0))
hIsland = hIsland.sub(rect(1e-08, -8.903860927184907e-10).transl(3.84778523175202e-08, 4e-08, 0))
hIsland = hIsland.sub(rect(1e-08, -5.413758507161593e-09).transl(-4.2753713161877755e-08, 4e-08, 0))
hIsland = hIsland.sub(rect(1e-08, -5.653268300895722e-10).transl(2.4482024240271194e-08, 4e-08, 0))
hIsland = hIsland.add(rect(1e-08, 5.612026172453194e-09).transl(-1.0665231942143255e-07, 2.0756790896705134e-08, 0))
hIsland = hIsland.add(rect(1e-08, 1.3276670900719547e-09).transl(9.517414955589331e-08, 3.0218128378295066e-08, 0))
hIsland = hIsland.add(rect(1e-08, 1.090969774192295e-09).transl(1.7459795451141444e-08, 4e-08, 0))
hIsland = hIsland.sub(rect(1e-08, -5.243461772002419e-09).transl(-1.100122429504782e-08, 4e-08, 0))
hIsland = hIsland.add(rect(1e-08, 1.9325654829814408e-09).transl(8.96427610205759e-08, 3.3166583781426756e-08, 0))
hIsland = hIsland.add(rect(1e-08, 6.281166582883684e-09).transl(1.0825009980387908e-08, 4e-08, 0))
hIsland = hIsland.sub(rect(1e-08, -2.2275266149631065e-09).transl(6.722888501617582e-08, 3.942328320575653e-08, 0))
hIsland = hIsland.add(rect(1e-08, 1.1623754136953222e-09).transl(-6.428986952113787e-08, 3.972014111998216e-08, 0))
hIsland = hIsland.sub(rect(1e-08, -4.6818734724789156e-09).transl(-7.905031167088239e-08, 3.708442116628927e-08, 0))
hIsland = hIsland.add(rect(1e-08, 6.119580726419798e-09).transl(-4.0075979147192433e-08, 4e-08, 0))
hIsland = hIsland.sub(rect(1e-08, -4.127617457436991e-09).transl(6.428717587760723e-08, 3.972036390587589e-08, 0))
hIsland = hIsland.sub(rect(1e-08, -4.73209375275905e-09).transl(-4.904468714937912e-08, 4e-08, 0))
hIsland = hIsland.add(rect(1e-08, 2.3663375179829123e-09).transl(2.8302526438802943e-08, 4e-08, 0))
hIsland = hIsland.add(rect(1e-08, 7.495682738769328e-10).transl(-1.0056667520496665e-07, 2.6503448454807353e-08, 0))
hIsland = hIsland.sub(rect(1e-08, -1.454528702428456e-09).transl(-1.726344067568907e-08, 4e-08, 0))
hIsland = hIsland.sub(rect(1e-08, -1.1365458979564961e-08).transl(1.9992243586205952e-08, 4e-08, 0))
hIsland = hIsland.sub(rect(1e-08, -2.2119607024879323e-09).transl(2.5477588269284902e-08, 4e-08, 0))
hIsland = hIsland.sub(rect(1e-08, -1.8802709431265705e-09).transl(2.5629686564055437e-08, 4e-08, 0))
hIsland = hIsland.sub(rect(1e-08, -3.490119184371505e-09).transl(7.052909138419132e-08, 3.8959582349973075e-08, 0))
hIsland = hIsland.add(rect(1e-08, 3.906854205176028e-09).transl(-1.999168567399311e-08, 4e-08, 0))
hIsland = hIsland.sub(rect(1e-08, -1.887629042033239e-09).transl(1.3893776508376615e-09, 4e-08, 0))
hIsland = hIsland.sub(rect(1e-08, -1.0318653572691011e-09).transl(-2.679690338763562e-08, 4e-08, 0))
hIsland = hIsland.add(rect(1e-08, 6.09199685779005e-10).transl(7.903151452709293e-08, 3.708970461900163e-08, 0))
hIsland = hIsland.add(rect(1e-08, 1.932192527391166e-09).transl(-1.074831103580727e-07, 1.9773399758489492e-08, 0))
hIsland = hIsland.sub(rect(1e-08, -5.2913776483880885e-09).transl(-5.1182550923058507e-08, 4e-08, 0))
hIsland = hIsland.add(rect(1e-08, 1.8470586559052683e-09).transl(8.952702485565319e-08, 3.322072137294974e-08, 0))
hIsland = hIsland.sub(rect(1e-08, -1.0627678114855435e-08).transl(2.1907353867242355e-09, 4e-08, 0))
hIsland = hIsland.add(rect(1e-08, 4.0339829788965e-09).transl(-1.82998608773692e-08, 4e-08, 0))
hIsland = hIsland.add(rect(1e-08, 3.3551826705699854e-09).transl(-7.54381750931424e-08, 3.800370093976268e-08, 0))
hIsland = hIsland.sub(rect(1e-08, -2.4248183845219252e-09).transl(-9.498781965668366e-08, 3.0330062840862346e-08, 0))
hIsland = hIsland.sub(rect(1e-08, -3.766247509143808e-09).transl(7.879197486679496e-08, 3.715656504453092e-08, 0))
hIsland = hIsland.sub(rect(1e-08, -5.867370857150946e-09).transl(-2.4326247326606996e-08, 4e-08, 0))
hIsland = hIsland.sub(rect(1e-08, -5.6488224175967235e-09).transl(-5.5956616701976874e-08, 4e-08, 0))
hIsland = hIsland.sub(rect(1e-08, -1.0574948559016938e-08).transl(-7.083310915918804e-08, 3.89097744373321e-08, 0))
hIsland = hIsland.add(rect(1e-08, 5.291445797770355e-09).transl(1.90367790696434e-08, 4e-08, 0))
hIsland = hIsland.add(rect(1e-08, 5.825666834277268e-10).transl(-4.468638394408195e-08, 4e-08, 0))
hIsland = hIsland.add(rect(1e-08, 2.1709376178540314e-09).transl(-6.344839649855092e-09, 4e-08, 0))
hIsland = hIsland.add(rect(1e-08, 5.407339673679043e-09).transl(4.9888493603901554e-08, 4e-08, 0))
hIsland = hIsland.sub(rect(1e-08, -2.8219591072007013e-09).transl(-7.809693443011487e-08, 3.734567921077782e-08, 0))
hIsland = hIsland.sub(rect(1e-08, -6.295066075404219e-09).transl(7.517150033693382e-08, 3.806411433893279e-08, 0))
hIsland = hIsland.sub(rect(1e-08, -5.6889654942877805e-09).transl(7.434119905405843e-08, 3.824584061776397e-08, 0))
hIsland = hIsland.sub(rect(1e-08, -4.734565572280076e-09).transl(-4.365990346292578e-08, 4e-08, 0))
hIsland = hIsland.sub(rect(1e-08, -5.745035357229712e-11).transl(4.347677222032503e-08, 4e-08, 0))
hIsland = hIsland.sub(rect(1e-08, -3.906777462240294e-09).transl(-3.8109417160378507e-08, 4e-08, 0))
hIsland = hIsland.add(rect(1e-08, 7.646541356399403e-09).transl(8.867884757450253e-08, 3.360892465091679e-08, 0))
hIsland = hIsland.add(rect(1e-08, 3.8925230912934425e-09).transl(2.353557978718749e-08, 4e-08, 0))
hIsland = hIsland.add(rect(1e-08, 7.888861116376696e-09).transl(4.3251341910207034e-08, 4e-08, 0))
hIsland = hIsland.add(rect(1e-08, 3.4518951335325894e-09).transl(-5.6688501988792734e-08, 4e-08, 0))
hIsland = hIsland.sub(rect(1e-08, -1.6542145146211438e-09).transl(-3.080927798281191e-08, 4e-08, 0))
hIsland = hIsland.add(rect(1e-08, 5.3209956668336205e-09).transl(4.774571825819594e-08, 4e-08, 0))
hIsland = hIsland.sub(rect(1e-08, -3.1707141770339852e-09).transl(7.869909056858547e-08, 3.718225767314626e-08, 0))
hIsland = hIsland.sub(rect(1e-08, -1.0662175098760067e-08).transl(-6.559472275915516e-08, 3.960164874658216e-08, 0))
hIsland = hIsland.sub(rect(1e-08, -1.525906573273199e-09).transl(2.8825449765341605e-09, 4e-08, 0))
hIsland = hIsland.add(rect(1e-08, 8.85888968004399e-09).transl(-1.8215374779718446e-08, 4e-08, 0))
hIsland = hIsland.sub(rect(1e-08, -2.5590126723390016e-09).transl(-1.0868463741881404e-07, 1.822532879013261e-08, 0))
hIsland = hIsland.add(rect(1e-08, 3.5583133316677663e-10).transl(-1.4433631711058848e-08, 4e-08, 0))
hIsland = hIsland.add(rect(1e-08, 2.912892542618589e-10).transl(9.361204861177655e-08, 3.112738344092128e-08, 0))
hIsland = hIsland.add(rect(1e-08, 1.1117101959212755e-09).transl(6.321261660956658e-09, 4e-08, 0))
hIsland = hIsland.add(rect(1e-08, 9.248168162205651e-10).transl(-8.386462766008796e-08, 3.554746129886802e-08, 0))
hIsland = hIsland.sub(rect(1e-08, -8.7881515426757e-10).transl(-1.0511463112412996e-07, 2.242436593130457e-08, 0))
hIsland = hIsland.sub(rect(1e-08, -2.4101007013186595e-09).transl(8.23051102961927e-08, 3.608656010305029e-08, 0))
hIsland = hIsland.add(rect(1e-08, 1.2780723122928018e-09).transl(3.005867184791565e-08, 4e-08, 0))
hIsland = hIsland.add(rect(1e-08, 1.5601002680083193e-09).transl(4.803837439742442e-08, 4e-08, 0))
hIsland = hIsland.sub(rect(1e-08, -4.106308483722487e-09).transl(1.0245357562921116e-07, 2.4941105137017252e-08, 0))
hIsland = hIsland.sub(rect(1e-08, -3.978714993220801e-10).transl(1.6773274747957517e-08, 4e-08, 0))
hIsland = hIsland.add(rect(1e-08, 2.1924571255806775e-09).transl(-1.1030171541605365e-07, 1.5836271530365528e-08, 0))
hIsland = hIsland.sub(rect(1e-08, -2.4455554147227426e-09).transl(1.83260290758581e-09, 4e-08, 0))
hIsland = hIsland.sub(rect(1e-08, -2.600243107346832e-10).transl(6.016226345704816e-08, 3.995710276440466e-08, 0))
hIsland = hIsland.sub(rect(1e-08, -3.961141576287219e-10).transl(7.7166294811085e-08, 3.758767025226483e-08, 0))
hIsland = hIsland.add(rect(1e-08, 6.453370407020527e-10).transl(-5.4889961777920394e-08, 4e-08, 0))
hIsland = hIsland.sub(rect(1e-08, -3.491989472642587e-09).transl(4.9870669581300634e-08, 4e-08, 0))
hIsland = hIsland.sub(rect(1e-08, -6.5532904994774e-10).transl(8.806290436569378e-08, 3.388160952459123e-08, 0))
hIsland = hIsland.add(rect(1e-08, 3.753405612556513e-09).transl(-8.450155982221929e-08, 3.5315334454414915e-08, 0))
hIsland = hIsland.add(rect(1e-08, 5.657212450199628e-09).transl(1.1487691928008907e-07, 2.6157940688749527e-09, 0))
hIsland = hIsland.sub(rect(1e-08, -2.7213926720401293e-09).transl(-6.479665464629639e-08, 3.967662910843523e-08, 0))
hIsland = hIsland.sub(rect(1e-08, -4.258892105382044e-10).transl(1.087986036651113e-07, 1.8069600529033827e-08, 0))
hIsland = hIsland.add(rect(1e-08, 6.315089241998085e-10).transl(-3.5409315967241495e-08, 4e-08, 0))
hIsland = hIsland.sub(rect(1e-08, -9.465750235378242e-10).transl(7.059568920888456e-08, 3.8948775156150317e-08, 0))
hIsland = hIsland.add(rect(1e-08, 2.742647135870355e-09).transl(-6.077380939957791e-08, 3.993511362992438e-08, 0))
hIsland = hIsland.sub(rect(1e-08, -1.8712566686643426e-09).transl(-7.116058115073843e-08, 3.885476475810756e-08, 0))
hIsland = hIsland.sub(rect(1e-08, -3.1029520703399616e-09).transl(-6.399474639111404e-08, 3.9744017322596896e-08, 0))
hIsland = hIsland.sub(rect(1e-08, -4.905092137364956e-10).transl(-3.901012928552436e-08, 4e-08, 0))
hIsland = hIsland.add(rect(1e-08, 3.188812178554867e-09).transl(-4.947779940621882e-08, 4e-08, 0))
hIsland = hIsland.sub(rect(1e-08, -1.6759555352279759e-09).transl(-4.511935510663e-08, 4e-08, 0))
hIsland = hIsland.sub(rect(1e-08, -4.860650820955697e-10).transl(-5.891318913690435e-08, 3.9987917397596515e-08, 0))
hIsland = hIsland.sub(rect(1e-08, -7.822449550117804e-09).transl(-6.137282707814163e-08, 3.990916694891312e-08, 0))
hIsland = hIsland.sub(rect(1e-08, -3.0075977855156336e-09).transl(-5.332328248281685e-09, 4e-08, 0))
vIsland := hIsland.rotz(pi / 2)
vIslands := Universe().Inverse()
hIslands := Universe().Inverse()
hIslands = hIslands.add(hIsland.transl(-a/2, a, 0))
hIslands = hIslands.add(hIsland.transl(-a/2, -a, 0))
hIslands = hIslands.add(hIsland.transl(a/2, a, 0))
hIslands = hIslands.add(hIsland.transl(a/2, -a, 0))
hIslands = hIslands.add(hIsland.transl(-a/2, 0, 0))
hIslands = hIslands.add(hIsland.transl(a/2, 0, 0))
vIslands = vIslands.add(vIsland.transl(-a, a/2, 0))
vIslands = vIslands.add(vIsland.transl(a, a/2, 0))
vIslands = vIslands.add(vIsland.transl(-a, -a/2, 0))
vIslands = vIslands.add(vIsland.transl(a, -a/2, 0))
vIslands = vIslands.add(vIsland.transl(0, a/2, 0))
vIslands = vIslands.add(vIsland.transl(0, -a/2, 0))
DefRegion(1, hIslands)
DefRegion(2, vIslands)
TableAdd(m_full.Region(1))
TableAdd(m_full.Region(2))
setgeom(hIslands.add(vIslands))
save(m)
r2o2 := sqrt(2) / 2
m = RandomMagSeed(4)
B_ext = vector(Bmax*r2o2, Bmax*r2o2, 0)
relax()
minimize()
for B := Bmax; B >= -Bmax; B -= Bstep {
	B_ext = vector(B*r2o2, B*r2o2, 0)
	minimize()
	tablesave()
}
//********************************************************************//
//Please cite the following references, relevant for your simulation. //
//See bibtex file in output folder for justification.                 //
//********************************************************************//
//   * Vansteenkiste et al., AIP Adv. 4, 107133 (2014).
//   * Exl et al., J. Appl. Phys. 115, 17D118 (2014).
