//mumax 3.10 [windows_amd64 go1.11.6(gc) CUDA-11.0]
//GPU info: NVIDIA GeForce RTX 3090(24575MB), CUDA Driver 12.0, cc=8.6, using cc=80 PTX
//(c) Arne Vansteenkiste, Dynamat LAB, Ghent University, Belgium
//This is free software without any warranty. See license.txt
//********************************************************************//
//  If you use mumax in any work or publication,                      //
//  we kindly ask you to cite the references in references.bib        //
//********************************************************************//
//output directory: r1;p0.8;a5.12e-07;l2.3000000000000002e-07;s2.out/
randSeed(2)
ThermSeed(2)
resolution := 2e-09
zResolution := 5e-09
a := 5.12e-07
gridSize := 512
gridDepth := 5
SetCellsize(resolution, resolution, zResolution)
SetGridsize(gridSize, gridSize, gridDepth)
SetPBC(16, 16, 0)
//resizing...
Msat = 700e3
Aex = 13e-12
alpha = 0.2
Bmax := 0.1
Bstep := Bmax / 500.0
TableAdd(B_ext)
TableAdd(m_full)
islandWidth := 8e-08
islandLength := 2.3000000000000002e-07
ellipseConstant := 9.200000000000002e-08
hIsland := rect(islandLength-2*ellipseConstant, islandWidth)
hIsland = hIsland.add(ellipse(ellipseConstant*2, islandWidth).transl(islandLength/2-ellipseConstant, 0, 0))
hIsland = hIsland.add(ellipse(ellipseConstant*2, islandWidth).transl(-islandLength/2+ellipseConstant, 0, 0))
hIsland = hIsland.add(rect(1e-08, 5.019561687061912e-10).transl(-7.370251412424304e-08, -3.3377190918737995e-08, 0))
hIsland = hIsland.sub(rect(1e-08, -9.79762110930156e-10).transl(-1.4468891582003733e-08, -4e-08, 0))
hIsland = hIsland.sub(rect(1e-08, -9.356394659333415e-09).transl(-6.263212629326244e-08, -3.609820297637818e-08, 0))
hIsland = hIsland.add(rect(1e-08, 5.753040361520321e-09).transl(1.1008532529064015e-07, -1.2898807252953489e-08, 0))
hIsland = hIsland.add(rect(1e-08, 4.353208557831379e-09).transl(-1.0447881147946e-07, -1.8574955596324044e-08, 0))
hIsland = hIsland.sub(rect(1e-08, -5.612321904770395e-10).transl(-7.650789709026786e-08, -3.25387799721364e-08, 0))
hIsland = hIsland.sub(rect(1e-08, -1.620063809996148e-09).transl(1.2579218732987074e-08, -4e-08, 0))
hIsland = hIsland.sub(rect(1e-08, -8.037167041623344e-09).transl(-4.435084825492952e-09, -4e-08, 0))
hIsland = hIsland.sub(rect(1e-08, -2.721225570986462e-09).transl(-8.718822662149122e-08, -2.865567558990393e-08, 0))
hIsland = hIsland.add(rect(1e-08, 3.5698512203254837e-09).transl(8.50340505216322e-11, -4e-08, 0))
hIsland = hIsland.add(rect(1e-08, 2.0957705153482863e-11).transl(7.673695859075054e-08, -3.246734372543045e-08, 0))
hIsland = hIsland.sub(rect(1e-08, -1.463822925189749e-09).transl(-8.841161492543961e-08, -2.8127849598454404e-08, 0))
hIsland = hIsland.sub(rect(1e-08, -3.036547434312991e-09).transl(-4.413561738573152e-08, -3.893012905873868e-08, 0))
hIsland = hIsland.add(rect(1e-08, 4.616065930672081e-09).transl(-5.2434144796062076e-08, -3.789756145828876e-08, 0))
hIsland = hIsland.add(rect(1e-08, 1.5621747835136812e-09).transl(8.082012327268143e-08, -3.11130427027849e-08, 0))
hIsland = hIsland.sub(rect(1e-08, -8.84049673466753e-09).transl(-1.0248573934916289e-07, -2.0141358854507252e-08, 0))
hIsland = hIsland.sub(rect(1e-08, -2.696047374034696e-09).transl(-7.740738947551958e-08, -3.225558368291809e-08, 0))
hIsland = hIsland.sub(rect(1e-08, -3.5413759145818905e-09).transl(5.9234352596685285e-08, -3.676696062436631e-08, 0))
hIsland = hIsland.sub(rect(1e-08, -1.7490350382934466e-09).transl(2.098548874707268e-08, -4e-08, 0))
hIsland = hIsland.sub(rect(1e-08, -3.0411269056134785e-09).transl(-8.644289695351242e-08, -2.896774435267687e-08, 0))
hIsland = hIsland.sub(rect(1e-08, -5.822628812244516e-10).transl(6.79139842781786e-08, -3.490937231296711e-08, 0))
hIsland = hIsland.sub(rect(1e-08, -3.5914775882276637e-09).transl(-1.0740579294303955e-07, -1.5913650010160637e-08, 0))
hIsland = hIsland.sub(rect(1e-08, -9.703363920632746e-09).transl(-2.3089659686782358e-08, -3.999998100458095e-08, 0))
hIsland = hIsland.sub(rect(1e-08, -1.8550245652969037e-09).transl(-1.0264951626814466e-07, -2.0018680114945868e-08, 0))
hIsland = hIsland.sub(rect(1e-08, -9.82012076470639e-10).transl(-9.836282965927357e-08, -2.294253487669771e-08, 0))
hIsland = hIsland.add(rect(1e-08, 2.8839848318244767e-09).transl(-5.995037040540589e-08, -3.663200261617842e-08, 0))
hIsland = hIsland.sub(rect(1e-08, -3.243420311820211e-09).transl(1.918702894508529e-08, -4e-08, 0))
hIsland = hIsland.add(rect(1e-08, 1.5994415666655996e-09).transl(-3.383148364456248e-08, -3.972180899744858e-08, 0))
hIsland = hIsland.add(rect(1e-08, 2.495501675871943e-09).transl(5.5681045463565606e-08, -3.7391176105463494e-08, 0))
hIsland = hIsland.add(rect(1e-08, 1.2121941782500303e-09).transl(5.544720114915702e-08, -3.742965459394403e-08, 0))
hIsland = hIsland.add(rect(1e-08, 7.748654153549525e-09).transl(6.452260157239878e-08, -3.56942317110261e-08, 0))
hIsland = hIsland.add(rect(1e-08, 9.887300410323263e-10).transl(-3.702821857183568e-08, -3.95322583305673e-08, 0))
hIsland = hIsland.sub(rect(1e-08, -1.727834603627087e-10).transl(-5.12662864108794e-08, -3.8065253526013034e-08, 0))
hIsland = hIsland.sub(rect(1e-08, -1.9091159070522355e-09).transl(-5.4770315410175345e-08, -3.7539260000023095e-08, 0))
hIsland = hIsland.sub(rect(1e-08, -2.5381297859519033e-09).transl(-9.226572510773958e-08, -2.6325931946906785e-08, 0))
hIsland = hIsland.add(rect(1e-08, 8.365929564892323e-09).transl(-7.973761103278665e-08, -3.148751813882686e-08, 0))
hIsland = hIsland.sub(rect(1e-08, -6.085928379084278e-10).transl(-5.9112290957580964e-08, -3.67896551010814e-08, 0))
hIsland = hIsland.sub(rect(1e-08, -4.7546397303969705e-09).transl(9.968641743997667e-08, -2.20978806441793e-08, 0))
hIsland = hIsland.add(rect(1e-08, 1.2432669954814538e-09).transl(3.721730225667739e-08, -3.9519486989311375e-08, 0))
hIsland = hIsland.add(rect(1e-08, 3.2673100877847914e-09).transl(-2.292974515570449e-08, -4e-08, 0))
hIsland = hIsland.add(rect(1e-08, 2.1063252342626658e-09).transl(6.137476680748104e-08, -3.6354111357114644e-08, 0))
hIsland = hIsland.sub(rect(1e-08, -9.884250223700718e-10).transl(3.400667788772988e-08, -3.971270418519144e-08, 0))
hIsland = hIsland.add(rect(1e-08, 2.0651364356899845e-09).transl(-4.8486341459070464e-08, -3.8434503242717897e-08, 0))
hIsland = hIsland.add(rect(1e-08, 4.582688185197605e-09).transl(5.211832014754148e-08, -3.7943653956541626e-08, 0))
hIsland = hIsland.add(rect(1e-08, 3.668643019366189e-09).transl(-3.3109652224821025e-08, -3.9757761144792174e-08, 0))
hIsland = hIsland.sub(rect(1e-08, -2.2627717491916024e-09).transl(-3.597634749754058e-09, -4e-08, 0))
hIsland = hIsland.sub(rect(1e-08, -2.4862449986856624e-09).transl(1.139471967608235e-07, -6.034046461617286e-09, 0))
hIsland = hIsland.add(rect(1e-08, 3.014819053483656e-09).transl(7.341841174168104e-08, -3.3458446302942185e-08, 0))
hIsland = hIsland.sub(rect(1e-08, -6.633961999089451e-09).transl(9.011295594451149e-08, -2.7359716584188503e-08, 0))
hIsland = hIsland.sub(rect(1e-08, -3.5376503933597384e-09).transl(-2.5252744763658084e-08, -3.998800656924294e-08, 0))
hIsland = hIsland.sub(rect(1e-08, -4.17610266229893e-09).transl(1.6482872769769184e-08, -4e-08, 0))
hIsland = hIsland.add(rect(1e-08, 2.1201707432878185e-09).transl(5.0666539477061326e-08, -3.81484578726987e-08, 0))
hIsland = hIsland.sub(rect(1e-08, -2.4309618151737075e-09).transl(6.607191279085125e-08, -3.534547382016925e-08, 0))
hIsland = hIsland.add(rect(1e-08, 2.689748923221165e-09).transl(-2.6392605457735837e-08, -3.997279374445685e-08, 0))
hIsland = hIsland.sub(rect(1e-08, -2.6859955718650515e-09).transl(1.0145889021331231e-07, -2.0888589818192717e-08, 0))
hIsland = hIsland.add(rect(1e-08, 6.621207102761366e-09).transl(8.415948772432974e-08, -2.988167295044103e-08, 0))
hIsland = hIsland.add(rect(1e-08, 4.881259313473803e-09).transl(4.6936456721349964e-08, -3.862241736094239e-08, 0))
hIsland = hIsland.sub(rect(1e-08, -1.3692894667343874e-09).transl(-2.5956166108061635e-08, -3.997934504982252e-08, 0))
hIsland = hIsland.sub(rect(1e-08, -2.6313872956113146e-09).transl(-7.242562321206232e-08, -3.373730320606561e-08, 0))
hIsland = hIsland.add(rect(1e-08, 5.979084239848065e-09).transl(-2.658341465250164e-08, -3.996964618493645e-08, 0))
hIsland = hIsland.add(rect(1e-08, 1.6747563800016646e-09).transl(1.1302547402688212e-07, -8.242703438122842e-09, 0))
hIsland = hIsland.add(rect(1e-08, 2.1075468619114807e-09).transl(9.664106121816999e-08, -2.3976177932557082e-08, 0))
hIsland = hIsland.add(rect(1e-08, 4.441567066168195e-09).transl(5.6483955236395474e-08, -3.725664514058895e-08, 0))
hIsland = hIsland.add(rect(1e-08, 1.109911643901745e-09).transl(-9.395736565881709e-08, -2.5460047870594313e-08, 0))
hIsland = hIsland.sub(rect(1e-08, -1.856112491306149e-09).transl(-4.11554189309877e-08, -3.921339216918184e-08, 0))
hIsland = hIsland.add(rect(1e-08, 1.7808192807751093e-09).transl(9.701775043559521e-08, -2.3755897170373634e-08, 0))
hIsland = hIsland.sub(rect(1e-08, -2.2140976597411536e-09).transl(-4.9056351934641885e-08, -3.836218434702167e-08, 0))
hIsland = hIsland.add(rect(1e-08, 3.639327689297647e-10).transl(3.9101785272200856e-08, -3.938259936219598e-08, 0))
hIsland = hIsland.add(rect(1e-08, 1.641029386675135e-09).transl(1.7343965643833216e-09, -4e-08, 0))
hIsland = hIsland.add(rect(1e-08, 4.523851239376848e-10).transl(7.81635840419473e-08, -3.201186865096829e-08, 0))
hIsland = hIsland.sub(rect(1e-08, -5.665174357563727e-09).transl(-5.253067473201923e-08, -3.7883363057852935e-08, 0))
hIsland = hIsland.add(rect(1e-08, 3.3036416964148395e-10).transl(-5.4062423239554335e-09, -4e-08, 0))
hIsland = hIsland.sub(rect(1e-08, -3.3146426866372244e-09).transl(-1.0329216301967103e-07, -1.952734768674756e-08, 0))
hIsland = hIsland.add(rect(1e-08, 5.653020095634427e-10).transl(5.20061781660948e-08, -3.7959887365592414e-08, 0))
hIsland = hIsland.add(rect(1e-08, 3.120979579547611e-09).transl(4.743457596982162e-08, -3.8563407381609386e-08, 0))
hIsland = hIsland.add(rect(1e-08, 6.813092743445185e-09).transl(-8.477086846519545e-08, -2.9642991722050566e-08, 0))
hIsland = hIsland.add(rect(1e-08, 2.1396553030962865e-09).transl(-1.1283305486180073e-07, -8.63043209064356e-09, 0))
hIsland = hIsland.add(rect(1e-08, 8.985379353525919e-09).transl(5.7788560940383e-08, -3.7029993533820574e-08, 0))
hIsland = hIsland.sub(rect(1e-08, -2.572344609781783e-09).transl(8.615914242507767e-08, -2.9084723148574995e-08, 0))
hIsland = hIsland.add(rect(1e-08, 1.0020483377234487e-08).transl(-8.349531048077093e-08, -3.013616674832141e-08, 0))
hIsland = hIsland.add(rect(1e-08, 4.046049477971766e-09).transl(8.477204415594608e-08, -2.9642528588088154e-08, 0))
hIsland = hIsland.add(rect(1e-08, 8.964019284128247e-10).transl(8.699911708455861e-08, -2.8735522408513167e-08, 0))
hIsland = hIsland.sub(rect(1e-08, -2.1559931309656806e-09).transl(1.1426756945670047e-07, -5.037304419622322e-09, 0))
hIsland = hIsland.add(rect(1e-08, 3.277617075999154e-09).transl(-6.252194273734379e-08, -3.6121031691870166e-08, 0))
hIsland = hIsland.add(rect(1e-08, 5.0145122659102365e-09).transl(1.299958396519589e-08, -4e-08, 0))
hIsland = hIsland.add(rect(1e-08, 5.362745300080956e-10).transl(6.527372829409937e-08, -3.552717189075335e-08, 0))
hIsland = hIsland.add(rect(1e-08, 3.403866595170466e-09).transl(8.857066816306741e-08, -2.8057756650366926e-08, 0))
hIsland = hIsland.sub(rect(1e-08, -2.0976045378826276e-09).transl(-9.225031919117871e-08, -2.6333592409882183e-08, 0))
hIsland = hIsland.add(rect(1e-08, 1.1307996742858286e-09).transl(7.945961894992843e-08, -3.158183604934054e-08, 0))
hIsland = hIsland.add(rect(1e-08, 3.530591487995628e-10).transl(3.80806025586205e-08, -3.945894812630213e-08, 0))
hIsland = hIsland.add(rect(1e-08, 6.5165116352952015e-09).transl(4.502166607024179e-08, -3.8837177011727045e-08, 0))
hIsland = hIsland.sub(rect(1e-08, -3.4451743467528596e-09).transl(9.735257026330034e-08, -2.3557416064848042e-08, 0))
hIsland = hIsland.sub(rect(1e-08, -5.9708529589289685e-09).transl(-4.237924576008729e-08, -3.910251379174585e-08, 0))
hIsland = hIsland.add(rect(1e-08, 4.668872216152165e-09).transl(7.866486065486239e-08, -3.184741293180521e-08, 0))
hIsland = hIsland.add(rect(1e-08, 9.599515062442926e-09).transl(-1.1314172545341202e-07, -7.998928712317894e-09, 0))
hIsland = hIsland.add(rect(1e-08, 1.362227613953162e-09).transl(-1.1496036892408105e-07, -1.1739571124506716e-09, 0))
hIsland = hIsland.add(rect(1e-08, 1.9530108799103757e-09).transl(3.5118417204352854e-08, -3.965146825378304e-08, 0))
hIsland = hIsland.add(rect(1e-08, 1.3706378254169115e-09).transl(-6.770416774433545e-08, -3.496024581689542e-08, 0))
hIsland = hIsland.add(rect(1e-08, 2.605795266691997e-09).transl(2.1288947893462283e-08, -4e-08, 0))
hIsland = hIsland.sub(rect(1e-08, -4.017296019868066e-09).transl(-8.438179928439667e-08, -2.979537878115788e-08, 0))
hIsland = hIsland.add(rect(1e-08, 1.239052115302779e-09).transl(1.853742165385318e-08, 4e-08, 0))
hIsland = hIsland.sub(rect(1e-08, -3.7138817446991745e-09).transl(-1.012734550959224e-07, 2.101968753689502e-08, 0))
hIsland = hIsland.sub(rect(1e-08, -3.575701003557019e-09).transl(-9.162321082245304e-08, 2.6642117885924143e-08, 0))
hIsland = hIsland.sub(rect(1e-08, -6.6500124419369195e-09).transl(6.293468273592754e-08, 3.603511497554462e-08, 0))
hIsland = hIsland.add(rect(1e-08, 4.070051767837775e-09).transl(-5.243099931021311e-09, 4e-08, 0))
hIsland = hIsland.add(rect(1e-08, 1.9570887124637936e-09).transl(-2.477986427077356e-08, 3.999251367367472e-08, 0))
hIsland = hIsland.sub(rect(1e-08, -1.1807563512957307e-09).transl(1.1139645475802115e-07, 1.108539448683522e-08, 0))
hIsland = hIsland.add(rect(1e-08, 1.584914820738872e-09).transl(-3.180950816279877e-08, 3.981619529221904e-08, 0))
hIsland = hIsland.sub(rect(1e-08, -1.4248394351056701e-09).transl(3.5820428416686665e-08, 3.960971366804345e-08, 0))
hIsland = hIsland.add(rect(1e-08, 1.0290758639087978e-08).transl(-5.3736610139084744e-08, 3.770159623452282e-08, 0))
hIsland = hIsland.add(rect(1e-08, 9.068437134382476e-09).transl(-6.117593486895055e-08, 3.639366258236592e-08, 0))
hIsland = hIsland.sub(rect(1e-08, -1.0006778390674622e-09).transl(1.054494504994272e-07, 1.7746844616059517e-08, 0))
hIsland = hIsland.sub(rect(1e-08, -4.905096061128003e-09).transl(9.346397142506456e-08, 2.571778172737451e-08, 0))
hIsland = hIsland.add(rect(1e-08, 5.784329996080889e-09).transl(1.0939716112462093e-09, 4e-08, 0))
hIsland = hIsland.add(rect(1e-08, 1.3630101770197975e-09).transl(1.0205579195478976e-07, 2.0458735999927873e-08, 0))
hIsland = hIsland.sub(rect(1e-08, -4.474390500556562e-09).transl(-5.4568548877494044e-08, 3.757142340485863e-08, 0))
hIsland = hIsland.add(rect(1e-08, 2.3393810320500647e-09).transl(-6.821380314593338e-09, 4e-08, 0))
hIsland = hIsland.add(rect(1e-08, 6.216990800953224e-09).transl(4.234723073096401e-08, 3.910551057200181e-08, 0))
hIsland = hIsland.add(rect(1e-08, 1.3412370444452266e-10).transl(-7.508351023751134e-08, 3.297277321382035e-08, 0))
hIsland = hIsland.sub(rect(1e-08, -2.5910243151335648e-09).transl(1.7173197693073133e-08, 4e-08, 0))
hIsland = hIsland.add(rect(1e-08, 5.527663931867396e-09).transl(-3.314532144354492e-08, 3.975604352485209e-08, 0))
hIsland = hIsland.sub(rect(1e-08, -1.1116185717811169e-08).transl(1.0548447464092227e-07, 1.7716051927026693e-08, 0))
hIsland = hIsland.sub(rect(1e-08, -3.844877358738502e-09).transl(2.6368501926450286e-09, 4e-08, 0))
hIsland = hIsland.add(rect(1e-08, 7.353377623044055e-11).transl(8.405738878761173e-08, 2.99211164360311e-08, 0))
hIsland = hIsland.add(rect(1e-08, 4.403251844552426e-09).transl(-1.1441967696820209e-07, 4.485697983035235e-09, 0))
hIsland = hIsland.sub(rect(1e-08, -8.151868869173355e-09).transl(9.697800549333475e-08, 2.3779288788343113e-08, 0))
hIsland = hIsland.add(rect(1e-08, 1.212583004828767e-09).transl(4.5698150049666285e-08, 3.8763482280016145e-08, 0))
hIsland = hIsland.add(rect(1e-08, 4.131103663127498e-10).transl(-1.0365577079501078e-07, 1.9241999970049608e-08, 0))
hIsland = hIsland.add(rect(1e-08, 4.2366639281939356e-09).transl(-8.804535720446331e-08, 2.8287951926991388e-08, 0))
hIsland = hIsland.sub(rect(1e-08, -5.227825718773274e-09).transl(-2.0500238948596626e-08, 4e-08, 0))
hIsland = hIsland.sub(rect(1e-08, -5.883647086109335e-09).transl(-4.554873542996131e-08, 3.877996318357941e-08, 0))
hIsland = hIsland.sub(rect(1e-08, -8.786159636701166e-10).transl(-5.5981713253862705e-09, 4e-08, 0))
hIsland = hIsland.add(rect(1e-08, 3.3565019624506472e-09).transl(-4.471065498386045e-10, 4e-08, 0))
hIsland = hIsland.add(rect(1e-08, 5.0174810054771275e-09).transl(-2.4358554663307646e-08, 3.999563853638586e-08, 0))
hIsland = hIsland.add(rect(1e-08, 2.6295053793196134e-09).transl(-2.8895185443039542e-08, 3.991779546541789e-08, 0))
hIsland = hIsland.sub(rect(1e-08, -2.704179382079856e-09).transl(-1.0498650653515934e-07, 1.814774872465478e-08, 0))
hIsland = hIsland.add(rect(1e-08, 7.569798150295543e-10).transl(6.131037206176417e-08, 3.6366947831931604e-08, 0))
hIsland = hIsland.sub(rect(1e-08, -3.7160565659846766e-09).transl(3.5061103598567745e-08, 3.965477151098937e-08, 0))
hIsland = hIsland.sub(rect(1e-08, -3.639403924703617e-09).transl(-8.970749441926792e-08, 2.7546524275836877e-08, 0))
hIsland = hIsland.sub(rect(1e-08, -3.5721144761197687e-10).transl(-1.9256785499924125e-08, 4e-08, 0))
hIsland = hIsland.add(rect(1e-08, 9.335660579510572e-09).transl(1.6217864877251062e-08, 4e-08, 0))
hIsland = hIsland.sub(rect(1e-08, -2.195330360183205e-09).transl(-8.51298269153753e-10, 4e-08, 0))
hIsland = hIsland.add(rect(1e-08, 2.7805989983366694e-09).transl(-2.4598616844225818e-08, 3.999396084889399e-08, 0))
hIsland = hIsland.sub(rect(1e-08, -9.190448809915481e-09).transl(-4.897514916437946e-08, 3.8372592874482954e-08, 0))
hIsland = hIsland.sub(rect(1e-08, -1.8636595173474023e-09).transl(-9.030436325326246e-08, 2.7270689192788957e-08, 0))
hIsland = hIsland.add(rect(1e-08, 1.0448298364907697e-09).transl(-1.1476576555887737e-07, 2.85252752954904e-09, 0))
hIsland = hIsland.add(rect(1e-08, 4.103094709402253e-09).transl(-2.6110187418090027e-08, 3.9977136032179905e-08, 0))
hIsland = hIsland.sub(rect(1e-08, -9.407423658918306e-11).transl(-2.0586886541244347e-10, 4e-08, 0))
hIsland = hIsland.sub(rect(1e-08, -1.6035298435620571e-09).transl(1.2192426572572902e-09, 4e-08, 0))
hIsland = hIsland.sub(rect(1e-08, -9.210413543584435e-10).transl(9.079709054952615e-09, 4e-08, 0))
hIsland = hIsland.sub(rect(1e-08, -3.390996721158018e-09).transl(1.7071456690201483e-08, 4e-08, 0))
hIsland = hIsland.add(rect(1e-08, 4.568003842306773e-09).transl(-1.902110928356185e-08, 4e-08, 0))
hIsland = hIsland.add(rect(1e-08, 2.469481302363632e-09).transl(3.6923588808246284e-08, 3.9539250137747484e-08, 0))
hIsland = hIsland.sub(rect(1e-08, -8.489421879129961e-10).transl(7.315301738158702e-08, 3.3533762146386184e-08, 0))
hIsland = hIsland.add(rect(1e-08, 3.162841511648399e-09).transl(3.9819144324673724e-08, 3.9325879981635736e-08, 0))
hIsland = hIsland.add(rect(1e-08, 5.6351912886168056e-09).transl(1.8324430378217864e-08, 4e-08, 0))
hIsland = hIsland.add(rect(1e-08, 3.263201446843914e-09).transl(-8.746183970013379e-08, 2.8539334519824618e-08, 0))
hIsland = hIsland.add(rect(1e-08, 1.3713522788878946e-10).transl(-9.859116861071155e-08, 2.2800089659505078e-08, 0))
hIsland = hIsland.sub(rect(1e-08, -1.678936704182489e-10).transl(1.066618110607266e-07, 1.6639746583377796e-08, 0))
hIsland = hIsland.add(rect(1e-08, 7.511869036414741e-09).transl(8.174749502093063e-08, 3.078289065446197e-08, 0))
hIsland = hIsland.sub(rect(1e-08, -4.928629020906705e-09).transl(-6.262464230706577e-08, 3.609975603821104e-08, 0))
hIsland = hIsland.sub(rect(1e-08, -3.791980504983002e-09).transl(6.822897442901814e-08, 3.483240965267223e-08, 0))
hIsland = hIsland.add(rect(1e-08, 9.649534520524696e-09).transl(-3.1083264443003544e-09, 4e-08, 0))
hIsland = hIsland.add(rect(1e-08, 2.7505222543366565e-09).transl(7.3702735427059e-08, 3.337712736920826e-08, 0))
hIsland = hIsland.add(rect(1e-08, 5.430260649801304e-09).transl(-5.2870505468409976e-08, 3.783296514941089e-08, 0))
hIsland = hIsland.sub(rect(1e-08, -2.581016803761103e-10).transl(-5.9154830020910525e-08, 3.678175625016707e-08, 0))
hIsland = hIsland.sub(rect(1e-08, -1.3965598418971661e-09).transl(3.0771985576564664e-08, 3.9857013434101386e-08, 0))
hIsland = hIsland.add(rect(1e-08, 2.6173449988600276e-09).transl(-1.4358897384498748e-08, 4e-08, 0))
hIsland = hIsland.add(rect(1e-08, 8.327571377745795e-10).transl(-7.05881334312487e-08, 3.4233076225349645e-08, 0))
hIsland = hIsland.sub(rect(1e-08, -4.5327432591265335e-09).transl(7.28186658544219e-08, 3.362784350345564e-08, 0))
hIsland = hIsland.sub(rect(1e-08, -7.766180412540599e-09).transl(-3.518422791002182e-08, 3.964765561174926e-08, 0))
hIsland = hIsland.add(rect(1e-08, 8.71944800027497e-09).transl(8.387699213473057e-09, 4e-08, 0))
hIsland = hIsland.add(rect(1e-08, 5.320697597022504e-09).transl(-3.953846346350939e-08, 3.934837671069495e-08, 0))
hIsland = hIsland.add(rect(1e-08, 3.453020838859653e-09).transl(-7.92140764876303e-08, 3.1664526986971837e-08, 0))
hIsland = hIsland.add(rect(1e-08, 5.14445103060508e-09).transl(-3.071344705946052e-08, 3.985916306020842e-08, 0))
hIsland = hIsland.add(rect(1e-08, 5.522991601400325e-09).transl(-1.0943934299325909e-07, 1.3695583042570258e-08, 0))
hIsland = hIsland.sub(rect(1e-08, -3.903034947173618e-09).transl(9.858502669014886e-08, 2.2803938489505992e-08, 0))
hIsland = hIsland.sub(rect(1e-08, -1.2624477962233977e-10).transl(-2.8377610385011884e-08, 3.993160813528247e-08, 0))
hIsland = hIsland.sub(rect(1e-08, -3.398944967676136e-09).transl(-9.382324772394812e-08, 2.5530542818425453e-08, 0))
hIsland = hIsland.sub(rect(1e-08, -1.2820819251292472e-09).transl(-8.759603543706046e-08, 2.8481918801962652e-08, 0))
hIsland = hIsland.sub(rect(1e-08, -5.9877719280050265e-09).transl(-1.14776863887474e-07, 2.7842133613647114e-09, 0))
hIsland = hIsland.sub(rect(1e-08, -7.827811964318354e-09).transl(-5.6301523163535e-08, 3.7287541960312545e-08, 0))
hIsland = hIsland.sub(rect(1e-08, -2.948837459661764e-09).transl(-4.07134229328427e-08, 3.925158696177057e-08, 0))
hIsland = hIsland.sub(rect(1e-08, -6.0036580985684876e-09).transl(-3.79944491744525e-08, 3.9465154149603163e-08, 0))
hIsland = hIsland.add(rect(1e-08, 3.541175385485589e-09).transl(2.480988814215525e-08, 3.9992258950651574e-08, 0))
hIsland = hIsland.add(rect(1e-08, 5.275589372804268e-09).transl(-1.5570322715555755e-08, 4e-08, 0))
hIsland = hIsland.add(rect(1e-08, 5.3364453602327365e-09).transl(7.664479226492321e-09, 4e-08, 0))
hIsland = hIsland.sub(rect(1e-08, -1.274286672859381e-09).transl(1.0696456402748189e-07, 1.634893606127075e-08, 0))
hIsland = hIsland.add(rect(1e-08, 1.2825863640514127e-09).transl(-3.698315176804114e-08, 3.953527645571074e-08, 0))
hIsland = hIsland.sub(rect(1e-08, -1.5255899778080237e-09).transl(3.5452563530930094e-08, 3.9631892366308e-08, 0))
hIsland = hIsland.sub(rect(1e-08, -6.2106129396400956e-09).transl(-4.318249152918312e-08, 3.9025625422739894e-08, 0))
hIsland = hIsland.sub(rect(1e-08, -1.3152686549627025e-09).transl(1.1245637998514583e-07, 9.340807071111981e-09, 0))
hIsland = hIsland.sub(rect(1e-08, -4.9519682784758e-09).transl(-2.5328771019388456e-08, 3.998718326218685e-08, 0))
hIsland = hIsland.sub(rect(1e-08, -3.339702082293851e-10).transl(-4.986947397730921e-08, 3.825600603521108e-08, 0))
hIsland = hIsland.sub(rect(1e-08, -1.071440530409488e-09).transl(-1.3020419438235211e-08, 4e-08, 0))
hIsland = hIsland.sub(rect(1e-08, -3.734920394398231e-09).transl(1.0550170499586736e-08, 4e-08, 0))
hIsland = hIsland.sub(rect(1e-08, -2.509244065441572e-09).transl(-6.8188252213306e-08, 3.484239932224181e-08, 0))
hIsland = hIsland.sub(rect(1e-08, -3.0268030593458473e-09).transl(-3.5860556625838985e-08, 3.960725450361939e-08, 0))
hIsland = hIsland.add(rect(1e-08, 2.0047526931399005e-10).transl(-6.148353551744918e-08, 3.633237006021342e-08, 0))
hIsland = hIsland.sub(rect(1e-08, -2.0835453400688097e-09).transl(-5.964184983958997e-08, 3.669053858954791e-08, 0))
vIsland := hIsland.rotz(pi / 2)
vIslands := Universe().Inverse()
hIslands := Universe().Inverse()
hIslands = hIslands.add(hIsland.transl(-a/2, a, 0))
hIslands = hIslands.add(hIsland.transl(-a/2, -a, 0))
hIslands = hIslands.add(hIsland.transl(a/2, a, 0))
hIslands = hIslands.add(hIsland.transl(a/2, -a, 0))
hIslands = hIslands.add(hIsland.transl(-a/2, 0, 0))
hIslands = hIslands.add(hIsland.transl(a/2, 0, 0))
vIslands = vIslands.add(vIsland.transl(-a, a/2, 0))
vIslands = vIslands.add(vIsland.transl(a, a/2, 0))
vIslands = vIslands.add(vIsland.transl(-a, -a/2, 0))
vIslands = vIslands.add(vIsland.transl(a, -a/2, 0))
vIslands = vIslands.add(vIsland.transl(0, a/2, 0))
vIslands = vIslands.add(vIsland.transl(0, -a/2, 0))
DefRegion(1, hIslands)
DefRegion(2, vIslands)
TableAdd(m_full.Region(1))
TableAdd(m_full.Region(2))
setgeom(hIslands.add(vIslands))
save(m)
r2o2 := sqrt(2) / 2
m = RandomMagSeed(4)
B_ext = vector(Bmax*r2o2, Bmax*r2o2, 0)
relax()
minimize()
for B := Bmax; B >= -Bmax; B -= Bstep {
	B_ext = vector(B*r2o2, B*r2o2, 0)
	minimize()
	tablesave()
}
//********************************************************************//
//Please cite the following references, relevant for your simulation. //
//See bibtex file in output folder for justification.                 //
//********************************************************************//
//   * Vansteenkiste et al., AIP Adv. 4, 107133 (2014).
//   * Exl et al., J. Appl. Phys. 115, 17D118 (2014).
