# t (s)	mx ()	my ()	mz ()	B_extx (T)	B_exty (T)	B_extz (T)	m_fullx (A/m)	m_fully (A/m)	m_fullz (A/m)	m_full.region1x (A/m)	m_full.region1y (A/m)	m_full.region1z (A/m)	m_full.region2x (A/m)	m_full.region2y (A/m)	m_full.region2z (A/m)
0	0.6504604	0.65045995	-3.5237213e-10	0.070710704	0.070710704	0	140153.89	140153.78	-7.34781e-05	620972.25	289671.94	-0.00012816816	289672.3	620971.94	-0.00036002032
0	0.6502417	0.6502411	-1.9115226e-10	0.07035722	0.07035722	0	140106.75	140106.62	-4.073457e-05	621147.6	289190.06	-5.2183394e-05	289190.53	621147.44	-0.00019359848
0	0.65001744	0.65001684	-5.1041427e-10	0.07000352	0.07000352	0	140058.44	140058.3	-0.00011218546	621330.06	288693.84	-0.00031430135	288694.34	621329.75	-0.00041141064
0	0.64979225	0.64979166	-2.7962282e-11	0.06965005	0.06965005	0	140009.92	140009.81	-3.92288e-06	621511.4	288197.28	3.374555e-05	288197.78	621511	-7.4668555e-05
0	0.6495662	0.6495657	-1.6915366e-10	0.06929643	0.06929643	0	139961.22	139961.1	-3.706587e-05	621692.8	287699.3	-1.634294e-05	287699.8	621692.6	-0.0002369224
0	0.6493383	0.6493377	-1.4915606e-10	0.068942994	0.068942994	0	139912.11	139912	-2.9335031e-05	621875.5	287197.6	-7.748876e-05	287198.1	621875.1	-0.00010160543
0	0.6491093	0.6491087	-4.11289e-10	0.06858929	0.06858929	0	139862.77	139862.66	-9.024378e-05	622058.2	286694.4	-0.00032144453	286694.9	622057.9	-0.0002873448
0	0.64887923	0.64887863	-5.7167365e-11	0.06823583	0.06823583	0	139813.2	139813.08	-1.4767513e-05	622240.44	286189.97	-0.00010867039	286190.47	622240.2	-1.4341301e-06
0	0.648648	0.6486474	-3.023378e-10	0.067882195	0.067882195	0	139763.38	139763.27	-6.245208e-05	622423.7	285683.03	-0.00026261155	285683.53	622423.4	-0.0001490678
0	0.6484139	0.6484133	-3.4061345e-10	0.06752872	0.06752872	0	139712.92	139712.8	-7.3773415e-05	622606.7	285172.28	-0.00016949078	285172.8	622606.4	-0.00028784544
0	0.64818156	0.64818096	-3.5203507e-10	0.06717502	0.06717502	0	139662.88	139662.75	-7.928075e-05	622789.94	284663.75	-0.00023278783	284664.25	622789.6	-0.00026500406
0	0.64794433	0.6479438	-3.7433995e-10	0.066821605	0.066821605	0	139611.78	139611.62	-7.8187164e-05	622974.1	284147.44	-0.0003369388	284147.97	622973.8	-0.00017912351
0	0.6477092	0.64770865	-6.67998e-11	0.066468135	0.066468135	0	139561.1	139560.97	-1.3055273e-05	623157.3	283635.06	-2.5132125e-05	283635.56	623157	-7.325947e-05
0	0.64747053	0.64746994	-3.9292097e-11	0.06611443	0.06611443	0	139509.69	139509.53	-8.6007e-06	623341.8	283116.47	6.205677e-05	283116.94	623341.5	-0.000113574046
0	0.64723426	0.64723366	-1.0032232e-10	0.065760985	0.065760985	0	139458.75	139458.62	-1.9866224e-05	623525.56	282601.9	-4.79042e-05	282602.44	623525.25	-7.45204e-05
0	0.64699376	0.64699316	-2.2850145e-10	0.06540732	0.06540732	0	139406.95	139406.83	-4.8237376e-05	623710.56	282080.2	-0.00012573348	282080.72	623710.2	-0.00018110767
0	0.64675325	0.64675266	-3.1659904e-11	0.0650539	0.0650539	0	139355.12	139354.97	-5.3959043e-06	623894.44	281559.47	-1.5054015e-06	281560.03	623894.2	-3.1515014e-05
0	0.6465086	0.64650786	-9.789227e-11	0.064700216	0.064700216	0	139302.39	139302.25	-2.2243548e-05	624080.3	281031.22	-0.000109029395	281031.72	624079.9	-1.9146657e-05
0	0.64626604	0.6462655	1.40200915e-11	0.06434676	0.06434676	0	139250.14	139250	2.559688e-06	624265.2	280506.75	3.809002e-05	280507.28	624264.94	-2.196054e-05
0	0.6460206	0.64602	-1.7969276e-10	0.0639931	0.0639931	0	139197.25	139197.12	-3.5098343e-05	624450.8	279977.47	-6.183846e-05	279978.03	624450.56	-0.00017228466
0	0.6457743	0.6457737	-1.2367145e-10	0.06363964	0.06363964	0	139144.19	139144.06	-2.6445054e-05	624636	279447.56	-9.257433e-05	279448.06	624635.6	-8.1198494e-05
0	0.6455262	0.6455255	-3.0373412e-10	0.06328595	0.06328595	0	139090.72	139090.61	-6.692194e-05	624822.4	278913.78	-0.00019071862	278914.28	624822	-0.0002395586
0	0.6452768	0.6452761	-3.5528622e-10	0.0629325	0.0629325	0	139036.95	139036.83	-7.634814e-05	625007.94	278378.88	-0.00032674978	278379.4	625007.6	-0.00016053524
0	0.6450256	0.6450251	-5.839588e-11	0.06257904	0.06257904	0	138982.86	138982.73	-1.0876859e-05	625194.6	277840.75	-5.155095e-05	277841.28	625194.25	-1.6136357e-05
0	0.6447738	0.6447732	-2.405183e-10	0.062225346	0.062225346	0	138928.62	138928.47	-5.0869025e-05	625381.5	277301.22	-0.00017988317	277301.72	625381.25	-0.00014757937
0	0.6445209	0.6445203	-3.352162e-10	0.06187191	0.06187191	0	138874.11	138873.98	-7.066739e-05	625568.06	276760.7	-0.00029460984	276761.22	625567.6	-0.00018483521
0	0.6442661	0.6442654	-6.060733e-10	0.061518222	0.061518222	0	138819.2	138819.08	-0.00013002285	625755.1	276216.8	-0.0003812856	276217.38	625754.8	-0.00046802434
0	0.6440082	0.64400756	-1.3479774e-11	0.061164826	0.061164826	0	138763.64	138763.5	-4.56799e-06	625942.2	275668.75	7.2630806e-05	275669.3	625941.8	-9.612998e-05
0	0.6437522	0.6437515	-3.172056e-10	0.060811136	0.060811136	0	138708.48	138708.34	-6.8525194e-05	626129.75	275122.8	-0.00015236188	275123.34	626129.4	-0.00028095773
0	0.6434909	0.64349025	-3.2789627e-10	0.060457677	0.060457677	0	138652.17	138652.03	-6.629168e-05	626318.06	274568.72	-0.00014001424	274569.28	626317.7	-0.0002797953
0	0.64323336	0.6432327	-3.3930397e-11	0.06010401	0.06010401	0	138596.69	138596.56	-6.660264e-06	626504.4	274021.8	8.918852e-05	274022.4	626504.1	-0.00013330234
0	0.64297026	0.64296967	-4.2588427e-10	0.05975055	0.05975055	0	138540	138539.86	-9.15849e-05	626692.9	273464.97	-0.0003246821	273465.53	626692.56	-0.000274558
0	0.64270836	0.64270765	-1.2389215e-10	0.059396874	0.059396874	0	138483.55	138483.4	-2.5157027e-05	626881.06	272910.06	-6.7952875e-05	272910.66	626880.75	-9.4634146e-05
0	0.642442	0.64244133	-2.6221936e-10	0.059043404	0.059043404	0	138426.17	138426.03	-5.835065e-05	627070.75	272347.47	-0.00017686057	272348.06	627070.4	-0.00018939008
0	0.642178	0.64217734	-2.5542574e-10	0.05868994	0.05868994	0	138369.28	138369.16	-5.3316984e-05	627257.7	271790.9	-0.00026069934	271791.47	627257.3	-8.704878e-05
0	0.6419099	0.6419092	-4.0990232e-11	0.05833627	0.05833627	0	138311.52	138311.36	-9.403628e-06	627446.9	271226.4	3.7112284e-05	271226.97	627446.5	-0.00010464888
0	0.6416396	0.6416388	-1.9021412e-10	0.057982814	0.057982814	0	138253.27	138253.12	-3.937622e-05	627636	270658.78	-4.8361017e-05	270659.38	627635.56	-0.00020973994
0	0.6413703	0.64136964	-4.508536e-11	0.057629142	0.057629142	0	138195.27	138195.12	-1.142896e-05	627825.5	270092.44	3.5684217e-05	270093.03	627825	-7.924075e-05
0	0.6410985	0.64109784	-2.741438e-10	0.057275668	0.057275668	0	138136.7	138136.56	-6.0146875e-05	628014.7	269522.72	-0.0002797446	269523.3	628014.3	-0.00010023461
0	0.6408231	0.64082247	-1.4986767e-10	0.056922063	0.056922063	0	138077.34	138077.2	-3.254743e-05	628204.5	268947.3	-0.00011748851	268947.94	628204.06	-9.58007e-05
0	0.64054954	0.6405489	-9.388365e-11	0.0565686	0.0565686	0	138018.4	138018.25	-1.7342672e-05	628394.3	268374.5	-2.0307067e-05	268375.1	628393.94	-8.832002e-05
0	0.6402739	0.64027333	-1.6338855e-10	0.056214936	0.056214936	0	137959.05	137958.89	-3.804747e-05	628583.6	267799.34	-0.00017347466	267799.97	628583.25	-4.4569315e-05
0	0.63999546	0.63999474	-2.1365094e-10	0.05586146	0.05586146	0	137899.03	137898.88	-4.7187463e-05	628773.94	267219.06	-0.00010797501	267219.7	628773.56	-0.00018098057
0	0.63971627	0.63971555	-3.025815e-10	0.055507805	0.055507805	0	137838.86	137838.7	-6.601423e-05	628964.4	266637.75	-0.00016793249	266638.34	628964.06	-0.00024837995
0	0.63943446	0.6394337	-1.6839212e-10	0.055154327	0.055154327	0	137778.12	137777.97	-3.69003e-05	629154.9	266052.66	-9.84835e-05	266053.28	629154.56	-0.00012885488
0	0.63915294	0.63915217	-2.1721527e-11	0.054800846	0.054800846	0	137717.47	137717.31	-7.2950907e-06	629345.1	265468.3	7.524556e-05	265468.94	629344.7	-7.10476e-05
0	0.6388686	0.63886786	-2.5663918e-10	0.05444718	0.05444718	0	137656.2	137656.06	-5.1921746e-05	629535.4	264880.03	-0.00027268234	264880.62	629535	-6.422113e-05
0	0.6385824	0.63858163	-2.3185365e-10	0.054093722	0.054093722	0	137594.55	137594.39	-5.0042676e-05	629726.8	264287.84	-0.00019415117	264288.47	629726.4	-0.00011767903
0	0.638294	0.63829327	-2.53494e-10	0.053740054	0.053740054	0	137532.42	137532.23	-5.4491014e-05	629919.25	263691.75	-0.00022176777	263692.38	629918.9	-0.00013708047
0	0.63800573	0.63800496	8.2941376e-11	0.053386588	0.053386588	0	137470.28	137470.11	2.0273163e-05	630109.5	263097.8	8.137258e-05	263098.44	630109.1	6.4609136e-05
0	0.637713	0.63771236	-3.886096e-10	0.053032987	0.053032987	0	137407.23	137407.08	-8.3087725e-05	630301.6	262496.1	-0.00035753247	262496.72	630301.2	-0.00017575467
0	0.63742363	0.6374228	-3.9488587e-10	0.05267951	0.05267951	0	137344.84	137344.69	-8.429099e-05	630492.8	261899.44	-0.0002538139	261900.06	630492.5	-0.0003022162
0	0.63713	0.63712925	-3.4119094e-10	0.05232584	0.05232584	0	137281.6	137281.44	-7.385238e-05	630684.44	261296.94	-0.00027164482	261297.61	630684	-0.00021422055
0	0.636832	0.63683134	-3.5961473e-10	0.05197238	0.05197238	0	137217.4	137217.25	-7.703193e-05	630876.6	260687.66	-0.000290022	260688.33	630876.2	-0.00021625072
0	0.63653755	0.6365369	-1.8216058e-10	0.051618718	0.051618718	0	137153.95	137153.8	-3.982915e-05	631068.25	260083.81	-0.00010569633	260084.4	631067.8	-0.00014696804
0	0.63623744	0.6362366	-1.6472632e-10	0.05126525	0.05126525	0	137089.28	137089.12	-3.2422304e-05	631261.8	259469.9	-0.00011059778	259470.55	631261.4	-0.00011767938
0	0.635939	0.63593817	-3.056935e-13	0.05091175	0.05091175	0	137024.97	137024.81	-1.914298e-06	631453	258860.9	6.805616e-06	258861.56	631452.7	-1.900979e-05
0	0.6356365	0.63563573	-2.8682606e-10	0.0505581	0.0505581	0	136959.81	136959.64	-6.266542e-05	631645	258245.44	-0.0001743561	258246.1	631644.56	-0.00022794862
0	0.6353331	0.6353324	-3.273117e-10	0.050204627	0.050204627	0	136894.45	136894.28	-6.932569e-05	631838.25	257627.56	-0.00021819044	257628.22	631837.8	-0.000247593
0	0.63502777	0.635027	-2.1802473e-11	0.049850974	0.049850974	0	136828.64	136828.47	-5.449237e-06	632031	257007.23	3.0282878e-05	257007.89	632030.56	-8.460842e-05
0	0.6347209	0.6347202	-4.1745488e-10	0.049497493	0.049497493	0	136762.53	136762.38	-9.357132e-05	632223.44	256385.25	-0.00025653775	256385.89	632223	-0.00035075724
0	0.6344103	0.63440955	-2.3476832e-10	0.049143914	0.049143914	0	136695.61	136695.44	-4.82748e-05	632417.94	255755.9	-0.00016779469	255756.58	632417.44	-0.00014514069
0	0.6341012	0.63410044	-1.6568175e-10	0.04879043	0.04879043	0	136629.02	136628.83	-3.588722e-05	632610.2	255130.88	-3.6704892e-05	255131.52	632609.75	-0.00017494442
0	0.6337877	0.63378686	-9.885285e-11	0.04843677	0.04843677	0	136561.45	136561.28	-1.9771462e-05	632804.4	254497.78	-6.577461e-05	254498.44	632803.94	-6.495755e-05
0	0.6334747	0.63347393	-3.0977135e-10	0.04808329	0.04808329	0	136494.02	136493.84	-7.054012e-05	632997	253867.02	-0.00026822137	253867.69	632996.5	-0.00016676082
0	0.6331566	0.63315576	-4.0706463e-10	0.04772965	0.04772965	0	136425.45	136425.28	-8.710854e-05	633190.7	253227.8	-0.0002800304	253228.44	633190.25	-0.00029781152
0	0.63284105	0.63284016	-4.0713682e-10	0.047376156	0.047376156	0	136357.44	136357.3	-8.856134e-05	633384.56	252592.19	-0.00031791782	252592.86	633384.1	-0.00024631104
0	0.63252145	0.63252074	-3.5709194e-10	0.04702266	0.04702266	0	136288.62	136288.45	-7.758108e-05	633577.7	251951.67	-0.00027552756	251952.36	633577.3	-0.00021040738
0	0.6322003	0.6321995	-3.398518e-10	0.046669014	0.046669014	0	136219.4	136219.25	-6.788039e-05	633772.3	251307.45	-0.00032707708	251308.16	633771.9	-0.00013768741
0	0.6318776	0.63187677	-2.1270473e-11	0.046315536	0.046315536	0	136149.88	136149.72	-2.2235326e-06	633965.56	250662.36	9.3521514e-05	250663.06	633965.2	-0.00011714928
0	0.6315517	0.6315508	-1.4129711e-10	0.045961887	0.045961887	0	136079.64	136079.47	-2.5456935e-05	634160	250011.58	-0.000103986786	250012.3	634159.56	-6.5109285e-05
0	0.631223	0.6312221	-2.949047e-10	0.045608394	0.045608394	0	136008.83	136008.66	-6.2948944e-05	634354.56	249356.97	-0.00028330894	249357.67	634354.2	-0.00012156235
0	0.6308973	0.63089633	-3.4733136e-10	0.04525483	0.04525483	0	135938.64	135938.47	-7.474026e-05	634548.7	248706.73	-0.0002207227	248707.44	634548.25	-0.00027120212
0	0.6305669	0.63056606	-1.3947307e-10	0.044901334	0.044901334	0	135867.45	135867.27	-2.7116716e-05	634743.06	248049.9	-0.00012115468	248050.61	634742.56	-6.871651e-05
0	0.63023454	0.6302337	-2.4455768e-10	0.044547696	0.044547696	0	135795.84	135795.66	-5.4333133e-05	634937.75	247389.84	-0.00014314645	247390.58	634937.3	-0.000201804
0	0.62989974	0.62989885	-6.390056e-11	0.04419421	0.04419421	0	135723.7	135723.5	-1.5011597e-05	635132.6	246726.2	-7.799653e-05	246726.92	635132.1	5.8949963e-06
0	0.629564	0.62956315	-3.3318814e-10	0.04384058	0.04384058	0	135651.39	135651.2	-7.185708e-05	635326.94	246062.03	-0.00032533266	246062.78	635326.44	-0.00016549046
0	0.62922305	0.6292222	-2.7871203e-10	0.043487065	0.043487065	0	135577.9	135577.73	-6.119723e-05	635523.3	245388.3	-0.00015694209	245389.05	635522.75	-0.0002490646
0	0.62888634	0.62888545	3.9687885e-11	0.04313356	0.04313356	0	135505.34	135505.17	9.261959e-06	635716.4	244723.78	6.508617e-06	244724.53	635715.9	5.1357176e-05
0	0.62854415	0.6285432	-4.1874504e-10	0.042779934	0.042779934	0	135431.61	135431.42	-9.118012e-05	635911.25	244049.84	-0.00030676328	244050.6	635910.7	-0.00027870704
0	0.62820095	0.62820005	-2.9976271e-10	0.04242642	0.04242642	0	135357.69	135357.48	-6.683706e-05	636105.8	243374.75	-0.00018292094	243375.48	636105.4	-0.0002431432
0	0.62785316	0.6278523	-2.0558971e-10	0.04207281	0.04207281	0	135282.73	135282.55	-4.2085576e-05	636302.3	242691.33	-0.00020707208	242692.05	636301.9	-7.355068e-05
0	0.6275072	0.6275063	-4.965235e-11	0.041719295	0.041719295	0	135208.19	135208.02	-1.1774268e-05	636495.94	242013.44	1.2318882e-05	242014.22	636495.44	-5.3899203e-05
0	0.6271576	0.6271568	-3.7781944e-10	0.041365758	0.041365758	0	135132.88	135132.69	-7.9692334e-05	636691.1	241328.86	-0.00026462434	241329.64	636690.7	-0.00026333748
0	0.6268051	0.6268043	-1.5425995e-10	0.041012242	0.041012242	0	135056.9	135056.73	-3.3355635e-05	636887.06	240639.48	-0.00015205739	240640.23	636886.5	-5.716953e-05
0	0.626452	0.62645113	-2.1477045e-10	0.040658627	0.040658627	0	134980.83	134980.66	-4.6067165e-05	637081.7	239950.36	-0.00013611598	239951.11	637081.25	-0.00016401692
0	0.62609303	0.62609214	-1.815694e-10	0.040305126	0.040305126	0	134903.47	134903.28	-3.6207875e-05	637277.44	239251.98	-0.00021023556	239252.77	637276.9	-2.5989586e-05
0	0.62573516	0.6257343	-2.2175298e-10	0.03995151	0.03995151	0	134826.38	134826.17	-4.9443104e-05	637472.56	238555.95	-0.00029621169	238556.75	637472	-1.7840148e-05
0	0.6253777	0.62537676	-1.1658727e-10	0.039597988	0.039597988	0	134749.36	134749.16	-2.7081289e-05	637667.1	237860.88	-8.623917e-05	237861.66	637666.7	-9.276332e-05
0	0.62501574	0.62501484	-1.3680414e-10	0.03924446	0.03924446	0	134671.36	134671.17	-3.2193162e-05	637863.06	237158.19	-8.4470084e-05	237159	637862.56	-0.00012394687
0	0.62465227	0.62465143	-4.5579784e-10	0.03889085	0.03889085	0	134593.06	134592.84	-9.845453e-05	638058.44	236454.05	-0.00029857966	236454.8	638057.94	-0.0003266952
0	0.6242844	0.62428343	-1.9210973e-10	0.03853732	0.03853732	0	134513.77	134513.56	-3.7751564e-05	638254.94	235742.27	-0.00014052672	235743.08	638254.5	-0.000104424726
0	0.6239179	0.6239169	-5.009111e-10	0.03818373	0.03818373	0	134434.78	134434.6	-0.00011231174	638449.3	235034.77	-0.00039573258	235035.58	638448.75	-0.00033638542
0	0.62354743	0.62354654	-1.9715853e-10	0.0378302	0.0378302	0	134354.98	134354.78	-4.4475044e-05	638644.56	234321.06	-0.00013273131	234321.88	638644	-0.0001455634
0	0.6231744	0.6231736	-3.572567e-10	0.03747659	0.03747659	0	134274.62	134274.42	-7.754822e-05	638840.4	233603.06	-0.0003298538	233603.88	638839.8	-0.00015056266
0	0.62279874	0.6227978	-1.1763268e-10	0.037123155	0.037123155	0	134193.66	134193.45	-2.7357426e-05	639035.6	232881.8	-0.00018776208	232882.61	639035.06	1.2328903e-05
0	0.6224205	0.6224195	-2.296264e-10	0.036769558	0.036769558	0	134112.17	134111.94	-5.1757706e-05	639231.25	232156.73	-0.00020213498	232157.56	639230.7	-0.000113438786
0	0.62204415	0.62204325	-2.4518856e-10	0.036416043	0.036416043	0	134031.1	134030.86	-5.5381966e-05	639426.56	231434.47	-0.00017332518	231435.28	639426.06	-0.0001684158
0	0.62166214	0.6216612	-3.0276964e-10	0.036062438	0.036062438	0	133948.78	133948.58	-6.626222e-05	639622.8	230703.4	-0.00016976819	230704.23	639622.3	-0.00023572605
0	0.6212794	0.62127835	-2.9493816e-10	0.035708897	0.035708897	0	133866.28	133866.08	-6.289591e-05	639817.4	229972.86	-0.00019482817	229973.69	639816.94	-0.0001964814
0	0.62089306	0.62089217	-2.2264995e-11	0.035355352	0.035355352	0	133783.06	133782.84	-5.1627367e-06	640012.8	229236.72	-2.300218e-05	229237.55	640012.25	-3.4676516e-06
0	0.6205049	0.62050396	-1.9805896e-10	0.03500176	0.03500176	0	133699.42	133699.2	-4.4827386e-05	640208.25	228497.86	-0.00020918038	228498.72	640207.7	-6.958946e-05
0	0.62011474	0.6201138	-3.4933476e-10	0.034648214	0.034648214	0	133615.34	133615.12	-7.603893e-05	640403.7	227756.08	-0.00024918144	227756.9	640403.1	-0.00022855391
0	0.61972255	0.61972153	-3.038212e-10	0.034294646	0.034294646	0	133530.84	133530.64	-6.649947e-05	640599.44	227011.23	-0.00026495178	227012.12	640598.94	-0.00014741007
0	0.61932683	0.6193258	-3.6256942e-10	0.033941098	0.033941098	0	133445.58	133445.36	-7.616077e-05	640794.4	226262.34	-0.000214516	226263.2	640793.8	-0.00027259951
0	0.6189308	0.6189298	-3.848364e-10	0.03358751	0.03358751	0	133360.23	133360.03	-8.494916e-05	640989.8	225512.45	-0.00024548292	225513.31	640989.25	-0.00030891175
0	0.61852854	0.6185276	-7.4878624e-11	0.033234067	0.033234067	0	133273.58	133273.36	-1.6533062e-05	641185.75	224753.42	-4.342897e-05	224754.3	641185.2	-5.6741752e-05
0	0.6181279	0.6181268	-3.9234005e-10	0.032880493	0.032880493	0	133187.23	133187.02	-8.199641e-05	641381.75	223996.31	-0.00032879302	223997.17	641381.2	-0.00020036648
0	0.6177226	0.61772156	-5.304467e-10	0.03252695	0.03252695	0	133099.92	133099.7	-0.00011399901	641577.3	223233.5	-0.00043295982	223234.39	641576.7	-0.0003255172
0	0.61731696	0.617316	-1.672651e-10	0.03217338	0.03217338	0	133012.52	133012.28	-3.374987e-05	641772.2	222470.7	-0.00017450163	222471.64	641771.56	-5.685051e-05
0	0.616909	0.616908	-2.359493e-10	0.03181982	0.03181982	0	132924.61	132924.39	-5.2555286e-05	641965.56	221706.22	-0.00017937341	221707.12	641965	-0.00016260639
0	0.6164967	0.61649555	-3.9853365e-10	0.03146625	0.03146625	0	132835.77	132835.55	-8.756646e-05	642162.06	220932.42	-0.0002217226	220933.36	642161.5	-0.00034119881
0	0.61608386	0.61608285	-2.9390548e-10	0.031112673	0.031112673	0	132746.83	132746.6	-6.791369e-05	642356	220160.62	-0.0002711584	220161.5	642355.3	-0.00014375236
0	0.6156669	0.61566585	-3.7091383e-10	0.030759111	0.030759111	0	132656.97	132656.77	-8.013038e-05	642550.5	219382.33	-0.00028363388	219383.27	642549.94	-0.00023006633
0	0.6152461	0.61524504	-3.0943295e-10	0.030405568	0.030405568	0	132566.31	132566.08	-6.8750516e-05	642745.75	218598.03	-0.00016737415	218598.95	642745.1	-0.0002742725
0	0.61482716	0.614826	-4.477551e-11	0.030052004	0.030052004	0	132476.03	132475.8	-9.179204e-06	642940	217817.1	-0.00013328018	217818.02	642939.44	9.8141994e-05
0	0.614404	0.61440295	-4.3899467e-10	0.029698437	0.029698437	0	132384.86	132384.62	-9.6539334e-05	643134.44	217030.25	-0.00027802002	217031.22	643133.9	-0.0003249877
0	0.6139776	0.61397654	-2.0629852e-10	0.02934497	0.02934497	0	132293.02	132292.77	-4.3333803e-05	643329.1	216238.73	-0.0001345291	216239.66	643328.44	-0.0001228797
0	0.6135476	0.61354655	-2.566888e-10	0.028991407	0.028991407	0	132200.34	132200.11	-5.5618904e-05	643523.25	215442.58	-0.00017623392	215443.52	643522.6	-0.00018526774
0	0.6131144	0.6131133	-4.8336735e-10	0.028637834	0.028637834	0	132106.98	132106.75	-0.000105075786	643717.9	214641.36	-0.00037504733	214642.28	643717.25	-0.0003054641
0	0.6126818	0.6126807	-5.150409e-12	0.0282843	0.0282843	0	132013.78	132013.55	-4.980611e-06	643912.94	213840.72	-5.5327357e-05	213841.67	643912.3	4.2678894e-05
0	0.6122473	0.6122462	-1.8415393e-10	0.02793073	0.02793073	0	131920.16	131919.9	-3.8924147e-05	644105.44	213039.83	-0.00015454435	213040.83	644104.75	-0.00010002445
0	0.61180776	0.6118067	-4.679287e-10	0.027577164	0.027577164	0	131825.45	131825.2	-9.882087e-05	644299.8	212230.14	-0.0004155333	212231.08	644299.1	-0.00024265579
0	0.6113668	0.6113656	-3.016295e-10	0.02722359	0.02722359	0	131730.44	131730.19	-6.0852657e-05	644492.7	211419.81	-0.00026077896	211420.77	644492.06	-0.00014498159
0	0.61092126	0.6109201	-2.1400923e-10	0.026870027	0.026870027	0	131634.45	131634.19	-4.69108e-05	644686.06	210602.73	-0.00014334611	210603.69	644685.44	-0.00015529672
0	0.6104743	0.6104731	-2.1874398e-10	0.026516493	0.026516493	0	131538.14	131537.89	-4.7755602e-05	644879.9	209783.16	-8.887627e-05	209784.16	644879.3	-0.00023546802
0	0.6100221	0.6100209	-2.4964772e-10	0.02616292	0.02616292	0	131440.7	131440.44	-5.2706742e-05	645073.5	208956.42	-0.00014206518	208957.39	645072.8	-0.00019388692
0	0.6095718	0.6095707	-3.1635966e-10	0.025809359	0.025809359	0	131343.69	131343.4	-7.089658e-05	645266.44	208133.14	-0.00018546496	208134.14	645265.7	-0.00024645298
0	0.6091169	0.6091158	-2.8372976e-10	0.025455875	0.025455875	0	131245.66	131245.4	-6.0885504e-05	645459	207303.67	-0.00026881814	207304.69	645458.4	-0.0001216201
0	0.60865736	0.60865605	-2.851663e-11	0.025102314	0.025102314	0	131146.64	131146.38	-5.948439e-06	645652.1	206467.11	-5.95025e-06	206468.12	645651.44	-3.115492e-05
0	0.60819715	0.6081959	-1.9725278e-10	0.024748746	0.024748746	0	131047.47	131047.22	-4.389334e-05	645845.9	205629.03	-0.00016704114	205630.06	645845.25	-0.00010734534
0	0.6077355	0.60773426	-2.9929646e-11	0.024395214	0.024395214	0	130948.03	130947.75	-9.768762e-06	646036.7	204792.02	-5.1216088e-05	204793.03	646036	-1.1466554e-05
0	0.6072679	0.6072666	-1.13727694e-10	0.024041645	0.024041645	0	130847.25	130846.984	-2.191884e-05	646230.06	203943.86	-3.2357977e-05	203944.89	646229.44	-0.00011460517
0	0.6067977	0.6067963	-2.7484345e-10	0.023688078	0.023688078	0	130745.92	130745.65	-5.8991634e-05	646422.4	203093.23	-0.00020590473	203094.28	646421.75	-0.00017747155
0	0.6063271	0.60632586	-2.5368443e-10	0.023334507	0.023334507	0	130644.53	130644.27	-5.3847933e-05	646613.9	202243.02	-0.00019678286	202244.05	646613.2	-0.0001479776
0	0.6058536	0.60585237	-3.2040118e-10	0.022980943	0.022980943	0	130542.516	130542.24	-7.273269e-05	646804.06	201389.89	-0.00016128205	201390.95	646803.4	-0.0002818353
0	0.60537314	0.6053718	-3.2062625e-10	0.022627415	0.022627415	0	130438.98	130438.71	-6.768276e-05	646995.5	200525.81	-0.0002382319	200526.88	646994.8	-0.00018401761
0	0.604895	0.60489374	-3.8748782e-10	0.022273848	0.022273848	0	130335.984	130335.7	-8.572124e-05	647186.75	199665.08	-0.00035085282	199666.17	647186.06	-0.00021344698
0	0.6044112	0.6044099	-2.6466906e-10	0.02192029	0.02192029	0	130231.73	130231.44	-5.5496574e-05	647377.2	198797.33	-0.0001406332	198798.42	647376.56	-0.00023596761
0	0.6039242	0.6039229	-2.043813e-10	0.02156678	0.02156678	0	130126.8	130126.516	-4.2922322e-05	647569.1	197923.7	-0.0001877107	197924.78	647568.44	-8.462823e-05
0	0.6034346	0.6034333	-2.181761e-10	0.02121321	0.02121321	0	130021.31	130021.016	-4.7413854e-05	647759.56	197047.78	-0.00021437931	197048.88	647758.9	-8.623245e-05
0	0.60294205	0.6029408	-2.9586403e-10	0.020859648	0.020859648	0	129915.15	129914.89	-6.259282e-05	647949.56	196168.14	-0.00024777302	196169.25	647948.8	-0.00017795757
0	0.60244715	0.60244584	-2.4967897e-10	0.020506121	0.020506121	0	129808.53	129808.24	-5.322109e-05	648138.25	195286.62	-0.00017420242	195287.77	648137.5	-0.00017805364
0	0.60194933	0.601948	-1.5699926e-10	0.020152563	0.020152563	0	129701.28	129701	-3.6831734e-05	648327.5	194400.55	-3.4930863e-06	194401.67	648326.75	-0.00020816333
0	0.60144836	0.6014471	-8.660938e-11	0.019798994	0.019798994	0	129593.34	129593.05	-1.7009466e-05	648516.75	193509.86	-0.00013988369	193510.97	648516	3.692755e-05
0	0.60094297	0.60094166	-3.755777e-11	0.019445425	0.019445425	0	129484.43	129484.14	-6.4803103e-06	648705.25	192613.86	-4.8386457e-05	192614.97	648704.44	3.1650976e-05
0	0.6004358	0.6004344	2.483553e-11	0.019091865	0.019091865	0	129375.16	129374.85	7.313121e-06	648894.1	191714.75	8.216921e-06	191715.92	648893.44	4.25795e-05
0	0.5999252	0.59992385	-1.845668e-10	0.018738296	0.018738296	0	129265.15	129264.86	-4.2889224e-05	649082.75	190811.5	-0.00016630677	190812.67	649082	-0.00010420218
0	0.5994079	0.5994065	5.049974e-11	0.018384779	0.018384779	0	129153.664	129153.375	1.0760844e-05	649272.56	189897.4	2.6470223e-05	189898.56	649271.75	4.974312e-05
0	0.5988943	0.59889287	-1.4462487e-10	0.018031219	0.018031219	0	129043.01	129042.7	-3.2868164e-05	649458.4	188992.45	-0.00015629696	188993.66	649457.6	-6.718348e-05
0	0.59837323	0.59837174	-4.3827628e-10	0.017677676	0.017677676	0	128930.7	128930.4	-9.308861e-05	649646	188075.19	-0.00030531475	188076.4	649645.2	-0.00029488365
0	0.59784985	0.5978484	-2.3434016e-10	0.017324107	0.017324107	0	128817.97	128817.65	-5.116026e-05	649832.4	187156.11	-0.00013371313	187157.31	649831.6	-0.0001802389
0	0.5973236	0.5973222	-2.2088395e-10	0.016970549	0.016970549	0	128704.59	128704.266	-4.8772687e-05	650019.3	186232.62	-0.00021712475	186233.84	650018.44	-8.943793e-05
0	0.5967916	0.59679013	-3.2887576e-10	0.016617034	0.016617034	0	128589.94	128589.63	-7.085936e-05	650205.8	185301.14	-0.00026827835	185302.36	650205.06	-0.00018748429
0	0.59625745	0.59625584	-3.0827696e-10	0.016263476	0.016263476	0	128474.81	128474.52	-6.740573e-05	650393.44	184365.66	-0.00022430914	184366.9	650392.6	-0.00019208023
0	0.59572315	0.59572166	-3.6326023e-10	0.01590991	0.01590991	0	128359.72	128359.414	-8.0672755e-05	650577.44	183433.7	-0.00042409994	183434.97	650576.6	-0.00010869088
0	0.595182	0.5951806	-2.0441693e-10	0.015556336	0.015556336	0	128243.13	128242.805	-4.4536242e-05	650762.7	182490.89	-0.0001083782	182492.14	650761.9	-0.00017850717
0	0.59463674	0.5946351	-1.5904522e-11	0.015202784	0.015202784	0	128125.63	128125.29	-3.6283545e-06	650947.6	181542.45	8.850897e-06	181543.73	650946.8	-1.9364066e-05
0	0.59409267	0.5940912	-5.3724036e-11	0.014849219	0.014849219	0	128008.4	128008.086	-1.4736809e-05	651132	180596.48	-4.506358e-05	180597.77	651131.1	-4.916036e-05
0	0.5935405	0.59353894	-2.904812e-10	0.014495703	0.014495703	0	127889.43	127889.086	-6.1449406e-05	651317.5	179637.88	-0.00022717554	179639.16	651316.7	-0.00017064082
0	0.59298825	0.59298676	-1.8684453e-10	0.01414215	0.01414215	0	127770.43	127770.12	-4.2133815e-05	651499.8	178682.45	-0.00018246085	178683.73	651498.94	-8.953339e-05
0	0.59242845	0.59242696	5.84136e-11	0.013788582	0.013788582	0	127649.82	127649.51	1.4643714e-05	651682.94	177715.64	-8.505334e-06	177716.94	651682.06	0.000110026616
0	0.59186804	0.5918665	-2.2373207e-10	0.013435014	0.013435014	0	127529.06	127528.72	-4.6505527e-05	651865.8	176748.1	-0.00022567695	176749.42	651864.9	-8.302327e-05
0	0.59130514	0.59130347	-1.9654564e-10	0.01308146	0.01308146	0	127407.76	127407.42	-4.159772e-05	652048.06	175777.72	-0.00014018356	175779.05	652047.25	-0.00012180197
0	0.5907365	0.5907349	-2.44002e-10	0.012727938	0.012727938	0	127285.26	127284.93	-5.484782e-05	652231.2	174798.62	-0.00019159811	174799.94	652230.3	-0.00015068645
0	0.5901668	0.59016526	-4.3970785e-10	0.012374373	0.012374373	0	127162.516	127162.17	-9.490345e-05	652411.06	173821.11	-0.00042071924	173822.44	652410.1	-0.00018531027
0	0.5895915	0.5895898	-8.671146e-11	0.012020823	0.012020823	0	127038.555	127038.195	-1.8087923e-05	652592.25	172834.47	-8.968007e-05	172835.83	652591.4	-2.8449642e-05
0	0.5890129	0.5890113	-7.2583335e-11	0.011667253	0.011667253	0	126913.875	126913.516	-1.9925174e-05	652772.56	171844	-1.0374176e-05	171845.38	652771.75	-9.405719e-05
0	0.5884302	0.58842856	-1.819445e-10	0.011313708	0.011313708	0	126788.32	126787.984	-4.032695e-05	652952.75	170848.16	-0.00012068342	170849.52	652951.9	-0.00012499762
0	0.5878419	0.58784026	-2.8737449e-10	0.010960145	0.010960145	0	126661.58	126661.21	-6.3867825e-05	653133.6	169843.69	-0.00020822443	169845.08	653132.75	-0.00020873875
0	0.5872509	0.5872492	-2.3940652e-10	0.010606605	0.010606605	0	126534.21	126533.86	-5.0380557e-05	653311.25	168838.53	-0.0001963007	168839.94	653310.4	-0.00012522438
0	0.5866607	0.5866591	-1.3002284e-10	0.010253061	0.010253061	0	126407.06	126406.695	-2.5040556e-05	653489.3	167834.33	-7.4700154e-05	167835.75	653488.44	-0.00010594418
0	0.5860625	0.58606076	-2.8050082e-10	0.009899497	0.009899497	0	126278.14	126277.766	-5.9856095e-05	653667.75	166818.19	-0.00015681646	166819.62	653666.9	-0.00021772721
0	0.58546174	0.58546	-5.0600857e-11	0.0095459325	0.0095459325	0	126148.695	126148.33	-1.1691543e-05	653844.75	165800.17	-8.800192e-05	165801.61	653843.8	1.9122186e-05
0	0.5848538	0.58485204	-9.100442e-11	0.009192389	0.009192389	0	126017.695	126017.32	-1.9012572e-05	654023.2	164770.61	-8.723072e-05	164772.08	654022.2	-2.6469985e-05
0	0.5842479	0.5842461	-1.5863387e-10	0.008838838	0.008838838	0	125887.17	125886.78	-3.3577282e-05	654197.6	163748.02	-0.00010480077	163749.48	654196.56	-8.8631044e-05
0	0.58363444	0.58363277	-4.3802512e-10	0.008485274	0.008485274	0	125754.99	125754.61	-9.590611e-05	654373.2	162713.6	-0.00034864264	162715.06	654372.2	-0.00027104127
0	0.58301586	0.5830141	-1.5024082e-10	0.008131738	0.008131738	0	125621.69	125621.31	-2.8746772e-05	654550.4	161670.39	-9.9022436e-05	161671.88	654549.25	-9.728753e-05
0	0.5823962	0.5823945	-2.1520455e-10	0.007778168	0.007778168	0	125488.195	125487.79	-4.5822522e-05	654723	160630.2	-0.0002040774	160631.67	654722	-6.258661e-05
0	0.5817711	0.5817692	-1.222694e-10	0.0074246093	0.0074246093	0	125353.47	125353.086	-2.3198758e-05	654896.94	159580.97	-0.00011790636	159582.48	654896	-3.4274573e-05
0	0.5811395	0.5811376	-2.7364866e-10	0.007071075	0.007071075	0	125217.39	125217.01	-6.164628e-05	655072.06	158521.7	-0.00019037884	158523.25	655071	-0.00020159216