//mumax 3.10 [windows_amd64 go1.11.6(gc) CUDA-11.0]
//GPU info: NVIDIA GeForce RTX 3090(24575MB), CUDA Driver 12.0, cc=8.6, using cc=80 PTX
//(c) Arne Vansteenkiste, Dynamat LAB, Ghent University, Belgium
//This is free software without any warranty. See license.txt
//********************************************************************//
//  If you use mumax in any work or publication,                      //
//  we kindly ask you to cite the references in references.bib        //
//********************************************************************//
//output directory: r1;p0.8;a5.12e-07;l1.8000000000000002e-07;s1.out/
randSeed(1)
ThermSeed(1)
resolution := 2e-09
zResolution := 5e-09
a := 5.12e-07
gridSize := 512
gridDepth := 5
SetCellsize(resolution, resolution, zResolution)
SetGridsize(gridSize, gridSize, gridDepth)
SetPBC(16, 16, 0)
//resizing...
Msat = 700e3
Aex = 13e-12
alpha = 0.2
Bmax := 0.1
Bstep := Bmax / 500.0
TableAdd(B_ext)
TableAdd(m_full)
islandWidth := 8e-08
islandLength := 1.8000000000000002e-07
ellipseConstant := 7.200000000000001e-08
hIsland := rect(islandLength-2*ellipseConstant, islandWidth)
hIsland = hIsland.add(ellipse(ellipseConstant*2, islandWidth).transl(islandLength/2-ellipseConstant, 0, 0))
hIsland = hIsland.add(ellipse(ellipseConstant*2, islandWidth).transl(-islandLength/2+ellipseConstant, 0, 0))
hIsland = hIsland.add(rect(1e-08, 3.634985610197514e-09).transl(-6.381641448780037e-08, -3.085637859244256e-08, 0))
hIsland = hIsland.add(rect(1e-08, 6.279431561431868e-09).transl(8.07962624616356e-08, -1.956809431388167e-08, 0))
hIsland = hIsland.add(rect(1e-08, 5.8513154465999785e-09).transl(-4.1901152531242046e-08, -3.7731732182354915e-08, 0))
hIsland = hIsland.add(rect(1e-08, 1.1473501218944145e-09).transl(4.4721729265067544e-08, -3.7143154766574604e-08, 0))
hIsland = hIsland.sub(rect(1e-08, -3.873002128739744e-09).transl(-5.098066375447941e-08, -3.555675266350187e-08, 0))
hIsland = hIsland.add(rect(1e-08, 3.218303173436698e-09).transl(5.409862973694102e-08, -3.460932281413278e-08, 0))
hIsland = hIsland.sub(rect(1e-08, -6.5497539116980545e-09).transl(1.6214280837202242e-08, -4e-08, 0))
hIsland = hIsland.sub(rect(1e-08, -1.94868804016397e-09).transl(-4.690395824874556e-08, -3.663534519782527e-08, 0))
hIsland = hIsland.add(rect(1e-08, 3.1707326611074076e-09).transl(-4.251288314908717e-08, -3.761040767321502e-08, 0))
hIsland = hIsland.add(rect(1e-08, 4.7850953105809545e-09).transl(6.080703268484316e-08, -3.2162578672869334e-08, 0))
hIsland = hIsland.add(rect(1e-08, 6.2669778319541446e-09).transl(-4.04342898095106e-08, -3.8008700436495616e-08, 0))
hIsland = hIsland.add(rect(1e-08, 8.076556420549912e-09).transl(-4.969006140971731e-08, -3.59171715520428e-08, 0))
hIsland = hIsland.add(rect(1e-08, 3.9865953993302695e-09).transl(6.235121680096226e-08, -3.1510186322202064e-08, 0))
hIsland = hIsland.add(rect(1e-08, 7.475814518385395e-09).transl(-5.3307877996305074e-08, -3.486018702360017e-08, 0))
hIsland = hIsland.add(rect(1e-08, 1.0356551195682017e-09).transl(-2.9746635724681507e-08, -3.946406612565738e-08, 0))
hIsland = hIsland.sub(rect(1e-08, -1.975699197593583e-09).transl(-6.885583924422946e-08, -2.831526447144704e-08, 0))
hIsland = hIsland.sub(rect(1e-08, -2.3117600956162545e-09).transl(-5.4013914487825566e-08, -3.4636551927152656e-08, 0))
hIsland = hIsland.sub(rect(1e-08, -4.798366437876368e-10).transl(3.5918107542876395e-08, -3.8741551934861605e-08, 0))
hIsland = hIsland.sub(rect(1e-08, -6.104873572546529e-09).transl(-7.190599133354454e-08, -2.6516615442997184e-08, 0))
hIsland = hIsland.add(rect(1e-08, 2.8769971187385883e-09).transl(3.554266684213156e-09, -4e-08, 0))
hIsland = hIsland.add(rect(1e-08, 1.3671941834175533e-09).transl(2.5552422391089774e-08, -3.977933313232694e-08, 0))
hIsland = hIsland.sub(rect(1e-08, -4.9085831529776564e-09).transl(3.576028366422261e-08, -3.8763975274263184e-08, 0))
hIsland = hIsland.sub(rect(1e-08, -1.9447341193837404e-09).transl(-6.706036970137558e-08, -2.9276671520130818e-08, 0))
hIsland = hIsland.add(rect(1e-08, 2.5363637931586775e-09).transl(6.151219094721368e-08, -3.186918302755164e-08, 0))
hIsland = hIsland.add(rect(1e-08, 3.495250098862157e-09).transl(2.3585819178254526e-08, -3.987944264545704e-08, 0))
hIsland = hIsland.add(rect(1e-08, 8.574594943075747e-10).transl(-4.9998608600031e-09, -4e-08, 0))
hIsland = hIsland.add(rect(1e-08, 1.0787277930691781e-09).transl(6.808336601180602e-08, -2.873708216998174e-08, 0))
hIsland = hIsland.add(rect(1e-08, 5.6287676836293776e-09).transl(-5.7322903059642e-08, -3.350745860843043e-08, 0))
hIsland = hIsland.sub(rect(1e-08, -7.72987422409673e-09).transl(5.144540509551123e-08, -3.542251532534681e-08, 0))
hIsland = hIsland.add(rect(1e-08, 1.5721814807982026e-10).transl(1.7030262038588424e-08, -4e-08, 0))
hIsland = hIsland.sub(rect(1e-08, -7.039594521499724e-10).transl(-2.997887546177678e-08, -3.944251381296818e-08, 0))
hIsland = hIsland.sub(rect(1e-08, -5.872104086941348e-09).transl(-4.6223070958796826e-08, -3.679882859135466e-08, 0))
hIsland = hIsland.add(rect(1e-08, 2.148448574441036e-09).transl(6.598210476042793e-08, -2.982312893326522e-08, 0))
hIsland = hIsland.add(rect(1e-08, 1.199655469645018e-10).transl(-6.703332936729205e-08, -2.929064976981318e-08, 0))
hIsland = hIsland.add(rect(1e-08, 3.2076604832273235e-09).transl(6.20494698022405e-08, -3.164055556112302e-08, 0))
hIsland = hIsland.add(rect(1e-08, 5.503826654620429e-09).transl(-2.2187297315385403e-08, -3.993229818880552e-08, 0))
hIsland = hIsland.add(rect(1e-08, 3.6719678030375013e-09).transl(-5.703844897858013e-08, -3.3609960959874976e-08, 0))
hIsland = hIsland.sub(rect(1e-08, -2.1635108088566852e-10).transl(3.9432065496261175e-08, -3.8186783347072945e-08, 0))
hIsland = hIsland.add(rect(1e-08, 1.8704050353201655e-09).transl(8.36541773706479e-08, -1.6419735507331167e-08, 0))
hIsland = hIsland.sub(rect(1e-08, -2.8932282653753605e-09).transl(7.693842941648167e-08, -2.2975171367315934e-08, 0))
hIsland = hIsland.sub(rect(1e-08, -1.4089980844961091e-09).transl(2.426453244602514e-08, -3.984830662802628e-08, 0))
hIsland = hIsland.add(rect(1e-08, 6.886341341262849e-10).transl(3.1603391376061596e-08, -3.9279576192796526e-08, 0))
hIsland = hIsland.add(rect(1e-08, 3.4091950282551083e-10).transl(6.628206284266273e-10, -4e-08, 0))
hIsland = hIsland.add(rect(1e-08, 2.3196090130429307e-09).transl(-8.044501089589301e-08, -1.991200250834989e-08, 0))
hIsland = hIsland.add(rect(1e-08, 6.903078320676444e-10).transl(-6.991038081716785e-08, -2.7718338424319873e-08, 0))
hIsland = hIsland.sub(rect(1e-08, -3.27725414729169e-09).transl(6.378486670004634e-08, -3.087082795953317e-08, 0))
hIsland = hIsland.add(rect(1e-08, 1.9424042141920091e-10).transl(-3.3945132054943804e-09, -4e-08, 0))
hIsland = hIsland.add(rect(1e-08, 4.218829697854141e-09).transl(-5.7712180043672204e-08, -3.336546024097784e-08, 0))
hIsland = hIsland.sub(rect(1e-08, -1.8006243664985885e-09).transl(4.379133572131716e-08, -3.7345595711494436e-08, 0))
hIsland = hIsland.add(rect(1e-08, 3.827966564833162e-09).transl(5.379927034931275e-08, -3.470516133056435e-08, 0))
hIsland = hIsland.add(rect(1e-08, 6.358535147768571e-10).transl(7.40577537608651e-08, -2.5101818851554155e-08, 0))
hIsland = hIsland.add(rect(1e-08, 1.4618923597992753e-09).transl(-2.9275419633400028e-08, -3.950646498152736e-08, 0))
hIsland = hIsland.add(rect(1e-08, 5.169738688551459e-09).transl(6.197638792506678e-08, -3.1671916256215906e-08, 0))
hIsland = hIsland.add(rect(1e-08, 1.3155631902975788e-10).transl(5.076734076381877e-08, -3.561757342676567e-08, 0))
hIsland = hIsland.sub(rect(1e-08, -1.4310384257494107e-09).transl(5.097160223255467e-08, -3.5559346352686347e-08, 0))
hIsland = hIsland.sub(rect(1e-08, -3.133684578440391e-09).transl(6.828418727999282e-09, -4e-08, 0))
hIsland = hIsland.sub(rect(1e-08, -1.4199039406729458e-09).transl(4.91872926984877e-08, -3.605274246061935e-08, 0))
hIsland = hIsland.sub(rect(1e-08, -5.1761639517295996e-09).transl(-3.493441389444604e-08, -3.887787790963731e-08, 0))
hIsland = hIsland.add(rect(1e-08, 4.515026394128085e-09).transl(-8.347305872251272e-09, -4e-08, 0))
hIsland = hIsland.add(rect(1e-08, 4.902583796916085e-09).transl(-7.79544745323279e-08, -2.2148913689832378e-08, 0))
hIsland = hIsland.add(rect(1e-08, 1.2855590610765958e-09).transl(6.617075015269922e-08, -2.9729120849071745e-08, 0))
hIsland = hIsland.sub(rect(1e-08, -6.370646285058313e-09).transl(4.355443302186277e-09, -4e-08, 0))
hIsland = hIsland.sub(rect(1e-08, -7.383851757297547e-09).transl(2.1694024306715173e-08, -3.9947319416014924e-08, 0))
hIsland = hIsland.sub(rect(1e-08, -6.317902925972967e-09).transl(6.853774747741954e-08, -2.849050134059506e-08, 0))
hIsland = hIsland.add(rect(1e-08, 1.8899509081359998e-10).transl(5.2289589595669586e-08, -3.517252033675829e-08, 0))
hIsland = hIsland.sub(rect(1e-08, -2.3794656448223297e-09).transl(1.812407380089371e-08, -3.999994060833528e-08, 0))
hIsland = hIsland.sub(rect(1e-08, -1.8997765249257076e-09).transl(4.935059755573069e-08, -3.6009001073371104e-08, 0))
hIsland = hIsland.sub(rect(1e-08, -1.1021984101906551e-09).transl(-1.65150714578778e-08, -4e-08, 0))
hIsland = hIsland.add(rect(1e-08, 2.3430044572694366e-09).transl(-4.789779867928823e-08, -3.638834450030767e-08, 0))
hIsland = hIsland.sub(rect(1e-08, -6.5516859271289595e-09).transl(7.605650505313131e-08, -2.365807238982899e-08, 0))
hIsland = hIsland.add(rect(1e-08, 2.0933823328003115e-09).transl(8.349284762526643e-08, -1.6617398567907735e-08, 0))
hIsland = hIsland.add(rect(1e-08, 4.031060279648707e-09).transl(-6.791517079178842e-08, -2.8827261857156104e-08, 0))
hIsland = hIsland.sub(rect(1e-08, -5.151008170699025e-09).transl(-1.8624775099234543e-08, -3.99984940151508e-08, 0))
hIsland = hIsland.sub(rect(1e-08, -2.4128518048239438e-09).transl(-3.8223100232092675e-08, -3.838975805818885e-08, 0))
hIsland = hIsland.add(rect(1e-08, 7.022879534651193e-09).transl(5.106562091353942e-08, -3.553239138492531e-08, 0))
hIsland = hIsland.add(rect(1e-08, 1.253356394583154e-09).transl(3.462418692031831e-08, -3.891918030282659e-08, 0))
hIsland = hIsland.sub(rect(1e-08, -3.1392922525020854e-09).transl(-8.20360488506358e-08, -1.8286003279164457e-08, 0))
hIsland = hIsland.add(rect(1e-08, 2.1258480180386984e-09).transl(5.151594259397968e-08, -3.540193197645799e-08, 0))
hIsland = hIsland.sub(rect(1e-08, -2.4814095878272985e-09).transl(-9.342632906687712e-09, -4e-08, 0))
hIsland = hIsland.sub(rect(1e-08, -4.326559047759264e-09).transl(-6.123276175883552e-08, -3.198634117591681e-08, 0))
hIsland = hIsland.add(rect(1e-08, 5.114031205943539e-10).transl(5.734660178336831e-08, -3.349887103358876e-08, 0))
hIsland = hIsland.sub(rect(1e-08, -3.415180626385798e-09).transl(2.2553703347614036e-08, -3.9919919011636995e-08, 0))
hIsland = hIsland.sub(rect(1e-08, -7.197353830281743e-10).transl(2.2851296849959114e-08, -3.990909778574419e-08, 0))
hIsland = hIsland.add(rect(1e-08, 1.916537643579306e-09).transl(5.6093158673515616e-08, -3.3943086271584607e-08, 0))
hIsland = hIsland.add(rect(1e-08, 9.397656018641994e-10).transl(5.686007091766031e-08, -3.367370153982685e-08, 0))
hIsland = hIsland.add(rect(1e-08, 3.975070369551868e-09).transl(3.276946464485699e-08, -3.9149377248189865e-08, 0))
hIsland = hIsland.sub(rect(1e-08, -2.3402970248051962e-09).transl(7.775720770317187e-08, -2.231284388689574e-08, 0))
hIsland = hIsland.sub(rect(1e-08, -2.5176920612495546e-09).transl(-5.739094616089587e-08, -3.348278238466677e-08, 0))
hIsland = hIsland.sub(rect(1e-08, -4.214817118067975e-09).transl(7.493137764196406e-08, -2.4487451055466157e-08, 0))
hIsland = hIsland.sub(rect(1e-08, -1.5892348154110032e-09).transl(-3.5883541868835974e-08, -3.874648104382517e-08, 0))
hIsland = hIsland.sub(rect(1e-08, -1.403761023562815e-09).transl(2.5581734707591086e-09, -4e-08, 0))
hIsland = hIsland.sub(rect(1e-08, -8.08987857027164e-09).transl(-7.226257844754671e-08, -2.6291179224358842e-08, 0))
hIsland = hIsland.add(rect(1e-08, 5.090092591345813e-09).transl(-2.5902812256923393e-08, -3.9758319101637075e-08, 0))
hIsland = hIsland.add(rect(1e-08, 3.761561138462911e-09).transl(-4.4215385212963045e-08, -3.725435419963801e-08, 0))
hIsland = hIsland.add(rect(1e-08, 6.251324436137099e-10).transl(-1.2963370918595704e-08, -4e-08, 0))
hIsland = hIsland.add(rect(1e-08, 4.9370254508713716e-09).transl(6.373221569079138e-08, -3.089490572899317e-08, 0))
hIsland = hIsland.sub(rect(1e-08, -2.230707986464258e-09).transl(8.945096735979637e-08, -4.930356438837486e-09, 0))
hIsland = hIsland.sub(rect(1e-08, -2.7961443525121657e-09).transl(5.375626208182515e-09, -4e-08, 0))
hIsland = hIsland.add(rect(1e-08, 9.665203151798507e-10).transl(4.593692729245157e-08, -3.686615804625487e-08, 0))
hIsland = hIsland.sub(rect(1e-08, -1.1411383944264864e-08).transl(2.7552018025906258e-08, -3.9646427110178595e-08, 0))
hIsland = hIsland.add(rect(1e-08, 3.4828653382332414e-09).transl(5.285918658603155e-08, 3.499928178522461e-08, 0))
hIsland = hIsland.add(rect(1e-08, 9.038894535591478e-09).transl(-3.2066102693043115e-08, 3.9229243764912204e-08, 0))
hIsland = hIsland.add(rect(1e-08, 3.581323458803926e-09).transl(8.980950985095632e-08, 2.9077533097412456e-09, 0))
hIsland = hIsland.add(rect(1e-08, 3.666480673806982e-09).transl(2.0207344734894924e-08, 3.9981197854221874e-08, 0))
hIsland = hIsland.sub(rect(1e-08, -8.186428788396132e-09).transl(-4.619691519498394e-08, 3.6805016656377136e-08, 0))
hIsland = hIsland.add(rect(1e-08, 3.760706065625469e-09).transl(5.14939043474212e-08, 3.5408368838688475e-08, 0))
hIsland = hIsland.sub(rect(1e-08, -9.199753642331286e-10).transl(-2.479365727797148e-08, 3.9821539478233405e-08, 0))
hIsland = hIsland.add(rect(1e-08, 3.177869077355662e-10).transl(7.69411141216263e-08, 2.2973045572383534e-08, 0))
hIsland = hIsland.add(rect(1e-08, 2.305021229721355e-09).transl(-2.9153864495048413e-08, 3.951711344712871e-08, 0))
hIsland = hIsland.sub(rect(1e-08, -2.0155125217133456e-10).transl(8.178960787669575e-08, 1.854994864504386e-08, 0))
hIsland = hIsland.add(rect(1e-08, 3.361120451874343e-09).transl(-2.5999836544907024e-08, 3.975232975257733e-08, 0))
hIsland = hIsland.add(rect(1e-08, 1.5254899248667204e-09).transl(7.842762917091028e-08, 2.1748432842525692e-08, 0))
hIsland = hIsland.add(rect(1e-08, 3.2040836432916367e-09).transl(6.675860310719208e-08, 2.943185592028025e-08, 0))
hIsland = hIsland.add(rect(1e-08, 4.1532262075481846e-09).transl(-7.516146296308401e-08, 2.4321452908497054e-08, 0))
hIsland = hIsland.sub(rect(1e-08, -5.52572093768586e-09).transl(-6.603713038820845e-08, 2.9795776608844323e-08, 0))
hIsland = hIsland.sub(rect(1e-08, -3.7134405929787286e-09).transl(7.490632963041375e-08, 2.45054141661624e-08, 0))
hIsland = hIsland.add(rect(1e-08, 5.674837848663105e-09).transl(-2.412624252166404e-08, 3.9854942041268706e-08, 0))
hIsland = hIsland.sub(rect(1e-08, -2.4710143401549057e-09).transl(6.782870746288695e-08, 2.887339281283176e-08, 0))
hIsland = hIsland.sub(rect(1e-08, -3.911130721308376e-09).transl(-3.833853350124381e-08, 3.8370931863102235e-08, 0))
hIsland = hIsland.add(rect(1e-08, 5.8450321946142e-09).transl(-8.83169514317507e-08, 8.598132537424375e-09, 0))
hIsland = hIsland.sub(rect(1e-08, -2.431398262574717e-09).transl(6.784898776085234e-08, 2.886258641945472e-08, 0))
hIsland = hIsland.add(rect(1e-08, 4.803155016402934e-09).transl(1.9650486277905035e-08, 3.998948895480145e-08, 0))
hIsland = hIsland.add(rect(1e-08, 1.3516277562586567e-09).transl(-5.804057591203227e-08, 3.3244104093589686e-08, 0))
hIsland = hIsland.sub(rect(1e-08, -1.2238961350608014e-09).transl(1.0480196998782217e-08, 4e-08, 0))
hIsland = hIsland.add(rect(1e-08, 9.806139165109622e-10).transl(5.567882005797717e-08, 3.408552478257105e-08, 0))
hIsland = hIsland.sub(rect(1e-08, -7.599047205711279e-10).transl(3.846801773762737e-08, 3.834967546135705e-08, 0))
hIsland = hIsland.add(rect(1e-08, 2.8319497089737634e-10).transl(4.810228219231513e-08, 3.6336274969324616e-08, 0))
hIsland = hIsland.add(rect(1e-08, 3.1515462837554276e-09).transl(7.006319703116333e-08, 2.76297361444479e-08, 0))
hIsland = hIsland.sub(rect(1e-08, -5.271170930894699e-10).transl(6.479594400250283e-08, 3.039929552117162e-08, 0))
hIsland = hIsland.add(rect(1e-08, 1.095608613262732e-09).transl(-8.532619424898585e-08, 1.4176832604638688e-08, 0))
hIsland = hIsland.sub(rect(1e-08, -6.204380698608861e-10).transl(1.189731292079432e-08, 4e-08, 0))
hIsland = hIsland.sub(rect(1e-08, -4.777365389118594e-09).transl(2.7699153260048407e-08, 3.9635400165862503e-08, 0))
hIsland = hIsland.add(rect(1e-08, 3.334361749952638e-09).transl(-3.230337903210526e-08, 3.9202754644111406e-08, 0))
hIsland = hIsland.add(rect(1e-08, 2.095718991478378e-09).transl(-2.4086185742616328e-08, 3.985683617458423e-08, 0))
hIsland = hIsland.sub(rect(1e-08, -1.5272926442770194e-09).transl(6.45950397400972e-08, 3.049439470663928e-08, 0))
hIsland = hIsland.sub(rect(1e-08, -1.8664337624301213e-09).transl(-2.5256437437330967e-08, 3.979633379927869e-08, 0))
hIsland = hIsland.add(rect(1e-08, 6.668176319780574e-09).transl(-3.841179860982391e-09, 4e-08, 0))
hIsland = hIsland.sub(rect(1e-08, -9.021019630846835e-10).transl(3.9381995180341106e-08, 3.81954455711538e-08, 0))
hIsland = hIsland.sub(rect(1e-08, -1.6679126009813146e-09).transl(-2.3873441600254348e-08, 3.986668634556217e-08, 0))
hIsland = hIsland.add(rect(1e-08, 6.708706238327093e-09).transl(-4.557087904575777e-08, 3.6951113135157663e-08, 0))
hIsland = hIsland.add(rect(1e-08, 1.1235798538990233e-10).transl(-4.115870141055383e-08, 3.787436406578869e-08, 0))
hIsland = hIsland.add(rect(1e-08, 1.5279520318623238e-10).transl(-2.5001215400972863e-08, 3.981044198475259e-08, 0))
hIsland = hIsland.sub(rect(1e-08, -8.631203757881952e-09).transl(-5.616525875953437e-08, 3.391807952202305e-08, 0))
hIsland = hIsland.add(rect(1e-08, 4.574571989190365e-09).transl(-4.837382834846382e-08, 3.6266463062209555e-08, 0))
hIsland = hIsland.sub(rect(1e-08, -1.5652279149002434e-09).transl(-8.981719248829692e-08, 2.8485898124189397e-09, 0))
hIsland = hIsland.add(rect(1e-08, 4.140601107165985e-09).transl(8.045210563708402e-08, 1.9905133818015827e-08, 0))
hIsland = hIsland.sub(rect(1e-08, -5.040321346103917e-10).transl(-7.830801980607919e-08, 2.185066280790875e-08, 0))
hIsland = hIsland.add(rect(1e-08, 1.7445217181474185e-10).transl(8.807526645744749e-08, 9.186964579472729e-09, 0))
hIsland = hIsland.sub(rect(1e-08, -1.0698584170269154e-08).transl(-2.59031651607451e-09, 4e-08, 0))
hIsland = hIsland.add(rect(1e-08, 2.3966444097114985e-09).transl(4.507409381325623e-08, 3.706431449117772e-08, 0))
hIsland = hIsland.sub(rect(1e-08, -3.1345917353208435e-09).transl(-5.1567899632479455e-08, 3.5386735126610954e-08, 0))
hIsland = hIsland.sub(rect(1e-08, -4.725115091502844e-10).transl(8.988066763211564e-08, 2.302013394199843e-09, 0))
hIsland = hIsland.add(rect(1e-08, 5.029959290718364e-10).transl(5.3125394609465214e-08, 3.491703859754776e-08, 0))
hIsland = hIsland.add(rect(1e-08, 5.333565118802937e-09).transl(4.289948650616014e-08, 3.753194348016113e-08, 0))
hIsland = hIsland.add(rect(1e-08, 2.7088986227955666e-09).transl(3.214111896525458e-08, 3.922091890504776e-08, 0))
hIsland = hIsland.add(rect(1e-08, 2.4217529568940046e-10).transl(8.510263498116362e-09, 4e-08, 0))
hIsland = hIsland.sub(rect(1e-08, -1.463509436382731e-09).transl(1.1037730057594941e-08, 4e-08, 0))
hIsland = hIsland.add(rect(1e-08, 3.9088567365170944e-09).transl(7.256524445664933e-08, 2.6097124489120408e-08, 0))
hIsland = hIsland.add(rect(1e-08, 3.0937583744442957e-09).transl(6.02168967896505e-08, 3.24024348719866e-08, 0))
hIsland = hIsland.add(rect(1e-08, 4.556256214468432e-09).transl(7.752387176983578e-08, 2.2504517307355944e-08, 0))
hIsland = hIsland.add(rect(1e-08, 2.0119305915532728e-09).transl(-8.95910716398874e-09, 4e-08, 0))
hIsland = hIsland.sub(rect(1e-08, -5.35162238719083e-09).transl(-2.7431403203480642e-09, 4e-08, 0))
hIsland = hIsland.sub(rect(1e-08, -3.2551013933491268e-09).transl(-7.645049938673118e-08, 2.3356728492601015e-08, 0))
hIsland = hIsland.sub(rect(1e-08, -2.9266970354356487e-09).transl(3.250406827599279e-08, 3.917998986729895e-08, 0))
hIsland = hIsland.sub(rect(1e-08, -3.2032378908865243e-09).transl(-8.371398611929482e-08, 1.634572496978959e-08, 0))
hIsland = hIsland.add(rect(1e-08, 2.807951431288487e-09).transl(-2.8138060976196303e-08, 3.960148597272351e-08, 0))
hIsland = hIsland.sub(rect(1e-08, -3.649203499083719e-09).transl(5.71363302028786e-08, 3.3574808945942784e-08, 0))
hIsland = hIsland.add(rect(1e-08, 2.2749948575247455e-09).transl(-3.793130522655157e-08, 3.8436829174979494e-08, 0))
hIsland = hIsland.add(rect(1e-08, 1.5413666473201093e-09).transl(5.0369124172160074e-08, 3.572978060838375e-08, 0))
hIsland = hIsland.sub(rect(1e-08, -2.25091527273058e-09).transl(3.442491602902761e-08, 3.894528503388032e-08, 0))
hIsland = hIsland.sub(rect(1e-08, -4.5981201606541496e-10).transl(-1.0076540197581887e-09, 4e-08, 0))
hIsland = hIsland.sub(rect(1e-08, -8.28358141069902e-11).transl(-3.297608841947783e-08, 3.912514258898792e-08, 0))
hIsland = hIsland.sub(rect(1e-08, -1.7442856416355987e-09).transl(7.641535793536237e-08, 2.3383847155751515e-08, 0))
hIsland = hIsland.add(rect(1e-08, 3.89143606234789e-11).transl(-3.525728509088748e-08, 3.883403318115134e-08, 0))
hIsland = hIsland.add(rect(1e-08, 1.1576220089444543e-09).transl(3.77393282864614e-08, 3.8467394076500975e-08, 0))
hIsland = hIsland.sub(rect(1e-08, -3.963534061889167e-09).transl(-3.463988016884907e-09, 4e-08, 0))
hIsland = hIsland.sub(rect(1e-08, -1.8446837843859508e-09).transl(-8.242305412999574e-08, 1.78615223433188e-08, 0))
hIsland = hIsland.add(rect(1e-08, 5.772349173476359e-09).transl(-7.481999634450675e-08, 2.4567166783505844e-08, 0))
hIsland = hIsland.add(rect(1e-08, 1.5065970444533731e-09).transl(5.703491169989814e-09, 4e-08, 0))
hIsland = hIsland.sub(rect(1e-08, -4.100120204231683e-09).transl(-3.609286185947229e-08, 3.871647633813509e-08, 0))
hIsland = hIsland.sub(rect(1e-08, -7.971391569150135e-09).transl(-2.808623851141726e-08, 3.9605569943930634e-08, 0))
hIsland = hIsland.sub(rect(1e-08, -1.2487211541299992e-09).transl(4.0244851791284934e-08, 3.804304972449855e-08, 0))
hIsland = hIsland.add(rect(1e-08, 1.4374232304424772e-09).transl(7.524214631825313e-08, 2.4262814387451174e-08, 0))
hIsland = hIsland.add(rect(1e-08, 3.8162450667061215e-10).transl(5.088879249161079e-08, 3.558300732110073e-08, 0))
hIsland = hIsland.sub(rect(1e-08, -1.3244063376147712e-09).transl(1.8648471739574176e-08, 3.9998377607541604e-08, 0))
hIsland = hIsland.add(rect(1e-08, 4.190173700954235e-09).transl(7.213481543318651e-08, 2.637234427572131e-08, 0))
hIsland = hIsland.sub(rect(1e-08, -4.087103846375137e-11).transl(1.6697600498964186e-08, 4e-08, 0))
hIsland = hIsland.sub(rect(1e-08, -1.151673805737715e-09).transl(-4.026338351324731e-08, 3.803970373233535e-08, 0))
hIsland = hIsland.add(rect(1e-08, 5.8751940935455e-10).transl(-2.7539316204156924e-08, 3.964737099296029e-08, 0))
hIsland = hIsland.add(rect(1e-08, 5.578003724270301e-09).transl(-8.412972764220355e-08, 1.5819771208877486e-08, 0))
hIsland = hIsland.sub(rect(1e-08, -1.7287810470417069e-09).transl(1.0920782210142851e-08, 4e-08, 0))
hIsland = hIsland.add(rect(1e-08, 1.105994858274586e-09).transl(-7.95751621087578e-08, 2.073122690324047e-08, 0))
hIsland = hIsland.sub(rect(1e-08, -1.0209574790661806e-09).transl(-2.974037538782957e-08, 3.946464109601528e-08, 0))
hIsland = hIsland.add(rect(1e-08, 2.848740874703077e-09).transl(7.40261349027439e-08, 2.512359699331636e-08, 0))
hIsland = hIsland.sub(rect(1e-08, -6.111233975716633e-09).transl(6.078963577141493e-08, 3.216972289525197e-08, 0))
hIsland = hIsland.add(rect(1e-08, 3.980432149457426e-09).transl(3.213953539157206e-08, 3.922109511644039e-08, 0))
hIsland = hIsland.sub(rect(1e-08, -3.378850284187068e-09).transl(-4.1309574704641965e-08, 3.7845787341153645e-08, 0))
hIsland = hIsland.sub(rect(1e-08, -4.748290372250358e-09).transl(-3.062877386314756e-08, 3.937989268333618e-08, 0))
hIsland = hIsland.add(rect(1e-08, 1.5010339329072171e-09).transl(5.057597627651365e-08, 3.5671710311577334e-08, 0))
hIsland = hIsland.sub(rect(1e-08, -8.316936382583389e-10).transl(-8.027079792612069e-08, 2.0079684820305114e-08, 0))
vIsland := hIsland.rotz(pi / 2)
vIslands := Universe().Inverse()
hIslands := Universe().Inverse()
hIslands = hIslands.add(hIsland.transl(-a/2, a, 0))
hIslands = hIslands.add(hIsland.transl(-a/2, -a, 0))
hIslands = hIslands.add(hIsland.transl(a/2, a, 0))
hIslands = hIslands.add(hIsland.transl(a/2, -a, 0))
hIslands = hIslands.add(hIsland.transl(-a/2, 0, 0))
hIslands = hIslands.add(hIsland.transl(a/2, 0, 0))
vIslands = vIslands.add(vIsland.transl(-a, a/2, 0))
vIslands = vIslands.add(vIsland.transl(a, a/2, 0))
vIslands = vIslands.add(vIsland.transl(-a, -a/2, 0))
vIslands = vIslands.add(vIsland.transl(a, -a/2, 0))
vIslands = vIslands.add(vIsland.transl(0, a/2, 0))
vIslands = vIslands.add(vIsland.transl(0, -a/2, 0))
DefRegion(1, hIslands)
DefRegion(2, vIslands)
TableAdd(m_full.Region(1))
TableAdd(m_full.Region(2))
setgeom(hIslands.add(vIslands))
save(m)
r2o2 := sqrt(2) / 2
m = RandomMagSeed(4)
B_ext = vector(Bmax*r2o2, Bmax*r2o2, 0)
relax()
minimize()
for B := Bmax; B >= -Bmax; B -= Bstep {
	B_ext = vector(B*r2o2, B*r2o2, 0)
	minimize()
	tablesave()
}
//********************************************************************//
//Please cite the following references, relevant for your simulation. //
//See bibtex file in output folder for justification.                 //
//********************************************************************//
//   * Vansteenkiste et al., AIP Adv. 4, 107133 (2014).
//   * Exl et al., J. Appl. Phys. 115, 17D118 (2014).
