# t (s)	mx ()	my ()	mz ()	B_extx (T)	B_exty (T)	B_extz (T)	m_fullx (A/m)	m_fully (A/m)	m_fullz (A/m)	m_full.region1x (A/m)	m_full.region1y (A/m)	m_full.region1z (A/m)	m_full.region2x (A/m)	m_full.region2y (A/m)	m_full.region2z (A/m)
0	0.6304597	0.6304598	-6.553962e-11	0.07071093	0.07071093	0	107378.695	107378.69	-1.3934305e-05	657923.9	224719.86	-7.254123e-05	224719.77	657923.8	-1.5271838e-05
0	0.6301786	0.6301779	-1.2015597e-10	0.07035715	0.07035715	0	107330.79	107330.69	-2.2759365e-05	658117.6	224131.98	-5.3451437e-05	224132.44	658117.2	-0.00014794593
0	0.6298926	0.62989193	-1.8751614e-10	0.070003524	0.07000352	0	107282.1	107281.984	-3.065547e-05	658315.4	223533.8	-0.0001336286	223534.3	658314.9	-0.0001336286
0	0.6296072	0.6296064	-1.3107924e-10	0.06964998	0.06964998	0	107233.48	107233.36	-2.183041e-05	658511.56	222938	-7.6359196e-05	222938.5	658511	-0.00011835675
0	0.62931937	0.6293187	-2.8764613e-10	0.069296524	0.069296524	0	107184.47	107184.336	-4.691216e-05	658708	222338.72	-0.00014508246	222339.2	658707.44	-0.00028825595
0	0.62903094	0.6290302	-1.7841341e-10	0.068943	0.068943	0	107135.34	107135.23	-3.065547e-05	658904.5	221738.2	-0.00011453879	221738.75	658904.06	-0.00012599266
0	0.62874025	0.62873954	-1.8205451e-10	0.06858937	0.06858937	0	107085.83	107085.695	-3.20489e-05	659102.06	221133.78	-8.7813074e-05	221134.3	659101.5	-0.00018135308
0	0.6284477	0.628447	-1.5292578e-10	0.0682356	0.0682356	0	107036.01	107035.88	-2.60107e-05	659299.7	220526.7	-4.5815515e-05	220527.22	659299.1	-0.00013171961
0	0.62815446	0.62815374	-1.0012998e-10	0.067882374	0.067882374	0	106986.055	106985.94	-2.2294887e-05	659496.94	219918.84	-0.00011453879	219919.38	659496.44	-5.1542454e-05
0	0.62785983	0.62785906	-8.010398e-11	0.06752862	0.06752863	0	106935.875	106935.74	-1.8114595e-05	659694.44	219308.81	-0.00012599266	219309.33	659693.9	-2.8634697e-05
0	0.6275633	0.6275625	-2.3302976e-10	0.06717496	0.06717496	0	106885.38	106885.25	-4.0873958e-05	659892.3	218695.81	-0.00019471595	218696.34	659891.75	-0.00013553757
0	0.62726444	0.6272638	-1.9297777e-10	0.066821836	0.066821836	0	106834.484	106834.35	-2.6475178e-05	660091.1	218078.66	-8.7813074e-05	218079.2	660090.6	-0.00017753513
0	0.6269654	0.6269646	-1.3289979e-10	0.066468105	0.066468105	0	106783.55	106783.414	-1.4398781e-05	660288.75	217462.28	-6.1087354e-05	217462.84	660288.2	-6.299633e-05
0	0.62666404	0.62666327	-1.2379707e-10	0.066114426	0.066114426	0	106732.21	106732.08	-1.4398781e-05	660487.5	216841.62	-3.0543677e-05	216842.17	660487	-9.735797e-05
0	0.6263622	0.6263614	-6.1898535e-11	0.06576086	0.06576086	0	106680.805	106680.66	-9.289536e-06	660685.1	216221.36	3.8179596e-06	216221.92	660684.6	-5.9178376e-05
0	0.6260578	0.62605697	-1.4564361e-10	0.06540748	0.06540748	0	106628.945	106628.83	-2.2759365e-05	660884.06	215596.27	-8.399511e-05	215596.84	660883.56	-0.00011072083
0	0.62575233	0.62575155	-1.9661886e-10	0.065053925	0.065053925	0	106576.92	106576.8	-3.20489e-05	661082.6	214969.97	-0.0001336286	214970.56	661082.2	-0.00016417226
0	0.62544525	0.6254445	-1.2743816e-10	0.06470022	0.06470022	0	106524.63	106524.5	-2.786861e-05	661281.4	214341.39	-7.254123e-05	214341.95	661280.9	-0.00010308491
0	0.62513584	0.6251351	-2.1300377e-10	0.06434654	0.06434654	0	106471.93	106471.805	-3.622919e-05	661480.5	213709.14	-0.00012217471	213709.72	661480	-0.000188989
0	0.6248263	0.6248255	-9.830943e-11	0.063993275	0.063993275	0	106419.21	106419.08	-1.2076397e-05	661679.5	213076.73	-5.7269393e-05	213077.31	661678.94	-0.00010308491
0	0.624514	0.62451315	-1.9661886e-10	0.063639596	0.063639596	0	106366.02	106365.875	-3.1584423e-05	661879.25	212439.6	-0.00012981064	212440.2	661878.8	-0.0001336286
0	0.62420124	0.6242004	-1.0559161e-10	0.06328588	0.06328588	0	106312.75	106312.62	-1.8114595e-05	662078.06	211803.11	0	211803.7	662077.5	-0.0001336286
0	0.62388647	0.62388563	-5.461635e-11	0.06293273	0.06293273	0	106259.15	106259.01	-7.896106e-06	662277.25	211163.33	7.635919e-06	211163.92	662276.6	-8.5904096e-05
0	0.6235681	0.62356734	-1.2743816e-10	0.06257908	0.06257908	0	106204.93	106204.78	-2.3688317e-05	662478.2	210516.64	-8.399511e-05	210517.27	662477.56	-0.00010881185
0	0.62325126	0.62325054	-1.6749015e-10	0.06222535	0.06222535	0	106150.96	106150.83	-2.8333086e-05	662676.6	209874.58	-0.00011835675	209875.2	662676.06	-0.00012790164
0	0.62293047	0.6229296	-2.1482431e-10	0.06187173	0.06187173	0	106096.31	106096.17	-4.1802912e-05	662877.06	209225.06	-0.0001985339	209225.69	662876.44	-0.00018517104
0	0.62260956	0.6226087	-2.585174e-10	0.061518446	0.061518446	0	106041.67	106041.52	-4.5983204e-05	663076.6	208576.22	-0.0002176237	208576.84	663076	-0.00015462737
0	0.6222869	0.6222861	-1.7113123e-10	0.06116484	0.061164834	0	105986.71	105986.57	-3.065547e-05	663276.5	207924.56	-0.00017180819	207925.19	663275.9	-0.00011835675
0	0.6219624	0.6219616	-7.646289e-11	0.06081109	0.06081109	0	105931.445	105931.305	-9.754013e-06	663476.4	207270.39	-5.7269393e-05	207271.03	663475.8	-2.0998777e-05
0	0.62163496	0.62163407	-2.912872e-11	0.060457464	0.060457464	0	105875.664	105875.52	1.3934305e-06	663677.1	206611.14	-1.1453879e-05	206611.8	663676.6	2.4816738e-05
0	0.6213075	0.6213066	-2.4213248e-10	0.060104188	0.060104188	0	105819.9	105819.74	-3.948053e-05	663877.25	205952.55	-0.0001336286	205953.2	663876.7	-0.00021571472
0	0.62097806	0.62097716	-1.5656687e-10	0.05975055	0.05975055	0	105763.79	105763.66	-2.5546226e-05	664077.5	205291.14	-0.0001412645	205291.78	664076.94	-8.5904096e-05
0	0.6206467	0.6206459	-3.7321174e-11	0.059396807	0.059396807	0	105707.36	105707.21	-4.1802914e-06	664277.94	204626.84	-7.635919e-06	204627.5	664277.4	-9.5448995e-06
0	0.6203137	0.6203128	-2.2938867e-10	0.059043646	0.059043646	0	105650.63	105650.484	-3.80871e-05	664478.56	203959.94	-0.00016417226	203960.61	664478	-0.00012217471
0	0.61997855	0.6199777	-4.369308e-11	0.058690004	0.058690004	0	105593.555	105593.4	-1.300535e-05	664679.6	203289.7	1.1453879e-05	203290.36	664679	-8.5904096e-05
0	0.6196422	0.6196413	-1.3836142e-10	0.05833626	0.05833626	0	105536.266	105536.125	-1.8579072e-05	664880	202618.34	-9.5448995e-05	202619.02	664879.5	-8.017715e-05
0	0.61930335	0.61930245	-2.0025996e-10	0.057982642	0.057982642	0	105478.55	105478.4	-3.4371285e-05	665081.2	201942.78	-0.00014890042	201943.48	665080.7	-0.00013744655
0	0.6189637	0.6189628	-1.6384906e-10	0.057629347	0.057629347	0	105420.72	105420.555	-2.7404132e-05	665282.1	201266.5	-0.00014508246	201267.19	665281.5	-8.5904096e-05
0	0.6186211	0.61862016	-1.7841341e-10	0.05727572	0.057275724	0	105362.35	105362.2	-3.5300236e-05	665483.9	200584.94	-0.00012217471	200585.64	665483.25	-0.00015080941
0	0.6182779	0.61827695	-2.2756813e-10	0.05692201	0.05692201	0	105303.9	105303.74	-3.4371285e-05	665684.3	199903.98	-0.00017562615	199904.67	665683.7	-0.00011262981
0	0.617932	0.6179311	-2.585174e-10	0.05656839	0.05656839	0	105244.984	105244.83	-4.366082e-05	665885.7	199218.34	-0.00020998779	199219.05	665885.2	-0.00014317349
0	0.617585	0.6175841	-2.7672284e-10	0.05621509	0.05621509	0	105185.875	105185.73	-4.366082e-05	666086.94	198531.36	-0.00016799022	198532.08	666086.3	-0.00016608124
0	0.6172361	0.6172352	-1.2197651e-10	0.05586147	0.05586147	0	105126.46	105126.3	-1.7185643e-05	666288.2	197841.6	-7.254123e-05	197842.33	666287.56	-9.163103e-05
0	0.6168854	0.61688447	-2.3667085e-10	0.05550773	0.05550773	0	105066.734	105066.58	-3.7622623e-05	666489.56	197149.28	-0.00018708002	197150.02	666488.94	-0.00014890042
0	0.61653286	0.6165319	-1.7113123e-10	0.055154543	0.055154543	0	105006.695	105006.53	-2.8797562e-05	666690.94	196454.31	-0.00012217471	196455.03	666690.44	-0.00011262981
0	0.6161773	0.61617637	-1.8933669e-10	0.054800928	0.054800928	0	104946.125	104945.97	-2.9262039e-05	666893	195754.55	-8.7813074e-05	195755.27	666892.4	-0.00016608124
0	0.6158213	0.61582035	-2.184654e-10	0.054447185	0.054447185	0	104885.516	104885.336	-4.226739e-05	667094.4	195054.73	-0.00014508246	195055.48	667093.8	-0.0002176237
0	0.61546326	0.61546236	-1.6384906e-10	0.054093573	0.054093573	0	104824.52	104824.36	-3.0190993e-05	667296.06	194351.88	-0.00015653635	194352.62	667295.5	-7.6359196e-05
0	0.6151032	0.61510223	-1.8205451e-10	0.053740244	0.053740244	0	104763.18	104763.016	-2.9262039e-05	667497.75	193645.9	-0.00012599266	193646.66	667497.1	-0.00013553757
0	0.61474127	0.6147403	-2.5487631e-10	0.053386644	0.053386644	0	104701.55	104701.38	-4.0409483e-05	667699.44	192937.61	-0.00011835675	192938.36	667698.8	-0.00022907757
0	0.6143771	0.61437607	-2.3120922e-10	0.05303293	0.05303293	0	104639.516	104639.34	-3.8551574e-05	667901.5	192225.58	-0.00014890042	192226.33	667900.9	-0.00018326206
0	0.6140112	0.6140102	-1.984394e-10	0.05267932	0.05267932	0	104577.21	104577.03	-3.344233e-05	668103.2	191511.72	-0.0001603543	191512.52	668102.56	-0.00011835675
0	0.6136437	0.61364263	-2.949283e-10	0.052325983	0.052325983	0	104514.61	104514.44	-5.387931e-05	668304.8	190795.5	-0.00017180819	190796.28	668304.2	-0.00030161883
0	0.6132729	0.61327195	-7.2821804e-11	0.05197239	0.05197239	0	104451.46	104451.3	-1.5792211e-05	668507.2	190074.14	-0.00010308491	190074.94	668506.5	1.5271838e-05
0	0.61290205	0.61290103	0	0.051618647	0.051618647	0	104388.3	104388.12	-4.644768e-07	668708.8	189353.17	3.0543677e-05	189353.98	668708.25	1.5271838e-05
0	0.6125284	0.6125274	-2.2938867e-10	0.051265437	0.051265437	0	104324.65	104324.48	-3.7622623e-05	668910.75	188628.12	-0.00014508246	188628.92	668910.2	-0.00015653635
0	0.61215234	0.61215127	-2.2756813e-10	0.05091183	0.050911825	0	104260.59	104260.43	-3.7622623e-05	669112.9	187899.56	-0.00019471595	187900.38	669112.25	-0.00010690287
0	0.6117745	0.61177343	-1.0559161e-10	0.050558105	0.050558105	0	104196.26	104196.08	-2.0901456e-05	669315	187168.52	-8.7813074e-05	187169.3	669314.44	-7.063225e-05
0	0.6113951	0.6113941	-1.4746415e-10	0.05020451	0.05020451	0	104131.65	104131.45	-2.9262039e-05	669517.1	186435.23	-9.735797e-05	186436.08	669516.44	-0.00011262981
0	0.6110131	0.61101216	-1.3472033e-10	0.04985114	0.049851134	0	104066.586	104066.41	-1.9972504e-05	669719.25	185698.42	-0.00012790164	185699.23	669718.56	-7.8268175e-05
0	0.6106295	0.6106285	-1.7477232e-10	0.049497545	0.049497545	0	104001.24	104001.06	-3.1119947e-05	669921.25	184959.23	-0.00010308491	184960.08	669920.56	-0.0001336286
0	0.61024386	0.61024284	-3.2041592e-10	0.049143855	0.049143855	0	103935.57	103935.39	-5.2950356e-05	670123.2	184217.48	-0.00026153025	184218.34	670122.56	-0.00020616982
0	0.6098557	0.60985464	-2.0390105e-10	0.04879026	0.04879026	0	103869.45	103869.266	-3.065547e-05	670325.56	183471.6	-0.00013935553	183472.47	670324.94	-0.00011644777
0	0.6094659	0.6094648	-2.0572159e-10	0.048436876	0.048436876	0	103803.07	103802.88	-3.1119947e-05	670527.3	182724.14	-0.00011835675	182724.98	670526.6	-0.00018135308
0	0.60907364	0.60907257	-1.6020796e-10	0.048083298	0.048083294	0	103736.24	103736.055	-2.6939655e-05	670729.6	181972.53	-0.00012026573	181973.42	670729	-9.163103e-05
0	0.6086795	0.60867846	-1.856956e-10	0.04772957	0.04772957	0	103669.12	103668.945	-3.2513377e-05	670931.56	181218.88	-0.00013935553	181219.73	670930.94	-0.0001336286
0	0.60828364	0.60828257	-9.6488886e-11	0.04737633	0.04737633	0	103601.71	103601.516	-1.6721166e-05	671133.3	180462.95	-6.299633e-05	180463.84	671132.6	-6.68143e-05
0	0.6078847	0.60788363	-1.5656687e-10	0.047022745	0.047022745	0	103533.75	103533.57	-3.20489e-05	671335.7	179701.95	-0.00017753513	179702.84	671335.06	-0.00013171961
0	0.6074838	0.60748273	-2.6397903e-10	0.04666901	0.046669006	0	103465.47	103465.28	-4.366082e-05	671537.8	178938.69	-0.00016417226	178939.6	671537.06	-0.00022525962
0	0.6070813	0.6070801	-1.9661886e-10	0.046315443	0.046315443	0	103396.9	103396.71	-3.483576e-05	671739.75	178173.08	-0.00015653635	178173.97	671739.06	-0.00014317349
0	0.6066764	0.60667527	-2.6762012e-10	0.04596203	0.04596203	0	103327.945	103327.766	-5.109245e-05	671941.56	177404.5	-0.0002271686	177405.39	671940.94	-0.00016799022
0	0.606269	0.60626787	-2.8764613e-10	0.045608457	0.045608457	0	103258.57	103258.375	-4.1802912e-05	672143.5	176632.16	-0.00016417226	176633.08	672142.9	-0.00020235186
0	0.60585964	0.6058585	-1.7113123e-10	0.045254774	0.045254774	0	103188.84	103188.66	-2.786861e-05	672345.5	175857.05	-9.735797e-05	175857.95	672344.8	-0.00014699144
0	0.6054481	0.60544693	-1.1651488e-10	0.0449012	0.0449012	0	103118.75	103118.55	-1.8114595e-05	672547.4	175079.05	-8.7813074e-05	175079.97	672546.7	-6.1087354e-05
0	0.60503435	0.6050332	4.5513628e-11	0.044547774	0.044547774	0	103048.29	103048.086	9.289536e-06	672749.06	174298.14	5.1542454e-05	174299.08	672748.4	1.9089799e-05
0	0.6046177	0.6046166	-1.9115723e-10	0.04419421	0.04419421	0	102977.32	102977.125	-3.483576e-05	672951.06	173512.86	-0.00015653635	173513.81	672950.3	-0.00010690287
0	0.6041994	0.6041982	-1.8205451e-10	0.043840494	0.043840494	0	102906.07	102905.875	-2.9726516e-05	673152.7	172725.44	-0.00011644777	172726.4	673152	-0.00016608124
0	0.6037783	0.6037771	-4.5513628e-11	0.043486923	0.043486923	0	102834.35	102834.15	-7.431629e-06	673354.56	171934.03	-1.9089799e-05	171935	673353.9	-2.8634697e-05
0	0.60335505	0.6033538	-1.4564361e-10	0.043133646	0.043133646	0	102762.26	102762.055	-2.6475178e-05	673556.1	171139.89	-9.926695e-05	171140.86	673555.4	-0.00012790164
0	0.6029299	0.60292876	-1.1469434e-10	0.042779934	0.042779934	0	102689.86	102689.664	-1.7650118e-05	673757.7	170343.28	-7.6359196e-05	170344.27	673757	-7.445021e-05
0	0.6025023	0.6025011	-1.2379707e-10	0.042426366	0.042426366	0	102617.04	102616.836	-2.4617271e-05	673958.9	169543.36	-0.00010690287	169544.34	673958.1	-9.354001e-05
0	0.60207134	0.60207015	-2.4759414e-10	0.04207292	0.04207292	0	102543.63	102543.414	-3.9945007e-05	674160.6	168738.25	-0.00017753513	168739.25	674159.9	-0.00014890042
0	0.6016396	0.60163844	-1.6202852e-10	0.041719366	0.041719366	0	102470.1	102469.9	-2.5081748e-05	674361.6	167932.94	-0.0001603543	167933.94	674360.94	-6.8723275e-05
0	0.60120475	0.6012035	-9.830943e-11	0.041365687	0.041365687	0	102396.02	102395.81	-1.161192e-05	674562.94	167122.69	-2.4816738e-05	167123.7	674562.2	-5.7269393e-05
0	0.6007675	0.60076624	-1.5292578e-10	0.041012146	0.041012146	0	102321.555	102321.34	-2.60107e-05	674763.9	166309.52	-0.00015080941	166310.55	674763.1	-5.9178376e-05
0	0.6003273	0.60032606	-2.184654e-10	0.040658668	0.040658668	0	102246.61	102246.38	-3.065547e-05	674965	165492.22	-0.00018708002	165493.27	674964.4	-0.00014508246
0	0.599885	0.59988374	-1.7477232e-10	0.04030513	0.04030513	0	102171.26	102171.055	-3.065547e-05	675166.06	164671.97	-0.00015653635	164673.05	675165.25	-8.7813074e-05
0	0.59943974	0.5994384	-1.9297777e-10	0.039951418	0.039951418	0	102095.414	102095.195	-2.786861e-05	675367.6	163846.9	-0.00016989921	163847.97	675366.9	-8.399511e-05
0	0.59899324	0.598992	-9.466834e-11	0.039597884	0.039597884	0	102019.37	102019.15	-2.183041e-05	675567.4	163022.05	-0.00012026573	163023.12	675566.7	-6.1087354e-05
0	0.5985434	0.59854215	-2.1118322e-10	0.03924456	0.03924456	0	101942.76	101942.54	-3.80871e-05	675768.06	162191.61	-0.00019471595	162192.67	675767.4	-0.00011072083
0	0.59809124	0.59809005	-1.9661886e-10	0.038890846	0.03889085	0	101865.76	101865.54	-3.1584423e-05	675968.44	161358.25	-0.00015653635	161359.34	675967.75	-0.00012790164
0	0.59763634	0.5976351	-6.553962e-11	0.038537316	0.038537316	0	101788.28	101788.05	-1.300535e-05	676168.9	160520.95	-8.208613e-05	160522.06	676168.06	-2.0998777e-05
0	0.59717876	0.59717745	-1.6749015e-10	0.03818381	0.03818381	0	101710.336	101710.11	-2.6475178e-05	676369	159680.12	-0.00013744655	159681.23	676368.3	-0.00013171961
0	0.596719	0.5967177	-2.0025996e-10	0.03783028	0.03783028	0	101632.02	101631.805	-2.786861e-05	676569	158836.39	-0.00012790164	158837.48	676568.4	-0.00012599266
0	0.5962557	0.5962544	-1.6749015e-10	0.03747657	0.03747657	0	101553.125	101552.89	-2.4152794e-05	676769.25	157987.66	-0.00011835675	157988.78	676768.56	-8.208613e-05
0	0.5957912	0.5957899	-1.4018196e-10	0.037123095	0.037123095	0	101474.03	101473.79	-2.6939655e-05	676968.7	157137.86	-0.00010881185	157139	676968.06	-9.735797e-05
0	0.5953231	0.5953218	-8.738616e-11	0.03676955	0.03676955	0	101394.29	101394.055	-1.4166543e-05	677168.44	156282.73	-6.490532e-05	156283.84	677167.75	-5.1542454e-05
0	0.59485286	0.5948515	-2.1482431e-10	0.036416046	0.03641605	0	101314.19	101313.97	-3.9945007e-05	677367.75	155425.03	-0.00018708002	155426.19	677367.1	-0.00013744655
0	0.5943796	0.5943783	-2.3667085e-10	0.036062334	0.036062334	0	101233.58	101233.37	-4.1802912e-05	677567	154563.3	-0.00019471595	154564.45	677566.3	-0.00016799022
0	0.5939033	0.59390193	-2.1118322e-10	0.035708837	0.035708837	0	101152.48	101152.234	-3.344233e-05	677766.3	153697.16	-0.00017371717	153698.31	677765.5	-9.735797e-05
0	0.5934242	0.59342283	-2.2028596e-10	0.035355464	0.035355467	0	101070.87	101070.625	-3.622919e-05	677966	152826.75	-0.00014508246	152827.94	677965.25	-0.00014890042
0	0.5929436	0.5929422	-1.2015597e-10	0.03500176	0.03500176	0	100989.01	100988.77	-1.7185643e-05	678163.8	151956.02	-0.00013553757	151957.2	678163.1	-2.2907758e-05
0	0.59245914	0.5924578	-1.3472033e-10	0.034648262	0.034648262	0	100906.51	100906.28	-2.0436979e-05	678362.44	151079.27	-0.00012217471	151080.45	678361.7	-4.3906537e-05
0	0.59197193	0.59197056	-2.184654e-10	0.034294683	0.034294683	0	100823.52	100823.29	-3.4371285e-05	678560.9	150198.66	-9.926695e-05	150199.88	678560.2	-0.00017180819
0	0.5914825	0.59148115	-1.2379707e-10	0.033941187	0.033941187	0	100740.17	100739.94	-2.5081748e-05	678759	149315.44	-9.163103e-05	149316.66	678758.25	-0.00012217471
0	0.5909897	0.5909883	-1.7841341e-10	0.03358748	0.03358748	0	100656.234	100655.99	-2.9262039e-05	678957.06	148427.36	-0.00011453879	148428.6	678956.25	-0.00011453879
0	0.59049433	0.5904929	-1.6202852e-10	0.033234052	0.033234052	0	100571.86	100571.61	-2.9726516e-05	679154.7	147536.16	-0.00016608124	147537.38	679153.94	-6.1087354e-05
0	0.5899958	0.5899944	-1.3107924e-10	0.03288043	0.03288043	0	100486.945	100486.695	-1.8114595e-05	679352.25	146640.64	-0.00016799022	146641.89	679351.44	7.635919e-06
0	0.5894947	0.5894933	-1.7841341e-10	0.032526962	0.032526962	0	100401.61	100401.37	-2.8797562e-05	679549.25	145742.1	-0.0001412645	145743.34	679548.5	-9.735797e-05
0	0.58899045	0.58898914	-1.492847e-10	0.03217327	0.03217327	0	100315.73	100315.47	-2.2759365e-05	679746.25	144839.16	-8.208613e-05	144840.42	679745.5	-8.5904096e-05
0	0.58848304	0.5884816	-1.7477232e-10	0.031819798	0.031819798	0	100229.31	100229.055	-2.2759365e-05	679943.25	143931.83	-0.00010308491	143933.11	679942.5	-0.000104993895
0	0.58797306	0.5879715	-2.9128722e-10	0.031466365	0.031466365	0	100142.44	100142.19	-5.573722e-05	680139.75	143021.17	-0.00024053146	143022.5	680138.94	-0.00014699144
0	0.58746004	0.58745855	-1.856956e-10	0.031112675	0.031112675	0	100055.06	100054.81	-2.5081748e-05	680335.9	142106.9	-0.00014890042	142108.22	680335.06	-9.163103e-05
0	0.5869435	0.5869421	-6.1898535e-11	0.030759223	0.030759223	0	99967.086	99966.836	-1.5792211e-05	680532.06	141187.58	-5.3451437e-05	141188.86	680531.25	-4.5815515e-05
0	0.58642447	0.58642304	-9.28478e-11	0.030405546	0.030405546	0	99878.695	99878.445	-1.2540874e-05	680727.56	140265.53	-0.00011262981	140266.84	680726.7	-1.9089799e-05
0	0.58590215	0.58590066	-4.369308e-11	0.030052094	0.030052094	0	99789.73	99789.47	-2.786861e-06	680922.9	139338.81	-4.1997555e-05	139340.11	680922.06	-3.8179596e-06
0	0.58537674	0.5853753	-1.7477232e-10	0.029698404	0.029698402	0	99700.24	99699.99	-3.0190993e-05	681118.06	138408.06	-0.00017371717	138409.39	681117.3	-8.7813074e-05
0	0.5848484	0.58484685	-1.984394e-10	0.029345002	0.029345002	0	99610.26	99609.99	-3.9016053e-05	681312.8	137473.61	-0.00017562615	137474.94	681312.06	-0.00010308491
0	0.58431655	0.58431506	-1.856956e-10	0.028991321	0.028991321	0	99519.664	99519.414	-3.344233e-05	681507.56	136534.31	-0.00012599266	136535.67	681506.7	-0.00010308491
0	0.58378166	0.58378017	-1.7477232e-10	0.02863786	0.028637862	0	99428.57	99428.305	-2.8797562e-05	681701.6	135591.3	-0.00016989921	135592.66	681700.9	-8.5904096e-05
0	0.58324367	0.5832421	-1.3107924e-10	0.028284196	0.028284196	0	99336.93	99336.67	-1.8579072e-05	681895.6	134644.22	-0.00010690287	134645.6	681894.75	-0.00012026573
0	0.58270204	0.5827005	-1.7295178e-10	0.027930735	0.027930735	0	99244.68	99244.43	-3.0190993e-05	682089	133692.36	-0.00014317349	133693.72	682088.2	-9.163103e-05
0	0.5821578	0.5821562	-1.3836142e-10	0.027577272	0.027577272	0	99151.984	99151.72	-2.2294887e-05	682282.25	132737.19	-0.000104993895	132738.6	682281.44	-7.445021e-05
0	0.58160996	0.5816084	-1.1651488e-10	0.027223593	0.027223593	0	99058.695	99058.42	-1.9508027e-05	682475.1	131777.5	-7.254123e-05	131778.89	682474.3	-6.1087354e-05
0	0.58105886	0.58105725	-1.0012998e-10	0.026870122	0.026870122	0	98964.82	98964.555	-1.7185643e-05	682667.5	130813.43	-9.354001e-05	130814.84	682666.7	-6.490532e-05
0	0.58050424	0.58050275	-2.3667085e-10	0.026516465	0.026516465	0	98870.375	98870.1	-4.3196345e-05	682859.7	129844.9	-0.00020044288	129846.305	682858.94	-0.00018135308
0	0.5799466	0.579945	-2.4031194e-10	0.026162991	0.026162991	0	98775.38	98775.12	-3.9016053e-05	683051.4	128872.49	-0.00014508246	128873.92	683050.56	-0.00018135308
0	0.5793846	0.5793831	-2.184654e-10	0.025809323	0.025809323	0	98679.68	98679.39	-3.2977852e-05	683243	127894.02	-0.00015462737	127895.48	683242.2	-0.00016799022
0	0.5788202	0.5788187	-1.8023395e-10	0.025455913	0.025455913	0	98583.54	98583.27	-2.9262039e-05	683433.94	126912.92	-0.00016608124	126914.39	683433.1	-0.00010213042
0	0.5782519	0.5782503	-6.371908e-11	0.025102258	0.025102258	0	98486.75	98486.48	-1.1147444e-05	683624.4	125926.8	-0.00012026573	125928.266	683623.5	6.585981e-05
0	0.57768047	0.57767886	5.461635e-12	0.024748772	0.024748772	0	98389.414	98389.14	0	683814.56	124936.55	-1.5271838e-05	124938.02	683813.75	0
0	0.5771049	0.5771033	-1.8205451e-10	0.02439513	0.024395132	0	98291.414	98291.14	-3.2513377e-05	684004.5	123941.03	-0.00013171961	123942.516	684003.6	-0.00016703573
0	0.5765264	0.5765248	-7.2821804e-11	0.024041649	0.024041649	0	98192.875	98192.586	-1.7185643e-05	684193.6	122941.84	-0.00011453879	122943.33	684192.8	-4.3906537e-05
0	0.57594377	0.57594216	-4.1872537e-11	0.023688165	0.023688165	0	98093.63	98093.36	-3.7158145e-06	684382.56	121937.164	-4.1997555e-05	121938.664	684381.9	-1.9089799e-05
0	0.5753577	0.5753561	-1.4564361e-10	0.023334505	0.023334505	0	97993.82	97993.55	-2.4617271e-05	684571.1	120928.24	-0.00013744655	120929.74	684570.3	-8.876756e-05
0	0.57476836	0.57476676	-1.2197651e-10	0.022981014	0.022981014	0	97893.445	97893.164	-1.8114595e-05	684758.9	119915.375	-7.254123e-05	119916.91	684758.1	-0.00011262981
0	0.5741753	0.5741736	-1.2106624e-10	0.022627387	0.022627387	0	97792.44	97792.16	-1.8579072e-05	684946.1	118897.766	-8.017715e-05	118899.305	684945.4	-6.8723275e-05
0	0.5735778	0.57357615	-1.4200251e-10	0.022273887	0.022273887	0	97690.67	97690.375	-1.9508027e-05	685133.44	117873.984	-8.7813074e-05	117875.53	685132.6	-6.68143e-05
0	0.5729773	0.57297564	-5.461635e-11	0.021920247	0.021920247	0	97588.4	97588.11	-4.1802914e-06	685319.8	116846.97	-2.6725718e-05	116848.52	685319	-3.8179596e-06
0	0.572372	0.5723703	-4.369308e-11	0.021566823	0.021566823	0	97485.3	97485.01	-7.896106e-06	685505.94	115813.305	-3.6270616e-05	115814.85	685505.1	1.622633e-05
0	0.5717642	0.5717625	-2.284784e-10	0.021213183	0.021213183	0	97381.766	97381.484	-3.20489e-05	685691.25	114776.99	-0.00015462737	114778.56	685690.5	-0.00011453879
0	0.57115185	0.5711501	-1.5747714e-10	0.020859683	0.020859683	0	97277.49	97277.195	-2.9262039e-05	685876.4	113734.625	-0.00013171961	113736.22	685875.56	-0.00011072083
0	0.5705359	0.57053417	-2.521455e-10	0.020506073	0.020506073	0	97172.58	97172.29	-4.3196345e-05	686060.6	112688.02	-0.00022335064	112689.61	686059.9	-0.00015271839
0	0.5699158	0.56991404	-1.8933669e-10	0.020152565	0.020152565	0	97066.95	97066.68	-2.8797562e-05	686244.5	111635.97	-0.00015653635	111637.58	686243.75	-8.5904096e-05
0	0.5692918	0.5692901	-1.5292578e-10	0.019798942	0.019798942	0	96960.695	96960.4	-2.5081748e-05	686427.7	110579.25	-0.00012217471	110580.87	686426.9	-8.494961e-05
0	0.56866276	0.56866103	-8.738616e-11	0.019445425	0.019445423	0	96853.54	96853.25	-1.3934305e-05	686610.75	109515.414	-4.9633476e-05	109517.04	686610	-4.6770005e-05
0	0.5680309	0.5680292	-9.5578614e-11	0.019091904	0.019091904	0	96745.93	96745.64	-6.502675e-06	686792.8	108448.91	-7.445021e-05	108450.555	686792.06	-3.245266e-05
0	0.56739527	0.56739354	-1.3654088e-10	0.018738285	0.018738285	0	96637.69	96637.38	-2.2294887e-05	686974.1	107377.61	-9.926695e-05	107379.27	686973.4	-5.9178376e-05
0	0.5667552	0.5667534	-7.2821804e-11	0.018384775	0.018384775	0	96528.65	96528.35	-1.6721166e-05	687155.06	106300.414	-0.00011453879	106302.07	687154.4	4.7724498e-06
0	0.5661105	0.5661087	-1.092327e-10	0.018031167	0.018031167	0	96418.84	96418.55	-2.1365933e-05	687335.44	105217.56	-0.00013553757	105219.23	687334.7	-4.3906537e-05
0	0.5654615	0.5654597	-1.1833542e-10	0.017677734	0.017677734	0	96308.305	96308.016	-2.0436979e-05	687515.2	104129.22	-6.68143e-05	104130.88	687514.44	-0.00011262981
0	0.56480896	0.5648072	-2.384914e-10	0.017324131	0.017324131	0	96197.17	96196.875	-3.8551574e-05	687694	103036.91	-0.00019662493	103038.58	687693.25	-0.00016512675
0	0.5641517	0.56415	-1.6020796e-10	0.016970593	0.016970593	0	96085.24	96084.94	-3.20489e-05	687872.3	101938.46	-0.00017180819	101940.15	687871.5	-8.113164e-05
0	0.5634903	0.5634885	-7.737316e-11	0.016617026	0.016617026	0	95972.586	95972.28	-1.2540874e-05	688049.9	100834.86	-9.354001e-05	100836.555	688049.06	-3.7225105e-05
0	0.56282425	0.56282246	-1.4746415e-10	0.016263481	0.016263481	0	95859.14	95858.84	-1.9972504e-05	688226.9	99725.28	-0.00016417226	99727	688226.1	-1.3362859e-05
0	0.5621541	0.5621524	-2.0117023e-10	0.015909899	0.015909899	0	95745.016	95744.72	-3.344233e-05	688403	98611.086	-0.00019089799	98612.805	688402.25	-9.6403484e-05
0	0.561479	0.56147724	-1.0468134e-10	0.015556337	0.015556337	0	95630.02	95629.73	-1.6721166e-05	688578.7	97490.2	-9.735797e-05	97491.93	688577.94	-5.9178376e-05
0	0.5607999	0.56079817	-1.4018196e-10	0.015202773	0.015202773	0	95514.36	95514.06	-2.2759365e-05	688753.4	96364.78	-0.00013935553	96366.516	688752.7	-3.340715e-05
0	0.5601154	0.5601136	-8.738616e-11	0.014849202	0.014849202	0	95397.77	95397.47	-9.754013e-06	688927.9	95231.89	-0.00011262981	95233.63	688927.1	-1.3362859e-05
0	0.55942726	0.55942553	-2.0025995e-11	0.014495661	0.014495661	0	95280.586	95280.28	-5.573722e-06	689100.7	94095.75	-8.208613e-05	94097.51	689099.94	3.8179598e-05
0	0.5587334	0.5587316	-3.4590355e-11	0.014142098	0.014142098	0	95162.4	95162.09	-1.2076397e-05	689273.44	92951.66	-8.972205e-05	92953.42	689272.6	2.6725718e-05
0	0.55803645	0.5580346	-7.8283435e-11	0.013788636	0.013788636	0	95043.69	95043.39	-1.5792211e-05	689444.8	91804.38	-0.00014699144	91806.164	689444.06	2.4816738e-05
0	0.5573338	0.55733204	-9.6488886e-11	0.013435061	0.013435061	0	94924.04	94923.73	-1.7650118e-05	689615.6	90650.02	-0.00012408369	90651.8	689614.9	-4.7724498e-06
0	0.5566259	0.5566242	-1.2197651e-10	0.013081496	0.013081495	0	94803.44	94803.16	-1.5792211e-05	689786.06	89488.43	-0.00011453879	89490.2	689785.3	-3.1498166e-05
0	0.55591404	0.55591226	-2.0025995e-11	0.012727956	0.012727956	0	94682.21	94681.91	-2.786861e-06	689954.8	88323	-5.9178376e-05	88324.8	689954.1	2.6725718e-05
0	0.5551969	0.55519503	-1.0377107e-10	0.012374386	0.012374386	0	94560.055	94559.76	-2.0436979e-05	690123.06	87150.68	-9.163103e-05	87152.484	690122.4	-3.4361638e-05
0	0.55447483	0.55447304	-2.912872e-11	0.0120208245	0.0120208245	0	94437.09	94436.78	-6.502675e-06	690290.4	85972.57	-0.00012408369	85974.375	690289.7	6.1087354e-05
0	0.5537476	0.55374575	-9.375807e-11	0.0116672525	0.011667252	0	94313.22	94312.91	-1.6256688e-05	690457	84787.8	-0.00015080941	84789.62	690456.2	8.590409e-06
0	0.5530154	0.5530136	0	0.011313694	0.011313694	0	94188.516	94188.21	-2.5546224e-06	690622.44	83597.31	-0.00010690287	83599.14	690621.75	6.585981e-05
0	0.5522783	0.5522764	-1.9661886e-10	0.0109601235	0.0109601235	0	94062.96	94062.664	-3.2977852e-05	690786.94	82400.76	-0.00016608124	82402.59	690786.25	-0.0001135843
0	0.5515351	0.5515333	-1.7795827e-10	0.010606592	0.010606592	0	93936.39	93936.09	-3.1584423e-05	690951.06	81196.234	-0.00018708002	81198.07	690950.44	-5.1542454e-05
0	0.5507879	0.55078614	-1.3107924e-10	0.010253036	0.010253036	0	93809.15	93808.84	-2.6707417e-05	691113.2	79988.086	-0.000188989	79989.92	691112.56	-3.4361638e-05
0	0.5500342	0.5500324	-1.5747714e-10	0.009899471	0.009899471	0	93680.77	93680.47	-2.2527125e-05	691275.2	78770.805	-0.00016417226	78772.65	691274.56	-4.6770005e-05
0	0.5492764	0.5492747	-1.8660587e-10	0.009545952	0.009545953	0	93551.7	93551.41	-2.786861e-05	691435.4	77549.8	-0.00019089799	77551.65	691434.75	-6.9677764e-05
0	0.54851246	0.5485107	-1.8933669e-10	0.009192388	0.009192388	0	93421.6	93421.3	-2.9726516e-05	691594.94	76320.664	-9.5448995e-05	76322.516	691594.4	-0.00011644777
0	0.54774296	0.54774123	-2.07087e-10	0.008838866	0.008838866	0	93290.53	93290.23	-3.7390382e-05	691753.5	75084.9	-0.00014890042	75086.766	691752.8	-0.00018230757
0	0.54696804	0.5469662	-1.2561761e-10	0.008485297	0.008485297	0	93158.54	93158.234	-2.0901456e-05	691910.94	73842.48	-0.00012217471	73844.33	691910.25	-1.3362859e-05
0	0.5461874	0.5461857	-1.10598114e-10	0.008131741	0.008131741	0	93025.59	93025.29	-2.0436979e-05	692067.1	72593.39	-2.2907758e-05	72595.25	692066.5	-0.00014699144
0	0.5454009	0.5453991	-2.2938867e-10	0.0077781687	0.0077781687	0	92891.625	92891.33	-4.064172e-05	692222.56	71336.766	-0.00019089799	71338.65	692221.94	-0.00015844533
0	0.5446095	0.5446076	-5.2795806e-11	0.007424601	0.007424601	0	92756.83	92756.53	-7.431629e-06	692376.1	70075.2	-4.9633476e-05	70077.09	692375.5	6.6814296e-06
0	0.54381126	0.5438095	-1.0968784e-10	0.007071049	0.007071049	0	92620.89	92620.58	-1.9275787e-05	692528.94	68804.88	-0.00012599266	68806.766	692528.4	-2.0521533e-05