# t (s)	mx ()	my ()	mz ()	B_extx (T)	B_exty (T)	B_extz (T)	m_fullx (A/m)	m_fully (A/m)	m_fullz (A/m)	m_full.region1x (A/m)	m_full.region1y (A/m)	m_full.region1z (A/m)	m_full.region2x (A/m)	m_full.region2y (A/m)	m_full.region2z (A/m)
0	0.6575702	0.65845144	-9.186591e-11	0.070710704	0.070710704	0	131311.11	131487.08	-2.0186344e-05	612084.2	309030.88	-0.00026410728	308160.3	613154.94	0.000120066295
0	0.6574892	0.6583716	-3.8642547e-10	0.07056914	0.07056914	0	131294.94	131471.16	-7.5363874e-05	612156.25	308846.2	-0.0003251964	307974.62	613228.4	-0.000208033
0	0.6574033	0.65828824	-2.505307e-10	0.07042789	0.07042789	0	131277.8	131454.5	-4.7057823e-05	612234.1	308649.75	-0.00011646669	307776.16	613308.4	-0.00020681469
0	0.6573157	0.6582029	6.22897e-11	0.0702864	0.0702864	0	131260.28	131437.47	1.5030226e-05	612312.4	308450.4	-8.145043e-06	307574.8	613388.56	0.00012283976
0	0.65723133	0.6581212	-3.6901768e-10	0.07014501	0.07014501	0	131243.47	131421.16	-7.216664e-05	612388.6	308258.03	-0.0002479995	307380.28	613467	-0.00026126864
0	0.6571445	0.6580368	-1.9129578e-10	0.07000352	0.07000352	0	131226.1	131404.28	-3.7313686e-05	612466.56	308060.2	-0.00010426456	307180.4	613546.94	-0.00014687705
0	0.65705734	0.6579523	-1.6985136e-10	0.069862254	0.069862254	0	131208.7	131387.44	-3.6393e-05	612544.8	307861.9	-0.00016524275	306979.84	613627.25	-5.7854635e-05
0	0.6569705	0.6578682	-6.2903055e-10	0.0697207	0.0697207	0	131191.38	131370.62	-0.00012342868	612622.75	307664.34	-0.0003727452	306780.1	613707.4	-0.0004939725
0	0.6568839	0.65778416	-2.9299074e-10	0.06957923	0.06957923	0	131174.08	131353.83	-5.9376624e-05	612700	307467.6	-0.0001786714	306581.2	613786.7	-0.00022135222
0	0.6567958	0.6576986	-1.2807734e-10	0.06943795	0.06943795	0	131156.47	131336.77	-2.5554624e-05	612778.75	307267.34	-3.7770056e-05	306378.72	613867.56	-0.00013061753
0	0.65670836	0.6576138	2.4527097e-10	0.06929643	0.06929643	0	131139.02	131319.83	4.9369366e-05	612856.5	307068.94	0.00010933567	306178.2	613947.56	0.00026966544
0	0.6566207	0.6575288	-4.5117937e-12	0.06915509	0.06915509	0	131121.52	131302.86	6.0131214e-07	612934.5	306870.2	-3.0190957e-05	305977.25	614027.6	4.4295644e-05
0	0.65653294	0.6574435	-3.0182729e-10	0.0690136	0.0690136	0	131103.98	131285.83	-6.0745897e-05	613012.3	306671.3	-0.0002401105	305776.2	614107.56	-0.00017956793
0	0.65644443	0.65735775	-2.502045e-10	0.068872124	0.068872124	0	131086.31	131268.7	-5.1727013e-05	613090.75	306470.88	-0.00010793513	305573.5	614188.1	-0.00024025029
0	0.65635604	0.657272	-1.7348867e-10	0.06873078	0.06873078	0	131068.65	131251.56	-3.7322894e-05	613169	306270.78	-3.4698172e-05	305371.16	614268.6	-0.0002002937
0	0.65626746	0.6571861	-1.20526e-10	0.06858929	0.06858929	0	131050.97	131234.42	-2.4460971e-05	613247.2	306070.4	-5.907215e-05	305168.6	614348.9	-0.00011741083
0	0.6561782	0.6570994	-6.13279e-11	0.06844799	0.06844799	0	131033.16	131217.11	-1.4044575e-05	613325.25	305869.25	-0.00014738183	304965.34	614429.06	3.9864724e-05
0	0.6560896	0.65701336	6.570562e-11	0.0683065	0.0683065	0	131015.45	131199.92	1.53993e-05	613403.25	305669.06	2.1970065e-05	304762.94	614509.25	9.442992e-05
0	0.65599895	0.65692556	-8.774386e-11	0.06816516	0.06816516	0	130997.35	131182.39	-1.9728295e-05	613483.3	305464.12	1.4127619e-05	304555.7	614591.5	-0.00011567303
0	0.6559106	0.65683997	1.10970906e-10	0.068023674	0.068023674	0	130979.73	131165.3	2.2763355e-05	613560.8	305264.97	3.5879206e-05	304354.22	614671.2	0.00013810686
0	0.6558214	0.65675354	5.2434605e-11	0.067882195	0.067882195	0	130961.914	131148.05	8.747062e-06	613638.9	305063.94	-7.0883754e-05	304150.94	614751.4	0.00015734979
0	0.6557309	0.6566655	-3.7723942e-11	0.067740865	0.067740865	0	130943.81	131130.45	-8.116808e-06	613717.7	304860.12	-3.0920517e-05	303945	614832.4	-9.881213e-06
0	0.65564036	0.65657777	-7.128859e-11	0.06759933	0.06759933	0	130925.74	131112.94	-1.2350071e-05	613796.94	304656.2	-2.580125e-05	303738.7	614913.8	-6.7708745e-05
0	0.6555509	0.6564912	-1.1896806e-10	0.06745806	0.06745806	0	130907.9	131095.64	-2.194283e-05	613875	304454.94	-2.6414124e-05	303535.06	614994.1	-0.00011965022
0	0.6554595	0.6564025	-2.8022445e-10	0.06731656	0.06731656	0	130889.63	131077.94	-5.7361074e-05	613954.6	304249.34	-0.00015200101	303327.2	615075.94	-0.00025427938
0	0.6553694	0.6563152	-7.83902e-10	0.06717502	0.06717502	0	130871.63	131060.51	-0.00015915273	614032.94	304046.84	-0.0005627297	303122.34	615156.5	-0.0005669683
0	0.65527815	0.6562267	-1.3339142e-10	0.06703376	0.06703376	0	130853.41	131042.83	-2.3686458e-05	614112.06	303841.94	-6.833239e-05	302915.12	615237.9	-0.00010831086
0	0.6551871	0.6561384	-2.3489802e-10	0.066892266	0.066892266	0	130835.234	131025.21	-4.8833597e-05	614190.9	303637.72	-0.00019430922	302708.6	615318.8	-0.00013862297
0	0.65509576	0.6560499	-2.812096e-10	0.06675089	0.06675089	0	130817.01	131007.52	-5.1889485e-05	614269.56	303433.22	-9.1359245e-05	302501.78	615399.8	-0.00029142684
0	0.65500396	0.655961	-4.9679477e-10	0.066609405	0.066609405	0	130798.664	130989.75	-0.00010007468	614348.8	303227.4	-0.00036127417	302293.62	615481.25	-0.00033242334
0	0.65491295	0.6558725	-9.5665045e-11	0.066468135	0.066468135	0	130780.48	130972.1	-1.8104307e-05	614427.06	303023.6	3.5521973e-07	302087.5	615561.7	-0.00011329453
0	0.65482	0.65578246	-4.3473802e-10	0.066326596	0.066326596	0	130761.94	130954.12	-8.814678e-05	614506.8	302815.78	-0.0003940019	301877.28	615643.75	-0.00021965272
0	0.6547277	0.655693	-3.5413414e-10	0.06618511	0.06618511	0	130743.49	130936.266	-7.492394e-05	614586.3	302609.06	-0.0003248117	301668.12	615725.6	-0.00017784945
0	0.65463555	0.6556037	-2.246235e-10	0.06604383	0.06604383	0	130725.09	130918.414	-4.4951317e-05	614665.06	302403.3	-6.5542765e-05	301460.03	615806.6	-0.00023810564
0	0.65454245	0.6555134	-2.69441e-10	0.06590228	0.06590228	0	130706.484	130900.39	-5.46168e-05	614744.75	302195.38	-0.000119160024	301249.7	615888.5	-0.000259152
0	0.65444934	0.6554232	-7.8511475e-11	0.065760985	0.065760985	0	130687.92	130882.4	-2.0819403e-05	614824.3	301987.72	-0.00010354328	301039.62	615970.3	-2.124996e-05
0	0.6543565	0.6553333	-6.579487e-12	0.065619476	0.065619476	0	130669.375	130864.42	-1.4009973e-06	614903.4	301780.72	-4.4414195e-05	300830.22	616051.6	2.1701484e-05
0	0.6542625	0.6552422	-2.5780508e-10	0.065478206	0.065478206	0	130650.59	130846.234	-4.8888847e-05	614983.5	301571.1	-0.00015606881	300618.1	616134.1	-0.00018244488
0	0.6541695	0.6551521	-4.0415796e-10	0.065336674	0.065336674	0	130632.03	130828.24	-7.985868e-05	615062.4	301364.12	-0.0002894713	300408.75	616215.3	-0.00028589647
0	0.6540753	0.65506065	-3.6918854e-10	0.06519518	0.06519518	0	130613.21	130810	-7.050443e-05	615142.25	301154.4	-0.00024649184	300196.56	616297.44	-0.00025040607
0	0.6539817	0.65497005	-1.14684776e-10	0.0650539	0.0650539	0	130594.516	130791.88	-2.32396e-05	615221.5	300946.16	-0.00010871801	299985.9	616379.06	-6.70929e-05
0	0.65388715	0.6548784	-3.6511735e-11	0.06491235	0.06491235	0	130575.65	130773.586	-5.740026e-06	615301.2	300736.28	6.35039e-06	299773.6	616460.9	-5.3320095e-05
0	0.65379226	0.65478647	-1.0755245e-10	0.064771056	0.064771056	0	130556.7	130755.22	-2.103557e-05	615381.1	300525.62	-6.6056506e-05	299560.47	616543.2	-6.0323426e-05
0	0.65369755	0.6546947	-2.0669905e-10	0.06462957	0.06462957	0	130537.78	130736.9	-4.0059917e-05	615461.06	300315.25	-0.00015336744	299347.62	616625.44	-0.000101256235
0	0.6536031	0.65460324	-4.5189763e-10	0.064488046	0.064488046	0	130518.93	130718.64	-8.882575e-05	615540.5	300105.78	-0.0003593437	299135.62	616707.25	-0.0002645921
0	0.6535075	0.6545103	-1.32255075e-11	0.06434676	0.06434676	0	130499.81	130700.09	-4.6101604e-06	615620.25	299894.16	-4.6524776e-05	298921.6	616789.2	2.4992638e-05
0	0.6534117	0.6544176	6.260737e-11	0.06420526	0.06420526	0	130480.69	130681.58	1.6518461e-05	615700.7	299681.7	7.0730224e-05	298706.6	616872.1	5.3091193e-05
0	0.6533166	0.6543256	-3.0097697e-10	0.06406394	0.06406394	0	130461.71	130663.2	-6.312254e-05	615780.44	299471.16	-0.0002917059	298493.44	616954.25	-0.00013745707
0	0.653219	0.6542311	-3.2501038e-10	0.06392242	0.06392242	0	130442.2	130644.32	-6.520355e-05	615861.94	299255.25	-0.00015587328	298274.97	617038.1	-0.0003071674
0	0.6531246	0.65413964	7.014538e-11	0.063781135	0.063781135	0	130423.37	130626.055	1.6246511e-05	615940.44	299046.78	5.2849653e-05	298064.06	617119	8.585799e-05
0	0.65302765	0.65404576	-7.743937e-11	0.06363964	0.06363964	0	130404.01	130607.31	-1.4200775e-05	616021.06	298832.62	-2.0744827e-05	297847.38	617201.9	-6.465906e-05
0	0.65293145	0.6539525	-4.7430765e-10	0.06349811	0.06349811	0	130384.8	130588.695	-9.429704e-05	616100.9	298620.28	-0.00032935766	297632.44	617284.06	-0.00034701507
0	0.6528343	0.65385824	-2.744529e-10	0.06335685	0.06335685	0	130365.39	130569.89	-5.489318e-05	616181.25	298406.1	-0.00017036052	297415.72	617366.8	-0.00023082679
0	0.65273774	0.6537649	-7.280153e-11	0.06321528	0.06321528	0	130346.11	130551.24	-1.6206015e-05	616261.44	298193.03	-1.6400649e-05	297200.06	617449.4	-8.1620165e-05
0	0.65264004	0.6536702	-3.519498e-11	0.063074	0.063074	0	130326.6	130532.33	-9.26642e-06	616342	297977.8	1.9427205e-05	296982.25	617532.4	-6.600103e-05
0	0.6525421	0.6535755	-5.6950916e-10	0.0629325	0.0629325	0	130307.055	130513.4	-0.000115226496	616422.6	297762.44	-0.00038487115	296764.25	617615.5	-0.0004146236
0	0.6524452	0.6534818	-2.0833071e-10	0.06279099	0.06279099	0	130287.7	130494.69	-4.381981e-05	616502.75	297549	-0.00015207256	296548.1	617698.06	-0.00013463073
0	0.65234685	0.6533864	-5.840509e-11	0.06264971	0.06264971	0	130268.06	130475.65	-1.2853904e-05	616583.4	297332.9	3.695794e-05	296329.4	617781	-0.00011683947
0	0.65224785	0.6532906	-1.9288635e-10	0.0625082	0.0625082	0	130248.29	130456.53	-3.672396e-05	616664.8	297115.28	-0.00025930052	296109.03	617865	2.4714918e-05
0	0.6521482	0.65319395	-3.3575634e-10	0.062366873	0.062366873	0	130228.39	130437.22	-7.028106e-05	616745.6	296897.12	-0.00026299217	295888.44	617948	-0.00022751985
0	0.6520519	0.6531009	-3.4981082e-10	0.062225346	0.062225346	0	130209.14	130418.65	-6.834829e-05	616825.06	296685.3	-0.00016049681	295673.84	618030.06	-0.0003207665
0	0.6519519	0.653004	-2.5245045e-10	0.062084075	0.062084075	0	130189.195	130399.29	-5.0323517e-05	616906.2	296466.44	-3.4207114e-05	295452.38	618113.56	-0.00031886305
0	0.6518529	0.65290815	-1.7128189e-10	0.06194257	0.06194257	0	130169.414	130380.14	-3.1029314e-05	616987.06	296249.2	-0.00014360326	295232.38	618197	-8.849491e-05
0	0.6517534	0.65281194	-3.7623016e-10	0.061801057	0.061801057	0	130149.54	130360.94	-7.647709e-05	617068.3	296031.2	-0.00030240908	295011.6	618280.7	-0.00023087116
0	0.65165454	0.65271646	-1.539512e-10	0.061659787	0.061659787	0	130129.82	130341.875	-3.178971e-05	617148.44	295815.06	-0.000121593104	294792.78	618363.3	-7.97926e-05
0	0.65155333	0.65261817	-2.420062e-10	0.061518222	0.061518222	0	130109.59	130322.25	-4.5809054e-05	617230.06	295593.9	-0.00016465932	294569	618447.25	-0.00016574902
0	0.651454	0.65252227	-2.7731978e-10	0.061376926	0.061376926	0	130089.766	130303.09	-5.3778287e-05	617310.9	295376.62	-8.916049e-05	294348.78	618530.7	-0.00029075687
0	0.65135354	0.6524251	-2.7894503e-10	0.061235435	0.061235435	0	130069.7	130283.69	-5.5091372e-05	617392	295157.28	-0.00019468344	294126.72	618614.4	-0.00018775201
0	0.65125304	0.65232784	-1.3046439e-10	0.06109393	0.06109393	0	130049.63	130264.24	-2.553807e-05	617472.9	294938	-4.390889e-05	293904.78	618697.7	-0.00012564416
0	0.65115225	0.6522303	-2.7063776e-10	0.06095266	0.06095266	0	130029.52	130244.766	-5.5549197e-05	617553.75	294718.38	-0.00011791887	293682.34	618781.1	-0.00025788363
0	0.6510508	0.652132	-2.7395858e-10	0.060811136	0.060811136	0	130009.24	130225.16	-5.2528187e-05	617635.44	294497.06	-0.00015550964	293458.25	618865.25	-0.00019125805
0	0.6509494	0.6520339	-2.2294232e-10	0.060669802	0.060669802	0	129989	130205.586	-4.145848e-05	617716.7	294276.34	-5.950497e-05	293234.78	618949.06	-0.00022960825
0	0.65084726	0.651935	-6.238245e-10	0.060528312	0.060528312	0	129968.61	130185.81	-0.00012339083	617797.9	294054.53	-0.00044315972	293010.28	619032.6	-0.00044200238
0	0.650746	0.6518371	-4.3178047e-10	0.060387015	0.060387015	0	129948.375	130166.27	-8.535418e-05	617879.25	293833.97	-0.0002628803	292786.75	619116.56	-0.00033601827
0	0.6506444	0.6517388	-1.063996e-10	0.06024551	0.06024551	0	129928.09	130146.65	-2.142117e-05	617960.1	293613.28	-2.1001379e-05	292563.28	619200.06	-9.5547555e-05
0	0.6505401	0.6516379	-2.3312421e-10	0.06010401	0.06010401	0	129907.27	130126.484	-4.1735628e-05	618042.9	293386.94	-0.0001573192	292334.12	619285.4	-0.00014627317
0	0.6504389	0.65154004	-3.713735e-10	0.059962716	0.059962716	0	129887.055	130106.945	-7.066473e-05	618123.5	293167.1	-0.0002911105	292111.44	619368.56	-0.00021797197
0	0.65033656	0.65144116	1.1207371e-10	0.059821162	0.059821162	0	129866.64	130087.19	2.4521865e-05	618204.5	292945.44	0.00012823787	291886.88	619452.1	6.2391126e-05
0	0.6502325	0.65134025	-2.6465777e-10	0.059679877	0.059679877	0	129845.85	130067.05	-5.316857e-05	618286.44	292720.16	-0.000115346775	291658.9	619536.56	-0.00028067277
0	0.6501297	0.6512409	-2.547158e-10	0.059538364	0.059538364	0	129825.305	130047.2	-5.0889535e-05	618368.1	292497.12	-0.00016394095	291432.88	619620.75	-0.0001896262
0	0.65002495	0.6511396	-4.524193e-10	0.059396874	0.059396874	0	129804.39	130026.98	-9.139236e-05	618450.6	292270.53	-0.00034248945	291203.4	619705.9	-0.0003139993
0	0.6499222	0.65104014	-3.8869755e-10	0.05925559	0.05925559	0	129783.875	130007.11	-7.6497534e-05	618531.4	292048.38	-0.00035034335	290978.4	619789.25	-0.00017826594
0	0.6498177	0.6509389	-3.203575e-10	0.05911408	0.05911408	0	129763.02	129986.914	-6.911379e-05	618613	291823.03	-0.00016966694	290750.25	619873.4	-0.00029507364
0	0.64971316	0.6508378	-3.6843734e-10	0.05897274	0.05897274	0	129742.125	129966.72	-7.074508e-05	618695.06	291597.1	-0.00031519035	290521.38	619958	-0.00019894812
0	0.6496088	0.6507372	-4.869605e-10	0.05883124	0.05883124	0	129721.3	129946.62	-9.83024e-05	618777.3	291371.53	-0.00023835586	290292.66	620043.06	-0.00045636037
0	0.649504	0.6506359	-4.601154e-10	0.05868994	0.05868994	0	129700.375	129926.38	-8.922212e-05	618859.2	291145.53	-0.00034130568	290063.75	620127.56	-0.00029015963
0	0.6493987	0.6505339	-4.45535e-10	0.058548454	0.058548454	0	129679.35	129906.04	-8.930301e-05	618941.1	290918.75	-0.00026978948	289834.03	620212.06	-0.00034875568
0	0.6492937	0.65043247	-4.3707532e-10	0.058406953	0.058406953	0	129658.38	129885.766	-8.569593e-05	619022.75	290692.7	-0.00022947114	289605.03	620296.3	-0.00037460067
0	0.6491879	0.6503301	-1.3893799e-10	0.05826566	0.05826566	0	129637.24	129865.336	-2.6409753e-05	619105	290464.9	-0.00010589527	289374.16	620381.3	-5.2136013e-05
0	0.64908165	0.65022737	-3.3653938e-10	0.05812409	0.05812409	0	129616.03	129844.84	-7.164237e-05	619187.56	290236.3	-0.00019914498	289142.56	620466.5	-0.00026259196
0	0.6489755	0.65012485	-1.6279239e-10	0.057982814	0.057982814	0	129594.83	129824.35	-3.3356457e-05	619269.8	290008.2	-0.00016009457	288911.3	620551.44	-7.219728e-05
0	0.6488694	0.65002227	-1.0788036e-10	0.05784131	0.05784131	0	129573.66	129803.87	-2.2059541e-05	619351.7	289780.53	-4.3490458e-05	288680.72	620635.8	-8.626138e-05
0	0.6487631	0.64991957	-2.490024e-10	0.057699807	0.057699807	0	129552.414	129783.34	-5.2929954e-05	619433.5	289552.4	-0.00018717944	288449.66	620720.4	-0.00015059287
0	0.6486553	0.64981496	-6.316176e-11	0.05755853	0.05755853	0	129530.875	129762.46	-1.6253847e-05	619516	289321.4	-0.00012656779	288215.78	620805.4	4.8250953e-05
0	0.64854753	0.649711	-1.696679e-10	0.057417024	0.057417024	0	129509.36	129741.71	-3.13214e-05	619599.4	289090.06	-0.00011110116	287981.16	620891.6	-0.00010517735
0	0.64844096	0.6496081	-2.1315054e-10	0.057275668	0.057275668	0	129488.09	129721.14	-4.1156007e-05	619680.94	288862.03	-8.0464146e-05	287750.1	620975.75	-0.00021337828
0	0.6483336	0.64950436	-2.0286059e-10	0.05713418	0.05713418	0	129466.66	129700.44	-4.287414e-05	619763.06	288632.28	-0.00012422586	287517.28	621060.7	-0.00015755948
0	0.64822495	0.64939934	-2.0610912e-10	0.056992885	0.056992885	0	129444.96	129679.47	-4.2471034e-05	619846.2	288399.8	-0.00015129574	287281.7	621146.56	-0.00014758337
0	0.6481174	0.6492955	-1.9470242e-10	0.056851383	0.056851383	0	129423.49	129658.734	-4.189522e-05	619928.2	288170.12	-0.00016699304	287048.8	621231.2	-0.00012533703
0	0.6480082	0.6491896	-4.0055326e-10	0.056709897	0.056709897	0	129401.67	129637.59	-7.808216e-05	620010.6	287937.22	-0.00019719823	286813.03	621316.25	-0.00033695347
0	0.6478983	0.6490837	-1.597696e-10	0.0565686	0.0565686	0	129379.73	129616.42	-2.7256972e-05	620094.8	287702.22	-3.8449645e-05	286574.66	621403.3	-0.00016422835
0	0.64779073	0.6489798	-2.6049882e-10	0.056427035	0.056427035	0	129358.234	129595.69	-5.1398005e-05	620176.44	287472.72	-0.00018063083	286342	621487.7	-0.00016031835
0	0.64768094	0.6488736	-3.702179e-10	0.056285743	0.056285743	0	129336.33	129574.49	-7.360604e-05	620259.44	287238.94	-0.00029806624	286105	621573.4	-0.00023179041
0	0.64757127	0.6487677	-3.1566041e-10	0.05614425	0.05614425	0	129314.414	129553.336	-6.31014e-05	620342.3	287005.25	-0.00018667732	285868.2	621659.06	-0.00024387523
0	0.6474623	0.6486624	-3.7770218e-10	0.05600275	0.05600275	0	129292.66	129532.31	-7.908849e-05	620424.44	286773.3	-0.0002854825	285633.06	621743.94	-0.00023659471
0	0.64735126	0.6485551	-2.4541072e-10	0.05586146	0.05586146	0	129270.47	129510.87	-4.9563914e-05	620507.94	286537.2	-0.00019786564	285393.72	621830.1	-0.00014630276
0	0.64724106	0.64844877	-4.4546683e-10	0.055719968	0.055719968	0	129248.48	129489.64	-8.706193e-05	620590.94	286303	-0.00022573987	285156.25	621915.9	-0.00040434388
0	0.64713097	0.6483424	-2.0812177e-10	0.055578675	0.055578675	0	129226.48	129468.4	-4.6631852e-05	620673.25	286069.2	-0.00015606351	284919.28	622001.06	-0.00013587612
0	0.64701766	0.64823276	-2.6414393e-10	0.055437125	0.055437125	0	129203.875	129446.52	-5.4240605e-05	620758	285828.75	-0.00019047484	284675.62	622088.56	-0.00017206238
0	0.6469083	0.64812714	-4.1741166e-10	0.05529581	0.05529581	0	129182.03	129425.42	-8.486648e-05	620839.56	285596.9	-0.00031638873	284440.6	622172.8	-0.0002589067
0	0.6467952	0.6480179	-2.269907e-10	0.055154327	0.055154327	0	129159.42	129403.6	-4.6941557e-05	620923.9	285357.12	-0.0001535621	284197.44	622260.06	-0.0001661592
0	0.64668536	0.64791185	-3.9920647e-10	0.055012826	0.055012826	0	129137.52	129382.44	-7.623525e-05	621005.44	285124.75	-0.00016613815	283961.84	622344.4	-0.00036957825
0	0.64657104	0.6478014	-2.8607966e-10	0.05487153	0.05487153	0	129114.67	129360.37	-5.7851314e-05	621090.5	284882.5	-0.00016219486	283716.28	622432.3	-0.00027460442
0	0.64646035	0.6476946	-2.4926072e-10	0.054730047	0.054730047	0	129092.59	129339.05	-4.8440314e-05	621172.4	284648.66	-0.00014951239	283479.12	622517.06	-0.00019362649
0	0.6463478	0.64758587	-1.3085369e-10	0.054588683	0.054588683	0	129070.1	129317.33	-2.4110786e-05	621255.75	284410.66	-0.000118258526	283237.78	622603.25	-4.240796e-05
0	0.64623564	0.6474776	-6.973934e-10	0.05444718	0.05444718	0	129047.695	129295.7	-0.00013850666	621338.56	284173.72	-0.0004951211	282997.53	622688.9	-0.00050004997
0	0.646122	0.64736784	-3.9166742e-10	0.0543059	0.0543059	0	129025.016	129273.805	-8.183302e-05	621422.2	283934.03	-0.00032562227	282754.44	622775.4	-0.00025079172
0	0.64600676	0.6472565	-2.357616e-10	0.054164402	0.054164402	0	129001.984	129251.56	-4.70125e-05	621507.06	283690.78	-0.00017158012	282507.8	622863.1	-0.00014652789
0	0.6458948	0.64714867	-2.391519e-10	0.054022897	0.054022897	0	128979.65	129230.016	-4.997872e-05	621589.2	283455.03	-0.00014578951	282268.66	622948.1	-0.00019560262
0	0.64577913	0.6470368	-2.4030164e-10	0.053881615	0.053881615	0	128956.55	129207.695	-4.7920403e-05	621673.75	283211.5	-0.00018527612	282021.75	623035.56	-0.00014761616
0	0.6456663	0.646928	-3.3573516e-10	0.053740054	0.053740054	0	128934.016	129185.95	-6.895472e-05	621756.5	282973.84	-0.00018680378	281780.7	623121.2	-0.00028727428
0	0.64555186	0.64681745	-3.0078365e-10	0.05359875	0.05359875	0	128911.17	129163.875	-5.8117497e-05	621839.8	282733.3	-0.00021911417	281536.72	623207.3	-0.00019727525
0	0.6454354	0.6467049	-1.2996423e-10	0.053457268	0.053457268	0	128887.91	129141.42	-2.372001e-05	621924.6	282488.5	-5.131761e-05	281288.47	623295.1	-0.00011159338
0	0.64532226	0.6465957	-2.1885663e-10	0.05331579	0.05331579	0	128865.3	129119.61	-4.4815035e-05	622006.94	282250.78	-0.00019754747	281047.34	623380.25	-0.00011956113
0	0.64520496	0.6464825	-8.192538e-11	0.05317447	0.05317447	0	128841.89	129096.99	-1.736009e-05	622091.8	282004.78	-0.000103775994	280797.88	623468.2	-4.488722e-05
0	0.645091	0.64637256	-9.824992e-11	0.053032987	0.053032987	0	128819.125	129075.055	-2.0407193e-05	622174.5	281765.62	2.9191933e-05	280555.16	623553.75	-0.00016893566
0	0.6449749	0.6462605	-1.669687e-10	0.052891623	0.052891623	0	128795.945	129052.68	-3.3761367e-05	622258.3	281522.34	-0.00012525702	280308.44	623640.56	-0.00010542351
0	0.64485794	0.64614755	-1.8179996e-10	0.05275012	0.05275012	0	128772.59	129030.11	-3.5351335e-05	622342.25	281277.84	-0.00011117364	280060.56	623727.3	-0.00013531923
0	0.6447423	0.6460361	-5.0172844e-10	0.05260882	0.05260882	0	128749.516	129007.86	-9.823879e-05	622425.8	281035.62	-0.00023718075	279814.66	623813.9	-0.00044767617
0	0.644625	0.6459228	-3.8816142e-10	0.052467342	0.052467342	0	128726.08	128985.23	-7.744958e-05	622509.7	280790.53	-0.00027523644	279566.2	623900.7	-0.00026286553
0	0.6445074	0.6458092	-8.933404e-11	0.05232584	0.05232584	0	128702.586	128962.54	-1.7961745e-05	622593.9	280544.8	-8.339185e-05	279317	623987.7	-5.5740013e-05
0	0.64439034	0.64569634	-2.8807232e-10	0.052184545	0.052184545	0	128679.23	128940.01	-6.0229908e-05	622677.9	280300.2	-0.00014799915	279068.7	624074.8	-0.00026206163
0	0.6442728	0.6455831	-2.3424057e-10	0.052042995	0.052042995	0	128655.734	128917.39	-4.612848e-05	622762.06	280054.75	-0.0001794889	278819.53	624162	-0.00014190898
0	0.64415467	0.645469	-5.6828187e-10	0.051901676	0.051901676	0	128632.15	128894.61	-0.00011102193	622846.1	279808.4	-0.00043103818	278569.72	624249.06	-0.00038483893
0	0.6440363	0.64535475	-7.680191e-11	0.051760197	0.051760197	0	128608.52	128871.79	-1.4084621e-05	622930.06	279562.03	-8.8930894e-05	278319.78	624335.9	-1.08998065e-05
0	0.6439173	0.6452399	-9.1871774e-11	0.051618718	0.051618718	0	128584.76	128848.86	-1.8658928e-05	623014.4	279314.25	-8.730785e-05	278068.38	624423.25	-2.4465884e-05
0	0.6437988	0.6451256	-1.10504245e-10	0.05147742	0.05147742	0	128561.086	128826.04	-2.3839162e-05	623098.44	279067.7	-3.9574636e-05	277818.2	624510.2	-0.00011110449
0	0.64368	0.64501095	-1.8992158e-10	0.05133593	0.05133593	0	128537.35	128803.14	-3.8572038e-05	623182.4	278820.56	-0.00011248187	277567.38	624597.2	-0.00014071245
0	0.6435598	0.6448952	-3.025155e-10	0.051194552	0.051194552	0	128513.375	128780.02	-6.2488936e-05	623267.4	278570.62	-0.00019650806	277313.7	624685.44	-0.00022817562
0	0.6434403	0.64478	-2.374956e-10	0.051053073	0.051053073	0	128489.51	128757.02	-4.857215e-05	623351.56	278322.5	-0.00019274437	277061.78	624772.7	-0.00015447417
0	0.6433203	0.644664	-2.1452175e-10	0.05091175	0.05091175	0	128465.54	128733.87	-4.2092164e-05	623435.7	278073.62	-0.00016593396	276809.3	624859.7	-0.0001396776
0	0.6431999	0.6445478	-3.411778e-10	0.05077028	0.05077028	0	128441.51	128710.67	-7.00285e-05	623519.9	277824.2	-0.00030963204	276556.25	624946.9	-0.00019120525
0	0.64307904	0.6444314	-2.3406335e-10	0.050628807	0.050628807	0	128417.36	128687.41	-4.753007e-05	623604.7	277573.47	-0.00021072425	276301.72	625034.9	-0.00011108667
0	0.6429579	0.64431465	-3.5240896e-10	0.050487485	0.050487485	0	128393.18	128664.086	-6.935784e-05	623689.4	277322.75	-0.00022318878	276047.22	625122.6	-0.00026684892
0	0.64283705	0.64419794	-2.6729924e-10	0.05034594	0.05034594	0	128369.03	128640.8	-5.1010782e-05	623773.56	277072.56	-0.00017323818	275793.3	625209.8	-0.00016172818
0	0.6427152	0.6440805	-1.9055049e-10	0.050204627	0.050204627	0	128344.71	128617.35	-3.794333e-05	623858.2	276820.62	-0.00019602814	275537.62	625297.6	-6.499326e-05
0	0.6425932	0.6439628	-4.6026993e-10	0.050063137	0.050063137	0	128320.34	128593.84	-9.039172e-05	623942.75	276568.78	-0.00035110506	275281.97	625385.25	-0.00029559818
0	0.6424711	0.643845	-2.1817337e-10	0.049921665	0.049921665	0	128295.945	128570.32	-4.1542156e-05	624027.44	276316.44	-0.0002132826	275025.88	625473.06	-9.885545e-05
0	0.6423484	0.6437268	-2.687329e-10	0.04978036	0.04978036	0	128271.45	128546.72	-5.2298816e-05	624112.4	276063.3	-0.00016306051	274768.8	625561.06	-0.00020652796
0	0.64222556	0.64360845	-3.5328182e-10	0.049638864	0.049638864	0	128246.945	128523.08	-6.997277e-05	624196.9	275810.25	-0.00028508247	274511.9	625648.8	-0.00020604569
0	0.64210117	0.6434886	-5.796667e-10	0.049497493	0.049497493	0	128222.09	128499.16	-0.000114733055	624282.94	275553.66	-0.0004586471	274251.34	625737.94	-0.00035630606
0	0.6419792	0.64337116	-1.836698e-10	0.049356014	0.049356014	0	128197.73	128475.68	-3.4919034e-05	624366.75	275302.56	-9.4003146e-05	273996.34	625825	-0.00014635504
0	0.6418551	0.6432513	-2.6471952e-10	0.049214687	0.049214687	0	128172.95	128451.76	-5.1035528e-05	624451.4	275047.56	-0.00024983456	273737.6	625912.6	-0.00014071946
0	0.6417315	0.6431322	-2.7804684e-10	0.049073216	0.049073216	0	128148.26	128427.98	-5.485875e-05	624536.25	274793.12	-0.00016391231	273479.22	626000.75	-0.00022563915
0	0.6416074	0.6430126	-2.6314012e-10	0.04893174	0.04893174	0	128123.47	128404.08	-5.4292705e-05	624620.8	274538.3	-0.00021239312	273220.6	626088.4	-0.00016329749
0	0.64148206	0.64289176	-2.1294148e-10	0.04879043	0.04879043	0	128098.445	128379.97	-4.346277e-05	624706.5	274280.75	-7.075254e-05	272958.9	626177.44	-0.00023996404
0	0.641357	0.64277136	-1.9299246e-10	0.048648868	0.048648868	0	128073.48	128355.914	-3.489092e-05	624791.6	274024.16	-0.00010304191	272698.3	626265.7	-0.00014458646
0	0.64123166	0.6426506	-3.3853748e-10	0.048507564	0.048507564	0	128048.45	128331.8	-6.5864384e-05	624876.7	273767.22	-0.00014677529	272437.38	626354.06	-0.0003063368
0	0.6411069	0.6425303	-8.509036e-11	0.04836608	0.04836608	0	128023.54	128307.78	-1.7220187e-05	624961	273511.78	-0.00012866144	272178	626441.44	3.864872e-05
0	0.64098	0.642408	-4.926892e-11	0.048224606	0.048224606	0	127998.2	128283.36	-1.0482917e-05	625046.9	273251.97	-6.482063e-05	271914.2	626530.5	6.9948437e-06
0	0.64085424	0.64228696	-1.9688863e-10	0.04808329	0.04808329	0	127973.086	128259.18	-3.7585953e-05	625131.7	272994.78	-0.00020520983	271652.9	626618.6	-5.7899884e-05
0	0.6407274	0.6421646	-3.0739672e-10	0.047941808	0.047941808	0	127947.75	128234.76	-6.363713e-05	625216.8	272735.5	-0.00018235491	271389.7	626706.94	-0.0002486691
0	0.6405993	0.6420413	-3.9466566e-10	0.047800418	0.047800418	0	127922.19	128210.13	-7.905904e-05	625303.1	272473.75	-0.00030732687	271123.75	626796.5	-0.00025015164
0	0.64047384	0.6419204	-2.0483963e-10	0.047658958	0.047658958	0	127897.125	128185.99	-4.163571e-05	625387	272217.7	-6.583499e-05	270863.72	626883.7	-0.00018652785
0	0.64034534	0.6417965	-2.6879693e-10	0.047517624	0.047517624	0	127871.47	128161.25	-5.4656684e-05	625472.9	271955.62	-0.00019672146	270597.56	626972.75	-0.00017255191
0	0.64021796	0.64167404	-3.872235e-10	0.047376156	0.047376156	0	127846.05	128136.78	-7.692251e-05	625558.1	271695.9	-0.00029849852	270333.7	627061.25	-0.00024704463
0	0.64008945	0.64155024	-2.5699998e-10	0.047234684	0.047234684	0	127820.36	128112.06	-5.2930205e-05	625643.7	271434.12	-0.00024189375	270067.72	627150.2	-0.000120931254
0	0.6399615	0.6414269	-1.0461402e-10	0.047093358	0.047093358	0	127794.805	128087.43	-2.4252355e-05	625728.75	271173.56	-6.885501e-05	269803.03	627238.44	-7.483017e-05
0	0.6398328	0.6413028	-2.510859e-10	0.04695181	0.04695181	0	127769.1	128062.664	-4.886376e-05	625813.94	270911.9	-0.00020025104	269537.28	627326.94	-0.00015719698
0	0.63970315	0.6411779	-2.8222188e-10	0.046810493	0.046810493	0	127743.23	128037.72	-5.6105288e-05	625899.56	270648.53	-0.00022690074	269269.78	627415.8	-0.00017013587
0	0.6395739	0.64105344	6.087648e-11	0.046669014	0.046669014	0	127717.39	128012.875	8.132321e-06	625985.2	270385.62	6.501737e-05	269002.6	627504.9	2.5499456e-05
0	0.6394441	0.6409285	-7.06536e-11	0.046527706	0.046527706	0	127691.51	127987.91	-1.6571552e-05	626070.56	270122.6	3.825586e-05	268735.38	627593.4	-0.00014484569
0	0.639313	0.64080226	-1.15083644e-10	0.046386234	0.046386234	0	127665.3	127962.7	-2.5651063e-05	626157	269856.3	-6.769291e-05	268464.78	627683.3	-8.4652405e-05
0	0.63918394	0.640678	-6.0557936e-10	0.046244755	0.046244755	0	127639.54	127937.89	-0.000119791104	626241.6	269594.84	-0.00038908102	268199.06	627771.3	-0.0004550576
0	0.63905245	0.64055127	-2.6229316e-10	0.046103433	0.046103433	0	127613.28	127912.586	-5.1654093e-05	626327.3	269328.84	-0.00013762519	267928.94	627860.3	-0.00020412424
0	0.63892204	0.6404257	-1.7524802e-10	0.045961887	0.045961887	0	127587.24	127887.51	-3.725444e-05	626412.6	269064.84	-0.0002607076	267660.7	627948.8	1.8097835e-05
0	0.6387902	0.64029896	-1.5759014e-10	0.045820557	0.045820557	0	127560.92	127862.2	-3.269787e-05	626498.8	268798.2	-0.00012385442	267389.53	628038.5	-8.3327155e-05
0	0.6386578	0.6401714	-1.408073e-10	0.0456791	0.0456791	0	127534.45	127836.734	-3.063916e-05	626585.1	268530.34	-4.8169495e-05	267117.3	628128.25	-0.00010441908
0	0.63852465	0.64004326	-3.1390154e-10	0.045537632	0.045537632	0	127507.89	127811.125	-6.240039e-05	626671.4	268261.66	-0.00025145282	266844.38	628217.75	-0.00016917371
0	0.6383943	0.6399177	8.6788327e-11	0.0453963	0.0453963	0	127481.84	127786.055	1.6187101e-05	626755.75	267998.62	9.221225e-05	266577.03	628305.44	5.9010887e-05
0	0.6382613	0.6397897	-3.0918174e-10	0.04525483	0.04525483	0	127455.3	127760.49	-6.176201e-05	626841.6	267730.53	-0.00016936279	266304.6	628394.75	-0.00024948892