//mumax 3.10 [windows_amd64 go1.11.6(gc) CUDA-11.0]
//GPU info: NVIDIA GeForce RTX 3090(24575MB), CUDA Driver 12.1, cc=8.6, using cc=80 PTX
//(c) Arne Vansteenkiste, Dynamat LAB, Ghent University, Belgium
//This is free software without any warranty. See license.txt
//********************************************************************//
//  If you use mumax in any work or publication,                      //
//  we kindly ask you to cite the references in references.bib        //
//********************************************************************//
//output directory: r1;p0.5;a4.4e-07;l2.3000000000000002e-07;s5.out/
randSeed(5)
ThermSeed(5)
resolution := 2e-09
zResolution := 5e-09
a := 4.4e-07
gridSize := 440
gridDepth := 5
SetCellsize(resolution, resolution, zResolution)
SetGridsize(gridSize, gridSize, gridDepth)
SetPBC(16, 16, 0)
//resizing...
Msat = 700e3
Aex = 13e-12
alpha = 0.2
Bmax := 0.1
Bstep := Bmax / 500.0
TableAdd(B_ext)
TableAdd(m_full)
islandWidth := 8e-08
islandLength := 2.3000000000000002e-07
ellipseConstant := 5.7500000000000005e-08
hIsland := Universe().Inverse()
vIsland := Universe().Inverse()
vIslands := Universe().Inverse()
hIslands := Universe().Inverse()
hIsland = rect(islandLength-2*ellipseConstant, islandWidth)
hIsland = hIsland.add(ellipse(ellipseConstant*2, islandWidth).transl(islandLength/2-ellipseConstant, 0, 0))
hIsland = hIsland.add(ellipse(ellipseConstant*2, islandWidth).transl(-islandLength/2+ellipseConstant, 0, 0))
hIsland = hIsland.add(rect(8.970758942563095e-09, 3.9689590058369884e-10).transl(1.341324603685322e-08, -4e-08, 0))
hIsland = hIsland.add(rect(2.2961859216937405e-09, 3.1854921859372703e-10).transl(-2.8507838508566073e-08, -4e-08, 0))
hIsland = hIsland.sub(rect(2.2230040573865164e-09, -7.877788150870482e-10).transl(7.118484868238122e-08, -3.885063196685062e-08, 0))
hIsland = hIsland.add(rect(5.859399054552466e-09, 1.1438920420900764e-09).transl(4.9519707029920306e-08, -4e-08, 0))
hIsland = hIsland.add(rect(4.096760192364293e-09, 1.3660860712459363e-09).transl(-1.0403305862032438e-07, -2.3497442268884558e-08, 0))
hIsland = hIsland.sub(rect(8.55813184483749e-09, -3.060515309223582e-09).transl(-1.658889595162433e-08, -4e-08, 0))
hIsland = hIsland.sub(rect(6.450418882252503e-09, -3.922851040462987e-09).transl(1.0805861271431604e-07, -1.905219327005611e-08, 0))
hIsland = hIsland.sub(rect(7.66696128003354e-09, -2.604455309298504e-09).transl(3.774326783121086e-08, -4e-08, 0))
hIsland = hIsland.add(rect(8.825346289471464e-09, 1.7482307825807793e-09).transl(1.0623892546916268e-07, -2.12232880656736e-08, 0))
hIsland = hIsland.add(rect(6.506310444945643e-09, 3.766584752663958e-09).transl(1.1302643858671018e-07, -1.0389807257658475e-08, 0))
hIsland = hIsland.sub(rect(5.991840451345761e-09, -4.0910422471865857e-10).transl(-5.834664490573156e-08, -3.9995663688757553e-08, 0))
hIsland = hIsland.sub(rect(3.933364468974855e-09, -1.05892050025763e-10).transl(5.3809309438943655e-09, -4e-08, 0))
hIsland = hIsland.sub(rect(4.302674064271142e-09, -4.579237222084289e-10).transl(9.723900059247976e-08, -2.890986674176866e-08, 0))
hIsland = hIsland.add(rect(3.04826905480604e-09, 1.3879142184971053e-09).transl(-8.623630177963005e-08, -3.464651608842616e-08, 0))
hIsland = hIsland.sub(rect(7.808922855286525e-09, -7.027672531669628e-10).transl(5.190083886633503e-09, -4e-08, 0))
hIsland = hIsland.add(rect(7.620339876691042e-09, 2.2180694655329243e-09).transl(5.280892597225123e-08, -4e-08, 0))
hIsland = hIsland.sub(rect(4.756125984315224e-09, -2.5324008205172207e-09).transl(3.073787548524219e-08, -4e-08, 0))
hIsland = hIsland.sub(rect(8.193885303205504e-09, -2.288552108816e-09).transl(-6.265309668984165e-08, -3.983904460257034e-08, 0))
hIsland = hIsland.sub(rect(4.729066869638208e-09, -1.7134849417806335e-09).transl(-1.0712319394338979e-07, -2.0207332114223306e-08, 0))
hIsland = hIsland.sub(rect(3.54887966769842e-09, -2.570549773265979e-09).transl(8.650144262889854e-08, -3.453943745521555e-08, 0))
hIsland = hIsland.add(rect(4.748559243419071e-09, 1.6298660075001521e-09).transl(1.1972759934834473e-08, -4e-08, 0))
hIsland = hIsland.sub(rect(7.2268349181089054e-09, -1.1375974502390226e-09).transl(-2.652988012967933e-08, -4e-08, 0))
hIsland = hIsland.sub(rect(6.150806006264313e-09, -8.12974139055299e-11).transl(-7.473340954205052e-08, -3.816119567461569e-08, 0))
hIsland = hIsland.sub(rect(7.04083638678956e-09, -1.4714573009288719e-09).transl(-1.1498063978189842e-07, -1.0379098411509324e-09, 0))
hIsland = hIsland.sub(rect(5.890806149419708e-09, -7.087394571733298e-10).transl(8.171321349748126e-08, -3.628058047276316e-08, 0))
hIsland = hIsland.sub(rect(5.383713312700144e-09, -6.626037632003811e-10).transl(-1.2534113900348481e-08, -4e-08, 0))
hIsland = hIsland.add(rect(8.591340549364418e-09, 1.1996595818558804e-09).transl(-8.359909187653387e-08, -3.564216124576559e-08, 0))
hIsland = hIsland.sub(rect(2.4410563589752078e-09, -8.312140424424322e-10).transl(-3.979551873103265e-08, -4e-08, 0))
hIsland = hIsland.add(rect(5.755621624657048e-09, 4.170719291103092e-09).transl(-9.26569889390845e-08, -3.165206787358896e-08, 0))
hIsland = hIsland.add(rect(6.722931206853317e-09, 3.3884653608944333e-09).transl(-1.055908038853388e-07, -2.1927113017118464e-08, 0))
hIsland = hIsland.sub(rect(9.512288870299636e-09, -2.2421489545320533e-09).transl(-3.259524300592317e-08, -4e-08, 0))
hIsland = hIsland.sub(rect(7.170466945379126e-09, -1.0207089518572829e-09).transl(8.587496982693475e-08, -3.4790337140149324e-08, 0))
hIsland = hIsland.sub(rect(4.380472271987088e-09, -2.7133728378748423e-09).transl(-9.586035369737898e-08, -2.979741668172088e-08, 0))
hIsland = hIsland.add(rect(2.8093313786019343e-09, 1.6038726918789366e-09).transl(-8.314757182900835e-08, -3.580042683777341e-08, 0))
hIsland = hIsland.sub(rect(5.3375136641436685e-09, -2.3455140204187666e-09).transl(-8.604055870048106e-08, -3.472472755572667e-08, 0))
hIsland = hIsland.add(rect(4.061458824345871e-09, 9.754002099195754e-10).transl(-1.953355892735149e-08, -4e-08, 0))
hIsland = hIsland.add(rect(6.9044273065681125e-09, 2.629432560250566e-09).transl(-3.569435757775784e-08, -4e-08, 0))
hIsland = hIsland.sub(rect(9.782840878262e-09, -2.041089800283487e-09).transl(1.7694258934616613e-08, -4e-08, 0))
hIsland = hIsland.add(rect(9.129998839786442e-09, 5.072856882438855e-10).transl(7.724346444980188e-08, -3.756808756519527e-08, 0))
hIsland = hIsland.add(rect(8.782971173978464e-09, 2.267169293495002e-09).transl(-4.4090599689903646e-09, -4e-08, 0))
hIsland = hIsland.sub(rect(8.485354502605773e-09, -1.903573694754804e-09).transl(-1.5547919309081937e-08, -4e-08, 0))
hIsland = hIsland.sub(rect(8.322045210957438e-09, -1.3574556686558068e-09).transl(-9.355904885953866e-08, -3.1157102944755044e-08, 0))
hIsland = hIsland.add(rect(9.435088572582933e-09, 6.561923546254761e-10).transl(-5.991409888544759e-08, -3.996473077432604e-08, 0))
hIsland = hIsland.sub(rect(9.909537904022648e-09, -2.0137913127765477e-09).transl(1.6976931174036493e-08, -4e-08, 0))
hIsland = hIsland.sub(rect(9.033957502004467e-09, -2.3195207600134573e-09).transl(-3.3435100946750735e-08, -4e-08, 0))
hIsland = hIsland.sub(rect(9.45066959782595e-09, -3.6924431605941514e-10).transl(3.945396349023779e-08, -4e-08, 0))
hIsland = hIsland.sub(rect(2.8553055708919245e-09, -3.1537235082465197e-10).transl(3.466434118672351e-08, -4e-08, 0))
hIsland = hIsland.sub(rect(9.469880350153974e-09, -2.075739951427627e-09).transl(5.943394418272823e-08, -3.9977368931911584e-08, 0))
hIsland = hIsland.sub(rect(7.639709635610682e-09, -1.7938869125853511e-09).transl(5.125937981920722e-08, -4e-08, 0))
hIsland = hIsland.add(rect(6.493766279554284e-09, 2.3454368877475045e-10).transl(-9.508822312605812e-08, -3.0269867585570334e-08, 0))
hIsland = hIsland.add(rect(9.393908610404637e-09, 3.559193985426171e-09).transl(1.0239378918186267e-07, -2.4993163881265853e-08, 0))
hIsland = hIsland.sub(rect(9.168181074600309e-09, -9.319480300566652e-10).transl(-5.096166197684787e-08, -4e-08, 0))
hIsland = hIsland.sub(rect(3.9820723009495574e-09, -3.159467386668353e-10).transl(6.405756792848014e-08, -3.973902496259009e-08, 0))
hIsland = hIsland.sub(rect(9.035343064321907e-09, -2.0580003082799326e-09).transl(-1.0335075736817024e-07, -2.4137807744893998e-08, 0))
hIsland = hIsland.sub(rect(7.09806705523073e-09, -8.164249728162638e-10).transl(1.0045667158883733e-07, -2.6589700441372096e-08, 0))
hIsland = hIsland.sub(rect(2.145586224793595e-09, -2.781809944367047e-09).transl(-2.883827484922312e-08, -4e-08, 0))
hIsland = hIsland.sub(rect(5.136053487710387e-09, -2.233316410496578e-09).transl(-5.497970664967911e-09, -4e-08, 0))
hIsland = hIsland.add(rect(9.153183061433796e-09, 2.9129217853297563e-09).transl(-6.297847268361386e-08, -3.981802895237628e-08, 0))
hIsland = hIsland.add(rect(8.671532835929389e-09, 2.577938998608412e-09).transl(4.34084496584196e-09, -4e-08, 0))
hIsland = hIsland.add(rect(4.615175743708385e-09, 3.9751185464497806e-10).transl(2.171313547104867e-08, -4e-08, 0))
hIsland = hIsland.sub(rect(3.8142119057994625e-09, -2.2482109844722624e-10).transl(-7.324015733302487e-08, -3.8472127894085316e-08, 0))
hIsland = hIsland.add(rect(6.7083000090755735e-09, 3.9185009891304877e-10).transl(9.654438896906046e-08, -2.9364315388561206e-08, 0))
hIsland = hIsland.add(rect(8.806762324293457e-09, 1.1089467644198219e-09).transl(-7.64477417979384e-08, -3.7765860816887055e-08, 0))
hIsland = hIsland.add(rect(2.369400086549458e-09, 2.214187774259446e-09).transl(-4.895218717953745e-08, -4e-08, 0))
hIsland = hIsland.sub(rect(3.82198056143533e-09, -2.189855206175434e-09).transl(4.6549570390949465e-08, -4e-08, 0))
hIsland = hIsland.sub(rect(6.687535755738707e-09, -5.570870428860073e-10).transl(9.949721488368381e-08, -2.732136997631717e-08, 0))
hIsland = hIsland.add(rect(5.308527196262267e-09, 3.923788347246882e-09).transl(5.302589336096968e-08, -4e-08, 0))
hIsland = hIsland.sub(rect(9.94583698222333e-09, -1.044181301372531e-09).transl(-5.347884362593736e-08, -4e-08, 0))
hIsland = hIsland.add(rect(8.238061096598326e-09, 4.12086131021347e-09).transl(2.012936607934339e-09, -4e-08, 0))
hIsland = hIsland.add(rect(3.919812741079618e-09, 9.114502551829185e-10).transl(-3.546024018321845e-08, -4e-08, 0))
hIsland = hIsland.add(rect(6.285738580959798e-09, 1.4401561274823394e-09).transl(-2.0271047531955334e-08, -4e-08, 0))
hIsland = hIsland.add(rect(3.7099195658014193e-09, 2.974982624459234e-09).transl(3.685992478924173e-08, -4e-08, 0))
hIsland = hIsland.add(rect(9.80508180201058e-09, 7.761532814935783e-10).transl(-8.192005968240408e-08, -3.62134278166245e-08, 0))
hIsland = hIsland.add(rect(7.138947225348018e-09, 3.0353618947608203e-09).transl(6.025673130955961e-09, -4e-08, 0))
hIsland = hIsland.add(rect(8.791364084170704e-09, 4.883577646020064e-10).transl(8.25114271257246e-08, -3.601757865723031e-08, 0))
hIsland = hIsland.sub(rect(9.396204756916352e-09, -1.945777688016548e-10).transl(-3.461059215030439e-08, -4e-08, 0))
hIsland = hIsland.add(rect(6.933242153322205e-09, 2.262501525263869e-09).transl(8.749925084736182e-08, -3.412452197026568e-08, 0))
hIsland = hIsland.sub(rect(2.852250813209595e-09, -1.6436518618950849e-09).transl(1.0745940437987635e-07, -1.9802370730598703e-08, 0))
hIsland = hIsland.add(rect(4.911459354300509e-09, 1.4866737675835176e-09).transl(9.501749342551425e-08, -3.0312301616337496e-08, 0))
hIsland = hIsland.sub(rect(6.497096267778043e-09, -2.0831175075746758e-10).transl(-2.9649562596991353e-08, -4e-08, 0))
hIsland = hIsland.add(rect(3.9896605865706275e-09, 2.602383973270761e-10).transl(-6.276431041079343e-08, -3.983200737250676e-08, 0))
hIsland = hIsland.sub(rect(4.355050392708124e-09, -5.050624474138641e-10).transl(7.175172678967297e-08, -3.875187416845145e-08, 0))
hIsland = hIsland.add(rect(7.275816448552962e-09, 7.535875585890081e-10).transl(1.799696488802246e-08, -4e-08, 0))
hIsland = hIsland.sub(rect(8.127840894003122e-09, -1.1345056482294128e-09).transl(6.90748041405693e-08, -3.918117774485031e-08, 0))
hIsland = hIsland.sub(rect(6.1625174566680604e-09, -1.254568196095811e-09).transl(9.982037138709419e-08, -2.7078980555365716e-08, 0))
hIsland = hIsland.add(rect(7.123411490435431e-09, 5.392303068586368e-10).transl(-4.053557556208723e-08, -4e-08, 0))
hIsland = hIsland.add(rect(7.739914589513086e-09, 1.7454361691782598e-09).transl(1.5972094554879825e-08, -4e-08, 0))
hIsland = hIsland.sub(rect(8.834471164052247e-09, -1.905330156049977e-09).transl(-1.0274748872061463e-07, -2.4682566178759988e-08, 0))
hIsland = hIsland.sub(rect(8.693425810916267e-09, -2.2375882303841756e-10).transl(-2.1921128015346056e-09, -4e-08, 0))
hIsland = hIsland.sub(rect(4.0741955934192895e-09, -3.0353374187195526e-09).transl(-2.244198713730951e-08, -4e-08, 0))
hIsland = hIsland.sub(rect(8.572111067171908e-09, -5.230110325170233e-10).transl(1.9678585661982113e-08, -4e-08, 0))
hIsland = hIsland.sub(rect(3.3361677114776225e-09, -6.778115320256123e-10).transl(-1.1220311607553263e-07, -1.2323436372971646e-08, 0))
hIsland = hIsland.sub(rect(7.291157703260193e-09, -2.5551088319635297e-09).transl(5.928091963386743e-08, -3.998080946237193e-08, 0))
hIsland = hIsland.sub(rect(3.235675371997414e-09, -7.429855944515619e-10).transl(-7.383854776445592e-08, -3.835120943811846e-08, 0))
hIsland = hIsland.sub(rect(3.4913330401639667e-09, -1.8515826411713381e-09).transl(-5.950495944120489e-08, -3.997567585645986e-08, 0))
hIsland = hIsland.add(rect(7.764467769907347e-09, 3.0020853770886212e-09).transl(1.8883658068975775e-08, -4e-08, 0))
hIsland = hIsland.sub(rect(5.349359461833065e-09, -2.8487191838762884e-09).transl(-8.731980817019896e-08, -3.420054926148024e-08, 0))
hIsland = hIsland.sub(rect(5.7281724939742536e-09, -6.388850718517714e-10).transl(2.8469933058694868e-08, -4e-08, 0))
hIsland = hIsland.sub(rect(8.538928009783093e-09, -4.975610538438583e-10).transl(-6.400370687150401e-08, -3.97433082195048e-08, 0))
hIsland = hIsland.add(rect(7.942332663167491e-09, 6.364830153651341e-10).transl(1.7251080094116847e-08, -4e-08, 0))
hIsland = hIsland.sub(rect(2.3638791484385105e-09, -5.491174020679805e-10).transl(-1.0814467608119713e-07, -1.8941253168132234e-08, 0))
hIsland = hIsland.sub(rect(5.583033479222938e-09, -2.3697446772699305e-10).transl(-2.7263354030954142e-08, -4e-08, 0))
hIsland = hIsland.add(rect(2.6162740718106213e-09, 8.815185707599063e-10).transl(6.533295799613247e-08, -3.9627115004932685e-08, 0))
hIsland = hIsland.sub(rect(6.559111872336403e-09, -3.1137472734448743e-09).transl(1.0850516854119556e-08, -4e-08, 0))
hIsland = hIsland.add(rect(9.656819113844425e-09, 8.120850386459207e-10).transl(9.239682734844883e-08, -3.1791086982512966e-08, 0))
hIsland = hIsland.sub(rect(7.73256695438809e-09, -2.3664787125401295e-09).transl(-2.6439282967607432e-08, -4e-08, 0))
hIsland = hIsland.add(rect(4.015479533443541e-09, 8.672352593356659e-10).transl(-8.493678089672063e-09, -4e-08, 0))
hIsland = hIsland.sub(rect(7.481975467441217e-09, -3.6405052004745816e-09).transl(-4.193276441732702e-08, -4e-08, 0))
hIsland = hIsland.sub(rect(8.441588420438164e-09, -1.448889714339928e-09).transl(1.011549082433966e-07, -2.6033559136057167e-08, 0))
hIsland = hIsland.sub(rect(9.192832177662477e-09, -2.1490999168868367e-09).transl(3.828493418992083e-08, -4e-08, 0))
hIsland = hIsland.sub(rect(2.0720936033527044e-09, -1.0659808968851351e-09).transl(-3.533478935809074e-08, -4e-08, 0))
hIsland = hIsland.add(rect(3.2093119718426948e-09, 2.3701980986082957e-09).transl(5.2493364698913714e-08, -4e-08, 0))
hIsland = hIsland.sub(rect(2.4598819132784274e-09, -9.93543432630638e-10).transl(3.3434050366036715e-08, -4e-08, 0))
hIsland = hIsland.add(rect(2.3175479438000384e-09, 1.8272583575745303e-09).transl(6.155335604526744e-08, -3.990049054332193e-08, 0))
hIsland = hIsland.add(rect(6.617777022996885e-09, 1.3053165491171484e-09).transl(-9.588669352982648e-08, -2.978099679931529e-08, 0))
hIsland = hIsland.sub(rect(9.095080703617157e-09, -2.4235483460671386e-09).transl(7.865264066237373e-08, -3.7195057373593395e-08, 0))
hIsland = hIsland.add(rect(5.137238797528023e-09, 4.743928485089729e-10).transl(6.966809902728174e-08, -3.909408857193383e-08, 0))
hIsland = hIsland.add(rect(9.189296813462967e-09, 1.3574231435234163e-09).transl(6.708967321851423e-08, -3.943978614764807e-08, 0))
hIsland = hIsland.sub(rect(2.1084113663094037e-09, -1.1334130342013209e-10).transl(-8.545176529971084e-08, -3.495573482396913e-08, 0))
hIsland = hIsland.add(rect(6.434379167603855e-09, 1.3324253249822178e-09).transl(-4.753342363003906e-08, -4e-08, 0))
hIsland = hIsland.add(rect(4.774192235560476e-09, 2.1889404349477384e-09).transl(-1.1063901683064727e-07, -1.528053309609053e-08, 0))
hIsland = hIsland.add(rect(6.9603068241193965e-09, 3.515862188161113e-09).transl(-9.60258720686625e-08, -2.969389639043124e-08, 0))
hIsland = hIsland.add(rect(3.4848976560057063e-09, 2.9658394266815825e-09).transl(-9.673644319627537e-08, -2.9240169384424947e-08, 0))
hIsland = hIsland.sub(rect(3.4270948592553395e-09, -2.3185880573615916e-09).transl(-5.50150209258845e-08, -4e-08, 0))
hIsland = hIsland.add(rect(5.0330140392217024e-09, 4.945045345687632e-11).transl(2.7014871334325402e-08, -4e-08, 0))
hIsland = hIsland.add(rect(9.552670863753613e-09, 3.510034033702914e-09).transl(-1.6403160809943442e-08, -4e-08, 0))
hIsland = hIsland.sub(rect(8.571628246781062e-09, -1.731682212847946e-10).transl(-1.1067565529605223e-07, -1.5218727833348648e-08, 0))
hIsland = hIsland.add(rect(3.7676467433392374e-09, 1.1095450286296204e-09).transl(2.441502854451425e-08, -4e-08, 0))
hIsland = hIsland.sub(rect(3.6118977937307188e-09, -4.889372026538982e-11).transl(6.2047997901711e-08, -3.987468136208532e-08, 0))
hIsland = hIsland.add(rect(7.009486190927222e-09, 4.4429699601765225e-10).transl(9.782615018400502e-09, -4e-08, 0))
hIsland = hIsland.add(rect(4.286732627180808e-09, 2.2333977006823118e-09).transl(-2.667688426159036e-08, -4e-08, 0))
hIsland = hIsland.sub(rect(4.9354888109972905e-09, -5.967746096708475e-11).transl(-7.966755279623961e-08, -3.6907934771555497e-08, 0))
hIsland = hIsland.sub(rect(2.153093903037604e-09, -2.063878747889777e-09).transl(-7.476259361724305e-08, -3.815481181444461e-08, 0))
hIsland = hIsland.add(rect(9.75622556686149e-09, 3.663631383292267e-10).transl(4.168274961108663e-08, -4e-08, 0))
hIsland = hIsland.sub(rect(9.668788031026182e-09, -1.2946495202313399e-09).transl(-8.840855449885004e-08, -3.3729528055632184e-08, 0))
hIsland = hIsland.sub(rect(7.023816590924351e-09, -3.2691264916989373e-09).transl(-1.0812604902058165e-07, -1.896533546126805e-08, 0))
hIsland = hIsland.add(rect(9.71228109421406e-09, 1.6346160848195108e-09).transl(8.985775092860524e-08, -3.306526296882892e-08, 0))
hIsland = hIsland.add(rect(6.9443588519183e-09, 1.0431962495694741e-09).transl(-1.0203456993172533e-07, -2.5302257971934923e-08, 0))
hIsland = hIsland.add(rect(2.404746618023043e-09, 3.2590337717749e-09).transl(1.1364055539032263e-07, -8.646484732062405e-09, 0))
hIsland = hIsland.sub(rect(8.076505082449179e-09, -1.924324138699967e-09).transl(-3.087630233609177e-08, -4e-08, 0))
hIsland = hIsland.add(rect(9.761745133655532e-09, 2.9537780109250135e-09).transl(8.329580655389276e-08, -3.5748849552362784e-08, 0))
hIsland = hIsland.sub(rect(9.789504558487782e-09, -2.4247040241895183e-09).transl(7.689001568212521e-08, -3.765706833116898e-08, 0))
hIsland = hIsland.add(rect(7.940378496078042e-09, 3.79591503924675e-10).transl(9.207338475512889e-08, -3.196164859918058e-08, 0))
hIsland = hIsland.add(rect(3.6084531215016258e-09, 1.383849174627166e-09).transl(-1.5645599586722935e-08, -4e-08, 0))
hIsland = hIsland.add(rect(5.270360687010662e-09, 6.831994693167338e-10).transl(6.698807534158337e-08, -3.94516757147676e-08, 0))
hIsland = hIsland.sub(rect(4.9940796153705896e-09, -1.4957289818544634e-09).transl(-9.278654795066001e-08, -3.1582222052609536e-08, 0))
hIsland = hIsland.add(rect(3.5516843539353453e-09, 1.8637482507725098e-10).transl(-1.1077203339891768e-07, -1.505473046956293e-08, 0))
hIsland = hIsland.sub(rect(7.953383612792433e-09, -1.1033316330681078e-09).transl(-9.656027102545314e-08, -2.935409202735725e-08, 0))
hIsland = hIsland.add(rect(7.264741154380762e-09, 1.431570196828791e-09).transl(-2.4405042769469498e-08, -4e-08, 0))
hIsland = hIsland.add(rect(5.696536454228962e-09, 1.9453456277752246e-10).transl(-8.686188060622782e-08, -3.4391751539444015e-08, 0))
hIsland = hIsland.sub(rect(6.871418833258939e-09, -3.5245350760816867e-10).transl(-4.930491525306535e-08, -4e-08, 0))
hIsland = hIsland.sub(rect(7.045996981659164e-09, -8.981779385343047e-10).transl(-3.253098131245538e-08, -4e-08, 0))
hIsland = hIsland.add(rect(8.158343539221493e-09, 5.751210453888316e-11).transl(-3.812852183690253e-08, -4e-08, 0))
hIsland = hIsland.sub(rect(9.328052007413055e-09, -9.054509928981556e-10).transl(4.8081493938336145e-08, -4e-08, 0))
hIsland = hIsland.sub(rect(6.8777137631365845e-09, -1.7839393628154763e-09).transl(7.346639918384363e-08, -3.842698545881636e-08, 0))
hIsland = hIsland.sub(rect(6.509019267988821e-09, -1.439541527521684e-09).transl(1.682125332623202e-08, -4e-08, 0))
hIsland = hIsland.add(rect(9.556082027330264e-09, 4.034786956876624e-10).transl(-3.251585160175312e-08, -4e-08, 0))
hIsland = hIsland.sub(rect(7.728452293442006e-09, -3.941362704788638e-09).transl(-8.59862719517241e-08, -3.4746292765350674e-08, 0))
hIsland = hIsland.add(rect(4.089009919175666e-09, 2.5517321788491494e-09).transl(-1.0258674928293682e-07, -2.4824501967564014e-08, 0))
hIsland = hIsland.sub(rect(3.06830601940802e-09, -1.2385892247130071e-09).transl(-6.738869287425906e-08, -3.940403673747251e-08, 0))
hIsland = hIsland.add(rect(3.0717727873165085e-09, 7.614056803836301e-12).transl(3.654484043926627e-08, -4e-08, 0))
hIsland = hIsland.sub(rect(4.885463370225021e-09, -1.3608156037867078e-09).transl(-7.572040049732016e-08, -3.793867186898669e-08, 0))
hIsland = hIsland.sub(rect(4.979391275930105e-09, -1.60002122931565e-09).transl(2.169737703155537e-08, -4e-08, 0))
hIsland = hIsland.add(rect(4.728723516638392e-09, 1.6744291894026338e-09).transl(-8.776821208917511e-08, -3.400939062613881e-08, 0))
hIsland = hIsland.add(rect(5.303522979001826e-09, 5.982988310333804e-10).transl(3.451631668072856e-08, -4e-08, 0))
hIsland = hIsland.sub(rect(9.684664182549213e-09, -2.322284972909278e-10).transl(4.8512834470760066e-08, -4e-08, 0))
hIsland = hIsland.add(rect(4.95180542751159e-09, 8.48897699703755e-10).transl(8.985607544862093e-08, -3.306605640762021e-08, 0))
hIsland = hIsland.sub(rect(4.339503287986891e-09, -3.0524528954604037e-09).transl(7.404467932058352e-08, -3.830842000912016e-08, 0))
hIsland = hIsland.sub(rect(3.908348661055668e-09, -1.6405399189307066e-09).transl(-7.085567024978925e-08, -3.890602983861267e-08, 0))
hIsland = hIsland.sub(rect(8.537098450548753e-09, -1.1124829774902657e-09).transl(-3.399326143827667e-08, -4e-08, 0))
hIsland = hIsland.sub(rect(2.4377664776387658e-09, -2.996223252707612e-09).transl(-9.524142429755283e-08, -3.0177475430292183e-08, 0))
hIsland = hIsland.sub(rect(4.496863052084978e-09, -1.382681721610306e-10).transl(-8.296898840693172e-08, -3.586207144801659e-08, 0))
hIsland = hIsland.sub(rect(9.179542708349755e-09, -2.0712083936848146e-09).transl(-9.801312918606665e-09, -4e-08, 0))
hIsland = hIsland.sub(rect(4.792453635845648e-09, -2.8326270562393186e-09).transl(-5.778683167990603e-08, -3.999950231879369e-08, 0))
hIsland = hIsland.add(rect(2.413534649588966e-09, 1.8599381868688378e-09).transl(-9.841379119390462e-08, -2.8105653780605105e-08, 0))
hIsland = hIsland.add(rect(2.243973272515968e-09, 6.691403460788941e-10).transl(3.7601479977028216e-08, -4e-08, 0))
hIsland = hIsland.sub(rect(8.460324944742201e-09, -1.0043649623916492e-09).transl(4.954522108282507e-08, -4e-08, 0))
hIsland = hIsland.add(rect(9.75865219144286e-09, 1.7440640896910376e-09).transl(-2.4022591209371577e-08, -4e-08, 0))
hIsland = hIsland.add(rect(4.776529567461469e-09, 9.074813666509357e-10).transl(8.301737910333551e-08, -3.5845420625027533e-08, 0))
hIsland = hIsland.sub(rect(3.1384364349199344e-09, -1.796836995056809e-09).transl(-1.82303458235748e-08, -4e-08, 0))
hIsland = hIsland.sub(rect(5.476131196276574e-09, -1.408112073049826e-09).transl(-2.121850462322993e-08, -4e-08, 0))
hIsland = hIsland.add(rect(7.76052316464703e-09, 1.1929583225723039e-10).transl(3.9640757201068095e-08, -4e-08, 0))
hIsland = hIsland.add(rect(9.107910607148888e-09, 1.6949426993935221e-09).transl(8.865704889473497e-08, -3.361870613805055e-08, 0))
hIsland = hIsland.sub(rect(7.613027866695822e-09, -2.544546862306455e-09).transl(-3.617752272858261e-08, -4e-08, 0))
hIsland = hIsland.sub(rect(7.309084126117353e-09, -1.405518449454445e-09).transl(-1.947175606812152e-08, -4e-08, 0))
hIsland = hIsland.add(rect(4.050407949533549e-09, 1.8538244309583516e-09).transl(7.662611676572767e-08, -3.772232305335932e-08, 0))
hIsland = hIsland.sub(rect(3.2116284391242156e-09, -5.5027604266383535e-09).transl(-9.818375205121712e-08, -2.8266791141256333e-08, 0))
hIsland = hIsland.sub(rect(4.600846708991179e-09, -1.4756133209405142e-09).transl(-3.643765301903136e-08, -4e-08, 0))
hIsland = hIsland.sub(rect(2.8351727747003086e-09, -3.220530899885328e-09).transl(1.1239509252453414e-07, -1.190315180267465e-08, 0))
hIsland = hIsland.add(rect(3.3332225159957095e-09, 2.7448071525066473e-09).transl(-1.3859259478632317e-08, -4e-08, 0))
hIsland = hIsland.add(rect(8.869160993974107e-09, 2.256002606351879e-09).transl(-7.901559134304315e-09, -4e-08, 0))
hIsland = hIsland.add(rect(3.0227289102410126e-09, 1.141224710969436e-09).transl(-7.190217914771367e-08, -3.8724946712070384e-08, 0))
hIsland = hIsland.add(rect(2.8362567694381167e-09, 1.839143218257266e-09).transl(-8.329955402793508e-08, -3.57475408241575e-08, 0))
hIsland = hIsland.sub(rect(5.67282193649496e-09, -1.834269506534367e-09).transl(-6.996889380493618e-08, -3.904819454287981e-08, 0))
hIsland = hIsland.add(rect(7.818001368826446e-09, 3.5737452853130473e-09).transl(9.903082798111161e-08, -2.7664227744840985e-08, 0))
hIsland = hIsland.add(rect(2.07749452583873e-09, 2.7715097124502027e-09).transl(-6.417193081257431e-08, -3.972981164744544e-08, 0))
hIsland = hIsland.add(rect(2.275038857785833e-09, 3.061824278636182e-09).transl(8.528206533908863e-08, -3.5021142748454113e-08, 0))
hIsland = hIsland.sub(rect(3.6610002561185145e-09, -1.0907136864294525e-09).transl(9.062912600637132e-08, -3.2693513417958616e-08, 0))
hIsland = hIsland.add(rect(2.588980731912665e-09, 4.4507137793567213e-10).transl(-9.033112590428644e-08, -3.2838667212045146e-08, 0))
hIsland = hIsland.sub(rect(9.470641139122978e-09, -1.0405315882813077e-09).transl(5.376792768576675e-09, -4e-08, 0))
hIsland = hIsland.add(rect(6.0252189873352185e-09, 3.4425160967959442e-09).transl(7.217995055662146e-08, 3.867443867041973e-08, 0))
hIsland = hIsland.sub(rect(2.769938544509043e-09, -5.137322083191363e-11).transl(-9.863127750605914e-08, 2.795161261733663e-08, 0))
hIsland = hIsland.add(rect(6.670544499958203e-09, 6.414607036120681e-10).transl(-6.378429728690781e-08, 3.9760386940473086e-08, 0))
hIsland = hIsland.add(rect(7.950419468817087e-09, 5.412183458201893e-10).transl(-5.258097332960267e-08, 4e-08, 0))
hIsland = hIsland.sub(rect(3.6042782086230896e-09, -2.6367345965470876e-09).transl(-6.37143191931524e-08, 3.976570923224287e-08, 0))
hIsland = hIsland.sub(rect(3.3500973237878e-09, -1.4831985032874056e-10).transl(1.0545035441277249e-07, 2.2075461703838628e-08, 0))
hIsland = hIsland.sub(rect(8.193255930126798e-09, -4.2574677759271655e-09).transl(-2.649831805681069e-08, 4e-08, 0))
hIsland = hIsland.add(rect(6.219189532818764e-09, 1.0539850023273236e-09).transl(1.8862413273663682e-08, 4e-08, 0))
hIsland = hIsland.sub(rect(2.1611527322414805e-09, -2.506390793313994e-09).transl(2.0920383434010647e-08, 4e-08, 0))
hIsland = hIsland.add(rect(2.7270885826091702e-09, 5.283474263159575e-10).transl(-8.035664649272956e-08, 3.670396748057617e-08, 0))
hIsland = hIsland.add(rect(5.7893087560105604e-09, 2.89929183650846e-09).transl(-5.771308430057969e-08, 3.999972533792035e-08, 0))
hIsland = hIsland.add(rect(2.4617281316219544e-09, 3.3810822998150554e-10).transl(1.101814286923131e-07, 1.6028965402392107e-08, 0))
hIsland = hIsland.sub(rect(3.5511765559698e-09, -2.0162581069189167e-09).transl(1.0876536507576668e-08, 4e-08, 0))
hIsland = hIsland.sub(rect(9.949859087518398e-09, -1.4996967032580749e-09).transl(7.408335667980438e-08, 3.830032609778353e-08, 0))
hIsland = hIsland.add(rect(9.830359445823473e-09, 2.8385178394970317e-09).transl(4.039612680525145e-08, 4e-08, 0))
hIsland = hIsland.add(rect(7.898664234646641e-09, 3.059526809109705e-09).transl(-7.709905461023078e-08, 3.7604662436327115e-08, 0))
hIsland = hIsland.add(rect(8.439795090338187e-09, 7.382367953178691e-10).transl(-8.079212920183049e-08, 3.65712407698414e-08, 0))
hIsland = hIsland.add(rect(3.6489669339600613e-09, 1.6410573901347749e-09).transl(5.2258781540675945e-08, 4e-08, 0))
hIsland = hIsland.add(rect(2.1411706296294666e-09, 2.3048149741793417e-09).transl(6.076147577043774e-08, 3.993560200348702e-08, 0))
hIsland = hIsland.add(rect(7.875070021823741e-09, 2.2646563555487366e-09).transl(9.248578956989319e-08, 3.1743734008361424e-08, 0))
hIsland = hIsland.sub(rect(9.642053531696618e-09, -1.2815272832606321e-09).transl(6.036357571625661e-08, 3.9950365782446425e-08, 0))
hIsland = hIsland.add(rect(2.8418624622052004e-09, 3.2339439762912315e-09).transl(-9.670293446286805e-08, 2.92619116666948e-08, 0))
hIsland = hIsland.add(rect(9.88000533415585e-09, 2.065073915758047e-09).transl(3.689429964705121e-08, 4e-08, 0))
hIsland = hIsland.sub(rect(2.5857717880747e-09, -9.616059398314485e-11).transl(-1.0998979032608163e-07, 1.633037976041462e-08, 0))
hIsland = hIsland.sub(rect(2.323049945048676e-09, -1.89326565802953e-09).transl(4.8759252996483475e-08, 4e-08, 0))
hIsland = hIsland.sub(rect(2.9068916353753762e-09, -1.0563602299122058e-09).transl(8.686975152010404e-09, 4e-08, 0))
hIsland = hIsland.sub(rect(5.380544057869875e-09, -1.4257463174215406e-09).transl(3.939219867523795e-08, 4e-08, 0))
hIsland = hIsland.sub(rect(9.054909306967691e-09, -5.146974390909649e-10).transl(-1.0981472926095464e-07, 1.6600002858449e-08, 0))
hIsland = hIsland.add(rect(4.424449415611681e-09, 1.2869613109329852e-09).transl(4.6748701218934185e-08, 4e-08, 0))
hIsland = hIsland.add(rect(7.206372298107973e-09, 5.437792628750442e-10).transl(9.400908982176917e-08, 3.0902435294091445e-08, 0))
hIsland = hIsland.add(rect(5.566609826977146e-09, 2.6899268270088444e-09).transl(-8.507883900038679e-08, 3.5098789979197845e-08, 0))
hIsland = hIsland.sub(rect(2.734205229598372e-09, -1.6094315467353373e-09).transl(-7.392368679865439e-08, 3.833360682488965e-08, 0))
hIsland = hIsland.sub(rect(9.690786267129717e-09, -1.625302022456155e-09).transl(1.0444993185451979e-07, 2.3092654586570914e-08, 0))
hIsland = hIsland.add(rect(8.992910687314637e-09, 1.7625115188006773e-09).transl(-4.529432227214777e-08, 4e-08, 0))
hIsland = hIsland.sub(rect(3.173862814314804e-09, -1.7827929604979693e-09).transl(-4.815613496901629e-09, 4e-08, 0))
hIsland = hIsland.sub(rect(7.525883884177383e-09, -9.63913712783932e-10).transl(2.0958213323646313e-09, 4e-08, 0))
hIsland = hIsland.add(rect(8.608809016032127e-09, 1.5343941686959e-09).transl(-1.8759408216716993e-08, 4e-08, 0))
hIsland = hIsland.add(rect(5.166660166715345e-09, 7.504173950691273e-10).transl(1.904433274285018e-08, 4e-08, 0))
hIsland = hIsland.sub(rect(7.306256712451955e-09, -9.079591345440177e-11).transl(-7.643601919554168e-08, 3.776870603570982e-08, 0))
hIsland = hIsland.sub(rect(5.558999432344452e-09, -2.7694760725816538e-09).transl(-9.898597891830104e-08, 2.7696773904548576e-08, 0))
hIsland = hIsland.add(rect(7.0996102112828136e-09, 2.5415312278956057e-09).transl(-1.0450966740637687e-07, 2.3033769062323737e-08, 0))
hIsland = hIsland.add(rect(4.630689783360946e-09, 7.996792907557564e-10).transl(-3.851010184658614e-08, 4e-08, 0))
hIsland = hIsland.sub(rect(9.104840348266199e-09, -5.254609492243463e-10).transl(-1.0830057750007877e-07, 1.8738128661237547e-08, 0))
hIsland = hIsland.add(rect(7.990225634417726e-09, 3.7435933318216496e-10).transl(-2.7429697645274518e-08, 4e-08, 0))
hIsland = hIsland.add(rect(9.763953737959036e-09, 2.337435782951351e-10).transl(-1.0649191108825466e-08, 4e-08, 0))
hIsland = hIsland.add(rect(9.169817334640484e-09, 3.9077614763295835e-10).transl(-4.7389859651231336e-08, 4e-08, 0))
hIsland = hIsland.sub(rect(9.492902125037159e-09, -3.954800268444066e-09).transl(-2.095880357666417e-08, 4e-08, 0))
hIsland = hIsland.sub(rect(3.2967224077142394e-09, -7.481500512904139e-11).transl(-9.765884980246957e-08, 2.8627729109580278e-08, 0))
hIsland = hIsland.add(rect(8.146889247216859e-09, 2.0973195641618328e-09).transl(9.955958641677206e-08, 2.727489912741433e-08, 0))
hIsland = hIsland.add(rect(5.268783699579372e-09, 1.2284759011381906e-09).transl(2.0211964787743286e-08, 4e-08, 0))
hIsland = hIsland.sub(rect(4.5581059634876514e-09, -1.19514989582292e-10).transl(-1.1299316194541926e-07, 1.0475491081573345e-08, 0))
hIsland = hIsland.add(rect(5.594357377495502e-09, 8.885592922400634e-10).transl(-6.442642074748762e-08, 3.970872973974815e-08, 0))
hIsland = hIsland.sub(rect(8.025722236233834e-09, -3.7166328478127534e-10).transl(8.42347147831541e-08, 3.541344480298474e-08, 0))
hIsland = hIsland.add(rect(2.7648857129101137e-09, 1.4046350127889146e-10).transl(-1.5825845469088533e-09, 4e-08, 0))
hIsland = hIsland.add(rect(2.1813340183682312e-09, 3.1190839276891695e-09).transl(-6.373624352867717e-08, 3.976404823062481e-08, 0))
hIsland = hIsland.add(rect(9.94834310081581e-09, 4.168522003712231e-10).transl(6.736184832270364e-08, 3.940729233564216e-08, 0))
hIsland = hIsland.add(rect(2.6241419489475775e-09, 1.626562340823483e-09).transl(4.3062736384935276e-08, 4e-08, 0))
hIsland = hIsland.sub(rect(7.688466024960354e-09, -6.098917569108559e-10).transl(1.1183178471226074e-07, 1.309429488859669e-08, 0))
hIsland = hIsland.add(rect(8.471825125405314e-09, 5.899756213910626e-10).transl(4.94958859491539e-08, 4e-08, 0))
hIsland = hIsland.sub(rect(2.33952873830569e-09, -2.7764264518072215e-09).transl(-4.185749212117066e-08, 4e-08, 0))
hIsland = hIsland.add(rect(6.129505624963139e-09, 2.000817144192995e-09).transl(-2.7869656697109936e-08, 4e-08, 0))
hIsland = hIsland.add(rect(7.655706690785641e-09, 1.4065738939950669e-09).transl(-7.329744659272806e-08, 3.84607627708997e-08, 0))
hIsland = hIsland.add(rect(8.373252368758008e-09, 9.320663163539488e-10).transl(-2.545595953556948e-08, 4e-08, 0))
hIsland = hIsland.sub(rect(3.982705123612747e-09, -2.405300405494083e-09).transl(-6.94816683035151e-08, 3.9121944584105476e-08, 0))
hIsland = hIsland.add(rect(9.971479192703605e-09, 8.465940822181277e-10).transl(8.884546501962283e-08, 3.353383942811204e-08, 0))
hIsland = hIsland.add(rect(2.619389128844753e-09, 2.233071748603506e-09).transl(9.132189167591123e-08, 3.234842182499899e-08, 0))
hIsland = hIsland.sub(rect(9.395829362434792e-09, -2.244564652980756e-10).transl(-8.272011148458564e-08, 3.5947088033180305e-08, 0))
hIsland = hIsland.sub(rect(8.07882913039223e-09, -9.425022905704906e-10).transl(-2.0397997695789217e-08, 4e-08, 0))
hIsland = hIsland.sub(rect(2.669402645366615e-09, -3.491507443470349e-10).transl(-1.474484953196803e-08, 4e-08, 0))
hIsland = hIsland.sub(rect(4.707789496364362e-09, -1.6380035044739548e-09).transl(-5.2191825952277726e-08, 4e-08, 0))
hIsland = hIsland.add(rect(9.448947006313028e-09, 1.1474259949729102e-10).transl(4.114262874972232e-08, 4e-08, 0))
hIsland = hIsland.sub(rect(2.9989137057717887e-09, -4.94261909756288e-10).transl(6.137341569691473e-08, 3.990913930452392e-08, 0))
hIsland = hIsland.sub(rect(5.087570411214372e-09, -9.6866498452743e-10).transl(3.705939463443418e-08, 4e-08, 0))
hIsland = hIsland.sub(rect(7.135354690251846e-09, -1.4662316272126343e-10).transl(8.570472288412159e-08, 3.485726670786733e-08, 0))
hIsland = hIsland.add(rect(4.705406743915842e-09, 3.382177991829601e-10).transl(8.505260396216641e-08, 3.510875966653007e-08, 0))
hIsland = hIsland.add(rect(3.846462748792461e-09, 1.1275271345622292e-09).transl(-2.9516853327887256e-08, 4e-08, 0))
hIsland = hIsland.sub(rect(2.099332991610098e-09, -5.013439612809508e-10).transl(1.0689068982318011e-08, 4e-08, 0))
hIsland = hIsland.sub(rect(4.7911938888355154e-09, -8.687292683653481e-10).transl(1.151077161889208e-08, 4e-08, 0))
hIsland = hIsland.sub(rect(5.529629387446282e-09, -5.420307581063939e-10).transl(8.882038275846266e-08, 3.3545178961902504e-08, 0))
hIsland = hIsland.add(rect(2.8717818589647684e-09, 9.587592369512203e-10).transl(2.1016370795193393e-08, 4e-08, 0))
hIsland = hIsland.add(rect(7.947018565494759e-09, 7.933351668712783e-10).transl(-6.631532094446166e-08, 3.95271261900228e-08, 0))
hIsland = hIsland.add(rect(7.563774775900986e-09, 1.1067727201811346e-09).transl(-7.43726322046778e-08, 3.8239135534427116e-08, 0))
hIsland = hIsland.sub(rect(4.869368424712661e-09, -2.1623852879020048e-09).transl(8.963633907085177e-08, 3.3169595195879445e-08, 0))
hIsland = hIsland.add(rect(2.0411509638331718e-09, 1.1110798100177104e-09).transl(1.973611820481105e-09, 4e-08, 0))
hIsland = hIsland.add(rect(4.865235633144373e-09, 3.30414276037818e-09).transl(-5.53976110334737e-08, 4e-08, 0))
hIsland = hIsland.sub(rect(7.024032977724933e-09, -4.633219149136572e-09).transl(-3.901338006387034e-08, 4e-08, 0))
hIsland = hIsland.add(rect(2.4023239939530873e-09, 2.5374993018963473e-09).transl(-3.3307092567758467e-08, 4e-08, 0))
hIsland = hIsland.add(rect(8.59147421940091e-09, 1.7618011243940168e-09).transl(5.160542355972804e-09, 4e-08, 0))
hIsland = hIsland.add(rect(6.276233792089013e-09, 8.217139344242347e-10).transl(1.5272611104109666e-08, 4e-08, 0))
hIsland = hIsland.sub(rect(6.191729341346467e-09, -1.2031414247541626e-09).transl(3.784645197352946e-10, 4e-08, 0))
hIsland = hIsland.sub(rect(2.065999203630324e-09, -8.136314930763602e-10).transl(7.587791533627025e-08, 3.7901887328016624e-08, 0))
hIsland = hIsland.sub(rect(6.761349846046734e-09, -9.002526229236334e-10).transl(8.975932882940725e-08, 3.3111769821878333e-08, 0))
hIsland = hIsland.add(rect(4.912569871745258e-09, 8.973999690713302e-10).transl(3.824973718570193e-08, 4e-08, 0))
hIsland = hIsland.add(rect(7.334565433206363e-09, 2.3038352957075567e-09).transl(9.996734606797166e-09, 4e-08, 0))
hIsland = hIsland.add(rect(3.7659113874283845e-09, 2.2702591680173513e-09).transl(-1.0275612716009772e-07, 2.4674900817005846e-08, 0))
hIsland = hIsland.add(rect(2.237314718882144e-09, 6.885305368486865e-10).transl(5.66323236393265e-08, 4e-08, 0))
hIsland = hIsland.sub(rect(6.923510231733561e-09, -1.832621601601171e-10).transl(-8.479199746099759e-08, 3.520712678902774e-08, 0))
hIsland = hIsland.add(rect(3.3241471284306715e-09, 5.074567964929472e-10).transl(-5.2292791787127164e-08, 4e-08, 0))
hIsland = hIsland.sub(rect(4.6778364819466696e-09, -1.758464684933014e-09).transl(-2.2973603642879525e-08, 4e-08, 0))
hIsland = hIsland.sub(rect(4.915151130608974e-09, -1.8188115205013124e-09).transl(8.843207834857854e-08, 3.3719090626131355e-08, 0))
hIsland = hIsland.sub(rect(4.72903822993637e-09, -1.5258365980010599e-09).transl(4.0330719211257116e-08, 4e-08, 0))
hIsland = hIsland.sub(rect(2.401026095660689e-09, -4.192228953422999e-10).transl(-3.0797539920386375e-09, 4e-08, 0))
hIsland = hIsland.sub(rect(6.1323605021772815e-09, -9.782336109693477e-10).transl(6.989560356300961e-08, 3.905948512662873e-08, 0))
hIsland = hIsland.add(rect(7.402785185033227e-09, 2.709549679765548e-10).transl(-9.093808887627673e-08, 3.25409417369756e-08, 0))
hIsland = hIsland.sub(rect(7.146515630888278e-09, -2.9463378984550414e-09).transl(6.470045086873182e-08, 3.9685133561985655e-08, 0))
hIsland = hIsland.sub(rect(5.560992126775112e-09, -1.4298657521891929e-09).transl(-7.895940430319809e-08, 3.710992345437497e-08, 0))
hIsland = hIsland.add(rect(3.774206129166756e-09, 2.177309335435775e-09).transl(2.9893511774475777e-08, 4e-08, 0))
hIsland = hIsland.add(rect(3.468944613893329e-09, 3.240093990143274e-09).transl(-3.9227761821579864e-08, 4e-08, 0))
hIsland = hIsland.sub(rect(2.310829860960036e-09, -3.925123220535147e-09).transl(-6.712553363696039e-08, 3.943555845466981e-08, 0))
hIsland = hIsland.sub(rect(2.9090686782104556e-09, -4.677999826066167e-10).transl(1.1119960757318735e-07, 1.4300723044124484e-08, 0))
hIsland = hIsland.add(rect(8.608055537176004e-09, 1.9149281258053058e-09).transl(-6.323809542688902e-08, 3.980032893023661e-08, 0))
hIsland = hIsland.sub(rect(2.2592753517578165e-09, -6.616317724248442e-10).transl(4.75394746528987e-08, 4e-08, 0))
hIsland = hIsland.sub(rect(3.6905461456271563e-09, -2.4404117045804655e-09).transl(-5.296222357049193e-08, 4e-08, 0))
hIsland = hIsland.sub(rect(4.778976829613843e-09, -2.3585130022582644e-09).transl(2.1766766097223193e-08, 4e-08, 0))
hIsland = hIsland.sub(rect(4.5337984875812154e-09, -2.785340755757137e-09).transl(5.696607594082013e-08, 4e-08, 0))
hIsland = hIsland.add(rect(4.657343272014493e-09, 6.580491211137485e-09).transl(1.0892895378880901e-07, 1.7889392064335476e-08, 0))
hIsland = hIsland.add(rect(7.1755821391018185e-09, 1.4151010977120113e-09).transl(3.5925070886743825e-08, 4e-08, 0))
hIsland = hIsland.add(rect(8.287164934275873e-09, 1.9295400112492886e-09).transl(1.0594879177776744e-07, 2.1542367420590223e-08, 0))
hIsland = hIsland.sub(rect(2.2774523847950193e-09, -6.38651384297879e-10).transl(-9.521043932631306e-08, 3.019621491474918e-08, 0))
hIsland = hIsland.sub(rect(4.367719368049842e-09, -9.355310677514518e-10).transl(-5.389772773835285e-08, 4e-08, 0))
hIsland = hIsland.add(rect(9.233663480517652e-09, 2.6617786750253364e-09).transl(-1.5901512492986485e-08, 4e-08, 0))
hIsland = hIsland.add(rect(3.4479328033367988e-09, 4.4104994155845727e-10).transl(-6.709461135802997e-08, 3.943920493921107e-08, 0))
hIsland = hIsland.add(rect(3.4103922047087762e-09, 1.23806531578898e-09).transl(8.85483810678918e-08, 3.366732319565832e-08, 0))
hIsland = hIsland.sub(rect(9.908124038042116e-09, -1.8544404212480475e-09).transl(4.0682102725097094e-08, 4e-08, 0))
hIsland = hIsland.sub(rect(7.827413949013716e-09, -3.064863683334686e-09).transl(-4.691927062919002e-08, 4e-08, 0))
hIsland = hIsland.sub(rect(4.554398875916784e-09, -3.2589697262323997e-09).transl(-5.316098858983042e-08, 4e-08, 0))
hIsland = hIsland.add(rect(7.630542628974384e-09, 2.643715515986564e-10).transl(7.54922337975208e-08, 3.7991332159415656e-08, 0))
hIsland = hIsland.add(rect(5.906800407453544e-09, 1.885613122727165e-09).transl(4.73837295038212e-08, 4e-08, 0))
hIsland = hIsland.add(rect(5.712595311772188e-09, 1.776525673871129e-09).transl(4.719358071811893e-08, 4e-08, 0))
hIsland = hIsland.add(rect(9.416162124637535e-09, 1.6096091243377004e-09).transl(-2.3635330218840497e-08, 4e-08, 0))
hIsland = hIsland.add(rect(5.3296898396774675e-09, 4.0307774680546924e-10).transl(-3.288348575983463e-08, 4e-08, 0))
hIsland = hIsland.sub(rect(2.7218074960492028e-09, -1.0319810206406842e-09).transl(-5.2753444656182784e-08, 4e-08, 0))
hIsland = hIsland.sub(rect(2.542003789161295e-09, -1.4947295539806548e-09).transl(5.9061159609178945e-08, 3.998525417833999e-08, 0))
hIsland = hIsland.add(rect(9.980704739388927e-09, 7.004877372568718e-10).transl(-5.388701408044298e-08, 4e-08, 0))
hIsland = hIsland.add(rect(3.432534448931982e-09, 3.5852799732170393e-09).transl(4.533660485835576e-08, 4e-08, 0))
hIsland = hIsland.add(rect(9.40311242886341e-09, 1.6057747523030915e-09).transl(-3.2156450446492525e-08, 4e-08, 0))
hIsland = hIsland.sub(rect(9.322112156364813e-09, -8.009261108924773e-10).transl(1.1352906201075072e-08, 4e-08, 0))
hIsland = hIsland.sub(rect(9.394431243893864e-09, -3.9678834883010835e-10).transl(6.943417620604041e-08, 3.9128968866273435e-08, 0))
hIsland = hIsland.add(rect(5.073924995072733e-09, 2.2690546980413236e-09).transl(1.0859194760665253e-07, 1.8350757018031325e-08, 0))
hIsland = hIsland.add(rect(3.7059707005060645e-09, 2.1311425676103255e-09).transl(5.860340270906657e-08, 3.999263449743842e-08, 0))
hIsland = hIsland.sub(rect(6.747009780794336e-09, -2.4359626242271705e-09).transl(-2.660899897973551e-08, 4e-08, 0))
hIsland = hIsland.add(rect(6.182708060546575e-09, 8.125442872382892e-10).transl(-1.0978630760442896e-07, 1.6643280716214924e-08, 0))
hIsland = hIsland.sub(rect(8.163034193571868e-09, -1.7240145286614117e-09).transl(1.0055512819815074e-07, 2.6512525825769437e-08, 0))
hIsland = hIsland.sub(rect(7.767071968877443e-09, -2.364254549663666e-10).transl(4.710916050965403e-08, 4e-08, 0))
hIsland = hIsland.sub(rect(5.201726521801979e-09, -2.274192462046795e-09).transl(-6.866149403256831e-08, 3.923916750681137e-08, 0))
hIsland = hIsland.sub(rect(8.699948159227606e-09, -1.685740336549035e-09).transl(-1.0958580939577879e-07, 1.694478555132181e-08, 0))
hIsland = hIsland.sub(rect(8.596944014436776e-09, -3.5486404380140483e-09).transl(1.981903894552147e-08, 4e-08, 0))
hIsland = hIsland.add(rect(9.477945251137215e-09, 2.7527370441723154e-10).transl(-9.234901835286669e-08, 3.18164559994021e-08, 0))
hIsland = hIsland.add(rect(7.325636033736174e-09, 9.158365697793183e-10).transl(1.033512197383441e-07, 2.413738270586775e-08, 0))
hIsland = hIsland.add(rect(6.49259785519343e-09, 1.9651134621484304e-10).transl(8.031488093404724e-08, 3.671654024392995e-08, 0))
hIsland = hIsland.sub(rect(3.390534190442942e-09, -3.2108939234837327e-09).transl(8.356787720664407e-08, 3.56532141723228e-08, 0))
hIsland = hIsland.sub(rect(6.193966108775859e-09, -2.9720736268198176e-09).transl(-1.011646967450574e-07, 2.6025613749875092e-08, 0))
hIsland = hIsland.sub(rect(7.197716517371081e-09, -7.015836762187475e-10).transl(7.800891058802672e-08, 3.736911510824951e-08, 0))
hIsland = hIsland.sub(rect(8.733393400903333e-09, -5.476458878957875e-10).transl(7.563263021520104e-08, 3.795901622109907e-08, 0))
hIsland = hIsland.sub(rect(8.611585071054538e-09, -6.617129499544765e-10).transl(-3.1866714435347206e-08, 4e-08, 0))
hIsland = hIsland.sub(rect(8.964440860800495e-09, -2.992526559830577e-10).transl(-3.7351564696176415e-08, 4e-08, 0))
hIsland = hIsland.add(rect(4.430759367227667e-09, 1.3624429720790092e-09).transl(8.681798396243591e-08, 3.440986936370626e-08, 0))
hIsland = hIsland.sub(rect(3.764388071693039e-09, -2.506125056634986e-09).transl(-4.587593808116323e-08, 4e-08, 0))
hIsland = hIsland.add(rect(2.318307467530721e-09, 3.2579176124017726e-10).transl(7.555705997310686e-08, 3.797644533607928e-08, 0))
hIsland = hIsland.add(rect(8.140256230800407e-09, 2.7940625847236264e-10).transl(7.834024671762126e-08, 3.728029867067571e-08, 0))
hIsland = hIsland.sub(rect(3.6786511464066884e-09, -2.509178366780361e-09).transl(-1.1006502728820388e-07, 1.62128437489731e-08, 0))
hIsland = hIsland.add(rect(3.522864837703378e-09, 2.304241937917578e-09).transl(-6.114441480986525e-08, 3.991957580383785e-08, 0))
hIsland = hIsland.add(rect(6.1859624110001525e-09, 3.561843657784643e-09).transl(3.2750482392767484e-08, 4e-08, 0))
hIsland = hIsland.add(rect(3.951154047283676e-09, 1.974282020565349e-10).transl(1.681077124916911e-08, 4e-08, 0))
hIsland = hIsland.sub(rect(7.1619516366856316e-09, -1.702057068699262e-09).transl(-4.224362236679353e-08, 4e-08, 0))
hIsland = hIsland.add(rect(5.499140251128151e-09, 1.4823130419823407e-09).transl(6.818695119704875e-09, 4e-08, 0))
hIsland = hIsland.sub(rect(9.48072399081754e-09, -1.4490577058607778e-10).transl(-6.711363632089717e-08, 3.943696286462559e-08, 0))
hIsland = hIsland.sub(rect(6.084178089824262e-09, -2.5574360568806813e-09).transl(-2.2044661139587573e-08, 4e-08, 0))
hIsland = hIsland.sub(rect(9.046053979931901e-09, -4.225303469505054e-10).transl(-4.586207424179484e-08, 4e-08, 0))
hIsland = hIsland.sub(rect(5.425377915061098e-09, -1.127797958437771e-09).transl(-4.3614166419731404e-08, 4e-08, 0))
hIsland = hIsland.add(rect(3.771663733265998e-09, 4.106071884220081e-09).transl(-1.7798750631095495e-08, 4e-08, 0))
hIsland = hIsland.add(rect(2.4384859108519577e-09, 9.430440969896781e-10).transl(-8.156291041266063e-08, 3.6328940997681795e-08, 0))
hIsland = hIsland.sub(rect(3.804256636501822e-09, -2.12108409104031e-09).transl(1.844057530662621e-08, 4e-08, 0))
hIsland = hIsland.add(rect(5.223991984845236e-09, 6.482925323326788e-10).transl(1.0327886968496572e-07, 2.420374852367351e-08, 0))
hIsland = hIsland.sub(rect(7.390535516236845e-09, -3.8698069504508247e-10).transl(-3.298513129535656e-08, 4e-08, 0))
hIsland = hIsland.add(rect(8.948233849212782e-09, 1.3862005813749613e-09).transl(-6.604227658600117e-08, 3.9556127831830034e-08, 0))
hIsland = hIsland.add(rect(9.132454745831525e-09, 1.6605835100904665e-09).transl(2.048147757018467e-08, 4e-08, 0))
hIsland = hIsland.sub(rect(4.774147092682491e-09, -2.137616540437654e-09).transl(6.960295956899727e-09, 4e-08, 0))
hIsland = hIsland.sub(rect(2.8991068755555996e-09, -1.9646088079333444e-09).transl(-9.749211786693196e-08, 2.8740459423999668e-08, 0))
hIsland = hIsland.add(rect(8.850424261651104e-09, 2.3684621004719435e-09).transl(4.8452459241380686e-08, 4e-08, 0))
hIsland = hIsland.sub(rect(2.092457949676356e-09, -4.851141580578411e-12).transl(-1.3367127874255541e-08, 4e-08, 0))
hIsland = hIsland.sub(rect(9.98307641466105e-09, -9.195955899316731e-10).transl(-9.732090321999579e-08, 2.8855277065556778e-08, 0))
hIsland = hIsland.add(rect(6.568556875765568e-09, 1.5800820536373737e-09).transl(-5.2309692170376936e-08, 4e-08, 0))
hIsland = hIsland.sub(rect(2.600195462094977e-09, -1.6884718620252186e-09).transl(5.561523013922064e-08, 4e-08, 0))
hIsland = hIsland.add(rect(7.569196526913214e-09, 1.0896031118324454e-09).transl(4.124812091962871e-08, 4e-08, 0))
hIsland = hIsland.sub(rect(6.957703600946944e-09, -8.678130491605801e-10).transl(-2.1081896717998472e-08, 4e-08, 0))
hIsland = hIsland.sub(rect(7.56276644345455e-09, -1.3724271597316766e-09).transl(-1.3082242604161366e-08, 4e-08, 0))
hIsland = hIsland.sub(rect(7.260922675093537e-09, -9.688788309530767e-10).transl(-1.224954435708227e-08, 4e-08, 0))
hIsland = hIsland.sub(rect(3.5917577462432427e-09, -2.907831775017167e-09).transl(8.09995414107258e-08, 3.65069721101445e-08, 0))
hIsland = hIsland.add(rect(7.942605791384853e-09, 6.688886730777322e-10).transl(-3.2511309576211065e-08, 4e-08, 0))
hIsland = hIsland.sub(rect(4.438577695216771e-09, -3.9000980239980504e-10).transl(-3.468968985973573e-08, 4e-08, 0))
hIsland = hIsland.add(rect(4.161017705238434e-09, 1.3195081880301357e-09).transl(-1.3985079583255689e-10, 4e-08, 0))
hIsland = hIsland.sub(rect(5.4849515245608836e-09, -2.7351756226930035e-09).transl(-1.0229587771862637e-07, 2.5078037405195058e-08, 0))
hIsland = hIsland.sub(rect(7.618313056866546e-09, -2.0704670017348344e-09).transl(7.317126404095703e-08, 3.8485735941562965e-08, 0))
hIsland = hIsland.add(rect(7.317474703448662e-09, 2.25141489070345e-09).transl(-4.6680519991276115e-09, 4e-08, 0))
hIsland = hIsland.sub(rect(8.230473560905732e-09, -4.395844283355392e-10).transl(-2.9655018823558656e-08, 4e-08, 0))
hIsland = hIsland.add(rect(3.181405688818756e-09, 7.843203320548269e-10).transl(7.43375874252986e-08, 3.8246610147231465e-08, 0))
hIsland = hIsland.sub(rect(9.00304649255766e-09, -3.0203047466645966e-11).transl(1.8753052537215598e-08, 4e-08, 0))
hIsland = hIsland.add(rect(4.185192127721601e-09, 1.8999242864545394e-09).transl(1.3816260561155343e-09, 4e-08, 0))
hIsland = hIsland.sub(rect(4.42479462781311e-09, -1.7691748142810724e-09).transl(8.249450001531754e-09, 4e-08, 0))
vIsland = hIsland.rotz(pi / 2)
hIslands = hIslands.add(hIsland.transl(-a/2, a, 0))
hIsland = rect(islandLength-2*ellipseConstant, islandWidth)
hIsland = hIsland.add(ellipse(ellipseConstant*2, islandWidth).transl(islandLength/2-ellipseConstant, 0, 0))
hIsland = hIsland.add(ellipse(ellipseConstant*2, islandWidth).transl(-islandLength/2+ellipseConstant, 0, 0))
hIsland = hIsland.add(rect(6.5593953849958955e-09, 1.4975863293972445e-10).transl(1.7153300400886504e-08, -4e-08, 0))
hIsland = hIsland.sub(rect(2.188797943327171e-09, -4.843379921725378e-09).transl(8.992804964671567e-08, -3.303191813245e-08, 0))
hIsland = hIsland.add(rect(5.982045894569289e-09, 3.3852194762160075e-10).transl(9.906725138514676e-08, -2.763774181575452e-08, 0))
hIsland = hIsland.add(rect(7.094199524065934e-09, 8.196471104076648e-10).transl(-1.0258336862352128e-07, -2.482747303030319e-08, 0))
hIsland = hIsland.sub(rect(4.555402770563702e-09, -4.142358379064407e-10).transl(8.155514398488177e-08, -3.633142994697783e-08, 0))
hIsland = hIsland.add(rect(9.998257528788606e-09, 2.508058935224124e-09).transl(6.466282688104262e-08, -3.968842834490467e-08, 0))
hIsland = hIsland.add(rect(6.45267529706684e-09, 3.8163118249268894e-09).transl(-9.537650754034339e-08, -3.0095461388911244e-08, 0))
hIsland = hIsland.sub(rect(5.611252778270258e-09, -1.7939090929733422e-09).transl(-5.8766922131725006e-08, -3.99902893819771e-08, 0))
hIsland = hIsland.add(rect(8.850607915512861e-09, 1.7606977629501362e-09).transl(-2.5598713920348275e-08, -4e-08, 0))
hIsland = hIsland.sub(rect(4.391451114866324e-09, -3.1298453624395437e-09).transl(1.0244186223721302e-07, -2.495131852950032e-08, 0))
hIsland = hIsland.sub(rect(8.852356528651563e-09, -9.106855374224263e-10).transl(2.6464568012071318e-08, -4e-08, 0))
hIsland = hIsland.add(rect(9.616565651919882e-09, 3.1554591488431928e-09).transl(1.0890202570140494e-07, -1.7926806077108013e-08, 0))
hIsland = hIsland.sub(rect(8.592834595681816e-09, -2.1424076601358682e-10).transl(-5.062199411262286e-08, -4e-08, 0))
hIsland = hIsland.add(rect(6.8234822589862544e-09, 4.309482181513845e-10).transl(-3.571498807499891e-08, -4e-08, 0))
hIsland = hIsland.sub(rect(3.37587396462482e-09, -2.5464252321048355e-10).transl(2.7562589402060717e-08, -4e-08, 0))
hIsland = hIsland.add(rect(2.621541463745602e-09, 1.8242068130286543e-09).transl(-2.9047430278190363e-08, -4e-08, 0))
hIsland = hIsland.add(rect(9.727917405745262e-09, 3.0320597645196588e-09).transl(-4.900052091943295e-08, -4e-08, 0))
hIsland = hIsland.add(rect(3.219465401374128e-09, 1.151080723555905e-09).transl(1.0325931182331274e-07, -2.4221639532661424e-08, 0))
hIsland = hIsland.add(rect(4.365452045022351e-09, 1.3961803061310644e-10).transl(7.467322118281084e-09, -4e-08, 0))
hIsland = hIsland.add(rect(6.408956646608947e-09, 3.3068317808174107e-09).transl(-6.351425751379899e-08, -3.978059269966243e-08, 0))
hIsland = hIsland.add(rect(8.194320741658553e-09, 1.4880806994733437e-09).transl(4.7600795255460374e-08, -4e-08, 0))
hIsland = hIsland.sub(rect(6.081666623555858e-09, -2.1920184549307413e-09).transl(-1.3669366070083948e-09, -4e-08, 0))
hIsland = hIsland.sub(rect(5.800555153354149e-09, -2.315641512055074e-09).transl(1.101637171498317e-07, -1.605710634606084e-08, 0))
hIsland = hIsland.add(rect(8.335339068833597e-09, 3.151716040895728e-09).transl(1.1309333691101686e-07, -1.0215217911408712e-08, 0))
hIsland = hIsland.sub(rect(2.320311896619452e-09, -2.249160270292659e-09).transl(2.0744015049422353e-08, -4e-08, 0))
hIsland = hIsland.add(rect(9.664089682631626e-09, 3.424979178183359e-10).transl(5.72603379949019e-08, -4e-08, 0))
hIsland = hIsland.add(rect(3.2053680293363387e-09, 3.162949350456975e-10).transl(-3.639206758565395e-08, -4e-08, 0))
hIsland = hIsland.add(rect(4.272303823876277e-09, 9.523182120810896e-10).transl(6.816325285732711e-08, -3.930616410424876e-08, 0))
hIsland = hIsland.sub(rect(5.625332651256392e-09, -1.6679447531068054e-09).transl(9.250121114588595e-08, -3.1735505924380315e-08, 0))
hIsland = hIsland.add(rect(9.424990131161556e-09, 1.554358819585718e-11).transl(-1.1468411539721074e-07, -4.187048677719025e-09, 0))
hIsland = hIsland.add(rect(6.846703820665825e-09, 1.5512016238645427e-09).transl(-9.648431761259261e-08, -2.9402913932720813e-08, 0))
hIsland = hIsland.add(rect(5.057407772976082e-09, 2.1846063121345655e-09).transl(-1.0755513407744708e-07, -1.968503358239798e-08, 0))
hIsland = hIsland.add(rect(7.73513007908661e-09, 5.758691802490363e-10).transl(-1.5978731740957003e-08, -4e-08, 0))
hIsland = hIsland.sub(rect(6.210144774838897e-09, -2.250963323263871e-09).transl(1.0345203164126045e-07, -2.404442807064872e-08, 0))
hIsland = hIsland.add(rect(8.221728672157078e-09, 1.6966141398983073e-09).transl(8.059165966125363e-08, -3.663271093551954e-08, 0))
hIsland = hIsland.add(rect(6.044313142197858e-09, 1.541862436407946e-09).transl(4.846216002212471e-08, -4e-08, 0))
hIsland = hIsland.sub(rect(4.400968732681783e-09, -1.0719819365264579e-09).transl(-3.865202990108959e-08, -4e-08, 0))
hIsland = hIsland.sub(rect(8.936758309761577e-09, -1.205646218664569e-10).transl(7.508626970468936e-08, -3.808321200015839e-08, 0))
hIsland = hIsland.sub(rect(7.313985434855186e-09, -8.055225674973932e-10).transl(1.020490824591905e-07, -2.528989160210784e-08, 0))
hIsland = hIsland.add(rect(4.565014353901411e-09, 2.501735901414995e-09).transl(-2.686799662685082e-08, -4e-08, 0))
hIsland = hIsland.sub(rect(4.675101086942207e-09, -7.301470943038314e-10).transl(-9.796358858307334e-08, -2.8419311298917313e-08, 0))
hIsland = hIsland.add(rect(7.453104916919269e-09, 2.5973271082309716e-09).transl(2.8260869068316455e-08, -4e-08, 0))
hIsland = hIsland.add(rect(3.672583618186356e-09, 1.6126329651540755e-09).transl(6.75201229979995e-08, -3.9387965752243966e-08, 0))
hIsland = hIsland.add(rect(6.300787195701654e-09, 1.5400319670453237e-09).transl(1.2695375585523945e-08, -4e-08, 0))
hIsland = hIsland.sub(rect(7.291458400983092e-09, -3.565212834467592e-09).transl(2.7272438315163048e-08, -4e-08, 0))
hIsland = hIsland.add(rect(5.9550775498649124e-09, 6.257948392849919e-10).transl(-4.05911457547611e-08, -4e-08, 0))
hIsland = hIsland.sub(rect(5.981504348362648e-09, -2.482163830627596e-09).transl(7.604081629559235e-08, -3.786347381648282e-08, 0))
hIsland = hIsland.add(rect(9.882923896885394e-09, 1.2167710481821507e-09).transl(-6.261501118390739e-08, -3.9841419706340064e-08, 0))
hIsland = hIsland.add(rect(2.571031526707208e-09, 7.268860646947521e-10).transl(-4.602448791170503e-08, -4e-08, 0))
hIsland = hIsland.sub(rect(7.131841667653419e-09, -9.74189303655729e-10).transl(-8.345849890117799e-08, -3.569181310998122e-08, 0))
hIsland = hIsland.add(rect(4.244487554356494e-09, 3.6896377582172174e-09).transl(1.4167038974339117e-08, -4e-08, 0))
hIsland = hIsland.sub(rect(4.209142109052107e-09, -2.0943152135731157e-09).transl(8.32830499809904e-08, -3.5753302739067705e-08, 0))
hIsland = hIsland.sub(rect(4.402158119142818e-09, -3.06670928173878e-09).transl(2.9283969694446638e-08, -4e-08, 0))
hIsland = hIsland.add(rect(6.887387773490407e-09, 1.5180572984681666e-09).transl(-2.180011762979934e-08, -4e-08, 0))
hIsland = hIsland.add(rect(9.508993705485297e-09, 1.6942621753686057e-09).transl(7.70324842706386e-08, -3.7621420488744964e-08, 0))
hIsland = hIsland.sub(rect(3.340623004385667e-09, -2.3155702312735274e-09).transl(7.630476601497596e-08, -3.780042803968532e-08, 0))
hIsland = hIsland.add(rect(8.065423936638346e-09, 4.111290745921254e-10).transl(-4.736596784279936e-08, -4e-08, 0))
hIsland = hIsland.sub(rect(7.082808781668444e-09, -1.2825790639303496e-09).transl(-5.575133151807339e-08, -4e-08, 0))
hIsland = hIsland.add(rect(8.602295585388508e-09, 1.2344047593802476e-09).transl(7.999166414190027e-08, -3.681291821672008e-08, 0))
hIsland = hIsland.add(rect(7.796182904802838e-09, 2.5035552469917332e-09).transl(7.268586582954326e-08, -3.8579790066317066e-08, 0))
hIsland = hIsland.sub(rect(7.992625296436604e-09, -1.606652704160124e-09).transl(1.0645646466340888e-07, -2.0979589024010318e-08, 0))
hIsland = hIsland.sub(rect(3.0455708958710954e-09, -1.3751091118896596e-09).transl(9.803992033296423e-08, -2.836661833788845e-08, 0))
hIsland = hIsland.add(rect(3.160139576998285e-09, 3.95630251960906e-09).transl(3.0921292290617735e-08, -4e-08, 0))
hIsland = hIsland.add(rect(8.163918682295997e-09, 2.199467371153657e-09).transl(6.044149934662668e-08, -3.9947625940896934e-08, 0))
hIsland = hIsland.add(rect(6.86849279435231e-09, 2.068696048405107e-09).transl(4.083923136875405e-08, -4e-08, 0))
hIsland = hIsland.add(rect(3.231691314645173e-09, 1.1943631781787103e-09).transl(4.7156599284898133e-08, -4e-08, 0))
hIsland = hIsland.add(rect(4.620980057697461e-09, 1.929809248963199e-09).transl(6.994343106907049e-08, -3.905212507007824e-08, 0))
hIsland = hIsland.sub(rect(9.564016304342557e-09, -1.6515029025738046e-09).transl(1.8575709611895804e-08, -4e-08, 0))
hIsland = hIsland.add(rect(5.546354131526695e-09, 8.70657049076381e-10).transl(8.469487221707712e-09, -4e-08, 0))
hIsland = hIsland.add(rect(7.080491397450009e-09, 7.858385749532082e-10).transl(7.645909595236079e-08, -3.776310314165354e-08, 0))
hIsland = hIsland.add(rect(4.153694281128191e-09, 2.4130324186491995e-09).transl(-9.648849509762897e-08, -2.940023327215024e-08, 0))
hIsland = hIsland.add(rect(6.921037687161909e-09, 3.2259439940039693e-09).transl(-8.900849285713904e-08, -3.3459820125433144e-08, 0))
hIsland = hIsland.add(rect(9.185722734518589e-09, 6.370495025830127e-11).transl(-5.1438756293057415e-09, -4e-08, 0))
hIsland = hIsland.sub(rect(8.787972539533726e-09, -9.362163000178524e-10).transl(-4.2978389656927133e-08, -4e-08, 0))
hIsland = hIsland.sub(rect(8.608244937838208e-09, -4.084447749093554e-09).transl(-2.2409690025185506e-08, -4e-08, 0))
hIsland = hIsland.sub(rect(7.696642216497632e-09, -6.818677261048459e-10).transl(-7.011483395518076e-08, -3.9025503920519466e-08, 0))
hIsland = hIsland.sub(rect(8.67679521315074e-09, -2.0951310734585943e-11).transl(7.452637899261743e-08, -3.820614216176931e-08, 0))
hIsland = hIsland.add(rect(6.731497364539767e-09, 2.600969334959002e-10).transl(1.0172367012969963e-07, -2.5564786748311547e-08, 0))
hIsland = hIsland.add(rect(3.1200427765867805e-09, 2.215027046230374e-09).transl(-5.5916617084088876e-08, -4e-08, 0))
hIsland = hIsland.add(rect(7.911823700654146e-09, 5.618032118149228e-10).transl(1.0338405703269758e-07, -2.4107166510346683e-08, 0))
hIsland = hIsland.add(rect(8.059687291667415e-09, 1.133980978241492e-09).transl(-8.858687660814438e-08, -3.365012807802223e-08, 0))
hIsland = hIsland.sub(rect(3.506823116701547e-09, -1.2747739869385553e-09).transl(2.818250163247177e-08, -4e-08, 0))
hIsland = hIsland.add(rect(8.060006134609296e-09, 2.787039154765139e-09).transl(6.832461679865364e-08, -3.9284813436783115e-08, 0))
hIsland = hIsland.sub(rect(3.824710917761787e-09, -2.2974456927559547e-09).transl(-3.941153617664861e-08, -4e-08, 0))
hIsland = hIsland.add(rect(7.01043624314752e-09, 2.8290562410657166e-12).transl(2.150822477698216e-08, -4e-08, 0))
hIsland = hIsland.add(rect(2.423404912119282e-09, 8.38080000188601e-10).transl(8.38718337082555e-08, -3.554487445834328e-08, 0))
hIsland = hIsland.sub(rect(8.884162729109441e-09, -2.893104205542821e-10).transl(-2.013261288760713e-08, -4e-08, 0))
hIsland = hIsland.sub(rect(4.13316443438867e-09, -2.644422383141946e-10).transl(4.1999333264595776e-08, -4e-08, 0))
hIsland = hIsland.sub(rect(7.404022263638735e-09, -1.377124551803657e-09).transl(-1.0773757601496852e-07, -1.9458822053569658e-08, 0))
hIsland = hIsland.sub(rect(3.867494977690383e-09, -3.6403346579903792e-09).transl(-3.4581435955610395e-08, -4e-08, 0))
hIsland = hIsland.add(rect(2.7644515430300897e-09, 1.0911863769270416e-09).transl(-1.0268480228978267e-07, -2.4738076403026003e-08, 0))
hIsland = hIsland.sub(rect(3.4561977983381456e-09, -1.8940291425482443e-09).transl(9.02873013044854e-08, -3.285984948228698e-08, 0))
hIsland = hIsland.add(rect(3.511585814744508e-09, 4.246664423832067e-11).transl(-3.37559210611354e-08, -4e-08, 0))
hIsland = hIsland.sub(rect(2.6447146805518695e-09, -1.2079300251285656e-09).transl(1.591519963729912e-08, -4e-08, 0))
hIsland = hIsland.add(rect(9.195433634809257e-09, 3.4955195022533563e-10).transl(-1.0540656015291395e-07, -2.2121427335130978e-08, 0))
hIsland = hIsland.add(rect(6.3940105403161834e-09, 9.842194178911004e-10).transl(-1.0216479962315759e-07, -2.5190925118468006e-08, 0))
hIsland = hIsland.sub(rect(4.563526239692227e-09, -1.0470694754784287e-09).transl(-9.432670155009005e-08, -3.071951522097486e-08, 0))
hIsland = hIsland.sub(rect(2.872521322669413e-09, -1.8244891414257288e-11).transl(-8.816652471237768e-08, -3.3836269035563296e-08, 0))
hIsland = hIsland.sub(rect(8.309018323066487e-09, -9.650776763298074e-10).transl(-7.012316291129358e-09, -4e-08, 0))
hIsland = hIsland.sub(rect(9.18473725947706e-09, -1.0008661009358875e-09).transl(3.117100510371757e-08, -4e-08, 0))
hIsland = hIsland.sub(rect(5.493304285938822e-09, -1.5238607412910773e-09).transl(6.838258621423908e-08, -3.9277062124389596e-08, 0))
hIsland = hIsland.add(rect(8.706841990160598e-09, 5.392344685088229e-10).transl(-3.1260392465705275e-08, -4e-08, 0))
hIsland = hIsland.sub(rect(8.477238209390375e-09, -3.048346885792539e-09).transl(6.756105019103367e-08, -3.93829165865281e-08, 0))
hIsland = hIsland.sub(rect(3.8480596212003785e-09, -2.575688623241714e-09).transl(-3.746360889117005e-08, -4e-08, 0))
hIsland = hIsland.add(rect(3.7145357219421967e-09, 1.8283453963495783e-09).transl(-4.914391472096804e-08, -4e-08, 0))
hIsland = hIsland.add(rect(5.830196825756625e-09, 3.397345046593942e-10).transl(8.831016661957153e-08, -3.377306143465261e-08, 0))
hIsland = hIsland.sub(rect(3.082034949706266e-09, -9.191627895948101e-10).transl(-8.624459193078827e-08, -3.4643187948722215e-08, 0))
hIsland = hIsland.add(rect(6.610250668596186e-09, 2.1698227170744148e-09).transl(5.499957482287238e-09, -4e-08, 0))
hIsland = hIsland.sub(rect(6.596354535711361e-09, -4.839962064832526e-09).transl(-2.795973498776147e-09, -4e-08, 0))
hIsland = hIsland.add(rect(5.82191223115672e-09, 1.4271541549233995e-09).transl(-5.4668235424448874e-08, -4e-08, 0))
hIsland = hIsland.add(rect(8.712702115503063e-09, 1.8022047441551198e-09).transl(-9.398387960726008e-08, -3.091684044967184e-08, 0))
hIsland = hIsland.add(rect(6.755007460006633e-09, 1.6397063779828464e-09).transl(-8.473172245931843e-08, -3.522970591796455e-08, 0))
hIsland = hIsland.sub(rect(5.429410610150149e-09, -3.051370381739735e-09).transl(-5.359758851184977e-08, -4e-08, 0))
hIsland = hIsland.add(rect(7.896717733790896e-09, 2.5592858558677054e-09).transl(7.783340200266949e-08, -3.741550044549524e-08, 0))
hIsland = hIsland.add(rect(9.687821638934074e-09, 3.0356544724247578e-09).transl(6.893080386036183e-08, -3.9201630909977677e-08, 0))
hIsland = hIsland.add(rect(3.2619188961119454e-09, 8.666861850751406e-10).transl(2.902609376044956e-08, -4e-08, 0))
hIsland = hIsland.sub(rect(8.384402125556536e-09, -2.4283047744330167e-10).transl(5.38901684420794e-08, -4e-08, 0))
hIsland = hIsland.sub(rect(3.39213029820171e-09, -1.5604555356013528e-10).transl(6.546311372386183e-08, -3.9614559244170544e-08, 0))
hIsland = hIsland.add(rect(6.473420005991558e-09, 2.1700388432397035e-10).transl(1.7010116021123085e-08, -4e-08, 0))
hIsland = hIsland.sub(rect(8.550178810183316e-09, -1.994683613858835e-09).transl(-8.584738892174782e-08, -3.4801216179824954e-08, 0))
hIsland = hIsland.sub(rect(5.77510493194336e-09, -1.5262463448764963e-09).transl(-4.9745594579471926e-08, -4e-08, 0))
hIsland = hIsland.add(rect(7.76004682491629e-09, 2.238997522180749e-11).transl(4.266109311505088e-08, -4e-08, 0))
hIsland = hIsland.sub(rect(5.4060311134604675e-09, -1.2267854233709119e-09).transl(-9.483630322132832e-08, -3.0420372930773685e-08, 0))
hIsland = hIsland.add(rect(9.073187081791926e-09, 1.8608503153563075e-09).transl(-7.215034608641898e-08, -3.867987084261493e-08, 0))
hIsland = hIsland.add(rect(4.064854076068167e-09, 2.89423673819098e-10).transl(5.790464420003413e-08, -3.99990095186034e-08, 0))
hIsland = hIsland.add(rect(8.37884867802604e-09, 2.777756634934407e-09).transl(1.140848175992827e-07, -7.108204319878746e-09, 0))
hIsland = hIsland.add(rect(4.425889140517004e-09, 3.509732423916382e-09).transl(-5.8131911920650806e-08, -3.99975844250559e-08, 0))
hIsland = hIsland.sub(rect(5.617516455241823e-09, -1.2417836354614773e-10).transl(-2.1065038364663687e-08, -4e-08, 0))
hIsland = hIsland.sub(rect(7.1352864852570576e-09, -6.097356998410434e-11).transl(5.444549180886468e-08, -4e-08, 0))
hIsland = hIsland.sub(rect(2.4276495910488605e-09, -2.0711469639831223e-09).transl(-4.9358577222657353e-08, -4e-08, 0))
hIsland = hIsland.sub(rect(2.5684523442369153e-09, -6.598749197733066e-10).transl(1.1024034571960433e-07, -1.5934929054692935e-08, 0))
hIsland = hIsland.sub(rect(9.899309822835257e-09, -3.037471259811194e-09).transl(-3.571561722498013e-08, -4e-08, 0))
hIsland = hIsland.sub(rect(3.707314061386435e-09, -1.6072503809273853e-09).transl(-6.76657731242439e-08, -3.936990028276303e-08, 0))
hIsland = hIsland.sub(rect(7.936161084766024e-09, -1.9342940086455407e-11).transl(-7.256171759316268e-08, -3.8603334766985844e-08, 0))
hIsland = hIsland.sub(rect(4.090252683220075e-09, -3.744799340457731e-10).transl(-5.605612253951061e-08, -4e-08, 0))
hIsland = hIsland.add(rect(9.819729995182857e-09, 1.6646795124003352e-09).transl(-7.395256380789786e-08, -3.832761384173088e-08, 0))
hIsland = hIsland.sub(rect(8.171585700608372e-09, -1.2112956878535023e-09).transl(-2.2795286432803202e-08, -4e-08, 0))
hIsland = hIsland.sub(rect(6.427056557590467e-09, -7.242454080133736e-10).transl(-7.078118813949838e-08, -3.891836666651715e-08, 0))
hIsland = hIsland.sub(rect(6.872677681125253e-09, -1.0436225445718048e-09).transl(2.3368012573860552e-08, -4e-08, 0))
hIsland = hIsland.add(rect(4.210787392131714e-09, 4.7845924048603704e-09).transl(-1.1217751295040076e-08, -4e-08, 0))
hIsland = hIsland.add(rect(3.3297214838142344e-09, 6.008031568936471e-10).transl(-3.4366389659779585e-08, -4e-08, 0))
hIsland = hIsland.add(rect(6.7413953100420835e-09, 2.1488819995740458e-09).transl(5.333644679554279e-08, -4e-08, 0))
hIsland = hIsland.sub(rect(4.770285821947228e-09, -2.3653252458030314e-09).transl(-1.4805296895379054e-08, -4e-08, 0))
hIsland = hIsland.add(rect(7.985787074398209e-09, 8.259654720109838e-10).transl(-3.412291558005572e-08, -4e-08, 0))
hIsland = hIsland.sub(rect(5.0963715048336455e-09, -6.967932091988734e-10).transl(-1.0127927885283792e-07, -2.5932292757048565e-08, 0))
hIsland = hIsland.add(rect(2.4349308435572017e-09, 1.3708281136812126e-09).transl(-3.026640806010698e-08, -4e-08, 0))
hIsland = hIsland.sub(rect(8.721061730682915e-09, -2.0290177835752526e-09).transl(-2.4655142754916014e-08, -4e-08, 0))
hIsland = hIsland.sub(rect(4.844123304432859e-09, -4.690649059731221e-09).transl(-8.714952047903747e-08, -3.427212128892306e-08, 0))
hIsland = hIsland.sub(rect(4.781544115001699e-09, -3.750186383801212e-09).transl(-1.4248356247038275e-08, -4e-08, 0))
hIsland = hIsland.sub(rect(2.616942421646898e-09, -1.0238628249566329e-09).transl(4.504690368058863e-08, -4e-08, 0))
hIsland = hIsland.sub(rect(6.987772687958685e-09, -8.916810082663276e-10).transl(2.9030542609538193e-08, -4e-08, 0))
hIsland = hIsland.sub(rect(7.869348355307706e-09, -9.755052398708324e-10).transl(2.0817600103492418e-08, -4e-08, 0))
hIsland = hIsland.add(rect(2.7283546032045963e-09, 2.5692428619383998e-09).transl(-4.682931859133796e-09, -4e-08, 0))
hIsland = hIsland.add(rect(2.4378202914213718e-09, 1.4208349195435788e-09).transl(8.639940380835479e-08, -3.4580802109712836e-08, 0))
hIsland = hIsland.sub(rect(8.695471653235874e-09, -1.0652492930763159e-09).transl(-6.213671106948952e-08, -3.986973669009797e-08, 0))
hIsland = hIsland.sub(rect(6.400054455016587e-09, -1.498211719955124e-09).transl(1.855779107915868e-08, -4e-08, 0))
hIsland = hIsland.add(rect(6.292548279132589e-09, 2.164938869898465e-09).transl(2.1420766567931742e-08, -4e-08, 0))
hIsland = hIsland.sub(rect(7.952030781504831e-09, -8.76091069244465e-10).transl(-2.7138238589536828e-08, -4e-08, 0))
hIsland = hIsland.add(rect(3.0900453962973025e-09, 1.8112701928031622e-09).transl(-2.1556250802725214e-08, -4e-08, 0))
hIsland = hIsland.sub(rect(7.471746871009698e-09, -8.787427492595243e-10).transl(8.76260197550261e-08, -3.40704338569233e-08, 0))
hIsland = hIsland.sub(rect(7.7027906226709e-09, -1.7024271488992275e-09).transl(-7.07597564206031e-08, -3.892190300103841e-08, 0))
hIsland = hIsland.sub(rect(6.265014765433235e-09, -4.2134587836000054e-10).transl(-1.0522540295443751e-07, -2.2310118487591274e-08, 0))
hIsland = hIsland.add(rect(6.6180564992556465e-09, 6.714954828580557e-10).transl(2.1421141171020636e-08, -4e-08, 0))
hIsland = hIsland.sub(rect(7.400337219225355e-09, -3.8270247107811625e-09).transl(-4.353038557192287e-08, -4e-08, 0))
hIsland = hIsland.add(rect(2.456301543360798e-09, 3.378797323864492e-10).transl(7.259939446227276e-08, -3.859621129528762e-08, 0))
hIsland = hIsland.add(rect(8.379875930996095e-09, 2.9176390191938207e-09).transl(4.134431853191588e-08, -4e-08, 0))
hIsland = hIsland.sub(rect(6.037169469814796e-09, -5.610414145952298e-10).transl(-5.8622954862080276e-08, -3.999237112809699e-08, 0))
hIsland = hIsland.add(rect(6.889350231063964e-09, 6.900241393882317e-11).transl(-1.4983210257083145e-09, -4e-08, 0))
hIsland = hIsland.sub(rect(8.783790535977584e-09, -2.67182358788226e-09).transl(2.212615583383398e-08, -4e-08, 0))
hIsland = hIsland.sub(rect(5.202246333000053e-09, -1.6725664577646622e-09).transl(3.8093663571165955e-08, -4e-08, 0))
hIsland = hIsland.add(rect(7.549475040916652e-09, 1.303745839569743e-09).transl(-1.0538751174557169e-07, -2.214137732447643e-08, 0))
hIsland = hIsland.sub(rect(4.544299178526899e-09, -2.6761260257535098e-09).transl(-2.5670579642507154e-08, -4e-08, 0))
hIsland = hIsland.sub(rect(3.5699290397375825e-09, -1.1394289875606031e-09).transl(-1.0887225322909686e-07, -1.7968058675650175e-08, 0))
hIsland = hIsland.sub(rect(6.2888364942517764e-09, -2.6010881313080392e-09).transl(-2.0561201630929917e-09, -4e-08, 0))
hIsland = hIsland.add(rect(9.682839742673316e-09, 8.662132239574281e-10).transl(-6.935025999236694e-08, -3.914130917877871e-08, 0))
hIsland = hIsland.add(rect(3.5260394742906105e-09, 6.272657623848843e-10).transl(5.256267606652677e-08, -4e-08, 0))
hIsland = hIsland.sub(rect(4.272397775966655e-09, -2.1235494276439133e-09).transl(6.437311457492351e-08, -3.971321188324632e-08, 0))
hIsland = hIsland.sub(rect(7.799325995980889e-09, -2.206212393523575e-09).transl(-4.501495489358223e-08, -4e-08, 0))
hIsland = hIsland.add(rect(9.855884131438535e-09, 1.4579668185428465e-10).transl(-7.4444114213808e-08, -3.822383658215622e-08, 0))
hIsland = hIsland.add(rect(7.213946589598175e-09, 2.3635936172459804e-09).transl(1.9188473570516178e-09, -4e-08, 0))
hIsland = hIsland.sub(rect(4.914219166965912e-09, -9.175399614365428e-10).transl(-5.278084170802569e-08, -4e-08, 0))
hIsland = hIsland.add(rect(8.105884306999054e-09, 3.537403749430199e-09).transl(3.4591526777014025e-08, -4e-08, 0))
hIsland = hIsland.add(rect(3.0784231898553804e-09, 1.4815146500006634e-09).transl(-4.279823901377357e-08, -4e-08, 0))
hIsland = hIsland.sub(rect(8.976589314413284e-09, -1.09155099140052e-09).transl(8.444489890320604e-08, -3.5336271182488646e-08, 0))
hIsland = hIsland.sub(rect(4.734801338374201e-09, -1.2440311747657224e-09).transl(3.753361623105334e-08, -4e-08, 0))
hIsland = hIsland.sub(rect(7.327280052895138e-09, -1.986736595220233e-09).transl(1.0222839672781292e-07, -2.5136258340468864e-08, 0))
hIsland = hIsland.sub(rect(5.941630157457663e-09, -2.0201953022670922e-09).transl(7.50303483076322e-09, -4e-08, 0))
hIsland = hIsland.add(rect(5.923977691242263e-09, 6.568963134819958e-10).transl(-8.656912501778775e-08, -3.4511892377839015e-08, 0))
hIsland = hIsland.add(rect(3.826923163790036e-09, 1.5038339496337604e-09).transl(5.4064021451181784e-08, -4e-08, 0))
hIsland = hIsland.add(rect(6.541023796229012e-09, 5.812229968043082e-10).transl(1.3649177330466515e-08, -4e-08, 0))
hIsland = hIsland.add(rect(8.461333927090585e-09, 1.993213114618454e-09).transl(1.1179395486077692e-08, -4e-08, 0))
hIsland = hIsland.add(rect(2.4955718430571973e-09, 1.154200664824419e-09).transl(-1.2221067994147567e-08, -4e-08, 0))
hIsland = hIsland.add(rect(8.744635476074846e-09, 1.3607495059419503e-09).transl(6.755632647419299e-08, -3.938350043265909e-08, 0))
hIsland = hIsland.sub(rect(5.413994351956181e-09, -3.2495913298461523e-10).transl(3.981965450396238e-08, -4e-08, 0))
hIsland = hIsland.add(rect(5.098792837116901e-09, 4.996198626598202e-10).transl(1.0981974641153447e-07, -1.6592349039139443e-08, 0))
hIsland = hIsland.sub(rect(3.123601642220935e-09, -6.90929888685964e-10).transl(8.109226635770213e-08, -3.6478019168900574e-08, 0))
hIsland = hIsland.add(rect(3.0177444070937737e-09, 5.537034983347942e-10).transl(-1.183090971820581e-08, -4e-08, 0))
hIsland = hIsland.sub(rect(6.44282825424867e-09, -3.451530957851953e-09).transl(-8.355094088466287e-08, -3.565920425461019e-08, 0))
hIsland = hIsland.sub(rect(2.290918212825009e-09, -2.189556677067452e-09).transl(-9.93253916972209e-08, -2.7448627802524195e-08, 0))
hIsland = hIsland.add(rect(6.90447458181251e-09, 1.5884937063656806e-09).transl(-9.232002329825118e-08, -3.183181494671967e-08, 0))
hIsland = hIsland.add(rect(4.588230421662101e-09, 2.5052625129542345e-09).transl(-1.9390363929843994e-08, 4e-08, 0))
hIsland = hIsland.add(rect(2.0268040523449252e-09, 1.103527001310878e-09).transl(5.570617924000337e-08, 4e-08, 0))
hIsland = hIsland.sub(rect(5.425259013335135e-09, -1.2124046193681332e-09).transl(-2.826275342915538e-09, 4e-08, 0))
hIsland = hIsland.add(rect(2.788389778517168e-09, 2.854754238170449e-09).transl(-4.4390215613826805e-09, 4e-08, 0))
hIsland = hIsland.sub(rect(6.046691851918688e-09, -3.5339425703585505e-09).transl(1.065641211079396e-07, 2.0857527193672007e-08, 0))
hIsland = hIsland.add(rect(5.38762678562549e-09, 4.803357632232016e-10).transl(5.051890057286642e-08, 4e-08, 0))
hIsland = hIsland.sub(rect(9.392512826338596e-09, -1.804071776223149e-09).transl(-1.2312420699041375e-08, 4e-08, 0))
hIsland = hIsland.add(rect(6.3492257766446e-09, 1.4920711176661175e-10).transl(1.0665122378359583e-07, 2.0758046397946545e-08, 0))
hIsland = hIsland.add(rect(3.749248007071223e-09, 4.490023159726508e-09).transl(-4.4860248637530854e-08, 4e-08, 0))
hIsland = hIsland.add(rect(7.851259003190049e-09, 3.8817218324624096e-10).transl(7.238549519357182e-08, 3.863639919720136e-08, 0))
hIsland = hIsland.sub(rect(3.5347751302982967e-09, -1.6746646025216108e-09).transl(1.0249955215381209e-07, 2.4900950032544908e-08, 0))
hIsland = hIsland.add(rect(2.8777886168187154e-09, 1.3504062685139227e-09).transl(-7.868219848237694e-09, 4e-08, 0))
hIsland = hIsland.sub(rect(3.3209209340185534e-09, -3.6499997446641692e-09).transl(6.811809341744941e-08, 3.931207983772391e-08, 0))
hIsland = hIsland.sub(rect(7.898248680764155e-09, -2.6173723439080786e-09).transl(1.1263948665355535e-07, 1.1343333690572455e-08, 0))
hIsland = hIsland.add(rect(8.569137525914819e-09, 2.3154317842471835e-09).transl(8.348325830954236e-08, 3.568309352849023e-08, 0))
hIsland = hIsland.sub(rect(6.387560487028988e-09, -7.325471044998768e-10).transl(-8.932826519881475e-08, 3.3313035330060486e-08, 0))
hIsland = hIsland.sub(rect(8.486690911472768e-09, -3.2180044484340553e-09).transl(1.0878370680459408e-07, 1.809005212814071e-08, 0))
hIsland = hIsland.add(rect(2.1355213888322206e-09, 3.770877684861533e-09).transl(-5.106513711366779e-08, 4e-08, 0))
hIsland = hIsland.sub(rect(3.5629027546327655e-09, -2.5427919091741136e-09).transl(-1.2278997130406667e-08, 4e-08, 0))
hIsland = hIsland.sub(rect(2.698077962199516e-09, -7.869114062958097e-10).transl(-8.990529951893943e-08, 3.3042720819421814e-08, 0))
hIsland = hIsland.add(rect(5.0995284630652e-09, 9.37352276848244e-10).transl(-6.867910799310781e-08, 3.9236740897650206e-08, 0))
hIsland = hIsland.sub(rect(2.428284044533635e-09, -2.2290141177774605e-09).transl(-5.255766663174537e-08, 4e-08, 0))
hIsland = hIsland.add(rect(2.943447260892198e-09, 1.079898367974259e-09).transl(-4.421667060466363e-08, 4e-08, 0))
hIsland = hIsland.add(rect(6.8877717423826255e-09, 1.3207218052070777e-09).transl(6.901292065712666e-08, 3.9190000085216486e-08, 0))
hIsland = hIsland.sub(rect(5.76824180143228e-09, -8.974445276285246e-10).transl(-1.7285319779281222e-08, 4e-08, 0))
hIsland = hIsland.add(rect(2.908702107974892e-09, 1.8798730581553335e-09).transl(8.35415596152057e-09, 4e-08, 0))
hIsland = hIsland.add(rect(8.182201298688146e-09, 4.19663303645678e-09).transl(-5.8783204262366506e-08, 3.9990038150497394e-08, 0))
[...]
hIsland = hIsland.add(rect(5.456552160745841e-09, 3.5683194017553436e-09).transl(-8.466814938139669e-08, 3.525345080248609e-08, 0))
hIsland = hIsland.add(rect(7.924465598603727e-09, 2.831297889166256e-09).transl(4.582160489422612e-08, 4e-08, 0))
hIsland = hIsland.sub(rect(7.986340848283056e-09, -4.1123965194805465e-11).transl(-6.57592773886262e-08, 3.9585202555908714e-08, 0))
hIsland = hIsland.sub(rect(6.235068906651147e-09, -1.1703242575217376e-09).transl(-2.599430630818955e-08, 4e-08, 0))
hIsland = hIsland.sub(rect(6.695010746695182e-09, -3.6633018203741526e-09).transl(-6.962705706657887e-08, 3.910025958865981e-08, 0))
hIsland = hIsland.sub(rect(6.5542092607628606e-09, -4.002651525355294e-09).transl(-3.990825825906283e-08, 4e-08, 0))
hIsland = hIsland.add(rect(6.103924352338365e-09, 1.3092335085003926e-09).transl(-9.250256631425374e-08, 3.1734782607580706e-08, 0))
hIsland = hIsland.add(rect(3.1852045941666288e-09, 2.1355520520154326e-09).transl(6.766385495971047e-08, 3.9370139947396434e-08, 0))
hIsland = hIsland.add(rect(2.118410923063264e-09, 3.704565619374646e-09).transl(-5.185323117711475e-08, 4e-08, 0))
hIsland = hIsland.add(rect(4.901066523933596e-09, 5.003278070305739e-10).transl(-5.277045998535016e-08, 4e-08, 0))
hIsland = hIsland.sub(rect(5.552633478632631e-09, -9.081337937009857e-10).transl(-8.027492181245198e-08, 3.6728543669608656e-08, 0))
hIsland = hIsland.add(rect(4.845100025830539e-09, 2.5853511224972454e-09).transl(8.448430137138494e-08, 3.532171758266736e-08, 0))
hIsland = hIsland.add(rect(9.51096121715018e-09, 2.4978007077840798e-09).transl(1.0732911503349726e-07, 1.996060295080605e-08, 0))
hIsland = hIsland.add(rect(6.407591150117179e-09, 2.2198875482516147e-09).transl(1.0733313351610798e-07, 1.9955747537091835e-08, 0))
hIsland = hIsland.sub(rect(7.452835091902783e-09, -1.2561500289867075e-09).transl(8.285900443202648e-08, 3.589976986302523e-08, 0))
hIsland = hIsland.add(rect(4.194642530199334e-09, 1.950835729317447e-09).transl(1.1022372765834292e-07, 1.596151957644314e-08, 0))
hIsland = hIsland.sub(rect(6.924246197549527e-09, -4.283006109322556e-09).transl(1.0525387619994673e-07, 2.228061415537046e-08, 0))
hIsland = hIsland.add(rect(6.8781566185765764e-09, 1.0492938305948565e-09).transl(7.118765125541804e-08, 3.885015418430145e-08, 0))
hIsland = hIsland.sub(rect(3.5917916707617786e-09, -2.632166283227679e-09).transl(9.541430585436572e-08, 3.0072420004452284e-08, 0))
hIsland = hIsland.add(rect(6.4163889655141695e-09, 1.602343968065865e-10).transl(7.806335291896622e-08, 3.73546336935561e-08, 0))
hIsland = hIsland.add(rect(4.055424331481769e-09, 6.426916503669686e-10).transl(7.233928291477794e-08, 3.8645000917523585e-08, 0))
hIsland = hIsland.add(rect(9.85488076830975e-09, 5.726496431474387e-10).transl(8.197427209182057e-08, 3.6195712532325614e-08, 0))
hIsland = hIsland.add(rect(3.6008640658264144e-09, 2.5672248657845033e-09).transl(-2.5559571562100835e-08, 4e-08, 0))
hIsland = hIsland.add(rect(2.229035510081201e-09, 4.682765451561408e-10).transl(1.1364477081681422e-07, 8.63322873857647e-09, 0))
hIsland = hIsland.sub(rect(8.299509905513742e-09, -2.4095024242459893e-09).transl(-6.07901377438596e-08, 3.9934464233148215e-08, 0))
hIsland = hIsland.sub(rect(8.69715500973511e-09, -1.0926233451690898e-09).transl(7.995121389937342e-08, 3.682486540189009e-08, 0))
hIsland = hIsland.add(rect(8.389158180701253e-09, 1.549243121636014e-09).transl(6.215122471331175e-08, 3.9868918581323124e-08, 0))
hIsland = hIsland.sub(rect(6.707769545293908e-09, -2.1108435563571213e-09).transl(3.655376976653666e-08, 4e-08, 0))
hIsland = hIsland.sub(rect(4.608975477961062e-09, -2.299936769222662e-09).transl(6.80005240704842e-08, 3.932735913838076e-08, 0))
hIsland = hIsland.sub(rect(7.1565400929234225e-09, -1.0932512385054026e-09).transl(3.4172746348377534e-08, 4e-08, 0))
hIsland = hIsland.add(rect(2.6217841711973557e-09, 2.8580362676494314e-09).transl(-9.169812624645047e-08, 3.215642795373225e-08, 0))
hIsland = hIsland.add(rect(6.934282408931245e-09, 8.241456783275278e-10).transl(-9.301181296264367e-08, 3.1459796766720936e-08, 0))
hIsland = hIsland.add(rect(5.355216732981191e-09, 4.0080332503716525e-10).transl(-3.57608866883864e-08, 4e-08, 0))
hIsland = hIsland.sub(rect(9.972779203579869e-09, -3.878433453282474e-09).transl(3.1183347558959196e-08, 4e-08, 0))
hIsland = hIsland.add(rect(6.441063280384908e-09, 2.32963459683797e-09).transl(-1.8011257340593795e-08, 4e-08, 0))
hIsland = hIsland.sub(rect(2.506956410491629e-09, -8.184742599453945e-10).transl(-7.045805250386701e-08, 3.8971046207314285e-08, 0))
hIsland = hIsland.add(rect(5.66913303823019e-09, 1.2674748304253503e-09).transl(-5.992623367992304e-08, 3.996437515368115e-08, 0))
hIsland = hIsland.sub(rect(5.717690979607187e-09, -3.726272240134764e-09).transl(-8.029930406645891e-08, 3.6721222389413676e-08, 0))
hIsland = hIsland.add(rect(4.342043351913569e-09, 7.833724367422801e-10).transl(-4.548455462933478e-08, 4e-08, 0))
hIsland = hIsland.sub(rect(4.05229264649141e-09, -2.4197520910934766e-09).transl(-4.744329952568598e-08, 4e-08, 0))
hIsland = hIsland.sub(rect(8.033120936298843e-09, -5.031785816303683e-10).transl(1.1423390147547295e-07, 6.507766536899674e-09, 0))
hIsland = hIsland.add(rect(7.0685850904738146e-09, 2.532922406128679e-10).transl(1.1132853654633224e-07, 1.4064198957801393e-08, 0))
hIsland = hIsland.add(rect(3.0889366086814248e-09, 1.219076734631797e-09).transl(1.53375903882439e-08, 4e-08, 0))
hIsland = hIsland.sub(rect(3.0646297897842846e-09, -3.0248908907702478e-09).transl(6.987570425184229e-08, 3.90625386256652e-08, 0))
hIsland = hIsland.add(rect(3.856499763193391e-09, 1.710815432296199e-09).transl(-2.9711628204976092e-08, 4e-08, 0))
hIsland = hIsland.sub(rect(7.728207243016058e-09, -1.4036280284128696e-10).transl(-1.0750411295257615e-07, 1.9747685566261372e-08, 0))
hIsland = hIsland.add(rect(9.16628285879016e-09, 1.028249539141022e-09).transl(4.9825704735235236e-08, 4e-08, 0))
hIsland = hIsland.add(rect(3.5898295802745185e-09, 4.9444525797259965e-11).transl(2.542899144163242e-08, 4e-08, 0))
hIsland = hIsland.sub(rect(8.81867178696942e-09, -9.404795656544325e-10).transl(3.3704304467039316e-08, 4e-08, 0))
hIsland = hIsland.add(rect(7.880138614304234e-09, 6.23912640859484e-10).transl(-4.2820716840232066e-08, 4e-08, 0))
hIsland = hIsland.sub(rect(6.800934870776595e-09, -1.4253709251496381e-09).transl(1.0175453928778412e-07, 2.5538922910033414e-08, 0))
hIsland = hIsland.sub(rect(8.372359873095207e-09, -7.718597976102272e-10).transl(-3.18538200605905e-08, 4e-08, 0))
hIsland = hIsland.sub(rect(9.573255719765687e-09, -3.858415690329798e-09).transl(-8.026688612782408e-08, 3.6730954515708226e-08, 0))
hIsland = hIsland.sub(rect(6.006950116140275e-09, -1.0007899868118498e-09).transl(-4.362213416371711e-08, 4e-08, 0))
hIsland = hIsland.add(rect(9.24067714321235e-09, 2.5807740990008345e-12).transl(-4.236895332319219e-09, 4e-08, 0))
hIsland = hIsland.sub(rect(4.32440725062912e-09, -8.63816058047097e-10).transl(-3.608020676555205e-08, 4e-08, 0))
hIsland = hIsland.sub(rect(2.383986905419162e-09, -9.780179278206183e-10).transl(1.0292186841084827e-07, 2.4527080467352574e-08, 0))
hIsland = hIsland.sub(rect(8.03599267769843e-09, -3.858585448664859e-09).transl(-2.1008605589616084e-08, 4e-08, 0))
hIsland = hIsland.add(rect(3.297744920908187e-09, 7.002958744343203e-10).transl(1.0217483354088965e-08, 4e-08, 0))
hIsland = hIsland.sub(rect(3.782321852815035e-09, -7.617385361305244e-10).transl(3.6664430858443316e-08, 4e-08, 0))
hIsland = hIsland.sub(rect(9.167204955776512e-09, -9.840161302237304e-10).transl(-1.1623506992859364e-09, 4e-08, 0))
hIsland = hIsland.add(rect(8.129586706204744e-09, 5.138129533013222e-10).transl(3.2203550403322544e-08, 4e-08, 0))
hIsland = hIsland.sub(rect(9.498352270043192e-09, -3.5413011235656836e-10).transl(1.7516671139654936e-08, 4e-08, 0))
hIsland = hIsland.sub(rect(2.101968191149877e-09, -1.790278479329943e-09).transl(1.0231726181763936e-07, 2.50595411594379e-08, 0))
hIsland = hIsland.add(rect(6.291937188827173e-09, 4.521824984670838e-09).transl(4.866989532969499e-08, 4e-08, 0))
hIsland = hIsland.add(rect(8.591061175058486e-09, 1.4104804362336607e-09).transl(4.141252088159391e-08, 4e-08, 0))
hIsland = hIsland.add(rect(9.47832038499977e-09, 1.5834711911363605e-09).transl(-9.320106415664274e-09, 4e-08, 0))
hIsland = hIsland.add(rect(3.029567551816445e-09, 8.843866534405917e-10).transl(-9.25846245636102e-09, 4e-08, 0))
hIsland = hIsland.sub(rect(7.820473143083515e-09, -2.7960151933991543e-09).transl(1.0336503022644778e-07, 2.4124681828738088e-08, 0))
hIsland = hIsland.sub(rect(3.063377455328091e-09, -2.2570942128086226e-10).transl(5.996440505489206e-08, 3.996324486130273e-08, 0))
hIsland = hIsland.sub(rect(5.220637377249565e-09, -3.1154602446502657e-10).transl(3.292768083178852e-08, 4e-08, 0))
hIsland = hIsland.sub(rect(5.269771749935115e-09, -2.145095239666341e-09).transl(-7.396914292274571e-10, 4e-08, 0))
hIsland = hIsland.add(rect(7.2193297440668296e-09, 6.134236328173192e-10).transl(4.520525619593954e-08, 4e-08, 0))
hIsland = hIsland.sub(rect(8.432366420764698e-09, -2.0933556057499857e-09).transl(-1.794345787672539e-08, 4e-08, 0))
hIsland = hIsland.sub(rect(8.01532180458565e-09, -3.035451007967543e-09).transl(-5.294201918002145e-08, 4e-08, 0))
hIsland = hIsland.sub(rect(5.7808311861808425e-09, -2.90402105973144e-10).transl(8.11168758300787e-10, 4e-08, 0))
hIsland = hIsland.sub(rect(5.291239065260624e-09, -4.929183020178297e-10).transl(9.845847854640148e-08, 2.8074138177480585e-08, 0))
hIsland = hIsland.add(rect(9.809040280296351e-09, 6.244988524343092e-10).transl(8.070718907842663e-08, 3.6597363525957095e-08, 0))
hIsland = hIsland.sub(rect(9.517648318839584e-09, -6.209958927769631e-10).transl(-4.947993826952075e-08, 4e-08, 0))
hIsland = hIsland.add(rect(7.549226842370638e-09, 1.1961927996886025e-09).transl(-4.7963347261315414e-08, 4e-08, 0))
hIsland = hIsland.add(rect(4.231293242598263e-09, 2.4085811077167666e-09).transl(-1.0089732296164627e-07, 2.6241143040829204e-08, 0))
hIsland = hIsland.sub(rect(4.902623088087817e-09, -1.9128233842625094e-09).transl(-7.880569849684467e-08, 3.715275793063138e-08, 0))
hIsland = hIsland.sub(rect(5.346614526752573e-09, -1.7146512813241402e-09).transl(5.248391932616587e-08, 4e-08, 0))
hIsland = hIsland.add(rect(4.9293345499540325e-09, 8.968551933412198e-10).transl(6.31659357494539e-08, 3.980533150194461e-08, 0))
hIsland = hIsland.add(rect(4.840840334811304e-09, 6.736851825003911e-10).transl(-1.4872421694190624e-08, 4e-08, 0))
hIsland = hIsland.sub(rect(6.126952073095962e-09, -8.863240910516534e-10).transl(9.287957105183995e-10, 4e-08, 0))
hIsland = hIsland.add(rect(2.405965072479796e-09, 1.037410723685379e-10).transl(-7.791522244029178e-08, 3.739393280282836e-08, 0))
hIsland = hIsland.sub(rect(5.954213835073739e-09, -1.2625207629454026e-10).transl(1.0573511746734766e-07, 2.1773173404980853e-08, 0))
hIsland = hIsland.sub(rect(9.469746998916064e-09, -3.24504899976417e-09).transl(2.99046351672897e-08, 4e-08, 0))
hIsland = hIsland.add(rect(4.201978016751819e-09, 2.051600867622188e-09).transl(-7.304407240781595e-08, 3.8510689948482874e-08, 0))
hIsland = hIsland.sub(rect(2.0687247678958728e-09, -1.6811785022939783e-09).transl(-9.744800007763209e-08, 2.8770136079524065e-08, 0))
hIsland = hIsland.add(rect(6.816250776104243e-09, 2.110524239381406e-09).transl(-9.053887539718562e-08, 3.273768038815614e-08, 0))
hIsland = hIsland.sub(rect(2.485978740351542e-09, -1.5291961858394656e-09).transl(1.0724354455287748e-07, 2.0063623870063302e-08, 0))
hIsland = hIsland.add(rect(3.1998386641267294e-09, 2.4626873264861858e-09).transl(-5.9092615552195236e-08, 3.9984653846836186e-08, 0))
hIsland = hIsland.add(rect(9.493203388018917e-09, 1.8398803301077722e-09).transl(7.746247177054092e-08, 3.7512037854318715e-08, 0))
hIsland = hIsland.sub(rect(4.6057194390016824e-09, -1.5613304881499807e-09).transl(7.118512781251108e-08, 3.885058438540661e-08, 0))
hIsland = hIsland.add(rect(8.98121965679627e-09, 2.3783940007280926e-10).transl(-3.547896022223505e-08, 4e-08, 0))
hIsland = hIsland.add(rect(5.374553641112391e-09, 3.809343642092929e-10).transl(-9.651500642670507e-08, 2.938320875200117e-08, 0))
hIsland = hIsland.sub(rect(3.510798635297177e-09, -2.232478012609037e-09).transl(1.330604989847288e-09, 4e-08, 0))
hIsland = hIsland.sub(rect(2.3269865619295535e-09, -1.6124797770357359e-09).transl(9.581274949004056e-08, 2.9827040990808206e-08, 0))
hIsland = hIsland.add(rect(6.254811650901742e-09, 4.3000542699510296e-10).transl(-3.4166521261043736e-08, 4e-08, 0))
hIsland = hIsland.sub(rect(2.598593214314435e-09, -6.459436002385549e-10).transl(-9.629053945523682e-08, 2.9526678093791135e-08, 0))
hIsland = hIsland.add(rect(7.581555028141394e-09, 1.2616978658718978e-09).transl(-6.198970505988748e-09, 4e-08, 0))
hIsland = hIsland.add(rect(2.9105653855619727e-09, 2.2520992784082652e-09).transl(3.2699379341891686e-08, 4e-08, 0))
hIsland = hIsland.add(rect(5.906344879691723e-09, 3.788477551293316e-09).transl(3.42328541802657e-08, 4e-08, 0))
hIsland = hIsland.sub(rect(5.296409395305962e-09, -8.689891310216496e-10).transl(1.0564493967282149e-07, 2.1869547267625848e-08, 0))
hIsland = hIsland.sub(rect(4.174627867946019e-09, -1.6554648253467166e-09).transl(-4.701462777128759e-08, 4e-08, 0))
hIsland = hIsland.add(rect(5.357482587681967e-09, 3.009096737601224e-10).transl(8.480216120723346e-08, 3.5203313082882225e-08, 0))
hIsland = hIsland.sub(rect(3.9642771761621435e-09, -3.762928863171508e-10).transl(-1.0737491756002352e-07, 1.99051676652962e-08, 0))
hIsland = hIsland.add(rect(9.348476256328407e-09, 1.4991948366270583e-09).transl(-6.455341879498628e-08, 3.9697909753543323e-08, 0))
hIsland = hIsland.add(rect(5.707123534669297e-09, 3.6783884616348992e-09).transl(9.209169425277978e-08, 3.195206003496553e-08, 0))
hIsland = hIsland.sub(rect(9.808666391818226e-09, -1.6829450130179976e-11).transl(-3.979538341925527e-09, 4e-08, 0))
hIsland = hIsland.sub(rect(7.1098127484758415e-09, -1.0649773957027216e-09).transl(4.520030405382492e-08, 4e-08, 0))
hIsland = hIsland.add(rect(4.857485033412092e-09, 3.885533122628165e-09).transl(-4.917175810124093e-08, 4e-08, 0))
hIsland = hIsland.add(rect(9.706384087921829e-09, 1.0295468284752112e-09).transl(9.262807358899161e-08, 3.1667600223079164e-08, 0))
hIsland = hIsland.sub(rect(5.7667663231735745e-09, -2.7601814923463992e-09).transl(6.938354563513079e-08, 3.9136425238159606e-08, 0))
hIsland = hIsland.sub(rect(9.078193404007103e-09, -1.3279643998202152e-09).transl(2.576944934819387e-08, 4e-08, 0))
hIsland = hIsland.add(rect(6.609504359931044e-09, 3.2064527546333218e-09).transl(4.9315856357452374e-08, 4e-08, 0))
hIsland = hIsland.sub(rect(8.985290316406197e-09, -3.318371480937928e-09).transl(1.5805091633914495e-10, 4e-08, 0))
hIsland = hIsland.add(rect(5.412089622052751e-09, 1.941547949358e-09).transl(-1.0989320972735176e-07, 1.6479786728896707e-08, 0))
hIsland = hIsland.add(rect(9.65759887895932e-09, 3.786002840114717e-09).transl(6.270999305002019e-08, 3.983546331952575e-08, 0))
hIsland = hIsland.sub(rect(5.972257743064253e-09, -6.940022200863772e-10).transl(6.303381562340711e-08, 3.98143252631695e-08, 0))
hIsland = hIsland.add(rect(2.3793625905772258e-09, 4.244457525881706e-10).transl(6.434457873043067e-08, 3.971559682656986e-08, 0))
hIsland = hIsland.sub(rect(9.895634157288033e-09, -2.6620578623939903e-09).transl(-3.244681285208954e-08, 4e-08, 0))
hIsland = hIsland.sub(rect(5.3397679488844616e-09, -1.6886228070154614e-10).transl(6.595835855949061e-08, 3.9564853788167936e-08, 0))
hIsland = hIsland.add(rect(5.906276568841289e-09, 2.731696773515567e-09).transl(-8.748914072160565e-08, 3.412882212550156e-08, 0))
hIsland = hIsland.sub(rect(2.195360723014327e-09, -1.451793644434341e-09).transl(-4.5710805140811656e-08, 4e-08, 0))
hIsland = hIsland.add(rect(9.223240239273935e-09, 2.888362885784604e-10).transl(-8.196434467030014e-09, 4e-08, 0))
hIsland = hIsland.add(rect(7.82174336082875e-09, 2.2921212860297136e-10).transl(-3.328854001263191e-08, 4e-08, 0))
hIsland = hIsland.sub(rect(2.915111236748943e-09, -5.6145397810762473e-11).transl(-6.821414931725726e-08, 3.929946567235918e-08, 0))
hIsland = hIsland.sub(rect(8.788392555657713e-09, -1.056728916051295e-09).transl(9.284374295456518e-08, 3.1551256868909265e-08, 0))
hIsland = hIsland.sub(rect(5.213501424756363e-09, -9.126466457599648e-10).transl(1.0591876019076978e-07, 2.157501781894813e-08, 0))
hIsland = hIsland.add(rect(6.122101473258581e-09, 1.7752473054706924e-09).transl(-1.008640554929337e-07, 2.6267744023506367e-08, 0))
hIsland = hIsland.add(rect(7.719679364783948e-09, 1.2094923465523573e-11).transl(4.191517316633118e-08, 4e-08, 0))
hIsland = hIsland.sub(rect(8.62808976138123e-09, -2.3218377332073448e-09).transl(-8.79221701611427e-08, 3.394284755145342e-08, 0))
hIsland = hIsland.add(rect(2.640753366010028e-09, 3.7190245774025838e-09).transl(-7.375549631960627e-08, 3.8368284567548776e-08, 0))
hIsland = hIsland.sub(rect(2.0202001214655757e-09, -2.2384296768367024e-09).transl(-1.094298117419292e-07, 1.7174927379326298e-08, 0))
hIsland = hIsland.sub(rect(7.397842369319387e-09, -2.2521207598218736e-09).transl(7.927752086318185e-08, 3.702013281954601e-08, 0))
hIsland = hIsland.add(rect(2.640386842429436e-09, 4.817049339630293e-10).transl(-1.0757116255313015e-07, 1.9665296803037447e-08, 0))
hIsland = hIsland.sub(rect(9.480555479460592e-09, -6.652720628253421e-10).transl(-6.664916428876433e-08, 3.94903964052558e-08, 0))
hIsland = hIsland.sub(rect(8.08584469293897e-09, -2.745025849524228e-09).transl(-6.763062601898117e-08, 3.9374284321270204e-08, 0))
hIsland = hIsland.add(rect(2.7962529839851504e-09, 1.915953775345457e-09).transl(5.3681719899792966e-09, 4e-08, 0))
hIsland = hIsland.sub(rect(6.359196010714601e-09, -1.0192321464875765e-09).transl(6.59868935285011e-08, 3.9561896549321057e-08, 0))
hIsland = hIsland.add(rect(8.562337142468299e-09, 1.4006773686085002e-10).transl(-8.748803386947998e-08, 3.4129292783680046e-08, 0))
hIsland = hIsland.add(rect(2.4406032860160335e-09, 1.1442347320638926e-09).transl(-9.940553736772733e-08, 2.7389407805565515e-08, 0))
hIsland = hIsland.sub(rect(5.141756476618045e-09, -5.879246418393505e-10).transl(4.619526390556242e-08, 4e-08, 0))
hIsland = hIsland.add(rect(2.6393200698854066e-09, 1.7514834287081286e-09).transl(1.1340446182685515e-07, 9.35752114525928e-09, 0))
hIsland = hIsland.sub(rect(3.3692945520421847e-09, -2.5673163860218118e-09).transl(4.0356466413060954e-08, 4e-08, 0))
hIsland = hIsland.add(rect(9.914710846130225e-09, 1.5755674693454266e-09).transl(-7.228942553433784e-08, 3.8654248989274994e-08, 0))
hIsland = hIsland.add(rect(3.0008987053062803e-09, 8.50777572743782e-12).transl(6.503170414147412e-08, 3.9655367881891617e-08, 0))
hIsland = hIsland.sub(rect(7.628320662617367e-09, -3.2625534727685826e-09).transl(-6.627117720058257e-08, 3.953187824532496e-08, 0))
hIsland = hIsland.add(rect(8.414097624680189e-09, 1.567274622513058e-09).transl(8.585906954949564e-08, 3.479661056808973e-08, 0))
hIsland = hIsland.add(rect(3.99313891182745e-09, 6.452098243724891e-10).transl(-6.242061910198205e-08, 3.98532658816715e-08, 0))
vIsland = hIsland.rotz(pi / 2)
vIslands = vIslands.add(vIsland.transl(0, -a/2, 0))
DefRegion(1, hIslands)
DefRegion(2, vIslands)
TableAdd(m_full.Region(1))
TableAdd(m_full.Region(2))
setgeom(hIslands.add(vIslands))
save(geom)
r2o2 := sqrt(2) / 2
m = RandomMagSeed(4)
B_ext = vector(Bmax*r2o2, Bmax*r2o2, 0)
relax()
minimize()
for B := Bmax; B >= -Bmax; B -= Bstep {
	B_ext = vector(B*r2o2, B*r2o2, 0)
	minimize()
	tablesave()
}
//********************************************************************//
//Please cite the following references, relevant for your simulation. //
//See bibtex file in output folder for justification.                 //
//********************************************************************//
//   * Vansteenkiste et al., AIP Adv. 4, 107133 (2014).
//   * Exl et al., J. Appl. Phys. 115, 17D118 (2014).
