# t (s)	mx ()	my ()	mz ()	B_extx (T)	B_exty (T)	B_extz (T)	m_fullx (A/m)	m_fully (A/m)	m_fullz (A/m)	m_full.region1x (A/m)	m_full.region1y (A/m)	m_full.region1z (A/m)	m_full.region2x (A/m)	m_full.region2y (A/m)	m_full.region2z (A/m)
0	0.63643795	0.6364359	-1.7326932e-10	0.0707108	0.0707108	0	132441.95	132441.53	-3.5493827e-05	655293.1	235718.12	-5.1910298e-05	235719.95	655292.1	-0.00021802326
0	0.63633114	0.63632965	-2.4257704e-10	0.07056912	0.07056912	0	132419.73	132419.42	-5.4012347e-05	655373.6	235488.69	-0.00019206811	235490.06	655372.8	-0.00017454838
0	0.63622016	0.6362186	-1.7326932e-10	0.070427895	0.070427895	0	132396.62	132396.31	-3.5493827e-05	655458.06	235248.8	-0.00016092193	235250.14	655457.3	-8.3056475e-05
0	0.63611007	0.6361086	-7.920883e-11	0.070286475	0.070286475	0	132373.73	132373.42	-2.0061729e-05	655542	235010.81	-2.0764119e-05	235012.12	655541.25	-8.565199e-05
0	0.63599896	0.6359975	-2.4257704e-10	0.07014494	0.07014494	0	132350.61	132350.3	-5.0925926e-05	655626.4	234770.9	-5.710133e-05	234772.23	655625.56	-0.0002751246
0	0.6358886	0.635887	-1.3861545e-10	0.07000352	0.07000352	0	132327.62	132327.31	-2.7777778e-05	655710.1	234532.44	-0.00012977574	234533.78	655709.4	-6.488787e-05
0	0.6357764	0.63577485	-2.3267593e-10	0.06986228	0.069862284	0	132304.3	132303.97	-4.4753087e-05	655794.9	234290.78	-9.343854e-05	234292.16	655794.06	-0.00020764119
0	0.6356656	0.6356641	-3.6139028e-10	0.06972061	0.0697206	0	132281.2	132280.9	-7.407407e-05	655878.75	234051.7	-0.00023359635	234053.06	655878	-0.00029459095
0	0.63555384	0.6355523	-1.0396159e-10	0.06957921	0.06957921	0	132257.97	132257.66	-2.0061729e-05	655962.94	233811.1	-2.5955149e-05	233812.47	655962.06	-0.00010901163
0	0.63544124	0.63543963	-1.43566e-10	0.06943796	0.06943796	0	132234.53	132234.2	-3.2407406e-05	656047.56	233568.72	-0.00012458472	233570.11	656046.8	-8.3056475e-05
0	0.6353295	0.6353279	-2.9703312e-10	0.06929652	0.06929652	0	132211.27	132210.97	-6.0185186e-05	656131.7	233328.19	-0.00018687708	233329.55	656130.9	-0.00022970307
0	0.6352174	0.6352159	-2.4752758e-10	0.069155015	0.06915502	0	132187.97	132187.64	-5.2469135e-05	656215.94	233087.19	-0.00018168605	233088.58	656215.06	-0.00017649501
0	0.6351037	0.63510215	-2.3267593e-10	0.0690136	0.0690136	0	132164.3	132163.97	-5.2469135e-05	656301.06	232842.73	-0.00012458472	232844.1	656300.3	-0.00016611295
0	0.63499147	0.6349899	-2.0792318e-10	0.06887218	0.06887218	0	132140.95	132140.62	-4.4753087e-05	656385.25	232601.45	-0.00019725914	232602.83	656384.44	-0.0001268558
0	0.6348782	0.6348767	-6.9307726e-11	0.0687307	0.0687307	0	132117.39	132117.08	-1.5432099e-05	656469.5	232358.77	-3.114618e-05	232360.14	656468.6	-7.364774e-05
0	0.6347649	0.63476336	-1.7821987e-10	0.06858927	0.06858928	0	132093.78	132093.47	-4.0123457e-05	656554.1	232115.39	-0.00013496677	232116.77	656553.4	-0.00012458472
0	0.6346517	0.63465023	-1.0396159e-10	0.068448	0.068448	0	132070.25	132069.92	-2.1604938e-05	656638.3	231872.72	-4.1528237e-05	231874.11	656637.56	-0.00011387822
0	0.6345368	0.6345353	-1.336649e-10	0.06830659	0.06830659	0	132046.34	132046.02	-2.4691359e-05	656723.44	231626.77	-2.0764119e-05	231628.14	656722.7	-0.000103820596
0	0.6344234	0.6344218	-1.9307152e-10	0.06816509	0.068165086	0	132022.72	132022.39	-3.7037036e-05	656808	231383.38	-0.00012458472	231384.75	656807.2	-0.0001219892
0	0.63430953	0.634308	-8.9109935e-11	0.06802368	0.06802368	0	131999.03	131998.72	-1.8518518e-05	656892.2	231139.81	-5.710133e-05	231141.2	656891.44	-8.597643e-05
0	0.6341938	0.63419217	-1.3861545e-10	0.06788226	0.06788226	0	131974.94	131974.61	-2.6234567e-05	656977.5	230892.45	-0.00012977574	230893.86	656976.6	-6.748339e-05
0	0.63407975	0.6340782	-2.9208255e-10	0.06774077	0.067740776	0	131951.22	131950.89	-5.8641974e-05	657061.9	230648.36	-0.00018687708	230649.8	657061.1	-0.00021802326
0	0.6339649	0.63396335	-1.7821987e-10	0.06759933	0.06759932	0	131927.31	131926.98	-3.7037036e-05	657146.44	230403.02	-0.000103820596	230404.42	657145.6	-0.00012263808
0	0.63384914	0.63384753	-3.2178588e-10	0.067458086	0.067458086	0	131903.23	131902.89	-7.0987655e-05	657231.25	230156.14	-0.00019725914	230157.56	657230.44	-0.00028810216
0	0.6337336	0.633732	-9.9011035e-11	0.06731665	0.06731665	0	131879.19	131878.86	-2.1604938e-05	657316.06	229909.62	-0.000103820596	229911.05	657315.25	-7.786545e-05
0	0.6336171	0.6336155	-1.6336821e-10	0.067175	0.067175	0	131854.94	131854.6	-3.2407406e-05	657401.4	229661.17	-9.862957e-05	229662.6	657400.5	-0.00011420266
0	0.63350207	0.63350046	-2.1287373e-10	0.06703376	0.06703376	0	131830.98	131830.66	-4.3209875e-05	657485.75	229415.67	-9.862957e-05	229417.08	657485	-0.00018752596
0	0.6333847	0.63338304	-8.415938e-11	0.06689233	0.066892326	0	131806.56	131806.22	-1.8518518e-05	657571.3	229165.72	-6.229236e-05	229167.16	657570.56	-7.267442e-05
0	0.6332686	0.63326705	-2.0792318e-10	0.06675082	0.06675082	0	131782.42	131782.1	-4.3209875e-05	657656.06	228918.62	-0.000103820596	228920.05	657655.3	-0.00017325062
0	0.63315237	0.6331508	-2.9703312e-10	0.0666094	0.0666094	0	131758.23	131757.89	-6.635802e-05	657740.6	228671.25	-0.00022840532	228672.69	657739.9	-0.00021121003
0	0.6330342	0.6330327	-2.376265e-10	0.06646815	0.06646815	0	131733.64	131733.3	-4.6296296e-05	657826.06	228420.47	-0.00012458472	228421.89	657825.3	-0.00019466362
0	0.6329169	0.6329153	-1.2376379e-10	0.06632651	0.06632651	0	131709.22	131708.9	-2.7777778e-05	657911.3	228170.97	-3.114618e-05	228172.42	657910.5	-0.00014405108
0	0.63280046	0.63279885	-6.9307726e-11	0.06618508	0.06618508	0	131684.98	131684.67	-2.1604938e-05	657995.6	227923.5	-0.000103820596	227924.94	657994.9	0
0	0.63268214	0.63268054	-9.9011035e-11	0.06604384	0.06604384	0	131660.38	131660.05	-1.697531e-05	658081.06	227672.52	-8.3056475e-05	227673.94	658080.2	-4.1528237e-05
0	0.6325643	0.6325627	-2.1782429e-10	0.06590237	0.06590237	0	131635.86	131635.53	-4.6296296e-05	658166.25	227422.39	-0.00017130398	227423.84	658165.4	-0.00014469995
0	0.6324456	0.63244396	-2.574287e-10	0.0657609	0.06576091	0	131611.12	131610.8	-5.4012347e-05	658251.44	227170.84	-0.00017649501	227172.28	658250.6	-0.00020634344
0	0.63232744	0.6323259	-2.0792318e-10	0.06561947	0.06561947	0	131586.56	131586.22	-4.4753087e-05	658336.4	226920.61	-0.0001557309	226922.06	658335.6	-0.00017130398
0	0.6322081	0.6322065	-2.2772538e-10	0.06547823	0.06547823	0	131561.72	131561.39	-4.1666666e-05	658421.9	226668.12	-0.0001557309	226669.56	658421	-0.00013886005
0	0.6320898	0.6320882	-1.9802207e-11	0.065336585	0.065336585	0	131537.1	131536.77	0	658506.75	226417.5	9.862957e-05	226418.94	658506	-0.000103820596
0	0.63196987	0.63196826	-3.910936e-10	0.06519516	0.06519516	0	131512.14	131511.83	-8.1790124e-05	658592.3	226164.08	-0.00030107974	226165.52	658591.5	-0.00026733804
0	0.6318506	0.63184905	-2.4752758e-10	0.06505392	0.06505392	0	131487.31	131487	-5.2469135e-05	658677.44	225911.92	-0.00016611295	225913.39	658676.6	-0.0001797394
0	0.6317299	0.6317283	-2.1782429e-10	0.06491244	0.06491244	0	131462.2	131461.88	-4.6296296e-05	658763.25	225657.2	-0.00015053987	225658.64	658762.44	-0.0001401578
0	0.6316107	0.63160914	-2.0792318e-10	0.06477098	0.06477098	0	131437.4	131437.08	-4.3209875e-05	658848.1	225405.34	-0.00019725914	225406.81	658847.4	-0.000103820596
0	0.63149	0.6314884	-9.406049e-11	0.06462956	0.06462956	0	131412.3	131411.95	-1.3888889e-05	658933.7	225150.92	-2.0764119e-05	225152.4	658932.8	-8.694975e-05
0	0.63136935	0.63136774	-2.376265e-10	0.06448813	0.06448813	0	131387.17	131386.84	-4.7839505e-05	659019.3	224896.31	-0.00020245016	224897.78	659018.5	-0.0001401578
0	0.63124865	0.6312471	-1.7326932e-10	0.06434667	0.06434667	0	131362.08	131361.73	-3.2407406e-05	659104.7	224642.02	-6.229236e-05	224643.47	659103.9	-0.00018428155
0	0.6311275	0.6311258	-2.5247815e-10	0.064205244	0.064205244	0	131336.84	131336.52	-5.2469135e-05	659190.1	224386.83	-0.00019725914	224388.3	659189.4	-0.00014794435
0	0.6310066	0.631005	-1.6336821e-10	0.064063944	0.06406396	0	131311.69	131311.36	-3.0864197e-05	659275.25	224132.55	-1.557309e-05	224134.02	659274.44	-0.00019466362
0	0.63088375	0.63088214	-3.4653863e-11	0.06392251	0.06392251	0	131286.12	131285.8	-4.6296295e-06	659361.2	223874.53	-3.114618e-05	223876.02	659360.44	-5.1910297e-06
0	0.63076156	0.63075984	-1.43566e-10	0.06378107	0.06378107	0	131260.69	131260.36	-3.0864197e-05	659447.2	223617.48	-7.267442e-05	223618.98	659446.4	-0.00014145556
0	0.63064015	0.63063854	-1.3861545e-10	0.06363963	0.06363963	0	131235.45	131235.11	-2.9320987e-05	659532.3	223362.48	-0.00010901163	223363.95	659531.5	-6.488787e-05
0	0.6305181	0.63051635	-3.7624195e-10	0.0634982	0.0634982	0	131210.03	131209.7	-8.0246915e-05	659617.9	223105.95	-0.00025955148	223107.44	659617.06	-0.00026474253
0	0.63039494	0.6303932	-3.5148917e-10	0.06335675	0.06335675	0	131184.4	131184.06	-7.2530864e-05	659703.56	222847.88	-0.00020764119	222849.36	659702.75	-0.0002991331
0	0.6302718	0.6302701	-1.0891214e-10	0.06321528	0.063215286	0	131158.78	131158.45	-2.0061729e-05	659789.4	222589.62	-4.671927e-05	222591.11	659788.5	-9.084302e-05
0	0.6301485	0.6301468	-2.0297262e-10	0.06307402	0.06307402	0	131133.11	131132.78	-4.6296296e-05	659875.2	222331.11	-0.00019725914	222332.6	659874.4	-0.00011420266
0	0.6300256	0.63002396	-1.4851656e-10	0.06293259	0.06293259	0	131107.55	131107.2	-3.395062e-05	659960.56	222073.8	-9.862957e-05	222075.3	659959.75	-0.00011030938
0	0.62990105	0.6298994	-2.2277484e-10	0.06279097	0.062790975	0	131081.64	131081.3	-4.4753087e-05	660046.56	221813.39	-0.00016092193	221814.88	660045.75	-0.00014534884
0	0.6297778	0.6297762	-3.1188477e-10	0.06264971	0.06264971	0	131055.99	131055.64	-6.1728395e-05	660132.2	221555.25	-0.00019725914	221556.75	660131.4	-0.00021542775
0	0.6296532	0.62965155	-3.1188477e-10	0.06250826	0.06250826	0	131030.055	131029.71	-6.635802e-05	660218.06	221294.89	-0.00021802326	221296.39	660217.25	-0.00020569457
0	0.6295277	0.6295261	1.336649e-10	0.062366802	0.062366802	0	131003.94	131003.58	2.2376544e-05	660304.4	221032.86	0.0001557309	221034.36	660303.5	1.8168605e-05
0	0.6294038	0.6294022	-2.5247815e-10	0.062225346	0.062225346	0	130978.17	130977.83	-5.2469135e-05	660389.75	220774.14	-0.00022840532	220775.67	660388.94	-0.00014534884
0	0.6292785	0.6292768	-2.9703312e-10	0.062084105	0.062084105	0	130952.08	130951.73	-6.635802e-05	660475.75	220512.6	-0.00022840532	220514.12	660474.9	-0.00021737437
0	0.6291534	0.6291517	-2.376265e-10	0.061942484	0.061942484	0	130926.05	130925.695	-4.9382717e-05	660561.6	220251.56	-0.00017649501	220253.05	660560.75	-0.00016221969
0	0.6290277	0.62902606	-1.336649e-10	0.061801035	0.061801035	0	130899.89	130899.54	-2.6234567e-05	660647.44	219989.88	-0.00012458472	219991.4	660646.56	-6.488787e-05
0	0.62890166	0.6289	-1.8812098e-10	0.061659794	0.061659794	0	130873.65	130873.305	-4.0123457e-05	660733.56	219727.28	-0.00013496677	219728.8	660732.7	-0.00012815355
0	0.6287751	0.62877345	-2.7228036e-10	0.0615183	0.0615183	0	130847.33	130846.98	-6.1728395e-05	660819.7	219463.9	-0.00023359635	219465.44	660818.9	-0.00019206811
0	0.62864906	0.62864745	-1.2376379e-10	0.06137688	0.061376873	0	130821.09	130820.75	-2.6234567e-05	660905.5	219201.7	-6.229236e-05	219203.23	660904.6	-0.00011420266
0	0.62852234	0.62852067	-1.0396159e-10	0.06123543	0.061235435	0	130794.71	130794.37	-2.4691359e-05	660991.56	218938.22	-5.1910298e-05	218939.75	660990.7	-9.4087416e-05
0	0.6283952	0.6283935	-3.9604414e-10	0.061093986	0.061093986	0	130768.25	130767.9	-8.641975e-05	661077.6	218674.08	-0.0002751246	218675.58	661076.8	-0.00030627075
0	0.6282679	0.6282662	-2.673298e-10	0.06095258	0.06095258	0	130741.766	130741.44	-5.8641974e-05	661163.7	218409.89	-0.00017649501	218411.42	661162.8	-0.00020245016
0	0.62814015	0.6281385	-1.0891214e-10	0.06081112	0.06081112	0	130715.195	130714.85	-2.1604938e-05	661249.8	218144.88	-9.343854e-05	218146.4	661249	-6.748339e-05
0	0.6280126	0.62801087	-2.4752758e-10	0.06066982	0.06066982	0	130688.65	130688.29	-5.4012347e-05	661335.6	217880.47	-0.00018687708	217882	661334.8	-0.00017909054
0	0.6278838	0.6278822	-2.8218144e-10	0.06052838	0.060528375	0	130661.86	130661.516	-6.1728395e-05	661422.1	217613.73	-0.00023878737	217615.27	661421.3	-0.00019206811
0	0.6277555	0.62775385	-2.6237926e-10	0.060386952	0.060386952	0	130635.16	130634.81	-5.0925926e-05	661508.3	217347.88	-0.00014534884	217349.42	661507.5	-0.00022548536
0	0.6276276	0.6276259	-1.6336821e-10	0.06024551	0.06024551	0	130608.52	130608.18	-3.7037036e-05	661594.1	217082.98	-8.3056475e-05	217084.52	661593.3	-0.00011712261
0	0.6274972	0.6274955	-1.336649e-10	0.060104065	0.060104065	0	130581.39	130581.05	-2.8549382e-05	661681.1	216813.44	-0.00011420266	216814.98	661680.25	-7.00789e-05
0	0.62736917	0.6273675	-2.87132e-10	0.05996265	0.05996265	0	130554.73	130554.4	-5.632716e-05	661766.75	216548.53	-0.00017649501	216550.11	661765.9	-0.00019953022
0	0.6272387	0.627237	-2.772309e-10	0.059821155	0.059821155	0	130527.6	130527.26	-5.478395e-05	661853.3	216279.39	-0.00019725914	216280.92	661852.5	-0.00016611295
0	0.6271096	0.62710786	-2.673298e-10	0.059679903	0.059679903	0	130500.734	130500.37	-5.478395e-05	661939.3	216012.56	-0.00024916945	216014.12	661938.44	-0.0001219892
0	0.62697875	0.626977	-1.4851656e-10	0.059538443	0.059538443	0	130473.5	130473.14	-3.4722223e-05	662025.9	215742.75	-0.00013496677	215744.31	662025.06	-8.694975e-05
0	0.62684906	0.6268473	-2.4257704e-10	0.059396844	0.059396844	0	130446.52	130446.16	-4.7839505e-05	662111.94	215475.17	-0.00017130398	215476.73	662111.06	-0.00014794435
0	0.62671757	0.6267159	-2.4257704e-10	0.059255593	0.059255593	0	130419.17	130418.81	-5.478395e-05	662198.6	215204.44	-0.00021802326	215206.02	662197.8	-0.0001557309
0	0.62658685	0.6265852	-1.8317042e-10	0.059114125	0.059114125	0	130391.96	130391.59	-4.1666666e-05	662285.06	214935.05	-0.00013496677	214936.6	662284.2	-0.00013691341
0	0.62645614	0.6264544	-2.4752758e-10	0.058972687	0.058972694	0	130364.76	130364.39	-4.861111e-05	662371.25	214665.83	-0.00016611295	214667.38	662370.44	-0.00019985465
0	0.62632406	0.6263224	-3.2673642e-10	0.058831237	0.058831237	0	130337.26	130336.89	-6.790124e-05	662457.7	214394.4	-0.00018687708	214395.98	662456.8	-0.00025695597
0	0.6261919	0.6261902	-9.406049e-11	0.058689967	0.058689967	0	130309.766	130309.414	-1.5432099e-05	662544.44	214122.62	-0.00010901163	214124.2	662543.6	-1.4275332e-05
0	0.6260609	0.6260592	-2.3267593e-10	0.058548383	0.058548383	0	130282.49	130282.13	-4.6296296e-05	662630.44	213853.19	-0.00017649501	213854.77	662629.6	-0.00014534884
0	0.6259279	0.62592614	-4.9505518e-11	0.058406927	0.05840693	0	130254.82	130254.47	-1.1574074e-05	662717.1	213580.33	-1.0382059e-05	213581.9	662716.3	-4.671927e-05
0	0.62579477	0.62579304	-2.3267593e-10	0.05826566	0.05826566	0	130227.125	130226.76	-4.6296296e-05	662803.9	213307.11	-0.00022840532	213308.7	662803.1	-7.9163205e-05
0	0.62566274	0.625661	-1.1386269e-10	0.058124155	0.058124155	0	130199.664	130199.27	-2.4691359e-05	662889.94	213036.36	-5.710133e-05	213037.95	662889.06	-0.00012458472
0	0.6255288	0.6255271	-3.3663752e-10	0.057982776	0.057982776	0	130171.78	130171.414	-7.0987655e-05	662976.7	212762.11	-0.00022321429	212763.7	662975.9	-0.00026733804
0	0.6253955	0.6253937	-2.4257704e-10	0.05784131	0.05784131	0	130144	130143.65	-4.7839505e-05	663063.2	212488.8	-0.00021283222	212490.39	663062.4	-0.0001401578
0	0.6252618	0.62526	-1.1386269e-10	0.05769984	0.057699844	0	130116.19	130115.836	-2.3148148e-05	663149.7	212215.16	-8.3056475e-05	212216.77	663148.9	-9.343854e-05
0	0.6251271	0.6251253	-1.3861545e-10	0.057558466	0.057558466	0	130088.164	130087.81	-2.7777778e-05	663236.6	211939.66	-0.000119393684	211941.25	663235.8	-0.00010641611
0	0.624993	0.6249912	-2.4752758e-10	0.057416998	0.057416998	0	130060.266	130059.91	-5.015432e-05	663323.2	211665.44	-0.00022840532	211667.02	663322.4	-0.00011777149
0	0.62485844	0.6248567	-2.4752758e-10	0.057275694	0.057275698	0	130032.27	130031.92	-5.4012347e-05	663409.6	211390.58	-0.00018687708	211392.17	663408.75	-0.00018168605
0	0.6247233	0.62472165	-2.2277484e-10	0.057134222	0.057134222	0	130004.16	130003.79	-4.6296296e-05	663496.3	211114.78	-0.00017130398	211116.42	663495.4	-0.0001401578
0	0.6245873	0.6245856	-9.9011035e-11	0.056992855	0.056992855	0	129975.836	129975.484	-1.8518518e-05	663583.4	210837.33	-4.1528237e-05	210838.92	663582.5	-7.656769e-05
0	0.6244523	0.6244505	-3.8614303e-10	0.056851387	0.056851387	0	129947.75	129947.38	-8.0246915e-05	663669.7	210561.83	-0.00029069767	210563.44	663668.9	-0.0002653914
0	0.62431574	0.62431395	-1.1881325e-10	0.05670992	0.05670991	0	129919.33	129918.98	-2.7006174e-05	663756.7	210283.73	-9.862957e-05	210285.33	663755.8	-6.748339e-05
0	0.6241794	0.6241777	-2.0792318e-10	0.05656855	0.05656855	0	129890.98	129890.61	-4.3209875e-05	663843.44	210006.16	-0.00016092193	210007.77	663842.7	-0.00015053987
0	0.6240432	0.6240415	-2.2772538e-10	0.056427028	0.056427028	0	129862.62	129862.25	-4.6296296e-05	663930.2	209728.72	-0.00017130398	209730.38	663929.4	-0.0001557309
0	0.6239062	0.62390447	-5.445607e-11	0.056285765	0.056285765	0	129834.1	129833.734	-1.2345679e-05	664016.8	209450.23	-6.229236e-05	209451.89	664015.94	1.2977574e-05
0	0.62376964	0.62376785	-2.0792318e-10	0.056144286	0.056144286	0	129805.69	129805.33	-3.9351853e-05	664103.3	209172.5	-0.00014534884	209174.14	664102.5	-0.00012912687
0	0.62363166	0.62362987	-2.2277484e-10	0.056002725	0.056002725	0	129776.99	129776.625	-4.6296296e-05	664190.5	208892.23	-0.00021802326	208893.88	664189.6	-8.0460966e-05
0	0.62349427	0.6234925	-1.7326932e-10	0.055861466	0.055861466	0	129748.375	129748.01	-3.858025e-05	664277.06	208613.17	-0.00013496677	208614.83	664276.3	-0.00010901163
0	0.6233563	0.6233545	-1.1881325e-10	0.05571998	0.055719987	0	129719.664	129719.3	-2.0833333e-05	664363.8	208333.28	-9.862957e-05	208334.92	664363	-4.4123753e-05
0	0.62321734	0.6232155	-2.0792318e-10	0.055578638	0.055578638	0	129690.75	129690.4	-4.7839505e-05	664451	208051.64	-0.00017130398	208053.28	664450.06	-0.00017130398
0	0.6230792	0.6230774	-4.6040133e-10	0.055437114	0.055437114	0	129662	129661.65	-9.490741e-05	664537.5	207771.69	-0.0003633721	207773.34	664536.7	-0.00026474253
0	0.62293965	0.6229379	-1.6336821e-10	0.055295844	0.055295844	0	129632.98	129632.61	-3.5493827e-05	664624.75	207489.14	-0.00010706499	207490.78	664623.9	-0.00012653135
0	0.62279874	0.62279695	-3.3168698e-10	0.05515437	0.055154365	0	129603.63	129603.28	-6.867284e-05	664712.3	207204.23	-0.0002958887	207205.88	664711.5	-0.00016611295
0	0.6226609	0.6226591	-1.8317042e-10	0.055012804	0.055012804	0	129574.96	129574.59	-3.9351853e-05	664798.6	206924.98	-8.824751e-05	206926.62	664797.75	-0.00016611295
0	0.62252146	0.6225197	-1.6831876e-10	0.05487153	0.05487153	0	129545.95	129545.586	-3.2407406e-05	664885.1	206643.28	-9.862957e-05	206644.94	664884.25	-0.000114527094
0	0.62238103	0.62237924	-1.1881325e-10	0.054730058	0.054730058	0	129516.734	129516.35	-2.4691359e-05	664972.2	206359.67	-6.748339e-05	206361.3	664971.25	-7.00789e-05
0	0.6222406	0.6222388	-1.5346711e-10	0.054588675	0.054588675	0	129487.49	129487.12	-3.0092593e-05	665059.06	206076.1	-7.267442e-05	206077.75	665058.2	-0.00012458472
0	0.6220996	0.62209773	-1.7821987e-10	0.05444718	0.05444718	0	129458.15	129457.76	-3.2407406e-05	665146.06	205791.64	-0.000103820596	205793.31	665145.25	-0.00012912687
0	0.6219582	0.6219564	-2.7228036e-10	0.054305922	0.054305922	0	129428.74	129428.37	-5.324074e-05	665233.25	205506.61	-0.00022321429	205508.28	665232.4	-0.0001375623
0	0.62181646	0.62181467	-3.4653863e-10	0.05416437	0.05416437	0	129399.24	129398.86	-7.2530864e-05	665320.2	205221.2	-0.0002958887	205222.88	665319.3	-0.00020504568
0	0.6216749	0.6216731	-2.5247815e-10	0.05402288	0.05402288	0	129369.78	129369.41	-5.169753e-05	665407.25	204936.02	-0.00013496677	204937.67	665406.3	-0.0002258098
0	0.6215328	0.62153107	-1.7821987e-10	0.05388161	0.053881608	0	129340.21	129339.836	-3.6265432e-05	665494.1	204650.12	-6.229236e-05	204651.77	665493.4	-0.00017909054
0	0.62139034	0.6213885	-1.8317042e-10	0.053740077	0.053740077	0	129310.57	129310.19	-4.0123457e-05	665581.44	204363.38	-0.00016092193	204365.06	665580.6	-0.000116798175
0	0.62124735	0.62124556	-2.4752758e-10	0.053598743	0.053598743	0	129280.81	129280.43	-5.169753e-05	665668.4	204076.27	-0.00015053987	204077.92	665667.5	-0.00019077036
0	0.6211045	0.62110263	-2.2772538e-10	0.053457268	0.053457268	0	129251.06	129250.68	-4.9382717e-05	665755.5	203789.08	-0.0001557309	203790.75	665754.6	-0.00017454838
0	0.6209611	0.6209593	-6.435717e-11	0.053315774	0.053315774	0	129221.24	129220.875	-1.0802469e-05	665842.6	203501.31	-4.1528237e-05	203502.98	665841.8	-3.3741693e-05
0	0.62081707	0.62081534	-2.0297262e-10	0.053174455	0.053174455	0	129191.28	129190.9	-4.0895062e-05	665929.6	203212.69	-0.00019206811	203214.38	665928.8	-0.000103820596
0	0.62067354	0.6206717	-3.1188477e-10	0.05303297	0.05303296	0	129161.41	129161.016	-6.635802e-05	666016.56	202924.73	-0.00025436046	202926.42	666015.7	-0.00017909054
0	0.62052876	0.62052697	-1.43566e-10	0.052891646	0.052891646	0	129131.266	129130.9	-3.0864197e-05	666103.9	202634.72	-0.0001557309	202636.42	666103	-3.8932725e-05
0	0.6203845	0.6203827	-2.8218144e-10	0.05275014	0.052750144	0	129101.24	129100.875	-5.8641974e-05	666190.8	202345.83	-0.00020764119	202347.53	666190	-0.00018947259
0	0.6202392	0.6202374	-2.2772538e-10	0.052608833	0.052608833	0	129071	129070.63	-4.3209875e-05	666278.1	202055.08	-0.00021802326	202056.78	666277.3	-0.00010122508
0	0.62009394	0.62009215	-1.3861545e-10	0.05246734	0.05246734	0	129040.79	129040.42	-2.8549382e-05	666365.25	201764.6	-0.000103820596	201766.31	666364.5	-8.824751e-05
0	0.6199486	0.6199467	-8.415938e-11	0.05232584	0.052325834	0	129010.52	129010.14	-1.697531e-05	666452.2	201474.08	-4.1528237e-05	201475.81	666451.4	-5.061254e-05
0	0.61980194	0.61980003	-3.2673642e-10	0.052184533	0.052184533	0	128980.01	128979.64	-6.558642e-05	666539.6	201181.33	-0.00019206811	201183.02	666538.75	-0.00024430285
0	0.6196554	0.6196536	-2.0792318e-10	0.052042995	0.052042995	0	128949.516	128949.15	-4.3209875e-05	666627	200888.81	-0.00012977574	200890.56	666626.1	-0.00017130398
0	0.6195094	0.61950755	-1.6336821e-10	0.05190171	0.05190171	0	128919.15	128918.74	-3.5493827e-05	666713.9	200597.52	-9.343854e-05	200599.23	666713	-0.00014989098
0	0.61936224	0.6193603	-2.2772538e-10	0.051760204	0.051760204	0	128888.5	128888.11	-4.6296296e-05	666801.2	200304.14	-0.00010901163	200305.88	666800.25	-0.00020764119
0	0.61921537	0.6192135	-2.9703313e-11	0.051618695	0.051618688	0	128857.94	128857.57	-8.487655e-06	666888.06	200011.69	-8.3056475e-05	200013.44	666887.25	7.786545e-06
0	0.6190674	0.6190655	-1.5841765e-10	0.051477417	0.051477417	0	128827.15	128826.76	-3.317901e-05	666975.44	199717.14	-8.3056475e-05	199718.88	666974.56	-0.00015962416
0	0.6189198	0.618918	-2.0792318e-10	0.05133591	0.05133591	0	128796.46	128796.06	-4.3209875e-05	667062.4	199423.62	-0.00013172238	199425.31	667061.5	-0.00015832641
0	0.6187712	0.6187694	0	0.05119457	0.05119457	0	128765.51	128765.13	-6.1728397e-06	667149.75	199128.06	-3.114618e-05	199129.81	667148.94	1.557309e-05
0	0.6186227	0.6186208	-1.9802207e-10	0.051053066	0.051053066	0	128734.625	128734.234	-4.243827e-05	667236.94	198833.08	-0.00014534884	198834.81	667236.1	-0.00016870847
0	0.6184736	0.6184717	-1.336649e-10	0.050911784	0.050911784	0	128703.586	128703.195	-2.7777778e-05	667324.3	198536.95	-0.00012977574	198538.69	667323.44	-6.229236e-05
0	0.6183244	0.6183225	-5.9406625e-11	0.05077028	0.05077028	0	128672.555	128672.164	-9.259259e-06	667411.5	198240.94	-4.1528237e-05	198242.67	667410.56	-2.0764119e-05
0	0.61817443	0.6181726	-2.2277484e-10	0.05062878	0.05062878	0	128641.35	128640.96	-4.3981483e-05	667498.8	197943.67	-0.00016092193	197945.4	667498	-0.00017325062
0	0.61802304	0.6180211	-1.5841765e-10	0.05048749	0.05048749	0	128609.81	128609.43	-3.6265432e-05	667586.7	197643.83	-0.00012458472	197645.56	667585.75	-0.0001219892
0	0.6178744	0.6178725	-4.4554967e-11	0.05034593	0.05034593	0	128578.89	128578.51	-1.1574074e-05	667673.25	197349.08	-2.0764119e-05	197350.8	667672.44	-4.1528237e-05
0	0.6177236	0.61772174	-2.3267593e-10	0.050204657	0.050204657	0	128547.52	128547.12	-4.7839505e-05	667760.6	197050.66	-0.00022321429	197052.42	667759.75	-0.000119393684
0	0.6175724	0.6175705	-2.0297262e-10	0.050063137	0.05006314	0	128516.055	128515.66	-4.3981483e-05	667848.06	196751.58	-0.00018168605	196753.31	667847.1	-0.00012977574
0	0.61742115	0.6174193	-9.406049e-11	0.049921636	0.049921636	0	128484.59	128484.19	-1.6203703e-05	667935.1	196452.7	-6.748339e-05	196454.47	667934.25	-3.633721e-05
0	0.6172693	0.61726743	-1.4851656e-10	0.049780358	0.049780358	0	128452.98	128452.586	-3.2407406e-05	668022.5	196152.64	-0.00010901163	196154.39	668021.7	-0.00012134032
0	0.61711574	0.6171138	-2.7228036e-10	0.04963884	0.04963884	0	128421.03	128420.625	-5.5555556e-05	668110.44	195849.83	-0.00018687708	195851.56	668109.56	-0.00019985465
0	0.6169652	0.6169633	-2.2772538e-10	0.049497515	0.049497515	0	128389.69	128389.3	-4.6296296e-05	668197	195552.4	-0.00018687708	195554.19	668196.1	-0.00012458472
0	0.61681235	0.6168104	-2.1782429e-10	0.049356006	0.049356006	0	128357.87	128357.49	-4.3981483e-05	668284.44	195251.02	-0.00017130398	195252.8	668283.56	-0.00014405108
0	0.61665964	0.6166578	5.445607e-11	0.04921472	0.04921472	0	128326.11	128325.72	8.487655e-06	668371.44	194950.31	-3.114618e-05	194952.1	668370.56	9.862957e-05
0	0.6165059	0.616504	-2.2277484e-10	0.049073216	0.049073216	0	128294.125	128293.734	-4.3981483e-05	668458.9	194647.58	-0.00019725914	194649.34	668458.06	-0.0001375623
0	0.6163524	0.6163505	-1.2871434e-10	0.048931714	0.048931714	0	128262.16	128261.766	-2.3919752e-05	668546.1	194345.36	-0.000103820596	194347.14	668545.25	-6.229236e-05
0	0.6161982	0.61619633	-1.7821987e-10	0.048790433	0.048790433	0	128230.11	128229.7	-3.5493827e-05	668633.3	194042.42	-0.00010901163	194044.23	668632.56	-0.00014275333
0	0.61604375	0.6160419	-1.2871434e-10	0.048648864	0.048648864	0	128197.945	128197.57	-2.7777778e-05	668720.7	193738.83	-9.862957e-05	193740.61	668719.8	-6.748339e-05
0	0.61588854	0.6158867	6.435717e-11	0.048507594	0.048507594	0	128165.63	128165.26	9.259259e-06	668808.06	193434.11	4.7043708e-05	193435.88	668807.25	2.3684073e-05
0	0.61573386	0.61573195	-2.0297262e-10	0.048366074	0.048366074	0	128133.445	128133.07	-4.3981483e-05	668895.25	193130.42	-0.00019206811	193132.22	668894.4	-0.0001219892
0	0.61557806	0.61557615	-1.5346711e-10	0.048224576	0.048224576	0	128101.03	128100.63	-3.0092593e-05	668982.7	192824.8	-0.000103820596	192826.58	668981.8	-8.0460966e-05
0	0.61542225	0.61542034	-1.1386269e-10	0.048083298	0.048083298	0	128068.61	128068.22	-2.3919752e-05	669069.94	192519.33	-3.633721e-05	192521.12	669069.1	-0.00011355378
0	0.6152658	0.6152638	-3.910936e-10	0.04794178	0.047941785	0	128036.03	128035.64	-8.256173e-05	669157.3	192212.94	-0.0002751246	192214.73	669156.44	-0.00029069767
0	0.6151092	0.6151073	-1.9307152e-10	0.047800448	0.047800444	0	128003.46	128003.07	-3.9351853e-05	669244.75	191906.28	-0.0001557309	191908.08	669243.9	-0.000119393684
0	0.6149526	0.6149507	-2.4752759e-11	0.047658946	0.047658946	0	127970.88	127970.484	-7.716049e-06	669331.9	191600.02	-1.0382059e-05	191601.84	669330.94	-2.2710756e-05
0	0.61479485	0.614793	-2.4752758e-10	0.047517657	0.047517657	0	127938.055	127937.65	-5.169753e-05	669419.3	191291.66	-0.000119393684	191293.45	669418.5	-0.00022840532
0	0.61463726	0.61463535	-2.2277484e-10	0.047376156	0.047376156	0	127905.26	127904.86	-5.015432e-05	669506.6	190983.67	-0.00018687708	190985.5	669505.75	-0.00013496677
0	0.6144785	0.61447656	-1.0396159e-10	0.047234654	0.047234654	0	127872.22	127871.81	-1.9290124e-05	669594.25	190673.78	-3.633721e-05	190675.58	669593.4	-0.00011647373
0	0.61432093	0.6143189	-2.2277484e-10	0.047093365	0.047093365	0	127839.44	127839.016	-4.70679e-05	669681.2	190366.28	-0.00017130398	190368.11	669680.25	-0.00016351744
0	0.6141621	0.6141602	-1.3861545e-10	0.0469518	0.0469518	0	127806.36	127805.96	-2.5462963e-05	669768.56	190056.4	-0.00011420266	190058.23	669767.8	-9.862957e-05
0	0.61400247	0.61400056	-2.574287e-10	0.046810526	0.046810526	0	127773.16	127772.76	-5.4012347e-05	669856.06	189745.58	-0.00022840532	189747.4	669855.2	-0.0001434022
0	0.6138433	0.6138414	-3.2673642e-10	0.04666901	0.04666901	0	127740.03	127739.64	-6.558642e-05	669943.25	189435.53	-0.00024916945	189437.36	669942.4	-0.00021769882
0	0.6136839	0.6136819	-1.3861545e-10	0.04652774	0.04652774	0	127706.84	127706.45	-2.9320987e-05	670030.25	189125.3	-7.267442e-05	189127.11	670029.4	-0.00010641611
0	0.6135229	0.6135209	-4.9505518e-11	0.04638624	0.04638624	0	127673.36	127672.96	-3.8580247e-06	670117.9	188812.33	-2.0764119e-05	188814.16	670117	-2.7577345e-05
0	0.6133634	0.6133614	-3.2673642e-10	0.04624473	0.04624473	0	127640.16	127639.76	-6.9444446e-05	670204.9	188502	-0.00031957278	188503.86	670203.94	-0.0001738995
0	0.61320126	0.61319935	-4.9505518e-11	0.046103444	0.046103444	0	127606.414	127606.02	-9.259259e-06	670292.7	188187.28	-2.5955149e-05	188189.12	670291.75	-2.0764119e-05
0	0.6130411	0.6130392	-3.415881e-10	0.045961883	0.045961883	0	127573.09	127572.7	-7.0987655e-05	670379.3	187876.4	-0.0003082174	187878.25	670378.5	-0.00018557932
0	0.6128786	0.6128767	-3.0693423e-10	0.04582059	0.045820594	0	127539.305	127538.9	-6.095679e-05	670466.9	187561.36	-0.0002803156	187563.2	670466.06	-0.00016870847
0	0.6127165	0.6127145	-4.4554967e-11	0.045679096	0.045679096	0	127505.55	127505.14	-1.3117284e-05	670554.1	187247.08	-6.748339e-05	187248.92	670553.3	2.5955148e-06
0	0.6125528	0.61255085	-4.9505518e-11	0.0455376	0.0455376	0	127471.48	127471.086	-1.0802469e-05	670641.94	186930.1	-5.1910297e-06	186931.97	670641.06	-6.164348e-05
0	0.6123905	0.61238855	-2.87132e-10	0.045396302	0.0453963	0	127437.71	127437.3	-5.8641974e-05	670729.1	186615.75	-0.00023359635	186617.58	670728.25	-0.00019012147