//mumax 3.10 [windows_amd64 go1.11.6(gc) CUDA-11.0]
//GPU info: NVIDIA GeForce RTX 3090(24575MB), CUDA Driver 12.1, cc=8.6, using cc=80 PTX
//(c) Arne Vansteenkiste, Dynamat LAB, Ghent University, Belgium
//This is free software without any warranty. See license.txt
//********************************************************************//
//  If you use mumax in any work or publication,                      //
//  we kindly ask you to cite the references in references.bib        //
//********************************************************************//
//output directory: r1;p0.5;a4.2e-07;l1.8000000000000002e-07;s0.out/
randSeed(0)
ThermSeed(0)
resolution := 2e-09
zResolution := 5e-09
a := 4.2e-07
gridSize := 420
gridDepth := 5
SetCellsize(resolution, resolution, zResolution)
SetGridsize(gridSize, gridSize, gridDepth)
SetPBC(16, 16, 0)
//resizing...
Msat = 700e3
Aex = 13e-12
alpha = 0.2
Bmax := 0.1
Bstep := Bmax / 500.0
TableAdd(B_ext)
TableAdd(m_full)
islandWidth := 8e-08
islandLength := 1.8000000000000002e-07
ellipseConstant := 4.5000000000000006e-08
hIsland := Universe().Inverse()
vIsland := Universe().Inverse()
vIslands := Universe().Inverse()
hIslands := Universe().Inverse()
hIsland = rect(islandLength-2*ellipseConstant, islandWidth)
hIsland = hIsland.add(ellipse(ellipseConstant*2, islandWidth).transl(islandLength/2-ellipseConstant, 0, 0))
hIsland = hIsland.add(ellipse(ellipseConstant*2, islandWidth).transl(-islandLength/2+ellipseConstant, 0, 0))
hIsland = hIsland.sub(rect(9.712196051639836e-09, -7.78296889558168e-10).transl(8.91712373730856e-09, -4e-08, 0))
hIsland = hIsland.add(rect(2.8659697436317438e-09, 4.4154854396557076e-10).transl(-2.0967611425857538e-08, -4e-08, 0))
hIsland = hIsland.sub(rect(4.633053605765033e-09, -9.111149798692199e-10).transl(7.12019745433339e-08, -3.2519930815901165e-08, 0))
hIsland = hIsland.sub(rect(5.520808347066301e-09, -8.592454786282052e-10).transl(-1.975875595390616e-08, -4e-08, 0))
hIsland = hIsland.sub(rect(7.829939264690944e-09, -1.695388126039603e-09).transl(-7.388517408381711e-08, -3.067177694165407e-08, 0))
hIsland = hIsland.sub(rect(8.267094890258531e-09, -3.3868657050084477e-09).transl(4.688017340343099e-08, -3.996507065516735e-08, 0))
hIsland = hIsland.sub(rect(9.513259517188623e-09, -8.759416836641343e-10).transl(3.1072479038104114e-08, -4e-08, 0))
hIsland = hIsland.add(rect(5.899902519722866e-09, 1.0269549683516415e-09).transl(-1.5024391518448967e-08, -4e-08, 0))
hIsland = hIsland.add(rect(4.874571647045285e-09, 4.9282404541678125e-09).transl(6.884886980054324e-08, -3.3920533529891354e-08, 0))
hIsland = hIsland.add(rect(3.611009369083761e-09, 5.047001554868657e-09).transl(4.12649683797352e-08, -4e-08, 0))
hIsland = hIsland.add(rect(8.785978450418504e-09, 1.763772759494453e-10).transl(-1.7028656940149578e-08, -4e-08, 0))
hIsland = hIsland.add(rect(6.276630514498546e-09, 3.6096680135815173e-10).transl(-5.2047624827246234e-08, -3.950639626206514e-08, 0))
hIsland = hIsland.add(rect(6.317247806717394e-09, 1.3328434684258165e-10).transl(-2.939168581633655e-08, -4e-08, 0))
hIsland = hIsland.add(rect(4.574109725949854e-09, 3.3392375098879464e-09).transl(6.574126498129964e-08, -3.549772994418839e-08, 0))
hIsland = hIsland.add(rect(8.80496224988243e-09, 1.5290445233248328e-09).transl(3.2222069620552663e-08, -4e-08, 0))
hIsland = hIsland.add(rect(7.902415716775748e-09, 9.938974751455584e-10).transl(2.0618160655931665e-08, -4e-08, 0))
hIsland = hIsland.sub(rect(7.003272920619083e-09, -1.5108190696891626e-09).transl(-7.147850116320965e-08, -3.2342475697477166e-08, 0))
hIsland = hIsland.add(rect(3.169123976756553e-09, 8.740588980189701e-10).transl(8.807628966992354e-08, -1.1570358664405552e-08, 0))
hIsland = hIsland.sub(rect(8.68636272691837e-09, -3.4011082195741323e-09).transl(3.6150589024630244e-08, -4e-08, 0))
hIsland = hIsland.add(rect(4.317432258892609e-09, 5.486797925722323e-10).transl(-8.120585651189314e-08, -2.3754064258193482e-08, 0))
hIsland = hIsland.add(rect(8.315606081094996e-09, 9.148679875472563e-10).transl(-2.267769525578671e-08, -4e-08, 0))
hIsland = hIsland.sub(rect(9.24462657641337e-09, -2.178959000934857e-09).transl(-3.24696317896812e-08, -4e-08, 0))
hIsland = hIsland.add(rect(6.6280365088812785e-09, 7.860495818677271e-10).transl(-8.817359530020753e-10, -4e-08, 0))
hIsland = hIsland.sub(rect(2.7078584279783578e-09, -3.168987209731718e-09).transl(5.537741678795479e-08, -3.8921857474704925e-08, 0))
hIsland = hIsland.sub(rect(8.225831866411345e-09, -9.236394519629684e-10).transl(-7.49272556020339e-08, -2.987194889969684e-08, 0))
hIsland = hIsland.add(rect(8.11603020394614e-09, 6.88721403738286e-10).transl(6.875034506255477e-08, -3.397510908097809e-08, 0))
hIsland = hIsland.sub(rect(4.67298580611421e-09, -1.381811593437512e-09).transl(5.6774575792957647e-08, -3.860643446551322e-08, 0))
hIsland = hIsland.sub(rect(4.418444952117239e-09, -2.9722193832562197e-09).transl(4.971457034619345e-08, -3.977986662622974e-08, 0))
hIsland = hIsland.sub(rect(8.187727298416925e-09, -7.680987614658248e-10).transl(5.787479707046111e-08, -3.832791176237949e-08, 0))
hIsland = hIsland.add(rect(6.201019369724235e-09, 4.918934612956425e-10).transl(6.596785120732525e-08, -3.5392394699509974e-08, 0))
hIsland = hIsland.add(rect(3.3538621753182413e-09, 2.5162852490523367e-09).transl(-4.110298752992806e-08, -4e-08, 0))
hIsland = hIsland.sub(rect(3.7016933284072046e-09, -3.6375517675562613e-10).transl(-5.0585424368448945e-08, -3.969068588316432e-08, 0))
hIsland = hIsland.add(rect(4.23497276155362e-09, 2.4195072076721655e-09).transl(-2.2710375994058127e-09, -4e-08, 0))
hIsland = hIsland.add(rect(8.717683649019131e-09, 3.643793769850789e-10).transl(5.53395018561006e-08, -3.8929829384361046e-08, 0))
hIsland = hIsland.add(rect(7.451126529832635e-09, 5.384863475006073e-09).transl(-7.505010365842587e-08, -2.977434501099672e-08, 0))
hIsland = hIsland.sub(rect(8.022593723101645e-09, -8.516792060971496e-10).transl(7.726143836582323e-08, -2.7886182704552017e-08, 0))
hIsland = hIsland.sub(rect(9.000215516709117e-09, -1.0555246731745455e-09).transl(-5.36808650435565e-08, -3.924867305362775e-08, 0))
hIsland = hIsland.sub(rect(3.243376441887172e-09, -1.5227332513519456e-09).transl(5.1730311618318134e-08, -3.9550091063449854e-08, 0))
hIsland = hIsland.sub(rect(4.48910878260145e-09, -8.519026485095509e-10).transl(-1.6089704715528917e-08, -4e-08, 0))
hIsland = hIsland.sub(rect(3.610085428734454e-09, -9.601943344028572e-10).transl(2.6441532440187196e-08, -4e-08, 0))
hIsland = hIsland.add(rect(3.4277955931244784e-09, 1.1829023278655762e-09).transl(-8.29906872106468e-08, -2.143877065321665e-08, 0))
hIsland = hIsland.add(rect(5.927560993743571e-09, 2.1026261609987516e-09).transl(2.9322364097465487e-09, -4e-08, 0))
hIsland = hIsland.add(rect(8.254360763357103e-09, 1.6062780967999058e-09).transl(-4.865393901584088e-08, -3.986791752942644e-08, 0))
hIsland = hIsland.add(rect(9.177303606585897e-09, 1.762714744949379e-09).transl(-5.438051933881834e-08, -3.9121269962815006e-08, 0))
hIsland = hIsland.add(rect(9.326560335382972e-09, 4.1089971633139033e-10).transl(-5.434797423889195e-09, -4e-08, 0))
hIsland = hIsland.add(rect(9.519265060053111e-09, 5.083743106552494e-09).transl(-4.0082854061362616e-08, -4e-08, 0))
hIsland = hIsland.add(rect(2.648983753618593e-09, 3.2898445935704493e-09).transl(6.961126215154494e-09, -4e-08, 0))
hIsland = hIsland.add(rect(4.2169597068613956e-09, 1.997917099525557e-09).transl(2.8271266442164527e-08, -4e-08, 0))
hIsland = hIsland.sub(rect(2.4224362776372237e-09, -1.2435528316018955e-09).transl(-7.53243036268644e-08, -2.9553872761393453e-08, 0))
hIsland = hIsland.sub(rect(2.3221256353546647e-09, -8.936824563916877e-10).transl(8.260294617867607e-08, -2.1972255253732685e-08, 0))
hIsland = hIsland.sub(rect(9.57957053336043e-09, -1.920120077507731e-09).transl(-7.560249660456187e-08, -2.93264261439157e-08, 0))
hIsland = hIsland.add(rect(8.951088859303636e-09, 3.5991705174424125e-09).transl(9.468861668739952e-09, -4e-08, 0))
hIsland = hIsland.sub(rect(3.438112534255365e-09, -1.8154128185797975e-09).transl(-3.675381560301452e-08, -4e-08, 0))
hIsland = hIsland.sub(rect(7.197030801414642e-09, -6.440649766950344e-10).transl(1.7430791738463614e-08, -4e-08, 0))
hIsland = hIsland.add(rect(5.880695917976364e-09, 4.3658325908092495e-10).transl(-2.0772232607698617e-08, -4e-08, 0))
hIsland = hIsland.sub(rect(8.769194994327066e-09, -1.3928413118046007e-11).transl(-5.959905330716071e-08, -3.783647876012874e-08, 0))
hIsland = hIsland.sub(rect(2.9547655721872107e-09, -4.2873261057711763e-10).transl(-8.322201086153498e-08, -2.1111399028693083e-08, 0))
hIsland = hIsland.add(rect(2.810492890884211e-09, 1.2621157028249172e-09).transl(8.465667713647152e-08, -1.8905309641393447e-08, 0))
hIsland = hIsland.add(rect(3.1235999610751835e-09, 2.9495767747417417e-12).transl(5.8356978813967425e-08, -3.8197316091748103e-08, 0))
hIsland = hIsland.add(rect(8.048590592711012e-09, 2.7369130838663467e-09).transl(-2.115809025496137e-08, -4e-08, 0))
hIsland = hIsland.sub(rect(3.90178962785909e-09, -4.830186993346103e-09).transl(-6.29521714401581e-08, -3.667913097865961e-08, 0))
hIsland = hIsland.sub(rect(2.2080790447515595e-09, -1.833223323856874e-09).transl(8.652918719396187e-08, -1.5404385740963326e-08, 0))
hIsland = hIsland.sub(rect(8.610909024114991e-09, -8.720240334507264e-10).transl(-8.584241365199031e-08, -1.679264382345747e-08, 0))
hIsland = hIsland.sub(rect(4.01158455928754e-09, -1.2618938868971066e-09).transl(-3.881104580804482e-08, -4e-08, 0))
hIsland = hIsland.add(rect(8.942075554531965e-09, 1.1909811877168035e-09).transl(7.670637943694703e-09, -4e-08, 0))
hIsland = hIsland.add(rect(9.818059920731748e-09, 1.129927794017669e-09).transl(3.22914533666099e-08, -4e-08, 0))
hIsland = hIsland.sub(rect(6.269998631045752e-09, -3.789576184194654e-10).transl(-4.080092279077598e-08, -4e-08, 0))
hIsland = hIsland.sub(rect(4.217434904912502e-09, -2.4722250851158874e-09).transl(7.4943585765132e-08, -2.9859015839188116e-08, 0))
hIsland = hIsland.sub(rect(8.405216566338149e-09, -1.3737824522535807e-09).transl(-7.14122843441492e-08, -3.238522736809195e-08, 0))
hIsland = hIsland.add(rect(6.966386816754158e-09, 5.691945903125667e-10).transl(-8.19270771433451e-08, -2.286002017474354e-08, 0))
hIsland = hIsland.sub(rect(2.4030016741327547e-09, -7.928067665919904e-10).transl(-1.831109448075828e-08, -4e-08, 0))
hIsland = hIsland.add(rect(9.889997277567094e-09, 2.4827903480188284e-09).transl(7.13251478885957e-08, -3.2441236841667094e-08, 0))
hIsland = hIsland.add(rect(8.366950166167329e-09, 3.1280754544055774e-10).transl(4.035327078604196e-08, -4e-08, 0))
hIsland = hIsland.sub(rect(2.230042837881427e-09, -1.379820401160396e-09).transl(1.1812646792944389e-08, -4e-08, 0))
hIsland = hIsland.add(rect(2.7197890855477074e-09, 2.9491021383644543e-09).transl(-3.9878764738427845e-08, -4e-08, 0))
hIsland = hIsland.add(rect(5.343733397240164e-09, 2.0113163884357174e-09).transl(5.084511337893823e-08, -3.966112902111483e-08, 0))
hIsland = hIsland.sub(rect(7.821789207599629e-09, -1.6060492589922312e-09).transl(-2.585908143286222e-08, -4e-08, 0))
hIsland = hIsland.add(rect(6.773915003139725e-09, 2.1125642022340305e-09).transl(-7.037246329683417e-08, -3.3035566094152655e-08, 0))
hIsland = hIsland.add(rect(8.807650637531833e-09, 1.9793997874216467e-09).transl(8.608949758660608e-08, -1.630943226189734e-08, 0))
hIsland = hIsland.sub(rect(5.059989894635704e-09, -1.9312361267074428e-10).transl(-2.879648810005963e-08, -4e-08, 0))
hIsland = hIsland.add(rect(8.370113108831148e-09, 2.2675970849483703e-10).transl(-8.933611193152033e-08, -6.845551356132167e-09, 0))
hIsland = hIsland.sub(rect(5.711080512913644e-09, -2.070433841069e-09).transl(2.7268020074458917e-08, -4e-08, 0))
hIsland = hIsland.sub(rect(4.2960226718111354e-09, -1.8043652398493393e-09).transl(-6.13600335420155e-08, -3.7262889121514376e-08, 0))
hIsland = hIsland.add(rect(6.9412462468698376e-09, 1.920091208622586e-09).transl(3.7196578810969636e-08, -4e-08, 0))
hIsland = hIsland.sub(rect(5.91830289050703e-09, -2.0773879791648864e-09).transl(-8.658616709186054e-08, -1.5282445841554117e-08, 0))
hIsland = hIsland.add(rect(8.840033993967555e-09, 1.2447767828443272e-09).transl(-6.690381781086153e-08, -3.4941619207421015e-08, 0))
hIsland = hIsland.sub(rect(3.3101035893488852e-09, -3.444106878878955e-10).transl(-7.655122358973607e-08, -2.8521012085177665e-08, 0))
hIsland = hIsland.add(rect(3.790659049533408e-09, 7.981763204859899e-10).transl(6.285073140686533e-08, -3.671822786266757e-08, 0))
hIsland = hIsland.sub(rect(2.838843352610103e-09, -8.751832227744595e-10).transl(-4.370787962645404e-08, -4e-08, 0))
hIsland = hIsland.add(rect(4.095121628895035e-09, 6.648893322005173e-10).transl(-6.219765772525145e-08, -3.696367860230364e-08, 0))
hIsland = hIsland.add(rect(3.6294540138082667e-09, 2.4786757056118297e-09).transl(7.925922140519533e-08, -2.5935239365695027e-08, 0))
hIsland = hIsland.sub(rect(7.585406382817356e-09, -2.9483112797585e-09).transl(-7.393238013794864e-08, -3.063660206866401e-08, 0))
hIsland = hIsland.add(rect(8.265247047387628e-09, 1.3118129958345095e-10).transl(5.768654958667406e-08, -3.8377477547148215e-08, 0))
hIsland = hIsland.add(rect(3.9294948492809655e-09, 2.840750329220956e-10).transl(9.06544525141372e-09, -4e-08, 0))
hIsland = hIsland.add(rect(7.39579676623095e-09, 1.8466007144809431e-09).transl(7.392956722104804e-09, -4e-08, 0))
hIsland = hIsland.add(rect(6.618400014140921e-09, 1.0609230849296029e-09).transl(2.9608261679110416e-08, -4e-08, 0))
hIsland = hIsland.sub(rect(8.78761996909042e-09, -1.0320830193310658e-10).transl(4.66280630196234e-08, -3.997381276913715e-08, 0))
hIsland = hIsland.add(rect(2.87981148908538e-09, 2.384336785018595e-10).transl(-1.812325420480843e-08, -4e-08, 0))
hIsland = hIsland.sub(rect(8.628377840459757e-09, -7.688340225621357e-10).transl(-1.2804055296865713e-08, -4e-08, 0))
hIsland = hIsland.add(rect(9.616725654572537e-09, 8.449215849846685e-10).transl(-1.8506356663422636e-08, -4e-08, 0))
hIsland = hIsland.sub(rect(2.888111583672268e-09, -3.668750932567377e-09).transl(2.764469809250191e-08, -4e-08, 0))
hIsland = hIsland.add(rect(4.275859556649876e-09, 7.11825851502201e-10).transl(-4.0677085170670215e-08, -4e-08, 0))
hIsland = hIsland.sub(rect(4.9180292994273594e-09, -2.482069434756226e-09).transl(4.4218463105537385e-08, -4e-08, 0))
hIsland = hIsland.add(rect(6.943717805797062e-09, 1.1111164900180247e-09).transl(5.2953394485311694e-08, -3.9370287887247554e-08, 0))
hIsland = hIsland.add(rect(3.868877263779853e-09, 7.825815892058708e-10).transl(4.052706540801135e-08, -4e-08, 0))
hIsland = hIsland.add(rect(7.479070417489245e-09, 3.672084057473562e-10).transl(-5.1811841504149107e-08, -3.953906088367982e-08, 0))
hIsland = hIsland.add(rect(8.471718563903755e-09, 7.932242620699648e-10).transl(1.706799562247718e-08, -4e-08, 0))
hIsland = hIsland.sub(rect(6.829970805311266e-09, -3.7684362921488445e-09).transl(-7.553813537768075e-09, -4e-08, 0))
hIsland = hIsland.sub(rect(3.2847046949420452e-09, -2.5524144772913743e-09).transl(6.605275483518438e-08, -3.535254838918373e-08, 0))
hIsland = hIsland.sub(rect(8.08935651107005e-09, -1.06566957127999e-09).transl(-1.070243337581406e-08, -4e-08, 0))
hIsland = hIsland.add(rect(5.96405836711676e-09, 1.1636691858288509e-09).transl(-5.1074137911188776e-08, -3.963392833754144e-08, 0))
hIsland = hIsland.add(rect(6.6141941628224935e-09, 1.1999481846842524e-09).transl(6.272625155045488e-08, -3.676584572839909e-08, 0))
hIsland = hIsland.sub(rect(6.013092453956493e-09, -8.069258722263772e-10).transl(-6.988729163848622e-08, -3.3325898014010736e-08, 0))
hIsland = hIsland.sub(rect(9.791252789575995e-09, -1.3120248619854954e-09).transl(-7.95824912687233e-08, -2.5594000803987448e-08, 0))
hIsland = hIsland.sub(rect(9.657110415031886e-09, -9.654134942746437e-10).transl(1.890862198373994e-09, -4e-08, 0))
hIsland = hIsland.sub(rect(4.4640931500466325e-09, -4.579484699440814e-10).transl(4.216198929260146e-08, -4e-08, 0))
hIsland = hIsland.sub(rect(3.805845949401988e-09, -1.6160854646397909e-09).transl(1.4157647558156864e-09, -4e-08, 0))
hIsland = hIsland.sub(rect(4.1259503999551394e-09, -8.329007146642046e-10).transl(7.017027881905418e-08, -3.315754613233442e-08, 0))
hIsland = hIsland.sub(rect(4.183225265298288e-09, -2.3624578477067074e-09).transl(7.251625947744836e-08, -3.165062941266826e-08, 0))
hIsland = hIsland.sub(rect(3.5935991197219394e-09, -3.443969756761707e-09).transl(-1.1449552774154976e-08, -4e-08, 0))
hIsland = hIsland.sub(rect(6.455399615912196e-09, -6.616580901426713e-10).transl(-4.72998799655786e-08, -3.994772438043813e-08, 0))
hIsland = hIsland.add(rect(8.269873300576343e-09, 2.4873760941202837e-09).transl(-5.5701752970609593e-08, -3.885240176168898e-08, 0))
hIsland = hIsland.add(rect(7.605031010453067e-09, 2.8736678397625602e-09).transl(-1.2664404630808038e-08, -4e-08, 0))
hIsland = hIsland.add(rect(9.123730551400268e-09, 6.7244159484520884e-09).transl(2.010146465980471e-08, -4e-08, 0))
hIsland = hIsland.sub(rect(9.164629952588625e-09, -5.240207545400516e-10).transl(4.516552868880722e-08, -3.99997293843012e-08, 0))
hIsland = hIsland.add(rect(2.976268636596861e-09, 1.748692045502423e-09).transl(-1.1155026838200297e-08, -4e-08, 0))
hIsland = hIsland.add(rect(4.741425312758549e-09, 1.284851067738025e-09).transl(-6.572535614906403e-08, -3.550507096448547e-08, 0))
hIsland = hIsland.add(rect(9.653893359492986e-09, 4.434210224379918e-09).transl(4.4220321540171977e-08, -4e-08, 0))
hIsland = hIsland.sub(rect(9.316782606844665e-09, -4.705756889424201e-10).transl(6.206495310744701e-08, -3.701224222365122e-08, 0))
hIsland = hIsland.add(rect(8.014719140009746e-09, 2.020394840687453e-09).transl(7.315089153940383e-08, -3.120654955676599e-08, 0))
hIsland = hIsland.add(rect(9.105736068764907e-09, 1.5359111529626385e-10).transl(-1.1747485045819326e-08, -4e-08, 0))
hIsland = hIsland.add(rect(8.588155269959141e-09, 1.0234967592280542e-09).transl(3.4771085169679815e-08, -4e-08, 0))
hIsland = hIsland.sub(rect(4.8214208977906866e-09, -6.764476143593638e-10).transl(1.1122306474899196e-08, -4e-08, 0))
hIsland = hIsland.sub(rect(3.2834023513936616e-09, -1.2198721821762982e-09).transl(1.9573335846731003e-08, -4e-08, 0))
hIsland = hIsland.add(rect(4.4922541176993884e-09, 9.991053602032237e-11).transl(5.1380964456744203e-08, -3.959581763774296e-08, 0))
hIsland = hIsland.add(rect(6.390068381785288e-09, 2.3915726207202542e-09).transl(-2.6755798432251633e-08, -4e-08, 0))
hIsland = hIsland.sub(rect(5.754961584157406e-09, -2.0641263658563638e-09).transl(-7.726136001091505e-08, -2.7886254327919128e-08, 0))
hIsland = hIsland.add(rect(9.50796900167064e-09, 2.2660930682107134e-09).transl(1.5534815809582157e-08, -4e-08, 0))
hIsland = hIsland.sub(rect(6.1848564288143645e-09, -2.019711113006693e-09).transl(8.101716295528172e-08, -2.3979645239236773e-08, 0))
hIsland = hIsland.sub(rect(5.159900966502264e-09, -1.7502104029347223e-09).transl(7.280552255837006e-08, -3.145025203070469e-08, 0))
hIsland = hIsland.sub(rect(3.3769738257912385e-09, -3.287327850827712e-09).transl(1.8086038253671107e-08, -4e-08, 0))
hIsland = hIsland.sub(rect(6.730018440364029e-09, -3.5069503764877016e-09).transl(2.0771830094645186e-08, -4e-08, 0))
hIsland = hIsland.add(rect(2.179284191930554e-09, 2.795580663219342e-09).transl(6.97057463169844e-08, -3.34324582306602e-08, 0))
hIsland = hIsland.sub(rect(3.780529417245252e-09, -2.816991404620718e-10).transl(5.757821729816328e-08, -3.840564207110687e-08, 0))
hIsland = hIsland.add(rect(4.319256622015596e-09, 1.3370136103931927e-09).transl(-7.454061071340105e-08, -3.017450243955978e-08, 0))
hIsland = hIsland.sub(rect(3.2872436501181365e-09, -2.1601718048435405e-09).transl(1.5099138287180783e-08, -4e-08, 0))
hIsland = hIsland.add(rect(9.141336344667019e-09, 3.5483170853180903e-10).transl(5.9563421073891376e-08, -3.784732700315288e-08, 0))
hIsland = hIsland.sub(rect(8.6373080117814e-09, -1.6510930708335215e-09).transl(-1.8845656059832017e-08, -4e-08, 0))
hIsland = hIsland.add(rect(9.01452968986399e-09, 1.3830917721287856e-09).transl(1.8202416160921192e-08, -4e-08, 0))
hIsland = hIsland.add(rect(2.9947669749936124e-09, 2.0318094455461126e-09).transl(-1.548689061079703e-08, -4e-08, 0))
hIsland = hIsland.add(rect(4.3300077060780575e-09, 7.127785373136284e-10).transl(-4.8882587559146836e-08, -3.9850838070112377e-08, 0))
hIsland = hIsland.sub(rect(7.254784488689519e-09, -3.0707275552472986e-09).transl(-5.741385936483707e-08, -3.844787237814289e-08, 0))
hIsland = hIsland.add(rect(3.545853967704635e-09, 6.141969429383011e-11).transl(-6.563517545131582e-08, -3.554654923815355e-08, 0))
hIsland = hIsland.sub(rect(8.59857198675781e-09, -2.3641753662581665e-09).transl(8.621467126111461e-08, -1.605794133048927e-08, 0))
hIsland = hIsland.add(rect(4.699478045901541e-09, 1.175032349022128e-09).transl(-7.897911065179652e-09, -4e-08, 0))
hIsland = hIsland.add(rect(2.834499948027439e-09, 5.916374925553769e-10).transl(8.150448959193917e-08, -2.339014864288809e-08, 0))
hIsland = hIsland.add(rect(8.715975158818264e-09, 7.708268387363587e-10).transl(8.762260590305567e-08, -1.2829394213203206e-08, 0))
hIsland = hIsland.add(rect(4.106808659966836e-09, 2.1662043990880643e-10).transl(7.929652269281751e-08, -2.5896256938065677e-08, 0))
hIsland = hIsland.sub(rect(3.9065954313376985e-09, -1.5204299941107556e-09).transl(2.5903071618704056e-09, -4e-08, 0))
hIsland = hIsland.add(rect(4.8630216133373755e-09, 2.8983618254287485e-09).transl(2.8425985932053923e-08, -4e-08, 0))
hIsland = hIsland.add(rect(9.33803986362623e-09, 5.385881974801786e-09).transl(5.570299595496497e-10, -4e-08, 0))
hIsland = hIsland.add(rect(3.740511582831439e-09, 2.1582311322941095e-09).transl(4.0165766830499356e-08, -4e-08, 0))
hIsland = hIsland.sub(rect(7.0268653614997535e-09, -7.774753759900318e-10).transl(8.264234403556335e-08, -2.191888859953096e-08, 0))
hIsland = hIsland.add(rect(9.875117273658362e-09, 1.3384853220329428e-09).transl(-5.4987893523822e-08, -3.900229289069163e-08, 0))
hIsland = hIsland.add(rect(3.984402180181346e-09, 1.1378130673427983e-09).transl(-4.8105655606548356e-08, -3.990462608291916e-08, 0))
hIsland = hIsland.sub(rect(6.050941627718476e-09, -5.534551815740243e-10).transl(2.480699720753503e-08, -4e-08, 0))
hIsland = hIsland.sub(rect(3.572494299010316e-09, -2.0566559765660474e-10).transl(-7.75123590829884e-08, -2.765496772710497e-08, 0))
hIsland = hIsland.add(rect(6.557911512674673e-09, 6.2355127062206726e-09).transl(-3.886287335831062e-10, -4e-08, 0))
hIsland = hIsland.sub(rect(8.067456143613325e-09, -5.821736620709931e-10).transl(1.263640788879317e-08, -4e-08, 0))
hIsland = hIsland.add(rect(7.470194299941018e-09, 7.710095696776464e-10).transl(4.383194922797751e-08, -4e-08, 0))
hIsland = hIsland.add(rect(5.665866371672337e-09, 7.097081227659595e-10).transl(-2.9962975717916595e-08, -4e-08, 0))
hIsland = hIsland.add(rect(5.159599313481766e-09, 2.5088460732945575e-09).transl(5.1476501596444015e-08, -3.958355989526749e-08, 0))
hIsland = hIsland.sub(rect(2.635186963639888e-09, -3.3351428020622125e-10).transl(4.95511648583297e-09, -4e-08, 0))
hIsland = hIsland.add(rect(5.367994616692734e-09, 2.5430866784066118e-09).transl(-4.5870029009955045e-09, -4e-08, 0))
hIsland = hIsland.add(rect(7.998876060521943e-09, 1.4355811013751907e-09).transl(-4.312280715218416e-08, -4e-08, 0))
hIsland = hIsland.add(rect(7.925345586079165e-09, 9.689683543261884e-10).transl(5.5761903618347775e-08, -3.8839271768579735e-08, 0))
hIsland = hIsland.add(rect(3.1981037004138946e-09, 3.8927342521964364e-10).transl(-6.087930100283354e-08, -3.742684373322492e-08, 0))
hIsland = hIsland.add(rect(5.666157338566523e-09, 1.366246731156616e-09).transl(-4.410086947003074e-08, -4e-08, 0))
hIsland = hIsland.add(rect(5.7001651851468565e-09, 1.393828709675868e-09).transl(-7.794885534275352e-08, -2.7243725661749798e-08, 0))
hIsland = hIsland.add(rect(8.003695001052048e-09, 2.8664782830558513e-10).transl(4.307263577291243e-08, -4e-08, 0))
hIsland = hIsland.add(rect(6.1289201202525396e-09, 2.456704468574556e-09).transl(-2.1871231599801952e-08, -4e-08, 0))
hIsland = hIsland.sub(rect(5.070627695512065e-09, -1.086120725436478e-09).transl(-1.3188897673039949e-08, -4e-08, 0))
hIsland = hIsland.add(rect(7.419595644754658e-09, 1.2669186344152607e-09).transl(7.016689305719699e-08, -3.315957668612569e-08, 0))
hIsland = hIsland.add(rect(8.476605543355281e-09, 3.253550318570519e-10).transl(4.5790284910881086e-08, -3.9993831126876837e-08, 0))
hIsland = hIsland.add(rect(8.418481307973871e-09, 2.5964002789759982e-09).transl(4.35430151121387e-08, -4e-08, 0))
hIsland = hIsland.add(rect(7.494170679473368e-09, 1.9299304974129018e-10).transl(1.4363634556664684e-08, -4e-08, 0))
hIsland = hIsland.add(rect(5.492547974818101e-09, 1.468260294708058e-09).transl(8.093445641734403e-08, -2.4077485484397258e-08, 0))
hIsland = hIsland.add(rect(2.7777853480471547e-09, 4.942254631382879e-10).transl(7.66526735833955e-08, -2.8432056399938743e-08, 0))
hIsland = hIsland.sub(rect(2.6122417774671595e-09, -8.952897915882779e-11).transl(-7.002028871519182e-09, -4e-08, 0))
hIsland = hIsland.sub(rect(4.282656140624253e-09, -2.2368675664331162e-09).transl(-3.9979681832092814e-08, -4e-08, 0))
hIsland = hIsland.add(rect(6.420497636312714e-09, 2.663707760007629e-09).transl(-8.043502006508531e-10, -4e-08, 0))
hIsland = hIsland.add(rect(9.107039551758252e-09, 4.281021607486223e-09).transl(8.257250097443331e-08, -2.201336824864241e-08, 0))
hIsland = hIsland.sub(rect(4.893827781407775e-09, -1.394083450322992e-09).transl(-1.3763528537979025e-08, -4e-08, 0))
hIsland = hIsland.sub(rect(6.0553835634979756e-09, -1.989549396680334e-09).transl(2.745065021402736e-08, -4e-08, 0))
hIsland = hIsland.sub(rect(7.609857460873982e-09, -1.5254144576371108e-09).transl(-1.8002425523141694e-08, -4e-08, 0))
hIsland = hIsland.add(rect(4.860341856342327e-09, 4.2133501352937734e-10).transl(-6.705975963818503e-08, -3.4864019498184377e-08, 0))
hIsland = hIsland.add(rect(8.460971203669525e-09, 2.5304781163341213e-09).transl(-1.1616373846120738e-08, -4e-08, 0))
hIsland = hIsland.add(rect(5.70365687339147e-09, 8.563810177348688e-10).transl(6.691113329575986e-08, -3.493799502619922e-08, 0))
hIsland = hIsland.sub(rect(8.616586438576502e-09, -6.993949309722121e-10).transl(5.6733209447873726e-08, -3.8616384123928236e-08, 0))
hIsland = hIsland.sub(rect(3.0092349578401038e-09, -1.4328577528449567e-09).transl(1.51719495478774e-08, -4e-08, 0))
hIsland = hIsland.sub(rect(7.423859927443092e-09, -2.047064113064284e-09).transl(-3.774587294516647e-08, 4e-08, 0))
hIsland = hIsland.sub(rect(7.200506113552524e-09, -1.0158126079120819e-09).transl(-2.2296818891086184e-08, 4e-08, 0))
hIsland = hIsland.add(rect(8.33686422762764e-09, 2.934682368794682e-10).transl(7.082501831009917e-08, 3.275731554786887e-08, 0))
hIsland = hIsland.sub(rect(8.934566236312566e-09, -1.4926217374630243e-09).transl(-6.662488487163757e-08, 3.507862749726799e-08, 0))
hIsland = hIsland.sub(rect(2.0253670472852916e-09, -3.946773056072282e-09).transl(-2.547603028852262e-08, 4e-08, 0))
hIsland = hIsland.add(rect(7.149160513918225e-09, 1.6579005080733252e-09).transl(-2.9150455960754918e-08, 4e-08, 0))
hIsland = hIsland.sub(rect(6.770831272402762e-09, -1.851402003991365e-10).transl(-5.50604443930093e-08, 3.8987556950012945e-08, 0))
hIsland = hIsland.sub(rect(2.044966431618259e-09, -3.4722796388120143e-09).transl(-4.772056089736831e-08, 3.992683232463446e-08, 0))
hIsland = hIsland.sub(rect(5.238800059123996e-09, -2.580805326460426e-09).transl(6.954717016778078e-08, 3.3524623703664554e-08, 0))
hIsland = hIsland.sub(rect(8.34413781837242e-09, -5.2682109123270444e-11).transl(4.8494665088680314e-08, 3.9879198485380974e-08, 0))
hIsland = hIsland.add(rect(9.425142339720944e-09, 9.527128653292439e-10).transl(-2.9513383254607113e-08, 4e-08, 0))
hIsland = hIsland.sub(rect(4.952616200396453e-09, -7.8953888957869e-11).transl(-3.683946364967591e-08, 4e-08, 0))
hIsland = hIsland.sub(rect(7.311735134166772e-09, -2.2756468387759696e-09).transl(-6.601078334820312e-08, 3.537227185625049e-08, 0))
hIsland = hIsland.add(rect(7.552034515421135e-09, 1.2461458217877123e-09).transl(2.6825425822325324e-08, 4e-08, 0))
hIsland = hIsland.sub(rect(9.254113960844601e-09, -1.7076201369087429e-09).transl(-2.471737262675251e-08, 4e-08, 0))
hIsland = hIsland.add(rect(8.030888960376421e-09, 1.9655606332827658e-10).transl(-4.3288993004855927e-08, 4e-08, 0))
hIsland = hIsland.sub(rect(8.596589113044392e-09, -1.4607577001000822e-09).transl(-4.286702078650785e-08, 4e-08, 0))
hIsland = hIsland.sub(rect(5.4547735945012305e-09, -3.3174339479168554e-09).transl(-4.8670344855764615e-08, 3.986672680426295e-08, 0))
hIsland = hIsland.sub(rect(3.6588040055187723e-09, -2.7614254256279503e-09).transl(-7.723780271828881e-08, 2.7907771575114047e-08, 0))
hIsland = hIsland.add(rect(5.863265664745664e-09, 1.0773736532964695e-09).transl(-1.4254631774026055e-08, 4e-08, 0))
hIsland = hIsland.sub(rect(6.7185057647393064e-09, -3.423708724726354e-09).transl(-3.5562999093689264e-08, 4e-08, 0))
hIsland = hIsland.sub(rect(4.834381734002284e-09, -5.567833672275282e-09).transl(-4.6637670440573776e-08, 3.99735026856598e-08, 0))
hIsland = hIsland.sub(rect(4.848944635414434e-09, -1.0100143198521528e-09).transl(1.4664283667550516e-08, 4e-08, 0))
hIsland = hIsland.sub(rect(3.163255086503476e-09, -7.684862472391307e-10).transl(3.87748114621406e-08, 4e-08, 0))
hIsland = hIsland.sub(rect(5.435122730958248e-09, -7.169718934624327e-10).transl(-7.765618894516353e-08, 2.7520742504737645e-08, 0))
hIsland = hIsland.add(rect(8.555723645921445e-09, 1.4530632268347492e-09).transl(-7.638099277602263e-08, 2.8669020298090392e-08, 0))
hIsland = hIsland.sub(rect(8.063375617174182e-09, -7.195546429666067e-10).transl(8.954495683779107e-08, 5.674065431761943e-09, 0))
hIsland = hIsland.sub(rect(9.832625080613632e-09, -1.3529761017865226e-09).transl(-7.563534808410107e-08, 2.9299312901609854e-08, 0))
hIsland = hIsland.sub(rect(3.988018097284291e-09, -7.120409653527709e-10).transl(7.612232616610244e-08, 2.8890951229097032e-08, 0))
hIsland = hIsland.add(rect(8.13650275138638e-09, 1.6078212177715783e-09).transl(-8.652387435496297e-08, 1.5415697846398543e-08, 0))
hIsland = hIsland.add(rect(5.367313303940066e-09, 5.289882610835845e-11).transl(-5.6786465566506225e-08, 3.860356771792915e-08, 0))
hIsland = hIsland.sub(rect(2.0704050598652614e-09, -8.863034065210093e-10).transl(9.385456453922773e-09, 4e-08, 0))
hIsland = hIsland.sub(rect(5.93425259046833e-09, -1.5287309585677815e-09).transl(5.612145659811293e-08, 3.8759155828045946e-08, 0))
hIsland = hIsland.add(rect(6.604517503646509e-09, 2.3571881228048695e-09).transl(-7.772527061478795e-08, 2.7455829047625966e-08, 0))
hIsland = hIsland.add(rect(9.742596848270062e-09, 1.7503278047339222e-09).transl(8.809389452991242e-08, 1.1518444827976516e-08, 0))
hIsland = hIsland.add(rect(9.284899316056793e-09, 2.383668499183114e-09).transl(-1.5043047690329956e-08, 4e-08, 0))
hIsland = hIsland.sub(rect(6.622151521434196e-09, -5.938882737322821e-10).transl(-4.878372188252814e-08, 3.985835115769239e-08, 0))
hIsland = hIsland.add(rect(4.499608370213978e-09, 2.8117819709409637e-09).transl(5.0243532285933845e-08, 3.972752002381427e-08, 0))
hIsland = hIsland.sub(rect(6.2024655804762465e-09, -1.9058235673400758e-09).transl(6.844471741488201e-09, 4e-08, 0))
hIsland = hIsland.sub(rect(2.631600953897011e-09, -7.246589997874218e-11).transl(-4.253771843515838e-08, 4e-08, 0))
hIsland = hIsland.add(rect(2.6667085582339214e-09, 2.64912279081448e-10).transl(-8.801588960206253e-08, 1.1746566333894288e-08, 0))
hIsland = hIsland.add(rect(3.4774488374274944e-09, 9.204336479760164e-10).transl(1.498954577255614e-08, 4e-08, 0))
hIsland = hIsland.add(rect(4.7158544140116394e-09, 9.85788574543422e-10).transl(3.725708939412817e-08, 4e-08, 0))
hIsland = hIsland.add(rect(3.1785356461385066e-09, 2.8802558415587824e-09).transl(-6.681551221447394e-08, 3.498524191792045e-08, 0))
hIsland = hIsland.add(rect(7.141147660065293e-09, 2.2267353187521144e-09).transl(-8.266227086412708e-08, 2.1891825695500433e-08, 0))
hIsland = hIsland.sub(rect(7.0030097671883744e-09, -1.3365953491830163e-09).transl(-3.044175813110792e-08, 4e-08, 0))
hIsland = hIsland.sub(rect(4.2142799341489485e-09, -8.395395197021386e-11).transl(-8.986931859142803e-08, 3.0462118653563013e-09, 0))
hIsland = hIsland.add(rect(8.68952833564829e-09, 2.315202925950767e-09).transl(7.914068688775549e-08, 2.605844900429465e-08, 0))
hIsland = hIsland.add(rect(5.390416704925216e-09, 4.4504588050974765e-10).transl(-5.201443740303031e-08, 3.951106279631061e-08, 0))
hIsland = hIsland.sub(rect(9.483860820727533e-09, -2.2349176494679203e-09).transl(3.051406047754178e-09, 4e-08, 0))
hIsland = hIsland.add(rect(9.24587268752582e-09, 1.9455483358965644e-09).transl(6.242496379453803e-08, 3.6879470141707136e-08, 0))
hIsland = hIsland.add(rect(3.7548713517834625e-09, 2.046092796270529e-10).transl(-6.038375853536928e-08, 3.759001678158529e-08, 0))
hIsland = hIsland.add(rect(4.94982802010614e-09, 2.340353815654955e-09).transl(5.323941080395989e-08, 3.9323786508496344e-08, 0))
hIsland = hIsland.sub(rect(6.275332506145764e-09, -1.6983490017837378e-09).transl(5.775253064932298e-08, 3.83601950281537e-08, 0))
hIsland = hIsland.sub(rect(4.689823063640681e-09, -8.705577605804545e-10).transl(4.893422204268508e-08, 3.984683660830517e-08, 0))
hIsland = hIsland.add(rect(6.239547475847485e-09, 5.914457421019036e-10).transl(-1.3321566407532094e-08, 4e-08, 0))
hIsland = hIsland.add(rect(7.492914743381809e-09, 1.4148407412938877e-09).transl(-4.3266317327011426e-08, 4e-08, 0))
hIsland = hIsland.add(rect(2.2225238889832317e-09, 1.568420875814596e-09).transl(4.014881412217271e-08, 4e-08, 0))
hIsland = hIsland.sub(rect(5.233651656409283e-09, -1.6104306115328472e-09).transl(-5.131475328207604e-08, 3.9604203702421815e-08, 0))
hIsland = hIsland.add(rect(5.205548913102722e-09, 6.736183149375595e-10).transl(-1.671439771589537e-08, 4e-08, 0))
hIsland = hIsland.add(rect(5.0432455228534805e-09, 1.2092558291134517e-09).transl(7.954015786710927e-08, 2.5639128962153e-08, 0))
hIsland = hIsland.add(rect(5.79275929998662e-09, 4.188438023625076e-09).transl(5.95934571775121e-08, 3.783818446413912e-08, 0))
hIsland = hIsland.sub(rect(9.017227452205078e-09, -2.6169299623302127e-09).transl(3.923296865929432e-08, 4e-08, 0))
hIsland = hIsland.sub(rect(9.738080716041641e-09, -8.065274361638702e-10).transl(-8.664882980721454e-08, 1.5147015533011018e-08, 0))
hIsland = hIsland.add(rect(6.562181275623042e-09, 1.8291378029281109e-09).transl(6.398904255612779e-08, 3.626422936038313e-08, 0))
hIsland = hIsland.add(rect(6.437319973354747e-09, 1.2066839199186403e-09).transl(3.8035302280496965e-08, 4e-08, 0))
hIsland = hIsland.add(rect(5.105649167843446e-09, 2.1940076104647327e-09).transl(-2.1956956837133503e-08, 4e-08, 0))
hIsland = hIsland.add(rect(6.213905673487501e-09, 1.6846319024998544e-09).transl(-1.4980804409814813e-08, 4e-08, 0))
hIsland = hIsland.sub(rect(8.471510024661868e-09, -1.7877243388373275e-09).transl(-7.111606955688697e-09, 4e-08, 0))
hIsland = hIsland.add(rect(6.417992000772409e-09, 4.2033006643473445e-10).transl(1.8776376149217344e-08, 4e-08, 0))
hIsland = hIsland.sub(rect(9.94678141531994e-09, -9.165488288973416e-10).transl(-8.70133020382248e-08, 1.4329662285301182e-08, 0))
hIsland = hIsland.add(rect(2.451725304107553e-09, 2.2471790590875028e-09).transl(3.342561912468594e-08, 4e-08, 0))
hIsland = hIsland.sub(rect(7.775015405760517e-09, -1.253169684272199e-09).transl(-4.9894973296283144e-08, 3.976264627335175e-08, 0))
hIsland = hIsland.sub(rect(6.504484101908873e-09, -1.7928089377608444e-09).transl(5.187529352672589e-08, 3.9530382391108345e-08, 0))
hIsland = hIsland.sub(rect(7.07479343244186e-09, -1.9418350569864262e-09).transl(8.906295520883367e-08, 8.120377210204264e-09, 0))
hIsland = hIsland.sub(rect(3.361258993763882e-09, -1.46134115274643e-09).transl(-4.637130870930589e-08, 3.998142296937201e-08, 0))
hIsland = hIsland.sub(rect(6.72404674750097e-09, -2.856523932397153e-09).transl(-6.634802610270036e-08, 3.521236350235475e-08, 0))
hIsland = hIsland.sub(rect(6.576617068285437e-09, -6.736359240060472e-10).transl(1.5347459246194132e-08, 4e-08, 0))
hIsland = hIsland.add(rect(4.353886457537686e-09, 3.055488872746744e-09).transl(4.748783147142233e-08, 3.9938824276615366e-08, 0))
hIsland = hIsland.add(rect(4.142139115357062e-09, 2.9124469479979926e-09).transl(-2.336488744490993e-08, 4e-08, 0))
hIsland = hIsland.add(rect(9.468688991597763e-09, 1.770078214927352e-09).transl(-2.7873070276229703e-08, 4e-08, 0))
hIsland = hIsland.sub(rect(5.309315530597373e-09, -6.231875016510675e-10).transl(-4.760935972665138e-08, 3.9932696383389194e-08, 0))
hIsland = hIsland.sub(rect(2.8467906320233516e-09, -3.4085633593522163e-10).transl(1.2576183459290071e-08, 4e-08, 0))
hIsland = hIsland.add(rect(5.296659351260085e-09, 8.775148963010367e-10).transl(5.4364006276301186e-08, 3.912439558690215e-08, 0))
hIsland = hIsland.add(rect(9.06575472674904e-09, 1.0572213719162608e-09).transl(5.4813874313538136e-09, 4e-08, 0))
hIsland = hIsland.sub(rect(3.468265099199221e-09, -4.002506597831983e-11).transl(2.6747480287142742e-08, 4e-08, 0))
hIsland = hIsland.add(rect(4.467053783469386e-09, 1.9688769562858515e-09).transl(-4.154350907352601e-08, 4e-08, 0))
hIsland = hIsland.add(rect(8.894832081994797e-09, 2.4082744034886927e-09).transl(-1.7640725961805224e-08, 4e-08, 0))
hIsland = hIsland.sub(rect(6.079753274871555e-09, -1.3317504907896895e-09).transl(-8.034350506441048e-08, 2.4758972830358155e-08, 0))
hIsland = hIsland.add(rect(2.0297862071933164e-09, 1.6236690494082998e-10).transl(7.029328847629816e-08, 3.30835029784819e-08, 0))
hIsland = hIsland.sub(rect(9.703302250069647e-09, -3.810361780233376e-09).transl(-5.7091712859670494e-08, 3.85289038091693e-08, 0))
hIsland = hIsland.sub(rect(9.38183529715398e-09, -7.306193220161213e-10).transl(-1.8130339259203017e-08, 4e-08, 0))
hIsland = hIsland.sub(rect(5.259736225381898e-09, -2.5309748865312674e-09).transl(-4.1092087590014265e-08, 4e-08, 0))
hIsland = hIsland.sub(rect(2.8619531597729514e-09, -3.7729997963743474e-10).transl(-2.2020096476200003e-08, 4e-08, 0))
hIsland = hIsland.sub(rect(2.4620268600091127e-09, -1.6706937144398106e-09).transl(1.1585937132223225e-08, 4e-08, 0))
hIsland = hIsland.add(rect(2.8516819306285497e-09, 4.0235537497206696e-09).transl(2.7158561285366387e-08, 4e-08, 0))
hIsland = hIsland.add(rect(8.205567557605338e-09, 2.2532755288842992e-09).transl(5.970029690705497e-08, 3.7805493319247256e-08, 0))
hIsland = hIsland.add(rect(5.416525466635851e-09, 1.1157768027055629e-09).transl(7.328878320608158e-08, 3.1107869605345275e-08, 0))
hIsland = hIsland.add(rect(7.851361467039446e-09, 1.3130569402117024e-09).transl(3.2937644331465915e-08, 4e-08, 0))
hIsland = hIsland.sub(rect(3.0420040440853795e-09, -6.449715012173384e-10).transl(5.558978771853403e-09, 4e-08, 0))
hIsland = hIsland.add(rect(8.974199498378495e-09, 1.3385063682704693e-09).transl(1.2183810145950286e-08, 4e-08, 0))
hIsland = hIsland.sub(rect(5.333582307487783e-09, -1.8994300996900244e-09).transl(8.407747674054619e-08, 1.983538798628794e-08, 0))
hIsland = hIsland.sub(rect(9.174380084496869e-09, -3.433199019572133e-10).transl(6.08158904105853e-08, 3.744805242645607e-08, 0))
hIsland = hIsland.sub(rect(3.1329403133683763e-09, -1.7245558787726475e-09).transl(7.115417346406018e-08, 3.255031991770843e-08, 0))
hIsland = hIsland.sub(rect(3.843224781324944e-09, -1.7667171582297232e-10).transl(-4.4435526249696064e-08, 4e-08, 0))
hIsland = hIsland.sub(rect(3.980374695860164e-09, -4.2353097257297175e-09).transl(5.19872273345435e-08, 3.951487200373965e-08, 0))
hIsland = hIsland.add(rect(2.325642483029059e-09, 3.138547127833105e-09).transl(5.128805294707665e-08, 3.960756022242653e-08, 0))
hIsland = hIsland.add(rect(2.015200892101551e-09, 1.0374052551602242e-09).transl(-6.234175075555259e-08, 3.6910448112124836e-08, 0))
hIsland = hIsland.add(rect(4.4055625744152675e-09, 1.378721758872726e-09).transl(-9.636716274951895e-09, 4e-08, 0))
hIsland = hIsland.add(rect(9.83300568838299e-09, 5.01304259224668e-10).transl(-4.764536428690345e-08, 3.993082460717594e-08, 0))
hIsland = hIsland.sub(rect(3.2681506851939802e-09, -4.291808431352389e-10).transl(6.051021446384492e-08, 3.754893561416186e-08, 0))
hIsland = hIsland.add(rect(7.95176451565772e-09, 3.278580896752305e-09).transl(-3.405433719136227e-08, 4e-08, 0))
hIsland = hIsland.sub(rect(6.512790913003045e-09, -6.455859382802502e-10).transl(-3.082601998643402e-08, 4e-08, 0))
hIsland = hIsland.sub(rect(5.852046766167555e-09, -1.649234047059921e-09).transl(-4.1320154463290836e-08, 4e-08, 0))
hIsland = hIsland.sub(rect(4.659897215676485e-09, -1.9173467294592434e-09).transl(3.489575756378255e-08, 4e-08, 0))
hIsland = hIsland.add(rect(9.830481173208438e-09, 3.504811385856512e-09).transl(-5.192119880834733e-08, 3.9524052444352995e-08, 0))
hIsland = hIsland.sub(rect(8.342330675239577e-09, -1.835405496401688e-09).transl(8.199522676638031e-08, 2.2772792022434705e-08, 0))
hIsland = hIsland.sub(rect(9.632650601227679e-09, -1.1006770737068442e-09).transl(1.5563589723224376e-08, 4e-08, 0))
hIsland = hIsland.sub(rect(4.298845473557302e-09, -2.487333170962064e-09).transl(6.396303135541564e-08, 3.627498207299172e-08, 0))
hIsland = hIsland.add(rect(5.4022784834845835e-09, 1.899120588067572e-09).transl(2.3592770079210065e-08, 4e-08, 0))
hIsland = hIsland.sub(rect(2.915855196012302e-09, -1.0179565079832551e-09).transl(3.306231572314571e-08, 4e-08, 0))
hIsland = hIsland.sub(rect(4.184588348394052e-09, -3.1791363775933236e-09).transl(6.30582356801519e-08, 3.6637969905699396e-08, 0))
hIsland = hIsland.sub(rect(2.9611595843175825e-09, -3.5186893552499435e-09).transl(-8.250414605978821e-08, 2.2105275001115046e-08, 0))
hIsland = hIsland.add(rect(3.1704538929070623e-09, 1.2232014836551038e-09).transl(-4.617712760387124e-09, 4e-08, 0))
hIsland = hIsland.add(rect(7.033103055294875e-09, 4.846492369304485e-09).transl(6.864521178538731e-08, 3.403300021891382e-08, 0))
hIsland = hIsland.sub(rect(8.306445335173827e-09, -1.1051395434368327e-09).transl(7.197347532626513e-08, 3.2017669551589145e-08, 0))
hIsland = hIsland.add(rect(8.45393584645045e-09, 1.5832478073536737e-09).transl(-6.669487951732078e-08, 3.5044462230435116e-08, 0))
hIsland = hIsland.sub(rect(4.932254014824921e-09, -7.053364041561762e-10).transl(-7.224375498734189e-08, 3.1836344652632975e-08, 0))
hIsland = hIsland.sub(rect(5.123731610618395e-09, -4.906057675551458e-10).transl(-8.189107739674441e-08, 2.2905899327593712e-08, 0))
hIsland = hIsland.sub(rect(9.480616415510632e-09, -2.356503252518851e-09).transl(7.371405071557864e-08, 3.07984709128621e-08, 0))
hIsland = hIsland.add(rect(9.195231321130056e-09, 6.911731638242685e-10).transl(7.994742650706315e-08, 2.519929264981654e-08, 0))
hIsland = hIsland.sub(rect(6.266898988901277e-09, -1.2058167125254104e-09).transl(1.79590885489319e-08, 4e-08, 0))
hIsland = hIsland.add(rect(5.268062142755698e-09, 1.3623559432859675e-09).transl(4.8817508419695716e-08, 3.9855805575803366e-08, 0))
hIsland = hIsland.add(rect(8.969100588515919e-09, 7.822236649722647e-10).transl(3.956147102995848e-08, 4e-08, 0))
hIsland = hIsland.sub(rect(6.168997531535784e-09, -2.00915229370077e-09).transl(-2.0493037341786528e-08, 4e-08, 0))
hIsland = hIsland.sub(rect(4.350385442108351e-09, -1.7379567259486906e-09).transl(-7.495221984410173e-09, 4e-08, 0))
hIsland = hIsland.sub(rect(8.762480867283067e-09, -6.235633003650472e-10).transl(8.341499612922379e-08, 2.0832796032499595e-08, 0))
hIsland = hIsland.add(rect(4.417841565320523e-09, 2.0638908260519664e-09).transl(8.735079507514302e-08, 1.3521930069065067e-08, 0))
hIsland = hIsland.sub(rect(7.107321078115912e-09, -3.901828274517739e-10).transl(2.0844676986258815e-08, 4e-08, 0))
hIsland = hIsland.add(rect(8.060219005392152e-09, 5.444897735265196e-10).transl(1.3219962013564375e-08, 4e-08, 0))
hIsland = hIsland.sub(rect(9.968618445498226e-09, -2.019165338723943e-09).transl(-5.819709716565983e-09, 4e-08, 0))
hIsland = hIsland.sub(rect(9.867294847390679e-09, -3.775074536825775e-09).transl(8.982183342783383e-08, 3.555916444742579e-09, 0))
hIsland = hIsland.add(rect(9.534207779143142e-09, 1.0570946613543248e-09).transl(1.155862422623844e-08, 4e-08, 0))
hIsland = hIsland.sub(rect(6.213494984822715e-09, -1.8968076644683706e-09).transl(2.413659132472518e-08, 4e-08, 0))
hIsland = hIsland.add(rect(4.649172747195381e-09, 1.5887764355047343e-09).transl(-8.037620638492159e-08, 2.472204429297563e-08, 0))
hIsland = hIsland.add(rect(8.278593525457357e-09, 7.276781519075317e-11).transl(5.5366387378695085e-08, 3.8924179671930226e-08, 0))
hIsland = hIsland.sub(rect(9.357449755239345e-09, -2.070119160864859e-09).transl(-3.825762993281569e-08, 4e-08, 0))
hIsland = hIsland.add(rect(4.633250591524028e-09, 6.385006830676739e-10).transl(8.034790354626869e-08, 2.4754010961327657e-08, 0))
hIsland = hIsland.add(rect(6.364097882391475e-09, 1.0026201379894472e-09).transl(-8.021976386334506e-08, 2.4897906833101438e-08, 0))
hIsland = hIsland.add(rect(3.5284632623938744e-09, 6.149427688089561e-10).transl(-7.590153149667577e-08, 2.907761059567215e-08, 0))
hIsland = hIsland.add(rect(9.744475672751263e-09, 1.3036722164481879e-09).transl(-2.693592944555028e-08, 4e-08, 0))
hIsland = hIsland.add(rect(3.257792271847694e-09, 2.4806639078072007e-09).transl(-2.2289396905070363e-08, 4e-08, 0))
hIsland = hIsland.sub(rect(9.307758436716111e-09, -2.3876252752767423e-11).transl(7.12580312454501e-08, 3.248418625473736e-08, 0))
hIsland = hIsland.add(rect(3.0842491133976096e-09, 2.716911188212327e-10).transl(7.26309256208827e-08, 3.157160092010491e-08, 0))
hIsland = hIsland.sub(rect(2.909331405997894e-09, -1.9027287626108198e-09).transl(-3.367572806715148e-08, 4e-08, 0))
hIsland = hIsland.add(rect(5.3219325703923526e-09, 4.095597599521227e-09).transl(-5.492461271223023e-08, 3.901505439116383e-08, 0))
hIsland = hIsland.add(rect(7.943807188818948e-09, 1.29035458102574e-09).transl(-4.410991888847789e-08, 4e-08, 0))
hIsland = hIsland.add(rect(5.148319052836208e-09, 6.217318653816201e-10).transl(-1.4906372747877776e-08, 4e-08, 0))
hIsland = hIsland.add(rect(3.945486784743467e-09, 3.2515920212325027e-09).transl(6.098302561518179e-08, 3.7391942272515946e-08, 0))
hIsland = hIsland.add(rect(4.6996554925943364e-09, 2.254096260217087e-09).transl(8.358047225297237e-08, 2.058976681200984e-08, 0))
hIsland = hIsland.sub(rect(8.025334984689057e-09, -1.6557182507456324e-09).transl(4.060073328080065e-08, 4e-08, 0))
hIsland = hIsland.sub(rect(6.847887583557183e-09, -8.946767220528337e-10).transl(-4.1427326304241485e-08, 4e-08, 0))
hIsland = hIsland.sub(rect(5.715572234703607e-09, -1.902046589354796e-09).transl(8.233525710209985e-09, 4e-08, 0))
hIsland = hIsland.sub(rect(6.002116481256169e-09, -1.6875758498440753e-10).transl(-1.8240461970140055e-08, 4e-08, 0))
hIsland = hIsland.add(rect(6.6149901727503795e-09, 1.2350524053579984e-09).transl(5.754168508684578e-08, 3.8415080733983e-08, 0))
hIsland = hIsland.add(rect(4.2411876691072766e-09, 1.895289794780918e-09).transl(-1.773575620276948e-08, 4e-08, 0))
hIsland = hIsland.add(rect(2.4674187117017843e-09, 7.403871296184028e-10).transl(-7.871832869926928e-08, 2.6489400587571193e-08, 0))
hIsland = hIsland.sub(rect(7.638064702304624e-09, -8.048483992691816e-10).transl(-7.980886247689417e-08, 2.5350373887748245e-08, 0))
hIsland = hIsland.sub(rect(6.606552382308646e-09, -7.475317737572609e-10).transl(-3.336054707384259e-08, 4e-08, 0))
hIsland = hIsland.add(rect(9.896306569333417e-09, 1.0295787805659717e-09).transl(4.522529255946003e-08, 3.999949869574907e-08, 0))
hIsland = hIsland.sub(rect(9.171895674672222e-09, -6.512758190049243e-10).transl(7.761215832525428e-08, 2.7561965266969235e-08, 0))
hIsland = hIsland.sub(rect(3.4745733952320972e-09, -1.7525263637293916e-09).transl(-7.100589081371426e-08, 3.264405739711761e-08, 0))
hIsland = hIsland.add(rect(5.751687201562539e-09, 1.677068237996081e-09).transl(4.813584395742584e-08, 3.990276064758564e-08, 0))
hIsland = hIsland.add(rect(6.662758101222164e-09, 3.6613410581791096e-10).transl(2.6921242678301785e-08, 4e-08, 0))
hIsland = hIsland.sub(rect(7.230803129346579e-09, -3.3810502889319335e-09).transl(-7.689470930252481e-08, 2.8217532677851726e-08, 0))
hIsland = hIsland.sub(rect(2.3579238764367044e-09, -1.5903696680695215e-09).transl(-1.6946550000006467e-08, 4e-08, 0))
hIsland = hIsland.sub(rect(2.012051868166882e-09, -2.779851180648033e-09).transl(5.568934069685888e-08, 3.885510146683707e-08, 0))
hIsland = hIsland.sub(rect(7.507717909778755e-09, -1.1666090150094125e-09).transl(5.891790295721355e-08, 3.8038753232400064e-08, 0))
hIsland = hIsland.sub(rect(9.067755040730241e-09, -1.1518972367648603e-09).transl(-8.43987416312384e-08, 1.9326724957431e-08, 0))
hIsland = hIsland.sub(rect(6.535255240544878e-09, -2.0381698324521e-09).transl(-4.306699555752445e-09, 4e-08, 0))
hIsland = hIsland.sub(rect(7.40640307201059e-09, -1.6978952768926333e-09).transl(-6.261406909578924e-08, 3.6808421686790685e-08, 0))
hIsland = hIsland.add(rect(3.279044031848394e-09, 5.088055338828886e-10).transl(-4.96709078858284e-08, 3.9783936154165304e-08, 0))
hIsland = hIsland.add(rect(7.378201130782293e-09, 6.728877702299382e-09).transl(7.249485134343653e-08, 3.166532581460435e-08, 0))
hIsland = hIsland.sub(rect(5.279837269691937e-09, -4.30306229882569e-09).transl(-1.4741349724611363e-09, 4e-08, 0))
hIsland = hIsland.sub(rect(6.61655612026025e-09, -2.569755719965892e-09).transl(4.2435641601913304e-08, 4e-08, 0))
hIsland = hIsland.sub(rect(3.0934962708994736e-09, -1.3494646989985898e-09).transl(5.5042597326776674e-08, 3.899119230896689e-08, 0))
hIsland = hIsland.sub(rect(4.347508653536828e-09, -4.895672714184136e-09).transl(-6.655479813963649e-09, 4e-08, 0))
hIsland = hIsland.sub(rect(4.1270928243995005e-09, -2.538993481363071e-09).transl(2.6195609704435205e-08, 4e-08, 0))
hIsland = hIsland.sub(rect(3.00210319567792e-09, -2.5903876007593967e-09).transl(-3.2335113608999336e-08, 4e-08, 0))
hIsland = hIsland.add(rect(3.333691417621739e-09, 5.482996383283926e-10).transl(7.950243077831848e-08, 2.5679233408616323e-08, 0))
hIsland = hIsland.add(rect(8.929102244594688e-09, 4.949159273303196e-10).transl(-5.643676539676376e-08, 3.868658896485722e-08, 0))
hIsland = hIsland.sub(rect(7.850741550673639e-09, -2.67564557058902e-09).transl(8.789998979463803e-09, 4e-08, 0))
hIsland = hIsland.sub(rect(2.5913935633012495e-09, -9.765472099583925e-10).transl(1.5105146566366544e-08, 4e-08, 0))
hIsland = hIsland.add(rect(7.579663465892646e-09, 1.0373391006594617e-09).transl(-1.0326166179312616e-08, 4e-08, 0))
hIsland = hIsland.add(rect(8.130333714913778e-09, 1.291813099399995e-09).transl(-7.258218932166791e-08, 3.160525453701592e-08, 0))
hIsland = hIsland.sub(rect(3.25390204714408e-09, -7.36148699218001e-10).transl(-7.95544570100773e-08, 2.562390089115974e-08, 0))
hIsland = hIsland.add(rect(3.4320129299283294e-09, 1.8092396920565824e-10).transl(2.195399660660095e-09, 4e-08, 0))
hIsland = hIsland.sub(rect(6.1171188534290815e-09, -9.583685113066021e-10).transl(8.475778054200918e-08, 1.8736775987840557e-08, 0))
hIsland = hIsland.sub(rect(5.921091452307284e-09, -1.682421833734441e-09).transl(-8.979060050972646e-08, 3.854346244221573e-09, 0))
hIsland = hIsland.add(rect(2.509372947479097e-09, 5.398293177611866e-10).transl(-4.0224972290377197e-10, 4e-08, 0))
vIsland = hIsland.rotz(pi / 2)
hIslands = hIslands.add(hIsland.transl(-a/2, a, 0))
hIsland = rect(islandLength-2*ellipseConstant, islandWidth)
hIsland = hIsland.add(ellipse(ellipseConstant*2, islandWidth).transl(islandLength/2-ellipseConstant, 0, 0))
hIsland = hIsland.add(ellipse(ellipseConstant*2, islandWidth).transl(-islandLength/2+ellipseConstant, 0, 0))
hIsland = hIsland.sub(rect(3.5430861897174845e-09, -5.984752076722346e-10).transl(-5.8494073304001807e-08, -3.815922442120169e-08, 0))
hIsland = hIsland.add(rect(3.0258007667646062e-09, 4.528532172667039e-09).transl(-4.2487955109226856e-08, -4e-08, 0))
hIsland = hIsland.add(rect(8.800514141149242e-09, 4.921636818575423e-10).transl(5.300347524325176e-08, -3.936226816741486e-08, 0))
hIsland = hIsland.add(rect(9.797013238336499e-09, 4.458399190795676e-09).transl(-2.1988265087073154e-08, -4e-08, 0))
hIsland = hIsland.sub(rect(4.589903420866692e-09, -1.4336023294287957e-09).transl(2.754785355909414e-08, -4e-08, 0))
hIsland = hIsland.sub(rect(3.239563632809775e-09, -2.356065159156484e-09).transl(7.199290280404594e-08, -3.2004730492465823e-08, 0))
hIsland = hIsland.sub(rect(9.820956937875509e-09, -3.205496613027656e-09).transl(7.714960241526578e-08, -2.7988047742329822e-08, 0))
hIsland = hIsland.add(rect(6.456082747455677e-09, 5.5991350748494406e-09).transl(8.654955230135019e-08, -1.536093370509228e-08, 0))
hIsland = hIsland.sub(rect(4.861257810517879e-09, -1.2032917091727241e-09).transl(5.473169383412693e-08, -3.905343358351197e-08, 0))
hIsland = hIsland.sub(rect(4.17289896751683e-09, -2.1482965038950197e-10).transl(2.5508796012430402e-08, -4e-08, 0))
hIsland = hIsland.sub(rect(3.38752673631474e-09, -6.416448207128566e-09).transl(-7.01371363839084e-08, -3.317740566187736e-08, 0))
hIsland = hIsland.add(rect(3.7223326096739016e-09, 1.4346335964599533e-09).transl(-8.231296954517961e-08, -2.2359439533963892e-08, 0))
hIsland = hIsland.add(rect(2.8664518976071972e-09, 5.856567891684884e-10).transl(-2.8736701764452584e-08, -4e-08, 0))
hIsland = hIsland.sub(rect(3.1413633195917383e-09, -1.0273584208525325e-09).transl(-8.219292370300996e-08, -2.2516915806120417e-08, 0))
hIsland = hIsland.add(rect(4.517224150641717e-09, 1.89060099285956e-09).transl(3.069041077687421e-08, -4e-08, 0))
hIsland = hIsland.sub(rect(5.004436680651046e-09, -1.2437595253446662e-09).transl(-8.153180045253472e-08, -2.3356433952335812e-08, 0))
hIsland = hIsland.sub(rect(3.1104035690409245e-09, -1.4328652305217325e-09).transl(-6.920662064967071e-08, -3.371971051789613e-08, 0))
hIsland = hIsland.add(rect(2.835475001092612e-09, 2.4482093498324175e-10).transl(-8.825575090932577e-08, -1.1028672423437784e-08, 0))
hIsland = hIsland.sub(rect(7.75343483864653e-09, -2.3902471674721854e-09).transl(7.62581473882259e-08, -2.877486175676172e-08, 0))
hIsland = hIsland.sub(rect(7.470672603931218e-09, -2.188014736271231e-10).transl(-6.866179636625403e-08, -3.402389159381531e-08, 0))
hIsland = hIsland.add(rect(3.6278777077433554e-09, 1.1768724519609417e-09).transl(-6.880571933027339e-08, -3.394447436601116e-08, 0))
hIsland = hIsland.sub(rect(3.9329319685424464e-09, -3.825148498694783e-10).transl(6.801105681603131e-08, -3.437473966849126e-08, 0))
hIsland = hIsland.add(rect(3.993777703015448e-09, 1.7698324638667119e-09).transl(4.178629359425511e-08, -4e-08, 0))
hIsland = hIsland.sub(rect(9.488528635024879e-09, -2.215063575064248e-09).transl(-5.45748548113248e-08, -3.908405281528252e-08, 0))
hIsland = hIsland.sub(rect(8.822972823028948e-09, -1.6290796379540432e-09).transl(5.011397142295735e-08, -3.974086228727851e-08, 0))
hIsland = hIsland.sub(rect(5.878541620511982e-09, -6.060854880796524e-10).transl(4.9281646546886125e-08, -3.981852664248517e-08, 0))
hIsland = hIsland.sub(rect(2.1018217095572463e-09, -5.191398205420463e-10).transl(1.6894012461969105e-08, -4e-08, 0))
hIsland = hIsland.sub(rect(9.832832743606451e-09, -2.6524034639354714e-10).transl(-6.980182452800691e-08, -3.337620354425766e-08, 0))
hIsland = hIsland.add(rect(8.02093863562148e-09, 2.13031255064347e-09).transl(2.1274325169630547e-08, -4e-08, 0))
hIsland = hIsland.add(rect(3.6666693500037007e-09, 3.838426397811155e-09).transl(-2.849563521620715e-08, -4e-08, 0))
hIsland = hIsland.sub(rect(9.29840873766063e-09, -2.2786420468988074e-09).transl(1.161232143540176e-10, -4e-08, 0))
hIsland = hIsland.add(rect(2.9261061279045723e-09, 4.939918350923272e-10).transl(2.105857733868969e-08, -4e-08, 0))
hIsland = hIsland.sub(rect(8.627800788679117e-09, -4.7336439825859235e-09).transl(3.3868109671522924e-08, -4e-08, 0))
hIsland = hIsland.add(rect(9.719077628816249e-09, 2.004260837360017e-09).transl(-5.715745902748775e-08, -3.851255305367413e-08, 0))
hIsland = hIsland.sub(rect(7.797968712798383e-09, -1.178309497376072e-09).transl(4.8756336821703953e-08, -3.986039771032414e-08, 0))
hIsland = hIsland.sub(rect(5.868175463726368e-09, -6.438667783889139e-10).transl(-1.1179991707855513e-08, -4e-08, 0))
hIsland = hIsland.add(rect(2.998247215317049e-09, 1.949744752510263e-09).transl(-8.014817307495853e-08, -2.497771339640198e-08, 0))
hIsland = hIsland.sub(rect(4.822363702080657e-09, -4.1849442136509173e-10).transl(-3.474604594664534e-08, -4e-08, 0))
hIsland = hIsland.sub(rect(8.970809052443785e-09, -3.0182134481466273e-09).transl(5.9391504774518226e-08, -3.7899251398320544e-08, 0))
hIsland = hIsland.sub(rect(9.429803259072153e-09, -1.55191114930954e-09).transl(-6.408969152803343e-08, -3.622245319478675e-08, 0))
hIsland = hIsland.sub(rect(5.295717217704213e-09, -1.5883666708733615e-09).transl(-8.75054603512549e-08, -1.3132888590413612e-08, 0))
hIsland = hIsland.sub(rect(3.764808811982168e-09, -2.239185616039643e-10).transl(-8.945724147033507e-08, -6.193819673816745e-09, 0))
hIsland = hIsland.sub(rect(7.665216663806703e-09, -3.934266663293877e-09).transl(-5.316920974545219e-08, -3.9335357257506274e-08, 0))
hIsland = hIsland.add(rect(2.2800149063252766e-09, 6.638156244288005e-10).transl(6.155844931347963e-08, -3.719357710470048e-08, 0))
hIsland = hIsland.sub(rect(4.808751712959557e-09, -5.846087326711854e-10).transl(6.198087923269087e-08, -3.704278197146505e-08, 0))
hIsland = hIsland.add(rect(6.173004950284143e-09, 1.8722665166453272e-09).transl(6.17418064113348e-08, -3.712866563479699e-08, 0))
hIsland = hIsland.sub(rect(2.9704745610360094e-09, -2.27996492756533e-09).transl(7.902873431868672e-08, -2.617389506264226e-08, 0))
hIsland = hIsland.sub(rect(2.819736787090503e-09, -2.738061717503016e-10).transl(-4.8625068766967914e-08, -3.986999987487486e-08, 0))
hIsland = hIsland.sub(rect(3.2401975164832335e-09, -1.407707429506106e-09).transl(6.347776836521124e-08, -3.64723153725581e-08, 0))
hIsland = hIsland.sub(rect(6.424534700206797e-09, -8.130598320717456e-10).transl(4.0033265234119516e-08, -4e-08, 0))
hIsland = hIsland.add(rect(9.58989025648887e-09, 1.871931706941802e-09).transl(-4.405751156754309e-08, -4e-08, 0))
hIsland = hIsland.add(rect(5.9256697860428014e-09, 3.773360025690449e-09).transl(-8.634173447304329e-08, -1.5797758634842746e-08, 0))
hIsland = hIsland.sub(rect(3.491665842698096e-09, -8.626117593090081e-10).transl(-5.728919716729545e-08, -3.8479502401580694e-08, 0))
hIsland = hIsland.add(rect(9.291540896208694e-09, 1.8267047698488618e-09).transl(-8.52933356883639e-08, -1.7809906503490375e-08, 0))
hIsland = hIsland.sub(rect(2.5999511790809306e-09, -1.1132537475133685e-09).transl(1.6272907325663452e-08, -4e-08, 0))
hIsland = hIsland.add(rect(2.788738932368719e-09, 2.3019352512836736e-10).transl(3.331057430920947e-08, -4e-08, 0))
hIsland = hIsland.sub(rect(2.6878078332291573e-09, -5.844014550292255e-10).transl(-1.585517730248674e-08, -4e-08, 0))
hIsland = hIsland.add(rect(2.1201066579653e-09, 3.9165170530402415e-09).transl(-4.253871333452997e-09, -4e-08, 0))
hIsland = hIsland.add(rect(9.427364157028317e-09, 1.4737246531306443e-09).transl(2.871870143175283e-08, -4e-08, 0))
hIsland = hIsland.sub(rect(5.8650802864160514e-09, -1.2710717684298419e-09).transl(3.3515468771029736e-08, -4e-08, 0))
hIsland = hIsland.sub(rect(6.879097384625339e-09, -3.2569063882183385e-09).transl(-8.216995781444534e-08, -2.254685960137973e-08, 0))
hIsland = hIsland.add(rect(5.37176194928372e-09, 7.849417850188573e-10).transl(-3.214906934171438e-08, -4e-08, 0))
hIsland = hIsland.add(rect(4.2765586195078635e-09, 9.914615648642165e-10).transl(-8.12894833533164e-08, -2.3653020966652174e-08, 0))
hIsland = hIsland.add(rect(5.411770360884782e-09, 2.735649999448486e-10).transl(7.761948451317934e-08, -2.755511440642505e-08, 0))
hIsland = hIsland.sub(rect(8.747274685964645e-09, -1.085824780220709e-09).transl(1.9211762780476245e-08, -4e-08, 0))
hIsland = hIsland.sub(rect(9.853694978570889e-09, -2.2428846827359236e-09).transl(-4.33702517869055e-08, -4e-08, 0))
hIsland = hIsland.add(rect(9.894175109161793e-09, 6.623087686413465e-10).transl(-4.113333811097787e-08, -4e-08, 0))
hIsland = hIsland.add(rect(4.8727602232558675e-09, 5.539777574621256e-10).transl(-8.134578319449488e-08, -2.3584620123156516e-08, 0))
hIsland = hIsland.add(rect(2.745769064676116e-09, 9.183106608634968e-10).transl(9.265406403849786e-09, -4e-08, 0))
hIsland = hIsland.sub(rect(2.6878005125941374e-09, -1.6378208174178965e-09).transl(9.706277809952326e-09, -4e-08, 0))
hIsland = hIsland.add(rect(4.6979533453806696e-09, 1.9267719714783064e-09).transl(-8.291922133173686e-08, -2.153850695504784e-08, 0))
hIsland = hIsland.sub(rect(7.915068929243576e-09, -1.535110553757174e-09).transl(-6.038645710873861e-08, -3.7589144087060375e-08, 0))
hIsland = hIsland.add(rect(8.518714508729353e-09, 1.4554045972921597e-10).transl(2.2544722103754527e-08, -4e-08, 0))
hIsland = hIsland.sub(rect(2.8026156567175927e-09, -2.046123298304864e-09).transl(3.5398803299832417e-08, -4e-08, 0))
hIsland = hIsland.add(rect(6.026602667554292e-09, 9.437141718042652e-10).transl(-3.297613661258437e-08, -4e-08, 0))
hIsland = hIsland.add(rect(4.061504403324815e-09, 1.6352751560550724e-10).transl(-8.528071316456092e-08, -1.7832452524139083e-08, 0))
hIsland = hIsland.add(rect(9.998296100414664e-09, 4.89727870249606e-10).transl(6.657082390549393e-09, -4e-08, 0))
hIsland = hIsland.sub(rect(9.635730121795568e-09, -1.6285758988836607e-09).transl(-3.31324317034444e-08, -4e-08, 0))
hIsland = hIsland.sub(rect(5.313856689832834e-09, -3.6000097987558387e-09).transl(5.693757263644019e-08, -3.856686337719637e-08, 0))
hIsland = hIsland.sub(rect(4.409731408457313e-09, -7.419749147353547e-10).transl(1.5697285493960193e-08, -4e-08, 0))
hIsland = hIsland.add(rect(4.218873316370808e-09, 1.9686534431246806e-10).transl(7.949247828506094e-08, -2.5689795320488115e-08, 0))
hIsland = hIsland.add(rect(4.666448872261487e-09, 1.3024240118855382e-09).transl(-3.841044634411784e-08, -4e-08, 0))
hIsland = hIsland.add(rect(6.492129711153582e-09, 9.932598538164669e-10).transl(8.365155194429663e-08, -2.048416493717055e-08, 0))
hIsland = hIsland.add(rect(4.6561877603601335e-09, 1.5132168206552387e-09).transl(-2.487901743770584e-08, -4e-08, 0))
hIsland = hIsland.sub(rect(7.137950141769178e-09, -2.7531142524244555e-09).transl(4.603531979931264e-09, -4e-08, 0))
hIsland = hIsland.add(rect(3.2010226256487393e-09, 4.105443599729289e-10).transl(-8.9228088355711e-08, -7.377038806334236e-09, 0))
hIsland = hIsland.sub(rect(5.9562714979976135e-09, -1.5707804385731529e-09).transl(-5.250379121538219e-08, -3.943996211047641e-08, 0))
hIsland = hIsland.sub(rect(6.820141116450296e-09, -2.9521880366398553e-10).transl(-8.531110384202806e-08, -1.7778109042185487e-08, 0))
hIsland = hIsland.sub(rect(5.819225344710493e-09, -3.5386952834709944e-10).transl(-2.578295323727897e-08, -4e-08, 0))
hIsland = hIsland.sub(rect(8.340963790792135e-09, -8.314295115615496e-10).transl(-2.517933758713965e-08, -4e-08, 0))
hIsland = hIsland.sub(rect(3.1769433132837214e-09, -1.3159715727609206e-09).transl(-8.792046353195615e-08, -1.2019204721400318e-08, 0))
hIsland = hIsland.add(rect(8.856450149582916e-09, 1.4611956106320793e-09).transl(-3.6962008810446715e-08, -4e-08, 0))
hIsland = hIsland.add(rect(8.834616126477166e-09, 6.64929199534048e-10).transl(3.885057794207678e-09, -4e-08, 0))
hIsland = hIsland.add(rect(6.378275937907052e-09, 1.1127052511640114e-09).transl(1.3913190530701374e-08, -4e-08, 0))
hIsland = hIsland.sub(rect(3.0446065153244907e-09, -2.2515409753943635e-09).transl(-2.1038221126403045e-08, -4e-08, 0))
hIsland = hIsland.add(rect(6.26238861804522e-09, 1.0164693937512218e-09).transl(5.933661432037102e-08, -3.7915685432814535e-08, 0))
hIsland = hIsland.add(rect(5.6787959354729526e-09, 8.316373526990976e-10).transl(-4.8915226868647584e-08, -3.984831485017445e-08, 0))
hIsland = hIsland.sub(rect(3.4557366937505583e-09, -3.159018141426908e-10).transl(6.634497668887998e-08, -3.521382411091566e-08, 0))
hIsland = hIsland.add(rect(6.844208866233858e-09, 1.0191058203245094e-09).transl(-2.5282270842022272e-08, -4e-08, 0))
hIsland = hIsland.add(rect(2.1741706006191297e-09, 2.927695364120236e-09).transl(-8.946467063643444e-08, -6.151539175433155e-09, 0))
hIsland = hIsland.add(rect(2.9878331632212787e-09, 2.9033235188860513e-11).transl(4.142334439416762e-08, -4e-08, 0))
hIsland = hIsland.add(rect(3.2942871010381697e-09, 3.8494888002726335e-09).transl(1.7876928196587002e-08, -4e-08, 0))
hIsland = hIsland.sub(rect(6.827183681866747e-09, -1.972002211181239e-09).transl(-3.122949208684623e-08, -4e-08, 0))
hIsland = hIsland.sub(rect(9.9132569432954e-09, -1.1469267381411329e-09).transl(1.6540143034698457e-08, -4e-08, 0))
hIsland = hIsland.sub(rect(5.989079887696709e-09, -3.852013289568698e-09).transl(2.242691970516302e-09, -4e-08, 0))
hIsland = hIsland.sub(rect(6.272477565823862e-09, -6.542264285223903e-10).transl(-5.1953281427476514e-08, -3.9519602910888655e-08, 0))
hIsland = hIsland.add(rect(5.065717193461446e-09, 3.350887385774534e-09).transl(2.8300893057376204e-08, -4e-08, 0))
hIsland = hIsland.add(rect(3.2613748190411275e-09, 1.8167744779227984e-10).transl(5.679552454081415e-08, -3.860138142024519e-08, 0))
hIsland = hIsland.add(rect(7.354336307401709e-09, 5.879846134645042e-10).transl(-3.4218739631064126e-08, -4e-08, 0))
hIsland = hIsland.add(rect(4.687061243625996e-09, 1.6592847321781256e-09).transl(-4.59713619236483e-08, -3.999067996125578e-08, 0))
hIsland = hIsland.add(rect(9.500412329684317e-09, 4.426312814711705e-11).transl(6.675372609477476e-08, -3.5015627139819686e-08, 0))
hIsland = hIsland.add(rect(5.986553935140948e-09, 5.150449875451388e-10).transl(-8.520114991772708e-08, -1.7973754150308988e-08, 0))
hIsland = hIsland.sub(rect(5.785628532561387e-09, -1.8506204870724365e-09).transl(3.2441318668543684e-08, -4e-08, 0))
hIsland = hIsland.sub(rect(4.294997857088177e-09, -9.423021523119371e-10).transl(-7.621730204077783e-08, -2.880987558109891e-08, 0))
hIsland = hIsland.sub(rect(8.855563406404413e-09, -1.1644247230232675e-09).transl(-3.3552461430598264e-09, -4e-08, 0))
hIsland = hIsland.sub(rect(9.314933341404476e-09, -3.0619442427172746e-10).transl(5.039485291925819e-08, -3.971150841788014e-08, 0))
hIsland = hIsland.add(rect(9.331066006035554e-09, 2.5623142839133355e-11).transl(2.388715003977051e-08, -4e-08, 0))
hIsland = hIsland.add(rect(7.729852681958238e-09, 3.4589232767619144e-10).transl(-3.120994358571503e-09, -4e-08, 0))
hIsland = hIsland.sub(rect(7.64832478815985e-09, -2.6910609509478968e-09).transl(-1.8191716031689286e-08, -4e-08, 0))
hIsland = hIsland.sub(rect(8.11003539682859e-09, -2.7960730619615552e-09).transl(8.174968116403723e-08, -2.3084787304887345e-08, 0))
hIsland = hIsland.sub(rect(4.169211076040402e-09, -1.1698062075043994e-09).transl(6.31257968598348e-08, -3.661160027401155e-08, 0))
hIsland = hIsland.add(rect(5.041895135659526e-09, 1.5093278179228488e-09).transl(6.612226568356162e-08, -3.5319772574725045e-08, 0))
hIsland = hIsland.sub(rect(5.728512170058581e-09, -2.53144704888195e-09).transl(4.206051362359529e-08, -4e-08, 0))
hIsland = hIsland.sub(rect(7.639677858422116e-09, -1.3446713934061683e-09).transl(-7.274380477557948e-09, -4e-08, 0))
hIsland = hIsland.sub(rect(2.133085791560821e-09, -4.98824082598293e-10).transl(-4.383225582522123e-09, -4e-08, 0))
hIsland = hIsland.add(rect(8.722269955548423e-09, 8.918634598123115e-10).transl(8.471178796880409e-08, -1.8813683411620637e-08, 0))
hIsland = hIsland.add(rect(3.937612086154837e-09, 1.1846246527112495e-09).transl(-1.1833077319609578e-08, -4e-08, 0))
hIsland = hIsland.add(rect(4.240045082968077e-09, 4.371766228433728e-09).transl(-1.3879771783272746e-08, -4e-08, 0))
hIsland = hIsland.sub(rect(4.767395705957098e-09, -1.5989513597842204e-09).transl(-5.435764512832076e-08, -3.9125598101333774e-08, 0))
hIsland = hIsland.sub(rect(5.71358749261721e-09, -1.7416257257849353e-09).transl(4.092204535084791e-08, -4e-08, 0))
hIsland = hIsland.sub(rect(8.122284062048792e-09, -2.374916769163668e-09).transl(7.942886966920504e-08, -2.575712480389978e-08, 0))
hIsland = hIsland.sub(rect(5.159194031460161e-09, -2.1981356590754587e-09).transl(-2.2276555501805673e-10, -4e-08, 0))
hIsland = hIsland.sub(rect(9.655780688753922e-09, -1.8477570302293375e-09).transl(-2.7470670585192368e-08, -4e-08, 0))
hIsland = hIsland.sub(rect(2.0794978707259055e-09, -1.848187734748384e-09).transl(-3.551738264718703e-08, -4e-08, 0))
hIsland = hIsland.add(rect(3.7227447293010383e-09, 1.3173017483537604e-09).transl(7.251437134430783e-08, -3.165192632558909e-08, 0))
hIsland = hIsland.add(rect(8.712437490262118e-09, 2.910409655554617e-09).transl(3.2229729281565016e-08, -4e-08, 0))
hIsland = hIsland.sub(rect(2.3301511726425227e-09, -4.845806002410176e-10).transl(-1.689931968296472e-09, -4e-08, 0))
hIsland = hIsland.add(rect(6.989819091606866e-09, 9.117106678464499e-10).transl(8.772353437348767e-08, -1.2561343346811242e-08, 0))
hIsland = hIsland.sub(rect(5.041572223274683e-09, -8.67308523207094e-10).transl(-4.64733229058601e-09, -4e-08, 0))
hIsland = hIsland.sub(rect(6.800966047750393e-09, -2.920729127097166e-09).transl(1.9583171094449768e-09, -4e-08, 0))
hIsland = hIsland.sub(rect(4.747667764076211e-09, -2.2058100031040582e-10).transl(4.286164636132267e-08, -4e-08, 0))
hIsland = hIsland.sub(rect(6.452010173447441e-09, -1.3732517057518479e-09).transl(2.222503507717432e-08, -4e-08, 0))
hIsland = hIsland.add(rect(7.732895170943435e-09, 2.1485414358050647e-09).transl(7.811946974050687e-08, -2.7079773861340742e-08, 0))
hIsland = hIsland.add(rect(8.01891310062088e-09, 1.9998401520850924e-09).transl(4.390926590285253e-08, -4e-08, 0))
hIsland = hIsland.add(rect(3.929552050214429e-09, 2.28231676236821e-10).transl(4.9591691961368924e-08, -3.979122171256233e-08, 0))
hIsland = hIsland.add(rect(2.499217805180975e-09, 7.247193571394428e-10).transl(-4.7659099243454016e-08, -3.993010378297656e-08, 0))
hIsland = hIsland.add(rect(8.114088776629775e-09, 1.9985579513514043e-10).transl(-3.0111538634128467e-08, -4e-08, 0))
hIsland = hIsland.sub(rect(5.624647526853954e-09, -8.505089214616836e-10).transl(-8.661542582827644e-08, -1.5219385510379817e-08, 0))
hIsland = hIsland.sub(rect(9.630180182853876e-09, -3.2342490832556626e-09).transl(6.385601029707539e-08, -3.631903491051054e-08, 0))
hIsland = hIsland.sub(rect(8.185010119647728e-09, -1.1692931782215579e-09).transl(5.4679231886145885e-08, -3.9063733628683195e-08, 0))
hIsland = hIsland.sub(rect(9.038687431668284e-09, -6.643337364711001e-10).transl(-7.676383922864745e-09, -4e-08, 0))
hIsland = hIsland.sub(rect(7.646564454144262e-09, -1.0489531721675543e-09).transl(4.2375809227892445e-08, -4e-08, 0))
hIsland = hIsland.sub(rect(6.3398621984759776e-09, -3.0229152645643993e-10).transl(-5.403185004677364e-09, -4e-08, 0))
hIsland = hIsland.add(rect(9.879895718385531e-09, 3.2144962601124084e-09).transl(-2.127889032012034e-08, -4e-08, 0))
hIsland = hIsland.add(rect(5.032469123023486e-09, 2.5011965956248947e-09).transl(-5.608028176506933e-08, -3.87684724244937e-08, 0))
hIsland = hIsland.sub(rect(6.56293245019723e-09, -1.4851609193469447e-10).transl(8.201508050972149e-08, -2.2747286950143476e-08, 0))
hIsland = hIsland.sub(rect(7.789258911069266e-09, -1.406467216538822e-09).transl(-5.383885371480788e-08, -3.922080239175907e-08, 0))
hIsland = hIsland.add(rect(2.690922896485768e-09, 2.5495363506617424e-09).transl(2.269293768480667e-08, -4e-08, 0))
hIsland = hIsland.sub(rect(4.287917741922382e-09, -4.462201230606844e-09).transl(-3.9387976466602857e-08, -4e-08, 0))
hIsland = hIsland.add(rect(3.459943953044854e-09, 2.2938976598659964e-09).transl(-7.113082035942582e-08, -3.256513597183244e-08, 0))
hIsland = hIsland.add(rect(5.746302781450957e-09, 1.4996730860018413e-09).transl(6.45936078372615e-08, -3.6009222762868134e-08, 0))
hIsland = hIsland.sub(rect(3.257953217825507e-09, -2.996788446594631e-09).transl(3.611157992153157e-08, -4e-08, 0))
hIsland = hIsland.sub(rect(6.474583705878654e-09, -1.395916872146336e-09).transl(-7.98040800696354e-08, -2.5355561562081807e-08, 0))
hIsland = hIsland.sub(rect(9.18844788779624e-09, -3.496821036789852e-09).transl(4.429908674217139e-08, -4e-08, 0))
hIsland = hIsland.sub(rect(9.65354569185768e-09, -8.239282198511773e-11).transl(-4.267834510983487e-08, -4e-08, 0))
hIsland = hIsland.sub(rect(3.144778589241568e-09, -1.6480856422077615e-09).transl(-1.2545355977232924e-09, -4e-08, 0))
hIsland = hIsland.sub(rect(9.466433701983693e-09, -2.7080086923192682e-09).transl(5.793645445413232e-08, -3.8311504469815195e-08, 0))
hIsland = hIsland.add(rect(4.788019850884109e-09, 3.3885071728502823e-09).transl(6.743064618798605e-08, -3.467653547949608e-08, 0))
hIsland = hIsland.sub(rect(6.8350638403133264e-09, -3.7188779606827924e-09).transl(7.614596855084365e-08, -2.8870813395151624e-08, 0))
hIsland = hIsland.sub(rect(5.159658859137904e-09, -2.2407953559918347e-09).transl(-3.08282671532836e-08, -4e-08, 0))
hIsland = hIsland.add(rect(5.952736886899551e-09, 1.439910133741096e-10).transl(9.478103450863637e-09, -4e-08, 0))
hIsland = hIsland.add(rect(9.124005083725962e-09, 7.246916167449825e-10).transl(-3.147917823951226e-08, -4e-08, 0))
hIsland = hIsland.sub(rect(7.818007761167209e-09, -3.011317923729284e-10).transl(3.052735536676157e-09, -4e-08, 0))
hIsland = hIsland.sub(rect(4.1268341717972104e-09, -1.1432644282956743e-09).transl(-4.952898492887433e-08, -3.979689964239535e-08, 0))
hIsland = hIsland.add(rect(7.571974197203256e-09, 7.992298926175407e-10).transl(-1.0545929952042852e-08, -4e-08, 0))
hIsland = hIsland.add(rect(7.554919247118427e-09, 1.0204683083700305e-09).transl(1.5047458114652047e-08, -4e-08, 0))
hIsland = hIsland.add(rect(9.402680128636421e-09, 1.517309349817834e-09).transl(-3.771522272907982e-08, -4e-08, 0))
hIsland = hIsland.add(rect(3.806059862473114e-09, 6.144146860570924e-11).transl(2.0782955957472442e-08, -4e-08, 0))
hIsland = hIsland.add(rect(7.650873100215232e-09, 7.42897606906448e-10).transl(-3.928883581531739e-08, -4e-08, 0))
hIsland = hIsland.add(rect(2.6294576946011868e-09, 1.5963912787928126e-09).transl(5.8042590566968154e-08, -3.8283060948636077e-08, 0))
hIsland = hIsland.sub(rect(4.340515356919633e-09, -1.6789965892971924e-09).transl(7.305242163558499e-08, -3.1276533423891355e-08, 0))
hIsland = hIsland.add(rect(9.09827777806507e-09, 2.7312906864276683e-09).transl(1.1987872049211675e-08, -4e-08, 0))
hIsland = hIsland.add(rect(4.910391403636161e-09, 9.133031647674533e-10).transl(5.0989296749972205e-08, -3.96441287923734e-08, 0))
hIsland = hIsland.sub(rect(4.057603083619188e-09, -9.018033617633131e-10).transl(8.858327552500956e-08, -9.957860626444164e-09, 0))
hIsland = hIsland.sub(rect(2.3471545854939217e-09, -1.6042832596861556e-10).transl(6.420592616764395e-08, -3.617387257156893e-08, 0))
hIsland = hIsland.sub(rect(9.073560436397457e-09, -1.4866897503788091e-09).transl(-7.72120704337527e-08, -2.793123857957962e-08, 0))
hIsland = hIsland.add(rect(5.245479992879365e-09, 1.20750368684849e-09).transl(-4.471845980610221e-08, -4e-08, 0))
hIsland = hIsland.add(rect(3.2057810118714426e-09, 1.6559005999673192e-10).transl(-4.460719015558836e-08, -4e-08, 0))
hIsland = hIsland.add(rect(6.5142566187734335e-09, 3.9862799698358e-10).transl(5.773946173904878e-08, -3.836362592679827e-08, 0))
hIsland = hIsland.sub(rect(9.344254931661816e-09, -1.5121515509883153e-09).transl(-2.368810843987979e-08, -4e-08, 0))
hIsland = hIsland.add(rect(4.306806764373534e-09, 1.0039805847086836e-09).transl(6.975615752429483e-08, -3.3402981041001743e-08, 0))
hIsland = hIsland.add(rect(6.1219653593666804e-09, 2.071763636606838e-09).transl(-7.893713493880225e-08, -2.6267694992399897e-08, 0))
hIsland = hIsland.sub(rect(6.2237073482958485e-09, -1.8371340027457498e-10).transl(-4.883776212675337e-08, -3.985426867156082e-08, 0))
hIsland = hIsland.add(rect(2.125909838709835e-09, 8.30478820700926e-11).transl(-3.941017198581778e-08, -4e-08, 0))
hIsland = hIsland.add(rect(9.504943589400526e-09, 1.537842956414393e-09).transl(5.938938611782395e-08, -3.789988701532708e-08, 0))
hIsland = hIsland.sub(rect(5.995888358903757e-09, -1.7554511450986713e-09).transl(5.4723166391007984e-08, -3.9055111782099845e-08, 0))
hIsland = hIsland.sub(rect(3.189191328655316e-09, -3.4370377937115093e-10).transl(4.140338667766436e-09, -4e-08, 0))
hIsland = hIsland.add(rect(9.536684125909596e-09, 1.8257772858662836e-09).transl(2.290582484175464e-09, -4e-08, 0))
hIsland = hIsland.add(rect(4.575821362543223e-09, 5.56139697723314e-10).transl(-4.795975544040753e-09, -4e-08, 0))
hIsland = hIsland.sub(rect(3.0649038166518604e-09, -4.712914357580113e-09).transl(7.656879747309742e-08, -2.850564286146221e-08, 0))
hIsland = hIsland.sub(rect(7.493382847921686e-09, -7.442369694035776e-10).transl(-2.2265029444037707e-08, 4e-08, 0))
hIsland = hIsland.add(rect(9.66901336466065e-09, 1.3157464830131404e-09).transl(-9.341195185674185e-09, 4e-08, 0))
hIsland = hIsland.sub(rect(4.720557900545521e-09, -2.299864564391427e-09).transl(5.368309083230622e-08, 3.924828403110142e-08, 0))
hIsland = hIsland.add(rect(6.926730110124148e-09, 1.4900060341175527e-09).transl(1.5370326364347268e-08, 4e-08, 0))
hIsland = hIsland.add(rect(3.924559664928772e-09, 3.1017448803207665e-10).transl(3.128779909112981e-08, 4e-08, 0))
hIsland = hIsland.sub(rect(2.169577762169209e-09, -1.0380317188619997e-10).transl(-8.538335734647495e-10, 4e-08, 0))
hIsland = hIsland.add(rect(5.146001018403165e-09, 8.79676797073449e-10).transl(-5.7837461411274063e-08, 3.833780544104986e-08, 0))
hIsland = hIsland.add(rect(3.8465017274128594e-09, 7.547595632314402e-10).transl(-4.356932392225814e-08, 4e-08, 0))
hIsland = hIsland.add(rect(9.042714264480312e-09, 1.958907206367443e-09).transl(-7.122428523060892e-08, 3.250571826336435e-08, 0))
hIsland = hIsland.sub(rect(3.326237335037509e-09, -5.150182475686551e-10).transl(2.553294499990817e-08, 4e-08, 0))
hIsland = hIsland.sub(rect(2.8782520843224635e-09, -1.4388004806130443e-09).transl(7.498974879034955e-09, 4e-08, 0))
hIsland = hIsland.sub(rect(4.3892032084971424e-09, -2.881032388793073e-09).transl(7.532894738619617e-08, 2.9550107440322343e-08, 0))
hIsland = hIsland.add(rect(3.784071639654167e-09, 1.5392274837788816e-09).transl(1.4790560786044837e-08, 4e-08, 0))
hIsland = hIsland.sub(rect(8.245150501127388e-09, -6.807161396360118e-11).transl(-5.5630144971327543e-08, 3.886793104240161e-08, 0))
hIsland = hIsland.sub(rect(5.251101550937449e-09, -1.0021218551348051e-09).transl(4.515058301036207e-08, 3.999977604635568e-08, 0))
hIsland = hIsland.sub(rect(5.368135947590131e-09, -1.715336409377862e-10).transl(2.1234925821526228e-08, 4e-08, 0))
hIsland = hIsland.sub(rect(7.330816917611117e-09, -3.751499602035582e-09).transl(5.98499700939347e-08, 3.775924657345482e-08, 0))
hIsland = hIsland.add(rect(5.386550833286317e-09, 1.7134224984155703e-09).transl(6.562755768317592e-08, 3.555004250622453e-08, 0))
hIsland = hIsland.add(rect(8.155707346876892e-09, 3.7122111659359706e-09).transl(-8.158689510342875e-08, 2.3288195183743e-08, 0))
hIsland = hIsland.sub(rect(5.712836481591185e-09, -1.2682601214238329e-10).transl(-1.3013382269967143e-08, 4e-08, 0))
hIsland = hIsland.add(rect(3.3394137409093977e-09, 3.0531795842261267e-09).transl(8.957675303130386e-08, 5.473209395350013e-09, 0))
hIsland = hIsland.add(rect(2.836746473416951e-09, 1.7836194865955534e-09).transl(6.875962606554281e-08, 3.396998145248153e-08, 0))
hIsland = hIsland.add(rect(2.832905260259044e-09, 4.054685340119226e-10).transl(2.3939038210975425e-08, 4e-08, 0))
hIsland = hIsland.add(rect(5.612050589344408e-09, 2.0579853568538747e-10).transl(4.4874628316722305e-09, 4e-08, 0))
hIsland = hIsland.sub(rect(2.6911601016791114e-09, -8.723739477297122e-10).transl(-3.6429265452968315e-08, 4e-08, 0))
hIsland = hIsland.add(rect(3.6743606669891354e-09, 2.5591278418671877e-09).transl(7.820332199768051e-08, 2.699851896541006e-08, 0))
[...]
hIsland = hIsland.sub(rect(9.113885734242834e-09, -2.293572798769814e-09).transl(-5.416633944429077e-09, 4e-08, 0))
hIsland = hIsland.add(rect(8.880588515907786e-09, 2.2077518201609695e-09).transl(3.59294590581148e-08, 4e-08, 0))
hIsland = hIsland.sub(rect(3.6826183199918794e-09, -2.5974137794947654e-09).transl(1.3579838783539359e-08, 4e-08, 0))
hIsland = hIsland.sub(rect(7.908717764267392e-09, -5.583636454725989e-10).transl(5.294452935215955e-08, 3.937170209835511e-08, 0))
hIsland = hIsland.add(rect(7.519767628751747e-09, 1.879712013929745e-09).transl(7.059080544496947e-08, 3.290222764558133e-08, 0))
hIsland = hIsland.sub(rect(4.121041021154935e-09, -1.4824310844297113e-09).transl(-5.182400742320334e-08, 3.9537403302463876e-08, 0))
hIsland = hIsland.sub(rect(6.067049984972562e-09, -1.7450597080983535e-09).transl(1.4524277848086991e-08, 4e-08, 0))
hIsland = hIsland.sub(rect(5.269124604342848e-09, -2.5002599709937192e-09).transl(-8.858784628444463e-08, 9.94204067916019e-09, 0))
hIsland = hIsland.add(rect(8.674824329249611e-09, 1.0123474083737468e-09).transl(2.7927424590329923e-08, 4e-08, 0))
hIsland = hIsland.add(rect(9.071785707908612e-09, 3.7389929807529965e-11).transl(8.597805564626286e-08, 1.6529484748048813e-08, 0))
hIsland = hIsland.add(rect(5.326180018780859e-09, 5.413827217829321e-10).transl(2.1033623222253647e-08, 4e-08, 0))
hIsland = hIsland.add(rect(9.423814272764815e-09, 3.06468503417934e-09).transl(-1.3332153608373767e-08, 4e-08, 0))
hIsland = hIsland.add(rect(5.228509660637009e-09, 1.9844356605418586e-09).transl(5.4066344961060344e-08, 3.917975177780626e-08, 0))
hIsland = hIsland.sub(rect(6.080359344955524e-09, -2.77416525567368e-09).transl(3.240878365383168e-08, 4e-08, 0))
hIsland = hIsland.sub(rect(6.354756440938177e-09, -1.6839903494001572e-09).transl(-4.852815285147475e-08, 3.9876868631044546e-08, 0))
hIsland = hIsland.add(rect(4.384656531167058e-09, 7.788634071872916e-10).transl(6.651135836395291e-08, 3.51337362977815e-08, 0))
hIsland = hIsland.add(rect(3.373399308289008e-09, 6.763070973236779e-10).transl(-7.448417213375466e-08, 3.0218085907626445e-08, 0))
hIsland = hIsland.sub(rect(4.467890574377323e-09, -5.78657068273804e-10).transl(-8.477079229744501e-08, 1.8714944553914404e-08, 0))
hIsland = hIsland.add(rect(4.39369684664429e-09, 2.1990410651222995e-09).transl(3.89365883202295e-08, 4e-08, 0))
hIsland = hIsland.sub(rect(5.613673741511567e-09, -1.2732237293410189e-09).transl(-1.4228159123953195e-08, 4e-08, 0))
hIsland = hIsland.sub(rect(6.903446512409313e-09, -2.9784169746602083e-09).transl(7.433948053817523e-08, 3.0329155681385344e-08, 0))
hIsland = hIsland.sub(rect(2.0586999393381067e-09, -1.386032781659217e-10).transl(-3.054425721791821e-08, 4e-08, 0))
hIsland = hIsland.add(rect(6.451597525060287e-09, 1.7056940156028026e-09).transl(-1.7601324878936507e-09, 4e-08, 0))
hIsland = hIsland.sub(rect(3.959914304957539e-09, -1.758875848341921e-09).transl(-4.7732255654941716e-08, 3.992620134455885e-08, 0))
hIsland = hIsland.sub(rect(9.326940008738757e-09, -1.3631360068351994e-10).transl(-6.494821144065455e-08, 3.5855059229497404e-08, 0))
hIsland = hIsland.sub(rect(5.312104960557133e-09, -7.771102080294631e-10).transl(-5.828508915491384e-08, 3.821712013643569e-08, 0))
hIsland = hIsland.sub(rect(9.428085269146966e-09, -1.102273202341613e-09).transl(-2.3731242492377334e-08, 4e-08, 0))
hIsland = hIsland.add(rect(6.2810118703283165e-09, 1.3808104334501418e-09).transl(-1.0919217417244631e-09, 4e-08, 0))
hIsland = hIsland.add(rect(4.9966913646879865e-09, 4.168045246928306e-09).transl(6.126934018681389e-09, 4e-08, 0))
hIsland = hIsland.sub(rect(3.928974424390929e-09, -2.236878153263548e-09).transl(4.63335096808415e-08, 3.9982433198703304e-08, 0))
hIsland = hIsland.sub(rect(2.1537685933923986e-09, -9.109271125273378e-10).transl(6.754924626093748e-08, 3.461570605419593e-08, 0))
hIsland = hIsland.add(rect(3.447922896408271e-09, 1.6220287522347523e-09).transl(-4.166448842786593e-08, 4e-08, 0))
hIsland = hIsland.add(rect(8.281482234952386e-09, 2.3668529255506e-09).transl(3.0259747777965844e-08, 4e-08, 0))
hIsland = hIsland.sub(rect(9.194577891236083e-09, -4.671314697302326e-10).transl(6.465201142105749e-08, 3.59840672244005e-08, 0))
hIsland = hIsland.add(rect(9.28541642763569e-09, 1.2067491373343039e-09).transl(-5.944359125294115e-08, 3.788359216641786e-08, 0))
hIsland = hIsland.add(rect(9.587044134356494e-09, 1.8277516664278917e-09).transl(2.96554728109071e-08, 4e-08, 0))
hIsland = hIsland.add(rect(7.74375576219681e-09, 4.706291876846582e-09).transl(3.6501489316267006e-09, 4e-08, 0))
hIsland = hIsland.add(rect(2.046760310773773e-09, 7.140565654927762e-10).transl(-4.4511881208044176e-08, 4e-08, 0))
hIsland = hIsland.add(rect(7.642194518761322e-09, 6.637934457271415e-10).transl(8.456434412278949e-08, 1.9057551286661887e-08, 0))
hIsland = hIsland.add(rect(6.442120006785582e-09, 7.401151893520456e-10).transl(8.771770255580253e-08, 1.2577004714491144e-08, 0))
hIsland = hIsland.sub(rect(4.0630336313661856e-09, -1.2484307505086355e-09).transl(-5.034286621172472e-08, 3.9717061352570384e-08, 0))
hIsland = hIsland.add(rect(4.78721453045526e-09, 5.285962638535168e-10).transl(7.738572756135437e-08, 2.7772118894829207e-08, 0))
hIsland = hIsland.sub(rect(3.6943411836799083e-09, -1.6974610303061928e-09).transl(8.6708553283247e-08, 1.5016608629471025e-08, 0))
hIsland = hIsland.add(rect(8.944918402867382e-09, 8.801958512593656e-10).transl(-8.282584026201128e-08, 2.166785516462819e-08, 0))
hIsland = hIsland.sub(rect(9.544136101043867e-09, -2.9349119496956248e-09).transl(-6.069923214241154e-08, 3.748681793806877e-08, 0))
hIsland = hIsland.sub(rect(6.617966385572466e-09, -2.596943143650819e-10).transl(-9.100713792822456e-09, 4e-08, 0))
hIsland = hIsland.add(rect(8.704513019548036e-09, 6.373470603409494e-11).transl(8.074158595063029e-08, 2.4303253391659853e-08, 0))
hIsland = hIsland.sub(rect(5.633501049744933e-09, -8.874633069150206e-10).transl(3.458684926481585e-08, 4e-08, 0))
hIsland = hIsland.sub(rect(4.657703252580894e-09, -1.8991376129880134e-09).transl(-7.253448032402017e-08, 3.163810664730257e-08, 0))
hIsland = hIsland.add(rect(7.39258850535982e-09, 9.946148944047312e-10).transl(3.10478984476873e-08, 4e-08, 0))
hIsland = hIsland.add(rect(6.82908716308234e-09, 1.2213575892082275e-09).transl(-4.965383751535983e-09, 4e-08, 0))
hIsland = hIsland.add(rect(9.080270124116134e-09, 4.747843764048531e-10).transl(-1.0405092921364941e-08, 4e-08, 0))
hIsland = hIsland.sub(rect(3.2753037168898626e-09, -1.1282298799782844e-10).transl(5.47215924750474e-08, 3.905542135964657e-08, 0))
hIsland = hIsland.sub(rect(4.946211320363745e-09, -1.9870740443946465e-09).transl(-2.2782629396714264e-08, 4e-08, 0))
hIsland = hIsland.sub(rect(7.781320080755042e-09, -3.4253860991695507e-09).transl(9.673309060281408e-09, 4e-08, 0))
hIsland = hIsland.sub(rect(6.292152119339126e-09, -1.781395910858373e-09).transl(4.2915568822025656e-08, 4e-08, 0))
hIsland = hIsland.add(rect(7.741363122251008e-09, 1.499498989790203e-10).transl(-6.280951250334999e-08, 3.673403926880208e-08, 0))
hIsland = hIsland.sub(rect(6.631988621975155e-09, -6.013106457687925e-10).transl(5.337066469258523e-08, 3.930187791930114e-08, 0))
hIsland = hIsland.add(rect(2.432070925232845e-09, 2.0039836136219006e-10).transl(-1.647624865679334e-08, 4e-08, 0))
hIsland = hIsland.sub(rect(2.2749275062206788e-09, -9.60317822682643e-10).transl(-6.541016899589458e-08, 3.5649043777070316e-08, 0))
hIsland = hIsland.sub(rect(5.029815576308938e-09, -5.284426447676174e-10).transl(-8.869867672467281e-08, 9.549896102338669e-09, 0))
hIsland = hIsland.add(rect(3.852738202918018e-09, 2.815365243649601e-10).transl(-1.7808174887327885e-08, 4e-08, 0))
hIsland = hIsland.sub(rect(4.744523017282092e-09, -1.018345647075068e-09).transl(1.7419707251781962e-08, 4e-08, 0))
hIsland = hIsland.add(rect(2.890137748051449e-09, 1.7054069958477677e-09).transl(8.278283936556505e-08, 2.1727052934430217e-08, 0))
hIsland = hIsland.sub(rect(2.7256163721275124e-09, -2.4074676029980563e-10).transl(8.921856681687996e-08, 7.422001256118565e-09, 0))
hIsland = hIsland.sub(rect(9.988429871735063e-09, -3.903120780287045e-10).transl(-1.778285920120467e-08, 4e-08, 0))
hIsland = hIsland.sub(rect(2.085791062920924e-09, -2.1087662361049493e-09).transl(-5.681611804707587e-08, 3.859640466129359e-08, 0))
hIsland = hIsland.sub(rect(6.027247620301568e-09, -1.3340027210634405e-10).transl(-7.997578876571376e-08, 2.516818215055261e-08, 0))
hIsland = hIsland.sub(rect(9.902240077941568e-09, -2.0079162155456117e-09).transl(4.751555651390878e-10, 4e-08, 0))
hIsland = hIsland.sub(rect(7.788350807160956e-09, -1.5907145947284954e-09).transl(-7.201509490303912e-08, 3.198993233455202e-08, 0))
hIsland = hIsland.sub(rect(2.92423687246298e-09, -1.091472966782801e-09).transl(6.372237776895441e-08, 3.637361757982301e-08, 0))
hIsland = hIsland.sub(rect(7.350869247369613e-09, -2.8299706539907356e-10).transl(4.2688926209973633e-10, 4e-08, 0))
hIsland = hIsland.add(rect(3.1247967124154954e-09, 1.202292938552367e-09).transl(5.290794970465763e-09, 4e-08, 0))
hIsland = hIsland.add(rect(6.34236144751268e-09, 9.756258856662097e-10).transl(-3.6342040183420255e-09, 4e-08, 0))
hIsland = hIsland.add(rect(5.3312368843655495e-09, 1.4572696597005761e-09).transl(-7.311208044706625e-08, 3.1234181123718845e-08, 0))
hIsland = hIsland.add(rect(8.945667264978406e-09, 6.287870340168161e-10).transl(8.296259107434244e-08, 2.147805870110711e-08, 0))
hIsland = hIsland.add(rect(5.171213104456306e-09, 6.583079855450566e-10).transl(6.141952298668593e-08, 3.724220905399525e-08, 0))
hIsland = hIsland.sub(rect(8.647795545348043e-09, -3.155973560236881e-10).transl(-6.985316543733972e-08, 3.3346014390756234e-08, 0))
hIsland = hIsland.sub(rect(4.4011473558620435e-09, -4.4438811592442767e-10).transl(-7.934666736823058e-08, 2.5843692595482132e-08, 0))
hIsland = hIsland.add(rect(8.05653009239849e-09, 4.0478580355652106e-10).transl(5.408714566882002e-09, 4e-08, 0))
hIsland = hIsland.sub(rect(9.598398626960996e-09, -1.4532920651532832e-09).transl(-1.1641209786273496e-08, 4e-08, 0))
hIsland = hIsland.sub(rect(2.134230904832836e-09, -3.4655802649663025e-09).transl(-6.834868447067183e-08, 3.419437751474568e-08, 0))
hIsland = hIsland.sub(rect(4.473295043798463e-09, -6.476005944961426e-10).transl(8.894071165264094e-08, 8.627895474196007e-09, 0))
hIsland = hIsland.add(rect(3.6033267999812805e-09, 3.4855377108501228e-09).transl(-5.5216522784154916e-08, 3.8955474801978477e-08, 0))
hIsland = hIsland.add(rect(6.945041450045623e-09, 1.4532571538938953e-10).transl(6.967367199811082e-08, 3.3451168435976395e-08, 0))
hIsland = hIsland.sub(rect(8.124559721044226e-09, -8.126549370443266e-10).transl(-8.766943543614254e-08, 1.270580400665373e-08, 0))
hIsland = hIsland.sub(rect(3.857646504207703e-09, -2.6418430352659018e-09).transl(-4.734070052892098e-08, 3.994585096367303e-08, 0))
hIsland = hIsland.add(rect(8.443477080335716e-09, 1.6793026079143117e-09).transl(-3.5482039022009664e-08, 4e-08, 0))
hIsland = hIsland.add(rect(7.531829741576309e-09, 5.692012373326515e-10).transl(1.06440787619115e-08, 4e-08, 0))
hIsland = hIsland.add(rect(8.595327701902336e-09, 1.7937626291697457e-09).transl(5.773451815101944e-08, 3.8364922738871646e-08, 0))
hIsland = hIsland.add(rect(3.5652235448706908e-09, 1.0715613947953604e-09).transl(1.0400864537869678e-08, 4e-08, 0))
hIsland = hIsland.sub(rect(6.096437084658254e-09, -3.2480278335799784e-10).transl(-4.9407459903320925e-08, 3.980767886417864e-08, 0))
hIsland = hIsland.sub(rect(6.928805718828274e-09, -2.5989671167052372e-09).transl(2.2091615424321846e-08, 4e-08, 0))
hIsland = hIsland.add(rect(9.1991271514067e-09, 7.842170409078346e-10).transl(-1.1973112484224576e-08, 4e-08, 0))
hIsland = hIsland.sub(rect(8.728044617006838e-09, -1.1624822567054457e-09).transl(-7.886576497848013e-08, 2.63403735537481e-08, 0))
hIsland = hIsland.add(rect(6.4347552261259164e-09, 1.0885670080154386e-09).transl(2.4191575320118437e-08, 4e-08, 0))
hIsland = hIsland.sub(rect(9.241230814018103e-09, -2.7718924501501225e-09).transl(-8.996567661044683e-08, 1.561999848808219e-09, 0))
hIsland = hIsland.add(rect(5.7912950597428055e-09, 6.412425768584771e-10).transl(-6.874020005306094e-08, 3.398071088499179e-08, 0))
hIsland = hIsland.sub(rect(8.422298056980204e-09, -1.132121577790825e-09).transl(-5.927868271341838e-08, 3.793295418642287e-08, 0))
hIsland = hIsland.add(rect(5.296746430959124e-09, 1.65821578046357e-09).transl(-1.1555774423022946e-08, 4e-08, 0))
hIsland = hIsland.add(rect(2.8373247454867327e-09, 1.5851136599558568e-09).transl(5.6204467629274744e-08, 3.8740261050837536e-08, 0))
hIsland = hIsland.sub(rect(3.913419760837803e-09, -5.52785820261618e-11).transl(7.363210087881095e-08, 3.0858694105371084e-08, 0))
hIsland = hIsland.add(rect(7.48970900048808e-09, 2.789942184708267e-09).transl(-4.2819573527098804e-09, 4e-08, 0))
hIsland = hIsland.sub(rect(7.014423093171848e-09, -2.471433959453889e-09).transl(-1.6985300533535657e-08, 4e-08, 0))
hIsland = hIsland.sub(rect(6.8763964088002815e-09, -1.3963623423703797e-09).transl(1.4774144043908524e-08, 4e-08, 0))
hIsland = hIsland.add(rect(2.933482754907849e-09, 1.6795962574826877e-09).transl(-6.857964287508432e-08, 3.406892582937124e-08, 0))
hIsland = hIsland.sub(rect(5.23776803863412e-09, -1.013323359988399e-09).transl(5.253327156594778e-08, 3.943552143969556e-08, 0))
hIsland = hIsland.add(rect(6.906502907262118e-09, 2.533636400311294e-09).transl(3.216997485505309e-08, 4e-08, 0))
hIsland = hIsland.add(rect(8.520543849745438e-09, 8.015291918691186e-10).transl(6.522541107964948e-08, 3.573214753874611e-08, 0))
hIsland = hIsland.add(rect(6.056542898830065e-09, 5.948179326350396e-11).transl(-5.967926397474097e-08, 3.7811950130475e-08, 0))
hIsland = hIsland.sub(rect(2.7494826497475692e-09, -7.213505401054589e-11).transl(3.912737265380573e-09, 4e-08, 0))
hIsland = hIsland.add(rect(4.774373004801314e-09, 3.181217585410341e-10).transl(-3.151538000029494e-08, 4e-08, 0))
hIsland = hIsland.sub(rect(4.5066050002762395e-09, -1.282818986723398e-09).transl(1.0321174375636798e-08, 4e-08, 0))
hIsland = hIsland.add(rect(8.479013143003802e-09, 2.416946535209084e-09).transl(-5.377421044157354e-08, 3.92322692187305e-08, 0))
hIsland = hIsland.add(rect(5.217597366001781e-09, 1.198420664995368e-09).transl(1.1319519128428473e-08, 4e-08, 0))
hIsland = hIsland.add(rect(9.580872963155575e-09, 2.773784239958168e-09).transl(8.392898830844879e-08, 2.0064761701741705e-08, 0))
hIsland = hIsland.sub(rect(4.862318241384049e-09, -3.5158960575465753e-09).transl(-1.2501735743841789e-08, 4e-08, 0))
hIsland = hIsland.sub(rect(5.8200651418863924e-09, -3.2483740297055936e-09).transl(-7.165430088275455e-08, 3.222817715949009e-08, 0))
hIsland = hIsland.add(rect(9.760404245338333e-09, 1.8458110168071658e-09).transl(-7.553463710148503e-08, 2.938226137687926e-08, 0))
hIsland = hIsland.sub(rect(8.406853442467201e-09, -1.0949599211383273e-09).transl(-1.2280038234390607e-08, 4e-08, 0))
hIsland = hIsland.add(rect(3.2526433043639645e-09, 2.618618079178578e-09).transl(-6.924040676046968e-08, 3.3700527805803125e-08, 0))
hIsland = hIsland.sub(rect(2.8727180238667532e-09, -3.92925527381396e-09).transl(-2.156567008595892e-08, 4e-08, 0))
hIsland = hIsland.sub(rect(5.646746722748548e-09, -2.0149182654034333e-09).transl(-2.681601669524623e-08, 4e-08, 0))
hIsland = hIsland.sub(rect(8.329592737260506e-09, -1.9343571311461837e-10).transl(-2.3455110346898118e-08, 4e-08, 0))
hIsland = hIsland.sub(rect(2.5594309760761355e-09, -3.834062048857119e-10).transl(-1.6185334628688238e-08, 4e-08, 0))
hIsland = hIsland.sub(rect(2.1261297135674155e-09, -1.9461210673273024e-09).transl(2.8234436636748462e-08, 4e-08, 0))
hIsland = hIsland.sub(rect(8.249937851027283e-09, -4.958285444896919e-10).transl(-4.793148543025202e-08, 3.991503463191457e-08, 0))
hIsland = hIsland.add(rect(8.454752316059778e-09, 3.0402837670811197e-10).transl(-6.612695499562483e-08, 3.531755647896264e-08, 0))
hIsland = hIsland.add(rect(6.950908321677507e-09, 1.8137171112535465e-10).transl(6.513340071173037e-08, 3.5773180389572644e-08, 0))
hIsland = hIsland.add(rect(5.065444736016531e-09, 1.0691252861931814e-09).transl(-3.4050700302080836e-08, 4e-08, 0))
hIsland = hIsland.sub(rect(8.92350951041628e-09, -1.1142399709699341e-09).transl(-8.91541128528927e-08, 7.719237123390145e-09, 0))
hIsland = hIsland.sub(rect(8.387628246824065e-09, -1.5070532530946784e-09).transl(2.1732312445621564e-08, 4e-08, 0))
hIsland = hIsland.sub(rect(9.943483945421997e-09, -1.6024893885969918e-09).transl(-6.536449283370892e-08, 3.5669677204901665e-08, 0))
hIsland = hIsland.add(rect(3.45745433018156e-09, 3.2042180725162745e-09).transl(1.7643119675921495e-08, 4e-08, 0))
hIsland = hIsland.sub(rect(2.4572089018995654e-09, -3.6502087003968643e-09).transl(-7.366128730463092e-08, 3.083727883517999e-08, 0))
hIsland = hIsland.sub(rect(6.290215196696683e-09, -1.210978326524515e-09).transl(-5.483072029380202e-08, 3.903383212261913e-08, 0))
hIsland = hIsland.sub(rect(3.519213586929489e-09, -1.1198287516753423e-09).transl(-5.317969586037549e-08, 3.933363541008178e-08, 0))
hIsland = hIsland.add(rect(4.173863260096517e-09, 6.654746705482471e-10).transl(4.292222386690358e-08, 4e-08, 0))
hIsland = hIsland.add(rect(7.166156704336799e-09, 3.2297657347109693e-09).transl(-3.283889001335834e-08, 4e-08, 0))
hIsland = hIsland.sub(rect(8.162291722897227e-09, -3.363773534649401e-09).transl(-7.183319330353991e-09, 4e-08, 0))
hIsland = hIsland.add(rect(9.682252304885801e-09, 2.5874879933188724e-10).transl(-6.526594557710521e-08, 3.571399642485722e-08, 0))
hIsland = hIsland.add(rect(2.824758030490652e-09, 2.2142253772472875e-09).transl(-3.8624369390506e-08, 4e-08, 0))
hIsland = hIsland.sub(rect(6.194887319485215e-09, -1.0733905630526281e-09).transl(5.967924569767735e-08, 3.7811955736774315e-08, 0))
hIsland = hIsland.add(rect(8.877778893539353e-09, 5.524084905024604e-09).transl(-1.441969864743217e-08, 4e-08, 0))
hIsland = hIsland.sub(rect(8.024277793890936e-09, -1.2665177841243344e-09).transl(8.661614494639108e-08, 1.5217831770438196e-08, 0))
hIsland = hIsland.add(rect(3.0526708515134244e-09, 1.4873105941052736e-09).transl(-2.93103904512529e-08, 4e-08, 0))
hIsland = hIsland.add(rect(5.770918556616205e-09, 7.297285270730884e-10).transl(2.509048941402262e-08, 4e-08, 0))
hIsland = hIsland.add(rect(4.909900600495369e-09, 1.3606415730693316e-09).transl(8.834979212077116e-08, 1.0732961505808989e-08, 0))
hIsland = hIsland.add(rect(4.2917520128810434e-09, 3.4978853368485743e-09).transl(-5.937666331014461e-08, 3.7903701785450833e-08, 0))
hIsland = hIsland.add(rect(6.244475244607253e-09, 1.2093597532548196e-09).transl(5.371870390873579e-10, 4e-08, 0))
hIsland = hIsland.sub(rect(7.740925853814778e-09, -9.679482534004583e-11).transl(-7.35564023513234e-08, 3.091406660205053e-08, 0))
hIsland = hIsland.add(rect(3.0375791459279874e-09, 2.6150661041286455e-09).transl(-4.3916872723035954e-08, 4e-08, 0))
hIsland = hIsland.add(rect(4.8498121912810185e-09, 4.2343560180311785e-09).transl(-3.791296865269183e-08, 4e-08, 0))
hIsland = hIsland.add(rect(6.051688867005011e-09, 1.5223197345892947e-10).transl(-2.8353372170928935e-09, 4e-08, 0))
vIsland = hIsland.rotz(pi / 2)
vIslands = vIslands.add(vIsland.transl(0, -a/2, 0))
DefRegion(1, hIslands)
DefRegion(2, vIslands)
TableAdd(m_full.Region(1))
TableAdd(m_full.Region(2))
setgeom(hIslands.add(vIslands))
save(geom)
r2o2 := sqrt(2) / 2
m = RandomMagSeed(4)
B_ext = vector(Bmax*r2o2, Bmax*r2o2, 0)
relax()
minimize()
for B := Bmax; B >= -Bmax; B -= Bstep {
	B_ext = vector(B*r2o2, B*r2o2, 0)
	minimize()
	tablesave()
}
//********************************************************************//
//Please cite the following references, relevant for your simulation. //
//See bibtex file in output folder for justification.                 //
//********************************************************************//
//   * Vansteenkiste et al., AIP Adv. 4, 107133 (2014).
//   * Exl et al., J. Appl. Phys. 115, 17D118 (2014).
