# t (s)	mx ()	my ()	mz ()	B_extx (T)	B_exty (T)	B_extz (T)	m_fullx (A/m)	m_fully (A/m)	m_fullz (A/m)	m_full.region1x (A/m)	m_full.region1y (A/m)	m_full.region1z (A/m)	m_full.region2x (A/m)	m_full.region2y (A/m)	m_full.region2z (A/m)
0	0.6373212	0.6373185	-6.6718475e-10	0.07071091	0.070710905	0	52207.668	52207.445	-5.48812e-05	658237.9	234008.4	-0.0005257989	234011.77	658237.56	-0.00040386652
0	0.63719827	0.63719463	-3.872618e-10	0.070569135	0.070569135	0	52197.6	52197.3	-3.0475207e-05	658333	233740.22	-0.00029214117	233744.56	658332.4	-0.00028027897
0	0.63707	0.63706636	-3.767384e-10	0.07042785	0.07042785	0	52187.09	52186.79	-3.008781e-05	658431.7	233461.84	-0.00036248675	233466.23	658431	-0.00015007063
0	0.6369414	0.6369378	-3.220166e-10	0.07028653	0.070286535	0	52176.555	52176.258	-2.660124e-05	658530.4	233183.23	-0.00018924347	233187.61	658529.6	-0.00023393362
0	0.6368123	0.6368087	-1.5995597e-10	0.07014484	0.07014484	0	52165.984	52165.676	-1.34297525e-05	658629.2	232903.62	-0.00011338056	232908.02	658628.56	-0.00011917373
0	0.6366839	0.6366801	-4.777632e-10	0.07000351	0.07000351	0	52155.453	52155.16	-3.835227e-05	658727.44	232625.58	-0.00044938427	232629.95	658726.7	-0.00024055438
0	0.6365532	0.6365496	-4.293555e-10	0.069862306	0.06986231	0	52144.758	52144.457	-3.4607438e-05	658826.94	232343.25	-0.0002855204	232347.62	658826.2	-0.00030455508
0	0.63642406	0.6364205	-2.7781827e-10	0.06972053	0.06972053	0	52134.176	52133.88	-2.5568183e-05	658925.25	232064.02	-0.00021020921	232068.39	658924.56	-0.00020303672
0	0.63629377	0.6362902	-3.746337e-10	0.06957921	0.06957921	0	52123.5	52123.203	-3.0346075e-05	659024.2	231782.64	-0.00028331348	231787.03	659023.56	-0.00022069209
0	0.6361634	0.6361598	-5.5353183e-10	0.069437936	0.069437936	0	52112.83	52112.523	-4.442149e-05	659123.06	231501.36	-0.0004278668	231505.75	659122.3	-0.00033986583
0	0.6360324	0.63602865	-1.7468875e-10	0.0692966	0.0692966	0	52102.094	52101.79	-1.4850207e-05	659222.1	231218.77	-0.00018814001	231223.14	659221.4	-5.075918e-05
0	0.63590163	0.635898	-5.451131e-10	0.069154926	0.069154926	0	52091.383	52091.082	-4.351756e-05	659320.8	230937.06	-0.00038400423	230941.45	659320.1	-0.00035972812
0	0.63577014	0.63576645	-3.1570258e-10	0.069013596	0.069013596	0	52080.605	52080.305	-2.776343e-05	659419.8	230653.94	-0.00030455508	230658.31	659419.1	-0.00017434676
0	0.6356383	0.63563466	-3.367494e-10	0.06887227	0.06887227	0	52069.81	52069.51	-2.8150827e-05	659518.94	230370.38	-0.00032000354	230374.75	659518.2	-0.0001588983
0	0.635506	0.63550234	-6.650801e-10	0.0687306	0.0687306	0	52058.965	52058.668	-5.5655993e-05	659618.1	230085.75	-0.00055779924	230090.16	659617.5	-0.0003795904
0	0.63537365	0.63537	-4.5882106e-10	0.06858926	0.06858927	0	52048.125	52047.83	-3.6802685e-05	659717.2	229801.47	-0.00033986583	229805.86	659716.56	-0.00029352048
0	0.6352413	0.63523775	-4.146227e-10	0.06844801	0.06844801	0	52037.293	52036.99	-3.4349174e-05	659816	229517.5	-0.00030455508	229521.89	659815.25	-0.00032000354
0	0.6351083	0.6351047	-5.5563654e-10	0.068306684	0.068306684	0	52026.4	52026.098	-4.3904958e-05	659915.06	229232.2	-0.00051200564	229236.6	659914.44	-0.0002626236
0	0.6349749	0.6349712	-3.1570258e-10	0.068165004	0.068165004	0	52015.47	52015.168	-2.5826446e-05	660014.3	228946.1	-0.00023834746	228950.47	660013.6	-0.00020965749
0	0.6348413	0.63483775	-4.777632e-10	0.06802368	0.06802368	0	52004.53	52004.227	-3.938533e-05	660113.4	228660.16	-0.00030179642	228664.56	660112.7	-0.00035972812
0	0.6347072	0.63470364	-4.840773e-10	0.067882344	0.067882344	0	51993.535	51993.242	-4.0547522e-05	660212.7	228373.02	-0.0003266243	228377.44	660212.06	-0.00036193503
0	0.63457286	0.6345693	-4.3146017e-10	0.06774067	0.06774067	0	51982.535	51982.234	-3.4607438e-05	660312	228085.73	-0.00030014126	228090.11	660311.3	-0.0003177966
0	0.6344382	0.63443464	-3.7042436e-10	0.06759931	0.06759931	0	51971.504	51971.207	-3.0991734e-05	660411.25	227797.94	-0.00023531294	227802.33	660410.56	-0.00028248588
0	0.6343034	0.63429976	-6.166723e-10	0.06745811	0.06745811	0	51960.453	51960.164	-5.0232436e-05	660510.44	227509.88	-0.00045407398	227514.28	660509.8	-0.00040828038
0	0.6341683	0.63416463	-4.8828663e-10	0.06731677	0.06731677	0	51949.39	51949.09	-4.0547522e-05	660609.56	227221.64	-0.00029434808	227226.02	660608.94	-0.00040607344
0	0.6340322	0.6340285	-3.241213e-10	0.06717497	0.06717497	0	51938.242	51937.94	-2.6859505e-05	660709.4	226931.23	-0.00023614053	226935.64	660708.7	-0.00023393362
0	0.6338965	0.63389295	-3.6621498e-10	0.06703377	0.06703377	0	51927.125	51926.832	-3.008781e-05	660808.44	226642.23	-0.00047117763	226646.66	660807.9	-4.4138418e-05
0	0.6337605	0.6337569	-6.1877703e-10	0.06689243	0.06689243	0	51915.984	51915.69	-5.1265495e-05	660907.7	226352.6	-0.00041545287	226356.98	660907	-0.00048552259
0	0.6336232	0.63361955	-3.6831965e-10	0.06675072	0.06675072	0	51904.73	51904.44	-3.0475207e-05	661007.6	226060.42	-0.0003092448	226064.84	661007	-0.00020524365
0	0.63348687	0.6334832	-5.72474e-10	0.0666094	0.0666094	0	51893.562	51893.266	-4.700413e-05	661106.7	225770.39	-0.00031448624	225774.81	661106.06	-0.0004943503
0	0.633349	0.6333453	-5.2406623e-10	0.06646818	0.06646819	0	51882.273	51881.977	-4.338843e-05	661206.56	225477.61	-0.00046786724	225482.02	661205.94	-0.00030455508
0	0.6332118	0.63320816	-3.4306347e-10	0.06632638	0.06632638	0	51871.04	51870.742	-2.7634298e-05	661305.7	225186.34	-0.0002000022	225190.77	661305.06	-0.0002957274
0	0.6330738	0.63307023	-1.936309e-10	0.06618506	0.06618506	0	51859.74	51859.44	-1.5883264e-05	661405.3	224893.72	-0.00012055306	224898.11	661404.6	-0.00013903601
0	0.6329355	0.63293195	-4.3356485e-10	0.06604385	0.06604385	0	51848.41	51848.105	-3.48657e-05	661504.9	224600.55	-0.00038483183	224604.97	661504.1	-0.00023172669
0	0.63279694	0.6327933	-4.146227e-10	0.06590248	0.06590248	0	51837.047	51836.75	-3.4349174e-05	661604.4	224306.83	-0.0002000022	224311.23	661603.8	-0.0003994527
0	0.632658	0.63265437	-3.8515713e-10	0.06576081	0.06576081	0	51825.664	51825.375	-3.1508265e-05	661703.94	224012.78	-0.00020303672	224017.22	661703.3	-0.00034648657
0	0.6325186	0.63251495	-1.3890913e-10	0.065619476	0.065619476	0	51814.246	51813.957	-1.213843e-05	661803.7	223717.98	-0.00019420905	223722.38	661802.94	-2.427613e-05
0	0.6323791	0.6323755	-6.250911e-10	0.06547826	0.06547826	0	51802.824	51802.527	-5.0103306e-05	661903.25	223423.06	-0.000539868	223427.44	661902.6	-0.00035310735
0	0.6322395	0.63223594	-5.219616e-10	0.06533646	0.06533646	0	51791.39	51791.094	-4.0934916e-05	662002.56	223128.3	-0.00043200477	223132.7	662002	-0.0002626236
0	0.6320987	0.6320951	-6.650801e-10	0.065195136	0.065195136	0	51779.85	51779.562	-5.5010332e-05	662102.6	222831.16	-0.000445798	222835.58	662101.94	-0.00048552259
0	0.6319579	0.6319542	-2.2941053e-10	0.06505392	0.06505392	0	51768.316	51768.02	-2.0144627e-05	662202.5	222534.1	-0.00028358932	222538.48	662201.9	-4.4138418e-05
0	0.6318169	0.6318134	-3.914712e-10	0.064912565	0.064912565	0	51756.773	51756.484	-3.1508265e-05	662302.06	222237.17	-0.00035145215	222241.58	662301.5	-0.00019862287
0	0.6316756	0.6316721	-4.777632e-10	0.064770885	0.064770885	0	51745.195	51744.906	-3.92562e-05	662401.8	221939.64	-0.0004546257	221944.05	662401.25	-0.00020745056
0	0.6315339	0.63153034	-3.8515713e-10	0.06462956	0.06462956	0	51733.594	51733.297	-3.176653e-05	662501.6	221641.55	-0.0002932446	221645.94	662500.94	-0.0002626236
0	0.631392	0.6313884	-3.5990091e-10	0.064488225	0.06448822	0	51721.96	51721.668	-2.8150827e-05	662601.3	221343.12	-0.00033545197	221347.53	662600.7	-0.00016882944
0	0.63124955	0.631246	-1.9994496e-10	0.064346544	0.064346544	0	51710.3	51710.004	-1.4591942e-05	662701.1	221043.81	-0.00013655324	221048.22	662700.56	-0.00015448446
0	0.6311066	0.6311031	-4.693445e-10	0.064205214	0.064205214	0	51698.59	51698.293	-3.822314e-05	662801.1	220743.8	-0.0003249691	220748.19	662800.56	-0.00031558968
0	0.6309642	0.63096064	-5.9352084e-10	0.06406397	0.06406397	0	51686.918	51686.62	-4.9457645e-05	662900.56	220444.86	-0.00048359155	220449.27	662899.94	-0.00035752117
0	0.63081986	0.63081634	-3.1991193e-10	0.06392263	0.06392263	0	51675.1	51674.805	-2.7376032e-05	663000.94	220142.42	-0.0002736582	220146.83	663000.44	-0.00018758827
0	0.63067627	0.6306727	-7.366393e-11	0.06378097	0.06378097	0	51663.332	51663.04	-5.423554e-06	663100.8	219841.53	-0.0001652432	219845.97	663100.2	7.062147e-05
0	0.6305325	0.63052887	-1.07338874e-10	0.06363963	0.06363963	0	51651.547	51651.26	-7.7479335e-06	663200.5	219540.61	-0.0001588983	219545.02	663199.9	3.3103814e-05
0	0.6303878	0.6303842	-4.52507e-10	0.063498296	0.063498296	0	51639.703	51639.406	-3.706095e-05	663300.5	219237.97	-0.00026703742	219242.36	663299.9	-0.00036634886
0	0.6302428	0.63023925	-3.9778522e-10	0.06335664	0.06335664	0	51627.82	51627.53	-3.3316115e-05	663400.56	218934.98	-0.00034979696	218939.39	663400	-0.00023834746
0	0.6300977	0.6300941	-4.1251802e-10	0.06321528	0.06321528	0	51615.938	51615.65	-3.357438e-05	663500.44	218631.94	-0.00021627825	218636.33	663499.9	-0.00037517655
0	0.62995183	0.6299483	-3.3464473e-10	0.06307405	0.06307405	0	51603.992	51603.703	-2.8409091e-05	663600.6	218327.69	-0.0003089689	218332.08	663600	-0.00017434676
0	0.6298063	0.62980276	-3.4516814e-10	0.062932715	0.062932715	0	51592.066	51591.777	-2.9700414e-05	663700.3	218024.06	-0.00032938295	218028.47	663699.75	-0.0001588983
0	0.62965965	0.62965614	-3.3885408e-10	0.062790945	0.062790945	0	51580.055	51579.76	-2.5697314e-05	663800.6	217718.56	-0.000251589	217722.95	663800	-0.00019641596
0	0.62951314	0.62950957	-2.0625901e-10	0.06264971	0.06264972	0	51568.05	51567.766	-1.5754133e-05	663900.56	217413.48	-0.00016717426	217417.88	663900	-0.00012358757
0	0.6293659	0.6293624	-2.988651e-10	0.06250837	0.062508374	0	51555.99	51555.695	-2.376033e-05	664000.8	217107.14	-0.00033655544	217111.52	664000.2	-7.282839e-05
0	0.6292188	0.62921524	-3.7042436e-10	0.06236669	0.06236669	0	51543.938	51543.64	-3.2153926e-05	664100.7	216801.23	-0.00035310735	216805.64	664100.06	-0.0002008298
0	0.62907094	0.6290674	-2.609808e-10	0.062225346	0.062225346	0	51531.83	51531.543	-2.1565083e-05	664200.7	216494.19	-0.0001368291	216498.62	664200.2	-0.00025820974
0	0.62892306	0.62891954	-2.9676042e-10	0.06208414	0.06208414	0	51519.715	51519.43	-2.5309917e-05	664300.75	216187.23	-0.00033158986	216191.64	664300.2	-0.00013462217
0	0.6287746	0.62877107	-2.86237e-10	0.061942354	0.061942354	0	51507.56	51507.26	-2.1694215e-05	664400.75	215879.28	-0.0002775203	215883.67	664400.25	-0.00011255297
0	0.6286254	0.6286219	-2.5256205e-10	0.06180101	0.06180101	0	51495.332	51495.05	-2.0661157e-05	664501.06	215570.11	-0.00029848606	215574.52	664500.56	-4.4138418e-05
0	0.62847644	0.628473	-2.5887611e-10	0.061659798	0.061659798	0	51483.133	51482.844	-2.0402893e-05	664601.1	215261.6	-0.0002118644	215266	664600.5	-0.00014124294
0	0.6283267	0.62832314	-2.7781827e-10	0.061518423	0.061518427	0	51470.86	51470.58	-2.4147726e-05	664701.4	214951.6	-0.00034924524	214955.98	664700.9	-4.855226e-05
0	0.6281768	0.6281733	-4.1883208e-10	0.061376773	0.061376773	0	51458.582	51458.29	-3.422004e-05	664801.56	214641.58	-0.00039338364	214646	664801.06	-0.00020524365
0	0.62802666	0.62802315	-4.798679e-10	0.061235428	0.061235428	0	51446.285	51445.992	-4.106405e-05	664901.6	214331.3	-0.00024662341	214335.69	664901.1	-0.00044138418
0	0.62787616	0.6278727	-5.430084e-10	0.06109409	0.06109409	0	51433.953	51433.668	-4.4615186e-05	665001.6	214020.61	-0.0004562809	214024.98	665001.1	-0.00033103814
0	0.62772435	0.62772083	-1.2207166e-10	0.06095245	0.060952455	0	51421.527	51421.234	-1.0330578e-05	665102.3	213707.47	-7.282839e-05	213711.86	665101.8	-8.8276836e-05
0	0.6275735	0.62757	-3.367494e-10	0.060811095	0.060811095	0	51409.16	51408.867	-2.6342976e-05	665202.25	213396.25	-0.0003944871	213400.66	665201.7	-5.9586866e-05
0	0.62742156	0.62741804	-3.0307445e-10	0.06066985	0.06066985	0	51396.71	51396.43	-2.4018595e-05	665302.5	213083.23	-0.00017434676	213087.64	665302	-0.00024717514
0	0.6272693	0.6272659	-3.6621498e-10	0.060528502	0.060528506	0	51384.25	51383.957	-2.9183884e-05	665402.75	212770.03	-0.000251589	212774.44	665402.2	-0.00023172669
0	0.6271169	0.62711346	-2.5256205e-11	0.060386855	0.060386855	0	51371.76	51371.473	-2.5826446e-06	665502.9	212456.47	-4.965572e-05	212460.88	665502.4	-1.10346045e-05
0	0.6269636	0.62696016	-1.8942153e-10	0.06024551	0.06024551	0	51359.203	51358.914	-1.6012396e-05	665603.3	212141.36	-0.00020855402	212145.73	665602.9	-6.620763e-05
0	0.6268105	0.626807	-4.6092574e-10	0.06010417	0.06010417	0	51346.66	51346.37	-3.7835744e-05	665703.56	211826.77	-0.0004104873	211831.16	665703.06	-0.00024717514
0	0.62665683	0.62665325	-3.872618e-10	0.059962526	0.059962522	0	51334.066	51333.785	-3.2024793e-05	665803.8	211511.38	-0.00041379768	211515.75	665803.3	-0.00012800141
0	0.62650263	0.6264992	-5.8931143e-10	0.059821144	0.059821144	0	51321.44	51321.156	-4.8166323e-05	665904	211195.3	-0.00035862465	211199.7	665903.7	-0.0004656603
0	0.6263484	0.6263449	-1.7468875e-10	0.05967993	0.05967993	0	51308.8	51308.52	-1.3558884e-05	666004.25	210879.1	-0.00021848518	210883.5	666003.75	-4.413842e-06
0	0.62619334	0.6261899	-4.819726e-10	0.05953857	0.05953857	0	51296.098	51295.816	-3.938533e-05	666104.6	210561.64	-0.00033710717	210566.08	666104.1	-0.00034648657
0	0.62603813	0.6260346	-3.0938851e-10	0.05939681	0.05939681	0	51283.387	51283.105	-2.4664256e-05	666204.94	210244.06	-0.00020193326	210248.47	666204.44	-0.00024276129
0	0.6258827	0.62587917	-7.661049e-10	0.0592556	0.059255596	0	51270.656	51270.367	-6.3791325e-05	666305.2	209926.2	-0.00059366174	209930.6	666304.6	-0.0005053849
0	0.6257269	0.6257235	-4.1883208e-10	0.05911423	0.059114233	0	51257.895	51257.61	-3.4607438e-05	666405.25	209608.05	-0.00048441914	209612.45	666404.8	-0.0001059322
0	0.62557	0.62556654	-4.3356485e-10	0.05897258	0.05897258	0	51245.035	51244.75	-3.4349174e-05	666505.94	209287.64	-0.00034207274	209292.02	666505.5	-0.000251589
0	0.62541354	0.62541	-4.4829765e-10	0.05883123	0.05883123	0	51232.227	51231.938	-3.8481405e-05	666606.06	208968.55	-0.0004055217	208972.92	666605.5	-0.00021627825
0	0.6252567	0.6252531	-4.7355386e-10	0.05869	0.05869	0	51219.367	51219.08	-3.7964877e-05	666706.1	208648.61	-0.00034538313	208653	666705.7	-0.00031117586
0	0.6250984	0.6250949	-3.8094777e-10	0.058548246	0.058548246	0	51206.41	51206.13	-3.409091e-05	666806.94	208326.47	-0.00038179732	208330.89	666806.44	-0.00016331214
0	0.6249408	0.6249373	-2.609808e-10	0.058406897	0.058406897	0	51193.5	51193.21	-2.143595e-05	666907.06	208005.64	-0.00023724399	208010.05	666906.56	-0.000110346045
0	0.62478256	0.6247791	-1.2207166e-10	0.058265675	0.058265675	0	51180.535	51180.246	-1.1105372e-05	667007.4	207683.9	-0.00021572651	207688.27	667006.8	5.5173023e-05
0	0.62462336	0.62461984	-4.146227e-10	0.05812428	0.05812428	0	51167.496	51167.21	-3.4607438e-05	667107.94	207360.42	-0.00039283192	207364.77	667107.44	-0.00016993292
0	0.62446487	0.62446135	-7.492674e-10	0.057982665	0.057982665	0	51154.51	51154.23	-6.0563016e-05	667207.8	207038.58	-0.0004965572	207042.92	667207.4	-0.0005362818
0	0.6243048	0.6243014	-3.0938851e-10	0.05784131	0.05784131	0	51141.395	51141.117	-2.5826446e-05	667308.56	206713.78	-0.00027476164	206718.14	667308.1	-0.00016110523
0	0.624145	0.6241415	-3.114932e-10	0.05769995	0.05769995	0	51128.293	51128.02	-2.5955578e-05	667408.9	206389.73	-0.000202485	206394.11	667408.3	-0.00023834746
0	0.6239827	0.6239793	-9.84992e-10	0.057558335	0.057558335	0	51115.016	51114.74	-8.264463e-05	667510.25	206061.22	-0.0011343573	206065.6	667509.8	-0.00027807202
0	0.6238241	0.62382066	-5.7668337e-10	0.05741697	0.057416975	0	51102.027	51101.742	-4.8295453e-05	667609.3	205740.08	-0.0005202816	205744.45	667608.9	-0.000306762
0	0.6236625	0.623659	-3.1991193e-10	0.057275716	0.057275716	0	51088.777	51088.5	-2.6988637e-05	667710.06	205413.1	-0.0002626236	205417.48	667709.56	-0.0001897952
0	0.62350136	0.6234979	-6.082536e-10	0.057134364	0.057134356	0	51075.58	51075.3	-5.1136365e-05	667810.1	205087.38	-0.00052304025	205091.77	667809.7	-0.00033986583
0	0.62333983	0.6233364	-2.7781827e-10	0.056992743	0.056992743	0	51062.348	51062.066	-2.1177686e-05	667910.1	204761.19	-8.2759536e-05	204765.58	667909.7	-0.000306762
0	0.623177	0.6231736	-1.8731686e-10	0.05685139	0.05685139	0	51049.008	51048.73	-1.4075414e-05	668010.8	204432.55	-0.0001368291	204436.95	668010.4	-0.00011917373
0	0.6230141	0.6230107	-3.767384e-10	0.05671003	0.05671003	0	51035.668	51035.387	-3.060434e-05	668111.25	204104.14	-0.00017986406	204108.52	668110.75	-0.00034648657
0	0.6228511	0.6228476	-4.5040233e-10	0.056568418	0.05656841	0	51022.305	51022.027	-3.6802685e-05	668211.56	203775.56	-0.000445798	203779.94	668211.1	-0.00016993292
0	0.6226878	0.62268436	-2.2941053e-10	0.056427028	0.056427028	0	51008.938	51008.66	-1.7561984e-05	668311.56	203446.92	-0.00021682998	203451.33	668311.2	-0.00011255297
0	0.6225236	0.62252027	-2.8834168e-10	0.0562858	0.0562858	0	50995.492	50995.21	-2.1952479e-05	668412	203116.69	-0.00016993292	203121.05	668411.7	-0.00022731285
0	0.6223592	0.6223558	-4.3777423e-10	0.05614443	0.05614443	0	50982.023	50981.742	-3.48657e-05	668512.4	202786.17	-0.00022510593	202790.58	668511.94	-0.0003685558
0	0.6221944	0.622191	-4.840773e-10	0.05600269	0.05600269	0	50968.516	50968.242	-3.9127066e-05	668612.7	202455.06	-0.00031117586	202459.44	668612.3	-0.00036193503
0	0.6220291	0.6220258	3.367494e-11	0.055861466	0.055861462	0	50954.98	50954.71	2.5826446e-06	668713.06	202123.31	6.0690327e-06	202127.69	668712.7	5.5173023e-05
0	0.6218636	0.62186027	-2.3572458e-10	0.0557201	0.0557201	0	50941.42	50941.145	-1.9757232e-05	668813.3	201791.39	-0.00021076095	201795.75	668812.94	-0.00015227754
0	0.6216976	0.62169415	-1.2207166e-10	0.0555785	0.0555785	0	50927.82	50927.54	-9.684917e-06	668913.7	201458.58	-0.00015007063	201462.94	668913.25	-1.7655368e-05
0	0.621531	0.6215277	-3.9357587e-10	0.055437103	0.055437103	0	50914.176	50913.9	-3.3961776e-05	669014	201125.14	-0.00036414195	201129.48	669013.56	-0.0002118644
0	0.62136406	0.62136066	-5.430084e-10	0.055295877	0.055295877	0	50900.496	50900.223	-4.338843e-05	669114.3	200790.95	-0.00033931408	200795.31	669114	-0.0003884181
0	0.6211969	0.6211935	-2.6203312e-10	0.05515451	0.05515451	0	50886.812	50886.535	-2.0919422e-05	669214.5	200456.84	-0.00021848518	200461.2	669214.06	-0.0001478637
0	0.6210278	0.62102437	1.1260058e-09	0.055012774	0.055012774	0	50872.953	50872.676	9.194215e-05	669315.56	200119.03	0.0011553231	200123.38	669315.25	0.0004325565
0	0.6208612	0.6208578	-4.52507e-10	0.05487154	0.05487154	0	50859.3	50859.023	-3.6673555e-05	669415	199786.22	-0.00030014126	199790.61	669414.6	-0.00033545197
0	0.6206923	0.620689	-1.9784027e-10	0.054730177	0.054730177	0	50845.477	50845.2	-1.5625e-05	669515.4	199449.64	-0.0002697961	199454	669515	-8.827684e-06
0	0.62052363	0.62052023	-4.1251802e-10	0.054588553	0.054588553	0	50831.65	50831.37	-3.357438e-05	669615.44	199113.2	-0.00031338277	199117.58	669615.06	-0.00026041668
0	0.6203541	0.6203508	-3.8094777e-10	0.05444718	0.05444718	0	50817.77	50817.492	-3.073347e-05	669715.75	198775.62	-0.00032883123	198779.97	669715.44	-0.00019420905
0	0.6201845	0.6201812	-5.135428e-10	0.054305963	0.054305963	0	50803.87	50803.6	-4.106405e-05	669815.8	198438.12	-0.00032883123	198442.48	669815.44	-0.0003994527
0	0.620014	0.62001055	-3.5358688e-10	0.05416423	0.05416423	0	50789.906	50789.63	-2.7892562e-05	669916.2	198099.03	-0.00036634886	198103.4	669915.8	-0.0001059322
0	0.6198432	0.6198398	-5.6405525e-10	0.05402285	0.054022845	0	50775.91	50775.64	-4.7391528e-05	670016.5	197759.64	-0.00051531603	197764	670016.1	-0.0002957274
0	0.61967224	0.6196689	-1.03129505e-10	0.053881627	0.053881627	0	50761.906	50761.637	-8.135331e-06	670116.56	197420.19	-0.00014510505	197424.53	670116.25	-8.827684e-06
0	0.6195005	0.6194971	-7.113831e-10	0.053740222	0.053740222	0	50747.84	50747.566	-5.7592973e-05	670216.8	197079.45	-0.00056662696	197083.81	670216.56	-0.00039724575
0	0.61932886	0.61932546	-7.38744e-10	0.05359863	0.05359863	0	50733.773	50733.508	-5.9400827e-05	670316.75	196739.22	-0.0005975238	196743.56	670316.5	-0.00041490112
0	0.61915636	0.619153	-5.998349e-10	0.053457264	0.053457264	0	50719.65	50719.375	-4.7778925e-05	670417	196397.58	-0.0005737994	196401.92	670416.7	-0.0002537959
0	0.61898285	0.6189795	-1.7679344e-10	0.053315885	0.053315885	0	50705.438	50705.164	-1.3817149e-05	670517.44	196054.1	-0.00023393362	196058.45	670517.25	6.6207626e-06
0	0.6188099	0.61880654	-4.546117e-10	0.053174306	0.053174306	0	50691.27	50691	-3.6350724e-05	670617.3	195712.12	-0.0005677304	195716.48	670617.1	-5.7379944e-05
0	0.61863625	0.6186329	-5.345897e-10	0.05303294	0.05303294	0	50677.043	50676.773	-4.351756e-05	670717.5	195368.94	-0.00051807467	195373.27	670717.1	-0.00023834746
0	0.61846185	0.61845845	-4.6303045e-11	0.05289167	0.05289167	0	50662.754	50662.484	-4.519628e-06	670817.7	195024.44	-9.269068e-05	195028.77	670817.44	1.9862287e-05
0	0.61828744	0.6182842	-2.5256205e-10	0.052750286	0.052750286	0	50648.47	50648.2	-2.0919422e-05	670917.6	194680.47	-0.00031448624	194684.78	670917.25	-5.9586866e-05
0	0.6181125	0.6181091	-6.0404426e-10	0.05260872	0.05260872	0	50634.137	50633.863	-4.9586775e-05	671017.6	194335.33	-0.00044800495	194339.69	671017.4	-0.0004237288
0	0.6179369	0.61793363	-4.5882106e-10	0.052467346	0.052467346	0	50619.758	50619.48	-3.7448346e-05	671117.75	193989.55	-0.00032607256	193993.9	671117.44	-0.00033103814
0	0.6177609	0.6177576	-3.893665e-10	0.052325953	0.052325953	0	50605.344	50605.074	-3.2670454e-05	671217.75	193643.25	-0.00032221046	193647.58	671217.4	-0.00021848518
0	0.6175846	0.6175813	-7.808377e-10	0.052184395	0.052184395	0	50590.895	50590.625	-6.443699e-05	671317.7	193296.38	-0.0004546257	193300.72	671317.5	-0.0006554555
0	0.61740786	0.6174045	-4.819726e-10	0.052042976	0.052042983	0	50576.41	50576.145	-3.861054e-05	671417.7	192948.9	-0.00030234817	192953.2	671417.4	-0.00036414195
0	0.61723024	0.61722696	-3.9988993e-10	0.051901743	0.051901743	0	50561.875	50561.61	-3.305785e-05	671517.75	192600.33	-0.00035034868	192604.66	671517.5	-0.00022731285
0	0.61705303	0.6170497	-3.367494e-10	0.051760364	0.051760364	0	50547.344	50547.082	-2.827996e-05	671617.44	192252.33	-0.0003724179	192256.66	671617.25	-9.48976e-05
0	0.6168745	0.61687124	-5.5353183e-10	0.05161865	0.05161865	0	50532.73	50532.457	-4.4679753e-05	671717.44	191902.48	-0.00046786724	191906.8	671717.25	-0.00031117586
0	0.61669534	0.61669207	-3.0307445e-10	0.051477425	0.051477425	0	50518.047	50517.777	-2.6342976e-05	671817.7	191551.39	-0.00026041668	191555.69	671817.5	-0.00016110523
0	0.61651665	0.61651343	-6.8612693e-10	0.051336035	0.051336035	0	50503.426	50503.156	-5.733471e-05	671917.3	191201.8	-0.00042759092	191206.1	671917	-0.0005384887
0	0.61633706	0.61633384	-3.1991193e-10	0.051194444	0.051194444	0	50488.7	50488.438	-2.892562e-05	672017.2	190850.34	-0.0002587615	190854.66	672017	-0.00020303672
0	0.6161571	0.61615384	-7.555815e-10	0.051053066	0.051053062	0	50473.957	50473.69	-6.3145664e-05	672117.06	190498.61	-0.0005202816	190502.9	672116.8	-0.000584834
0	0.61597675	0.61597335	-2.2309649e-10	0.05091182	0.05091182	0	50459.18	50458.906	-1.9369834e-05	672216.9	190146.14	-0.00022345074	190150.44	672216.7	-9.710452e-05
0	0.61579585	0.6157926	-2.9044636e-10	0.05077012	0.05077012	0	50444.367	50444.105	-2.2469008e-05	672316.5	189793.34	-0.00023117497	189797.64	672316.3	-0.00015669139
0	0.6156146	0.6156114	-5.7457866e-10	0.050628737	0.050628737	0	50429.52	50429.25	-4.5325414e-05	672416.25	189439.86	-0.0004466256	189444.16	672416.1	-0.00034427966
0	0.61543286	0.61542964	-4.3566956e-10	0.0504875	0.0504875	0	50414.63	50414.367	-3.6673555e-05	672516	189085.77	-0.00026372704	189090.08	672515.7	-0.00035310735
0	0.6152503	0.6152471	-3.367494e-10	0.050346084	0.05034608	0	50399.684	50399.418	-2.72469e-05	672615.75	188730.44	-0.00019669182	188734.72	672615.5	-0.0002648305
0	0.61506754	0.6150644	-4.419836e-10	0.050204534	0.050204538	0	50384.71	50384.44	-3.3703513e-05	672715.44	188374.89	-0.00023338188	188379.17	672715.2	-0.00035531426
0	0.61488247	0.6148792	-5.219616e-10	0.050063137	0.050063137	0	50369.543	50369.28	-4.2613636e-05	672816.06	188015.06	-0.0004656603	188019.33	672815.94	-0.00023834746
0	0.61470014	0.6146969	-4.819726e-10	0.049921747	0.049921747	0	50354.613	50354.348	-3.8997932e-05	672914.94	187661	-0.00045241878	187665.28	672914.75	-0.00022951978
0	0.61451656	0.61451334	-2.46248e-10	0.049780212	0.049780212	0	50339.57	50339.31	-1.9886364e-05	673014.25	187304.66	-0.00015062235	187308.94	673013.94	-0.00021407133
0	0.6143315	0.6143282	-3.367494e-10	0.04963881	0.04963881	0	50324.406	50324.15	-2.7117769e-05	673113.94	186945.73	-0.0002008298	186950	673113.8	-0.00027145128
0	0.61414677	0.61414355	-3.493775e-10	0.04949754	0.04949754	0	50309.277	50309.016	-2.7376032e-05	673213.3	186587.88	-0.00037296963	186592.14	673213.2	-0.00011696681
0	0.6139613	0.61395806	-1.1365293e-10	0.04935615	0.04935615	0	50294.086	50293.824	-8.264463e-06	673312.8	186228.7	-0.00014896716	186232.98	673312.6	6.6207626e-06
0	0.6137749	0.61377174	-3.641103e-10	0.04921461	0.04921461	0	50278.82	50278.555	-2.9442148e-05	673412.44	185868.22	-0.00027227888	185872.48	673412.2	-0.00021627825
0	0.61358875	0.61358553	-5.872068e-10	0.04907322	0.049073208	0	50263.57	50263.305	-4.9070248e-05	673511.56	185508.3	-0.0005158678	185512.56	673511.44	-0.00032221046
0	0.61340153	0.6133983	-3.2833067e-10	0.048931822	0.048931822	0	50248.234	50247.97	-2.608471e-05	673611.1	185146.69	-0.00027807202	185150.97	673610.94	-0.00018317443
0	0.6132142	0.61321104	-2.5887611e-10	0.0487903	0.0487903	0	50232.89	50232.62	-2.0790289e-05	673710.44	184785.17	-0.00020524365	184789.45	673710.2	-0.00017213983
0	0.6130258	0.6130226	-3.3464473e-10	0.048648853	0.048648853	0	50217.45	50217.188	-2.7634298e-05	673810	184421.77	-0.00023614053	184426.03	673809.9	-0.00022951978
0	0.61283547	0.61283237	-1.2417635e-09	0.048507623	0.048507623	0	50201.86	50201.6	-0.00010408058	673910.3	184055.06	-0.0009561485	184059.31	673910.06	-0.0008143538
0	0.61264867	0.6126455	-1.1786229e-10	0.04836622	0.04836622	0	50186.562	50186.3	-1.1880165e-05	674008.44	183695.47	-5.29661e-05	183699.75	674008.25	-0.00013903601
0	0.6124591	0.612456	-1.9152623e-10	0.04822453	0.04822453	0	50171.03	50170.773	-1.5108471e-05	674107.75	183330.75	-0.00026317532	183335.02	674107.7	1.3241525e-05
0	0.6122688	0.61226565	-1.1638901e-09	0.048083298	0.048083294	0	50155.445	50155.18	-9.2975206e-05	674207.1	182964.97	-0.0009484243	182969.22	674206.94	-0.0006753178
0	0.61207885	0.61207557	-2.0625901e-10	0.04794189	0.04794189	0	50139.875	50139.613	-1.7561984e-05	674306.1	182599.94	-0.0001588983	182604.2	674305.94	-0.00014124294
0	0.6118881	0.6118851	-4.5040233e-10	0.04780034	0.04780034	0	50124.26	50124.008	-3.52531e-05	674405.1	182234.16	-0.00029158941	182238.4	674404.94	-0.000306762
0	0.61169654	0.61169344	-1.7889812e-10	0.047658943	0.04765894	0	50108.56	50108.305	-1.446281e-05	674504.3	181866.55	7.4483582e-06	181870.81	674504.2	-0.00023834746
0	0.6115049	0.61150175	-5.3669436e-10	0.047517695	0.0475177	0	50092.867	50092.61	-4.3775828e-05	674603.2	181499.4	-0.00035200387	181503.66	674603	-0.0003884181
0	0.61131257	0.61130935	-2.7781827e-10	0.04737629	0.04737629	0	50077.105	50076.85	-2.2727272e-05	674702.25	181131.06	-0.0003131069	181135.33	674702.1	-7.944915e-05
0	0.6111196	0.61111647	-7.5768614e-11	0.047234613	0.047234613	0	50061.305	50061.05	-5.681818e-06	674801.25	180761.97	-9.655279e-05	180766.2	674801.1	4.413842e-06
0	0.61092645	0.61092335	-4.0830866e-10	0.04709337	0.04709337	0	50045.48	50045.223	-3.3703513e-05	674900.06	180392.77	-0.00030179642	180397	674899.9	-0.00028248588
0	0.61073226	0.6107291	-2.6308547e-10	0.04695193	0.04695193	0	50029.566	50029.31	-2.143595e-05	674999.2	180021.67	-0.00028910663	180025.92	674999.06	-8.6069915e-05
0	0.6105381	0.61053497	-2.5466673e-10	0.046810426	0.046810426	0	50013.668	50013.41	-2.1694215e-05	675097.8	179651.23	-0.00015227754	179655.45	675097.75	-0.00020745056
0	0.6103412	0.6103382	-1.5448379e-09	0.04666901	0.04666901	0	49997.535	49997.285	-0.00012706612	675197.7	179275.83	-0.00084856106	179280.08	675197.56	-0.0013594633
0	0.6101477	0.6101445	-2.3151522e-11	0.04652778	0.04652778	0	49981.68	49981.426	-1.0330579e-06	675295.44	178906.94	-0.00010372528	178911.17	675295.44	7.5035314e-05
0	0.6099524	0.6099493	-4.6092574e-10	0.046386104	0.046386104	0	49965.688	49965.434	-3.7190082e-05	675393.9	178535.17	-0.00041379768	178539.4	675393.9	-0.00023393362
0	0.60975605	0.60975295	-2.6519015e-10	0.046244696	0.046244696	0	49949.6	49949.344	-2.0402893e-05	675492.56	178161.6	-0.0002885549	178165.83	675492.44	-5.5173023e-05
0	0.6095594	0.6095564	-3.1991193e-10	0.046103455	0.046103455	0	49933.492	49933.24	-2.6730371e-05	675591.06	177787.84	-0.0003685558	177792.08	675590.94	-9.931144e-05
0	0.60936147	0.6093583	-1.957356e-10	0.045961995	0.045961995	0	49917.277	49917.03	-1.5495867e-05	675689.94	177411.94	-0.00031034826	177416.16	675689.8	2.2069209e-05
0	0.60916346	0.60916036	-6.1877703e-10	0.045820504	0.045820504	0	49901.06	49900.805	-4.9974173e-05	675788.5	177036.05	-0.00047062588	177040.23	675788.5	-0.0003884181
0	0.60896546	0.60896236	-3.6200562e-10	0.045679096	0.045679096	0	49884.836	49884.586	-2.9313016e-05	675886.9	176660.61	-0.00032386565	176664.78	675886.7	-0.00019641596
0	0.60876656	0.6087635	-2.1467775e-10	0.045537677	0.045537677	0	49868.543	49868.293	-1.9369834e-05	675985.2	176283.73	-0.00022814044	176287.92	675985.1	-9.48976e-05
0	0.60856754	0.6085645	-5.303803e-10	0.04539619	0.04539619	0	49852.242	49851.992	-4.28719e-05	676083.44	175906.97	-0.00038152144	175911.16	676083.4	-0.00035310735
0	0.60836744	0.60836434	-3.0728384e-10	0.045254778	0.045254778	0	49835.855	49835.6	-2.4664256e-05	676181.75	175528.44	-0.0002135196	175532.64	676181.75	-0.00023834746
0	0.6081669	0.60816395	-3.493775e-10	0.045113485	0.045113485	0	49819.43	49819.18	-2.8667355e-05	676280.1	175149.42	-0.0003360037	175153.61	676280.06	-0.00017434676