# t (s)	mx ()	my ()	mz ()	B_extx (T)	B_exty (T)	B_extz (T)	m_fullx (A/m)	m_fully (A/m)	m_fullz (A/m)	m_full.region1x (A/m)	m_full.region1y (A/m)	m_full.region1z (A/m)	m_full.region2x (A/m)	m_full.region2y (A/m)	m_full.region2z (A/m)
0	0.64825433	0.6482534	-5.5854366e-11	0.070710704	0.070710704	0	146343.42	146343.19	-1.584457e-05	631789.4	275766.2	7.501911e-05	275766.8	631788.5	-0.00015302474
0	0.6480277	0.6480276	-2.8611521e-10	0.07035722	0.07035722	0	146292.25	146292.23	-6.554626e-05	631974.9	275264.06	-0.00017320685	275263.84	631974.7	-0.00023847091
0	0.6477965	0.64779663	-2.1969711e-10	0.07000352	0.07000352	0	146240.06	146240.1	-5.0309573e-05	632166.5	274749.03	-0.000109330926	274748.78	632166.3	-0.00021961115
0	0.64756244	0.64756256	-1.2777905e-10	0.06965005	0.06965005	0	146187.23	146187.25	-2.7767468e-05	632359.06	274228.62	-9.597639e-05	274228.38	632358.94	-7.794326e-05
0	0.6473316	0.64733166	-5.364002e-10	0.06929643	0.06929643	0	146135.12	146135.14	-0.00012596085	632549	273715.5	-0.0004130764	273715.22	632548.94	-0.0004102071
0	0.6470962	0.6470963	-1.7059547e-10	0.068942994	0.068942994	0	146081.97	146081.98	-4.046376e-05	632741.1	273193.78	-0.00014655686	273193.53	632741	-9.9761775e-05
0	0.6468581	0.6468583	-1.9343456e-10	0.06858929	0.06858929	0	146028.22	146028.23	-4.688895e-05	632934.94	272666.62	-0.00013560764	272666.3	632934.9	-0.00015436167
0	0.6466238	0.6466239	-3.2525338e-10	0.06823583	0.06823583	0	145975.33	145975.33	-7.0678354e-05	633125.6	272147.9	-0.00025040904	272147.66	633125.5	-0.00021394373
0	0.6463847	0.6463847	-2.8662764e-10	0.067882195	0.067882195	0	145921.33	145921.36	-6.0489783e-05	633318.6	271620.16	-0.00024782238	271619.9	633318.44	-0.0001415937
0	0.646144	0.64614415	-3.524188e-10	0.06752872	0.06752872	0	145867.02	145867.02	-7.984567e-05	633511.3	271090.56	-0.00017148971	271090.3	633511.1	-0.0003329011
0	0.6459029	0.645903	-3.1652825e-10	0.06717502	0.06717502	0	145812.6	145812.61	-7.025117e-05	633704.7	270559.8	-0.00016876736	270559.56	633704.44	-0.00026515368
0	0.64566255	0.6456626	-2.0147306e-10	0.066821605	0.066821605	0	145758.31	145758.34	-4.5864377e-05	633898	270029.78	-0.00020644363	270029.53	633897.9	-8.788689e-05
0	0.64541763	0.64541775	-2.5187996e-10	0.066468135	0.066468135	0	145703.05	145703.06	-5.492945e-05	634092.56	269492.4	-9.729479e-05	269492.16	634092.4	-0.00023815555
0	0.64517415	0.6451742	-1.5130909e-10	0.06611443	0.06611443	0	145648.08	145648.08	-3.6056204e-05	634285.44	268958.62	-0.00019244057	268958.3	634285.4	-4.0896688e-05
0	0.64492834	0.6449284	-1.3641656e-10	0.065760985	0.065760985	0	145592.56	145592.6	-3.0572763e-05	634479	268420.88	2.0795622e-05	268420.62	634478.8	-0.00020009137
0	0.64468116	0.64468116	-1.4607836e-10	0.06540732	0.06540732	0	145536.77	145536.78	-3.569895e-05	634674.4	267879.47	-0.00010955786	267879.2	634674.2	-0.0001083454
0	0.6444309	0.64443105	-1.7531925e-10	0.0650539	0.0650539	0	145480.27	145480.3	-3.536646e-05	634868.9	267334.56	-8.15447e-05	267334.3	634868.75	-0.00014737094
0	0.64418304	0.6441831	-8.3231866e-11	0.064700216	0.064700216	0	145424.31	145424.31	-2.1246613e-05	635063.7	266792.8	-6.5641994e-05	266792.56	635063.56	-5.2238298e-05
0	0.6439311	0.6439313	-1.4264336e-10	0.06434676	0.06434676	0	145367.47	145367.47	-2.8483904e-05	635258.8	266245.06	-1.81583e-05	266244.8	635258.6	-0.00016551753
0	0.64367867	0.6436787	-2.1207319e-10	0.0639931	0.0639931	0	145310.47	145310.48	-4.7766378e-05	635455	265695.34	-0.00015343698	265695.12	635454.9	-0.00015748103
0	0.6434248	0.6434248	-3.2567274e-10	0.06363964	0.06363964	0	145253.16	145253.14	-7.3991054e-05	635650.56	265144.25	-0.0001664162	265144	635650.5	-0.0002910955
0	0.64316905	0.6431691	-2.4409988e-10	0.06328595	0.06328595	0	145195.4	145195.4	-5.6058463e-05	635846.25	264590.75	-0.00023820878	264590.5	635846.06	-0.000106640065
0	0.6429105	0.6429106	-3.507141e-10	0.0629325	0.0629325	0	145137.05	145137.08	-7.735652e-05	636042.94	264032	-0.00026425452	264031.72	636042.8	-0.00023989561
0	0.64265394	0.64265406	-2.8910285e-10	0.06257904	0.06257904	0	145079.14	145079.17	-6.566692e-05	636239.7	263476.25	-0.00019363144	263476	636239.5	-0.00020218607
0	0.64239496	0.6423951	-2.0848571e-10	0.062225346	0.062225346	0	145020.67	145020.69	-4.2365344e-05	636435.94	262917.38	-9.789033e-05	262917.12	636435.75	-0.00016633431
0	0.64213413	0.64213425	-1.4651799e-10	0.06187191	0.06187191	0	144961.8	144961.81	-3.5965044e-05	636633.3	262354.78	-4.962565e-05	262354.47	636633.1	-0.00016358546
0	0.6418716	0.6418715	-3.353959e-10	0.061518222	0.061518222	0	144902.52	144902.52	-7.3583185e-05	636830.7	261789.72	-0.0002615426	261789.5	636830.56	-0.00021815891
0	0.6416063	0.6416064	-3.4350645e-10	0.061164826	0.061164826	0	144842.62	144842.62	-7.73813e-05	637027.8	261221.19	-0.00020971416	261220.97	637027.6	-0.000285512
0	0.6413433	0.6413433	-5.7547606e-10	0.060811136	0.060811136	0	144783.25	144783.25	-0.00012988775	637225.5	260655.25	-0.0004143932	260654.98	637225.4	-0.00040600327
0	0.6410764	0.64107645	-3.7132422e-10	0.060457677	0.060457677	0	144722.98	144723.02	-8.4885396e-05	637423	260084.19	-0.00032192757	260083.97	637422.8	-0.00022738166
0	0.6408087	0.6408088	-3.2387187e-10	0.06010401	0.06010401	0	144662.58	144662.58	-7.0830996e-05	637621.8	259510.6	-0.00027897244	259510.38	637621.75	-0.00017437908
0	0.64053905	0.6405391	1.4287522e-11	0.05975055	0.05975055	0	144601.69	144601.7	3.200803e-06	637820.56	258934.42	2.538846e-05	258934.17	637820.3	-8.4759595e-06
0	0.6402667	0.6402667	-2.1301842e-10	0.059396874	0.059396874	0	144540.2	144540.2	-4.5178323e-05	638020	258353.6	-0.00017864721	258353.34	638019.9	-8.892723e-05
0	0.6399955	0.6399956	-3.825502e-10	0.059043404	0.059043404	0	144479.02	144478.98	-8.577282e-05	638218.25	257775.8	-0.00019779542	257775.53	638218	-0.0003560721
0	0.6397219	0.639722	-3.5751277e-10	0.05868994	0.05868994	0	144417.22	144417.23	-7.793453e-05	638417.4	257193.53	-0.00014846264	257193.28	638417.2	-0.0003687777
0	0.63944596	0.63944596	-1.1785581e-10	0.05833627	0.05833627	0	144354.9	144354.92	-2.6111516e-05	638617.1	256607.48	-0.00012844092	256607.2	638616.9	-4.0820967e-05
0	0.63916826	0.6391682	-1.6203137e-10	0.057982814	0.057982814	0	144292.22	144292.22	-3.7798436e-05	638817.25	256018.4	-0.00011442447	256018.16	638817.06	-0.00012685654
0	0.6388915	0.6388916	-1.3015292e-10	0.057629142	0.057629142	0	144229.75	144229.77	-2.9839955e-05	639016.1	255432.2	-4.81971e-05	255431.94	639015.9	-0.00014204814
0	0.6386115	0.6386115	-2.8392477e-10	0.057275668	0.057275668	0	144166.53	144166.55	-5.768118e-05	639216.06	254840.28	-0.00012595982	254840.02	639215.8	-0.00024530734
0	0.63832974	0.63832974	-9.281594e-11	0.056922063	0.056922063	0	144102.92	144102.92	-2.066135e-05	639417.06	254244.77	-7.302611e-05	254244.56	639416.8	-5.3269203e-05
0	0.63804704	0.63804704	-1.8998011e-10	0.0565686	0.0565686	0	144039.11	144039.12	-4.2974803e-05	639617.4	253648.62	-0.000104819366	253648.39	639617.25	-0.00014798422
0	0.6377625	0.6377625	-3.5723424e-11	0.056214936	0.056214936	0	143974.88	143974.86	-8.764286e-06	639818.25	253049.53	-7.615612e-05	253049.3	639817.94	2.6322105e-05
0	0.63747615	0.6374762	-1.4576418e-10	0.05586146	0.05586146	0	143910.25	143910.23	-3.2999025e-05	640019.6	252447.36	-0.00011820899	252447.11	640019.3	-6.4022155e-05
0	0.6371888	0.63718885	-1.7653971e-10	0.055507805	0.055507805	0	143845.38	143845.38	-3.7445843e-05	640220.25	251844.27	-5.07032e-05	251844.02	640220.06	-0.00017754326
0	0.6368996	0.63689965	-4.0541827e-11	0.055154327	0.055154327	0	143780.1	143780.1	-8.421052e-06	640421.9	251237.8	5.321794e-07	251237.58	640421.6	-3.635611e-05
0	0.63660854	0.63660854	-2.3677182e-10	0.054800846	0.054800846	0	143714.39	143714.38	-5.255782e-05	640623.75	250628.39	-0.00020940971	250628.17	640623.5	-0.000118948
0	0.63631594	0.63631594	-2.3316243e-10	0.05444718	0.05444718	0	143648.31	143648.31	-5.1030245e-05	640824.94	250017.6	-0.00018510717	250017.36	640824.7	-0.00015039257
0	0.63602227	0.63602227	-2.6411615e-10	0.054093722	0.054093722	0	143582.02	143582.03	-6.210232e-05	641027.6	249403.78	-0.0001412134	249403.53	641027.5	-0.00024177841
0	0.6357267	0.63572663	-6.9793275e-11	0.053740054	0.053740054	0	143515.3	143515.28	-1.7164793e-05	641230	248787.47	-2.0438363e-05	248787.28	641229.8	-5.8100322e-05
0	0.6354275	0.6354275	-1.9158239e-10	0.053386588	0.053386588	0	143447.75	143447.75	-4.637385e-05	641433.7	248164.98	-0.00018132186	248164.77	641433.5	-8.143882e-05
0	0.6351306	0.6351306	-1.8083518e-10	0.053032987	0.053032987	0	143380.73	143380.72	-4.016984e-05	641634.94	247548	-0.00014356582	247547.78	641634.75	-9.516149e-05
0	0.63483	0.63483006	-1.9006895e-10	0.05267951	0.05267951	0	143312.88	143312.88	-4.0674007e-05	641838.06	246924.12	-0.00012230342	246923.9	641837.8	-0.00015711154
0	0.63452744	0.63452744	-1.01637906e-10	0.05232584	0.05232584	0	143244.58	143244.58	-2.0297059e-05	642041.7	246297	-1.2730212e-05	246296.75	642041.5	-0.00012265681
0	0.6342237	0.63422364	-6.353504e-11	0.05197238	0.05197238	0	143176	143176	-1.6572338e-05	642244.25	245669.08	-4.7278198e-05	245668.86	642244.1	-4.738814e-05
0	0.6339164	0.6339163	-1.6516216e-10	0.051618718	0.051618718	0	143106.62	143106.61	-3.9302096e-05	642448.56	245034.6	-0.00018837072	245034.39	642448.25	-4.9462844e-05
0	0.6336092	0.63360906	8.088382e-11	0.05126525	0.05126525	0	143037.25	143037.27	1.9936555e-05	642653.25	244399.73	7.482746e-05	244399.5	642653	6.3848136e-05
0	0.6333018	0.63330185	-7.283271e-11	0.05091175	0.05091175	0	142967.89	142967.89	-1.6804963e-05	642856.2	243766.67	-4.373701e-05	243766.47	642855.9	-5.498434e-05
0	0.63299114	0.63299114	-1.1422435e-10	0.0505581	0.0505581	0	142897.77	142897.75	-2.771921e-05	643060.3	243127.52	-5.709041e-05	243127.34	643060.06	-0.00010598803
0	0.632679	0.632679	-2.0519408e-10	0.050204627	0.050204627	0	142827.3	142827.3	-4.388499e-05	643264.4	242486.55	-0.000121128214	242486.33	643264.06	-0.00016148323
0	0.6323633	0.6323633	-1.13395106e-10	0.049850974	0.049850974	0	142756	142756	-2.253893e-05	643470.06	241838.77	-9.921059e-05	241838.53	643469.8	-4.687656e-05
0	0.63204885	0.6320488	1.0001635e-10	0.049497493	0.049497493	0	142685.02	142685.02	2.2930073e-05	643673.7	241194.77	3.4430388e-05	241194.6	643673.5	0.00010592762
0	0.631731	0.631731	-2.8686475e-10	0.049143914	0.049143914	0	142613.27	142613.27	-6.412877e-05	643878.9	240544.77	-9.505164e-05	240544.55	643878.56	-0.00032181028
0	0.6314111	0.6314111	-1.237184e-10	0.04879043	0.04879043	0	142541.05	142541.05	-3.0520634e-05	644084.3	239891.4	-7.039304e-05	239891.16	644084.06	-0.000110556546
0	0.6310901	0.6310901	-1.482147e-10	0.04843677	0.04843677	0	142468.6	142468.58	-3.5875295e-05	644289.2	239237.23	-5.4613265e-05	239237.03	644288.9	-0.00015352313
0	0.63076663	0.6307666	-2.723577e-10	0.04808329	0.04808329	0	142395.56	142395.56	-5.6787565e-05	644495.1	238578.45	-0.00019150536	238578.23	644494.8	-0.0001887173
0	0.63044184	0.6304417	-2.0430514e-10	0.04772965	0.04772965	0	142322.22	142322.22	-4.3438566e-05	644700.4	237918.27	-0.00016369269	237918.06	644700.06	-0.00011321191
0	0.6301152	0.6301152	-2.8100713e-10	0.047376156	0.047376156	0	142248.52	142248.52	-6.607695e-05	644906.4	237255.25	-0.00020321444	237255.05	644906	-0.0001853669
0	0.6297868	0.62978655	-6.328602e-11	0.04702266	0.04702266	0	142174.34	142174.34	-1.3225656e-05	645112.6	236589	-7.459889e-05	236588.8	645112.3	-7.865919e-06
0	0.6294563	0.6294563	-1.2748548e-10	0.046669014	0.046669014	0	142099.75	142099.75	-2.908691e-05	645318.1	235920.84	-0.00011740304	235920.67	645317.9	-6.26908e-05
0	0.62912136	0.62912136	-4.6150062e-10	0.046315536	0.046315536	0	142024.14	142024.12	-0.000107009764	645525.4	235244.75	-0.0003374687	235244.53	645525.1	-0.00032587524
0	0.62878704	0.62878704	-1.4541637e-10	0.045961887	0.045961887	0	141948.69	141948.67	-3.210306e-05	645732.1	234570.05	-0.000108834014	234569.83	645731.8	-8.202202e-05
0	0.62845206	0.62845206	-1.0155262e-10	0.045608394	0.045608394	0	141873.08	141873.05	-2.1917032e-05	645939.56	233893.62	-9.449609e-05	233893.4	645939.2	-1.6928389e-05
0	0.6281154	0.62811536	-2.754543e-10	0.04525483	0.04525483	0	141797.06	141797.06	-5.8477264e-05	646145.4	233216.42	-0.00014023608	233216.22	646145.06	-0.00025657588
0	0.6277757	0.6277756	-2.896418e-10	0.044901334	0.044901334	0	141720.39	141720.34	-6.7886736e-05	646351.6	232534.55	-0.00026140452	232534.38	646351.25	-0.00017190663
0	0.6274333	0.62743324	-1.0959797e-10	0.044547696	0.044547696	0	141643.06	141643.06	-2.7302513e-05	646560.06	231846.77	-8.97058e-05	231846.6	646559.75	-7.443279e-05
0	0.6270907	0.6270906	-3.4136918e-10	0.04419421	0.04419421	0	141565.72	141565.7	-7.9578924e-05	646766.25	231160.78	-0.00024000613	231160.61	646766	-0.00025357108
0	0.62674457	0.6267445	-1.3170917e-10	0.04384058	0.04384058	0	141487.56	141487.55	-3.1127307e-05	646973.94	230468.6	-0.00013633355	230468.42	646973.7	-5.9158858e-05
0	0.6263954	0.6263954	-1.3010698e-10	0.043487065	0.043487065	0	141408.77	141408.75	-2.5692712e-05	647183.06	229770.73	-3.479657e-05	229770.56	647182.9	-0.00014512608
0	0.6260452	0.62604505	-2.204456e-10	0.04313356	0.04313356	0	141329.72	141329.69	-4.5676687e-05	647391.3	229072.16	-0.0001921425	229071.97	647391	-9.745064e-05
0	0.6256947	0.6256946	-3.8429897e-12	0.042779934	0.042779934	0	141250.58	141250.56	-9.2641636e-07	647598.56	228374.16	-1.2538114e-05	228374	647598.25	1.4071317e-06
0	0.6253405	0.6253405	-1.6937407e-10	0.04242642	0.04242642	0	141170.64	141170.61	-3.9380695e-05	647807.06	227669.92	-0.00017898505	227669.73	647806.7	-6.557075e-05
0	0.6249851	0.624985	4.5448086e-11	0.04207281	0.04207281	0	141090.38	141090.38	6.7696665e-06	648015.06	226964.23	9.449565e-06	226964.06	648014.8	3.60212e-05
0	0.62462735	0.62462723	-2.1100648e-10	0.041719295	0.041719295	0	141009.64	141009.61	-4.991678e-05	648222.44	226256.08	-0.00014752848	226255.9	648222.2	-0.00014783355
0	0.624267	0.6242669	-9.328314e-11	0.041365758	0.041365758	0	140928.27	140928.23	-1.7755625e-05	648431.2	225542.75	2.7672831e-05	225542.58	648430.94	-0.00014612942
0	0.6239063	0.62390625	-1.8245919e-10	0.041012242	0.041012242	0	140846.84	140846.83	-3.8444043e-05	648640.1	224828.95	-9.0579466e-05	224828.78	648639.8	-0.00013997167
0	0.62354213	0.62354195	-1.1578928e-10	0.040658627	0.040658627	0	140764.61	140764.58	-2.8405064e-05	648848.94	224110.1	-0.00016355567	224109.92	648848.6	-2.593286e-05
0	0.62317616	0.623176	-4.2752992e-11	0.040305126	0.040305126	0	140682.02	140681.98	-9.487856e-06	649057.44	223389.22	-3.5375888e-05	223389.08	649057.2	-1.2925533e-05
0	0.62280744	0.62280726	-4.3582835e-11	0.03995151	0.03995151	0	140598.77	140598.72	-1.0016273e-05	649267.06	222663.39	-2.5251555e-05	222663.25	649266.6	-1.5660982e-05
0	0.6224349	0.6224348	-2.1617878e-10	0.039597988	0.039597988	0	140514.69	140514.66	-4.583733e-05	649476.75	221932.38	-0.00012868847	221932.2	649476.4	-0.00017329739
0	0.622065	0.6220649	-2.852695e-10	0.03924446	0.03924446	0	140431.19	140431.16	-6.666663e-05	649685.56	221205.69	-0.00026339688	221205.56	649685.1	-0.00016465783
0	0.6216891	0.62168884	-1.6322382e-10	0.03889085	0.03889085	0	140346.28	140346.25	-3.968139e-05	649896.7	220468.12	-0.00012164139	220467.97	649896.3	-9.949104e-05
0	0.6213125	0.6213123	-2.6714764e-10	0.03853732	0.03853732	0	140261.28	140261.27	-6.155565e-05	650104.9	219732.73	-0.00017816169	219732.6	650104.44	-0.00018677558
0	0.6209327	0.6209326	-1.6286968e-10	0.03818373	0.03818373	0	140175.55	140175.5	-3.5254325e-05	650316.25	218989.69	-8.7465545e-05	218989.55	650315.8	-0.00012564982
0	0.6205514	0.6205513	-4.9627774e-11	0.0378302	0.0378302	0	140089.48	140089.42	-1.2113607e-05	650526.2	218245.98	2.3155671e-05	218245.86	650525.75	-9.7263044e-05
0	0.6201696	0.6201694	-2.7012587e-10	0.03747659	0.03747659	0	140003.27	140003.23	-5.9084654e-05	650734.56	217502.95	-0.00023083428	217502.81	650734.06	-0.00016171152
0	0.6197824	0.61978227	-8.5730784e-11	0.037123155	0.037123155	0	139915.88	139915.84	-2.1544769e-05	650946.25	216749.34	-9.4338146e-05	216749.22	650945.75	-4.1394727e-05
0	0.61939526	0.61939496	-3.626105e-10	0.036769558	0.036769558	0	139828.48	139828.42	-8.1273545e-05	651155	215998.47	-0.00030909758	215998.34	651154.6	-0.0002171138
0	0.6190043	0.6190041	-1.688926e-10	0.036416043	0.036416043	0	139740.2	139740.16	-3.7716145e-05	651365.2	215240.88	-0.00017363288	215240.73	651364.8	-4.3432297e-05
0	0.61861336	0.6186133	-8.821124e-11	0.036062438	0.036062438	0	139651.98	139651.94	-2.1108855e-05	651575.2	214483.75	-7.683251e-05	214483.6	651574.75	-4.4039938e-05
0	0.6182162	0.61821604	-7.955251e-11	0.035708897	0.035708897	0	139562.3	139562.25	-1.8576367e-05	651787.94	213714.75	-2.980245e-05	213714.66	651787.56	-7.299755e-05
0	0.6178191	0.61781883	-2.6245453e-10	0.035355352	0.035355352	0	139472.64	139472.6	-5.944075e-05	651998.7	212948.05	-0.00025130901	212947.94	651998.3	-0.00012939134
0	0.61742127	0.61742103	-2.4206828e-10	0.03500176	0.03500176	0	139382.86	139382.81	-5.493554e-05	652207.44	212182.45	-0.00020686504	212182.34	652207.06	-0.00014137212
0	0.61701775	0.61701757	-3.0332276e-10	0.034648214	0.034648214	0	139291.77	139291.72	-6.489547e-05	652418.75	211406.22	-0.0002744364	211406.1	652418.4	-0.00014757407
0	0.6166124	0.6166122	-6.066006e-11	0.034294646	0.034294646	0	139200.25	139200.2	-1.3910692e-05	652630.25	210627.25	-7.716757e-05	210627.17	652629.8	-1.40264165e-05
0	0.6162067	0.61620647	-2.1348275e-10	0.033941098	0.033941098	0	139108.67	139108.61	-4.84621e-05	652842.06	209847.42	-0.00021875491	209847.3	652841.7	-8.208992e-05
0	0.6157992	0.61579895	-1.9858147e-10	0.03358751	0.03358751	0	139016.64	139016.6	-4.585966e-05	653051.5	209067.36	-0.0001303834	209067.28	653051.06	-0.00014417063
0	0.6153857	0.6153855	-4.8440016e-11	0.033234067	0.033234067	0	138923.31	138923.27	-1.2071228e-05	653264.6	208275.3	-2.9737952e-05	208275.22	653264.25	-2.3577415e-05
0	0.6149737	0.6149734	-1.0034551e-10	0.032880493	0.032880493	0	138830.3	138830.23	-1.7560365e-05	653473.8	207489.45	-6.974013e-05	207489.38	653473.3	-4.7653128e-05
0	0.6145552	0.61455494	-3.6645198e-10	0.03252695	0.03252695	0	138735.84	138735.78	-7.780995e-05	653687.4	206690.02	-0.0002263528	206689.89	653686.9	-0.00025310492
0	0.6141364	0.61413616	-3.5005437e-10	0.03217338	0.03217338	0	138641.3	138641.23	-7.763949e-05	653898.6	205892.42	-0.00025887514	205892.34	653898.2	-0.00023162777
0	0.61371636	0.61371607	3.9752975e-11	0.03181982	0.03181982	0	138546.47	138546.4	9.755724e-06	654108.5	205094.53	2.591514e-06	205094.44	654108	6.551661e-05
0	0.613292	0.6132917	-1.3916177e-10	0.03146625	0.03146625	0	138450.66	138450.61	-2.8407341e-05	654320.1	204288.77	-9.86688e-05	204288.69	654319.56	-9.517308e-05
0	0.6128637	0.61286336	-1.6875408e-10	0.031112673	0.031112673	0	138353.97	138353.9	-3.7085527e-05	654532	203477.19	-0.00014820065	203477.14	654531.6	-9.830862e-05
0	0.61243653	0.61243623	-2.1472737e-10	0.030759111	0.030759111	0	138257.53	138257.47	-4.9444665e-05	654743.25	202667.86	-0.000110499976	202667.81	654742.8	-0.00018861602
0	0.6120042	0.6120039	-4.5125192e-10	0.030405568	0.030405568	0	138159.94	138159.88	-0.00010573997	654955.1	201850.9	-0.00028859792	201850.84	654954.44	-0.0003914371
0	0.61157084	0.6115706	-2.5905642e-10	0.030052004	0.030052004	0	138062.12	138062.06	-5.8681413e-05	655167	201032.39	-0.00021746186	201032.33	655166.5	-0.00016126309
0	0.6111336	0.6111332	-9.300733e-11	0.029698437	0.029698437	0	137963.4	137963.33	-1.877051e-05	655378.94	200208.12	-5.699531e-05	200208.1	655378.44	-7.519276e-05
0	0.61069196	0.6106917	-1.0453462e-10	0.02934497	0.02934497	0	137863.72	137863.64	-2.5528885e-05	655591.4	199377.44	-0.00014097599	199377.39	655590.9	-6.6130674e-06
0	0.6102512	0.6102508	-1.8378929e-10	0.028991407	0.028991407	0	137764.2	137764.12	-4.329236e-05	655802.75	198548.9	-8.4427695e-05	198548.89	655802.25	-0.00018757579
0	0.60980684	0.60980654	-2.9823718e-10	0.028637834	0.028637834	0	137663.88	137663.81	-6.6473556e-05	656014.9	197714.64	-0.0003090525	197714.62	656014.44	-0.000102897604
0	0.60935926	0.6093589	3.3794293e-12	0.0282843	0.0282843	0	137562.84	137562.78	-2.5135241e-06	656227.1	196875.9	-9.229333e-05	196875.86	656226.6	9.609083e-05
0	0.6089084	0.6089081	-1.9438091e-10	0.02793073	0.02793073	0	137461.06	137460.98	-4.073579e-05	656439	196032.77	-0.00011991216	196032.75	656438.56	-0.0001421621
0	0.60845447	0.6084541	-1.4358879e-11	0.027577164	0.027577164	0	137358.61	137358.52	-2.5374497e-06	656651.5	195184.81	4.969508e-06	195184.78	656650.94	-2.1710848e-05
0	0.60799825	0.6079979	-1.2694537e-10	0.02722359	0.02722359	0	137255.61	137255.53	-2.9017441e-05	656865.4	194332.2	-0.00015923395	194332.22	656864.9	-3.6457343e-05
0	0.6075411	0.6075407	-2.4266952e-10	0.026870027	0.026870027	0	137152.4	137152.31	-5.661124e-05	657075.7	193481.83	-0.00017476286	193481.83	657075.1	-0.00017840648
0	0.6070769	0.6070765	-2.7104416e-10	0.026516493	0.026516493	0	137047.61	137047.52	-5.7870242e-05	657290.25	192617.45	-0.00015654547	192617.44	657289.75	-0.00021885407
0	0.60661405	0.60661364	-6.408325e-10	0.02616292	0.02616292	0	136943.14	136943.06	-0.00014624302	657500.6	191759.11	-0.00046169304	191759.12	657500.06	-0.00046416128
0	0.60614794	0.6061476	-3.8021228e-10	0.025809359	0.025809359	0	136837.89	136837.81	-8.285344e-05	657712.44	190894.69	-0.00023124283	190894.69	657711.9	-0.00030143338
0	0.60567635	0.60567594	-7.838923e-11	0.025455875	0.025455875	0	136731.45	136731.34	-1.7937105e-05	657926.8	190020.06	-8.8169385e-05	190020.1	657926.4	-1.0307954e-05
0	0.6052033	0.60520285	-1.0678182e-10	0.025102314	0.025102314	0	136624.64	136624.56	-2.382933e-05	658139.25	189145.3	-7.947963e-05	189145.34	658138.7	-6.33456e-05
0	0.6047286	0.60472816	-3.1361708e-10	0.024748746	0.024748746	0	136517.47	136517.38	-6.764634e-05	658349.6	188270.38	-0.00020961926	188270.39	658349.1	-0.00021329553
0	0.6042483	0.6042478	-1.1998291e-10	0.024395214	0.024395214	0	136409.05	136408.94	-2.3306027e-05	658562.75	187384.73	-0.00020750622	187384.78	658562.2	6.592773e-05
0	0.6037679	0.60376734	-3.852424e-10	0.024041645	0.024041645	0	136300.56	136300.48	-8.52604e-05	658774.3	186500.52	-0.00027768302	186500.56	658773.75	-0.000272963
0	0.6032813	0.6032809	-4.118727e-10	0.023688078	0.023688078	0	136190.77	136190.66	-9.032488e-05	658989	185604.81	-0.0003356966	185604.84	658988.44	-0.00024957748
0	0.602795	0.6027946	-2.0841617e-11	0.023334507	0.023334507	0	136080.95	136080.86	-3.0153171e-06	659199.3	184713.6	-9.2776245e-06	184713.64	659198.75	2.2861108e-05
0	0.60230345	0.602303	-4.7719745e-10	0.022980943	0.022980943	0	135970	135969.89	-0.00011300938	659412.06	183812.66	-0.00038601144	183812.73	659411.4	-0.00030373468
0	0.60181	0.6018096	-3.0326774e-10	0.022627415	0.022627415	0	135858.62	135858.52	-7.092051e-05	659624.3	182909.62	-0.0002454714	182909.7	659623.75	-0.00020062126
0	0.6013127	0.6013123	-9.2543744e-11	0.022273848	0.022273848	0	135746.38	135746.25	-2.392041e-05	659836.6	182001.17	-0.00010036484	182001.23	659836.06	-3.1071082e-05
0	0.6008114	0.60081095	6.07383e-11	0.02192029	0.02192029	0	135633.19	135633.08	1.22464135e-05	660049.2	181086.77	3.9237657e-05	181086.84	660048.56	6.16278e-05
0	0.6003071	0.6003066	-1.2058377e-10	0.02156678	0.02156678	0	135519.33	135519.22	-2.7099517e-05	660262.1	180167.73	-9.992437e-05	180167.8	660261.56	-5.0128983e-05
0	0.59980077	0.5998002	-3.857272e-10	0.02121321	0.02121321	0	135405.02	135404.89	-8.344037e-05	660475.8	179245.08	-0.00024345277	179245.19	660475.2	-0.00030188123
0	0.5992922	0.59929174	-3.1563177e-10	0.020859648	0.020859648	0	135290.22	135290.11	-7.167502e-05	660686.4	178322.69	-0.0002555089	178322.8	660685.8	-0.00020048325
0	0.5987786	0.5987782	-2.3098072e-10	0.020506121	0.020506121	0	135174.28	135174.16	-5.020652e-05	660898.5	177391.52	-0.0001580955	177391.61	660897.8	-0.00015213212
0	0.59826094	0.59826046	-1.4511548e-10	0.020152563	0.020152563	0	135057.4	135057.28	-3.1375705e-05	661113.1	176452.06	-9.756079e-05	176452.17	661112.44	-9.467895e-05
0	0.5977412	0.5977406	1.9657446e-11	0.019798994	0.019798994	0	134940.06	134939.94	6.9844777e-06	661325.5	175511.97	-8.073854e-06	175512.08	661324.9	3.8072976e-05
0	0.59722	0.59721947	-1.1689626e-10	0.019445425	0.019445425	0	134822.4	134822.28	-2.5291409e-05	661535.4	174572.55	-6.375486e-05	174572.67	661534.75	-8.793387e-05
0	0.5966935	0.59669286	-1.3069884e-10	0.019091865	0.019091865	0	134703.55	134703.42	-2.9715951e-05	661747.9	173622.89	-0.0001202243	173623.02	661747.2	-4.0609655e-05
0	0.5961624	0.5961619	-2.4093233e-10	0.018738296	0.018738296	0	134583.66	134583.53	-5.513079e-05	661960.1	172667.11	-0.00018982464	172667.28	661959.44	-0.0001519373
0	0.59563005	0.5956295	-1.1780929e-10	0.018384779	0.018384779	0	134463.48	134463.36	-2.4565303e-05	662172.4	171709.66	-7.4495096e-05	171709.81	662171.6	-7.596372e-05
0	0.59509206	0.5950915	-1.9000913e-10	0.018031219	0.018031219	0	134342.05	134341.89	-4.582389e-05	662384.94	170743.77	-0.00022048847	170743.94	662384.3	-3.9595372e-05
0	0.59455204	0.59455144	-1.12056905e-10	0.017677676	0.017677676	0	134220.12	134220	-2.3727394e-05	662597.1	169775.61	-2.5999892e-05	169775.8	662596.44	-0.00012756287
0	0.5940075	0.5940069	-1.2892973e-10	0.017324107	0.017324107	0	134097.2	134097.06	-2.613873e-05	662811.4	168798.95	-0.00016280403	168799.12	662810.6	-4.25725e-06
0	0.5934608	0.59346014	-1.2298819e-10	0.016970549	0.016970549	0	133973.77	133973.61	-2.6806194e-05	663023.2	167821.69	-9.2599534e-05	167821.89	663022.5	-7.833741e-05
0	0.5929116	0.592911	-4.319393e-10	0.016617034	0.016617034	0	133849.8	133849.66	-9.8466335e-05	663232.9	166843.16	-0.0003443435	166843.38	663232.1	-0.00029536794
0	0.592357	0.5923563	-2.6370972e-10	0.016263476	0.016263476	0	133724.58	133724.44	-6.3232306e-05	663445.3	165854.22	-0.00017249795	165854.44	663444.6	-0.00020824879
0	0.59179676	0.591796	-3.570858e-10	0.01590991	0.01590991	0	133598.11	133597.95	-8.294517e-05	663659.44	164855.72	-0.00036826445	164855.94	663658.75	-0.00016143134
0	0.5912371	0.5912366	-7.713704e-11	0.015556336	0.015556336	0	133471.8	133471.64	-2.041429e-05	663868.75	163863.08	-6.7985544e-05	163863.31	663868	-5.591247e-05
0	0.5906717	0.59067106	-3.4467595e-10	0.015202784	0.015202784	0	133344.14	133343.97	-7.669682e-05	664081.1	162859.03	-0.00019334338	162859.23	664080.4	-0.00029204373
0	0.59010243	0.5901018	-6.72429e-11	0.014849219	0.014849219	0	133215.62	133215.48	-1.4633276e-05	664292.8	161850.5	-9.2117036e-05	161850.77	664292	-1.9718973e-06
0	0.58952856	0.5895278	-1.8291679e-10	0.014495703	0.014495703	0	133086.06	133085.9	-3.9417784e-05	664504.56	160835.08	-0.0001511402	160835.33	664503.9	-9.1737835e-05
0	0.58895236	0.5889516	-1.3622165e-10	0.01414215	0.01414215	0	132955.98	132955.84	-2.9412817e-05	664716.1	159816.94	-8.1302656e-05	159817.22	664715.3	-0.00011723714
0	0.5883718	0.58837116	-7.6737765e-12	0.013788582	0.013788582	0	132824.94	132824.8	-1.3174964e-06	664927.56	158792.7	-7.371844e-05	158792.98	664926.9	7.515249e-05
0	0.58778644	0.5877858	-2.3539443e-10	0.013435014	0.013435014	0	132692.8	132692.64	-5.324888e-05	665139.6	157761.17	-0.00021137176	157761.45	665138.9	-0.00010995262
0	0.5871984	0.58719766	-4.253869e-10	0.01308146	0.01308146	0	132560.03	132559.86	-9.438676e-05	665350.94	156726.53	-0.00046286907	156726.83	665350.1	-0.0001308925
0	0.586606	0.58660525	-2.2242913e-10	0.012727938	0.012727938	0	132426.33	132426.14	-4.9248953e-05	665562.6	155685.56	-0.00018829413	155685.88	665561.9	-0.00012951762
0	0.5860088	0.586008	-7.061343e-11	0.012374373	0.012374373	0	132291.48	132291.31	-1.5585825e-05	665773.75	154638.27	-0.00013576774	154638.6	665772.94	4.6641795e-05
0	0.5854089	0.5854081	-4.3354054e-10	0.012020823	0.012020823	0	132156.05	132155.88	-9.5085954e-05	665985.1	153586.97	-0.00034636134	153587.33	665984.4	-0.00026273934
0	0.58480376	0.58480304	-3.8840905e-10	0.011667253	0.011667253	0	132019.45	132019.28	-8.477562e-05	666196.56	152528.39	-0.0003923454	152528.73	666195.9	-0.00014314252
0	0.5841946	0.58419377	-3.0074315e-10	0.011313708	0.011313708	0	131881.94	131881.75	-6.875048e-05	666408.06	151464.03	-0.00024888627	151464.36	666407.3	-0.00017364764
0	0.5835805	0.5835797	-2.818511e-10	0.010960145	0.010960145	0	131743.3	131743.12	-6.4446154e-05	666621.44	150390.89	-0.00021937878	150391.27	666620.6	-0.00017222771
0	0.5829648	0.58296394	-1.2886696e-10	0.010606605	0.010606605	0	131604.28	131604.11	-2.746942e-05	666830.2	149320.08	-0.00015667187	149320.44	666829.4	-1.7157108e-05
0	0.5823418	0.5823409	-1.0687601e-10	0.010253061	0.010253061	0	131463.64	131463.45	-2.493116e-05	667043.75	148234.34	-6.7407585e-05	148234.73	667042.94	-9.5230185e-05
0	0.5817167	0.5817159	-2.705945e-11	0.009899497	0.009899497	0	131322.55	131322.36	-6.3826747e-06	667252.56	147150.38	-3.5371108e-05	147150.75	667251.75	8.134362e-06
0	0.5810868	0.5810859	-2.69135e-10	0.0095459325	0.0095459325	0	131180.34	131180.14	-6.315335e-05	667463.3	146057.78	-0.0002608711	146058.2	667462.56	-0.00013004294
0	0.58045226	0.58045137	-3.0715147e-10	0.009192389	0.009192389	0	131037.1	131036.914	-6.607047e-05	667674.44	144958.34	-0.00022597978	144958.73	667673.6	-0.0001899052
0	0.57981163	0.57981086	-2.2061988e-10	0.008838838	0.008838838	0	130892.48	130892.29	-4.7458983e-05	667887.6	143848.33	-0.00018724885	143848.78	667886.75	-0.00012238004
0	0.5791682	0.5791671	-1.4772826e-10	0.008485274	0.008485274	0	130747.2	130747	-3.19798e-05	668098.3	142736.62	-0.00011500771	142737.08	668097.4	-7.9769394e-05
0	0.5785216	0.5785207	-2.140379e-10	0.008131738	0.008131738	0	130601.25	130601.03	-4.7403515e-05	668306.56	141623.22	-0.00019031846	141623.67	668305.7	-0.000101028316
0	0.5778685	0.5778675	-3.8049777e-10	0.007778168	0.007778168	0	130453.805	130453.586	-8.3601684e-05	668517.56	140497.86	-0.00030773962	140498.33	668516.7	-0.00022480148
0	0.57720935	0.57720846	3.4297676e-11	0.0074246093	0.0074246093	0	130305.01	130304.805	8.609795e-06	668730.6	139362.11	6.982226e-05	139362.58	668729.7	-8.634609e-06
0	0.5765489	0.57654786	-2.9605354e-10	0.007071075	0.007071075	0	130155.92	130155.695	-7.232183e-05	668938.7	138229.17	-0.00020937383	138229.66	668937.94	-0.00022938667