# t (s)	mx ()	my ()	mz ()	B_extx (T)	B_exty (T)	B_extz (T)	m_fullx (A/m)	m_fully (A/m)	m_fullz (A/m)	m_full.region1x (A/m)	m_full.region1y (A/m)	m_full.region1z (A/m)	m_full.region2x (A/m)	m_full.region2y (A/m)	m_full.region2z (A/m)
0	0.645202	0.6451978	-3.369307e-10	0.070710756	0.070710756	0	92891.21	92890.625	-4.8442907e-05	650748.25	252530.16	-0.00026076715	252534.4	650746.75	-0.00021870794
0	0.64508975	0.6450861	-6.0968414e-10	0.07056913	0.070569135	0	92875.06	92874.55	-8.650519e-05	650846.8	252275.05	-0.00050471065	252278.8	650845.56	-0.0004037685
0	0.6449743	0.6449708	-2.2462046e-10	0.07042789	0.07042789	0	92858.45	92857.94	-3.114187e-05	650948.75	252011.56	-0.00025025234	252015.31	650947.5	-5.0471062e-05
0	0.6448581	0.64485466	-2.567091e-10	0.07028644	0.07028644	0	92841.72	92841.21	-4.1522493e-05	651051.4	251746.38	-0.00023553162	251750.08	651050.1	-0.00016823687
0	0.64474154	0.644738	-1.4439887e-10	0.07014497	0.07014497	0	92824.94	92824.42	-2.768166e-05	651154	251480.47	-0.00011776581	251484.16	651152.7	-0.000100942125
0	0.64462495	0.64462143	-1.4439887e-10	0.07000352	0.07000352	0	92808.15	92807.63	-2.4221454e-05	651256.5	251214.77	-0.00019136944	251218.47	651255.2	5.0471062e-05
0	0.64450824	0.6445047	-9.626591e-11	0.06986227	0.06986227	0	92791.35	92790.84	-6.920415e-06	651358.8	250949.05	-0.00015141319	250952.78	651357.56	1.6823687e-05
0	0.64439034	0.6443867	-4.4924092e-10	0.069720656	0.069720656	0	92774.375	92773.85	-6.920415e-05	651462.1	250680.58	-0.00033647375	250684.28	651460.8	-0.0003448856
0	0.6442731	0.6442696	-3.6901934e-10	0.06957922	0.06957922	0	92757.484	92756.97	-4.8442907e-05	651564.44	250414.1	-0.000269179	250417.83	651563.2	-0.00020188425
0	0.6441551	0.6441514	-3.2088637e-10	0.06943795	0.06943795	0	92740.49	92739.984	-4.49827e-05	651667.56	250145.73	-0.00033647375	250149.5	651666.25	-0.00015141319
0	0.644037	0.6440333	-1.6044319e-11	0.06929647	0.06929648	0	92723.484	92722.98	-6.920415e-06	651770.2	249877.78	3.3647375e-05	249881.5	651769	-0.00011776581
0	0.6439189	0.64391536	-1.764875e-10	0.069155045	0.069155045	0	92706.484	92705.98	-2.768166e-05	651872.75	249609.97	-0.00011566286	249613.73	651871.44	-0.00015982504
0	0.64379966	0.6437961	-3.369307e-10	0.0690136	0.0690136	0	92689.336	92688.82	-4.8442907e-05	651976.1	249339.7	-0.00037012112	249343.44	651974.8	-0.0001345895
0	0.64368105	0.64367753	-6.0968414e-10	0.06887216	0.06887216	0	92672.26	92671.734	-8.650519e-05	652078.6	249071.03	-0.00048788695	249074.78	652077.44	-0.0004205922
0	0.6435613	0.6435578	-7.0595e-10	0.068730734	0.068730734	0	92655.016	92654.5	-0.000103806226	652182.1	248799.95	-0.00049419585	248803.69	652180.9	-0.00050471065
0	0.6434419	0.6434383	-4.9737386e-10	0.068589285	0.068589285	0	92637.81	92637.305	-7.958477e-05	652285.06	248529.8	-0.00024394348	248533.56	652283.8	-0.00050471065
0	0.6433214	0.6433178	-4.1715228e-10	0.06844799	0.06844799	0	92620.484	92619.96	-6.5743945e-05	652388.6	248257.69	-0.00030282637	248261.44	652387.4	-0.00029441452
0	0.64320076	0.6431972	-4.1715228e-10	0.06830654	0.06830654	0	92603.1	92602.59	-5.536332e-05	652492.3	247985.1	-0.00031965008	247988.88	652490.94	-0.0002649731
0	0.6430799	0.6430764	-2.567091e-10	0.06816512	0.06816512	0	92585.7	92585.18	-3.4602075e-05	652595.7	247712.33	-0.0001345895	247716.11	652594.5	-0.00015982504
0	0.64295936	0.6429557	-2.1659831e-10	0.068023674	0.068023674	0	92568.34	92567.82	-3.8062284e-05	652698.75	247440.5	-0.00025235533	247444.27	652697.5	-5.8882906e-05
0	0.64283866	0.64283496	-9.626591e-11	0.06788223	0.06788223	0	92550.97	92550.44	-1.0380623e-05	652801.9	247168.4	-0.00018085464	247172.19	652800.56	9.253028e-05
0	0.64271677	0.6427131	-2.8879774e-10	0.06774082	0.06774081	0	92533.414	92532.9	-4.1522493e-05	652905.7	246893.97	-0.00018506056	246897.73	652904.44	-0.00024394348
0	0.642595	0.6425914	-1.4439887e-10	0.06759933	0.06759933	0	92515.9	92515.38	-2.0761247e-05	653009.06	246620.2	-5.0471062e-05	246623.98	653007.75	-0.00014300135
0	0.64247257	0.642469	-7.139722e-10	0.06745807	0.06745807	0	92498.266	92497.75	-0.000103806226	653112.9	246345.05	-0.00033647375	246348.81	653111.56	-0.0006308883
0	0.64235014	0.64234656	-6.4177275e-11	0.067316614	0.06731661	0	92480.63	92480.11	-3.4602076e-06	653216.6	246069.77	-5.8882906e-05	246073.55	653215.4	0
0	0.6422277	0.642224	-1.6044319e-11	0.06717501	0.06717501	0	92463.016	92462.49	0	653320.06	245794.92	-0.0001345895	245798.73	653318.75	0.00011776581
0	0.64210194	0.6420983	-4.4924092e-10	0.06703377	0.06703376	0	92444.914	92444.4	-7.266436e-05	653425.75	245513.27	-0.00049419585	245517.06	653424.44	-0.00020188425
0	0.6419809	0.64197725	-3.369307e-10	0.0668923	0.0668923	0	92427.48	92426.945	-5.1903113e-05	653527.94	245241.44	-0.00037012112	245245.25	653526.75	-0.00015141319
0	0.64185685	0.64185333	-2.7275343e-10	0.066750854	0.066750854	0	92409.63	92409.1	-3.4602075e-05	653632.06	244963.81	-0.00020188425	244967.61	653630.9	-0.00014300135
0	0.64173234	0.6417287	-8.022159e-11	0.066609405	0.06660941	0	92391.7	92391.18	-1.0380623e-05	653736.4	244685.17	7.1500675e-05	244688.97	653735.2	-0.00018506056
0	0.6416084	0.6416048	-1.9253182e-10	0.06646814	0.06646814	0	92373.86	92373.33	-2.768166e-05	653840.1	244407.83	-0.00018506056	244411.66	653838.9	-8.411844e-06
0	0.6414838	0.6414802	-4.1715228e-10	0.06632654	0.06632654	0	92355.9	92355.38	-5.1903113e-05	653944.1	244129.4	-0.00038694483	244133.22	653942.9	-0.00012617766
0	0.64135855	0.6413549	-4.1715228e-10	0.066185094	0.066185094	0	92337.88	92337.35	-5.882353e-05	654048.44	243849.75	-0.00033647375	243853.55	654047.2	-0.00024394348
0	0.6412335	0.64122987	-4.0110798e-10	0.06604383	0.06604383	0	92319.875	92319.35	-5.1903113e-05	654152.4	243570.72	-0.00023553162	243574.55	654151.1	-0.0002860027
0	0.6411077	0.64110404	-1.6044319e-10	0.06590232	0.06590232	0	92301.76	92301.24	-1.384083e-05	654256.8	243290.17	-0.00016823687	243294	654255.5	-3.3647375e-05
0	0.64098173	0.64097804	-4.4924092e-10	0.06576094	0.06576094	0	92283.61	92283.09	-6.228374e-05	654361.06	243009.38	-0.0003280619	243013.2	654359.94	-0.00027759085
0	0.6408543	0.64085066	-5.134182e-10	0.06561947	0.06561947	0	92265.28	92264.76	-7.612457e-05	654466.06	242726.16	-0.00048788695	242730	654464.9	-0.00027759085
0	0.64072925	0.6407256	-2.7275343e-10	0.06547822	0.06547822	0	92247.27	92246.75	-3.8062284e-05	654569.4	242447.67	-0.0001345895	242451.52	654568.2	-0.00025235533
0	0.6406022	0.6405985	1.2835455e-10	0.06533663	0.06533663	0	92228.98	92228.46	1.0380623e-05	654673.94	242165.25	0.00010935397	242169.1	654672.7	7.570659e-05
0	0.6404745	0.6404708	-2.2462046e-10	0.06519517	0.06519517	0	92210.59	92210.07	-3.114187e-05	654778.75	241881.67	-5.0471062e-05	241885.52	654777.5	-0.00022711979
0	0.6403473	0.6403437	-5.2946253e-10	0.0650539	0.0650539	0	92192.28	92191.766	-6.920415e-05	654883	241599.36	-0.00038694483	241603.2	654881.75	-0.0003280619
0	0.640219	0.6402154	-6.4177275e-11	0.06491239	0.06491239	0	92173.82	92173.28	-6.920415e-06	654987.9	241314.84	-5.6779947e-05	241318.69	654986.6	-2.102961e-05
0	0.640091	0.64008737	-2.2462046e-10	0.06477102	0.06477102	0	92155.38	92154.85	-4.1522493e-05	655092.44	241031.11	-0.00030282637	241034.97	655091.2	-6.729475e-05
0	0.63996214	0.63995844	-3.0484207e-10	0.06462957	0.06462957	0	92136.83	92136.3	-4.8442907e-05	655197.44	240745.7	-0.00037012112	240749.58	655196.1	-9.253028e-05
0	0.63983303	0.6398294	-3.6901934e-10	0.06448808	0.06448809	0	92118.26	92117.73	-5.882353e-05	655302.2	240460.28	-0.00012617766	240464.11	655300.94	-0.00037012112
0	0.6397033	0.6396997	-5.4550686e-10	0.064346716	0.064346716	0	92099.56	92099.04	-7.958477e-05	655407.5	240173.25	-0.0004205922	240177.1	655406.25	-0.00035329745
0	0.6395743	0.6395707	-8.3430457e-10	0.064205244	0.064205244	0	92081	92080.48	-0.00012456748	655511.75	239888.36	-0.0006308883	239892.22	655510.6	-0.000538358
0	0.6394444	0.6394407	-8.0221596e-10	0.064063944	0.064063944	0	92062.27	92061.766	-0.00012110727	655616.75	239601.44	-0.000647712	239605.31	655615.56	-0.0005467699
0	0.6393141	0.63931036	-4.813296e-10	0.06392247	0.06392247	0	92043.52	92042.99	-5.882353e-05	655721.7	239314.08	-0.00023553162	239317.94	655720.56	-0.0004205922
0	0.63918287	0.63917917	-4.3319662e-10	0.063781105	0.063781105	0	92024.64	92024.12	-5.536332e-05	655827.25	239024.81	-0.00035329745	239028.69	655826.1	-0.00025235533
0	0.63905185	0.63904816	-1.6044319e-11	0.06363964	0.06363964	0	92005.766	92005.26	-1.0380623e-05	655932.5	238736.28	-0.00010514805	238740.14	655931.2	-8.411844e-06
0	0.63892096	0.6389173	-6.4177275e-10	0.063498154	0.063498154	0	91986.93	91986.41	-9.34256e-05	656037.3	238448.19	-0.000538358	238452.1	656036.06	-0.00036170927
0	0.63878906	0.63878536	-1.1231023e-10	0.063356794	0.0633568	0	91967.945	91967.414	-1.7301038e-05	656142.6	238158.23	-0.00011776581	238162.11	656141.3	-4.205922e-05
0	0.63865757	0.6386539	-3.6901934e-10	0.06321528	0.06321528	0	91949.01	91948.48	-5.536332e-05	656247.56	237869.1	-0.00030282637	237873.02	656246.3	-0.00020188425
0	0.6385246	0.638521	-4.1715228e-10	0.063074015	0.063074015	0	91929.87	91929.34	-5.536332e-05	656353.4	237577.11	-0.00037012112	237581.03	656352.2	-0.0002481494
0	0.6383924	0.63838875	-6.0968414e-10	0.06293254	0.06293254	0	91910.836	91910.31	-8.650519e-05	656458.3	237287.17	-0.0005551817	237291.06	656457.1	-0.00030282637
0	0.6382592	0.6382555	-1.9253182e-10	0.062790975	0.062790975	0	91891.65	91891.12	-2.0761247e-05	656563.94	236994.98	-0.00022291386	236998.88	656562.7	-2.5235531e-05
0	0.6381255	0.6381219	-3.6901934e-10	0.06264971	0.062649705	0	91872.414	91871.875	-5.536332e-05	656669.56	236702.33	-0.0002102961	236706.25	656668.3	-0.00031965008
0	0.63799214	0.63798857	-4.0913012e-10	0.06250823	0.06250823	0	91853.22	91852.69	-5.536332e-05	656774.8	236410.42	-0.00039535665	236414.34	656773.5	-0.00017664873
0	0.6378578	0.6378541	-3.7704148e-10	0.062366836	0.062366836	0	91833.875	91833.33	-5.1903113e-05	656880.56	236116.45	-0.0001345895	236120.34	656879.4	-0.00036170927
0	0.6377237	0.63772005	-6.899057e-10	0.062225346	0.062225346	0	91814.555	91814.03	-0.000103806226	656985.94	235823.27	-0.00048788695	235827.2	656984.7	-0.0005131225
0	0.637589	0.6375853	-9.626591e-11	0.062084086	0.062084086	0	91795.16	91794.625	-1.0380623e-05	657091.56	235529.08	-6.729475e-05	235533	657090.3	-2.5235531e-05
0	0.6374529	0.63744915	-3.52975e-10	0.061942536	0.061942536	0	91775.56	91775.03	-5.1903113e-05	657198.06	235232.05	-0.00024394348	235235.98	657196.8	-0.000269179
0	0.63731825	0.6373146	-1.6044319e-10	0.061801046	0.061801046	0	91756.19	91755.66	-2.4221454e-05	657303.06	234938.62	-0.00020188425	234942.56	657301.9	-2.5235531e-05
0	0.6371825	0.6371788	-2.968199e-10	0.06165979	0.061659783	0	91736.63	91736.09	-3.8062284e-05	657408.8	234642.61	-0.000269179	234646.55	657407.56	-0.00011776581
0	0.63704544	0.6370418	1.6044319e-11	0.061518256	0.061518256	0	91716.91	91716.375	3.4602076e-06	657515.3	234344.31	8.411844e-05	234348.28	657514.1	-5.0471062e-05
0	0.6369092	0.6369055	-2.6473126e-10	0.061376907	0.061376907	0	91697.3	91696.77	-4.49827e-05	657621	234048.03	-0.00023553162	234052	657619.7	-0.00015141319
0	0.636772	0.6367683	-2.8077557e-10	0.061235435	0.061235435	0	91677.54	91677	-4.1522493e-05	657727.2	233749.52	-0.000100942125	233753.47	657726.06	-0.00031965008
0	0.636635	0.6366315	-3.52975e-10	0.061093953	0.061093953	0	91657.83	91657.3	-5.1903113e-05	657832.94	233452.3	-0.00030703231	233456.23	657831.7	-0.00015982504
0	0.63649803	0.6364943	-1.9253182e-10	0.06095263	0.06095263	0	91638.09	91637.56	-2.4221454e-05	657938.6	233154.67	-0.00025235533	233158.62	657937.4	0
0	0.63635945	0.6363559	0	0.060811136	0.060811136	0	91618.16	91617.62	-6.920415e-06	658044.94	232854.47	-0.00016823687	232858.39	658043.75	0.00014300135
0	0.63622123	0.6362175	-6.0968414e-10	0.060669806	0.060669806	0	91598.25	91597.71	-0.00010034602	658151.06	232554.64	-0.0004899899	232558.6	658149.8	-0.00037012112
0	0.6360826	0.63607895	-3.0484207e-10	0.060528323	0.060528323	0	91578.29	91577.75	-3.8062284e-05	658257.1	232254.52	-0.000269179	232258.48	658255.94	-0.00011776581
0	0.63594353	0.63593984	-3.2088637e-11	0.06038699	0.06038699	0	91558.27	91557.734	-6.920415e-06	658363.4	231953.64	-6.729475e-05	231957.61	658362.1	5.8882906e-05
0	0.6358039	0.63580024	-5.6155114e-10	0.060245514	0.060245514	0	91538.16	91537.62	-7.958477e-05	658469.8	231651.64	-0.0005593876	231655.6	658468.56	-0.00024394348
0	0.6356644	0.6356607	1.9253182e-10	0.060104024	0.060104024	0	91518.07	91517.53	2.4221454e-05	658575.9	231350.2	0.000100942125	231354.19	658574.75	0.00015141319
0	0.6355235	0.63551974	-3.8506365e-10	0.0599627	0.0599627	0	91497.78	91497.25	-6.228374e-05	658682.8	231046.02	-0.000538358	231049.98	658681.56	-7.570659e-05
0	0.63538325	0.63537955	-3.52975e-10	0.05982116	0.05982116	0	91477.6	91477.07	-4.49827e-05	658789	230743.61	-0.0002649731	230747.6	658787.7	-0.00020188425
0	0.6352419	0.63523835	-4.6528525e-10	0.059679892	0.059679892	0	91457.266	91456.73	-6.5743945e-05	658895.6	230439.23	-0.0005720054	230443.23	658894.44	-0.00011776581
0	0.63509953	0.6350958	-6.738614e-10	0.059538387	0.059538387	0	91436.74	91436.22	-8.99654e-05	659002.9	230132.47	-0.0004794751	230136.48	659001.7	-0.00045423958
0	0.6349594	0.63495576	-5.936398e-10	0.059396863	0.059396863	0	91416.59	91416.055	-8.650519e-05	659108.4	229830.84	-0.00031544414	229834.86	659107.2	-0.00050471065
0	0.6348173	0.6348136	-1.6846535e-10	0.05925559	0.059255596	0	91396.12	91395.586	-2.768166e-05	659214.94	229525.27	-1.6823687e-05	229529.3	659213.8	-0.00018506056
0	0.63467455	0.63467085	-6.0166194e-10	0.059114084	0.059114084	0	91375.56	91375.03	-8.99654e-05	659321.75	229218.6	-0.00045423958	229222.58	659320.56	-0.0004037685
0	0.63453096	0.6345272	-3.8506365e-10	0.05897273	0.05897273	0	91354.9	91354.36	-5.882353e-05	659428.94	228910.34	-0.00036906966	228914.34	659427.75	-0.00019347241
0	0.63438874	0.63438493	-8.3430457e-10	0.05883124	0.05883124	0	91334.41	91333.87	-0.00012110727	659535	228605.14	-0.0007907133	228609.17	659533.8	-0.00038063593
0	0.6342449	0.6342412	-5.3748467e-10	0.058689952	0.058689952	0	91313.73	91313.19	-8.3044986e-05	659641.94	228297.05	-0.00026076715	228301.06	659640.75	-0.0005467699
0	0.6341015	0.6340977	-3.9308581e-10	0.058548428	0.058548428	0	91293.055	91292.51	-5.882353e-05	659748.5	227989.47	-0.0003554004	227993.48	659747.3	-0.00017664873
0	0.63395643	0.6339527	-1.9253182e-10	0.058406938	0.058406938	0	91272.17	91271.64	-2.4221454e-05	659855.7	227679.25	-0.00021870794	227683.28	659854.56	-2.5235531e-05
0	0.63381284	0.6338091	-4.0110798e-10	0.05826566	0.05826566	0	91251.51	91250.96	-5.536332e-05	659961.8	227372.06	-0.000269179	227376.1	659960.7	-0.00027759085
0	0.6336676	0.63366395	-4.813296e-10	0.058124106	0.058124106	0	91230.6	91230.06	-6.228374e-05	660068.75	227061.88	-0.00038484187	227065.9	660067.6	-0.00027759085
0	0.63352174	0.63351804	-7.5408296e-10	0.057982814	0.057982814	0	91209.59	91209.07	-0.000103806226	660176	226750.48	-0.00050471065	226754.53	660174.8	-0.0005467699
0	0.633376	0.6333723	-5.6155114e-10	0.057841312	0.057841312	0	91188.62	91188.08	-7.266436e-05	660282.94	226439.48	-0.00030282637	226443.52	660281.75	-0.00043741587
0	0.6332297	0.6332259	-5.2946253e-10	0.057699807	0.057699807	0	91167.54	91167.01	-8.131488e-05	660390.1	226127.44	-0.00037012112	226131.48	660388.9	-0.0004205922
0	0.6330835	0.63307977	-2.7275343e-10	0.057558525	0.057558525	0	91146.49	91145.95	-3.8062284e-05	660496.8	225816	-0.00030282637	225820.03	660495.6	-9.253028e-05
0	0.6329362	0.6329324	-2.8879774e-10	0.05741701	0.05741701	0	91125.29	91124.75	-4.49827e-05	660604.1	225502.47	-0.00033647375	225506.53	660602.94	-4.205922e-05
0	0.63278896	0.6327852	-7.2199434e-11	0.057275683	0.057275683	0	91104.09	91103.555	-1.2110727e-05	660711.1	225189.34	-0.0001345895	225193.42	660709.94	1.6823687e-05
0	0.6326405	0.6326367	-7.5408296e-10	0.057134178	0.057134178	0	91082.71	91082.18	-0.00011072664	660818.75	224873.8	-0.00063930015	224877.84	660817.56	-0.0004794751
0	0.63249326	0.63248956	-8.0221596e-10	0.056992896	0.056992896	0	91061.51	91060.984	-0.00011764706	660925.3	224561.2	-0.00060565275	224565.27	660924.1	-0.0005720054
0	0.6323438	0.6323402	-2.0857614e-10	0.056851387	0.056851387	0	91040.016	91039.48	-2.9411765e-05	661033.1	224244.25	-0.00023132571	224248.33	661031.94	-0.00012617766
0	0.6321952	0.6321914	-1.6044319e-10	0.056709882	0.056709882	0	91018.6	91018.06	-2.768166e-05	661140.06	223928.98	-0.00020188425	223933.05	661139	-5.8882906e-05
0	0.6320457	0.6320419	-2.2462046e-10	0.056568604	0.056568604	0	90997.08	90996.55	-3.4602075e-05	661247.5	223612.25	-0.00011776581	223616.31	661246.5	-0.00020188425
0	0.63189566	0.63189185	3.2088637e-11	0.05642703	0.056427035	0	90975.484	90974.94	1.7301038e-06	661355	223294.78	-1.0514805e-05	223298.84	661353.9	8.411844e-05
0	0.63174635	0.63174266	-5.7759547e-10	0.056285758	0.056285758	0	90954.01	90953.46	-7.958477e-05	661461.75	222979.14	-0.00038694483	222983.2	661460.6	-0.0004205922
0	0.631595	0.6315912	7.2199434e-11	0.05614425	0.05614425	0	90932.18	90931.664	1.2110727e-05	661569.75	222659.16	-1.6823687e-05	222663.23	661568.56	0.000100942125
0	0.6314449	0.6314411	-3.2890854e-10	0.056002736	0.056002736	0	90910.58	90910.055	-4.3252596e-05	661676.7	222342.1	-0.00030703231	222346.17	661675.5	-0.00014300135
0	0.63129336	0.6312897	-2.406648e-10	0.05586146	0.055861462	0	90888.77	90888.24	-3.633218e-05	661784.1	222022.58	-5.0471062e-05	222026.62	661783	-0.00021870794
0	0.63114107	0.6311373	-2.406648e-10	0.055719953	0.055719953	0	90866.836	90866.305	-3.8062284e-05	661891.94	221701.36	-0.00023553162	221705.42	661890.8	-0.00014300135
0	0.6309888	0.630985	-2.406648e-10	0.05557868	0.05557868	0	90844.914	90844.375	-3.4602075e-05	661999.6	221380.58	-0.000113559894	221384.67	661998.4	-0.00021870794
0	0.6308362	0.6308325	-4.6528525e-10	0.05543712	0.05543712	0	90822.96	90822.414	-7.266436e-05	662107.3	221059.39	-0.0002860027	221063.45	662106.1	-0.00038694483
0	0.6306834	0.63067985	0	0.05529583	0.05529583	0	90800.96	90800.42	-3.4602076e-06	662214.75	220738.14	-3.3647375e-05	220742.2	662213.5	4.205922e-05
0	0.63053024	0.6305266	-4.8132956e-11	0.055154327	0.055154327	0	90778.914	90778.375	-1.2110727e-05	662322.2	220416.14	-0.000107251006	220420.22	662321	5.0471062e-05
0	0.6303768	0.630373	-5.2946253e-10	0.055012815	0.055012815	0	90756.805	90756.27	-7.439446e-05	662429.6	220093.77	-0.00025235533	220097.86	662428.44	-0.00045423958
0	0.6302219	0.6302181	-1.4439887e-10	0.054871533	0.054871533	0	90734.51	90733.97	-2.0761247e-05	662537.6	219768.92	-3.3647375e-05	219773	662536.44	-0.00020188425
0	0.6300673	0.6300635	-3.369307e-10	0.05473003	0.05473003	0	90712.24	90711.7	-4.67128e-05	662645.5	219444.58	-0.00040166554	219448.72	662644.25	-5.0471062e-05
0	0.6299124	0.6299087	-4.813296e-10	0.054588694	0.054588694	0	90689.95	90689.42	-6.0553633e-05	662753	219120.27	-0.00025235533	219124.4	662751.9	-0.00037853298
0	0.6297567	0.62975293	-3.8506365e-10	0.05444718	0.05444718	0	90667.53	90666.99	-5.017301e-05	662861	218794.28	-0.000269179	218798.38	662859.8	-0.00027759085
0	0.62960047	0.6295968	-2.7275343e-10	0.054305915	0.05430591	0	90645.05	90644.5	-4.3252596e-05	662969	218467.52	-0.00016613392	218471.64	662967.94	-0.00021870794
0	0.62944466	0.6294409	-3.52975e-10	0.054164402	0.054164402	0	90622.61	90622.06	-5.1903113e-05	663076.7	218141.73	-0.00021870794	218145.88	663075.5	-0.000269179
0	0.6292855	0.62928176	-1.2835455e-10	0.054022882	0.054022882	0	90599.7	90599.164	-1.9031142e-05	663185.94	217809.78	3.3647375e-05	217813.89	663184.75	-0.00019347241
0	0.62913066	0.6291269	-9.626591e-11	0.053881615	0.053881615	0	90577.414	90576.85	-1.7301038e-05	663292.5	217486.31	-0.00015141319	217490.47	663291.4	0
0	0.6289727	0.62896895	-4.0110798e-10	0.05374005	0.05374005	0	90554.66	90554.11	-6.5743945e-05	663400.6	217157.03	-0.00043741587	217161.14	663399.44	-0.00015141319
0	0.6288154	0.62881166	-3.8506365e-10	0.053598765	0.053598765	0	90532.01	90531.48	-5.363322e-05	663508.1	216829.33	-0.000269179	216833.45	663507	-0.00025235533
0	0.6286568	0.62865305	-1.764875e-10	0.053457264	0.053457264	0	90509.19	90508.64	-2.4221454e-05	663616.1	216499.25	-0.00014300135	216503.4	663615.06	-8.411844e-05
0	0.62849796	0.6284942	-4.813296e-10	0.05331577	0.05331577	0	90486.305	90485.766	-6.5743945e-05	663724.1	216168.83	-0.00043741587	216172.95	663723.06	-0.00024394348
0	0.6283379	0.6283341	-1.9253182e-10	0.053174473	0.053174473	0	90463.266	90462.74	-2.9411765e-05	663832.6	215836.31	-0.00020188425	215840.45	663831.5	-7.570659e-05
0	0.6281794	0.6281757	-3.369307e-10	0.053032972	0.053032972	0	90440.445	90439.9	-5.017301e-05	663939.94	215507.11	-0.00026076715	215511.23	663938.9	-0.0002102961
0	0.62801856	0.6280148	-5.8561767e-10	0.052891634	0.052891634	0	90417.28	90416.74	-8.650519e-05	664048.4	215173.33	-0.0005131225	215177.47	664047.25	-0.0003448856
0	0.62785745	0.62785363	-9.626591e-11	0.05275012	0.05275012	0	90394.086	90393.55	-1.2110727e-05	664156.94	214839.3	-0.00015141319	214843.45	664155.8	3.3647375e-05
0	0.62769777	0.627694	-3.2088637e-10	0.052608836	0.052608836	0	90371.1	90370.555	-4.1522493e-05	664264.25	214508.55	-0.00025235533	214512.69	664263.06	-0.00020188425
0	0.62753576	0.62753195	-2.0857614e-10	0.052467342	0.052467342	0	90347.77	90347.23	-3.2871973e-05	664372.7	214173.12	-0.00023553162	214177.3	664371.6	-1.6823687e-05
0	0.6273736	0.6273698	-1.6846535e-10	0.052325826	0.052325826	0	90324.44	90323.89	-2.4221454e-05	664481.1	213837.83	-0.00020188425	213841.97	664480	0
0	0.62721163	0.6272079	-3.52975e-10	0.05218455	0.05218455	0	90301.125	90300.57	-4.67128e-05	664589.06	213503.03	-0.00023973755	213507.19	664588	-0.00024394348
0	0.6270491	0.62704533	-2.8879774e-10	0.05204299	0.05204299	0	90277.71	90277.17	-4.49827e-05	664697.2	213167.27	-0.00030282637	213171.44	664696.2	-0.00011776581
0	0.6268851	0.6268813	-1.1231023e-10	0.051901694	0.051901694	0	90254.1	90253.555	-2.0761247e-05	664805.94	212829.08	-0.00020188425	212833.25	664804.75	7.570659e-05
0	0.62672234	0.62671846	-3.0484207e-10	0.051760197	0.051760197	0	90230.66	90230.12	-4.8442907e-05	664913.75	212493.28	-0.00027338494	212497.45	664912.6	-0.00019347241
0	0.6265576	0.62655383	-2.1659831e-10	0.051618703	0.051618703	0	90206.94	90206.41	-3.114187e-05	665022.25	212154.17	-0.00017664873	212158.33	665021.2	-0.0001345895
0	0.62639344	0.6263896	-4.4924092e-10	0.05147742	0.05147742	0	90183.305	90182.766	-6.228374e-05	665130.44	211816.11	-0.00021870794	211820.25	665129.4	-0.00037853298
0	0.6262288	0.6262251	-1.4439887e-10	0.051335912	0.051335912	0	90159.61	90159.07	-1.9031142e-05	665238.44	211477.7	-0.0001724428	211481.86	665237.4	-1.6823687e-05
0	0.6260629	0.6260592	-4.6528525e-10	0.051194567	0.051194567	0	90135.734	90135.2	-7.266436e-05	665347.06	211136.88	-0.0004037685	211141.05	665345.9	-0.0003280619
0	0.6258976	0.62589383	-4.8132956e-11	0.051053073	0.051053073	0	90111.93	90111.38	-1.7301038e-06	665455	210797.42	-1.6823687e-05	210801.6	665453.94	-3.3647375e-05
0	0.62572986	0.6257261	-1.3637672e-10	0.05091177	0.05091177	0	90087.78	90087.234	-1.9031142e-05	665564.3	210453.31	-0.0001345895	210457.5	665563.2	-6.729475e-05
0	0.6255644	0.62556064	-5.936398e-10	0.050770275	0.050770275	0	90063.95	90063.41	-8.3044986e-05	665671.94	210113.97	-0.0005215343	210118.19	665670.8	-0.00031123823
0	0.6253971	0.6253933	-1.5242103e-10	0.05062879	0.05062879	0	90039.86	90039.32	-2.5951556e-05	665780.4	209771.22	-0.00023553162	209775.42	665779.4	-3.3647375e-05
0	0.6252291	0.6252253	-5.214404e-10	0.05048749	0.05048749	0	90015.69	90015.13	-7.093426e-05	665888.94	209427.47	-0.0004205922	209431.66	665887.9	-0.00031965008
0	0.62506115	0.6250574	-2.0055399e-10	0.05034593	0.05034593	0	89991.5	89990.97	-2.9411765e-05	665997.25	209084.19	-0.00021870794	209088.34	665996.25	-4.205922e-05
0	0.6248926	0.6248888	-1.4439887e-10	0.050204646	0.050204646	0	89967.234	89966.695	-2.249135e-05	666105.75	208739.72	-0.00020188425	208743.92	666104.6	-3.3647375e-05
0	0.62472373	0.62472	-5.53529e-10	0.050063137	0.050063137	0	89942.914	89942.39	-7.439446e-05	666214	208395.05	-0.000538358	208399.22	666212.9	-0.00024394348
0	0.6245533	0.62454957	-3.369307e-10	0.04992165	0.04992165	0	89918.4	89917.85	-4.8442907e-05	666323	208047.44	-0.00047106325	208051.62	666321.9	-5.0471062e-05
0	0.62438416	0.6243804	-4.1715228e-10	0.04978036	0.04978036	0	89894.03	89893.484	-5.882353e-05	666431.06	207702.52	-0.00030282637	207706.72	666429.94	-0.00023553162
0	0.6242138	0.62421	-4.6528525e-10	0.049638852	0.049638852	0	89869.516	89868.96	-6.401384e-05	666539.44	207355.64	-0.00040587145	207359.86	666538.5	-0.00026076715
0	0.6240425	0.62403876	-7.460608e-10	0.049497508	0.049497508	0	89844.84	89844.305	-0.00010207613	666648.1	207007.08	-0.0004037685	207011.3	666647.1	-0.0005804172
0	0.6238717	0.6238679	-4.4924092e-10	0.04935601	0.04935601	0	89820.26	89819.7	-6.747405e-05	666756.4	206659.73	-0.00023553162	206663.92	666755.44	-0.00039535665
0	0.62369895	0.6236952	-5.2946253e-10	0.049214706	0.049214706	0	89795.38	89794.836	-7.958477e-05	666865.4	206308.94	-0.00038904778	206313.16	666864.4	-0.0004037685
0	0.6235273	0.6235235	-2.6473126e-10	0.049073216	0.049073216	0	89770.664	89770.12	-4.1522493e-05	666973.6	205960.2	-0.0004037685	205964.42	666972.6	-8.411844e-06
0	0.6233544	0.6233506	-1.4439887e-10	0.048931725	0.048931725	0	89745.77	89745.234	-1.9031142e-05	667082.25	205609.6	-0.00016823687	205613.84	667081.2	-8.411844e-06
0	0.62318194	0.6231781	-4.4924092e-10	0.048790433	0.048790433	0	89720.94	89720.4	-5.882353e-05	667190.3	205260.14	-0.00039115074	205264.39	667189.25	-0.00024394348
0	0.62300634	0.6230026	-2.567091e-10	0.048648868	0.048648868	0	89695.664	89695.13	-3.2871973e-05	667299.94	204904.75	-0.00033647375	204908.97	667298.8	-3.3647375e-05
0	0.6228337	0.62283003	-3.52975e-10	0.04850758	0.04850758	0	89670.82	89670.28	-5.017301e-05	667407.6	204555.44	-0.0004205922	204559.66	667406.6	-7.570659e-05
0	0.6226591	0.6226553	-3.7704148e-10	0.04836608	0.04836608	0	89645.664	89645.12	-5.7093424e-05	667516.25	204202.2	-0.0003490915	204206.44	667515.1	-0.00020188425
0	0.6224826	0.62247896	-4.1715228e-10	0.04822459	0.04822459	0	89620.28	89619.73	-6.0553633e-05	667625.44	203846.06	-0.00033647375	203850.27	667624.4	-0.00030282637
0	0.6223081	0.6223044	-6.578171e-10	0.04808329	0.04808329	0	89595.14	89594.6	-9.8615914e-05	667733.5	203493.61	-0.0006561238	203497.84	667732.5	-0.0002860027
0	0.62213147	0.6221278	-3.52975e-10	0.047941796	0.047941796	0	89569.7	89569.17	-4.67128e-05	667842.3	203137.52	-0.00032175303	203141.77	667841.4	-0.00020188425
0	0.62195563	0.6219519	-4.9737386e-10	0.047800433	0.047800433	0	89544.4	89543.85	-6.747405e-05	667950.5	202783.1	-0.0004205922	202787.33	667949.56	-0.00022711979
0	0.62177837	0.6217747	-3.52975e-10	0.047658954	0.047658954	0	89518.875	89518.32	-4.8442907e-05	668059.2	202426.23	-0.00043741587	202430.48	668058.25	-6.729475e-05
0	0.62159956	0.62159586	-3.52975e-10	0.047517646	0.047517646	0	89493.13	89492.586	-4.67128e-05	668168.5	202066.66	-0.00033647375	202070.89	668167.5	-0.000100942125
0	0.6214226	0.62141883	-2.7275343e-10	0.047376156	0.047376156	0	89467.66	89467.12	-3.9792387e-05	668276.6	201710.86	-0.00016823687	201715.1	668275.56	-0.00018506056
0	0.62124354	0.6212397	-6.4177275e-10	0.04723467	0.04723467	0	89441.87	89441.32	-8.650519e-05	668385.5	201351.17	-0.00058882905	201355.38	668384.5	-0.00030282637
0	0.6210649	0.62106115	-1.9253182e-10	0.04709336	0.04709336	0	89416.16	89415.62	-3.2871973e-05	668493.9	200992.73	-0.00020924462	200996.98	668492.8	-3.3647375e-05
0	0.62088555	0.6208818	-4.3319662e-10	0.046951808	0.046951808	0	89390.33	89389.8	-6.5743945e-05	668602.3	200633.23	-0.00033647375	200637.47	668601.3	-0.0002860027
0	0.6207056	0.62070185	-6.4177275e-10	0.04681051	0.04681051	0	89364.43	89363.89	-9.34256e-05	668710.94	200272.81	-0.00048788695	200277.06	668709.9	-0.0004205922
0	0.62052405	0.6205203	-4.8132956e-11	0.046669018	0.046669018	0	89338.29	89337.75	-5.1903116e-06	668820.1	199909.31	-0.00018716353	199913.61	668819.1	0.00015141319
0	0.6203442	0.6203406	-2.7275343e-10	0.04652772	0.04652772	0	89312.39	89311.86	-4.1522493e-05	668928.1	199549.6	-0.0004205922	199553.86	668927.1	-3.3647375e-05
0	0.62016124	0.6201575	-4.6528525e-10	0.046386234	0.046386234	0	89286.055	89285.5	-6.401384e-05	669037.5	199183.94	-0.00038694483	199188.22	669036.56	-0.00023553162
0	0.61998034	0.61997664	-4.2517445e-10	0.04624474	0.04624474	0	89260	89259.47	-6.5743945e-05	669145.56	198822.69	-0.00023132571	198826.97	669144.56	-0.0004037685
0	0.6197967	0.61979294	1.6044319e-11	0.046103436	0.046103436	0	89233.57	89233.03	3.4602076e-06	669254.75	198456.42	3.3647375e-05	198460.66	669253.75	0
0	0.61961436	0.6196106	-3.4495284e-10	0.045961883	0.045961883	0	89207.31	89206.77	-5.1903113e-05	669363	198092.86	-0.00030282637	198097.12	669362.06	-0.00016823687
0	0.6194314	0.6194277	-4.9737386e-10	0.045820575	0.045820575	0	89180.98	89180.43	-7.266436e-05	669471.4	197728.3	-0.00038694483	197732.56	669470.4	-0.00029441452
0	0.6192474	0.6192436	-3.369307e-10	0.0456791	0.045679096	0	89154.48	89153.94	-4.49827e-05	669579.9	197362.17	-0.0002860027	197366.42	669579	-0.00018506056
0	0.61906224	0.61905855	-6.4177275e-10	0.045537613	0.045537613	0	89127.836	89127.29	-9.34256e-05	669688.75	196994.17	-0.00037012112	196998.44	669687.8	-0.0005551817
0	0.6188774	0.61887366	-3.2088637e-10	0.0453963	0.0453963	0	89101.23	89100.69	-5.017301e-05	669797.3	196626.83	-0.00035329745	196631.06	669796.3	-0.00018506056
0	0.6186918	0.61868805	-5.134182e-10	0.04525482	0.04525482	0	89074.49	89073.95	-7.266436e-05	669906.06	196258.28	-0.0004037685	196262.52	669904.94	-0.0003448856
0	0.6185057	0.61850196	-4.4121878e-10	0.045113444	0.045113444	0	89047.7	89047.164	-6.5743945e-05	670014.56	195889.23	-0.00038694483	195893.52	670013.6	-0.00023553162
0	0.61831933	0.6183156	-3.2088637e-10	0.044971954	0.044971954	0	89020.87	89020.33	-4.8442907e-05	670122.8	195519.95	-0.0002902086	195524.22	670121.9	-0.00023553162