//mumax 3.10 [windows_amd64 go1.11.6(gc) CUDA-11.0]
//GPU info: NVIDIA GeForce RTX 3090(24575MB), CUDA Driver 12.1, cc=8.6, using cc=80 PTX
//(c) Arne Vansteenkiste, Dynamat LAB, Ghent University, Belgium
//This is free software without any warranty. See license.txt
//********************************************************************//
//  If you use mumax in any work or publication,                      //
//  we kindly ask you to cite the references in references.bib        //
//********************************************************************//
//output directory: r1;p0.1;a5.12e-07;l1.8000000000000002e-07;s5.out/
randSeed(5)
ThermSeed(5)
resolution := 2e-09
zResolution := 5e-09
a := 5.12e-07
gridSize := 512
gridDepth := 5
SetCellsize(resolution, resolution, zResolution)
SetGridsize(gridSize, gridSize, gridDepth)
SetPBC(16, 16, 0)
//resizing...
Msat = 700e3
Aex = 13e-12
alpha = 0.2
Bmax := 0.1
Bstep := Bmax / 500.0
TableAdd(B_ext)
TableAdd(m_full)
islandWidth := 8e-08
islandLength := 1.8000000000000002e-07
ellipseConstant := 9.000000000000001e-09
hIsland := Universe().Inverse()
vIsland := Universe().Inverse()
vIslands := Universe().Inverse()
hIslands := Universe().Inverse()
hIsland = rect(islandLength-2*ellipseConstant, islandWidth)
hIsland = hIsland.add(ellipse(ellipseConstant*2, islandWidth).transl(islandLength/2-ellipseConstant, 0, 0))
hIsland = hIsland.add(ellipse(ellipseConstant*2, islandWidth).transl(-islandLength/2+ellipseConstant, 0, 0))
hIsland = hIsland.add(rect(6.356692958344406e-09, 1.543076653237899e-09).transl(-8.535242009621203e-09, -4e-08, 0))
hIsland = hIsland.sub(rect(8.533271288756809e-09, -8.526938917174431e-10).transl(8.598659200589439e-08, -3.329891561404983e-08, 0))
hIsland = hIsland.sub(rect(3.1743405183357497e-09, -2.1449389486618752e-09).transl(2.3164906066688518e-08, -4e-08, 0))
hIsland = hIsland.sub(rect(5.215501327305861e-09, -1.6544280526710345e-09).transl(3.0464585993539e-08, -4e-08, 0))
hIsland = hIsland.add(rect(5.722263945795822e-09, 9.006796066372992e-10).transl(6.602481782384305e-08, -4e-08, 0))
hIsland = hIsland.add(rect(9.382882099730813e-09, 5.021016473985632e-09).transl(3.439694816935432e-08, -4e-08, 0))
hIsland = hIsland.sub(rect(2.260067482835731e-09, -1.8034071689517455e-09).transl(8.250669006092099e-08, -3.943549446138296e-08, 0))
hIsland = hIsland.add(rect(4.050024058556307e-09, 1.898766340353266e-09).transl(-5.722568687579332e-08, -4e-08, 0))
hIsland = hIsland.add(rect(6.871249544942015e-09, 1.0913604183326155e-09).transl(3.8669359617667694e-08, -4e-08, 0))
hIsland = hIsland.add(rect(5.557629600243271e-09, 1.8832866644248923e-09).transl(-8.821134695754436e-08, -2.3932611175699705e-08, 0))
hIsland = hIsland.add(rect(7.644232458692038e-09, 1.5590772747843873e-10).transl(-5.0448252515438465e-08, -4e-08, 0))
hIsland = hIsland.add(rect(9.35015048701136e-09, 5.205851170640395e-10).transl(3.493672962587753e-08, -4e-08, 0))
hIsland = hIsland.add(rect(2.4564329020781433e-09, 4.4590546026114676e-09).transl(-1.389440828224279e-08, -4e-08, 0))
hIsland = hIsland.sub(rect(7.4210919331818e-09, -2.0007272964555017e-09).transl(-4.025392719799325e-09, -4e-08, 0))
hIsland = hIsland.sub(rect(9.93088476959305e-09, -2.0082011599591848e-09).transl(-2.0866208648599462e-08, -4e-08, 0))
hIsland = hIsland.add(rect(6.872944728853272e-09, 1.0438860423638009e-09).transl(3.9345106925381854e-08, -4e-08, 0))
hIsland = hIsland.sub(rect(9.762955307085236e-09, -8.839575982397188e-10).transl(-5.2253911487543344e-08, -4e-08, 0))
hIsland = hIsland.add(rect(9.746856004731172e-09, 2.506757017139262e-09).transl(2.4882432724127675e-09, -4e-08, 0))
hIsland = hIsland.sub(rect(9.158279717573311e-09, -1.1172975172636669e-09).transl(-3.255395183030693e-08, -4e-08, 0))
hIsland = hIsland.sub(rect(7.005462290129016e-09, -5.359583666896414e-10).transl(1.9124673441464863e-08, -4e-08, 0))
hIsland = hIsland.sub(rect(6.9926871435275984e-09, -2.7096922621267526e-09).transl(3.400964279896785e-08, -4e-08, 0))
hIsland = hIsland.sub(rect(4.9079218498037406e-09, -8.642856795531751e-10).transl(-3.1853227924139267e-08, -4e-08, 0))
hIsland = hIsland.sub(rect(8.70526757763718e-09, -1.0806351934285462e-09).transl(-3.621424139285408e-08, -4e-08, 0))
hIsland = hIsland.sub(rect(4.046580679139295e-09, -5.593445731367413e-10).transl(-2.5493487342126965e-08, -4e-08, 0))
hIsland = hIsland.sub(rect(5.029231464137409e-09, -2.4344806614371007e-09).transl(-5.739433521860918e-08, -4e-08, 0))
hIsland = hIsland.sub(rect(9.10606245093288e-09, -1.755315897656957e-09).transl(-2.4460556120570614e-08, -4e-08, 0))
hIsland = hIsland.sub(rect(6.63515187581565e-09, -4.383833188478671e-10).transl(-8.913541595226733e-08, -1.7106785764196348e-08, 0))
hIsland = hIsland.add(rect(6.5362029795339345e-09, 2.0563233115685149e-10).transl(5.8461683938219855e-08, -4e-08, 0))
hIsland = hIsland.sub(rect(8.135789001326149e-09, -1.808784893811917e-09).transl(-8.227664702394657e-08, -3.959552846091e-08, 0))
hIsland = hIsland.sub(rect(5.436708316182204e-09, -2.5188912443101647e-09).transl(7.773711556280807e-08, -4e-08, 0))
hIsland = hIsland.sub(rect(2.54482242310119e-09, -7.75318527144618e-10).transl(2.2494047644600505e-08, -4e-08, 0))
hIsland = hIsland.add(rect(9.3397338059833e-09, 2.902303529186051e-09).transl(7.395756561215867e-08, -4e-08, 0))
hIsland = hIsland.sub(rect(4.093675393591799e-09, -1.1361564254180319e-09).transl(-4.328689398470859e-08, -4e-08, 0))
hIsland = hIsland.sub(rect(2.0483734018946703e-09, -3.733857264558639e-10).transl(-1.5965196004749427e-08, -4e-08, 0))
hIsland = hIsland.sub(rect(6.772766797648186e-09, -1.0693762702236504e-09).transl(-7.41405184412119e-08, -4e-08, 0))
hIsland = hIsland.add(rect(5.374388408868525e-09, 2.2879630958819857e-09).transl(-8.396680242843309e-08, -3.776420235839491e-08, 0))
hIsland = hIsland.sub(rect(7.239090328479298e-09, -1.0337349767710802e-09).transl(-3.6919983237006397e-08, -4e-08, 0))
hIsland = hIsland.sub(rect(7.936904455429761e-09, -1.7833538684589157e-09).transl(-4.759732456314838e-09, -4e-08, 0))
hIsland = hIsland.add(rect(3.825453128121721e-09, 3.0529955887567328e-09).transl(4.5942585604611224e-08, -4e-08, 0))
hIsland = hIsland.add(rect(3.891259833985683e-09, 6.048180172637775e-09).transl(-2.0159468191960912e-08, -4e-08, 0))
hIsland = hIsland.sub(rect(2.5354733034105765e-09, -4.35829269043496e-09).transl(-4.553456828693643e-08, -4e-08, 0))
hIsland = hIsland.add(rect(2.9876301626981025e-09, 2.1058174819219136e-09).transl(-7.1783598400754e-08, -4e-08, 0))
hIsland = hIsland.sub(rect(6.545282396969893e-09, -1.3315412603381969e-09).transl(8.38538730582774e-08, -3.7935724344937466e-08, 0))
hIsland = hIsland.add(rect(5.180397327992487e-09, 4.947039313766708e-09).transl(-8.01285906775055e-08, -4e-08, 0))
hIsland = hIsland.add(rect(7.76135718802979e-09, 2.724083823354351e-09).transl(-6.550504867472246e-08, -4e-08, 0))
hIsland = hIsland.add(rect(7.198008053148897e-09, 1.4033607549590383e-11).transl(-3.5032623007071364e-08, -4e-08, 0))
hIsland = hIsland.add(rect(6.069639462819587e-09, 9.717449411220715e-11).transl(5.544340726951061e-09, -4e-08, 0))
hIsland = hIsland.add(rect(3.447760177718981e-09, 3.2415786314797564e-09).transl(3.2575392789121256e-08, -4e-08, 0))
hIsland = hIsland.sub(rect(9.65393938064835e-09, -1.1744806686413231e-09).transl(8.873365995723017e-08, -2.0459175207991747e-08, 0))
hIsland = hIsland.add(rect(8.078296711304143e-09, 3.523315105467115e-09).transl(8.360985930733842e-08, -3.828125529009806e-08, 0))
hIsland = hIsland.add(rect(7.424009916870656e-09, 1.8087545131155754e-09).transl(-6.33267426144212e-08, -4e-08, 0))
hIsland = hIsland.sub(rect(2.380673496253099e-09, -3.360349495288387e-10).transl(-4.935359077293652e-09, -4e-08, 0))
hIsland = hIsland.sub(rect(4.979897813431696e-09, -6.76915012758634e-10).transl(1.7000168440629326e-08, -4e-08, 0))
hIsland = hIsland.sub(rect(3.156976084676158e-09, -1.6314705860785533e-09).transl(7.395583830663585e-08, -4e-08, 0))
hIsland = hIsland.sub(rect(2.701468724946179e-09, -2.1356759826322865e-09).transl(-3.5652500566734897e-08, -4e-08, 0))
hIsland = hIsland.sub(rect(4.661827906059088e-09, -9.816604023193065e-10).transl(6.533126147142361e-08, -4e-08, 0))
hIsland = hIsland.add(rect(6.1341070376553856e-09, 2.056827562171122e-09).transl(3.351975780212505e-08, -4e-08, 0))
hIsland = hIsland.add(rect(4.892112259703846e-09, 1.2363140858378073e-09).transl(-3.8810970986592014e-08, -4e-08, 0))
hIsland = hIsland.sub(rect(5.761513385487286e-09, -1.4331741421987939e-09).transl(3.771804602814516e-08, -4e-08, 0))
hIsland = hIsland.sub(rect(4.761444090263972e-09, -8.691780036541181e-10).transl(-7.350205029173396e-08, -4e-08, 0))
hIsland = hIsland.add(rect(7.824501252492018e-09, 3.787836968096802e-09).transl(-2.071237183853279e-08, -4e-08, 0))
hIsland = hIsland.sub(rect(6.514225862349496e-09, -3.068696134971319e-09).transl(1.9319770148774696e-08, -4e-08, 0))
hIsland = hIsland.sub(rect(6.192324770088677e-09, -9.67243617447244e-10).transl(2.8140815519939215e-08, -4e-08, 0))
hIsland = hIsland.add(rect(3.913422557505588e-09, 4.494026608228929e-09).transl(4.252454004273095e-08, -4e-08, 0))
hIsland = hIsland.add(rect(5.958330645227213e-09, 6.019682446945521e-10).transl(2.315980348689552e-08, -4e-08, 0))
hIsland = hIsland.add(rect(8.705650148951286e-09, 2.3743883772699395e-09).transl(7.057459484784596e-09, -4e-08, 0))
hIsland = hIsland.add(rect(8.838953713727645e-09, 1.2307444958109688e-09).transl(3.802469624043057e-09, -4e-08, 0))
hIsland = hIsland.sub(rect(7.254368342425371e-09, -1.4633590892218063e-09).transl(-5.3118982452160456e-08, -4e-08, 0))
hIsland = hIsland.sub(rect(7.289763121780165e-09, -1.3780145107594921e-09).transl(3.6066413523129285e-08, -4e-08, 0))
hIsland = hIsland.sub(rect(4.919333945714038e-09, -1.5113235844379273e-09).transl(-2.8902106168855347e-08, -4e-08, 0))
hIsland = hIsland.add(rect(5.168352834361993e-09, 1.4120954248759092e-09).transl(-1.3934507167754197e-08, -4e-08, 0))
hIsland = hIsland.sub(rect(2.0205133465304173e-09, -2.23893012509491e-09).transl(-2.653159547048919e-08, -4e-08, 0))
hIsland = hIsland.sub(rect(2.4189164351477317e-09, -3.822487767196993e-10).transl(-4.1884634058566885e-08, -4e-08, 0))
hIsland = hIsland.sub(rect(4.170240754247754e-09, -1.1402664386590755e-10).transl(8.884773679337103e-08, -1.9582318667221433e-08, 0))
hIsland = hIsland.add(rect(4.682444837079278e-09, 2.262839779947234e-09).transl(-4.16234388615802e-08, -4e-08, 0))
hIsland = hIsland.add(rect(2.2770129971669005e-09, 2.368745439286324e-09).transl(-4.586295206454562e-08, -4e-08, 0))
hIsland = hIsland.add(rect(5.570567120800435e-09, 1.3798282566916207e-09).transl(-7.892425398411269e-08, -4e-08, 0))
hIsland = hIsland.add(rect(5.248287977037049e-09, 2.1547918736510283e-10).transl(-3.9266039261349274e-09, -4e-08, 0))
hIsland = hIsland.sub(rect(8.85161379299736e-09, -4.610276459916057e-09).transl(6.438668201232101e-09, -4e-08, 0))
hIsland = hIsland.add(rect(3.870881230307116e-09, 3.728541501793388e-09).transl(4.183999222866163e-08, -4e-08, 0))
hIsland = hIsland.add(rect(3.5656333233621597e-09, 2.24513062675099e-09).transl(8.690535479556686e-08, -3.018520109597508e-08, 0))
hIsland = hIsland.sub(rect(5.948522147674917e-09, -4.0976330963279007e-10).transl(8.75992476273592e-09, -4e-08, 0))
hIsland = hIsland.add(rect(9.06499684247278e-09, 1.3382729311219522e-09).transl(4.779116870168607e-08, -4e-08, 0))
hIsland = hIsland.add(rect(8.630323661877562e-09, 2.232389272146344e-09).transl(9.009291147608549e-09, -4e-08, 0))
hIsland = hIsland.sub(rect(8.523531173349267e-09, -2.2244650605648413e-09).transl(2.000635637400104e-08, -4e-08, 0))
hIsland = hIsland.sub(rect(5.872517825775479e-09, -9.443661578915706e-10).transl(-3.3913722334013234e-08, -4e-08, 0))
hIsland = hIsland.sub(rect(5.3619992950560185e-09, -3.5820888026404354e-09).transl(-5.2977517158820293e-08, -4e-08, 0))
hIsland = hIsland.sub(rect(9.272357927840979e-09, -1.886112534567147e-09).transl(7.340595502795813e-08, -4e-08, 0))
hIsland = hIsland.add(rect(2.396146584918798e-09, 8.146942854322096e-10).transl(1.5479802028607175e-08, -4e-08, 0))
hIsland = hIsland.add(rect(3.74371860878397e-09, 9.894686265217312e-10).transl(-6.874963809303586e-08, -4e-08, 0))
hIsland = hIsland.sub(rect(7.060658253928084e-09, -3.78154034177334e-09).transl(6.456479242014325e-08, -4e-08, 0))
hIsland = hIsland.add(rect(5.57293924179847e-09, 6.667654968570466e-11).transl(3.086342096979808e-08, -4e-08, 0))
hIsland = hIsland.sub(rect(5.219963815791321e-09, -9.500990844695388e-10).transl(5.276412876781919e-08, -4e-08, 0))
hIsland = hIsland.add(rect(2.973544766369874e-09, 8.487486358485076e-11).transl(2.584536157165043e-08, -4e-08, 0))
hIsland = hIsland.sub(rect(5.288401191733736e-09, -7.460041885013737e-10).transl(-1.9941478526897473e-08, -4e-08, 0))
hIsland = hIsland.add(rect(7.691707364910148e-09, 1.338691756354145e-09).transl(-3.333710444181361e-08, -4e-08, 0))
hIsland = hIsland.add(rect(9.834830485963839e-09, 1.7481236528753905e-09).transl(-6.556726661298968e-08, -4e-08, 0))
hIsland = hIsland.sub(rect(7.935480683866736e-09, -2.132824676650776e-09).transl(7.127863635458887e-08, -4e-08, 0))
hIsland = hIsland.add(rect(8.120812549331618e-09, 1.2686675991987354e-09).transl(-1.3020378646698579e-08, -4e-08, 0))
hIsland = hIsland.add(rect(4.524815073883372e-09, 1.378361803322145e-09).transl(-3.496279236828529e-08, -4e-08, 0))
hIsland = hIsland.sub(rect(4.1387411417806116e-09, -1.471872009406488e-09).transl(-7.611260821934189e-08, -4e-08, 0))
hIsland = hIsland.sub(rect(6.064700367246881e-09, -9.037546649707901e-11).transl(-2.312630094357891e-08, -4e-08, 0))
hIsland = hIsland.sub(rect(8.343372973098057e-09, -9.473601647710138e-10).transl(3.237808798601758e-09, -4e-08, 0))
hIsland = hIsland.add(rect(4.266303571698464e-09, 4.700159450978469e-10).transl(1.589451356492377e-08, -4e-08, 0))
hIsland = hIsland.add(rect(6.168321248862894e-09, 2.3443058173192538e-09).transl(2.8561544489184597e-08, -4e-08, 0))
hIsland = hIsland.add(rect(9.455971867354419e-09, 1.8628522501918608e-10).transl(-1.9030023262849818e-08, -4e-08, 0))
hIsland = hIsland.sub(rect(8.851549231135736e-09, -2.3463996105534304e-09).transl(7.281552870113236e-08, -4e-08, 0))
hIsland = hIsland.add(rect(6.66660847809227e-09, 2.621037215645904e-09).transl(-8.334593353580244e-08, -3.861723426315329e-08, 0))
hIsland = hIsland.sub(rect(8.66464929826132e-09, -2.1858176406848303e-10).transl(-2.654473866133432e-08, -4e-08, 0))
hIsland = hIsland.add(rect(5.2587966554900745e-09, 7.357915419674448e-10).transl(-2.5754755035061254e-08, -4e-08, 0))
hIsland = hIsland.add(rect(2.878904253153074e-09, 4.15399312383573e-09).transl(-3.6510445695010915e-09, -4e-08, 0))
hIsland = hIsland.sub(rect(5.128874990622645e-09, -2.7519670513248615e-10).transl(-6.503988139904025e-08, -4e-08, 0))
hIsland = hIsland.add(rect(7.578046070922677e-09, 6.092332778289369e-10).transl(5.607763268488675e-08, -4e-08, 0))
hIsland = hIsland.add(rect(9.060081563593473e-09, 2.001651637902303e-09).transl(-4.8653587476247766e-08, -4e-08, 0))
hIsland = hIsland.sub(rect(2.5590576376783033e-09, -1.098853609789975e-09).transl(-1.14950640547677e-08, -4e-08, 0))
hIsland = hIsland.add(rect(4.9146978844273805e-09, 5.510349105763417e-11).transl(7.590539814747906e-08, -4e-08, 0))
hIsland = hIsland.sub(rect(3.09484679045207e-09, -4.033233955999009e-10).transl(8.051770251910736e-08, -4e-08, 0))
hIsland = hIsland.sub(rect(8.83575256311223e-09, -1.2406551188581736e-09).transl(8.56562448530738e-09, -4e-08, 0))
hIsland = hIsland.add(rect(6.3013314849448135e-09, 1.7149935159665687e-09).transl(1.058107009712953e-09, -4e-08, 0))
hIsland = hIsland.sub(rect(5.247268658294417e-09, -2.412881138140749e-09).transl(-5.257793509811102e-09, -4e-08, 0))
hIsland = hIsland.sub(rect(6.524835100308357e-09, -4.393136798614066e-09).transl(6.482712113422337e-08, -4e-08, 0))
hIsland = hIsland.sub(rect(9.116633452792095e-09, -1.6675839545651736e-09).transl(1.7810732391248827e-08, -4e-08, 0))
hIsland = hIsland.sub(rect(6.529692104619686e-09, -1.1341175047588588e-09).transl(-2.4142528757953975e-08, -4e-08, 0))
hIsland = hIsland.add(rect(7.2487733019697195e-09, 1.034502139945e-09).transl(-1.8798026555791477e-08, -4e-08, 0))
hIsland = hIsland.add(rect(9.985473615327867e-09, 2.7553183171526986e-10).transl(4.748745779659663e-08, -4e-08, 0))
hIsland = hIsland.add(rect(7.98049520234773e-09, 6.559746467429334e-10).transl(-2.9794084517963634e-08, -4e-08, 0))
hIsland = hIsland.add(rect(8.269127537632647e-09, 3.736537143562286e-10).transl(2.5801528936726527e-08, -4e-08, 0))
hIsland = hIsland.add(rect(9.749067336406644e-09, 1.1827700321398403e-09).transl(-4.387589048575724e-08, -4e-08, 0))
hIsland = hIsland.add(rect(8.097363622489749e-09, 1.8964593536329753e-09).transl(7.51128797659886e-08, -4e-08, 0))
hIsland = hIsland.sub(rect(3.599322447448324e-09, -1.9874836888985887e-09).transl(8.338843688130829e-08, -3.8565735259153794e-08, 0))
hIsland = hIsland.sub(rect(2.343424812562561e-09, -2.6812108959826877e-11).transl(-3.3741073584638966e-08, -4e-08, 0))
hIsland = hIsland.add(rect(9.272850919065314e-09, 2.2422220160191028e-10).transl(-1.3312599306360855e-08, -4e-08, 0))
hIsland = hIsland.sub(rect(7.593374542379041e-09, -1.3598059999599304e-09).transl(-2.8939568570010148e-09, -4e-08, 0))
hIsland = hIsland.add(rect(4.633433830515465e-09, 3.799879430780863e-10).transl(-6.514933349231107e-08, -4e-08, 0))
hIsland = hIsland.add(rect(5.350541203383789e-09, 4.163478156827004e-09).transl(8.556821843867374e-08, -3.446418940780436e-08, 0))
hIsland = hIsland.sub(rect(6.527101431470894e-09, -1.1561267540598597e-09).transl(-5.997330112629948e-08, -4e-08, 0))
hIsland = hIsland.sub(rect(8.048189722659972e-09, -2.795362914864127e-09).transl(-1.1218080324047225e-08, -4e-08, 0))
hIsland = hIsland.sub(rect(8.139818981915387e-09, -1.613221482125346e-09).transl(-1.3311754643089729e-08, -4e-08, 0))
hIsland = hIsland.add(rect(3.458315163261663e-09, 2.0507741351537988e-09).transl(3.510879109677122e-08, -4e-08, 0))
hIsland = hIsland.add(rect(9.569895372075609e-09, 1.587118500055367e-09).transl(-2.958102752286408e-08, -4e-08, 0))
hIsland = hIsland.add(rect(5.427432849666939e-09, 2.0101640660465376e-09).transl(7.234028277787929e-08, -4e-08, 0))
hIsland = hIsland.add(rect(4.627845088034807e-09, 3.973800935947198e-09).transl(7.964451440159662e-08, -4e-08, 0))
hIsland = hIsland.sub(rect(4.075904390356105e-09, -1.6398687485124208e-09).transl(-4.596265002653998e-09, -4e-08, 0))
hIsland = hIsland.sub(rect(3.699610414602079e-09, -2.1153313115663085e-09).transl(6.620894052228372e-09, -4e-08, 0))
hIsland = hIsland.sub(rect(8.195925654330871e-09, -1.4634729900568968e-09).transl(-4.877136647267701e-08, -4e-08, 0))
hIsland = hIsland.add(rect(3.551938437878654e-09, 3.116367785849908e-09).transl(3.505276196577685e-09, -4e-08, 0))
hIsland = hIsland.sub(rect(3.978725313552789e-09, -2.0631331728075258e-10).transl(3.8591882601651236e-08, -4e-08, 0))
hIsland = hIsland.add(rect(7.722409534466794e-09, 6.155842415420781e-10).transl(8.140329178917713e-08, -3.9959820742014994e-08, 0))
hIsland = hIsland.add(rect(5.176077331503128e-09, 8.513271359880706e-10).transl(2.698182356320084e-08, -4e-08, 0))
hIsland = hIsland.sub(rect(8.191083178555408e-09, -3.976315874241425e-09).transl(-3.627972555516923e-08, -4e-08, 0))
hIsland = hIsland.sub(rect(4.1250369758328074e-09, -1.4860845702869829e-09).transl(8.834735355937807e-08, -2.310102158972156e-08, 0))
hIsland = hIsland.sub(rect(2.72971333961112e-09, -9.466467649254764e-10).transl(3.448425775334106e-08, -4e-08, 0))
hIsland = hIsland.add(rect(3.302843781758773e-09, 1.706571721902635e-09).transl(5.3229503527641074e-08, -4e-08, 0))
hIsland = hIsland.add(rect(3.421035457486153e-09, 3.9426097750658595e-09).transl(-8.977212241832542e-09, -4e-08, 0))
hIsland = hIsland.add(rect(2.495052142020989e-09, 1.9211253923385946e-09).transl(7.175758515606728e-08, -4e-08, 0))
hIsland = hIsland.sub(rect(6.014768483393291e-09, -1.3093178383574388e-09).transl(-5.0495225940223445e-08, -4e-08, 0))
hIsland = hIsland.sub(rect(3.847272365883888e-09, -2.228504572588513e-10).transl(4.8030603309007497e-08, -4e-08, 0))
hIsland = hIsland.sub(rect(9.45618638472328e-09, -8.64505909430819e-10).transl(2.4358854929438228e-08, -4e-08, 0))
hIsland = hIsland.add(rect(6.00450321252157e-09, 1.0275090999931669e-09).transl(7.269404685965314e-08, -4e-08, 0))
hIsland = hIsland.sub(rect(3.6619570939529134e-09, -2.9693401101249836e-09).transl(7.399665209197643e-08, -4e-08, 0))
hIsland = hIsland.sub(rect(7.62631329482522e-09, -5.767281336532426e-10).transl(3.495280558897413e-08, -4e-08, 0))
hIsland = hIsland.add(rect(2.7708581085141315e-09, 1.0065235127625401e-09).transl(6.455667392808192e-10, -4e-08, 0))
hIsland = hIsland.sub(rect(4.517144492168674e-09, -2.872303002238878e-09).transl(5.8441531770610016e-08, -4e-08, 0))
hIsland = hIsland.sub(rect(3.239834089306306e-09, -2.7761805492168873e-10).transl(4.953151981363899e-08, -4e-08, 0))
hIsland = hIsland.sub(rect(2.7952610398613693e-09, -2.445397343350557e-09).transl(-8.492603906536014e-08, -3.599347465065688e-08, 0))
hIsland = hIsland.add(rect(6.822155781440747e-09, 4.885012371771996e-09).transl(1.2597580039967067e-09, -4e-08, 0))
hIsland = hIsland.add(rect(7.8606343594277e-09, 1.285950339995995e-09).transl(2.2022158937062307e-09, -4e-08, 0))
hIsland = hIsland.sub(rect(7.186801506061697e-09, -1.019274560577712e-09).transl(-2.4081313957232344e-09, -4e-08, 0))
hIsland = hIsland.sub(rect(6.765998484348397e-09, -2.317779974205741e-09).transl(5.6329771148105794e-08, -4e-08, 0))
hIsland = hIsland.sub(rect(2.7452523402381878e-09, -5.991826469872541e-10).transl(-7.180124558416475e-08, -4e-08, 0))
hIsland = hIsland.add(rect(2.1561963288781095e-09, 1.5721686850708972e-09).transl(-5.503423656921923e-08, -4e-08, 0))
hIsland = hIsland.sub(rect(8.937280563248262e-09, -1.3457172576047368e-09).transl(-5.026866928548136e-08, -4e-08, 0))
hIsland = hIsland.add(rect(5.070445344939382e-09, 4.2308039131563695e-10).transl(-5.865943218486052e-08, -4e-08, 0))
hIsland = hIsland.sub(rect(2.1042013727641865e-09, -2.0661986109635107e-09).transl(1.7301971916618271e-09, -4e-08, 0))
hIsland = hIsland.sub(rect(6.343220005184256e-09, -5.339986573320048e-10).transl(-7.908721603773695e-08, -4e-08, 0))
hIsland = hIsland.add(rect(3.5825838561673555e-09, 3.448919116194824e-10).transl(1.5624851531561983e-08, -4e-08, 0))
hIsland = hIsland.add(rect(9.832850558342787e-09, 9.048661630836557e-12).transl(3.526724940657793e-08, -4e-08, 0))
hIsland = hIsland.add(rect(9.922189850104623e-09, 3.84862640044299e-09).transl(8.762339183723016e-08, -2.7082199728485695e-08, 0))
hIsland = hIsland.sub(rect(7.869792228065707e-09, -3.379816289219147e-10).transl(7.317125724645463e-08, -4e-08, 0))
hIsland = hIsland.sub(rect(9.301899351720903e-09, -5.35217471945556e-10).transl(-8.558716174626178e-08, -3.441445206430826e-08, 0))
hIsland = hIsland.sub(rect(3.506907277729899e-09, -1.2733460641456044e-09).transl(-6.533542461990683e-08, -4e-08, 0))
hIsland = hIsland.sub(rect(2.058845893879332e-09, -1.9010843102706753e-10).transl(3.97188001024984e-08, -4e-08, 0))
hIsland = hIsland.add(rect(8.551224210156705e-09, 2.4902329954869337e-09).transl(7.718627567379632e-08, -4e-08, 0))
hIsland = hIsland.add(rect(2.496973073442096e-09, 1.3501556489021835e-09).transl(-6.447734867525737e-08, -4e-08, 0))
hIsland = hIsland.sub(rect(6.899771734041865e-09, -9.282593192135907e-10).transl(-6.346845298102528e-08, -4e-08, 0))
hIsland = hIsland.add(rect(9.40278473523831e-09, 9.636120882964796e-10).transl(-8.693553622623082e-08, -3.0068041261869174e-08, 0))
hIsland = hIsland.add(rect(5.704094611754635e-09, 1.6881973507485952e-09).transl(2.9258171495515433e-08, -4e-08, 0))
hIsland = hIsland.add(rect(3.0086396041996757e-09, 2.0453501131652174e-09).transl(-3.025735337742139e-08, -4e-08, 0))
hIsland = hIsland.sub(rect(5.946388537870081e-09, -4.458651989703591e-09).transl(1.2185688425896498e-08, -4e-08, 0))
hIsland = hIsland.add(rect(3.4545549788418087e-09, 2.101186233386914e-11).transl(4.423541557967729e-08, -4e-08, 0))
hIsland = hIsland.sub(rect(7.259643523818607e-09, -2.1926927727786783e-09).transl(2.2183125373523263e-08, -4e-08, 0))
hIsland = hIsland.sub(rect(5.681589658515148e-09, -1.3474207947643753e-09).transl(-8.859638372592404e-08, -2.1451042986420644e-08, 0))
hIsland = hIsland.sub(rect(4.6889609229197816e-09, -5.575059858914819e-10).transl(2.8055276301077137e-08, -4e-08, 0))
hIsland = hIsland.sub(rect(8.31141941990538e-09, -1.406580645930926e-09).transl(4.83804344702004e-09, -4e-08, 0))
hIsland = hIsland.sub(rect(6.569621560632348e-09, -1.4536000778954858e-09).transl(1.3305139484641971e-08, -4e-08, 0))
hIsland = hIsland.sub(rect(2.202409967757464e-09, -5.403066503986192e-10).transl(-8.682594600322753e-08, -3.0488484988408997e-08, 0))
hIsland = hIsland.sub(rect(4.5241906857123765e-09, -7.406531369243804e-10).transl(3.825766423685341e-08, -4e-08, 0))
hIsland = hIsland.add(rect(4.001223456170169e-09, 2.350734784162418e-09).transl(1.0193204842485746e-08, -4e-08, 0))
hIsland = hIsland.sub(rect(7.481600645091435e-09, -6.258205938442269e-10).transl(-1.7603107878506964e-08, -4e-08, 0))
hIsland = hIsland.add(rect(9.643991930037882e-09, 3.4611177089420564e-10).transl(8.014494039077812e-09, -4e-08, 0))
hIsland = hIsland.add(rect(8.939262417474573e-09, 3.070091735806354e-09).transl(1.3739193507846386e-08, 4e-08, 0))
hIsland = hIsland.sub(rect(5.802862859164838e-09, -1.0539753783611255e-09).transl(1.2093122284589022e-08, 4e-08, 0))
hIsland = hIsland.sub(rect(9.233667117773052e-09, -4.646532275383301e-09).transl(5.3108389638069505e-08, 4e-08, 0))
hIsland = hIsland.sub(rect(3.0432906890523957e-09, -4.410826079979131e-09).transl(-1.6404768644981442e-08, 4e-08, 0))
hIsland = hIsland.add(rect(3.1025785011028052e-09, 3.3045169605540485e-10).transl(4.831904588195879e-08, 4e-08, 0))
hIsland = hIsland.add(rect(7.921944675614474e-09, 1.0197261769796932e-09).transl(5.240675330813442e-09, 4e-08, 0))
hIsland = hIsland.sub(rect(7.733167484408086e-09, -3.190974354388694e-09).transl(-8.560156072846927e-09, 4e-08, 0))
hIsland = hIsland.sub(rect(5.5369743143063016e-09, -1.8394171876485364e-09).transl(-2.7892267048871113e-08, 4e-08, 0))
hIsland = hIsland.sub(rect(9.475791557118743e-09, -1.1382001570905439e-10).transl(-7.769993539938177e-08, 4e-08, 0))
hIsland = hIsland.sub(rect(3.495685184023195e-09, -3.6338178728186915e-10).transl(1.6598861560258866e-08, 4e-08, 0))
hIsland = hIsland.add(rect(5.364146817557871e-09, 4.414878525737153e-10).transl(5.1389511918907384e-08, 4e-08, 0))
hIsland = hIsland.add(rect(7.73600752104859e-09, 8.406540612917464e-10).transl(-4.587661478840658e-09, 4e-08, 0))
hIsland = hIsland.sub(rect(6.861765444470046e-09, -2.5280891220083327e-10).transl(-8.654049059890011e-08, 3.15220366339266e-08, 0))
hIsland = hIsland.add(rect(4.643390172333093e-09, 2.7937329493015826e-09).transl(3.12888004786589e-08, 4e-08, 0))
hIsland = hIsland.sub(rect(9.352826956280759e-09, -7.353341518591597e-10).transl(-4.799982125891251e-08, 4e-08, 0))
hIsland = hIsland.sub(rect(5.855296721258185e-09, -1.101163592334521e-09).transl(2.771346478676226e-08, 4e-08, 0))
hIsland = hIsland.add(rect(8.250734205425016e-09, 5.036754618335451e-10).transl(-2.0743962606389257e-08, 4e-08, 0))
hIsland = hIsland.add(rect(9.945595343696266e-09, 2.0143586160343374e-09).transl(-1.0081851628764745e-08, 4e-08, 0))
hIsland = hIsland.add(rect(3.747740992956891e-09, 5.866452760296169e-10).transl(2.5694139533472077e-08, 4e-08, 0))
hIsland = hIsland.add(rect(5.5427639866370854e-09, 2.0545709696149092e-09).transl(-2.505861977138734e-08, 4e-08, 0))
hIsland = hIsland.add(rect(8.191334683014411e-09, 3.4223742333338184e-09).transl(8.245704278567894e-08, 3.947232850296453e-08, 0))
hIsland = hIsland.add(rect(7.920221346037597e-09, 1.1558058446215915e-09).transl(2.329219102108323e-08, 4e-08, 0))
hIsland = hIsland.add(rect(7.331843159802144e-09, 1.5309819506181163e-09).transl(3.1682225579020606e-08, 4e-08, 0))
hIsland = hIsland.sub(rect(7.252508074801701e-09, -2.411281653203246e-09).transl(-3.468852872709632e-08, 4e-08, 0))
hIsland = hIsland.sub(rect(5.174576761279643e-09, -2.4515002623023567e-09).transl(8.732415163483964e-08, 2.8460101975145126e-08, 0))
hIsland = hIsland.sub(rect(3.2681189557660864e-09, -1.646819465090203e-09).transl(2.3271376634694464e-08, 4e-08, 0))
hIsland = hIsland.add(rect(3.9206015627927464e-09, 1.5000638812715085e-09).transl(-5.042076964562882e-09, 4e-08, 0))
hIsland = hIsland.add(rect(6.897345578857022e-09, 4.049289817492187e-10).transl(-2.2353246283468053e-08, 4e-08, 0))
hIsland = hIsland.sub(rect(4.495210472663944e-09, -9.799692464886552e-10).transl(8.916272722846422e-09, 4e-08, 0))
hIsland = hIsland.add(rect(6.634681086755295e-09, 4.745709689146774e-10).transl(-3.833284294412549e-09, 4e-08, 0))
hIsland = hIsland.sub(rect(2.075994661450037e-09, -1.5462351078311376e-09).transl(-1.3019640888109967e-08, 4e-08, 0))
hIsland = hIsland.add(rect(4.892167923361299e-09, 4.118407215175582e-10).transl(-4.990560672739635e-08, 4e-08, 0))
hIsland = hIsland.add(rect(7.2452783216867904e-09, 9.202624022267754e-10).transl(-5.873965213896014e-08, 4e-08, 0))
hIsland = hIsland.add(rect(5.544718316975225e-09, 4.447411425828454e-10).transl(-4.413622606428851e-08, 4e-08, 0))
hIsland = hIsland.add(rect(5.480229772433187e-09, 3.616712007674723e-09).transl(-8.67422885817812e-08, 3.0800391802396654e-08, 0))
hIsland = hIsland.add(rect(3.494316416520557e-09, 1.659316296819346e-10).transl(5.410835206304382e-09, 4e-08, 0))
hIsland = hIsland.add(rect(7.483008001077744e-09, 1.1402307521184965e-09).transl(8.58752493648979e-08, 3.3623020811566985e-08, 0))
hIsland = hIsland.add(rect(9.159500363587033e-09, 4.0113328227130843e-10).transl(-3.345567239168154e-08, 4e-08, 0))
hIsland = hIsland.add(rect(7.015258404826584e-09, 8.742112065662813e-11).transl(-8.794861859253799e-08, 2.5421561629115643e-08, 0))
hIsland = hIsland.add(rect(5.603482142300992e-09, 4.32832125591078e-09).transl(8.25360862504447e-08, 3.941308651032692e-08, 0))
hIsland = hIsland.add(rect(2.141716900030949e-09, 4.906782017607542e-10).transl(-8.369826669255104e-08, 3.815998986874358e-08, 0))
hIsland = hIsland.sub(rect(3.884230028286437e-09, -2.5969626321227074e-10).transl(-2.4428850415939736e-08, 4e-08, 0))
hIsland = hIsland.add(rect(8.532301242614651e-09, 2.533230865949828e-09).transl(-6.222411724289113e-08, 4e-08, 0))
hIsland = hIsland.sub(rect(8.441754747400936e-09, -3.81500878926159e-09).transl(-5.763181401481256e-08, 4e-08, 0))
hIsland = hIsland.sub(rect(3.252439157002864e-09, -1.9881606533427465e-09).transl(-6.960501962787933e-08, 4e-08, 0))
hIsland = hIsland.add(rect(2.2187022295893135e-09, 3.308606990176142e-10).transl(-5.174597025728559e-10, 4e-08, 0))
hIsland = hIsland.sub(rect(8.26649035648455e-09, -5.465324799096481e-10).transl(2.0415263041901915e-08, 4e-08, 0))
hIsland = hIsland.add(rect(8.168166918482836e-09, 9.128367943248254e-10).transl(-4.927864380404555e-08, 4e-08, 0))
hIsland = hIsland.sub(rect(5.172078796638838e-09, -2.9397436734095707e-09).transl(8.060840956119155e-08, 4e-08, 0))
hIsland = hIsland.add(rect(8.96589535848073e-09, 7.840322812944045e-10).transl(-4.1856509355791995e-08, 4e-08, 0))
hIsland = hIsland.add(rect(9.736756653002197e-09, 7.143391976130428e-10).transl(-4.75375372866365e-08, 4e-08, 0))
hIsland = hIsland.sub(rect(4.94532232890955e-09, -9.395549359269348e-10).transl(5.018224040059726e-08, 4e-08, 0))
hIsland = hIsland.sub(rect(7.898005011693206e-09, -1.8563199186357733e-09).transl(8.750611333113067e-08, 2.763804474779581e-08, 0))
hIsland = hIsland.add(rect(4.177606105395566e-09, 4.387729193777276e-09).transl(-2.3897510136656937e-08, 4e-08, 0))
hIsland = hIsland.sub(rect(9.89652281039773e-09, -1.3089164265155003e-09).transl(5.071700294205707e-08, 4e-08, 0))
hIsland = hIsland.sub(rect(7.866235564995146e-09, -1.3481204300683745e-09).transl(-4.0652801553082167e-08, 4e-08, 0))
hIsland = hIsland.add(rect(2.1468209670601672e-09, 9.307773995815945e-10).transl(-8.387310158890705e-08, 3.790704348630983e-08, 0))
hIsland = hIsland.sub(rect(9.631316866326755e-09, -5.650112578088631e-10).transl(-2.645335854276821e-08, 4e-08, 0))
hIsland = hIsland.sub(rect(7.710155823156236e-09, -1.3723397969401853e-09).transl(7.945744247161549e-12, 4e-08, 0))
hIsland = hIsland.add(rect(4.905767507984526e-09, 4.685595091412075e-10).transl(8.5604328176167e-08, 3.436913977411908e-08, 0))
hIsland = hIsland.add(rect(4.387011952972425e-09, 2.8866374433252686e-09).transl(8.273371685290914e-08, 3.925081762116118e-08, 0))
hIsland = hIsland.sub(rect(4.947218698315019e-09, -1.7385624345689616e-09).transl(4.483059360751185e-08, 4e-08, 0))
hIsland = hIsland.sub(rect(3.724484243610239e-09, -1.0603884680607868e-09).transl(-4.341226049754215e-08, 4e-08, 0))
hIsland = hIsland.add(rect(8.824880853031328e-09, 3.763548143895436e-09).transl(-2.918079035534048e-08, 4e-08, 0))
hIsland = hIsland.sub(rect(3.661639800414812e-09, -4.401360565552816e-09).transl(-1.4113878704575119e-08, 4e-08, 0))
hIsland = hIsland.add(rect(3.776506565102591e-09, 5.182167744894699e-10).transl(1.4972892872147438e-09, 4e-08, 0))
hIsland = hIsland.add(rect(2.985567461000227e-09, 2.4012085195211363e-10).transl(-6.461260192950745e-08, 4e-08, 0))
hIsland = hIsland.sub(rect(8.166138479012917e-09, -4.774221092877542e-10).transl(7.954475521302521e-08, 4e-08, 0))
hIsland = hIsland.sub(rect(9.368001901398563e-09, -6.764722660112809e-10).transl(2.578114983434509e-08, 4e-08, 0))
hIsland = hIsland.add(rect(5.597386117768261e-09, 4.398365725892048e-11).transl(4.286436481814698e-08, 4e-08, 0))
hIsland = hIsland.sub(rect(3.695322045104667e-09, -1.0578506629697627e-10).transl(-5.5031561297501756e-08, 4e-08, 0))
hIsland = hIsland.sub(rect(6.742609668400358e-09, -4.357070239080783e-10).transl(-2.5646856410492507e-08, 4e-08, 0))
hIsland = hIsland.add(rect(8.130092008129981e-09, 2.7693943851140468e-09).transl(3.5529924517484287e-09, 4e-08, 0))
hIsland = hIsland.sub(rect(3.2694644886673867e-09, -2.616878389192193e-09).transl(-3.882747241757271e-08, 4e-08, 0))
hIsland = hIsland.sub(rect(2.905883222900659e-09, -4.110159085145641e-10).transl(5.808080249095602e-10, 4e-08, 0))
hIsland = hIsland.sub(rect(7.581624916152181e-09, -1.879661709951752e-09).transl(1.1178107203395984e-08, 4e-08, 0))
hIsland = hIsland.sub(rect(5.740329618285257e-09, -2.799090838988936e-09).transl(6.313411818168377e-08, 4e-08, 0))
hIsland = hIsland.add(rect(3.1307989593259234e-09, 7.095677866514044e-10).transl(7.827388646405268e-08, 4e-08, 0))
hIsland = hIsland.sub(rect(5.7740958903435565e-09, -1.9282984284673723e-09).transl(-6.732535533041939e-08, 4e-08, 0))
hIsland = hIsland.add(rect(2.702839633017553e-09, 5.212954025442945e-10).transl(-1.5146781108804806e-08, 4e-08, 0))
hIsland = hIsland.add(rect(3.1282041633234797e-09, 3.299639841740013e-10).transl(-1.2329444765522861e-08, 4e-08, 0))
hIsland = hIsland.add(rect(7.4248630946915276e-09, 7.643982257395276e-10).transl(-3.610634090129381e-08, 4e-08, 0))
hIsland = hIsland.sub(rect(3.5275696618829983e-09, -1.2039833198113488e-09).transl(4.440993820809757e-08, 4e-08, 0))
hIsland = hIsland.sub(rect(2.602932666217982e-09, -1.2271096517914363e-10).transl(2.7542618780356937e-08, 4e-08, 0))
hIsland = hIsland.add(rect(3.493106500585281e-09, 1.3980717226731404e-09).transl(8.313576966205217e-08, 3.8857381001356676e-08, 0))
hIsland = hIsland.add(rect(3.2883093092442376e-09, 1.8755594726885308e-10).transl(-2.4195105316459526e-08, 4e-08, 0))
hIsland = hIsland.add(rect(7.635755442315147e-09, 1.4365614283164482e-09).transl(6.754430955363799e-08, 4e-08, 0))
hIsland = hIsland.sub(rect(5.541510096369836e-09, -1.6713300356653306e-09).transl(-6.615637810769617e-08, 4e-08, 0))
hIsland = hIsland.sub(rect(2.065007145910679e-09, -2.2120709953024617e-09).transl(-5.4091751771783753e-08, 4e-08, 0))
hIsland = hIsland.sub(rect(5.614356789159513e-09, -2.155634688058719e-09).transl(8.578226099185817e-08, 3.388578632231391e-08, 0))
hIsland = hIsland.add(rect(4.0840936719862585e-09, 4.696594043568808e-10).transl(4.461080191762512e-08, 4e-08, 0))
hIsland = hIsland.add(rect(6.576344827944533e-09, 7.262772226774755e-11).transl(3.142982249859329e-08, 4e-08, 0))
hIsland = hIsland.sub(rect(4.841958630516558e-09, -1.9449455310809728e-10).transl(5.239866512255878e-08, 4e-08, 0))
hIsland = hIsland.sub(rect(4.756938954956873e-09, -1.611502571723323e-09).transl(6.708338834814406e-08, 4e-08, 0))
hIsland = hIsland.add(rect(9.014153447556087e-09, 2.7538942412702493e-09).transl(-1.95700455711128e-08, 4e-08, 0))
hIsland = hIsland.sub(rect(8.258194817666352e-09, -1.974370430157585e-09).transl(2.50145111399234e-08, 4e-08, 0))
hIsland = hIsland.add(rect(3.6550238938580446e-09, 1.4011015463595514e-09).transl(-8.559634748136813e-08, 3.439023399430614e-08, 0))
hIsland = hIsland.add(rect(8.11702831206182e-09, 2.672749378908759e-09).transl(4.678050883850559e-08, 4e-08, 0))
hIsland = hIsland.sub(rect(3.4098892593415027e-09, -2.274127215531571e-09).transl(2.200935640478789e-08, 4e-08, 0))
hIsland = hIsland.sub(rect(5.193790223195844e-09, -8.200104512365671e-11).transl(1.288347191754235e-08, 4e-08, 0))
hIsland = hIsland.sub(rect(6.129205678121716e-09, -1.5695750618442165e-09).transl(-5.940618894882235e-08, 4e-08, 0))
hIsland = hIsland.add(rect(8.725978030256446e-09, 7.586176878581302e-10).transl(3.6477375763521296e-08, 4e-08, 0))
hIsland = hIsland.sub(rect(9.248997091064332e-09, -5.092276263170789e-10).transl(-8.584472328693381e-08, 3.37100655438944e-08, 0))
hIsland = hIsland.sub(rect(9.948361070559645e-09, -5.917162739410476e-10).transl(-8.684451497785474e-08, 3.041820269643843e-08, 0))
hIsland = hIsland.sub(rect(2.585822821384279e-09, -7.10211013516939e-10).transl(-3.4225112964714364e-08, 4e-08, 0))
hIsland = hIsland.sub(rect(8.409815613399467e-09, -1.46407701651489e-09).transl(2.4786738371956134e-08, 4e-08, 0))
hIsland = hIsland.sub(rect(6.840503725320587e-09, -1.8500580367217261e-09).transl(1.4212028085578152e-08, 4e-08, 0))
hIsland = hIsland.sub(rect(3.920774731908336e-09, -3.8774654626043474e-09).transl(2.8206214248800897e-08, 4e-08, 0))
hIsland = hIsland.sub(rect(5.431943274959985e-09, -1.2376902186099834e-09).transl(-5.023738331774962e-08, 4e-08, 0))
hIsland = hIsland.add(rect(4.653632432652223e-09, 1.1744881339355001e-11).transl(-5.5459877387149933e-08, 4e-08, 0))
hIsland = hIsland.sub(rect(9.494769252192125e-09, -2.23157121609432e-09).transl(-4.563343140451327e-08, 4e-08, 0))
hIsland = hIsland.add(rect(9.492495812121049e-09, 2.7644206203191986e-10).transl(2.755923994998711e-08, 4e-08, 0))
hIsland = hIsland.add(rect(2.517485902035185e-09, 8.16289426270643e-10).transl(5.188203766648413e-08, 4e-08, 0))
hIsland = hIsland.add(rect(6.431563021077558e-09, 8.825980220798488e-10).transl(1.0326293622346804e-08, 4e-08, 0))
hIsland = hIsland.add(rect(9.634269159573469e-09, 1.6439087308779818e-10).transl(-6.659972258860163e-09, 4e-08, 0))
hIsland = hIsland.add(rect(3.852364811262189e-09, 2.1503215261759805e-09).transl(-8.082716227850509e-08, 4e-08, 0))
hIsland = hIsland.sub(rect(4.111321778551748e-09, -2.2441518653426756e-09).transl(2.4177075679257134e-08, 4e-08, 0))
hIsland = hIsland.sub(rect(7.293241002625949e-09, -8.853241431142942e-10).transl(3.61308772167462e-08, 4e-08, 0))
hIsland = hIsland.add(rect(4.722021846592529e-09, 1.742323252815349e-09).transl(8.449138494103439e-08, 3.6867525592705e-08, 0))
hIsland = hIsland.sub(rect(7.913716449162786e-09, -2.4126438324917285e-09).transl(3.614284774137854e-08, 4e-08, 0))
hIsland = hIsland.add(rect(3.699300250636558e-09, 1.5034615621778667e-09).transl(-8.175672123619458e-08, 3.985835983584618e-08, 0))
hIsland = hIsland.sub(rect(2.470811945993165e-09, -3.579332610319046e-10).transl(1.962951867774208e-08, 4e-08, 0))
hIsland = hIsland.add(rect(5.001867097507084e-09, 5.280835344439196e-11).transl(7.259089709159998e-08, 4e-08, 0))
hIsland = hIsland.add(rect(9.179572797042505e-09, 4.474916391593036e-09).transl(-4.225955468921499e-09, 4e-08, 0))
hIsland = hIsland.add(rect(6.264435395949692e-09, 8.979000657577878e-10).transl(3.9257548002728076e-08, 4e-08, 0))
hIsland = hIsland.sub(rect(3.2420822269388083e-09, -3.0673072208984388e-09).transl(-3.8884693482980806e-08, 4e-08, 0))
hIsland = hIsland.add(rect(7.343635361751173e-09, 1.3353877648242995e-09).transl(5.210197135217163e-08, 4e-08, 0))
hIsland = hIsland.sub(rect(3.0654501210614813e-09, -3.5314437818027214e-10).transl(3.542193512201405e-08, 4e-08, 0))
hIsland = hIsland.add(rect(9.861325419419611e-09, 2.3043443126158903e-09).transl(-1.293998064393663e-08, 4e-08, 0))
hIsland = hIsland.sub(rect(5.283472377649961e-09, -4.283727604130616e-09).transl(-4.151798109564701e-08, 4e-08, 0))
hIsland = hIsland.sub(rect(4.3905457120078e-09, -1.7473552596082268e-09).transl(4.134019384151128e-08, 4e-08, 0))
hIsland = hIsland.add(rect(4.761418637666769e-09, 4.486859142557679e-10).transl(2.527636417097624e-08, 4e-08, 0))
hIsland = hIsland.sub(rect(9.942240273341899e-09, -8.686740144307768e-10).transl(7.230477879263268e-09, 4e-08, 0))
hIsland = hIsland.sub(rect(5.4368150307753125e-09, -1.9293771341251824e-09).transl(4.501671079014991e-08, 4e-08, 0))
hIsland = hIsland.add(rect(2.6941252761175643e-09, 5.453225801940761e-10).transl(7.927959957438117e-08, 4e-08, 0))
hIsland = hIsland.add(rect(6.1537890007081425e-09, 1.3864160905631735e-09).transl(1.7819193223290558e-08, 4e-08, 0))
hIsland = hIsland.add(rect(8.068809193134902e-09, 5.3339685398624035e-09).transl(4.9618274746911035e-08, 4e-08, 0))
hIsland = hIsland.add(rect(7.963022417490495e-09, 1.5038540387164936e-09).transl(-3.15249169977285e-08, 4e-08, 0))
hIsland = hIsland.add(rect(4.9942324608867685e-09, 3.904248539677834e-09).transl(4.20931099897881e-08, 4e-08, 0))
hIsland = hIsland.sub(rect(4.000614422367809e-09, -1.6176424848433308e-09).transl(4.913702647463969e-09, 4e-08, 0))
hIsland = hIsland.add(rect(6.651770565453469e-09, 3.763668571191687e-09).transl(3.033160416628919e-08, 4e-08, 0))
hIsland = hIsland.sub(rect(4.364869670567624e-09, -1.1453781859968396e-09).transl(4.675856703049564e-08, 4e-08, 0))
hIsland = hIsland.add(rect(7.606835757866762e-09, 1.7672086484801387e-10).transl(-8.190211437674278e-08, 3.979855190647426e-08, 0))
hIsland = hIsland.add(rect(9.278768599572725e-09, 5.036223389742654e-10).transl(1.170249180035753e-08, 4e-08, 0))
hIsland = hIsland.sub(rect(5.1771551493915644e-09, -2.586056718929664e-09).transl(2.040985932318382e-08, 4e-08, 0))
hIsland = hIsland.sub(rect(6.638254583071679e-09, -1.0055098492783312e-09).transl(1.0308726757305664e-08, 4e-08, 0))
hIsland = hIsland.add(rect(8.642140391488334e-09, 1.7754342519421759e-09).transl(2.1199752793709303e-08, 4e-08, 0))
hIsland = hIsland.sub(rect(9.314236847125592e-09, -2.3435904237335198e-09).transl(-4.589496068946125e-08, 4e-08, 0))
hIsland = hIsland.sub(rect(7.797523640594401e-09, -1.2856706270791435e-10).transl(4.1034122232801885e-08, 4e-08, 0))
hIsland = hIsland.sub(rect(4.226725146342743e-09, -3.775589796292526e-09).transl(-1.0214226974335501e-09, 4e-08, 0))
hIsland = hIsland.add(rect(4.654769837480141e-09, 1.358324356946768e-09).transl(4.3556650094623955e-09, 4e-08, 0))
hIsland = hIsland.sub(rect(2.2584065755118242e-09, -4.2689955768673973e-10).transl(-7.57022236229102e-08, 4e-08, 0))
hIsland = hIsland.add(rect(4.321501478681159e-09, 3.4744419354300937e-09).transl(-3.914744127249723e-09, 4e-08, 0))
hIsland = hIsland.sub(rect(2.7527636413209946e-09, -9.361265553904125e-10).transl(-3.7629996568258654e-08, 4e-08, 0))
hIsland = hIsland.sub(rect(8.724105862666384e-09, -2.5076575780066555e-10).transl(-5.902001488886469e-08, 4e-08, 0))
hIsland = hIsland.sub(rect(5.905292879194866e-09, -2.082300992349128e-10).transl(3.308966540806883e-08, 4e-08, 0))
hIsland = hIsland.sub(rect(8.226610028179717e-09, -2.3988870012893517e-09).transl(-1.7741146859460376e-08, 4e-08, 0))
hIsland = hIsland.add(rect(7.311811354785771e-09, 1.2883693372759633e-09).transl(3.805879600818447e-08, 4e-08, 0))
hIsland = hIsland.sub(rect(5.30657482460595e-09, -5.530882707059553e-10).transl(-4.705077741806209e-08, 4e-08, 0))
hIsland = hIsland.sub(rect(2.7982583534246875e-09, -3.006127559026623e-09).transl(6.873507195493338e-08, 4e-08, 0))
hIsland = hIsland.add(rect(8.129731264450227e-09, 2.171592035733974e-10).transl(4.728479917969026e-08, 4e-08, 0))
hIsland = hIsland.add(rect(9.914729807591031e-09, 1.2191215084388266e-09).transl(-7.416395224524317e-08, 4e-08, 0))
hIsland = hIsland.add(rect(2.7117275736027358e-09, 2.0495771897067657e-09).transl(1.2799152323820236e-08, 4e-08, 0))
hIsland = hIsland.sub(rect(5.068491982084351e-09, -1.2765768486289421e-09).transl(7.130675723900163e-08, 4e-08, 0))
hIsland = hIsland.add(rect(4.66622177177868e-09, 3.8969268986799115e-09).transl(-3.3139566938938436e-08, 4e-08, 0))
hIsland = hIsland.add(rect(8.812459298782156e-09, 5.77872734016055e-10).transl(-8.629614078573431e-08, 3.234105071021389e-08, 0))
hIsland = hIsland.sub(rect(2.428649927773643e-09, -4.159685174850044e-09).transl(6.857629313459541e-08, 4e-08, 0))
hIsland = hIsland.add(rect(9.634887760833384e-09, 4.807611517730978e-10).transl(-8.883043733071608e-08, 1.971863877791495e-08, 0))
hIsland = hIsland.sub(rect(3.859040392544887e-09, -3.067461065410403e-09).transl(3.3684215773962285e-08, 4e-08, 0))
hIsland = hIsland.add(rect(5.528028111821026e-09, 5.1630675025503e-09).transl(7.854619150388857e-08, 4e-08, 0))
hIsland = hIsland.sub(rect(5.984643861406965e-09, -5.146747151276719e-09).transl(-4.6954134982671875e-08, 4e-08, 0))
hIsland = hIsland.sub(rect(2.996967919311864e-09, -4.868042744641217e-10).transl(6.262385543412857e-08, 4e-08, 0))
hIsland = hIsland.add(rect(9.945739948375507e-09, 2.51742148517503e-09).transl(-6.561274283708812e-08, 4e-08, 0))
hIsland = hIsland.sub(rect(8.267495730427051e-09, -9.912327215031501e-10).transl(4.282329913817136e-08, 4e-08, 0))
hIsland = hIsland.sub(rect(6.1075503827053894e-09, -1.7413606749223903e-09).transl(-4.9922825976974634e-08, 4e-08, 0))
hIsland = hIsland.add(rect(9.441054003749038e-09, 8.374970819991589e-11).transl(1.982246729269539e-08, 4e-08, 0))
hIsland = hIsland.sub(rect(4.397297506129857e-09, -5.299203544960164e-10).transl(-7.623189307063314e-08, 4e-08, 0))
hIsland = hIsland.add(rect(3.5236397139257125e-09, 1.8608662672131768e-09).transl(1.3102226522074957e-09, 4e-08, 0))
hIsland = hIsland.sub(rect(4.3081063075730374e-09, -1.0583590593160207e-09).transl(8.29193208953565e-08, 3.907983782537031e-08, 0))
hIsland = hIsland.add(rect(6.750692404586083e-09, 1.4343441261249922e-09).transl(6.898597285231468e-08, 4e-08, 0))
hIsland = hIsland.add(rect(4.110542334113423e-09, 5.590772250481938e-10).transl(2.756906783800427e-08, 4e-08, 0))
hIsland = hIsland.add(rect(3.3213260918477448e-09, 2.055708980230929e-09).transl(8.018975357120475e-08, 4e-08, 0))
hIsland = hIsland.sub(rect(2.4798207415382187e-09, -7.655640019566767e-10).transl(9.216068032701483e-09, 4e-08, 0))
hIsland = hIsland.add(rect(6.2594221397899655e-09, 1.3581869818201911e-09).transl(5.7562583438605565e-08, 4e-08, 0))
hIsland = hIsland.sub(rect(5.421118994210816e-09, -1.1094828272822536e-09).transl(7.2732848207743696e-09, 4e-08, 0))
hIsland = hIsland.sub(rect(6.434501462088112e-09, -1.2758833121588452e-09).transl(2.9774973044004574e-08, 4e-08, 0))
hIsland = hIsland.sub(rect(8.447266393822911e-09, -2.355037360150982e-09).transl(4.305500244943043e-08, 4e-08, 0))
hIsland = hIsland.add(rect(5.648804720347689e-09, 1.2838734504703776e-09).transl(-5.845812693503535e-08, 4e-08, 0))
hIsland = hIsland.add(rect(4.617286246316439e-09, 6.413203358407037e-10).transl(-6.785133408061157e-08, 4e-08, 0))
hIsland = hIsland.add(rect(9.325892471741941e-09, 9.797611683707038e-11).transl(-3.696769331485946e-08, 4e-08, 0))
hIsland = hIsland.add(rect(2.1113697823688585e-09, 1.3996362943341635e-09).transl(1.8824935014815414e-08, 4e-08, 0))
hIsland = hIsland.sub(rect(6.77713841396814e-09, -2.677636373556288e-09).transl(8.23186401898249e-08, 3.9568334527492773e-08, 0))
hIsland = hIsland.sub(rect(6.133606597286815e-09, -2.1191878209653795e-09).transl(-1.7615023296201883e-08, 4e-08, 0))
hIsland = hIsland.add(rect(9.182882872033276e-09, 4.1062221082211285e-11).transl(-8.562181886496463e-08, 3.432273561846369e-08, 0))
hIsland = hIsland.add(rect(2.268933163777071e-09, 1.6452524604125936e-09).transl(2.0124124971304263e-08, 4e-08, 0))
hIsland = hIsland.add(rect(4.695771950174082e-09, 1.7520837572858972e-09).transl(-1.3349609213595658e-08, 4e-08, 0))
hIsland = hIsland.add(rect(2.2966424863456006e-09, 4.749650315617929e-10).transl(7.491167073650322e-08, 4e-08, 0))
hIsland = hIsland.sub(rect(9.216263533998496e-09, -1.8910951919641744e-09).transl(6.456847029813832e-08, 4e-08, 0))
hIsland = hIsland.sub(rect(3.823776249796812e-09, -8.177351702427313e-10).transl(2.3668818881523388e-08, 4e-08, 0))
hIsland = hIsland.add(rect(6.708678372587776e-09, 1.7500132884604033e-09).transl(-3.3938584812922716e-10, 4e-08, 0))
vIsland = hIsland.rotz(pi / 2)
hIslands = hIslands.add(hIsland.transl(-a/2, a, 0))
hIsland = rect(islandLength-2*ellipseConstant, islandWidth)
hIsland = hIsland.add(ellipse(ellipseConstant*2, islandWidth).transl(islandLength/2-ellipseConstant, 0, 0))
hIsland = hIsland.add(ellipse(ellipseConstant*2, islandWidth).transl(-islandLength/2+ellipseConstant, 0, 0))
hIsland = hIsland.sub(rect(8.234415407764655e-09, -2.530951283075882e-09).transl(4.187362756934515e-08, -4e-08, 0))
hIsland = hIsland.add(rect(8.580728855342897e-09, 7.997526935938903e-10).transl(1.8807499334202475e-08, -4e-08, 0))
hIsland = hIsland.add(rect(6.7218461737356726e-09, 4.2290102501357406e-10).transl(6.881077677615633e-09, -4e-08, 0))
hIsland = hIsland.add(rect(2.159873597429926e-09, 1.6263315898942036e-09).transl(2.3937586220521474e-08, -4e-08, 0))
hIsland = hIsland.sub(rect(9.440315332518052e-09, -1.1427693141847264e-09).transl(8.323677118433188e-08, -3.8744966613807265e-08, 0))
hIsland = hIsland.sub(rect(6.670351885719883e-09, -2.8623494347854312e-09).transl(2.854416518542881e-08, -4e-08, 0))
hIsland = hIsland.add(rect(2.738228745982511e-09, 2.5803355364008173e-10).transl(7.950133049437215e-08, -4e-08, 0))
hIsland = hIsland.sub(rect(4.415888230963157e-09, -1.2613532656776778e-09).transl(1.9271669906890177e-08, -4e-08, 0))
hIsland = hIsland.sub(rect(5.409579733347011e-09, -4.0071451173539125e-10).transl(-2.8237472449534753e-08, -4e-08, 0))
hIsland = hIsland.sub(rect(3.0051362487279665e-09, -1.2197670534502443e-09).transl(1.5128874526443347e-08, -4e-08, 0))
hIsland = hIsland.add(rect(7.79399013020379e-09, 1.4026473984315246e-09).transl(3.464651981091568e-08, -4e-08, 0))
hIsland = hIsland.sub(rect(3.0853438272756723e-09, -3.060678848502388e-10).transl(-3.381138535671636e-08, -4e-08, 0))
hIsland = hIsland.add(rect(7.519809968638863e-09, 4.3586919263599825e-10).transl(2.46442652816636e-09, -4e-08, 0))
hIsland = hIsland.add(rect(7.429070405027878e-09, 2.4490516523739662e-09).transl(-1.134952208566917e-08, -4e-08, 0))
hIsland = hIsland.sub(rect(2.0000189674147244e-09, -7.196979483425007e-10).transl(-3.647613766686257e-08, -4e-08, 0))
hIsland = hIsland.add(rect(8.502010689307515e-09, 1.714726452511534e-09).transl(2.9217671610502347e-08, -4e-08, 0))
hIsland = hIsland.sub(rect(9.364427920572535e-09, -1.444218798461032e-09).transl(-4.61499391936635e-08, -4e-08, 0))
hIsland = hIsland.sub(rect(5.901263471004263e-09, -1.3158720284099176e-09).transl(-8.785254247874833e-08, -2.5931595324775084e-08, 0))
hIsland = hIsland.add(rect(7.895786972585339e-09, 5.3460550593721976e-09).transl(5.9297366786273245e-08, -4e-08, 0))
hIsland = hIsland.add(rect(4.111919399957516e-09, 2.1429942753164077e-09).transl(2.9008211773414457e-08, -4e-08, 0))
hIsland = hIsland.add(rect(5.7300583039428e-09, 2.6499983169333335e-09).transl(4.762066284521775e-08, -4e-08, 0))
hIsland = hIsland.sub(rect(7.473948167467478e-09, -6.061599489913531e-10).transl(3.980512279171513e-08, -4e-08, 0))
hIsland = hIsland.sub(rect(6.54252680731418e-09, -1.825594220187466e-09).transl(7.625671566343045e-08, -4e-08, 0))
hIsland = hIsland.sub(rect(5.062956795254853e-09, -2.0009702213205927e-09).transl(8.613391393014191e-08, -3.2853713248733755e-08, 0))
hIsland = hIsland.add(rect(4.022588971724741e-09, 3.0276928593969947e-09).transl(1.0589379798233673e-08, -4e-08, 0))
hIsland = hIsland.add(rect(3.2290949057817803e-09, 1.8266680836080266e-09).transl(-7.647638720982612e-08, -4e-08, 0))
hIsland = hIsland.add(rect(8.800608643798267e-09, 1.056903223625e-09).transl(1.1248096874542235e-08, -4e-08, 0))
hIsland = hIsland.add(rect(8.440569577816584e-09, 3.0750430925570903e-10).transl(-5.864168911543208e-08, -4e-08, 0))
hIsland = hIsland.sub(rect(3.97020830846711e-09, -1.3130922824826193e-09).transl(6.23066734877616e-08, -4e-08, 0))
hIsland = hIsland.add(rect(4.000381269075285e-09, 4.709770863409277e-10).transl(1.2597332560436349e-08, -4e-08, 0))
hIsland = hIsland.add(rect(3.4567685642278116e-09, 2.7155152075168523e-09).transl(-3.517316206803091e-08, -4e-08, 0))
hIsland = hIsland.add(rect(6.464677818106399e-09, 1.5742887073211276e-09).transl(3.482175122943157e-08, -4e-08, 0))
hIsland = hIsland.sub(rect(7.957712918166903e-09, -1.0517503734502634e-09).transl(-2.8261581787757668e-08, -4e-08, 0))
hIsland = hIsland.sub(rect(2.021489561256032e-09, -2.7041455783914284e-09).transl(-3.2112022362876594e-08, -4e-08, 0))
hIsland = hIsland.sub(rect(4.933068257290643e-09, -4.20737113162719e-09).transl(-1.9396046236783116e-08, -4e-08, 0))
hIsland = hIsland.add(rect(5.595920080686634e-09, 9.61463601294814e-10).transl(4.125171627357002e-08, -4e-08, 0))
hIsland = hIsland.sub(rect(4.5037994645749e-09, -7.681901554273457e-11).transl(-7.455271666459719e-08, -4e-08, 0))
hIsland = hIsland.sub(rect(4.217146615694527e-09, -1.0767425556595902e-09).transl(4.4671268566653166e-10, -4e-08, 0))
hIsland = hIsland.sub(rect(8.73330340545253e-09, -2.805139194922387e-09).transl(6.963949545427502e-08, -4e-08, 0))
hIsland = hIsland.add(rect(2.5304184537785473e-09, 2.9935237711621506e-09).transl(4.8013351721580906e-08, -4e-08, 0))
hIsland = hIsland.sub(rect(4.142123778439352e-09, -7.682701421894556e-10).transl(8.788601147715551e-08, -2.57558703600674e-08, 0))
hIsland = hIsland.sub(rect(2.700667641035403e-09, -2.2727413537601796e-09).transl(-2.948357985429968e-08, -4e-08, 0))
hIsland = hIsland.add(rect(4.845769654765742e-09, 9.724435922059224e-10).transl(-1.4366684709456748e-08, -4e-08, 0))
hIsland = hIsland.add(rect(5.360480776509461e-09, 2.536703986410012e-10).transl(-4.792305205093771e-08, -4e-08, 0))
hIsland = hIsland.add(rect(5.1791567847098765e-09, 1.0474484819397056e-09).transl(-5.11602507999011e-08, -4e-08, 0))
hIsland = hIsland.add(rect(8.341608148529205e-09, 2.7054862935018565e-09).transl(1.8487750749085187e-08, -4e-08, 0))
hIsland = hIsland.sub(rect(9.004945855296714e-09, -8.13524283798386e-10).transl(5.344353375546438e-08, -4e-08, 0))
hIsland = hIsland.add(rect(3.849502074753456e-09, 1.5547999779704211e-10).transl(-7.733715114553206e-08, -4e-08, 0))
hIsland = hIsland.sub(rect(2.6929536670927582e-09, -2.4435655042340258e-11).transl(5.458890013526123e-08, -4e-08, 0))
hIsland = hIsland.add(rect(8.812251653635844e-09, 1.6736550665413667e-09).transl(-8.383764447968622e-08, -3.7959763963128406e-08, 0))
hIsland = hIsland.add(rect(9.276898075679313e-09, 8.445044510323327e-10).transl(-2.378415966530726e-08, -4e-08, 0))
hIsland = hIsland.add(rect(3.827321706369071e-09, 2.062544236367148e-09).transl(-5.9397359815861305e-08, -4e-08, 0))
hIsland = hIsland.sub(rect(9.37329291914407e-09, -7.87820357236103e-10).transl(2.4596414705285157e-08, -4e-08, 0))
hIsland = hIsland.add(rect(3.6089394308765057e-09, 4.1375054847497365e-10).transl(-2.3335807295483704e-08, -4e-08, 0))
hIsland = hIsland.sub(rect(2.952120029964399e-09, -1.7776004077238946e-09).transl(-5.15588757237311e-08, -4e-08, 0))
hIsland = hIsland.sub(rect(7.257709473378577e-09, -5.543839495204473e-10).transl(3.3189733266427655e-08, -4e-08, 0))
hIsland = hIsland.sub(rect(7.810309961681923e-09, -8.907003107867549e-10).transl(6.129266486485525e-08, -4e-08, 0))
hIsland = hIsland.sub(rect(2.7856930984420184e-09, -1.67531251772992e-09).transl(-9.511889329520189e-09, -4e-08, 0))
hIsland = hIsland.sub(rect(6.639532854499425e-09, -2.0270990166520245e-09).transl(-6.19920971862735e-09, -4e-08, 0))
hIsland = hIsland.add(rect(4.2108563017481355e-09, 2.5128287861816686e-09).transl(-4.859038488225539e-09, -4e-08, 0))
hIsland = hIsland.sub(rect(4.067034507707199e-09, -1.7627644183268756e-10).transl(2.746207365420645e-08, -4e-08, 0))
hIsland = hIsland.sub(rect(3.6554935653971114e-09, -5.679733204726123e-10).transl(4.817322217999834e-08, -4e-08, 0))
hIsland = hIsland.add(rect(6.181529393042648e-09, 9.661460535054285e-10).transl(-4.2168972386671907e-10, -4e-08, 0))
hIsland = hIsland.add(rect(8.647390612378164e-09, 1.4831768023393545e-09).transl(-5.221130548537372e-08, -4e-08, 0))
hIsland = hIsland.sub(rect(4.274289523541686e-09, -2.8791043743175163e-09).transl(-2.1517063664334158e-08, -4e-08, 0))
hIsland = hIsland.sub(rect(5.5831708471906284e-09, -1.8412530044166394e-09).transl(2.220867633207065e-08, -4e-08, 0))
hIsland = hIsland.add(rect(9.922184327151258e-09, 2.9291770650069757e-09).transl(-1.003329501864614e-08, -4e-08, 0))
hIsland = hIsland.sub(rect(4.6540574953317e-09, -1.2938338322389643e-09).transl(-8.740794037809174e-08, -2.8087447259355796e-08, 0))
hIsland = hIsland.add(rect(3.1833684117838027e-09, 3.151553821388967e-09).transl(1.3609640374824115e-08, -4e-08, 0))
hIsland = hIsland.sub(rect(3.0451965284392035e-09, -2.6348740688447572e-09).transl(-7.570083562349876e-09, -4e-08, 0))
hIsland = hIsland.add(rect(2.0269420002753575e-09, 3.811874534753123e-10).transl(-6.143007010324354e-08, -4e-08, 0))
hIsland = hIsland.add(rect(8.10314040552029e-09, 4.532376206875822e-09).transl(7.019091375744987e-08, -4e-08, 0))
hIsland = hIsland.add(rect(6.6835075413535024e-09, 7.175882497458786e-12).transl(-3.2228679990950314e-08, -4e-08, 0))
hIsland = hIsland.add(rect(7.79557529944919e-09, 1.8203997287753164e-09).transl(-5.3607559918305186e-09, -4e-08, 0))
hIsland = hIsland.sub(rect(7.498266980903175e-09, -4.9439155885549966e-09).transl(-4.4436286288565504e-08, -4e-08, 0))
hIsland = hIsland.add(rect(4.95819314719601e-09, 1.944866167337232e-09).transl(-6.260293625536135e-08, -4e-08, 0))
hIsland = hIsland.add(rect(2.7856993135577287e-09, 4.5142530770482387e-10).transl(-4.5141292640863474e-08, -4e-08, 0))
hIsland = hIsland.add(rect(5.458132512297718e-09, 3.386918114421361e-09).transl(5.1265012519505364e-08, -4e-08, 0))
hIsland = hIsland.add(rect(7.073558629801796e-09, 2.226905083672362e-09).transl(1.696487221937095e-08, -4e-08, 0))
hIsland = hIsland.add(rect(3.904650363938161e-09, 1.240840634911283e-10).transl(-8.13863807918778e-08, -3.9963121242346384e-08, 0))
hIsland = hIsland.sub(rect(7.318186399194388e-09, -7.081469426910627e-10).transl(8.021254496833597e-08, -4e-08, 0))
hIsland = hIsland.add(rect(5.73803217296632e-09, 6.36690289804433e-10).transl(-5.1357754667775136e-08, -4e-08, 0))
hIsland = hIsland.sub(rect(4.946351599386453e-09, -4.943966221148382e-10).transl(2.7662634167385658e-08, -4e-08, 0))
hIsland = hIsland.add(rect(2.777563845115677e-09, 2.5040964880611126e-09).transl(8.180793700432638e-08, -3.9838498111668134e-08, 0))
hIsland = hIsland.add(rect(4.960723077576013e-09, 1.1300146693322488e-09).transl(5.13455297941391e-08, -4e-08, 0))
hIsland = hIsland.sub(rect(2.619902707778584e-09, -5.096508252923648e-10).transl(-6.237510302736129e-08, -4e-08, 0))
hIsland = hIsland.sub(rect(2.488344403806905e-09, -3.353080958874451e-09).transl(3.77429594281187e-08, -4e-08, 0))
hIsland = hIsland.add(rect(6.105168085243529e-09, 2.4784310666332745e-09).transl(8.725143897647826e-08, -2.877567927942737e-08, 0))
hIsland = hIsland.add(rect(6.376040600584264e-09, 2.7408233500664564e-09).transl(-5.205430515146997e-08, -4e-08, 0))
hIsland = hIsland.add(rect(2.8654250748462157e-09, 2.612443025196793e-10).transl(5.307570031145395e-08, -4e-08, 0))
hIsland = hIsland.add(rect(5.34692866202858e-09, 1.3796185222627605e-09).transl(3.0800808349192883e-08, -4e-08, 0))
hIsland = hIsland.add(rect(7.630764534892015e-09, 3.3799702230528747e-09).transl(-7.05758346311079e-08, -4e-08, 0))
hIsland = hIsland.sub(rect(9.655759325782196e-09, -2.1017238707143704e-11).transl(7.62804920332759e-08, -4e-08, 0))
hIsland = hIsland.add(rect(4.759558637826304e-09, 1.8570816844892632e-09).transl(1.619921171039442e-08, -4e-08, 0))
hIsland = hIsland.sub(rect(9.668220736225515e-09, -2.0007837210542105e-10).transl(-2.64750173766548e-08, -4e-08, 0))
hIsland = hIsland.add(rect(3.006585341656865e-09, 1.947238124242012e-09).transl(-6.410789539167108e-08, -4e-08, 0))
hIsland = hIsland.add(rect(9.917519008206896e-09, 2.3104967584488294e-09).transl(-3.358795988757538e-08, -4e-08, 0))
hIsland = hIsland.sub(rect(9.822950166468093e-09, -2.7572001435467815e-09).transl(5.5603182441557505e-08, -4e-08, 0))
hIsland = hIsland.sub(rect(2.618249437855286e-09, -2.02475121425293e-09).transl(6.244729239726298e-08, -4e-08, 0))
hIsland = hIsland.add(rect(6.286672212789788e-09, 1.1105284286163915e-10).transl(7.260209960796575e-08, -4e-08, 0))
hIsland = hIsland.sub(rect(9.081931972737146e-09, -1.7587630237187524e-10).transl(2.0643292403109447e-08, -4e-08, 0))
hIsland = hIsland.add(rect(8.120293086344401e-09, 2.6027185822104133e-09).transl(8.340325210836864e-08, -3.854755070373118e-08, 0))
hIsland = hIsland.add(rect(9.993496147956353e-09, 4.085986650954186e-10).transl(7.688103509238893e-08, -4e-08, 0))
hIsland = hIsland.sub(rect(5.721900643455088e-09, -5.647962979106693e-10).transl(-4.708065005554927e-08, -4e-08, 0))
hIsland = hIsland.add(rect(4.3115217641252395e-09, 5.658929858486586e-10).transl(-1.7793568200433726e-08, -4e-08, 0))
hIsland = hIsland.add(rect(6.580477671249744e-09, 4.102735519765035e-09).transl(1.2123782746014435e-09, -4e-08, 0))
hIsland = hIsland.sub(rect(4.2658088289977695e-09, -5.601792207533123e-10).transl(-3.6056101413323164e-08, -4e-08, 0))
hIsland = hIsland.sub(rect(4.604779742393718e-09, -3.5262173240936986e-09).transl(-6.869972962073189e-09, -4e-08, 0))
hIsland = hIsland.sub(rect(7.53010592432032e-09, -1.4664524847110634e-09).transl(-7.606827500017429e-08, -4e-08, 0))
hIsland = hIsland.add(rect(4.0857653725196834e-09, 1.4370865966169603e-09).transl(8.851558518537562e-08, -2.2006050490711777e-08, 0))
hIsland = hIsland.add(rect(9.132740200362052e-09, 3.5743409794822914e-10).transl(-4.0323775558183954e-08, -4e-08, 0))
hIsland = hIsland.sub(rect(5.245118533777481e-09, -1.7648408210746346e-09).transl(8.491654296753167e-08, -3.6013904361065426e-08, 0))
hIsland = hIsland.sub(rect(6.407966663806458e-09, -4.403092282348364e-09).transl(-3.037682252503463e-08, -4e-08, 0))
hIsland = hIsland.sub(rect(9.24496388239902e-09, -1.596977542918895e-09).transl(-5.284848683956696e-08, -4e-08, 0))
hIsland = hIsland.sub(rect(2.7971427496701313e-09, -5.602562051888539e-09).transl(-8.602166737646961e-08, -3.319463195040699e-08, 0))
hIsland = hIsland.sub(rect(9.176349789842395e-09, -1.887250763658157e-09).transl(-5.893587893323397e-08, -4e-08, 0))
hIsland = hIsland.add(rect(9.226955872092671e-09, 9.500933065613341e-10).transl(-1.560080239163462e-08, -4e-08, 0))
hIsland = hIsland.add(rect(7.002552616330867e-09, 7.420724678991088e-10).transl(6.121953082874133e-08, -4e-08, 0))
hIsland = hIsland.add(rect(2.3809506547175164e-09, 1.304190378381008e-10).transl(-2.969108431213299e-08, -4e-08, 0))
hIsland = hIsland.sub(rect(3.7088489492758027e-09, -1.9239698015050074e-09).transl(-2.4888941867009627e-08, -4e-08, 0))
hIsland = hIsland.add(rect(3.571760111658038e-09, 3.434291112813019e-09).transl(-6.825126898550816e-08, -4e-08, 0))
hIsland = hIsland.add(rect(3.898959909967012e-09, 8.387803491304478e-10).transl(-8.128731756438714e-08, -3.9979611746506193e-08, 0))
hIsland = hIsland.add(rect(7.568725901901981e-09, 6.792551284800462e-10).transl(-7.484289729151679e-08, -4e-08, 0))
hIsland = hIsland.sub(rect(6.2568999732765545e-09, -1.0619697213360363e-09).transl(1.0369562400460269e-08, -4e-08, 0))
hIsland = hIsland.sub(rect(8.741541818697888e-09, -2.790207771576588e-09).transl(5.1865713294494814e-08, -4e-08, 0))
hIsland = hIsland.add(rect(5.415815203928518e-09, 1.5259017367765795e-09).transl(-2.4049150592583582e-08, -4e-08, 0))
hIsland = hIsland.add(rect(6.831366789640646e-09, 2.3946146346517313e-09).transl(2.835387508460492e-08, -4e-08, 0))
hIsland = hIsland.sub(rect(9.779149831259272e-09, -2.293838292697983e-09).transl(-7.671244430334092e-08, -4e-08, 0))
hIsland = hIsland.sub(rect(5.982113044388504e-09, -2.0403881302420223e-09).transl(4.359771527078438e-08, -4e-08, 0))
hIsland = hIsland.sub(rect(9.639157459689216e-09, -4.5131268264296286e-09).transl(5.587287370806126e-08, -4e-08, 0))
hIsland = hIsland.sub(rect(7.856426523608426e-09, -6.908515691262163e-10).transl(-2.5816220647212e-09, -4e-08, 0))
hIsland = hIsland.add(rect(3.4313857841944487e-09, 2.0778615593418922e-10).transl(-5.6917889667683966e-08, -4e-08, 0))
hIsland = hIsland.add(rect(2.2339387803926442e-09, 1.1478809247426129e-10).transl(-3.9057797635884385e-08, -4e-08, 0))
hIsland = hIsland.sub(rect(2.0713081196649673e-09, -1.894476279330644e-09).transl(-4.796238610204091e-08, -4e-08, 0))
hIsland = hIsland.sub(rect(5.641771678766125e-09, -3.010688379526198e-09).transl(1.5148157503022743e-08, -4e-08, 0))
hIsland = hIsland.add(rect(3.329936250096995e-09, 6.246111691855853e-10).transl(-1.8438665019003435e-08, -4e-08, 0))
hIsland = hIsland.add(rect(5.8723618959455204e-09, 1.4126432010003484e-09).transl(4.470933750658699e-08, -4e-08, 0))
hIsland = hIsland.add(rect(7.963347893468947e-09, 1.0394900100539828e-09).transl(7.352018037220875e-09, -4e-08, 0))
hIsland = hIsland.add(rect(3.454066139005742e-09, 1.3447470048320306e-09).transl(4.3997312963727975e-08, -4e-08, 0))
hIsland = hIsland.add(rect(3.103559822002824e-09, 1.0278148338273422e-09).transl(4.2975437381577804e-08, -4e-08, 0))
hIsland = hIsland.sub(rect(9.290018047760262e-09, -1.615860468188666e-09).transl(8.170480305825549e-08, -3.987715770523734e-08, 0))
hIsland = hIsland.sub(rect(8.027692854081284e-09, -1.1471228783851698e-09).transl(-5.265505302337185e-08, -4e-08, 0))
hIsland = hIsland.sub(rect(3.79819543076138e-09, -2.29808452576431e-09).transl(-5.442973446479377e-08, -4e-08, 0))
hIsland = hIsland.add(rect(9.454066545655408e-09, 2.132732047052028e-09).transl(-2.401060757331644e-08, -4e-08, 0))
hIsland = hIsland.sub(rect(6.949038962450222e-09, -2.0175188363314847e-09).transl(-6.36110176383913e-08, -4e-08, 0))
hIsland = hIsland.add(rect(8.284903886230436e-09, 1.5523167752582577e-09).transl(-1.7194688906801004e-08, -4e-08, 0))
hIsland = hIsland.sub(rect(4.687423463563006e-09, -8.003454675963355e-10).transl(5.759478421490133e-08, -4e-08, 0))
hIsland = hIsland.add(rect(4.9652904187845554e-09, 1.4723124881704636e-09).transl(8.573718894398144e-08, -3.4010612986738864e-08, 0))
hIsland = hIsland.add(rect(3.576024512879382e-09, 1.4646343658444381e-09).transl(-7.15672758131749e-08, -4e-08, 0))
hIsland = hIsland.add(rect(5.24464316666481e-09, 1.8533683797618954e-09).transl(-6.958016291087583e-08, -4e-08, 0))
hIsland = hIsland.sub(rect(3.582980820404611e-09, -3.949996514777867e-09).transl(-7.276562439923183e-08, -4e-08, 0))
hIsland = hIsland.add(rect(5.3057384712640605e-09, 2.718781961421597e-09).transl(-7.747476193389112e-09, -4e-08, 0))
hIsland = hIsland.sub(rect(5.085128850601955e-09, -1.128357525019909e-09).transl(8.8461207726998e-08, -2.2368575512556643e-08, 0))
hIsland = hIsland.add(rect(7.54291424366298e-09, 3.9542530678802516e-09).transl(-1.7945541698580176e-08, -4e-08, 0))
hIsland = hIsland.sub(rect(3.415276714819249e-09, -1.5054108668914727e-09).transl(-8.307291348823315e-08, -3.8924562601708746e-08, 0))
hIsland = hIsland.sub(rect(9.2022957040496e-09, -8.856377540274934e-10).transl(-6.312561543946817e-08, -4e-08, 0))
hIsland = hIsland.sub(rect(4.217040371216131e-09, -1.2322173898400473e-09).transl(1.5573702657860548e-08, -4e-08, 0))
hIsland = hIsland.sub(rect(6.8957653686844324e-09, -1.578625420358977e-09).transl(-5.790336867810871e-08, -4e-08, 0))
hIsland = hIsland.sub(rect(6.445506691535172e-09, -1.6775071513593775e-09).transl(6.721705501661127e-08, -4e-08, 0))
hIsland = hIsland.sub(rect(2.4803418811551563e-09, -9.102046953969138e-10).transl(-8.698650278719564e-08, -2.986778581861476e-08, 0))
hIsland = hIsland.add(rect(8.143206617161955e-09, 8.136943755718629e-10).transl(7.233596519469936e-08, -4e-08, 0))
hIsland = hIsland.add(rect(3.33398120276296e-09, 3.6212871169226586e-10).transl(-4.7457054040578685e-08, -4e-08, 0))
hIsland = hIsland.sub(rect(6.008197897811113e-09, -5.713890339352555e-10).transl(-6.688492168666446e-08, -4e-08, 0))
hIsland = hIsland.sub(rect(8.28310194916416e-09, -2.977494162060296e-10).transl(-1.7826225738270078e-08, -4e-08, 0))
hIsland = hIsland.sub(rect(7.34808012942763e-09, -3.3557383699093686e-10).transl(-7.859539881153018e-08, -4e-08, 0))
hIsland = hIsland.sub(rect(8.073570506403497e-09, -1.098417845957244e-09).transl(-2.5570123931577668e-08, -4e-08, 0))
hIsland = hIsland.sub(rect(6.788028061878833e-09, -1.8618293589133428e-09).transl(3.34428273300574e-08, -4e-08, 0))
hIsland = hIsland.add(rect(8.538700569075831e-09, 1.2573781243115312e-09).transl(-4.101158897746285e-08, -4e-08, 0))
hIsland = hIsland.sub(rect(9.889888337078934e-09, -3.5542399734178056e-09).transl(-3.939110962496016e-08, -4e-08, 0))
hIsland = hIsland.add(rect(7.597972577840492e-09, 1.0725991008633771e-10).transl(2.4070226607641282e-08, -4e-08, 0))
hIsland = hIsland.sub(rect(9.430593145928258e-09, -1.0119364330582507e-10).transl(2.6805252059060876e-08, -4e-08, 0))
hIsland = hIsland.add(rect(2.9126489415547436e-09, 2.4910409861661107e-09).transl(-6.159589814714015e-08, -4e-08, 0))
hIsland = hIsland.sub(rect(7.565986140073839e-09, -6.470059693163539e-10).transl(6.741702900479164e-08, -4e-08, 0))
hIsland = hIsland.sub(rect(5.199344579269377e-09, -1.6987294158936621e-09).transl(-3.2134831017246086e-08, -4e-08, 0))
hIsland = hIsland.add(rect(5.1731671684794496e-09, 8.817888324205728e-10).transl(-5.117426458909352e-08, -4e-08, 0))
hIsland = hIsland.sub(rect(2.2726841893081498e-09, -7.871293062924066e-10).transl(-7.088992199707356e-08, -4e-08, 0))
hIsland = hIsland.add(rect(3.676014855577801e-09, 8.490620658519703e-10).transl(-8.917450793505948e-08, -1.673462885328738e-08, 0))
hIsland = hIsland.add(rect(2.3137849475581733e-09, 2.716389549573044e-09).transl(-3.842548025745616e-08, -4e-08, 0))
hIsland = hIsland.add(rect(7.674270667493349e-09, 4.7965515397791725e-11).transl(-8.32086013086093e-08, -3.8776874936222535e-08, 0))
hIsland = hIsland.sub(rect(3.33934105408283e-09, -7.060205929827686e-11).transl(1.2366633095495169e-08, -4e-08, 0))
hIsland = hIsland.sub(rect(4.164961925813279e-09, -3.2427791760027745e-09).transl(4.596139564021191e-08, -4e-08, 0))
hIsland = hIsland.sub(rect(2.6105554721352448e-09, -1.8038294313294566e-09).transl(2.2855387780804053e-08, -4e-08, 0))
hIsland = hIsland.add(rect(2.226515342842349e-09, 3.529019247195981e-10).transl(4.126644701804953e-08, -4e-08, 0))
hIsland = hIsland.add(rect(2.016573122881007e-09, 2.796667032876859e-10).transl(4.821190795863024e-08, -4e-08, 0))
hIsland = hIsland.add(rect(8.043903551439396e-09, 2.404177434877061e-11).transl(3.3973499332521226e-08, -4e-08, 0))
hIsland = hIsland.add(rect(8.799940864652133e-09, 1.1196101166722046e-09).transl(6.021421424695835e-08, -4e-08, 0))
hIsland = hIsland.sub(rect(7.208513791739047e-09, -1.640479649419143e-09).transl(-8.909407720646521e-08, -1.748984279526467e-08, 0))
hIsland = hIsland.add(rect(2.5066569648332707e-09, 2.618031486395495e-09).transl(4.0527538621414865e-08, -4e-08, 0))
hIsland = hIsland.sub(rect(9.203807598720888e-09, -9.152898886489801e-11).transl(3.824133273773374e-08, -4e-08, 0))
hIsland = hIsland.sub(rect(9.600300176956273e-09, -7.526888605940837e-10).transl(-3.2661036971476244e-08, -4e-08, 0))
hIsland = hIsland.add(rect(4.86233115086993e-09, 1.854559059301794e-09).transl(5.114582025647235e-08, -4e-08, 0))
hIsland = hIsland.add(rect(4.677313569967168e-09, 1.0270029173764102e-09).transl(-5.193009761084289e-08, -4e-08, 0))
hIsland = hIsland.add(rect(6.900165574099127e-09, 7.676257410560473e-10).transl(-6.06350166433613e-09, -4e-08, 0))
hIsland = hIsland.add(rect(3.784658361590276e-09, 3.5021643480078145e-09).transl(4.405517244859259e-08, -4e-08, 0))
hIsland = hIsland.add(rect(8.551807793331041e-09, 2.368775909407858e-09).transl(6.4467683046845376e-09, -4e-08, 0))
hIsland = hIsland.sub(rect(4.393539950019225e-09, -1.004908767044322e-09).transl(-3.973912908392844e-08, -4e-08, 0))
hIsland = hIsland.add(rect(4.2587725738371215e-09, 1.822418306073195e-09).transl(4.8724596455695386e-08, -4e-08, 0))
hIsland = hIsland.add(rect(5.897327176754539e-09, 5.595881810390349e-10).transl(-8.344956535185687e-08, -3.848992289783306e-08, 0))
hIsland = hIsland.sub(rect(5.6960185907613e-09, -1.8774960012961752e-09).transl(-5.766104440228918e-08, -4e-08, 0))
hIsland = hIsland.sub(rect(7.943773442069693e-09, -7.42758405449923e-10).transl(-5.080712666121116e-08, -4e-08, 0))
hIsland = hIsland.sub(rect(8.433851269430798e-09, -2.6984841525804226e-09).transl(4.200591840689597e-08, 4e-08, 0))
hIsland = hIsland.add(rect(3.352257241717309e-09, 4.513067961036201e-10).transl(-7.666721421795047e-08, 4e-08, 0))
hIsland = hIsland.sub(rect(5.21883844776337e-09, -2.8733835136715233e-10).transl(4.9115658299662685e-08, 4e-08, 0))
hIsland = hIsland.sub(rect(6.609490611109201e-09, -4.0331789785359705e-09).transl(7.84100979703497e-08, 4e-08, 0))
hIsland = hIsland.sub(rect(9.971252006026985e-09, -1.079377514474065e-09).transl(5.892858333173543e-08, 4e-08, 0))
hIsland = hIsland.add(rect(3.965423489659187e-09, 6.773842615238691e-10).transl(-5.270461265445562e-08, 4e-08, 0))
hIsland = hIsland.add(rect(7.168247776779487e-09, 3.925440429998534e-10).transl(-3.5416419464817405e-08, 4e-08, 0))
hIsland = hIsland.sub(rect(5.202522314366548e-09, -3.6002760008392863e-09).transl(-1.3985854452635524e-08, 4e-08, 0))
hIsland = hIsland.add(rect(8.589904602140064e-09, 8.916851328996443e-10).transl(3.7735434443015595e-08, 4e-08, 0))
hIsland = hIsland.sub(rect(3.862449801713776e-09, -1.5885132887620664e-10).transl(5.8535723653973985e-08, 4e-08, 0))
hIsland = hIsland.sub(rect(2.5694386026176244e-09, -4.869343574216995e-10).transl(-6.453873142556106e-08, 4e-08, 0))
hIsland = hIsland.sub(rect(9.391210579795325e-09, -2.2097793514075363e-09).transl(-7.241817257198823e-08, 4e-08, 0))
hIsland = hIsland.sub(rect(9.140860386697484e-09, -1.4867969988057972e-09).transl(7.452106686078136e-08, 4e-08, 0))
hIsland = hIsland.add(rect(3.776415263694355e-09, 3.341177768644983e-09).transl(-5.6048030781443516e-08, 4e-08, 0))
hIsland = hIsland.add(rect(8.582136465830647e-09, 5.5077804237413424e-09).transl(-3.822403619932328e-08, 4e-08, 0))
hIsland = hIsland.add(rect(2.660068276221491e-09, 1.9602457819594506e-09).transl(5.853749919933319e-08, 4e-08, 0))
hIsland = hIsland.sub(rect(4.9367650800175955e-09, -9.60658080016715e-10).transl(3.778707975597774e-08, 4e-08, 0))
hIsland = hIsland.add(rect(5.138103079387442e-09, 2.837942713096008e-10).transl(-4.520524810699406e-08, 4e-08, 0))
hIsland = hIsland.sub(rect(2.6936544050238577e-09, -9.811710305414512e-10).transl(-6.334867265256498e-09, 4e-08, 0))
hIsland = hIsland.add(rect(3.350785663572521e-09, 1.0453226985480616e-09).transl(-9.02945409197322e-09, 4e-08, 0))
hIsland = hIsland.add(rect(3.6744875913242194e-09, 4.299829829600488e-09).transl(-2.6253154061651326e-08, 4e-08, 0))
hIsland = hIsland.add(rect(9.204092515775511e-09, 4.172230693634218e-09).transl(-7.582324967625166e-10, 4e-08, 0))
hIsland = hIsland.sub(rect(9.431693354127764e-09, -2.3560275097407054e-09).transl(-1.6228440467359123e-08, 4e-08, 0))
hIsland = hIsland.sub(rect(5.195741564270011e-09, -5.352894484747134e-10).transl(-6.550005510507262e-08, 4e-08, 0))
hIsland = hIsland.add(rect(4.299307809022055e-09, 4.714933567641466e-10).transl(6.707891193376119e-08, 4e-08, 0))
hIsland = hIsland.sub(rect(2.5848372317624603e-09, -1.5792488333112314e-09).transl(-1.8557082240939506e-08, 4e-08, 0))
hIsland = hIsland.sub(rect(5.77492113194961e-09, -1.0062882391717307e-09).transl(-7.757055720109786e-08, 4e-08, 0))
hIsland = hIsland.add(rect(9.866614076969834e-09, 2.0143931878166308e-09).transl(7.002194172187625e-08, 4e-08, 0))
hIsland = hIsland.sub(rect(7.088053555508119e-09, -1.2327366922327557e-09).transl(8.810846964361644e-08, 2.4533035153495403e-08, 0))
hIsland = hIsland.sub(rect(8.30961746719659e-09, -3.57386124995969e-10).transl(-2.548794933662034e-08, 4e-08, 0))
hIsland = hIsland.add(rect(3.1124368128381275e-09, 5.983067778712211e-10).transl(-9.492155131252344e-09, 4e-08, 0))
hIsland = hIsland.sub(rect(6.4295311364431556e-09, -8.650637421436027e-10).transl(1.2688156231219888e-08, 4e-08, 0))
hIsland = hIsland.add(rect(2.9304356152420737e-09, 3.1600767443532225e-09).transl(2.055092293178912e-09, 4e-08, 0))
hIsland = hIsland.sub(rect(2.569482609351762e-09, -4.324967359010467e-12).transl(-2.2727409515637134e-08, 4e-08, 0))
hIsland = hIsland.sub(rect(8.291503070095402e-09, -4.455347181613355e-10).transl(8.859090329786919e-08, 2.1489331086981354e-08, 0))
hIsland = hIsland.sub(rect(6.091945084565933e-09, -3.09070180965148e-09).transl(-2.134721904774718e-08, 4e-08, 0))
hIsland = hIsland.sub(rect(6.083480772114329e-09, -1.4965058740267775e-09).transl(7.544124249992909e-08, 4e-08, 0))
hIsland = hIsland.sub(rect(4.114809988297449e-09, -4.632177754919626e-10).transl(-6.833316145454828e-08, 4e-08, 0))
hIsland = hIsland.sub(rect(5.1886927991253606e-09, -3.6824823194705675e-09).transl(-3.816796609815424e-08, 4e-08, 0))
hIsland = hIsland.sub(rect(7.901534252798277e-09, -2.947972783286973e-10).transl(-2.6674873095605662e-08, 4e-08, 0))
hIsland = hIsland.sub(rect(3.7175841633714656e-09, -2.910843788026985e-09).transl(-1.5818586632587973e-08, 4e-08, 0))
hIsland = hIsland.sub(rect(3.628074980963464e-09, -1.1854448079720556e-10).transl(-1.1912024447750525e-08, 4e-08, 0))
hIsland = hIsland.sub(rect(5.737731818249304e-09, -2.0867512481829605e-09).transl(-1.0879331233704289e-08, 4e-08, 0))
hIsland = hIsland.add(rect(3.5914940562537096e-09, 4.3004942855771895e-09).transl(5.70445092006069e-08, 4e-08, 0))
hIsland = hIsland.add(rect(5.201701676972571e-09, 4.7963894117039386e-09).transl(-7.754534182135687e-08, 4e-08, 0))
hIsland = hIsland.add(rect(4.142017911590112e-09, 8.776316945020267e-10).transl(-7.8656999976702e-08, 4e-08, 0))
hIsland = hIsland.sub(rect(5.416555327390406e-09, -1.581630180126894e-09).transl(1.8996763754254843e-08, 4e-08, 0))
hIsland = hIsland.sub(rect(4.984375762340976e-09, -4.0166804080760644e-10).transl(5.7529938756491425e-08, 4e-08, 0))
hIsland = hIsland.add(rect(6.649176623984352e-09, 1.2568311360943644e-09).transl(-2.3151181248662908e-08, 4e-08, 0))
hIsland = hIsland.add(rect(8.557142251973023e-09, 9.396966485342677e-10).transl(2.924581758750202e-08, 4e-08, 0))
hIsland = hIsland.sub(rect(2.3507953517196915e-09, -2.6426997068844084e-10).transl(-1.966263579342706e-08, 4e-08, 0))
hIsland = hIsland.add(rect(5.9568704262863275e-09, 1.9438952736438196e-09).transl(6.907261656292344e-08, 4e-08, 0))
hIsland = hIsland.sub(rect(3.8243929817440895e-09, -8.496396189025644e-11).transl(-5.647033892038618e-08, 4e-08, 0))
hIsland = hIsland.add(rect(2.0819834164298296e-09, 1.1860474454254928e-09).transl(3.7455779957270745e-08, 4e-08, 0))
hIsland = hIsland.sub(rect(5.1807382247688716e-09, -4.90972272516151e-10).transl(5.8359303596910935e-08, 4e-08, 0))
hIsland = hIsland.add(rect(7.764103261628555e-09, 3.357030760783088e-09).transl(-3.8859810352094666e-08, 4e-08, 0))
hIsland = hIsland.add(rect(2.387498267371057e-09, 5.380415929970177e-09).transl(4.737766580410327e-08, 4e-08, 0))
hIsland = hIsland.add(rect(7.2236652295384954e-09, 3.794970280995338e-10).transl(-3.0630830063718765e-08, 4e-08, 0))
hIsland = hIsland.add(rect(6.318139460044746e-09, 1.6109885137110855e-09).transl(8.259038896693647e-08, 3.937051925422867e-08, 0))
hIsland = hIsland.sub(rect(6.3790055781816776e-09, -1.6085230002996216e-10).transl(-6.88004371557493e-08, 4e-08, 0))
hIsland = hIsland.add(rect(6.771923737346018e-09, 1.5872455704882903e-09).transl(4.764987245089789e-08, 4e-08, 0))
[...]
hIsland = hIsland.sub(rect(6.503511935527063e-09, -8.827911604047695e-10).transl(-7.620341812004142e-09, 4e-08, 0))
hIsland = hIsland.sub(rect(5.434598409466828e-09, -1.6190135352173869e-09).transl(3.5812253775958593e-09, 4e-08, 0))
hIsland = hIsland.add(rect(6.526166101468079e-09, 1.4228360254746145e-09).transl(-8.68028505594803e-08, 3.05753634009158e-08, 0))
hIsland = hIsland.add(rect(9.410066225596721e-09, 2.2980857763425424e-09).transl(5.425139874559071e-08, 4e-08, 0))
hIsland = hIsland.sub(rect(2.3620069106002017e-09, -2.734760081963439e-09).transl(1.1396600565848473e-08, 4e-08, 0))
hIsland = hIsland.sub(rect(5.507223809383126e-09, -4.306556854088285e-09).transl(-6.244877788742438e-08, 4e-08, 0))
hIsland = hIsland.sub(rect(6.403938246735569e-09, -1.400539279883595e-09).transl(4.315465094651312e-08, 4e-08, 0))
hIsland = hIsland.sub(rect(7.740045093357334e-09, -8.141416161442061e-10).transl(-2.2751275179198603e-08, 4e-08, 0))
hIsland = hIsland.sub(rect(4.246099705512839e-09, -1.5742140352430298e-10).transl(-8.185943092278773e-08, 3.981720665065374e-08, 0))
hIsland = hIsland.add(rect(9.241211088061189e-09, 2.2604978157354447e-09).transl(-3.5928352920382065e-08, 4e-08, 0))
hIsland = hIsland.add(rect(4.895429960036605e-09, 4.265003036907445e-09).transl(-1.2717828796606263e-08, 4e-08, 0))
hIsland = hIsland.add(rect(6.220616251749968e-09, 2.2849692186918135e-09).transl(-7.583496678775966e-08, 4e-08, 0))
hIsland = hIsland.sub(rect(2.032332261509853e-09, -1.1595764616389919e-10).transl(-8.96622280775104e-09, 4e-08, 0))
hIsland = hIsland.sub(rect(2.426696974327512e-09, -1.8067070646282304e-09).transl(-6.794526932980455e-08, 4e-08, 0))
hIsland = hIsland.add(rect(4.348159681179532e-09, 1.794855969535084e-09).transl(-7.573075687461125e-08, 4e-08, 0))
hIsland = hIsland.sub(rect(3.889462160502553e-09, -7.017793442571719e-10).transl(1.494757853995149e-08, 4e-08, 0))
hIsland = hIsland.add(rect(5.981109412431309e-09, 3.329448055973812e-10).transl(-3.8273504689670633e-08, 4e-08, 0))
hIsland = hIsland.add(rect(7.413911786644859e-09, 5.392544869782476e-09).transl(7.150096175736187e-08, 4e-08, 0))
hIsland = hIsland.add(rect(9.108625003941339e-09, 3.665356410449084e-09).transl(-1.1062572943636003e-08, 4e-08, 0))
hIsland = hIsland.sub(rect(8.013010048099527e-09, -2.2339157911260188e-09).transl(6.904280629122316e-08, 4e-08, 0))
hIsland = hIsland.sub(rect(7.319787972561186e-09, -4.4886302957265166e-11).transl(-6.944307678680596e-08, 4e-08, 0))
hIsland = hIsland.add(rect(6.4695089032376345e-09, 1.3033998418347664e-09).transl(-2.8492449944133604e-08, 4e-08, 0))
hIsland = hIsland.sub(rect(8.486586512220307e-09, -1.2886800274557888e-09).transl(-7.538828570834315e-08, 4e-08, 0))
hIsland = hIsland.sub(rect(9.341800241675213e-09, -1.1439138233331066e-09).transl(6.274005405351253e-08, 4e-08, 0))
hIsland = hIsland.sub(rect(2.934941848843453e-09, -1.2983662082503163e-09).transl(-3.7465090000239446e-08, 4e-08, 0))
hIsland = hIsland.sub(rect(9.48074657194312e-09, -3.6057960793991866e-10).transl(2.5315733918823725e-09, 4e-08, 0))
hIsland = hIsland.add(rect(5.589897196632118e-09, 2.2227100671727886e-10).transl(2.7547998867056736e-08, 4e-08, 0))
hIsland = hIsland.add(rect(8.332677245242884e-09, 1.6866160727473288e-09).transl(-1.0291990729975006e-08, 4e-08, 0))
hIsland = hIsland.add(rect(9.083647090280916e-09, 2.3119936476113178e-09).transl(1.1330226827368835e-08, 4e-08, 0))
hIsland = hIsland.add(rect(9.315491532732616e-09, 7.991459239391452e-10).transl(6.562773434011822e-08, 4e-08, 0))
hIsland = hIsland.sub(rect(9.470780805053996e-09, -2.8149129601081316e-10).transl(7.852269931101212e-08, 4e-08, 0))
hIsland = hIsland.add(rect(6.254361211308436e-09, 1.773412780593943e-10).transl(-1.7856850507810914e-08, 4e-08, 0))
hIsland = hIsland.sub(rect(9.563321495986267e-09, -4.816362096991274e-10).transl(4.343020914189155e-08, 4e-08, 0))
hIsland = hIsland.sub(rect(6.663452239725276e-09, -2.1216099114400083e-10).transl(4.900469426238043e-08, 4e-08, 0))
hIsland = hIsland.add(rect(2.3120493326398313e-09, 3.476030800702086e-09).transl(1.7111277012054707e-10, 4e-08, 0))
hIsland = hIsland.sub(rect(4.734384962462818e-09, -8.583539621628566e-11).transl(-3.93930981450886e-08, 4e-08, 0))
hIsland = hIsland.sub(rect(9.875529020390347e-09, -3.368317195105471e-09).transl(-3.3162050551585776e-10, 4e-08, 0))
hIsland = hIsland.add(rect(7.76090121150958e-09, 1.174382695820942e-09).transl(-8.173885031324272e-08, 3.9864982056472654e-08, 0))
hIsland = hIsland.sub(rect(9.916950526803313e-09, -2.906317530978273e-10).transl(4.6404053576522973e-08, 4e-08, 0))
hIsland = hIsland.sub(rect(5.765484113934614e-09, -2.6460927390298695e-09).transl(7.991915339755255e-08, 4e-08, 0))
hIsland = hIsland.sub(rect(5.274953025230593e-09, -2.9853705625270837e-10).transl(-1.8918709773951992e-08, 4e-08, 0))
hIsland = hIsland.add(rect(6.038331574708541e-09, 3.4663577468263013e-09).transl(-3.490405122796204e-08, 4e-08, 0))
hIsland = hIsland.add(rect(4.945089236378194e-09, 1.5573550408695895e-09).transl(-6.008110982569589e-08, 4e-08, 0))
hIsland = hIsland.sub(rect(7.420164928112512e-09, -3.2612665551847995e-09).transl(6.913604037423446e-08, 4e-08, 0))
hIsland = hIsland.sub(rect(3.5694402925294847e-09, -1.8670596318037572e-09).transl(-1.856855794605984e-08, 4e-08, 0))
hIsland = hIsland.add(rect(6.321698697440642e-09, 5.050735242705716e-10).transl(-8.295716942191489e-08, 3.9042740202841743e-08, 0))
hIsland = hIsland.add(rect(3.989671045011722e-09, 1.4102680659542493e-10).transl(-4.088701540018264e-09, 4e-08, 0))
hIsland = hIsland.sub(rect(4.3348450210985764e-09, -7.017968441167895e-10).transl(-1.8271039844699756e-08, 4e-08, 0))
hIsland = hIsland.add(rect(3.263579297401619e-09, 1.3753237588853694e-10).transl(-4.2589393869669275e-08, 4e-08, 0))
hIsland = hIsland.sub(rect(2.5617706322437543e-09, -4.671209550957403e-10).transl(7.605139146902606e-08, 4e-08, 0))
hIsland = hIsland.sub(rect(4.6006660915042815e-09, -3.326419163947775e-10).transl(6.981626454242211e-08, 4e-08, 0))
hIsland = hIsland.sub(rect(4.001481356847068e-09, -1.7079212038536175e-10).transl(8.531034382580579e-08, 3.511418723608909e-08, 0))
hIsland = hIsland.add(rect(5.96813873822052e-09, 2.9895543483598717e-09).transl(-4.328516016559089e-08, 4e-08, 0))
hIsland = hIsland.sub(rect(6.71015491834834e-09, -1.646591869205516e-09).transl(6.748009567116688e-08, 4e-08, 0))
hIsland = hIsland.sub(rect(9.619697135314589e-09, -3.7553334254791697e-10).transl(7.060866678086782e-08, 4e-08, 0))
hIsland = hIsland.sub(rect(2.45484532275285e-09, -4.849340809018306e-09).transl(-7.043857552846527e-08, 4e-08, 0))
hIsland = hIsland.sub(rect(6.340978194841929e-09, -1.385388728928314e-09).transl(6.162936639648342e-08, 4e-08, 0))
hIsland = hIsland.add(rect(5.070348650991012e-09, 2.2653228042584005e-09).transl(8.509692771131904e-08, 3.5615278543663545e-08, 0))
hIsland = hIsland.add(rect(7.790975545342316e-09, 3.773171659221458e-09).transl(4.396629655608205e-08, 4e-08, 0))
hIsland = hIsland.add(rect(9.816869374465615e-09, 2.6201912899430986e-09).transl(-4.447440559399868e-08, 4e-08, 0))
hIsland = hIsland.add(rect(5.57608699289095e-09, 1.8375888721493852e-09).transl(-2.0666038755059225e-08, 4e-08, 0))
hIsland = hIsland.add(rect(8.047166702021538e-09, 9.377369359584068e-10).transl(4.786928678485662e-08, 4e-08, 0))
hIsland = hIsland.add(rect(5.208794500583867e-09, 1.1481900889026865e-09).transl(5.310504451795236e-08, 4e-08, 0))
hIsland = hIsland.add(rect(2.1712922902120832e-09, 3.8457746092070665e-10).transl(5.236265896477104e-08, 4e-08, 0))
hIsland = hIsland.add(rect(8.994869966277582e-09, 9.628437755059571e-10).transl(2.7035409714555543e-08, 4e-08, 0))
hIsland = hIsland.sub(rect(6.980237048803861e-09, -1.5954927007309903e-09).transl(-3.527371868741707e-08, 4e-08, 0))
hIsland = hIsland.add(rect(3.713421981560038e-09, 2.4085588782154854e-10).transl(-4.0746659940434054e-08, 4e-08, 0))
hIsland = hIsland.sub(rect(4.2114956863629735e-09, -5.626557050117326e-10).transl(8.227637198102298e-08, 3.959570361181571e-08, 0))
hIsland = hIsland.add(rect(8.531985434134922e-09, 1.1283964607083566e-09).transl(-3.1219406946609453e-09, 4e-08, 0))
hIsland = hIsland.add(rect(3.457652132754623e-09, 2.5798719262426373e-10).transl(2.712372131928762e-08, 4e-08, 0))
hIsland = hIsland.add(rect(5.859072754078526e-09, 2.887874049253921e-09).transl(8.145460713769189e-08, 3.994893835956703e-08, 0))
hIsland = hIsland.add(rect(6.920836803246407e-09, 7.329430084435249e-10).transl(9.58865345695509e-09, 4e-08, 0))
hIsland = hIsland.sub(rect(7.186845229019824e-09, -6.911225077092816e-10).transl(1.4542391226194366e-08, 4e-08, 0))
hIsland = hIsland.sub(rect(7.569601198114178e-09, -2.959975854946707e-10).transl(8.148608205772424e-09, 4e-08, 0))
hIsland = hIsland.add(rect(7.466661237112505e-09, 1.3882630831179444e-09).transl(5.8944914489372897e-08, 4e-08, 0))
hIsland = hIsland.sub(rect(4.551519764535935e-09, -1.997532212341181e-09).transl(-8.442387819161178e-08, 3.69923737563366e-08, 0))
hIsland = hIsland.sub(rect(8.028591573091938e-09, -4.279771199638485e-10).transl(-6.996664808992852e-08, 4e-08, 0))
hIsland = hIsland.add(rect(7.573600194380838e-09, 1.7063288448514073e-10).transl(-3.1695250356335955e-08, 4e-08, 0))
hIsland = hIsland.sub(rect(4.724098351308597e-09, -1.3921178370678753e-09).transl(5.566558982012195e-08, 4e-08, 0))
hIsland = hIsland.sub(rect(7.586644665508902e-09, -2.673878224494173e-09).transl(-2.096844517063237e-08, 4e-08, 0))
hIsland = hIsland.add(rect(7.449048860530642e-09, 7.991618478535846e-10).transl(4.254600317238354e-08, 4e-08, 0))
hIsland = hIsland.add(rect(3.5827967025892042e-09, 1.6319691496212121e-09).transl(1.3217699161026469e-08, 4e-08, 0))
hIsland = hIsland.add(rect(3.2488895865782867e-09, 2.768806234466317e-10).transl(2.787459451581633e-08, 4e-08, 0))
hIsland = hIsland.sub(rect(5.7774666009586776e-09, -2.338111960634848e-10).transl(-5.362354207742585e-08, 4e-08, 0))
hIsland = hIsland.add(rect(5.543041449134855e-09, 3.1641035486327136e-09).transl(-4.647379259643491e-08, 4e-08, 0))
hIsland = hIsland.sub(rect(7.669346433185358e-09, -7.761216840277403e-10).transl(-2.642588580724402e-08, 4e-08, 0))
hIsland = hIsland.sub(rect(4.997888096115043e-09, -2.606498176049827e-10).transl(8.683532561458179e-08, 3.0453032031916054e-08, 0))
hIsland = hIsland.sub(rect(2.2644512419531555e-09, -1.1829803270410547e-11).transl(3.6116008233915725e-08, 4e-08, 0))
hIsland = hIsland.sub(rect(6.406181831081622e-09, -1.7957487944775085e-09).transl(7.3294808177767e-08, 4e-08, 0))
hIsland = hIsland.sub(rect(9.876191597208423e-09, -2.305424861444852e-10).transl(-8.170092574109463e-08, 3.987850761982714e-08, 0))
hIsland = hIsland.sub(rect(6.485924534870165e-09, -2.8095315837394486e-09).transl(3.7328830372661246e-08, 4e-08, 0))
hIsland = hIsland.sub(rect(4.197700242442845e-09, -4.454098169284732e-09).transl(4.400078108898589e-08, 4e-08, 0))
hIsland = hIsland.sub(rect(4.4903380556264604e-09, -1.5095986290880805e-09).transl(3.4803715321134275e-09, 4e-08, 0))
hIsland = hIsland.sub(rect(7.675212473416793e-09, -1.685218172624453e-10).transl(3.307395286618299e-08, 4e-08, 0))
hIsland = hIsland.sub(rect(2.759816015426661e-09, -1.8573252133528019e-09).transl(-6.133001915303356e-08, 4e-08, 0))
hIsland = hIsland.sub(rect(3.99964197621933e-09, -3.499269309900947e-09).transl(7.142357959628197e-08, 4e-08, 0))
hIsland = hIsland.sub(rect(4.756388572969892e-09, -7.033112717167443e-10).transl(3.1884609550531216e-08, 4e-08, 0))
hIsland = hIsland.sub(rect(5.248828423714691e-09, -1.8428352170431644e-10).transl(3.086287535905044e-08, 4e-08, 0))
hIsland = hIsland.add(rect(4.822881024615494e-09, 2.914098819574406e-09).transl(6.754975002753846e-08, 4e-08, 0))
hIsland = hIsland.sub(rect(2.9461708750730324e-09, -3.4063971742630793e-09).transl(3.894777687605835e-08, 4e-08, 0))
hIsland = hIsland.sub(rect(9.364511872914556e-09, -7.427253527542136e-10).transl(2.7148496483992203e-08, 4e-08, 0))
hIsland = hIsland.add(rect(6.72857382220123e-09, 1.3660364421325782e-09).transl(-1.3235477412627146e-08, 4e-08, 0))
hIsland = hIsland.add(rect(3.1044158086903444e-09, 6.702223016599468e-10).transl(8.787347863536992e-08, 2.5821912963959317e-08, 0))
hIsland = hIsland.sub(rect(5.42216370091135e-09, -2.380093952791523e-09).transl(8.443297808465742e-08, 3.6975710805014124e-08, 0))
hIsland = hIsland.add(rect(3.989809802248186e-09, 1.0376094366970973e-09).transl(-2.2073126483037382e-08, 4e-08, 0))
hIsland = hIsland.add(rect(9.747811925930498e-09, 8.317106228752586e-10).transl(-7.965793115291122e-08, 4e-08, 0))
hIsland = hIsland.add(rect(7.705240155894148e-09, 3.429347716336083e-09).transl(7.274795801720926e-08, 4e-08, 0))
hIsland = hIsland.add(rect(7.479620012621985e-09, 4.125726291153815e-10).transl(1.5266637911934405e-08, 4e-08, 0))
hIsland = hIsland.sub(rect(5.102699409353715e-09, -1.7778492432751961e-09).transl(-4.484445322189524e-08, 4e-08, 0))
hIsland = hIsland.sub(rect(6.989281658661735e-09, -2.8433340305182666e-09).transl(7.12942245153895e-09, 4e-08, 0))
hIsland = hIsland.sub(rect(9.690369760588788e-09, -1.3221343599398907e-09).transl(-4.885300534784673e-08, 4e-08, 0))
hIsland = hIsland.add(rect(6.366446690564705e-09, 4.657240144810758e-10).transl(-8.84495026893598e-09, 4e-08, 0))
hIsland = hIsland.add(rect(6.010905532329853e-09, 3.124475694992576e-10).transl(2.4882952659201786e-08, 4e-08, 0))
hIsland = hIsland.sub(rect(2.920231352179303e-09, -2.5962676787660936e-09).transl(7.868493993382522e-08, 4e-08, 0))
hIsland = hIsland.sub(rect(9.816751787763262e-09, -2.7098975799028217e-10).transl(-1.1584626809730027e-08, 4e-08, 0))
hIsland = hIsland.add(rect(2.8257783810627872e-09, 2.9700043497082257e-09).transl(5.164491955762898e-08, 4e-08, 0))
hIsland = hIsland.add(rect(5.335983082264606e-09, 2.355703055409367e-10).transl(6.963167411292038e-08, 4e-08, 0))
hIsland = hIsland.add(rect(7.7836035987656e-09, 2.061725687463619e-09).transl(-8.309877335175618e-08, 3.889718017465938e-08, 0))
hIsland = hIsland.add(rect(3.1462158292323724e-09, 1.8879124379615987e-10).transl(9.942494795887843e-09, 4e-08, 0))
hIsland = hIsland.add(rect(6.175459596024855e-09, 2.26185650910625e-09).transl(2.334208793236733e-08, 4e-08, 0))
hIsland = hIsland.sub(rect(7.1884270531781645e-09, -2.559491551661709e-09).transl(-1.4005137416635647e-09, 4e-08, 0))
hIsland = hIsland.add(rect(3.8132079188194476e-09, 6.88666370810334e-11).transl(-1.7562962630648168e-09, 4e-08, 0))
hIsland = hIsland.sub(rect(2.994625233446633e-09, -2.809972136035385e-09).transl(-3.706186459194223e-08, 4e-08, 0))
hIsland = hIsland.add(rect(4.322684814280029e-09, 3.781651061714285e-09).transl(-9.137040447774277e-09, 4e-08, 0))
hIsland = hIsland.sub(rect(9.914685560941994e-09, -5.4079069468786e-10).transl(-5.083614350090155e-08, 4e-08, 0))
hIsland = hIsland.add(rect(4.872497767241239e-09, 8.762513585627169e-10).transl(2.004357423354822e-08, 4e-08, 0))
hIsland = hIsland.sub(rect(2.727914552848847e-09, -4.6349764719784666e-09).transl(6.172562080566834e-08, 4e-08, 0))
hIsland = hIsland.add(rect(8.992432037453449e-09, 2.626775966918195e-09).transl(3.42265632289127e-08, 4e-08, 0))
hIsland = hIsland.sub(rect(7.281412835165244e-09, -6.086542002134819e-10).transl(-4.992416971154449e-08, 4e-08, 0))
hIsland = hIsland.sub(rect(7.591854713204705e-09, -2.0174606018589345e-09).transl(-4.150623438264261e-09, 4e-08, 0))
hIsland = hIsland.sub(rect(6.750031433925022e-09, -5.593491700895171e-09).transl(-6.692715545618135e-08, 4e-08, 0))
hIsland = hIsland.add(rect(5.24536426481918e-09, 2.2559807148759773e-11).transl(-2.3710297303370922e-08, 4e-08, 0))
hIsland = hIsland.add(rect(4.646185536445149e-09, 2.6852579696838277e-09).transl(-3.5242679249634824e-08, 4e-08, 0))
hIsland = hIsland.sub(rect(8.752375325219207e-09, -1.2981405410064124e-09).transl(-1.0935953097459837e-08, 4e-08, 0))
hIsland = hIsland.sub(rect(2.377515531105161e-09, -2.13538400060149e-09).transl(3.640027277421886e-08, 4e-08, 0))
hIsland = hIsland.sub(rect(7.942188240499752e-09, -1.2958402444211598e-09).transl(-1.3161546192349923e-08, 4e-08, 0))
hIsland = hIsland.sub(rect(3.854191986145161e-09, -2.5739491255425067e-09).transl(-3.590325861569832e-08, 4e-08, 0))
hIsland = hIsland.add(rect(4.222537262887344e-09, 1.4159416349043303e-09).transl(4.3498129835896265e-08, 4e-08, 0))
hIsland = hIsland.sub(rect(2.47901672472326e-09, -6.499664106334924e-10).transl(5.442841227726806e-08, 4e-08, 0))
hIsland = hIsland.sub(rect(2.624993118701264e-09, -2.91436235601041e-10).transl(-6.358395460865797e-08, 4e-08, 0))
hIsland = hIsland.sub(rect(3.3007315145059447e-09, -2.081100630173281e-09).transl(8.171385431312647e-08, 3.987397728575993e-08, 0))
hIsland = hIsland.sub(rect(2.4336458589844475e-09, -4.322316320989359e-11).transl(-1.96636810397459e-08, 4e-08, 0))
hIsland = hIsland.sub(rect(5.363939124758433e-09, -1.1863444518409019e-09).transl(-2.5686746281359267e-09, 4e-08, 0))
hIsland = hIsland.sub(rect(7.2881174013249505e-09, -1.5633813072598392e-09).transl(6.905602892036824e-08, 4e-08, 0))
hIsland = hIsland.sub(rect(6.533704973241831e-09, -1.0323621768705877e-09).transl(6.61360468397448e-08, 4e-08, 0))
hIsland = hIsland.add(rect(4.834113956025749e-09, 2.337522641402994e-10).transl(-2.0105705772476376e-08, 4e-08, 0))
hIsland = hIsland.sub(rect(4.282774134456019e-09, -2.129615263966206e-09).transl(8.755628961789588e-08, 2.7402826364553056e-08, 0))
hIsland = hIsland.sub(rect(6.109083378786803e-09, -3.838854007022171e-09).transl(5.58830012011284e-08, 4e-08, 0))
hIsland = hIsland.sub(rect(2.035243931704624e-09, -4.4258411720553515e-10).transl(-6.479920837372098e-08, 4e-08, 0))
hIsland = hIsland.add(rect(9.720615201960762e-09, 1.4108548698949002e-09).transl(-1.7010301876132762e-08, 4e-08, 0))
hIsland = hIsland.sub(rect(4.801088153090728e-09, -3.162169544863352e-09).transl(-8.61909661617199e-08, 3.267614988816248e-08, 0))
hIsland = hIsland.add(rect(7.054840890899464e-09, 1.4727380666843178e-09).transl(-1.3837328306523494e-08, 4e-08, 0))
hIsland = hIsland.sub(rect(8.121726711609877e-09, -2.357866806663041e-10).transl(-3.5803862052900526e-08, 4e-08, 0))
hIsland = hIsland.add(rect(2.379363800280764e-09, 2.1455481303357816e-09).transl(7.687449692473846e-08, 4e-08, 0))
hIsland = hIsland.sub(rect(8.811409318363309e-09, -1.4589913139206994e-09).transl(1.0048295879405577e-08, 4e-08, 0))
hIsland = hIsland.add(rect(5.999263961814175e-09, 2.772939449030555e-09).transl(-7.436382592202162e-08, 4e-08, 0))
hIsland = hIsland.sub(rect(4.153747616929117e-09, -8.507413345336977e-10).transl(-4.627281623902308e-08, 4e-08, 0))
hIsland = hIsland.add(rect(2.590938587883324e-09, 8.651882697939428e-11).transl(-1.27691060095562e-08, 4e-08, 0))
hIsland = hIsland.sub(rect(6.2956682486379444e-09, -1.781730257400837e-10).transl(6.593659935531099e-08, 4e-08, 0))
hIsland = hIsland.add(rect(7.0805766677830586e-09, 8.679838735430635e-10).transl(7.54795521023693e-09, 4e-08, 0))
hIsland = hIsland.add(rect(9.631627061421703e-09, 1.6954598395660635e-09).transl(2.2126315635946725e-08, 4e-08, 0))
hIsland = hIsland.add(rect(2.446460263121009e-09, 1.4686754194482604e-09).transl(-4.5332410836512874e-08, 4e-08, 0))
hIsland = hIsland.sub(rect(6.521902888486945e-09, -9.74224636488205e-10).transl(-7.818806803454218e-08, 4e-08, 0))
vIsland = hIsland.rotz(pi / 2)
vIslands = vIslands.add(vIsland.transl(0, -a/2, 0))
DefRegion(1, hIslands)
DefRegion(2, vIslands)
TableAdd(m_full.Region(1))
TableAdd(m_full.Region(2))
setgeom(hIslands.add(vIslands))
save(geom)
r2o2 := sqrt(2) / 2
m = RandomMagSeed(4)
B_ext = vector(Bmax*r2o2, Bmax*r2o2, 0)
relax()
minimize()
for B := Bmax; B >= -Bmax; B -= Bstep {
	B_ext = vector(B*r2o2, B*r2o2, 0)
	minimize()
	tablesave()
}
//********************************************************************//
//Please cite the following references, relevant for your simulation. //
//See bibtex file in output folder for justification.                 //
//********************************************************************//
//   * Vansteenkiste et al., AIP Adv. 4, 107133 (2014).
//   * Exl et al., J. Appl. Phys. 115, 17D118 (2014).
