//mumax 3.10 [windows_amd64 go1.11.6(gc) CUDA-11.0]
//GPU info: NVIDIA GeForce RTX 3090(24575MB), CUDA Driver 12.0, cc=8.6, using cc=80 PTX
//(c) Arne Vansteenkiste, Dynamat LAB, Ghent University, Belgium
//This is free software without any warranty. See license.txt
//********************************************************************//
//  If you use mumax in any work or publication,                      //
//  we kindly ask you to cite the references in references.bib        //
//********************************************************************//
//output directory: r1;p0.8;a3.2e-07;l1.8000000000000002e-07;s1.out/
randSeed(1)
ThermSeed(1)
resolution := 2e-09
zResolution := 5e-09
a := 3.2e-07
gridSize := 320
gridDepth := 5
SetCellsize(resolution, resolution, zResolution)
SetGridsize(gridSize, gridSize, gridDepth)
SetPBC(16, 16, 0)
//resizing...
Msat = 700e3
Aex = 13e-12
alpha = 0.2
Bmax := 0.1
Bstep := Bmax / 500.0
TableAdd(B_ext)
TableAdd(m_full)
islandWidth := 8e-08
islandLength := 1.8000000000000002e-07
ellipseConstant := 7.200000000000001e-08
hIsland := rect(islandLength-2*ellipseConstant, islandWidth)
hIsland = hIsland.add(ellipse(ellipseConstant*2, islandWidth).transl(islandLength/2-ellipseConstant, 0, 0))
hIsland = hIsland.add(ellipse(ellipseConstant*2, islandWidth).transl(-islandLength/2+ellipseConstant, 0, 0))
hIsland = hIsland.sub(rect(1e-08, -3.471232048284137e-09).transl(-1.1266712088541683e-08, -4e-08, 0))
hIsland = hIsland.add(rect(1e-08, 3.324247509451373e-09).transl(8.308719674692324e-08, -1.7102241745586373e-08, 0))
hIsland = hIsland.add(rect(1e-08, 1.2937305674606774e-09).transl(-8.639665199327993e-08, -1.2495653517288434e-08, 0))
hIsland = hIsland.sub(rect(1e-08, -4.501533081119447e-09).transl(5.976382188373792e-08, -3.258314711353158e-08, 0))
hIsland = hIsland.add(rect(1e-08, 4.218747195885388e-09).transl(7.78636640718043e-09, -4e-08, 0))
hIsland = hIsland.add(rect(1e-08, 5.800155296464951e-09).transl(-7.003032673391719e-08, -2.7648840196032597e-08, 0))
hIsland = hIsland.sub(rect(1e-08, -4.266982891342121e-09).transl(-2.4262129151178626e-08, -3.9848423216841414e-08, 0))
hIsland = hIsland.sub(rect(1e-08, -1.3668860668535897e-09).transl(-7.217402353273372e-08, -2.6347483155006245e-08, 0))
hIsland = hIsland.sub(rect(1e-08, -4.384386955388834e-09).transl(1.3561568064360403e-08, -4e-08, 0))
hIsland = hIsland.add(rect(1e-08, 8.870769338776914e-11).transl(4.0887947736912055e-08, -3.7925128678836296e-08, 0))
hIsland = hIsland.add(rect(1e-08, 2.3361632011923495e-09).transl(8.858480471005925e-08, -7.891731570048702e-09, 0))
hIsland = hIsland.sub(rect(1e-08, -5.261818569312367e-09).transl(6.265095140473016e-08, -3.137926370936875e-08, 0))
hIsland = hIsland.add(rect(1e-08, 3.1811902771804315e-09).transl(8.720207322896729e-08, -1.104246937421372e-08, 0))
hIsland = hIsland.sub(rect(1e-08, -7.596089602207945e-10).transl(2.0939289303318795e-08, -3.996665499950173e-08, 0))
hIsland = hIsland.add(rect(1e-08, 4.738751483805553e-09).transl(-6.150152962418541e-08, -3.187367484709069e-08, 0))
hIsland = hIsland.sub(rect(1e-08, -1.5135270343689042e-09).transl(6.79200969391379e-08, -2.882462896652339e-08, 0))
hIsland = hIsland.add(rect(1e-08, 3.5001426614723378e-09).transl(5.067881567655297e-08, -3.564266675212516e-08, 0))
hIsland = hIsland.sub(rect(1e-08, -4.937808424242105e-09).transl(3.9713825325812846e-08, -3.8137623551560223e-08, 0))
hIsland = hIsland.add(rect(1e-08, 2.0132885027940256e-09).transl(4.587476716701251e-09, -4e-08, 0))
hIsland = hIsland.add(rect(1e-08, 9.04626155353994e-09).transl(2.588612161723279e-08, -3.97593419639568e-08, 0))
hIsland = hIsland.sub(rect(1e-08, -1.4081167753702184e-10).transl(7.192848625333768e-08, -2.6502494469270146e-08, 0))
hIsland = hIsland.add(rect(1e-08, 4.9101734323990496e-09).transl(-5.0740476318370346e-08, -3.562519746727266e-08, 0))
hIsland = hIsland.add(rect(1e-08, 4.968700568318548e-09).transl(-5.6060091459208046e-08, -3.395453313486131e-08, 0))
hIsland = hIsland.sub(rect(1e-08, -3.770186382825773e-09).transl(3.563913913889188e-08, -3.878104399822452e-08, 0))
hIsland = hIsland.add(rect(1e-08, 3.8791887090130875e-09).transl(8.483527620351851e-08, -1.4876506613185717e-08, 0))
hIsland = hIsland.sub(rect(1e-08, -2.6675649138125867e-09).transl(4.438369720596961e-08, -3.721766357550759e-08, 0))
hIsland = hIsland.add(rect(1e-08, 8.780309971611662e-09).transl(-6.6824762955046484e-09, -4e-08, 0))
hIsland = hIsland.sub(rect(1e-08, -3.454931417519492e-09).transl(7.650929072621858e-08, -2.331125210948536e-08, 0))
hIsland = hIsland.add(rect(1e-08, 5.492451146053185e-09).transl(2.3650531251815746e-08, -3.9876628789723586e-08, 0))
hIsland = hIsland.sub(rect(1e-08, -2.727441549389083e-09).transl(-5.0739864446431434e-08, -3.562537102266963e-08, 0))
hIsland = hIsland.sub(rect(1e-08, -6.546334746409259e-09).transl(8.386266531289221e-08, -1.615997683160874e-08, 0))
hIsland = hIsland.add(rect(1e-08, 9.418595432131859e-10).transl(7.514397535749236e-08, -2.4334132916481907e-08, 0))
hIsland = hIsland.add(rect(1e-08, 6.8807712119782035e-09).transl(-5.733929140985895e-08, -3.350152083967307e-08, 0))
hIsland = hIsland.sub(rect(1e-08, -3.4297380133665728e-09).transl(-5.6213576924824936e-08, -3.390128433876882e-08, 0))
hIsland = hIsland.add(rect(1e-08, 4.717809416247369e-09).transl(-6.735238515170233e-08, -2.9124795764864546e-08, 0))
hIsland = hIsland.sub(rect(1e-08, -3.2775923481185318e-09).transl(-1.1033319720469876e-08, -4e-08, 0))
hIsland = hIsland.sub(rect(1e-08, -5.722007365745756e-09).transl(7.490815434873927e-08, -2.4504106286145954e-08, 0))
hIsland = hIsland.sub(rect(1e-08, -1.0399461836397816e-08).transl(1.2243500114606324e-08, -4e-08, 0))
hIsland = hIsland.sub(rect(1e-08, -3.316590209449697e-09).transl(4.1774697650613605e-08, -3.7756381815324146e-08, 0))
hIsland = hIsland.sub(rect(1e-08, -5.4347426959486e-09).transl(7.04338880867548e-08, -2.7412528563684843e-08, 0))
hIsland = hIsland.sub(rect(1e-08, -4.039035605086904e-09).transl(9.631585171451466e-09, -4e-08, 0))
hIsland = hIsland.sub(rect(1e-08, -3.103392755960416e-09).transl(-5.727846635906731e-08, -3.3523541021454854e-08, 0))
hIsland = hIsland.sub(rect(1e-08, -1.2145895322904542e-09).transl(4.932853820806022e-08, -3.6014926148434555e-08, 0))
hIsland = hIsland.add(rect(1e-08, 5.73164200393376e-09).transl(-4.456513532708971e-08, -3.717780760215568e-08, 0))
hIsland = hIsland.add(rect(1e-08, 2.2291827531692247e-10).transl(-7.822807675477403e-08, -2.1918611872704207e-08, 0))
hIsland = hIsland.sub(rect(1e-08, -6.535790444136902e-10).transl(-8.043930544253685e-08, -1.9917523891776877e-08, 0))
hIsland = hIsland.sub(rect(1e-08, -2.803109284166919e-10).transl(1.4013053521879208e-08, -4e-08, 0))
hIsland = hIsland.add(rect(1e-08, 6.93127194693153e-10).transl(-8.928858210435338e-08, -5.609132256971119e-09, 0))
hIsland = hIsland.sub(rect(1e-08, -3.926764822953931e-09).transl(-8.215305511982706e-08, -1.8158981714601862e-08, 0))
hIsland = hIsland.sub(rect(1e-08, -1.7847912711843488e-09).transl(1.6733747278647573e-08, -4e-08, 0))
hIsland = hIsland.sub(rect(1e-08, -4.519519311780912e-09).transl(-8.235394905901757e-09, -4e-08, 0))
hIsland = hIsland.sub(rect(1e-08, -1.0593982838999657e-08).transl(-7.305645031460173e-08, -2.577674374575858e-08, 0))
hIsland = hIsland.add(rect(1e-08, 1.6358551652170555e-09).transl(8.704633264571591e-08, -1.1339376768005096e-08, 0))
hIsland = hIsland.sub(rect(1e-08, -3.1517896936127746e-09).transl(-4.872075404238605e-08, -3.6176160518158394e-08, 0))
hIsland = hIsland.sub(rect(1e-08, -3.3441132754645808e-09).transl(4.550036054426302e-08, -3.6967328626539605e-08, 0))
hIsland = hIsland.add(rect(1e-08, 5.92936241283193e-09).transl(-1.1399489453263393e-08, -4e-08, 0))
hIsland = hIsland.sub(rect(1e-08, -1.1397425042410917e-09).transl(-5.1058083454302154e-08, -3.553455594418958e-08, 0))
hIsland = hIsland.sub(rect(1e-08, -3.6897077203461873e-09).transl(7.457145737915249e-08, -2.47435626370763e-08, 0))
hIsland = hIsland.add(rect(1e-08, 6.218140595980772e-10).transl(3.420555760384827e-08, -3.89736374287608e-08, 0))
hIsland = hIsland.sub(rect(1e-08, -8.843393815111063e-10).transl(-2.8090700328243313e-08, -3.960521916163615e-08, 0))
hIsland = hIsland.add(rect(1e-08, 7.690191411792743e-09).transl(3.382411367754786e-08, -3.9021984252944524e-08, 0))
hIsland = hIsland.add(rect(1e-08, 5.242666715739721e-09).transl(3.772637647904686e-08, -3.846944462900212e-08, 0))
hIsland = hIsland.add(rect(1e-08, 1.311451843635275e-09).transl(-4.5821386576758135e-08, -3.689311575911707e-08, 0))
hIsland = hIsland.sub(rect(1e-08, -8.763367343278232e-10).transl(8.802807176366692e-08, -9.297370613673472e-09, 0))
hIsland = hIsland.add(rect(1e-08, 6.93646727597588e-10).transl(-7.914095787579693e-08, -2.1124142688645505e-08, 0))
hIsland = hIsland.sub(rect(1e-08, -3.553633968712475e-09).transl(-2.6693825001957005e-08, -3.9707329791194876e-08, 0))
hIsland = hIsland.add(rect(1e-08, 2.5994738938916007e-10).transl(-2.31011697122997e-09, -4e-08, 0))
hIsland = hIsland.sub(rect(1e-08, -4.464289148494383e-09).transl(6.516079866200402e-09, -4e-08, 0))
hIsland = hIsland.add(rect(1e-08, 5.41914156085929e-09).transl(1.720199596967959e-08, -4e-08, 0))
hIsland = hIsland.add(rect(1e-08, 1.0559309263104995e-09).transl(-5.439749458321043e-08, -3.451257772186494e-08, 0))
hIsland = hIsland.add(rect(1e-08, 4.186874633590757e-09).transl(-7.9361259942218e-08, -2.0926058672745112e-08, 0))
hIsland = hIsland.add(rect(1e-08, 6.879453050051632e-10).transl(2.4590309702049778e-08, -3.983208512700716e-08, 0))
hIsland = hIsland.sub(rect(1e-08, -5.085946031442629e-10).transl(-7.934436097466375e-08, -2.0941345015364138e-08, 0))
hIsland = hIsland.add(rect(1e-08, 5.377158816576432e-10).transl(-7.454635062427682e-08, -2.476126898384312e-08, 0))
hIsland = hIsland.sub(rect(1e-08, -7.639831296831205e-09).transl(-5.2951587068001486e-08, -3.497082806076414e-08, 0))
hIsland = hIsland.add(rect(1e-08, 3.1734568642210493e-09).transl(6.988194376221342e-08, -2.7734766208168532e-08, 0))
hIsland = hIsland.add(rect(1e-08, 1.5280549046126393e-09).transl(-5.038309414634732e-08, -3.572587338135686e-08, 0))
hIsland = hIsland.add(rect(1e-08, 2.784188582646778e-09).transl(4.298557338346081e-08, -3.75142817359812e-08, 0))
hIsland = hIsland.add(rect(1e-08, 2.4361804681002035e-09).transl(-6.643795304262078e-08, -2.9594818871298376e-08, 0))
hIsland = hIsland.sub(rect(1e-08, -1.4118421913734587e-09).transl(7.118232533357176e-08, -2.6963854819033064e-08, 0))
hIsland = hIsland.sub(rect(1e-08, -4.853707582658171e-10).transl(-6.807841698756807e-08, -2.8739744021575692e-08, 0))
hIsland = hIsland.sub(rect(1e-08, -8.7310179052372e-09).transl(-4.334290498355481e-08, -3.744022877272336e-08, 0))
hIsland = hIsland.sub(rect(1e-08, -2.4142003667428447e-10).transl(3.982312874697521e-08, -3.811836281709705e-08, 0))
hIsland = hIsland.add(rect(1e-08, 5.219571907952451e-09).transl(-1.6841529570374436e-08, -4e-08, 0))
hIsland = hIsland.sub(rect(1e-08, -3.860243382848145e-09).transl(7.047569367495863e-08, -2.7387827189991913e-08, 0))
hIsland = hIsland.sub(rect(1e-08, -1.520518507567621e-09).transl(1.7180746626913362e-08, -4e-08, 0))
hIsland = hIsland.add(rect(1e-08, 2.4624387590453028e-09).transl(-6.743824953739906e-08, -2.907981504070838e-08, 0))
hIsland = hIsland.sub(rect(1e-08, -4.889858904046969e-09).transl(3.7305156374634664e-08, -3.8535341071905103e-08, 0))
hIsland = hIsland.add(rect(1e-08, 1.0002158511743022e-09).transl(-7.513851770529386e-08, -2.433808803395843e-08, 0))
hIsland = hIsland.sub(rect(1e-08, -7.929910096580899e-09).transl(-4.475614471752419e-08, -3.713550728332366e-08, 0))
hIsland = hIsland.sub(rect(1e-08, -4.678895971726528e-10).transl(5.3421674406574354e-08, -3.482453806308113e-08, 0))
hIsland = hIsland.sub(rect(1e-08, -1.700999830764373e-10).transl(-1.5774437404806353e-08, -4e-08, 0))
hIsland = hIsland.sub(rect(1e-08, -5.678858026211211e-09).transl(-8.969691554835154e-08, -3.6663426141547618e-09, 0))
hIsland = hIsland.sub(rect(1e-08, -2.231507785469138e-09).transl(2.5286741193302282e-08, -3.9794624779641e-08, 0))
hIsland = hIsland.sub(rect(1e-08, -4.195018995915992e-09).transl(2.2046898463795365e-08, -3.9936765653611985e-08, 0))
hIsland = hIsland.add(rect(1e-08, 5.103770313481595e-09).transl(-1.6914245940160875e-08, -4e-08, 0))
hIsland = hIsland.sub(rect(1e-08, -7.702246189664017e-09).transl(-4.490325079546061e-08, -3.7102689898810974e-08, 0))
hIsland = hIsland.add(rect(1e-08, 1.947833932441475e-09).transl(8.906396368905104e-08, -6.42893403605044e-09, 0))
hIsland = hIsland.add(rect(1e-08, 1.3816696547380303e-09).transl(8.424818548622302e-08, -1.5666055147472165e-08, 0))
hIsland = hIsland.sub(rect(1e-08, -2.4169055706203106e-09).transl(-8.852832474022935e-08, -8.046075059889032e-09, 0))
hIsland = hIsland.add(rect(1e-08, 7.0997895579405375e-09).transl(4.33676241547664e-09, 4e-08, 0))
hIsland = hIsland.add(rect(1e-08, 3.49666735006122e-09).transl(-3.914447658532452e-08, 3.823623414813583e-08, 0))
hIsland = hIsland.add(rect(1e-08, 1.194072102029146e-09).transl(8.021483880480648e-08, 2.0133151155754967e-08, 0))
hIsland = hIsland.sub(rect(1e-08, -4.24208621770294e-09).transl(7.976184767082262e-08, 2.0559115099355584e-08, 0))
hIsland = hIsland.add(rect(1e-08, 4.1088970489608296e-09).transl(-6.140827327792247e-08, 3.1912891716750814e-08, 0))
hIsland = hIsland.add(rect(1e-08, 5.386304231070198e-10).transl(-1.3228647820587304e-08, 4e-08, 0))
hIsland = hIsland.add(rect(1e-08, 1.3201876789983668e-09).transl(-3.340995882329461e-08, 3.907310799296291e-08, 0))
hIsland = hIsland.sub(rect(1e-08, -8.57097461802974e-09).transl(7.495922550468354e-08, 2.446745526725504e-08, 0))
hIsland = hIsland.add(rect(1e-08, 2.7601469763655487e-09).transl(-8.13764507419215e-08, 1.8982004890896656e-08, 0))
hIsland = hIsland.sub(rect(1e-08, -6.568577000922578e-09).transl(-6.829668136353553e-09, 4e-08, 0))
hIsland = hIsland.sub(rect(1e-08, -1.5231082389491923e-09).transl(1.9827112955833805e-08, 3.9987118520931e-08, 0))
hIsland = hIsland.add(rect(1e-08, 8.383465190025271e-09).transl(1.5351876293730424e-08, 4e-08, 0))
hIsland = hIsland.add(rect(1e-08, 4.059428472156903e-09).transl(6.992715067209987e-09, 4e-08, 0))
hIsland = hIsland.sub(rect(1e-08, -1.5879016961503804e-09).transl(2.2316031136205895e-08, 3.9928067556232835e-08, 0))
hIsland = hIsland.sub(rect(1e-08, -3.1603822840498697e-09).transl(-2.265773763372251e-08, 3.991621425605914e-08, 0))
hIsland = hIsland.add(rect(1e-08, 3.8956618018788245e-09).transl(6.931870440252535e-08, 2.8056328803679804e-08, 0))
hIsland = hIsland.sub(rect(1e-08, -9.752262673131024e-10).transl(5.707478919025043e-08, 3.3596924690876245e-08, 0))
hIsland = hIsland.sub(rect(1e-08, -4.8565703786712964e-09).transl(-7.128972950735903e-08, 2.6898326678372645e-08, 0))
hIsland = hIsland.sub(rect(1e-08, -6.043110871287938e-10).transl(4.469896901923788e-08, 3.714820606684122e-08, 0))
hIsland = hIsland.sub(rect(1e-08, -6.079974046740158e-10).transl(2.0781441400875883e-08, 3.997014157094888e-08, 0))
hIsland = hIsland.add(rect(1e-08, 2.4740004370005027e-09).transl(7.579827759772976e-08, 2.385242117492692e-08, 0))
hIsland = hIsland.sub(rect(1e-08, -1.408425674276734e-09).transl(6.078410322511703e-08, 3.217199395159972e-08, 0))
hIsland = hIsland.add(rect(1e-08, 4.185414961386789e-09).transl(7.136889688873897e-09, 4e-08, 0))
hIsland = hIsland.add(rect(1e-08, 4.115445345175998e-09).transl(-2.459936660169659e-08, 3.983162231121571e-08, 0))
hIsland = hIsland.sub(rect(1e-08, -1.547618169688024e-09).transl(3.25431884821555e-08, 3.917551385015404e-08, 0))
hIsland = hIsland.add(rect(1e-08, 4.752017281092681e-09).transl(4.476369332712618e-09, 4e-08, 0))
hIsland = hIsland.add(rect(1e-08, 2.1329808170090883e-09).transl(5.2152418677010205e-08, 3.521368762053306e-08, 0))
hIsland = hIsland.sub(rect(1e-08, -6.921222791289447e-09).transl(1.2281400310290758e-08, 4e-08, 0))
hIsland = hIsland.add(rect(1e-08, 1.0442158088921137e-09).transl(5.8262412948522034e-08, 3.31613065814062e-08, 0))
hIsland = hIsland.sub(rect(1e-08, -3.7357415438375175e-09).transl(3.6704049677964855e-08, 3.8626729557522025e-08, 0))
hIsland = hIsland.sub(rect(1e-08, -5.317724643510913e-09).transl(2.2480480672970913e-08, 3.992247616016562e-08, 0))
hIsland = hIsland.sub(rect(1e-08, -8.01136697728641e-09).transl(-4.432067301879041e-08, 3.723143406674022e-08, 0))
hIsland = hIsland.add(rect(1e-08, 5.221601522763936e-09).transl(-4.103583981198738e-08, 3.7897482261710794e-08, 0))
hIsland = hIsland.add(rect(1e-08, 3.187437425705582e-09).transl(1.5185074185851288e-08, 4e-08, 0))
hIsland = hIsland.add(rect(1e-08, 6.073533096951941e-10).transl(6.516506167693115e-08, 3.0222717300945404e-08, 0))
hIsland = hIsland.sub(rect(1e-08, -5.721063896717766e-09).transl(-4.147349329783728e-09, 4e-08, 0))
hIsland = hIsland.add(rect(1e-08, 2.226472220157607e-09).transl(-3.392228523888253e-08, 3.900965705370972e-08, 0))
hIsland = hIsland.add(rect(1e-08, 4.105428862983495e-09).transl(2.340818657356421e-08, 3.988699901893186e-08, 0))
hIsland = hIsland.add(rect(1e-08, 1.849561697128501e-09).transl(-1.7026149643730026e-08, 4e-08, 0))
hIsland = hIsland.add(rect(1e-08, 1.8104883966107066e-09).transl(-4.573556595252095e-08, 3.691305425555111e-08, 0))
hIsland = hIsland.sub(rect(1e-08, -2.181220931972532e-09).transl(3.466761748024771e-08, 3.891344672035707e-08, 0))
hIsland = hIsland.add(rect(1e-08, 2.622317849531024e-09).transl(2.1226350572402876e-08, 3.995982033684677e-08, 0))
hIsland = hIsland.sub(rect(1e-08, -1.822879522017356e-09).transl(7.58363427771002e-08, 2.382392623316966e-08, 0))
hIsland = hIsland.add(rect(1e-08, 1.4645019790969965e-09).transl(-6.554509268327877e-08, 3.0038371354368955e-08, 0))
hIsland = hIsland.sub(rect(1e-08, -2.659464573665414e-09).transl(-7.841693219320702e-09, 4e-08, 0))
hIsland = hIsland.add(rect(1e-08, 7.411251834229631e-09).transl(2.7903212494522607e-08, 3.961982287824879e-08, 0))
hIsland = hIsland.sub(rect(1e-08, -3.195743719507784e-10).transl(6.30010852685296e-08, 3.122450725453382e-08, 0))
hIsland = hIsland.add(rect(1e-08, 4.523959668590457e-09).transl(-1.6629355804773958e-08, 4e-08, 0))
hIsland = hIsland.sub(rect(1e-08, -5.372635080686854e-09).transl(-5.373421302930435e-08, 3.472584878472871e-08, 0))
hIsland = hIsland.sub(rect(1e-08, -4.023908675668458e-09).transl(-3.212359376007391e-08, 3.922286787043504e-08, 0))
hIsland = hIsland.add(rect(1e-08, 4.725106366337629e-09).transl(-7.222845194451757e-09, 4e-08, 0))
hIsland = hIsland.add(rect(1e-08, 6.079473793008736e-10).transl(-2.9066204440121287e-08, 3.952471925111495e-08, 0))
hIsland = hIsland.add(rect(1e-08, 2.3177803761610245e-09).transl(-8.535208043461142e-08, 1.4138831708350158e-08, 0))
hIsland = hIsland.sub(rect(1e-08, -1.8691317644149286e-09).transl(4.6115601468677805e-08, 3.682421101236906e-08, 0))
hIsland = hIsland.add(rect(1e-08, 4.944835076895983e-09).transl(1.731491475020341e-08, 4e-08, 0))
hIsland = hIsland.sub(rect(1e-08, -3.1590939813449407e-09).transl(-6.238542099594988e-08, 3.1495318106952263e-08, 0))
hIsland = hIsland.sub(rect(1e-08, -4.24534616112221e-09).transl(1.5287845537281076e-08, 4e-08, 0))
hIsland = hIsland.sub(rect(1e-08, -1.9262418277495207e-10).transl(-4.857212346737769e-08, 3.621500126855308e-08, 0))
hIsland = hIsland.add(rect(1e-08, 6.456341478837333e-09).transl(3.944142106171316e-08, 3.818516235840505e-08, 0))
hIsland = hIsland.sub(rect(1e-08, -5.157173544464724e-10).transl(-8.375827137673556e-08, 1.6290663704502973e-08, 0))
hIsland = hIsland.sub(rect(1e-08, -3.0497877311506795e-09).transl(-4.750949811715876e-08, 3.6486042997328475e-08, 0))
hIsland = hIsland.sub(rect(1e-08, -3.6385218099630833e-09).transl(6.13596297448867e-08, 3.193329519630802e-08, 0))
hIsland = hIsland.sub(rect(1e-08, -4.078471543300713e-09).transl(7.142769623823641e-09, 4e-08, 0))
hIsland = hIsland.add(rect(1e-08, 4.425317322102251e-09).transl(-2.1878016581168507e-08, 3.994193697660726e-08, 0))
hIsland = hIsland.sub(rect(1e-08, -1.8180588401197164e-09).transl(-6.6963533462266e-08, 2.9326663756122665e-08, 0))
hIsland = hIsland.add(rect(1e-08, 2.0269509116002537e-09).transl(1.4825352433885065e-09, 4e-08, 0))
hIsland = hIsland.add(rect(1e-08, 3.446311937053938e-09).transl(-7.643085112617235e-08, 2.3371896946413896e-08, 0))
hIsland = hIsland.add(rect(1e-08, 4.200272882738042e-09).transl(-1.921662910257631e-08, 3.999428899672977e-08, 0))
hIsland = hIsland.sub(rect(1e-08, -2.697371579828624e-09).transl(-6.51962757368336e-08, 3.0207673972741563e-08, 0))
hIsland = hIsland.sub(rect(1e-08, -7.2796711203058736e-09).transl(-6.964133008258971e-08, 2.7873020204847193e-08, 0))
hIsland = hIsland.sub(rect(1e-08, -3.5084001313411364e-09).transl(6.197365924184043e-09, 4e-08, 0))
hIsland = hIsland.sub(rect(1e-08, -5.423489985423095e-09).transl(6.262835557167851e-08, 3.138918327771405e-08, 0))
hIsland = hIsland.add(rect(1e-08, 5.057266667879522e-09).transl(8.118033271906753e-08, 1.9182727228478213e-08, 0))
hIsland = hIsland.add(rect(1e-08, 5.313762895397333e-09).transl(-8.008570993191642e-08, 2.0255807140586794e-08, 0))
hIsland = hIsland.sub(rect(1e-08, -1.0330072678370319e-09).transl(4.507186703452865e-08, 3.706481649752645e-08, 0))
hIsland = hIsland.add(rect(1e-08, 8.926490672508458e-09).transl(-6.843070285954385e-08, 2.854898437736682e-08, 0))
hIsland = hIsland.add(rect(1e-08, 1.0837226391281688e-09).transl(-2.1779830804185103e-08, 3.994484190457385e-08, 0))
hIsland = hIsland.add(rect(1e-08, 7.824562754919799e-10).transl(-4.236085746150268e-08, 3.7640881963386427e-08, 0))
hIsland = hIsland.add(rect(1e-08, 1.5386946623194687e-09).transl(3.6927490865062203e-08, 3.859312166676194e-08, 0))
hIsland = hIsland.sub(rect(1e-08, -7.516870556213804e-09).transl(1.592980005665732e-08, 4e-08, 0))
hIsland = hIsland.add(rect(1e-08, 3.828664140893347e-09).transl(-5.030709111868432e-08, 3.574710496544013e-08, 0))
hIsland = hIsland.sub(rect(1e-08, -4.299046657169641e-09).transl(-2.239755949046191e-08, 3.9925321765317695e-08, 0))
hIsland = hIsland.sub(rect(1e-08, -5.383244803528395e-11).transl(-7.543322003562944e-08, 2.4123046433658094e-08, 0))
hIsland = hIsland.sub(rect(1e-08, -3.3728005465291704e-09).transl(-5.97454449501427e-08, 3.259041471744607e-08, 0))
hIsland = hIsland.sub(rect(1e-08, -2.6328477646818295e-09).transl(8.43707235358123e-08, 1.5505147067878295e-08, 0))
hIsland = hIsland.add(rect(1e-08, 3.574499852784561e-09).transl(-3.4302291110134925e-08, 3.8961184009629725e-08, 0))
hIsland = hIsland.add(rect(1e-08, 1.4247947417832666e-09).transl(6.888309760846366e-08, 2.830014601981895e-08, 0))
hIsland = hIsland.add(rect(1e-08, 4.3006372541066615e-09).transl(2.7448649130606836e-08, 3.965407141149866e-08, 0))
hIsland = hIsland.sub(rect(1e-08, -1.6653739513796068e-09).transl(-4.1429426511993e-08, 3.782293858392266e-08, 0))
hIsland = hIsland.sub(rect(1e-08, -7.525377680935186e-10).transl(2.7765916726646098e-08, 3.963034000505315e-08, 0))
hIsland = hIsland.add(rect(1e-08, 2.9943448210888495e-09).transl(1.3965041329547865e-08, 4e-08, 0))
hIsland = hIsland.add(rect(1e-08, 9.794024916941919e-09).transl(-8.374862544854805e-08, 1.630267579743705e-08, 0))
hIsland = hIsland.sub(rect(1e-08, -4.9591030371029544e-09).transl(-8.889700747706283e-09, 4e-08, 0))
hIsland = hIsland.add(rect(1e-08, 9.664293862632134e-10).transl(-1.0956849022950098e-08, 4e-08, 0))
hIsland = hIsland.add(rect(1e-08, 2.9182308772619767e-09).transl(-4.784518970942947e-09, 4e-08, 0))
hIsland = hIsland.add(rect(1e-08, 1.2057340664997522e-09).transl(-8.638544189536289e-08, 1.2514575906359477e-08, 0))
hIsland = hIsland.add(rect(1e-08, 2.1995042557435832e-10).transl(2.0367969334737992e-08, 3.997836112704273e-08, 0))
hIsland = hIsland.sub(rect(1e-08, -9.236062565988177e-09).transl(-7.915304151872828e-08, 2.1113344275224747e-08, 0))
hIsland = hIsland.sub(rect(1e-08, -1.7008316936542708e-09).transl(-6.078224122754636e-08, 3.217275818136062e-08, 0))
hIsland = hIsland.add(rect(1e-08, 6.65242300759827e-10).transl(-1.1685667718109754e-08, 4e-08, 0))
vIsland := hIsland.rotz(pi / 2)
vIslands := Universe().Inverse()
hIslands := Universe().Inverse()
hIslands = hIslands.add(hIsland.transl(-a/2, a, 0))
hIslands = hIslands.add(hIsland.transl(-a/2, -a, 0))
hIslands = hIslands.add(hIsland.transl(a/2, a, 0))
hIslands = hIslands.add(hIsland.transl(a/2, -a, 0))
hIslands = hIslands.add(hIsland.transl(-a/2, 0, 0))
hIslands = hIslands.add(hIsland.transl(a/2, 0, 0))
vIslands = vIslands.add(vIsland.transl(-a, a/2, 0))
vIslands = vIslands.add(vIsland.transl(a, a/2, 0))
vIslands = vIslands.add(vIsland.transl(-a, -a/2, 0))
vIslands = vIslands.add(vIsland.transl(a, -a/2, 0))
vIslands = vIslands.add(vIsland.transl(0, a/2, 0))
vIslands = vIslands.add(vIsland.transl(0, -a/2, 0))
DefRegion(1, hIslands)
DefRegion(2, vIslands)
TableAdd(m_full.Region(1))
TableAdd(m_full.Region(2))
setgeom(hIslands.add(vIslands))
save(m)
r2o2 := sqrt(2) / 2
m = RandomMagSeed(4)
B_ext = vector(Bmax*r2o2, Bmax*r2o2, 0)
relax()
minimize()
for B := Bmax; B >= -Bmax; B -= Bstep {
	B_ext = vector(B*r2o2, B*r2o2, 0)
	minimize()
	tablesave()
}
//********************************************************************//
//Please cite the following references, relevant for your simulation. //
//See bibtex file in output folder for justification.                 //
//********************************************************************//
//   * Vansteenkiste et al., AIP Adv. 4, 107133 (2014).
//   * Exl et al., J. Appl. Phys. 115, 17D118 (2014).
