//mumax 3.10 [windows_amd64 go1.11.6(gc) CUDA-11.0]
//GPU info: NVIDIA GeForce RTX 3090(24575MB), CUDA Driver 12.0, cc=8.6, using cc=80 PTX
//(c) Arne Vansteenkiste, Dynamat LAB, Ghent University, Belgium
//This is free software without any warranty. See license.txt
//********************************************************************//
//  If you use mumax in any work or publication,                      //
//  we kindly ask you to cite the references in references.bib        //
//********************************************************************//
//output directory: r1;p0.5;a3.2e-07;l2.3000000000000002e-07;s1.out/
randSeed(1)
ThermSeed(1)
resolution := 2e-09
zResolution := 5e-09
a := 3.2e-07
gridSize := 320
gridDepth := 5
SetCellsize(resolution, resolution, zResolution)
SetGridsize(gridSize, gridSize, gridDepth)
SetPBC(16, 16, 0)
//resizing...
Msat = 700e3
Aex = 13e-12
alpha = 0.2
Bmax := 0.1
Bstep := Bmax / 500.0
TableAdd(B_ext)
TableAdd(m_full)
islandWidth := 8e-08
islandLength := 2.3000000000000002e-07
ellipseConstant := 5.7500000000000005e-08
hIsland := rect(islandLength-2*ellipseConstant, islandWidth)
hIsland = hIsland.add(ellipse(ellipseConstant*2, islandWidth).transl(islandLength/2-ellipseConstant, 0, 0))
hIsland = hIsland.add(ellipse(ellipseConstant*2, islandWidth).transl(-islandLength/2+ellipseConstant, 0, 0))
hIsland = hIsland.add(rect(6.000000000000001e-09, 1.2386264605229817e-09).transl(2.095338912839476e-08, -4e-08, 0))
hIsland = hIsland.sub(rect(6.000000000000001e-09, -1.3950264773090215e-09).transl(5.692429998268521e-08, -4e-08, 0))
hIsland = hIsland.add(rect(6.000000000000001e-09, 6.457311397505503e-10).transl(-1.0128420865673533e-07, -2.5928264661097007e-08, 0))
hIsland = hIsland.add(rect(6.000000000000001e-09, 1.3573932115951953e-09).transl(1.1958281290932465e-08, -4e-08, 0))
hIsland = hIsland.sub(rect(6.000000000000001e-09, -9.816130015687729e-10).transl(8.40663705555376e-08, -3.547470028513869e-08, 0))
hIsland = hIsland.sub(rect(6.000000000000001e-09, -2.9661681577759495e-09).transl(-6.302831841658112e-08, -3.981469483079154e-08, 0))
hIsland = hIsland.add(rect(6.000000000000001e-09, 1.4547761304634938e-09).transl(-3.6468064657119134e-09, -4e-08, 0))
hIsland = hIsland.sub(rect(6.000000000000001e-09, -3.1835223146108217e-09).transl(5.2895848029631625e-08, -4e-08, 0))
hIsland = hIsland.add(rect(6.000000000000001e-09, 1.2641911808033008e-09).transl(-3.239833289457951e-08, -4e-08, 0))
hIsland = hIsland.add(rect(6.000000000000001e-09, 9.230601776771881e-10).transl(2.8668902082873193e-08, -4e-08, 0))
hIsland = hIsland.sub(rect(6.000000000000001e-09, -2.0922271787502535e-09).transl(-5.353884346290376e-08, -4e-08, 0))
hIsland = hIsland.add(rect(6.000000000000001e-09, 5.774701317067274e-10).transl(-6.090067562638925e-08, -3.992998275935079e-08, 0))
hIsland = hIsland.add(rect(6.000000000000001e-09, 1.5452903310830863e-09).transl(2.1312816537563975e-08, -4e-08, 0))
hIsland = hIsland.add(rect(6.000000000000001e-09, 3.5898985128956222e-09).transl(5.8302540252775796e-08, -3.999610372943799e-08, 0))
hIsland = hIsland.add(rect(6.000000000000001e-09, 1.4323949957441845e-09).transl(-7.612424843778191e-08, -3.7843653261281934e-08, 0))
hIsland = hIsland.add(rect(6.000000000000001e-09, 2.974589891450096e-09).transl(2.66981952484771e-08, -4e-08, 0))
hIsland = hIsland.sub(rect(6.000000000000001e-09, -9.492874380830492e-10).transl(-8.727090426427894e-08, -3.42211608988592e-08, 0))
hIsland = hIsland.sub(rect(6.000000000000001e-09, -4.959402560288141e-10).transl(-4.4591493030753775e-08, -4e-08, 0))
hIsland = hIsland.add(rect(6.000000000000001e-09, 2.4094604362945737e-09).transl(-2.7294379425267692e-08, -4e-08, 0))
hIsland = hIsland.sub(rect(6.000000000000001e-09, -4.1699556907555596e-09).transl(-1.3171183356028615e-08, -4e-08, 0))
hIsland = hIsland.sub(rect(6.000000000000001e-09, -3.1918485893970726e-09).transl(-5.125193087093193e-08, -4e-08, 0))
hIsland = hIsland.add(rect(6.000000000000001e-09, 4.292398304662007e-09).transl(-5.411971583876834e-08, -4e-08, 0))
hIsland = hIsland.add(rect(6.000000000000001e-09, 3.818250441771411e-10).transl(8.157494804294638e-08, -3.6325081307931766e-08, 0))
hIsland = hIsland.add(rect(6.000000000000001e-09, 1.3175457939833181e-09).transl(6.955220923849301e-08, -3.911145744248702e-08, 0))
hIsland = hIsland.sub(rect(6.000000000000001e-09, -1.0930754500154372e-09).transl(3.575537903043076e-08, -4e-08, 0))
hIsland = hIsland.sub(rect(6.000000000000001e-09, -2.6611464626084185e-09).transl(4.912425645377655e-08, -4e-08, 0))
hIsland = hIsland.add(rect(6.000000000000001e-09, 1.7712590364825423e-09).transl(1.1412803244588273e-07, -6.939664490571902e-09, 0))
hIsland = hIsland.sub(rect(6.000000000000001e-09, -2.1926158545126302e-09).transl(8.645801854530258e-08, -3.455706465116007e-08, 0))
hIsland = hIsland.sub(rect(6.000000000000001e-09, -3.827827182921637e-11).transl(-6.62819733737829e-09, -4e-08, 0))
hIsland = hIsland.add(rect(6.000000000000001e-09, 1.7743135032998933e-09).transl(1.0397627827879884e-07, -2.3551761868522165e-08, 0))
hIsland = hIsland.add(rect(6.000000000000001e-09, 4.299779072231415e-09).transl(8.28253568502526e-08, -3.5911262533593594e-08, 0))
hIsland = hIsland.add(rect(6.000000000000001e-09, 1.7156303277484603e-09).transl(1.266304735551341e-08, -4e-08, 0))
hIsland = hIsland.add(rect(6.000000000000001e-09, 8.887607724809656e-10).transl(6.051208685847425e-08, -3.994508037888997e-08, 0))
hIsland = hIsland.add(rect(6.000000000000001e-09, 2.0340135105429244e-09).transl(-3.7902342601064996e-08, -4e-08, 0))
hIsland = hIsland.add(rect(6.000000000000001e-09, 8.697520911231676e-10).transl(2.0498791184974936e-09, -4e-08, 0))
hIsland = hIsland.add(rect(6.000000000000001e-09, 7.578656573470319e-10).transl(-2.0239072354489002e-10, -4e-08, 0))
hIsland = hIsland.sub(rect(6.000000000000001e-09, -1.348000196005282e-09).transl(1.9402613375880298e-08, -4e-08, 0))
hIsland = hIsland.sub(rect(6.000000000000001e-09, -3.560232463672044e-09).transl(7.495969302250212e-08, -3.811138621438678e-08, 0))
hIsland = hIsland.add(rect(6.000000000000001e-09, 4.0108373581766445e-09).transl(7.057387693578242e-08, -3.8952321151592616e-08, 0))
hIsland = hIsland.add(rect(6.000000000000001e-09, 1.7546868286073794e-09).transl(7.574557190178053e-08, -3.793281721905327e-08, 0))
hIsland = hIsland.add(rect(6.000000000000001e-09, 9.249335411225546e-10).transl(6.833197634174023e-08, -3.928383174304961e-08, 0))
hIsland = hIsland.add(rect(6.000000000000001e-09, 9.218717248456374e-10).transl(-2.512202700653573e-08, -4e-08, 0))
hIsland = hIsland.add(rect(6.000000000000001e-09, 1.5910650998497998e-09).transl(3.410417823184915e-08, -4e-08, 0))
hIsland = hIsland.add(rect(6.000000000000001e-09, 2.3004729214274873e-09).transl(8.914324516254362e-08, -3.339822417851628e-08, 0))
hIsland = hIsland.sub(rect(6.000000000000001e-09, -4.396794849762962e-11).transl(-6.276533683432581e-09, -4e-08, 0))
hIsland = hIsland.sub(rect(6.000000000000001e-09, -3.31926498025456e-09).transl(-8.701641045665131e-08, -3.432767894320674e-08, 0))
hIsland = hIsland.add(rect(6.000000000000001e-09, 3.2121508964055787e-09).transl(1.3912947602825454e-08, -4e-08, 0))
hIsland = hIsland.add(rect(6.000000000000001e-09, 2.8281533744411678e-09).transl(8.792619955292053e-08, -3.394109969545735e-08, 0))
hIsland = hIsland.sub(rect(6.000000000000001e-09, -3.4421956153331035e-10).transl(8.537588896495979e-08, -3.498504440098268e-08, 0))
hIsland = hIsland.add(rect(6.000000000000001e-09, 4.676361367581224e-10).transl(1.0238715710294652e-07, -2.4998927786728987e-08, 0))
hIsland = hIsland.sub(rect(6.000000000000001e-09, -2.934046085320219e-09).transl(1.514472140274102e-08, -4e-08, 0))
hIsland = hIsland.sub(rect(6.000000000000001e-09, -2.403932818223209e-09).transl(-9.970381966995553e-08, -2.7166866110550037e-08, 0))
hIsland = hIsland.sub(rect(6.000000000000001e-09, -3.168540910883763e-10).transl(-3.3843673577645805e-08, -4e-08, 0))
hIsland = hIsland.add(rect(6.000000000000001e-09, 1.6704944668333023e-09).transl(9.745025956479707e-08, -2.876861773250946e-08, 0))
hIsland = hIsland.add(rect(6.000000000000001e-09, 1.2840997971726595e-09).transl(6.3602902670055424e-09, -4e-08, 0))
hIsland = hIsland.sub(rect(6.000000000000001e-09, -1.2715310598734596e-09).transl(-4.684667738421609e-08, -4e-08, 0))
hIsland = hIsland.sub(rect(6.000000000000001e-09, -3.974674286376354e-10).transl(1.0942098508837199e-07, -1.7187836662204464e-08, 0))
hIsland = hIsland.sub(rect(6.000000000000001e-09, -2.0688085668379504e-09).transl(2.293626423831761e-08, -4e-08, 0))
hIsland = hIsland.sub(rect(6.000000000000001e-09, -2.610914937460946e-09).transl(-4.31852011911531e-08, -4e-08, 0))
hIsland = hIsland.sub(rect(6.000000000000001e-09, -1.615709970973199e-10).transl(6.997559948519079e-08, -3.904715802539883e-08, 0))
hIsland = hIsland.sub(rect(6.000000000000001e-09, -1.6693504953560482e-09).transl(-8.091133628364013e-08, -3.653438676847234e-08, 0))
hIsland = hIsland.add(rect(6.000000000000001e-09, 5.298918019697702e-10).transl(9.162445698356522e-08, -3.219427932098297e-08, 0))
hIsland = hIsland.sub(rect(6.000000000000001e-09, -2.2631686704921524e-10).transl(-8.836633717253651e-08, -3.374823170513248e-08, 0))
hIsland = hIsland.sub(rect(6.000000000000001e-09, -2.5195284349552483e-09).transl(2.6093444780353842e-08, -4e-08, 0))
hIsland = hIsland.add(rect(6.000000000000001e-09, 2.833843663807934e-10).transl(-8.563839664869892e-08, -3.488319809164406e-08, 0))
hIsland = hIsland.add(rect(6.000000000000001e-09, 2.4263306077541135e-09).transl(4.8734015841984756e-08, -4e-08, 0))
hIsland = hIsland.add(rect(6.000000000000001e-09, 4.743949681548492e-10).transl(-3.9831935416382125e-08, -4e-08, 0))
hIsland = hIsland.sub(rect(6.000000000000001e-09, -3.3933069965465e-10).transl(3.419211879387453e-08, -4e-08, 0))
hIsland = hIsland.add(rect(6.000000000000001e-09, 1.416162974703424e-09).transl(3.437099153946232e-08, -4e-08, 0))
hIsland = hIsland.sub(rect(6.000000000000001e-09, -3.162656850621633e-10).transl(6.57075375919291e-08, -3.95904100308023e-08, 0))
hIsland = hIsland.add(rect(6.000000000000001e-09, 1.252620304775552e-10).transl(1.121591740210771e-07, -1.2417434082666259e-08, 0))
hIsland = hIsland.add(rect(6.000000000000001e-09, 1.3088718093204885e-09).transl(9.762321252670433e-08, -2.8651900804710488e-08, 0))
hIsland = hIsland.add(rect(6.000000000000001e-09, 1.266506560168405e-09).transl(-9.408359292270204e-08, -3.0859766558433746e-08, 0))
hIsland = hIsland.add(rect(6.000000000000001e-09, 1.7566752315836454e-09).transl(7.747617026965212e-08, -3.7508508702433846e-08, 0))
hIsland = hIsland.sub(rect(6.000000000000001e-09, -2.4488585853526457e-09).transl(7.901346718208913e-08, -3.709477227472433e-08, 0))
hIsland = hIsland.sub(rect(6.000000000000001e-09, -4.500657514550987e-09).transl(-2.105629860354488e-08, -4e-08, 0))
hIsland = hIsland.sub(rect(6.000000000000001e-09, -1.0611064208240736e-10).transl(7.855824118941698e-08, -3.722097002222459e-08, 0))
hIsland = hIsland.add(rect(6.000000000000001e-09, 6.466348814795531e-10).transl(-7.836691705181967e-08, -3.727307835662213e-08, 0))
hIsland = hIsland.add(rect(6.000000000000001e-09, 3.1054983408276187e-10).transl(3.412482012132612e-08, -4e-08, 0))
hIsland = hIsland.add(rect(6.000000000000001e-09, 1.5380925372647798e-09).transl(9.791025328212245e-08, -2.8456012749848153e-08, 0))
hIsland = hIsland.sub(rect(6.000000000000001e-09, -6.590884934736184e-09).transl(-8.500171279556407e-08, -3.5128063929023836e-08, 0))
hIsland = hIsland.sub(rect(6.000000000000001e-09, -1.576553643851335e-09).transl(8.999972321062791e-08, -3.2997811858357855e-08, 0))
hIsland = hIsland.sub(rect(6.000000000000001e-09, -2.0588511441602336e-10).transl(-1.257495501114256e-08, -4e-08, 0))
hIsland = hIsland.add(rect(6.000000000000001e-09, 2.5335336809658875e-09).transl(4.545767120204934e-08, -4e-08, 0))
hIsland = hIsland.add(rect(6.000000000000001e-09, 5.288914087705642e-10).transl(5.899213063073218e-08, -3.9986529580200236e-08, 0))
hIsland = hIsland.add(rect(6.000000000000001e-09, 3.597305720129328e-09).transl(-4.336556536009371e-08, -4e-08, 0))
hIsland = hIsland.add(rect(6.000000000000001e-09, 4.827707616922123e-10).transl(-7.192436867702244e-08, -3.872094978146986e-08, 0))
hIsland = hIsland.add(rect(6.000000000000001e-09, 2.384543050939696e-09).transl(9.773853360736008e-08, -2.8573530183504884e-08, 0))
hIsland = hIsland.add(rect(6.000000000000001e-09, 2.3215221887027857e-09).transl(1.7111796097080222e-08, -4e-08, 0))
hIsland = hIsland.add(rect(6.000000000000001e-09, 2.9104795940039302e-09).transl(5.837970006765445e-08, -3.999531845747825e-08, 0))
hIsland = hIsland.sub(rect(6.000000000000001e-09, -2.6162292611723e-09).transl(9.222289683102565e-08, -3.18831168628076e-08, 0))
hIsland = hIsland.sub(rect(6.000000000000001e-09, -2.2441277644550535e-09).transl(-3.7841192380157846e-08, -4e-08, 0))
hIsland = hIsland.sub(rect(6.000000000000001e-09, -3.2885078116182844e-09).transl(1.028660780534188e-07, -2.4576998109567118e-08, 0))
hIsland = hIsland.add(rect(6.000000000000001e-09, 8.667028750601446e-10).transl(7.339693328129443e-08, -3.844092030316508e-08, 0))
hIsland = hIsland.sub(rect(6.000000000000001e-09, -1.1679466464590253e-09).transl(2.7764013328347376e-09, -4e-08, 0))
hIsland = hIsland.add(rect(6.000000000000001e-09, 2.7760982525537963e-09).transl(-8.645771816222846e-08, -3.455718646278295e-08, 0))
hIsland = hIsland.sub(rect(6.000000000000001e-09, -1.397721600642513e-09).transl(6.46947231966677e-08, -3.968563627342283e-08, 0))
hIsland = hIsland.add(rect(6.000000000000001e-09, 3.7797041527527814e-10).transl(-1.5020030430134052e-08, -4e-08, 0))
hIsland = hIsland.add(rect(6.000000000000001e-09, 3.898825177770374e-09).transl(-1.1006843926340374e-07, -1.6207489313718092e-08, 0))
hIsland = hIsland.sub(rect(6.000000000000001e-09, -3.066746583377507e-09).transl(-1.0829340175788149e-09, -4e-08, 0))
hIsland = hIsland.sub(rect(6.000000000000001e-09, -1.6020938129005692e-09).transl(3.349297819639279e-08, 4e-08, 0))
hIsland = hIsland.sub(rect(6.000000000000001e-09, -3.535478268336348e-09).transl(1.0556677634888667e-07, 2.1952593833983648e-08, 0))
hIsland = hIsland.add(rect(6.000000000000001e-09, 1.3303601505503195e-09).transl(7.005733196831103e-08, 3.9034477367215174e-08, 0))
hIsland = hIsland.sub(rect(6.000000000000001e-09, -5.505558562221949e-10).transl(1.0345582269587503e-07, 2.4040921487156016e-08, 0))
hIsland = hIsland.sub(rect(6.000000000000001e-09, -2.720377281337336e-09).transl(-9.785126420163137e-08, 2.8496493406686853e-08, 0))
hIsland = hIsland.add(rect(6.000000000000001e-09, 8.632713717312509e-10).transl(5.0782068886142675e-08, 4e-08, 0))
hIsland = hIsland.add(rect(6.000000000000001e-09, 3.1876438202361162e-09).transl(-1.6263184663461344e-08, 4e-08, 0))
hIsland = hIsland.add(rect(6.000000000000001e-09, 9.958209423886757e-10).transl(-3.4376355868969665e-08, 4e-08, 0))
hIsland = hIsland.sub(rect(6.000000000000001e-09, -3.6357671559311126e-11).transl(2.4078293828314038e-08, 4e-08, 0))
hIsland = hIsland.sub(rect(6.000000000000001e-09, -1.475892462016181e-09).transl(1.1226225008404463e-07, 1.21956767594524e-08, 0))
hIsland = hIsland.add(rect(6.000000000000001e-09, 1.399094482630956e-09).transl(-7.258549383043984e-08, 3.859884167797601e-08, 0))
hIsland = hIsland.add(rect(6.000000000000001e-09, 2.348124018267698e-10).transl(4.928713412076312e-08, 4e-08, 0))
hIsland = hIsland.sub(rect(6.000000000000001e-09, -5.356838648115695e-10).transl(3.143532803173953e-08, 4e-08, 0))
hIsland = hIsland.add(rect(6.000000000000001e-09, 1.2912162703002289e-09).transl(1.1459163634803848e-07, 4.7587418573745544e-09, 0))
hIsland = hIsland.add(rect(6.000000000000001e-09, 1.2456490052166381e-09).transl(7.526793741402049e-08, 3.80423826528741e-08, 0))
hIsland = hIsland.sub(rect(6.000000000000001e-09, -2.1832631677091936e-09).transl(6.196005897620675e-08, 3.98794880195193e-08, 0))
hIsland = hIsland.add(rect(6.000000000000001e-09, 6.107998883440793e-10).transl(6.987550377237356e-08, 3.906256936255823e-08, 0))
hIsland = hIsland.sub(rect(6.000000000000001e-09, -1.5263405274953277e-09).transl(9.204278462505196e-08, 3.19776559446494e-08, 0))
hIsland = hIsland.add(rect(6.000000000000001e-09, 2.6171372138475736e-09).transl(1.0010758528950217e-07, 2.6860135569384984e-08, 0))
hIsland = hIsland.sub(rect(6.000000000000001e-09, -1.7265070768621006e-09).transl(-4.3161359681987496e-08, 4e-08, 0))
hIsland = hIsland.add(rect(6.000000000000001e-09, 2.5700468638304934e-09).transl(9.828169957040694e-09, 4e-08, 0))
hIsland = hIsland.sub(rect(6.000000000000001e-09, -7.974625220756567e-10).transl(-3.831634564544337e-08, 4e-08, 0))
hIsland = hIsland.sub(rect(6.000000000000001e-09, -8.080218741554328e-10).transl(6.296685855346588e-08, 3.9818801430028986e-08, 0))
hIsland = hIsland.sub(rect(6.000000000000001e-09, -1.408424078020835e-09).transl(5.824991492390536e-08, 3.99965979807387e-08, 0))
hIsland = hIsland.add(rect(6.000000000000001e-09, 2.8834246134015063e-10).transl(-4.086524182812862e-08, 4e-08, 0))
hIsland = hIsland.sub(rect(6.000000000000001e-09, -6.520457816295628e-11).transl(1.5541882224269248e-08, 4e-08, 0))
hIsland = hIsland.sub(rect(6.000000000000001e-09, -9.830059904284527e-10).transl(-7.870741519910623e-08, 3.7179960311247855e-08, 0))
hIsland = hIsland.sub(rect(6.000000000000001e-09, -1.4414727390669324e-09).transl(-8.065290314237411e-09, 4e-08, 0))
hIsland = hIsland.sub(rect(6.000000000000001e-09, -1.479228203263221e-09).transl(2.5235591305885012e-08, 4e-08, 0))
hIsland = hIsland.add(rect(6.000000000000001e-09, 1.3099239730508643e-09).transl(-8.186467444031856e-08, 3.623147687080595e-08, 0))
hIsland = hIsland.add(rect(6.000000000000001e-09, 2.6921163122845148e-09).transl(-5.460099194829765e-08, 4e-08, 0))
hIsland = hIsland.sub(rect(6.000000000000001e-09, -2.870814838570389e-09).transl(4.9634972722949805e-08, 4e-08, 0))
hIsland = hIsland.add(rect(6.000000000000001e-09, 1.2212964785240845e-09).transl(5.694587467222724e-08, 4e-08, 0))
hIsland = hIsland.sub(rect(6.000000000000001e-09, -2.6466883759235686e-09).transl(-7.82540334434762e-08, 3.730356603345509e-08, 0))
hIsland = hIsland.add(rect(6.000000000000001e-09, 2.881047948241174e-09).transl(1.0695851498506817e-07, 2.040177517577407e-08, 0))
hIsland = hIsland.add(rect(6.000000000000001e-09, 4.576548512939051e-10).transl(-1.8188879529157367e-08, 4e-08, 0))
hIsland = hIsland.sub(rect(6.000000000000001e-09, -2.7273902110521063e-09).transl(3.7260559784674825e-08, 4e-08, 0))
hIsland = hIsland.add(rect(6.000000000000001e-09, 1.995094693184277e-09).transl(4.806935892300469e-08, 4e-08, 0))
hIsland = hIsland.sub(rect(6.000000000000001e-09, -7.577941903008236e-10).transl(-7.835438095861101e-08, 3.7276473509074594e-08, 0))
hIsland = hIsland.add(rect(6.000000000000001e-09, 1.3971289672691656e-09).transl(5.608416379010743e-08, 4e-08, 0))
hIsland = hIsland.sub(rect(6.000000000000001e-09, -8.135571793325083e-10).transl(-1.0409555025391745e-07, 2.3437436419588477e-08, 0))
hIsland = hIsland.add(rect(6.000000000000001e-09, 1.7887858838113203e-09).transl(-1.6122901298305287e-08, 4e-08, 0))
hIsland = hIsland.sub(rect(6.000000000000001e-09, -8.931506169634942e-10).transl(-1.141434662400863e-07, 6.87843943467721e-09, 0))
hIsland = hIsland.sub(rect(6.000000000000001e-09, -2.2879112355706132e-09).transl(-8.610387531528426e-08, 3.4699506409508535e-08, 0))
hIsland = hIsland.sub(rect(6.000000000000001e-09, -4.910606733727741e-10).transl(-1.4108888652828186e-08, 4e-08, 0))
hIsland = hIsland.sub(rect(6.000000000000001e-09, -1.0620030649601325e-09).transl(5.45145470704687e-08, 4e-08, 0))
hIsland = hIsland.sub(rect(6.000000000000001e-09, -4.077365767565592e-09).transl(-6.669455135132633e-09, 4e-08, 0))
hIsland = hIsland.sub(rect(6.000000000000001e-09, -2.217181899946926e-09).transl(-2.502594000358235e-08, 4e-08, 0))
hIsland = hIsland.sub(rect(6.000000000000001e-09, -3.54435298234486e-10).transl(3.1527351178265433e-08, 4e-08, 0))
hIsland = hIsland.add(rect(6.000000000000001e-09, 1.7343217911989695e-09).transl(1.6002618566278323e-08, 4e-08, 0))
hIsland = hIsland.sub(rect(6.000000000000001e-09, -5.403816834175663e-10).transl(-9.791912742581171e-08, 2.844991285274127e-08, 0))
hIsland = hIsland.add(rect(6.000000000000001e-09, 1.7156266409936482e-09).transl(9.354957793999962e-08, 3.1162406164729004e-08, 0))
hIsland = hIsland.sub(rect(6.000000000000001e-09, -3.752372803344045e-10).transl(1.1107680934982204e-07, 1.4521903668201053e-08, 0))
hIsland = hIsland.add(rect(6.000000000000001e-09, 1.2151863960289593e-09).transl(-9.644101962714822e-08, 2.9430666642477025e-08, 0))
hIsland = hIsland.add(rect(6.000000000000001e-09, 9.020418923476079e-10).transl(8.482743714939535e-08, 3.5193820931078276e-08, 0))
hIsland = hIsland.sub(rect(6.000000000000001e-09, -2.5881022296531003e-09).transl(7.489443177447072e-08, 3.812582487304449e-08, 0))
hIsland = hIsland.add(rect(6.000000000000001e-09, 3.701475796093008e-10).transl(7.2402723013545e-08, 3.8633185162447964e-08, 0))
hIsland = hIsland.add(rect(6.000000000000001e-09, 2.108378181923991e-09).transl(-5.741245261530675e-08, 4e-08, 0))
hIsland = hIsland.sub(rect(6.000000000000001e-09, -4.377230385143175e-10).transl(-7.88173482245973e-08, 3.714952391281296e-08, 0))
hIsland = hIsland.add(rect(6.000000000000001e-09, 2.9025433880392823e-09).transl(-4.88997648184936e-08, 4e-08, 0))
hIsland = hIsland.add(rect(6.000000000000001e-09, 3.178710286785337e-09).transl(-4.620421215758566e-08, 4e-08, 0))
hIsland = hIsland.sub(rect(6.000000000000001e-09, -1.4041225368320455e-09).transl(4.202838481083457e-08, 4e-08, 0))
hIsland = hIsland.add(rect(6.000000000000001e-09, 1.397386575761947e-10).transl(1.0517751415449616e-07, 2.2359614082561032e-08, 0))
hIsland = hIsland.add(rect(6.000000000000001e-09, 4.481262552191437e-09).transl(2.590613941797121e-08, 4e-08, 0))
hIsland = hIsland.sub(rect(6.000000000000001e-09, -2.3287453792078343e-09).transl(-6.916070577238564e-09, 4e-08, 0))
hIsland = hIsland.add(rect(6.000000000000001e-09, 8.128227126168752e-10).transl(6.998571597946348e-08, 3.904559318129093e-08, 0))
hIsland = hIsland.sub(rect(6.000000000000001e-09, -2.556186988756644e-10).transl(-3.465643355516661e-08, 4e-08, 0))
hIsland = hIsland.add(rect(6.000000000000001e-09, 1.5656440044820482e-09).transl(-9.734107001967238e-08, 2.8841802384104495e-08, 0))
hIsland = hIsland.add(rect(6.000000000000001e-09, 2.6646455533375947e-10).transl(1.1091232564811655e-07, 1.4812221492235987e-08, 0))
hIsland = hIsland.add(rect(6.000000000000001e-09, 1.3064852152697834e-10).transl(-6.437902221241351e-08, 3.971271688231884e-08, 0))
hIsland = hIsland.sub(rect(6.000000000000001e-09, -3.2848459902087386e-10).transl(9.745894712694625e-08, 2.876277825319004e-08, 0))
hIsland = hIsland.sub(rect(6.000000000000001e-09, -1.7226993757107304e-09).transl(9.540460565675721e-08, 3.0078337001093584e-08, 0))
hIsland = hIsland.add(rect(6.000000000000001e-09, 4.3404116891779735e-10).transl(-3.921722265572837e-08, 4e-08, 0))
hIsland = hIsland.add(rect(6.000000000000001e-09, 1.5591517726495116e-09).transl(1.0609898227928377e-07, 2.137802538900705e-08, 0))
hIsland = hIsland.sub(rect(6.000000000000001e-09, -2.289031138658206e-09).transl(2.464133402309754e-09, 4e-08, 0))
hIsland = hIsland.sub(rect(6.000000000000001e-09, -1.1455373589910956e-09).transl(5.109462026107805e-08, 4e-08, 0))
hIsland = hIsland.add(rect(6.000000000000001e-09, 4.658843422268188e-10).transl(4.770796393024289e-08, 4e-08, 0))
hIsland = hIsland.add(rect(6.000000000000001e-09, 5.419759591734118e-09).transl(7.971527243170758e-08, 3.6894047135388745e-08, 0))
hIsland = hIsland.sub(rect(6.000000000000001e-09, -7.742723158834939e-10).transl(2.13453561245229e-08, 4e-08, 0))
hIsland = hIsland.add(rect(6.000000000000001e-09, 6.1297692105802e-10).transl(-8.508239873908479e-08, 3.509743627850703e-08, 0))
hIsland = hIsland.sub(rect(6.000000000000001e-09, -9.141289586070126e-10).transl(4.163843504037452e-08, 4e-08, 0))
hIsland = hIsland.sub(rect(6.000000000000001e-09, -1.67851002331646e-09).transl(6.83372279326934e-08, 3.9283130807341404e-08, 0))
hIsland = hIsland.sub(rect(6.000000000000001e-09, -1.6931986913237405e-09).transl(-5.802716414900446e-08, 3.999831889373215e-08, 0))
hIsland = hIsland.sub(rect(6.000000000000001e-09, -1.604599018544149e-09).transl(6.219879335568836e-08, 3.986621917816759e-08, 0))
hIsland = hIsland.sub(rect(6.000000000000001e-09, -2.590077944112117e-10).transl(-6.190527798595696e-09, 4e-08, 0))
hIsland = hIsland.add(rect(6.000000000000001e-09, 6.434094427478637e-10).transl(9.633348267914556e-08, 2.9499348603560053e-08, 0))
hIsland = hIsland.sub(rect(6.000000000000001e-09, -1.5716801544742306e-09).transl(-5.6763883720167784e-08, 4e-08, 0))
hIsland = hIsland.sub(rect(6.000000000000001e-09, -1.6459755134641993e-09).transl(-2.6872993380048747e-08, 4e-08, 0))
hIsland = hIsland.sub(rect(6.000000000000001e-09, -4.914348210428076e-10).transl(5.6529631601913076e-08, 4e-08, 0))
hIsland = hIsland.add(rect(6.000000000000001e-09, 1.5090554291266539e-09).transl(-9.428533723932799e-08, 3.0743489477298413e-08, 0))
hIsland = hIsland.sub(rect(6.000000000000001e-09, -2.418259593625295e-09).transl(1.716403036657946e-08, 4e-08, 0))
hIsland = hIsland.sub(rect(6.000000000000001e-09, -1.980999966187776e-09).transl(-2.0378935087807197e-09, 4e-08, 0))
hIsland = hIsland.add(rect(6.000000000000001e-09, 1.1012868604188066e-09).transl(6.449028493992392e-08, 3.9703313575948005e-08, 0))
hIsland = hIsland.sub(rect(6.000000000000001e-09, -2.597810291347854e-09).transl(-9.800701545278587e-08, 2.8389357246355997e-08, 0))
hIsland = hIsland.sub(rect(6.000000000000001e-09, -8.063371121951874e-10).transl(3.225800956186774e-08, 4e-08, 0))
hIsland = hIsland.sub(rect(6.000000000000001e-09, -1.8123665327067737e-09).transl(1.1373133995563786e-08, 4e-08, 0))
hIsland = hIsland.add(rect(6.000000000000001e-09, 2.942306501909152e-09).transl(9.731504377009387e-08, 2.8859189666905364e-08, 0))
hIsland = hIsland.sub(rect(6.000000000000001e-09, -1.2189404841734102e-10).transl(-9.787653303448031e-08, 2.8479167211252026e-08, 0))
hIsland = hIsland.add(rect(6.000000000000001e-09, 1.2891331809167014e-09).transl(1.8176252932564962e-08, 4e-08, 0))
hIsland = hIsland.add(rect(6.000000000000001e-09, 3.3625744474861585e-09).transl(-7.589011567229174e-08, 3.789902346636076e-08, 0))
vIsland := hIsland.rotz(pi / 2)
vIslands := Universe().Inverse()
hIslands := Universe().Inverse()
hIslands = hIslands.add(hIsland.transl(-a/2, a, 0))
hIslands = hIslands.add(hIsland.transl(-a/2, -a, 0))
hIslands = hIslands.add(hIsland.transl(a/2, a, 0))
hIslands = hIslands.add(hIsland.transl(a/2, -a, 0))
hIslands = hIslands.add(hIsland.transl(-a/2, 0, 0))
hIslands = hIslands.add(hIsland.transl(a/2, 0, 0))
vIslands = vIslands.add(vIsland.transl(-a, a/2, 0))
vIslands = vIslands.add(vIsland.transl(a, a/2, 0))
vIslands = vIslands.add(vIsland.transl(-a, -a/2, 0))
vIslands = vIslands.add(vIsland.transl(a, -a/2, 0))
vIslands = vIslands.add(vIsland.transl(0, a/2, 0))
vIslands = vIslands.add(vIsland.transl(0, -a/2, 0))
DefRegion(1, hIslands)
DefRegion(2, vIslands)
TableAdd(m_full.Region(1))
TableAdd(m_full.Region(2))
setgeom(hIslands.add(vIslands))
save(m)
r2o2 := sqrt(2) / 2
m = RandomMagSeed(4)
B_ext = vector(Bmax*r2o2, Bmax*r2o2, 0)
relax()
minimize()
for B := Bmax; B >= -Bmax; B -= Bstep {
	B_ext = vector(B*r2o2, B*r2o2, 0)
	minimize()
	tablesave()
}
//********************************************************************//
//Please cite the following references, relevant for your simulation. //
//See bibtex file in output folder for justification.                 //
//********************************************************************//
//   * Vansteenkiste et al., AIP Adv. 4, 107133 (2014).
//   * Exl et al., J. Appl. Phys. 115, 17D118 (2014).
