//mumax 3.10 [windows_amd64 go1.11.6(gc) CUDA-11.0]
//GPU info: NVIDIA GeForce RTX 3090(24575MB), CUDA Driver 12.1, cc=8.6, using cc=80 PTX
//(c) Arne Vansteenkiste, Dynamat LAB, Ghent University, Belgium
//This is free software without any warranty. See license.txt
//********************************************************************//
//  If you use mumax in any work or publication,                      //
//  we kindly ask you to cite the references in references.bib        //
//********************************************************************//
//output directory: r1;p0.8;a2.8e-07;l1.8000000000000002e-07;s2.out/
randSeed(2)
ThermSeed(2)
resolution := 2e-09
zResolution := 5e-09
a := 2.8e-07
gridSize := 280
gridDepth := 5
SetCellsize(resolution, resolution, zResolution)
SetGridsize(gridSize, gridSize, gridDepth)
SetPBC(16, 16, 0)
//resizing...
Msat = 700e3
Aex = 13e-12
alpha = 0.2
Bmax := 0.1
Bstep := Bmax / 500.0
TableAdd(B_ext)
TableAdd(m_full)
islandWidth := 8e-08
islandLength := 1.8000000000000002e-07
ellipseConstant := 7.200000000000001e-08
hIsland := Universe().Inverse()
vIsland := Universe().Inverse()
vIslands := Universe().Inverse()
hIslands := Universe().Inverse()
hIsland = rect(islandLength-2*ellipseConstant, islandWidth)
hIsland = hIsland.add(ellipse(ellipseConstant*2, islandWidth).transl(islandLength/2-ellipseConstant, 0, 0))
hIsland = hIsland.add(ellipse(ellipseConstant*2, islandWidth).transl(-islandLength/2+ellipseConstant, 0, 0))
hIsland = hIsland.sub(rect(9.60841535220779e-09, -1.977197735134721e-09).transl(2.5150145811589443e-09, -4e-08, 0))
hIsland = hIsland.add(rect(4.605749067589474e-09, 5.276763856505384e-10).transl(2.3146184775494748e-08, -3.989769626636489e-08, 0))
hIsland = hIsland.sub(rect(7.148821801342618e-09, -2.699122327108079e-09).transl(4.943300411327531e-08, -3.59868213721872e-08, 0))
hIsland = hIsland.add(rect(7.356851741823948e-09, 1.1357464128361163e-12).transl(2.5083772348157668e-08, -3.980593420506684e-08, 0))
hIsland = hIsland.sub(rect(2.4052974523595848e-09, -6.584016681858682e-10).transl(2.3342122653237914e-08, -3.988974668513511e-08, 0))
hIsland = hIsland.add(rect(5.451722416502063e-09, 1.7067907086026884e-09).transl(-7.666045667568152e-08, -2.319370140260581e-08, 0))
hIsland = hIsland.sub(rect(5.771280753818229e-09, -1.6652988068377567e-09).transl(-8.016408229696411e-08, -2.0181482713092473e-08, 0))
hIsland = hIsland.sub(rect(5.1104079477887495e-09, -2.2718394881534097e-09).transl(1.2147992762561284e-08, -4e-08, 0))
hIsland = hIsland.sub(rect(7.4534587837873e-09, -7.818881892175536e-10).transl(-6.118026013690359e-08, -3.200822200752688e-08, 0))
hIsland = hIsland.add(rect(2.5277289782517587e-09, 1.7339357102489228e-11).transl(-7.920354539502574e-08, -2.106812898610144e-08, 0))
hIsland = hIsland.add(rect(4.686902673710558e-09, 6.344689386556905e-10).transl(3.404597541872179e-09, -4e-08, 0))
hIsland = hIsland.sub(rect(7.160660137270974e-09, -1.690095942910068e-09).transl(-6.441681796845042e-08, -3.057816844915434e-08, 0))
hIsland = hIsland.add(rect(7.39174039208428e-09, 3.2942349019298496e-09).transl(-5.588327349293512e-08, -3.401550839781125e-08, 0))
hIsland = hIsland.add(rect(3.258780797790349e-09, 4.246006157735947e-09).transl(-8.417038131501722e-08, -1.5767217089926528e-08, 0))
hIsland = hIsland.add(rect(8.112837657133369e-09, 3.624207734489572e-10).transl(6.225472107613324e-08, -3.15520325814793e-08, 0))
hIsland = hIsland.add(rect(8.576567328271846e-09, 2.6809522024826964e-09).transl(1.0073566178959826e-08, -4e-08, 0))
hIsland = hIsland.sub(rect(7.202518664558261e-09, -6.964784442650117e-10).transl(2.861470858176799e-08, -3.9562920513335314e-08, 0))
hIsland = hIsland.add(rect(7.866363089020953e-09, 3.161251311491291e-09).transl(-1.9933515138125768e-08, -3.99855742475273e-08, 0))
hIsland = hIsland.sub(rect(8.290309145592286e-09, -6.061904614518482e-10).transl(4.320708974327406e-08, -3.7468516111408835e-08, 0))
hIsland = hIsland.add(rect(7.062574910224412e-09, 2.1175488526583082e-10).transl(-2.401084890505749e-08, -3.986036466757767e-08, 0))
hIsland = hIsland.add(rect(2.634848019686036e-09, 2.6963839105129785e-09).transl(-3.13264667193243e-08, -3.930886434749464e-08, 0))
hIsland = hIsland.add(rect(8.869060888992677e-09, 1.995580883083051e-09).transl(8.134534183194145e-09, -4e-08, 0))
hIsland = hIsland.add(rect(2.8270358533343176e-09, 1.9313428044684976e-09).transl(5.40540090129772e-08, -3.4623675417424426e-08, 0))
hIsland = hIsland.add(rect(6.632367754116531e-09, 2.0229488794883614e-09).transl(-1.9405451245905075e-08, -3.9992378543961514e-08, 0))
hIsland = hIsland.add(rect(9.862645387256894e-09, 2.7125222077908176e-11).transl(6.363953977233073e-09, -4e-08, 0))
hIsland = hIsland.sub(rect(2.236669008419412e-09, -1.964509565467027e-09).transl(-3.305404711379179e-08, -3.911590747695364e-08, 0))
hIsland = hIsland.add(rect(9.316328611159218e-09, 6.504244453470208e-10).transl(8.602398814402987e-08, -1.3108486519093694e-08, 0))
hIsland = hIsland.sub(rect(5.673405386641095e-09, -6.312792344229573e-09).transl(7.810589865476449e-08, -2.202188128242071e-08, 0))
hIsland = hIsland.add(rect(2.854192313813248e-09, 2.7994047820361604e-10).transl(6.540664358660939e-08, -3.0105832582905507e-08, 0))
hIsland = hIsland.sub(rect(6.204725891987947e-09, -2.121989718673973e-09).transl(6.103570803595604e-08, -3.2068252029436235e-08, 0))
hIsland = hIsland.sub(rect(4.261658357533646e-09, -9.104029910804487e-10).transl(-4.904353375020435e-08, -3.609101582872612e-08, 0))
hIsland = hIsland.sub(rect(3.73464570358636e-09, -6.85828738633555e-10).transl(4.580541516267681e-08, -3.689683184077147e-08, 0))
hIsland = hIsland.add(rect(6.748393476576373e-09, 1.6247050627196313e-10).transl(-1.9710549617025917e-08, -3.9988709903614806e-08, 0))
hIsland = hIsland.add(rect(8.96626836972046e-09, 3.182895707441358e-09).transl(5.589354118480074e-08, -3.401197835692293e-08, 0))
hIsland = hIsland.add(rect(9.68906690613412e-09, 5.473748124653478e-10).transl(1.0807978116998252e-08, -4e-08, 0))
hIsland = hIsland.add(rect(9.3561988190063e-09, 2.6912499092196684e-09).transl(-8.495224390696478e-08, -1.4713278581329884e-08, 0))
hIsland = hIsland.sub(rect(2.0209329595731334e-09, -2.751508472928438e-09).transl(-1.0247356589450208e-08, -4e-08, 0))
hIsland = hIsland.sub(rect(4.986417524401885e-09, -1.4305771517097329e-09).transl(-2.633960912331776e-08, -3.973077188359338e-08, 0))
hIsland = hIsland.add(rect(5.282479212245677e-09, 7.63319170247112e-11).transl(-8.200750339683687e-08, -1.8316823449131168e-08, 0))
hIsland = hIsland.sub(rect(5.791605203093059e-09, -1.7627681481339733e-09).transl(3.0669089973040745e-08, -3.937589567570354e-08, 0))
hIsland = hIsland.add(rect(7.512221090022202e-09, 1.1249877724650113e-09).transl(2.0175404843438977e-08, -3.9981738168383416e-08, 0))
hIsland = hIsland.add(rect(2.1966758040472378e-09, 2.757268741591839e-09).transl(-1.916956397992704e-08, -3.999472233738733e-08, 0))
hIsland = hIsland.add(rect(5.158643190947497e-09, 3.1261927122831788e-09).transl(-3.038571599469783e-08, -3.940371151636641e-08, 0))
hIsland = hIsland.add(rect(9.096853349994457e-09, 1.9518306558163487e-09).transl(4.541802875437012e-08, -3.6986199041179465e-08, 0))
hIsland = hIsland.sub(rect(2.517826740965691e-09, -1.0721554872999707e-09).transl(-8.063254323532525e-08, -1.9729376854644096e-08, 0))
hIsland = hIsland.sub(rect(3.972734985445231e-09, -2.5783133577418156e-09).transl(6.688779106741021e-08, -2.9365638169598704e-08, 0))
hIsland = hIsland.sub(rect(2.594224507406474e-09, -3.36760479673759e-10).transl(-5.0761283018272295e-08, -3.5619293283434417e-08, 0))
hIsland = hIsland.sub(rect(3.897692478505796e-09, -1.3466161581234698e-09).transl(2.422351860264293e-08, -3.9850290115440065e-08, 0))
hIsland = hIsland.sub(rect(9.669987808842226e-09, -1.2655135221297705e-09).transl(9.489604461994196e-09, -4e-08, 0))
hIsland = hIsland.sub(rect(3.918448244810813e-09, -2.1033405644186527e-09).transl(5.933540593720546e-08, -3.2751327444619765e-08, 0))
hIsland = hIsland.sub(rect(4.0411319745691645e-09, -2.5181017784765495e-09).transl(3.020635251955448e-08, -3.942098268660855e-08, 0))
hIsland = hIsland.add(rect(7.1970024910285304e-09, 1.619219352684746e-09).transl(-3.310260359051119e-08, -3.9110130057092356e-08, 0))
hIsland = hIsland.add(rect(8.897783423888113e-09, 1.7947679941372552e-09).transl(-4.965332674945523e-08, -3.592716786285481e-08, 0))
hIsland = hIsland.sub(rect(4.606693229196823e-09, -2.446930485398245e-10).transl(5.089507321985387e-08, -3.558121538436447e-08, 0))
hIsland = hIsland.add(rect(8.46106707006096e-09, 8.700812645356377e-10).transl(6.618383735922876e-08, -2.9722574335086632e-08, 0))
hIsland = hIsland.add(rect(3.6571865249901735e-09, 2.440971813319027e-09).transl(-5.713075358515679e-08, -3.357681502709124e-08, 0))
hIsland = hIsland.add(rect(4.535619211410289e-09, 1.5621325363883235e-09).transl(5.277785224208534e-08, -3.5024246422695224e-08, 0))
hIsland = hIsland.add(rect(2.5628944287001085e-09, 1.424329929610563e-09).transl(-2.0219028727546893e-08, -3.998099823166896e-08, 0))
hIsland = hIsland.add(rect(6.913347959516282e-09, 6.697562339456244e-10).transl(-1.2318855390989187e-08, -4e-08, 0))
hIsland = hIsland.sub(rect(5.058420435370355e-09, -2.5611156760106387e-09).transl(3.8912134581711954e-08, -3.8275651558575026e-08, 0))
hIsland = hIsland.add(rect(6.955949970291115e-09, 3.5877181370420068e-09).transl(-3.349544926097955e-08, -3.9062671440415524e-08, 0))
hIsland = hIsland.add(rect(4.621208023234732e-09, 8.626993790301249e-10).transl(-7.304240474421758e-09, -4e-08, 0))
hIsland = hIsland.sub(rect(3.290712947987034e-09, -6.673435601874471e-11).transl(-1.1327185266629814e-10, -4e-08, 0))
hIsland = hIsland.add(rect(3.3049851789076855e-09, 5.898868186026083e-10).transl(-6.919666053372988e-08, -2.812506214091366e-08, 0))
hIsland = hIsland.sub(rect(8.77985836253477e-09, -1.3641362456913079e-09).transl(5.70922643667605e-08, -3.359064972540863e-08, 0))
hIsland = hIsland.add(rect(5.040750047618589e-09, 1.5487955800491248e-09).transl(-7.332455919533497e-08, -2.5598955598402343e-08, 0))
hIsland = hIsland.add(rect(9.960805135930312e-09, 2.350602613539858e-09).transl(1.7227138956086332e-08, -4e-08, 0))
hIsland = hIsland.sub(rect(6.721285441142593e-09, -1.8596484304311722e-09).transl(1.0572910553781925e-08, -4e-08, 0))
hIsland = hIsland.add(rect(6.092802791384061e-09, 4.534161331376351e-09).transl(-5.162253585210603e-08, -3.537072219422881e-08, 0))
hIsland = hIsland.add(rect(7.846927955377182e-09, 2.3945822108587495e-09).transl(-2.167856081437547e-08, -3.994775983125306e-08, 0))
hIsland = hIsland.sub(rect(4.348834683950379e-09, -6.537212150032962e-10).transl(2.153346323457856e-08, -3.995180212552525e-08, 0))
hIsland = hIsland.add(rect(4.110029584994709e-09, 4.218783187516974e-09).transl(1.54528621050573e-08, -4e-08, 0))
hIsland = hIsland.add(rect(2.802076590020091e-09, 8.672742440322952e-10).transl(5.679292114929623e-08, -3.3697589707118304e-08, 0))
hIsland = hIsland.add(rect(4.516048301692966e-09, 1.8229356327209433e-09).transl(-8.661219449187497e-08, -1.2125459988845268e-08, 0))
hIsland = hIsland.add(rect(7.023083585234311e-09, 3.1530216505385754e-10).transl(7.924621515831396e-08, -2.1029822510166594e-08, 0))
hIsland = hIsland.sub(rect(3.4532760507660138e-09, -1.3314471758065295e-09).transl(-7.584223399873924e-08, -2.381951144166215e-08, 0))
hIsland = hIsland.add(rect(2.532833988235624e-09, 3.1105080817037646e-09).transl(6.320607558964732e-08, -3.113298204349702e-08, 0))
hIsland = hIsland.sub(rect(9.917980262921806e-09, -1.845627886155325e-09).transl(1.8403538432237474e-08, -3.9999371741723964e-08, 0))
hIsland = hIsland.sub(rect(9.868246168492239e-09, -1.5486492855729473e-09).transl(-4.2488277886084517e-08, -3.761535445525424e-08, 0))
hIsland = hIsland.sub(rect(5.578222449129371e-09, -1.780415043939953e-09).transl(-2.8031618256336614e-08, -3.960985129350475e-08, 0))
hIsland = hIsland.add(rect(6.5745969284488835e-09, 1.9811023134072697e-09).transl(8.947810992272842e-08, -4.807395340641386e-09, 0))
hIsland = hIsland.sub(rect(7.014324288239496e-09, -9.713065625141797e-10).transl(5.239792731067267e-08, -3.513985548398124e-08, 0))
hIsland = hIsland.sub(rect(6.236813210345933e-09, -2.4032140772800043e-09).transl(-3.702611582175357e-08, -3.857815106681125e-08, 0))
hIsland = hIsland.add(rect(4.568435979678883e-09, 2.58789711892599e-09).transl(-4.8933657900481064e-08, -3.612012199068857e-08, 0))
hIsland = hIsland.add(rect(6.44669074483218e-09, 5.792270259653334e-10).transl(5.1590869768522764e-08, -3.5380007032090666e-08, 0))
hIsland = hIsland.sub(rect(4.174631582408119e-09, -1.2069145454403182e-09).transl(-3.475081357714785e-08, -3.890241925140691e-08, 0))
hIsland = hIsland.add(rect(2.7357007897156484e-09, 6.2627203960022e-10).transl(-1.752133384540416e-08, -4e-08, 0))
hIsland = hIsland.sub(rect(4.3473531653733255e-09, -7.933629090029071e-11).transl(2.9213508473979575e-08, -3.951190329986363e-08, 0))
hIsland = hIsland.add(rect(7.484492677172756e-09, 1.0690626122050744e-09).transl(-8.281981041095586e-08, -1.7412853368546114e-08, 0))
hIsland = hIsland.add(rect(3.1242184511057607e-09, 6.698357778622711e-10).transl(-4.5233706207597597e-08, -3.702820599151518e-08, 0))
hIsland = hIsland.sub(rect(4.98317297855552e-09, -2.1421333714686368e-10).transl(-3.61876642431269e-08, -3.870276439778744e-08, 0))
hIsland = hIsland.sub(rect(8.974993403398542e-09, -2.996347827751958e-09).transl(-6.988971219546373e-08, -2.7730280326702676e-08, 0))
hIsland = hIsland.add(rect(2.3804874848465102e-09, 2.5525045020878986e-10).transl(-6.830200103994973e-09, -4e-08, 0))
hIsland = hIsland.add(rect(7.57709045916487e-09, 1.1693206563034197e-09).transl(7.173434071505395e-08, -2.662392771803849e-08, 0))
hIsland = hIsland.add(rect(8.425564240811504e-09, 1.0604077515431037e-10).transl(-6.495076860778021e-08, -3.0325524672258204e-08, 0))
hIsland = hIsland.add(rect(9.93138041590179e-09, 2.889157100523086e-11).transl(1.2954297564544445e-08, -4e-08, 0))
hIsland = hIsland.sub(rect(8.631935780903884e-09, -3.748564274191997e-09).transl(8.096046975644583e-08, -1.9404556293638488e-08, 0))
hIsland = hIsland.add(rect(5.0140506127452715e-09, 2.4220330483445633e-09).transl(4.2057207118853864e-08, -3.770111005357508e-08, 0))
hIsland = hIsland.add(rect(9.490048620757136e-09, 4.148772999276738e-10).transl(1.4217385227468403e-08, -4e-08, 0))
hIsland = hIsland.add(rect(7.856762152659194e-09, 1.8412987961674086e-09).transl(4.571086348852216e-08, -3.691877991075703e-08, 0))
hIsland = hIsland.add(rect(8.356289701611747e-09, 5.337317895180017e-10).transl(3.26966990780685e-08, -3.91578281446084e-08, 0))
hIsland = hIsland.sub(rect(8.522988524570288e-09, -2.969824430678326e-09).transl(-4.9999438524144885e-09, -4e-08, 0))
hIsland = hIsland.sub(rect(6.70869800825151e-09, -1.7344732810629708e-09).transl(4.294131190782493e-08, -3.752337115470521e-08, 0))
hIsland = hIsland.add(rect(4.277540782557041e-09, 3.81151321340639e-10).transl(-2.8629948222839104e-09, -4e-08, 0))
hIsland = hIsland.add(rect(3.813756612591411e-09, 1.3100268525706601e-09).transl(-5.836796584260826e-08, -3.31216767898828e-08, 0))
hIsland = hIsland.add(rect(6.225873311591123e-09, 2.6426143070758733e-09).transl(-5.520676108149399e-08, -3.424519850017287e-08, 0))
hIsland = hIsland.sub(rect(8.354387530584576e-09, -1.3317420402130296e-09).transl(-7.988495603875573e-08, -2.0444536654994898e-08, 0))
hIsland = hIsland.add(rect(7.350920990255062e-09, 6.569093908952302e-10).transl(1.4393359017872124e-08, -4e-08, 0))
hIsland = hIsland.sub(rect(8.72624330444328e-09, -4.071526159015248e-10).transl(2.684448705064187e-09, -4e-08, 0))
hIsland = hIsland.add(rect(4.992760642893974e-09, 8.591304615764593e-10).transl(1.9368336989987088e-09, -4e-08, 0))
hIsland = hIsland.add(rect(8.659342231456833e-09, 1.1976593688974628e-09).transl(7.195740781249148e-08, -2.6484319505660842e-08, 0))
hIsland = hIsland.add(rect(8.471848758058382e-09, 1.3076586661980418e-09).transl(-1.0409058665075073e-09, -4e-08, 0))
hIsland = hIsland.sub(rect(9.286383136019379e-09, -9.590970325740476e-10).transl(-4.975298876650354e-08, -3.5900014204381376e-08, 0))
hIsland = hIsland.sub(rect(8.135392370670477e-09, -1.4832176212390584e-09).transl(6.874902496371198e-08, -2.8374351927295072e-08, 0))
hIsland = hIsland.add(rect(2.6761400428065676e-09, 8.702354995949699e-10).transl(2.8924419661019972e-08, -3.95368910985377e-08, 0))
hIsland = hIsland.add(rect(4.268274343561629e-09, 1.0143959969635456e-09).transl(-7.642689109734377e-08, -2.3374952278944705e-08, 0))
hIsland = hIsland.add(rect(7.97712253294977e-09, 4.583957239203015e-10).transl(-6.220893316846207e-08, -3.157183768171814e-08, 0))
hIsland = hIsland.add(rect(3.2448529750950304e-09, 3.769802640305754e-09).transl(-4.414691375348123e-08, -3.7269202943111344e-08, 0))
hIsland = hIsland.sub(rect(7.922063886619537e-09, -9.310450395108782e-10).transl(-1.2640276450961064e-09, -4e-08, 0))
hIsland = hIsland.sub(rect(8.998184337910715e-09, -1.885561128379988e-09).transl(-1.438185797540803e-08, -4e-08, 0))
hIsland = hIsland.sub(rect(9.365347565696158e-09, -2.086253505287386e-09).transl(7.661953297598437e-08, -2.3225613479634836e-08, 0))
hIsland = hIsland.sub(rect(6.871330780250318e-09, -1.522811475803311e-09).transl(9.497478074308754e-10, -4e-08, 0))
hIsland = hIsland.add(rect(2.3564579589442698e-09, 1.1363678095185135e-09).transl(5.549177791562929e-09, -4e-08, 0))
hIsland = hIsland.sub(rect(9.534456883506893e-09, -9.029628790277304e-11).transl(-4.497138958055233e-08, -3.708741818573188e-08, 0))
hIsland = hIsland.sub(rect(7.23820546347009e-09, -5.337170986967276e-10).transl(9.30221670486101e-09, -4e-08, 0))
hIsland = hIsland.add(rect(7.920341347075147e-09, 5.1618041422323875e-09).transl(6.77061096391032e-08, -2.8938539942359048e-08, 0))
hIsland = hIsland.sub(rect(4.089436407046724e-09, -8.290757864091081e-10).transl(-2.1248772351475925e-08, -3.995925964711768e-08, 0))
hIsland = hIsland.sub(rect(9.280265945002253e-09, -1.181364102483947e-09).transl(-4.105307890283297e-08, -3.7894246741977873e-08, 0))
hIsland = hIsland.add(rect(5.128743167331856e-09, 1.1504821073152164e-09).transl(-2.8740959610536203e-08, -3.95524022878792e-08, 0))
hIsland = hIsland.add(rect(7.607249029089351e-09, 1.6187232313653656e-11).transl(-6.389851052812939e-08, -3.081869888587561e-08, 0))
hIsland = hIsland.sub(rect(6.479307341462417e-09, -7.821912376373724e-10).transl(3.1709444184523857e-08, -3.926819441531949e-08, 0))
hIsland = hIsland.add(rect(9.876856923986743e-09, 2.881073188190708e-09).transl(5.84279899089584e-08, -3.3099073277472864e-08, 0))
hIsland = hIsland.sub(rect(3.429448567709998e-09, -4.2648708302959186e-10).transl(-3.0927780050789035e-08, -3.9349935694797497e-08, 0))
hIsland = hIsland.sub(rect(8.089848139216265e-09, -1.5428209169196766e-09).transl(-7.472374664552996e-08, -2.4635719866938383e-08, 0))
hIsland = hIsland.sub(rect(7.333665128007739e-09, -2.1187469291415397e-09).transl(-2.7172914356212884e-08, -3.96740486525597e-08, 0))
hIsland = hIsland.sub(rect(4.3458037026150785e-09, -1.3924725674943553e-09).transl(-7.62832991524326e-08, -2.3485331907095443e-08, 0))
hIsland = hIsland.add(rect(8.775209457306449e-09, 1.297127877414181e-10).transl(-1.9184839530408175e-08, -3.9994583565713114e-08, 0))
hIsland = hIsland.sub(rect(3.826877206690256e-09, -3.681168617011336e-10).transl(9.651838304925211e-09, -4e-08, 0))
hIsland = hIsland.sub(rect(5.378474496245794e-09, -1.0598721761826185e-09).transl(7.242322276696758e-08, -2.6188495398784705e-08, 0))
hIsland = hIsland.sub(rect(8.407777799971673e-09, -4.052870832381992e-10).transl(-7.698257902668829e-08, -2.294017562764736e-08, 0))
hIsland = hIsland.sub(rect(5.280867195845389e-09, -1.7183232897388058e-09).transl(-8.467485616538868e-08, -1.5097047738179418e-08, 0))
hIsland = hIsland.sub(rect(3.2626966142741836e-09, -2.852062371407967e-09).transl(7.829075268486409e-08, -2.1865364831762976e-08, 0))
hIsland = hIsland.sub(rect(2.473019115528836e-09, -8.035991173117888e-10).transl(3.018521249585076e-08, -3.942300119967788e-08, 0))
hIsland = hIsland.sub(rect(2.4350334513903267e-09, -1.1319598535158433e-09).transl(4.9466179653792454e-08, -3.5977871877215744e-08, 0))
hIsland = hIsland.sub(rect(5.537573924877162e-09, -3.2313681600722615e-11).transl(-1.1943012904791601e-08, -4e-08, 0))
hIsland = hIsland.add(rect(7.890844208465791e-09, 2.1457479256682093e-10).transl(-3.8119771286606214e-08, -3.8406511485662825e-08, 0))
hIsland = hIsland.add(rect(2.3533543501238414e-09, 1.0503707633053947e-09).transl(-1.3843337570086266e-08, -4e-08, 0))
hIsland = hIsland.sub(rect(8.077632159616991e-09, -1.2455345036789763e-09).transl(6.125736516406531e-08, -3.1976073033196136e-08, 0))
hIsland = hIsland.add(rect(6.761883832886646e-09, 2.1073204976024053e-09).transl(4.673689165819514e-09, -4e-08, 0))
hIsland = hIsland.sub(rect(2.8970755304114457e-09, -2.8717865069317857e-09).transl(7.543600593201471e-08, -2.4120999141017752e-08, 0))
hIsland = hIsland.sub(rect(9.605211981510125e-09, -3.2121940483540395e-09).transl(2.8600969730900415e-08, -3.956405745384662e-08, 0))
hIsland = hIsland.sub(rect(2.895798112856034e-09, -2.1328355805807213e-09).transl(-4.861183619080375e-09, -4e-08, 0))
hIsland = hIsland.sub(rect(9.200576563231413e-09, -1.3024941260770355e-09).transl(1.9084823196112607e-08, -3.99954594592426e-08, 0))
hIsland = hIsland.add(rect(4.61164150267227e-09, 1.5257927173235279e-10).transl(-2.6618483854732264e-08, -3.971239869223029e-08, 0))
hIsland = hIsland.sub(rect(7.218293226417443e-09, -6.817522145273325e-10).transl(-4.9278641140035995e-08, -3.602830937855404e-08, 0))
hIsland = hIsland.add(rect(4.611053314730133e-09, 2.8454815515099562e-09).transl(-7.498347739792523e-08, -2.4450020220397014e-08, 0))
hIsland = hIsland.add(rect(7.951506810931141e-09, 1.8900810282351953e-09).transl(1.776403686344814e-08, -4e-08, 0))
hIsland = hIsland.add(rect(4.3262887303567554e-09, 1.0937913757779996e-09).transl(-3.3415394811799353e-09, -4e-08, 0))
hIsland = hIsland.add(rect(8.543370202403332e-09, 4.260565059217977e-10).transl(-3.8528238653815443e-08, -3.833973947184742e-08, 0))
hIsland = hIsland.sub(rect(6.460415722144689e-09, -3.290957068990577e-09).transl(-4.911112358019564e-08, -3.6073048271501605e-08, 0))
hIsland = hIsland.add(rect(2.489605282521896e-09, 7.525324200055097e-10).transl(-3.4337433346792746e-08, -3.895664047278268e-08, 0))
hIsland = hIsland.add(rect(8.737562340504134e-09, 1.0812360397407401e-09).transl(5.450375694393162e-08, -3.4477921585344643e-08, 0))
hIsland = hIsland.sub(rect(7.025365593170329e-09, -7.824658114686431e-10).transl(5.8190471967589567e-08, -3.318823030175711e-08, 0))
hIsland = hIsland.add(rect(3.7023156442058752e-09, 1.6778138489534722e-09).transl(2.7382116099870608e-08, -3.965894687363868e-08, 0))
hIsland = hIsland.add(rect(5.366955719056272e-09, 4.617494721067311e-09).transl(-3.6538620485062296e-08, -3.865133616312249e-08, 0))
hIsland = hIsland.sub(rect(3.003369589316405e-09, -1.7655129042723371e-09).transl(-6.268640826412927e-08, -3.136368169984194e-08, 0))
hIsland = hIsland.sub(rect(2.043630656691874e-09, -8.246031127120673e-10).transl(-6.724895049643763e-08, -2.9178785180837392e-08, 0))
hIsland = hIsland.sub(rect(2.3679619183767607e-09, -2.156626248792049e-09).transl(-3.059702851923596e-08, -3.938303072126164e-08, 0))
hIsland = hIsland.sub(rect(8.44079049198005e-09, -2.741629327238354e-09).transl(3.792356445796223e-08, -3.843806778879815e-08, 0))
hIsland = hIsland.sub(rect(6.61258966928684e-09, -4.266889800739902e-09).transl(5.8270173706414834e-08, -3.3158397953336716e-08, 0))
hIsland = hIsland.add(rect(6.587016014625723e-09, 1.937525468017322e-09).transl(4.267894518332876e-08, -3.7576874556455065e-08, 0))
hIsland = hIsland.add(rect(3.2935689695490666e-09, 4.072900976354116e-09).transl(-2.3177688124984215e-09, -4e-08, 0))
hIsland = hIsland.add(rect(7.676304964303563e-09, 3.0861439367021847e-10).transl(-7.406278603806599e-08, -2.5098349889503427e-08, 0))
hIsland = hIsland.add(rect(6.939803527898855e-09, 4.378999628402111e-10).transl(2.9913599100797755e-08, -3.9448615415098605e-08, 0))
hIsland = hIsland.sub(rect(3.773518072733837e-09, -3.2878485288126976e-10).transl(-6.554201425571888e-08, -3.00398751482515e-08, 0))
hIsland = hIsland.sub(rect(2.9082591010360455e-09, -3.9784110949477965e-11).transl(2.0177531642632373e-08, -3.998170243514848e-08, 0))
hIsland = hIsland.sub(rect(6.3601477627830245e-09, -1.1151824750937963e-09).transl(-6.67190651471309e-08, -2.9452057145813297e-08, 0))
hIsland = hIsland.sub(rect(9.47513204182824e-09, -3.4725736250874115e-09).transl(-6.344859038332329e-08, -3.102381419112918e-08, 0))
hIsland = hIsland.sub(rect(3.63091954612067e-09, -2.3104308600243232e-10).transl(1.1400368147524586e-08, -4e-08, 0))
hIsland = hIsland.add(rect(9.896160303009546e-09, 8.990723137900538e-11).transl(3.6024375758544755e-08, -3.872633438437263e-08, 0))
hIsland = hIsland.sub(rect(9.33187595048445e-09, -4.887843370869729e-09).transl(-1.3641856174933524e-09, -4e-08, 0))
hIsland = hIsland.add(rect(2.638801933985403e-09, 4.5087701147913146e-10).transl(-1.8661837428549017e-08, -3.9998310038444554e-08, 0))
hIsland = hIsland.add(rect(3.836173460216415e-09, 2.2676779754014257e-09).transl(-3.9546843628222946e-08, -3.81668426716826e-08, 0))
hIsland = hIsland.add(rect(6.883677169428579e-09, 1.4721859610737475e-09).transl(-2.944679211780202e-08, -3.949125137610308e-08, 0))
hIsland = hIsland.sub(rect(4.670280279636241e-09, -1.5857850203806864e-09).transl(-2.637702948290424e-08, -3.972834209671824e-08, 0))
hIsland = hIsland.add(rect(2.2543297414602555e-09, 1.7809107015174045e-09).transl(4.922096910194302e-08, -3.60437452337285e-08, 0))
hIsland = hIsland.add(rect(5.92448609117828e-09, 4.745090098391333e-10).transl(-6.909026277880205e-08, -2.8184713970568582e-08, 0))
hIsland = hIsland.sub(rect(6.202838789012396e-09, -2.161332242058208e-09).transl(2.168662485052291e-08, -3.994753039080813e-08, 0))
hIsland = hIsland.add(rect(3.004041145440022e-09, 1.6869000013812533e-09).transl(6.041776461927367e-08, -3.2321366842047986e-08, 0))
hIsland = hIsland.add(rect(9.054888877178626e-09, 1.4196141194935746e-09).transl(-3.145921730832792e-08, -3.929490224471843e-08, 0))
hIsland = hIsland.sub(rect(5.0195685550728756e-09, -3.3375873753520653e-09).transl(-2.5814589065223007e-08, -3.976370094550104e-08, 0))
hIsland = hIsland.add(rect(4.151881332032538e-09, 1.341438763131319e-10).transl(3.093190289935721e-08, -3.93495175719937e-08, 0))
hIsland = hIsland.sub(rect(3.480513421100036e-09, -1.0335565136186123e-09).transl(7.860742292982974e-08, -2.1593468132496004e-08, 0))
hIsland = hIsland.sub(rect(3.375805387135852e-09, -2.267128941437185e-09).transl(-3.632173382710452e-08, -3.868324225486244e-08, 0))
hIsland = hIsland.sub(rect(9.925419794337295e-09, -7.101977942060606e-10).transl(2.6168174187959783e-08, -3.9741762600301835e-08, 0))
hIsland = hIsland.add(rect(9.609589967929258e-09, 4.1099482088261115e-09).transl(-7.903562431040944e-08, -2.1217950159299504e-08, 0))
hIsland = hIsland.add(rect(3.88855233992174e-09, 3.360543629614407e-09).transl(2.525926730177917e-08, -3.979617450999577e-08, 0))
hIsland = hIsland.add(rect(6.157224208458105e-09, 1.520857082031233e-09).transl(-7.578762585245714e-08, -2.3860385439336736e-08, 0))
hIsland = hIsland.sub(rect(6.364556342049656e-09, -2.794048901621678e-09).transl(7.566566327635962e-10, -4e-08, 0))
hIsland = hIsland.sub(rect(2.0260122862026373e-09, -2.652561765850837e-09).transl(-2.7302893683975226e-08, -3.966470649181314e-08, 0))
hIsland = hIsland.sub(rect(2.8624258287356857e-09, -1.4029134811753797e-09).transl(-2.5157082886887182e-08, 3.9801886566391514e-08, 0))
hIsland = hIsland.add(rect(8.60378231648121e-09, 1.396572839519483e-09).transl(8.483837072774524e-08, 1.4872214942725247e-08, 0))
hIsland = hIsland.add(rect(6.727315165365033e-09, 9.12237593179127e-12).transl(-4.690565339379942e-08, 3.6634932403164385e-08, 0))
hIsland = hIsland.sub(rect(6.279351044399363e-09, -1.6037238355831869e-09).transl(8.108269452212706e-08, 1.928164908157337e-08, 0))
hIsland = hIsland.add(rect(2.221075209684367e-09, 1.099666027713957e-09).transl(-2.014356573393365e-08, 3.9982268932555045e-08, 0))
hIsland = hIsland.sub(rect(9.116631506412405e-09, -1.0682234756461845e-09).transl(-3.314876588466143e-08, 3.910461945877958e-08, 0))
hIsland = hIsland.add(rect(5.123256028761798e-09, 4.421748451638033e-09).transl(1.504143166196948e-08, 4e-08, 0))
hIsland = hIsland.add(rect(2.5167660219230665e-09, 1.162094189363995e-09).transl(-8.229321194827353e-08, 1.8005339549034974e-08, 0))
hIsland = hIsland.add(rect(8.207923877513406e-09, 4.1558144885680995e-10).transl(7.113057560619768e-09, 4e-08, 0))
hIsland = hIsland.sub(rect(9.981877008022947e-09, -1.2278030224261607e-09).transl(-6.069444220054907e-08, 3.2208735708204696e-08, 0))
hIsland = hIsland.sub(rect(5.8197071721651965e-09, -3.2259163349677402e-09).transl(-4.545728520785859e-09, 4e-08, 0))
hIsland = hIsland.add(rect(3.3811041556359504e-09, 2.9682107684884113e-09).transl(-3.204233453406218e-08, 3.923187180965684e-08, 0))
hIsland = hIsland.add(rect(5.472633169634636e-09, 5.883219141559648e-10).transl(-8.373148927128026e-08, 1.6323989373549855e-08, 0))
hIsland = hIsland.sub(rect(2.9914866238345506e-09, -1.579219569966444e-09).transl(-4.008841376726903e-08, 3.8071172696779387e-08, 0))
hIsland = hIsland.add(rect(2.251166250192453e-09, 2.5314806762934725e-09).transl(5.186229917141934e-08, 3.530005724659302e-08, 0))
hIsland = hIsland.add(rect(2.891667251226969e-09, 1.5776538744674543e-09).transl(1.3948223303806447e-09, 4e-08, 0))
hIsland = hIsland.sub(rect(2.4603786711036763e-09, -2.1636428494329357e-09).transl(4.8541544041301696e-08, 3.622296389651912e-08, 0))
hIsland = hIsland.sub(rect(5.523772462407011e-09, -1.1620525902547513e-09).transl(7.532530782932418e-08, 2.420213924246138e-08, 0))
hIsland = hIsland.add(rect(3.828800345963057e-09, 8.670743737232154e-10).transl(8.794418844415856e-08, 9.490256583842827e-09, 0))
hIsland = hIsland.sub(rect(2.84589365213997e-09, -2.449612643723966e-09).transl(-7.116628491492911e-08, 2.6973616214947723e-08, 0))
hIsland = hIsland.add(rect(7.943777325407263e-09, 3.4636632659404133e-09).transl(2.824617803673149e-08, 3.95928968394039e-08, 0))
hIsland = hIsland.add(rect(6.844473022185763e-09, 1.46627720116999e-09).transl(1.7562507869505613e-08, 4e-08, 0))
hIsland = hIsland.sub(rect(8.008120675959882e-09, -9.108473470367625e-10).transl(-6.656460068932855e-08, 2.9530688995643648e-08, 0))
hIsland = hIsland.add(rect(7.568193485195397e-09, 1.2664113062038142e-09).transl(-3.793780483524819e-08, 3.843578875886264e-08, 0))
hIsland = hIsland.sub(rect(4.799443508505528e-09, -1.8267526739570205e-09).transl(-7.649520218416102e-08, 2.332216215011403e-08, 0))
hIsland = hIsland.sub(rect(3.864040784430042e-09, -1.5133251821081546e-09).transl(-1.8061215575752664e-08, 3.9999985542641235e-08, 0))
hIsland = hIsland.add(rect(5.632980648902714e-09, 3.4388602760535422e-09).transl(-4.685820831753167e-08, 3.6646475133671764e-08, 0))
hIsland = hIsland.add(rect(2.380196222318018e-09, 3.6108511113630563e-09).transl(-2.2094530819663463e-08, 3.9935267132143826e-08, 0))
hIsland = hIsland.add(rect(4.774439356236858e-09, 4.2544364967384667e-10).transl(-3.96223501785473e-08, 3.8153660944178014e-08, 0))
hIsland = hIsland.add(rect(9.055327947766429e-09, 1.044631611591713e-09).transl(7.697561185186258e-08, 2.2945703534853694e-08, 0))
hIsland = hIsland.sub(rect(4.893783515673188e-09, -1.1473486219270777e-09).transl(-2.811434331250895e-08, 3.960335773953891e-08, 0))
hIsland = hIsland.add(rect(5.5494603272540735e-09, 1.2068408206033713e-09).transl(5.321528549423681e-08, 3.4889082039271586e-08, 0))
hIsland = hIsland.add(rect(2.6653633941775665e-09, 1.790401471100999e-09).transl(-4.897676396300541e-08, 3.610871827277377e-08, 0))
hIsland = hIsland.sub(rect(6.9454502420732025e-09, -6.031115982570796e-10).transl(8.632977492861766e-08, 1.2608074257508817e-08, 0))
hIsland = hIsland.add(rect(4.995861871037933e-09, 2.5632185909196183e-09).transl(2.1496065320832026e-08, 3.995281757115787e-08, 0))
hIsland = hIsland.sub(rect(9.745698910899906e-09, -1.5771106643943548e-09).transl(2.5823593159807707e-08, 3.976315447402595e-08, 0))
hIsland = hIsland.add(rect(6.0713017358246915e-09, 2.7663652322409384e-09).transl(-1.0977191868656598e-09, 4e-08, 0))
hIsland = hIsland.sub(rect(8.996721941418528e-09, -5.629938764477054e-10).transl(8.495868972552284e-08, 1.470422243717228e-08, 0))
hIsland = hIsland.sub(rect(4.356636438660315e-09, -5.640313608778516e-10).transl(-1.6100558859637265e-08, 4e-08, 0))
hIsland = hIsland.sub(rect(2.6530702943942085e-09, -3.64825998592789e-09).transl(-6.219960440706e-08, 3.157586870773256e-08, 0))
hIsland = hIsland.add(rect(2.2368875537593073e-09, 3.3211003961937757e-09).transl(5.6208892336108155e-08, 3.3902913976000706e-08, 0))
hIsland = hIsland.add(rect(5.795009115462212e-09, 1.9636452859571256e-09).transl(-5.167889613646604e-08, 3.535416906208828e-08, 0))
hIsland = hIsland.add(rect(3.4183563670995573e-09, 9.469789726663025e-10).transl(5.2851095105887035e-09, 4e-08, 0))
hIsland = hIsland.sub(rect(4.123775148652271e-09, -1.122149779560267e-09).transl(6.875792660501817e-08, 2.8369437164830323e-08, 0))
hIsland = hIsland.sub(rect(2.0951845685845224e-09, -1.2018694359260462e-09).transl(5.759227965330477e-08, 3.340941036878178e-08, 0))
hIsland = hIsland.sub(rect(3.8217039474846415e-09, -2.9658157906377727e-10).transl(1.2309002901680299e-08, 4e-08, 0))
hIsland = hIsland.sub(rect(4.121001120445004e-09, -8.79959695045503e-10).transl(-4.7695424699511155e-08, 3.643945490876674e-08, 0))
hIsland = hIsland.add(rect(3.805006330314086e-09, 7.03499134893678e-10).transl(7.913078145628508e-08, 2.1133230798792573e-08, 0))
hIsland = hIsland.add(rect(5.747857931366337e-09, 9.715211435191312e-10).transl(3.759842473040349e-08, 3.848962401501066e-08, 0))
hIsland = hIsland.add(rect(2.0270720022532043e-09, 1.6768237670166131e-09).transl(-3.700682085674351e-08, 3.858108649133338e-08, 0))
hIsland = hIsland.add(rect(6.2852560816926e-09, 1.0265606167026876e-09).transl(5.464297389355213e-08, 3.4432311771069646e-08, 0))
hIsland = hIsland.add(rect(2.9777842166057556e-09, 1.8469341464604396e-09).transl(-8.762474748381879e-08, 1.0189478624252375e-08, 0))
hIsland = hIsland.add(rect(5.346888413049099e-09, 3.384140961125799e-09).transl(7.927605961389327e-08, 2.1002972439505545e-08, 0))
hIsland = hIsland.add(rect(9.790219094389784e-09, 1.6497783484831536e-09).transl(4.512117532553392e-08, 3.705368914574028e-08, 0))
hIsland = hIsland.add(rect(6.003472983355509e-09, 1.1491614036879933e-09).transl(-2.6877226976297265e-08, 3.9694803439832584e-08, 0))
hIsland = hIsland.sub(rect(2.9028308583324975e-09, -6.735387423913691e-10).transl(2.8940404399590244e-08, 3.9535526887700566e-08, 0))
hIsland = hIsland.sub(rect(5.570167309374229e-09, -2.3166923221780027e-09).transl(5.068379066574697e-08, 3.5641258809734524e-08, 0))
hIsland = hIsland.add(rect(4.581258634811626e-09, 1.3393462180801862e-09).transl(-4.892841904179542e-09, 4e-08, 0))
hIsland = hIsland.sub(rect(3.463851273496688e-09, -1.1510304450749228e-09).transl(4.398859740579615e-08, 3.7303364314232074e-08, 0))
hIsland = hIsland.add(rect(5.0157885196678615e-09, 1.314837542366505e-09).transl(-5.2963616086458844e-08, 3.4967116607981094e-08, 0))
hIsland = hIsland.sub(rect(2.1421617558457707e-09, -1.4835717916538084e-09).transl(-2.0296204968658842e-08, 3.9979653168992526e-08, 0))
hIsland = hIsland.add(rect(2.5350449460240583e-09, 9.990832509311134e-10).transl(3.382499398270055e-08, 3.902187407086328e-08, 0))
hIsland = hIsland.add(rect(7.970624589950083e-09, 1.6789403854513428e-09).transl(-7.346900863345765e-08, 2.5502294021851756e-08, 0))
hIsland = hIsland.sub(rect(3.5908742082335748e-09, -1.1265546720956841e-09).transl(-5.4401909346575846e-08, 3.451114060564166e-08, 0))
hIsland = hIsland.sub(rect(2.8611257673343166e-09, -8.311451288189705e-10).transl(-8.53511204778578e-08, 1.4140243008470779e-08, 0))
hIsland = hIsland.sub(rect(6.83089676095597e-09, -8.5263288192494e-10).transl(2.307055308557954e-08, 3.99006849294778e-08, 0))
hIsland = hIsland.sub(rect(2.4625276628764318e-09, -1.264989850108149e-09).transl(7.05982831736502e-08, 2.7315150948754482e-08, 0))
hIsland = hIsland.add(rect(6.187902908227892e-09, 7.499317020118887e-10).transl(8.62601060986275e-08, 1.2724016314596211e-08, 0))
hIsland = hIsland.sub(rect(7.973344227848472e-09, -2.7250061889027167e-10).transl(3.577539213395189e-08, 3.8761837835320445e-08, 0))
hIsland = hIsland.add(rect(2.2618361635559696e-09, 1.3440434442604242e-09).transl(1.4128346277753039e-08, 4e-08, 0))
hIsland = hIsland.add(rect(3.376866972458954e-09, 3.2603511653298907e-09).transl(2.59804138696831e-08, 3.9753534645504e-08, 0))
hIsland = hIsland.sub(rect(2.987268295524814e-09, -4.756619569656803e-10).transl(-3.97945475095633e-08, 3.8123409494665605e-08, 0))
hIsland = hIsland.add(rect(9.11618610462249e-09, 8.479546370576688e-10).transl(-2.054689723444779e-08, 3.9974966373557155e-08, 0))
hIsland = hIsland.sub(rect(9.139555683572349e-09, -1.0018869216168278e-09).transl(6.098583267715227e-08, 3.208889172174055e-08, 0))
hIsland = hIsland.add(rect(3.4506161024229504e-09, 2.2436108238725455e-09).transl(-5.706239923038463e-09, 4e-08, 0))
hIsland = hIsland.sub(rect(2.8542956326297707e-09, -4.039659306141873e-09).transl(-3.4250343060020476e-08, 3.8967881481680016e-08, 0))
hIsland = hIsland.add(rect(8.570167163395265e-09, 2.6450763807009037e-10).transl(4.572261496080548e-08, 3.691605684528897e-08, 0))
hIsland = hIsland.add(rect(8.41155100536204e-09, 4.491731778462854e-10).transl(-8.726737153169413e-08, 1.0915376529508355e-08, 0))
hIsland = hIsland.add(rect(6.128944112350532e-09, 2.013219518522941e-09).transl(3.227497697471748e-08, 3.920594969481825e-08, 0))
hIsland = hIsland.add(rect(3.6818157456459143e-09, 2.735355807488687e-10).transl(-5.6846890466245955e-08, 3.367839501021449e-08, 0))
hIsland = hIsland.sub(rect(7.045290067154816e-09, -1.3322681734808657e-09).transl(1.5006698045701305e-08, 4e-08, 0))
hIsland = hIsland.sub(rect(2.6549804880896605e-09, -1.5750909827326309e-09).transl(8.900473868600309e-08, 6.627828632859241e-09, 0))
hIsland = hIsland.add(rect(7.880236553029794e-09, 5.578608240687085e-09).transl(-7.026286765084613e-08, 2.7513143126973924e-08, 0))
hIsland = hIsland.sub(rect(9.459524020524335e-09, -1.7218503723391183e-09).transl(1.646631967597483e-08, 4e-08, 0))
hIsland = hIsland.sub(rect(8.755176676129667e-09, -2.3661366129437822e-09).transl(2.7866290358754862e-08, 3.9622665895178855e-08, 0))
hIsland = hIsland.sub(rect(9.376181578241918e-09, -7.767387291910148e-10).transl(4.9904453780399006e-08, 3.585854336695094e-08, 0))
hIsland = hIsland.sub(rect(2.579642065573588e-09, -9.35719636410543e-10).transl(-8.380646267696932e-08, 1.6230491328001973e-08, 0))
hIsland = hIsland.add(rect(9.707048978562535e-09, 4.603337943215226e-09).transl(-3.4326312296792145e-08, 3.895807942792132e-08, 0))
hIsland = hIsland.add(rect(2.485264587158106e-09, 2.1054884417325443e-09).transl(7.607309979831001e-08, 2.3645498356677882e-08, 0))
hIsland = hIsland.sub(rect(8.312585582115202e-09, -8.002492395914528e-10).transl(-4.853924881591444e-08, 3.622356116202764e-08, 0))
hIsland = hIsland.add(rect(7.3943048258464025e-09, 1.697800562950921e-09).transl(-6.385997838177651e-08, 3.0836398160105824e-08, 0))
hIsland = hIsland.add(rect(5.41934935388832e-09, 1.449855958624815e-09).transl(5.7681202590078135e-08, 3.337683347257374e-08, 0))
hIsland = hIsland.sub(rect(7.896237867734854e-09, -2.722303096925368e-09).transl(-2.860597314781668e-08, 3.956364357693376e-08, 0))
hIsland = hIsland.add(rect(4.078589491205712e-09, 1.0902077512411264e-09).transl(3.6177897739444376e-08, 3.8704180532225216e-08, 0))
hIsland = hIsland.sub(rect(3.160376921239194e-09, -8.344418703313074e-10).transl(8.653498149894625e-08, 1.2259492554639121e-08, 0))
hIsland = hIsland.sub(rect(9.647211831004647e-09, -1.1433698591257565e-09).transl(4.898938893773479e-08, 3.610537464379033e-08, 0))
hIsland = hIsland.add(rect(7.838003305246912e-09, 9.143707306471746e-10).transl(-8.464974954423514e-08, 1.5131225233438297e-08, 0))
hIsland = hIsland.add(rect(7.605310575625685e-09, 5.744080249253181e-10).transl(-6.989193887855953e-08, 2.7728994270960567e-08, 0))
hIsland = hIsland.add(rect(3.443625634736905e-09, 1.1848331716492832e-09).transl(-3.652151186856217e-08, 3.8653867605918796e-08, 0))
hIsland = hIsland.sub(rect(2.628157624128818e-09, -2.5601826490347375e-10).transl(7.420450689613786e-08, 2.500032965561662e-08, 0))
hIsland = hIsland.sub(rect(6.360117299089419e-09, -3.2848199527575346e-09).transl(1.1339125154217327e-09, 4e-08, 0))
hIsland = hIsland.sub(rect(7.036270356058354e-09, -1.8580068570444712e-09).transl(2.581312645379e-08, 3.976378965337517e-08, 0))
hIsland = hIsland.sub(rect(5.394747557009981e-09, -1.2568997970840577e-09).transl(3.301443366178e-08, 3.912060641451649e-08, 0))
hIsland = hIsland.sub(rect(7.847421795563251e-09, -5.123517725184158e-10).transl(8.284182686562296e-08, 1.7387535346047602e-08, 0))
hIsland = hIsland.add(rect(2.1155192894059926e-09, 3.2573333893077813e-09).transl(5.630560490211211e-09, 4e-08, 0))
hIsland = hIsland.add(rect(5.861156758814406e-09, 2.345219499633064e-09).transl(-8.614397750429081e-08, 1.2914705106667917e-08, 0))
hIsland = hIsland.add(rect(5.623657329145903e-09, 1.6026338951176722e-09).transl(-6.556571630777061e-08, 3.002829237984729e-08, 0))
hIsland = hIsland.sub(rect(8.664088345434082e-09, -8.099859943246559e-13).transl(8.545055274105288e-08, 1.3993196483177254e-08, 0))
hIsland = hIsland.sub(rect(3.413438686848621e-09, -1.0276167961126858e-09).transl(-6.680119794450258e-08, 2.9410058953504402e-08, 0))
hIsland = hIsland.add(rect(4.870940898227051e-09, 1.3744246424895476e-09).transl(-1.3812559412034116e-08, 4e-08, 0))
hIsland = hIsland.add(rect(5.423297848711483e-09, 6.639593322923437e-10).transl(-6.694696161410041e-08, 2.9335200638943877e-08, 0))
hIsland = hIsland.add(rect(3.317096464517043e-09, 6.436097260952972e-10).transl(-6.32084752840346e-08, 3.1131906554332083e-08, 0))
hIsland = hIsland.sub(rect(2.1466496178886142e-09, -6.680729038951233e-10).transl(-7.849358041912367e-08, 2.169177126847632e-08, 0))
hIsland = hIsland.add(rect(3.071990061482252e-09, 2.744913986047468e-09).transl(5.726554961982611e-08, 3.352821095666486e-08, 0))
hIsland = hIsland.add(rect(4.098507113284212e-09, 9.614757789445693e-10).transl(-8.394072040888016e-08, 1.606143098914615e-08, 0))
hIsland = hIsland.sub(rect(7.1418496131453735e-09, -1.4925273833806617e-09).transl(7.521002621497414e-08, 2.428618530039358e-08, 0))
hIsland = hIsland.add(rect(6.029156272934215e-09, 1.6459686717091056e-09).transl(-8.387865030830695e-08, 1.6139853992522407e-08, 0))
hIsland = hIsland.sub(rect(3.693939372332807e-09, -3.2339054799891645e-09).transl(-6.448644788107162e-08, 3.054550422255301e-08, 0))
hIsland = hIsland.sub(rect(3.1628927675033937e-09, -2.387420950117304e-09).transl(6.150274266013432e-08, 3.187316385922417e-08, 0))
hIsland = hIsland.add(rect(3.4498231101407415e-09, 2.5328910679543488e-09).transl(1.4735952506627087e-08, 4e-08, 0))
hIsland = hIsland.add(rect(2.9473735678440694e-09, 1.0489452434718295e-09).transl(-1.3904945312133339e-08, 4e-08, 0))
hIsland = hIsland.sub(rect(3.634767605647425e-09, -1.7531830600660637e-09).transl(8.845237138680202e-09, 4e-08, 0))
hIsland = hIsland.add(rect(6.975693092210963e-09, 1.6623758890257433e-09).transl(-1.1649490895951725e-09, 4e-08, 0))
hIsland = hIsland.add(rect(9.016242278561368e-09, 3.3598656961308327e-09).transl(8.392531828216861e-08, 1.608093351309885e-08, 0))
hIsland = hIsland.add(rect(6.868021700203258e-09, 8.992169089343454e-10).transl(-6.351597205017741e-08, 3.099331015195287e-08, 0))
hIsland = hIsland.sub(rect(3.0342104240655346e-09, -3.631202704201921e-10).transl(-2.3362426793854516e-08, 3.98889058297726e-08, 0))
hIsland = hIsland.sub(rect(9.609487576347012e-09, -3.444887962015007e-09).transl(1.1534405633447994e-08, 4e-08, 0))
hIsland = hIsland.add(rect(5.832094724693937e-09, 2.7944105466819385e-09).transl(-4.8270782806494095e-08, 3.6293044721389586e-08, 0))
hIsland = hIsland.sub(rect(9.938885957089331e-09, -7.127943932624079e-10).transl(2.4429737654865696e-09, 4e-08, 0))
hIsland = hIsland.sub(rect(2.6166404239189708e-09, -1.070311510879051e-10).transl(7.668981471441389e-08, 2.3170767348156543e-08, 0))
hIsland = hIsland.add(rect(2.272376101151589e-09, 4.346114394297424e-10).transl(-1.668706137334554e-08, 4e-08, 0))
hIsland = hIsland.add(rect(8.186973726602283e-09, 2.8185207090586804e-09).transl(-4.650679365627282e-08, 3.67312676514648e-08, 0))
hIsland = hIsland.sub(rect(3.2072816262156344e-09, -9.92435748852251e-10).transl(-3.5756774061958926e-08, 3.876447151085923e-08, 0))
hIsland = hIsland.sub(rect(7.134459794312074e-09, -7.38712133778816e-10).transl(7.359749106386925e-08, 2.541579529412799e-08, 0))
hIsland = hIsland.sub(rect(6.887379966793118e-09, -5.368961926752049e-09).transl(-1.1344930887936298e-08, 4e-08, 0))
hIsland = hIsland.add(rect(3.0300770769650456e-09, 3.3036413329754004e-09).transl(-6.644662227323532e-08, 2.95904388457608e-08, 0))
hIsland = hIsland.add(rect(5.619740004416399e-09, 1.4017064214759713e-09).transl(-3.068291688410377e-08, 3.937452182469169e-08, 0))
hIsland = hIsland.add(rect(3.2503598575628845e-09, 6.455087740879017e-10).transl(-1.4287669660593312e-08, 4e-08, 0))
hIsland = hIsland.sub(rect(2.939101036257971e-09, -5.50122315009372e-10).transl(2.0785345786171014e-08, 3.997005765450898e-08, 0))
hIsland = hIsland.sub(rect(7.689478561345824e-09, -2.312421702296497e-09).transl(1.6050991805165945e-08, 4e-08, 0))
hIsland = hIsland.add(rect(6.67779920049054e-09, 3.3011523855313875e-09).transl(7.637204892277782e-08, 2.341720313446929e-08, 0))
hIsland = hIsland.add(rect(7.868528264969031e-09, 3.4306143166658072e-09).transl(5.211934945541313e-08, 3.522358038364392e-08, 0))
hIsland = hIsland.sub(rect(9.854630510993933e-09, -1.1799863987945326e-09).transl(-9.314251853331614e-09, 4e-08, 0))
hIsland = hIsland.add(rect(8.719468737451074e-09, 7.616073781863903e-10).transl(-7.709514426207568e-08, 2.2850587726755914e-08, 0))
hIsland = hIsland.sub(rect(9.560552009530088e-09, -2.4249919067927304e-09).transl(7.423877642359405e-08, 2.497653235809322e-08, 0))
hIsland = hIsland.add(rect(7.051967622030256e-09, 5.852156706466979e-10).transl(-7.703702462035451e-08, 2.2896908815947616e-08, 0))
hIsland = hIsland.sub(rect(4.033215977806694e-09, -1.4362155552926728e-09).transl(8.689842192709946e-08, 1.1613735162757651e-08, 0))
hIsland = hIsland.sub(rect(8.74412500606719e-09, -2.3495941709582678e-09).transl(-1.2996639632403555e-08, 4e-08, 0))
hIsland = hIsland.add(rect(5.60830649389554e-09, 1.7417252451948324e-09).transl(-4.516962590528697e-08, 3.7042732364650467e-08, 0))
hIsland = hIsland.sub(rect(6.986152145664562e-09, -4.650963374724539e-09).transl(-1.716018385933457e-08, 4e-08, 0))
hIsland = hIsland.sub(rect(8.160262170039784e-09, -1.3916553056089538e-09).transl(-8.765201430159023e-08, 1.013179970928641e-08, 0))
hIsland = hIsland.add(rect(8.368292027549268e-09, 3.8049164308785955e-10).transl(6.303022292429285e-09, 4e-08, 0))
hIsland = hIsland.add(rect(7.702395159046e-09, 1.3356935914215122e-09).transl(7.935719218377721e-08, 2.0929739660592878e-08, 0))
hIsland = hIsland.sub(rect(6.855348764149553e-09, -2.736691894805822e-09).transl(5.743610980134837e-08, 3.346636990671878e-08, 0))
hIsland = hIsland.add(rect(7.076887365958656e-09, 2.060301256440737e-10).transl(-4.3471563489834214e-08, 3.741327194607428e-08, 0))
hIsland = hIsland.sub(rect(5.123363226671395e-09, -9.748982754475678e-11).transl(7.95394235386718e-08, 2.076395373849382e-08, 0))
hIsland = hIsland.add(rect(9.166131052172599e-09, 3.828706423319463e-09).transl(-6.644235241629376e-08, 2.9592596319114163e-08, 0))
hIsland = hIsland.add(rect(2.7991329793945676e-09, 2.2826315316283315e-09).transl(4.763021515666417e-09, 4e-08, 0))
hIsland = hIsland.add(rect(8.402338131844961e-09, 2.947327277774346e-09).transl(-1.5558467971229417e-08, 4e-08, 0))
hIsland = hIsland.sub(rect(6.144769381963187e-09, -6.047655382752777e-10).transl(6.298274681585822e-08, 3.123266180204408e-08, 0))
hIsland = hIsland.sub(rect(2.328306373294627e-09, -1.6529799623375988e-09).transl(4.9097063263477615e-08, 3.6076789913875356e-08, 0))
hIsland = hIsland.sub(rect(6.2086146776655105e-09, -2.2326782812218123e-09).transl(-6.880398802489007e-08, 2.8343978396615146e-08, 0))
hIsland = hIsland.add(rect(2.4825284987620196e-09, 2.6989731498161682e-09).transl(-3.624143017389324e-08, 3.8694953834132045e-08, 0))
hIsland = hIsland.add(rect(9.822672475108145e-09, 1.6253119807769926e-09).transl(-4.926388539226235e-09, 4e-08, 0))
hIsland = hIsland.sub(rect(9.257531190640965e-09, -2.5149496329159726e-09).transl(-1.836793171417981e-08, 3.999947772133453e-08, 0))
hIsland = hIsland.sub(rect(8.927447922461545e-09, -4.018288634469782e-10).transl(3.195872327455853e-08, 3.924107999822702e-08, 0))
hIsland = hIsland.sub(rect(5.3976606505161234e-09, -1.2608163519354042e-09).transl(-8.055265844366273e-09, 4e-08, 0))
hIsland = hIsland.sub(rect(2.8012089765791066e-09, -4.801763062347956e-10).transl(-2.8242425478738418e-08, 3.959319651118094e-08, 0))
hIsland = hIsland.sub(rect(8.095411173495869e-09, -1.4923015421284136e-10).transl(3.0724676923447966e-08, 3.93703631296572e-08, 0))
hIsland = hIsland.add(rect(4.248300010230545e-09, 3.765614160389959e-10).transl(-3.536952139704124e-08, 3.881858616199954e-08, 0))
hIsland = hIsland.add(rect(8.201679459268282e-09, 4.461726046051642e-10).transl(4.9782975343056846e-08, 3.589182340231255e-08, 0))
hIsland = hIsland.add(rect(6.798841218913936e-09, 1.0609410011966507e-09).transl(-8.296901500789432e-08, 1.7240376532867932e-08, 0))
hIsland = hIsland.add(rect(7.870364001113907e-09, 3.5870815586630494e-09).transl(6.361098599572826e-08, 3.095016881272636e-08, 0))
hIsland = hIsland.sub(rect(3.943903188046005e-09, -2.434367945257771e-09).transl(5.246811311607843e-08, 3.5118622518514425e-08, 0))
hIsland = hIsland.add(rect(6.856024580643623e-09, 6.149305465706309e-10).transl(5.033831871072123e-08, 3.573838904500373e-08, 0))
hIsland = hIsland.sub(rect(3.909626095007274e-09, -1.978590238416138e-10).transl(2.0614493815985157e-08, 3.997361947247586e-08, 0))
hIsland = hIsland.add(rect(8.244557179966503e-09, 1.7600070775192053e-09).transl(-7.832881336620087e-08, 2.1832939477830845e-08, 0))
hIsland = hIsland.sub(rect(6.670997681316909e-09, -3.2589198342659454e-09).transl(6.004403768028533e-08, 3.24717298486516e-08, 0))
hIsland = hIsland.sub(rect(3.6907610466819913e-09, -3.8624121087891405e-10).transl(-8.878951709322119e-08, 7.3039028487258615e-09, 0))
hIsland = hIsland.add(rect(2.9384970084658706e-09, 4.543538562335135e-10).transl(2.2334695887828542e-08, 3.992744349828392e-08, 0))
hIsland = hIsland.add(rect(5.882593805878905e-09, 2.293917822102934e-09).transl(2.0046541972223275e-08, 3.998383803872992e-08, 0))
hIsland = hIsland.sub(rect(7.449651099663314e-09, -5.058153291085191e-10).transl(-2.3102962013790437e-08, 3.989940970310357e-08, 0))
hIsland = hIsland.add(rect(5.693814396546769e-09, 1.053574976526092e-09).transl(-3.5505230865828145e-08, 3.879976649865329e-08, 0))
hIsland = hIsland.sub(rect(2.3741225143750156e-09, -1.2038589092535972e-09).transl(1.6400249233265917e-08, 4e-08, 0))
hIsland = hIsland.add(rect(8.924589722091149e-09, 1.661904876594589e-09).transl(-6.819124280622091e-08, 2.8678933344313665e-08, 0))
hIsland = hIsland.sub(rect(4.716438343224469e-09, -4.3016058682892064e-10).transl(6.725994766399773e-08, 2.917305515294642e-08, 0))
hIsland = hIsland.sub(rect(7.27007894909439e-09, -2.1931373814805464e-10).transl(6.78310043848439e-08, 2.8872169317707867e-08, 0))
hIsland = hIsland.sub(rect(7.949543084819519e-09, -1.7928737452966994e-09).transl(-5.131562624234633e-08, 3.5460241377397557e-08, 0))
hIsland = hIsland.sub(rect(6.9401315074062544e-09, -3.3680148699978297e-09).transl(4.9108572089049026e-08, 3.607372741259777e-08, 0))
hIsland = hIsland.add(rect(5.294986765039366e-09, 5.073479090565727e-10).transl(-8.920744137116997e-08, 5.918695358291153e-09, 0))
hIsland = hIsland.sub(rect(7.336133412869205e-09, -2.2761994532368448e-10).transl(2.8770766000554236e-08, 3.954990049995017e-08, 0))
hIsland = hIsland.add(rect(8.959419964230147e-09, 1.9567282211618497e-09).transl(-2.2364878954181076e-08, 3.9926428604956794e-08, 0))
hIsland = hIsland.add(rect(3.776580214731411e-09, 1.6759499490403336e-10).transl(5.7929759514418954e-08, 3.3285216684417146e-08, 0))
hIsland = hIsland.add(rect(3.5876213994198748e-09, 7.263783109745317e-10).transl(8.816360155369258e-08, 8.976461279551824e-09, 0))
hIsland = hIsland.sub(rect(2.452668245384918e-09, -3.947708546166691e-09).transl(-5.401321662386892e-08, 3.463677587960578e-08, 0))
hIsland = hIsland.add(rect(8.303316713761246e-09, 7.513946193497609e-10).transl(-8.780550064406511e-08, 9.80035398440159e-09, 0))
hIsland = hIsland.sub(rect(4.291887289303744e-09, -3.1563696200424333e-10).transl(7.457804231298361e-08, 2.473891526329306e-08, 0))
hIsland = hIsland.add(rect(8.967232384218527e-09, 1.7116277035605037e-09).transl(-7.731888225002202e-09, 4e-08, 0))
hIsland = hIsland.add(rect(6.5160008531497885e-09, 5.667001694912538e-11).transl(4.2932240396192674e-08, 3.752523179465697e-08, 0))
hIsland = hIsland.add(rect(7.71022355966794e-09, 2.4416962712190927e-09).transl(-7.625409467623377e-09, 4e-08, 0))
vIsland = hIsland.rotz(pi / 2)
hIslands = hIslands.add(hIsland.transl(-a/2, a, 0))
hIsland = rect(islandLength-2*ellipseConstant, islandWidth)
hIsland = hIsland.add(ellipse(ellipseConstant*2, islandWidth).transl(islandLength/2-ellipseConstant, 0, 0))
hIsland = hIsland.add(ellipse(ellipseConstant*2, islandWidth).transl(-islandLength/2+ellipseConstant, 0, 0))
hIsland = hIsland.sub(rect(2.5015749109396634e-09, -1.2160054420428675e-09).transl(4.331961669751337e-08, -3.744509153039214e-08, 0))
hIsland = hIsland.sub(rect(8.855961411720689e-09, -4.04979291525489e-10).transl(-5.820928020558067e-08, -3.3181198125721204e-08, 0))
hIsland = hIsland.add(rect(8.773158224617085e-09, 4.852513585530038e-09).transl(3.3698193325808656e-08, -3.903767856347462e-08, 0))
hIsland = hIsland.sub(rect(9.22843582806016e-09, -2.3577967812057253e-09).transl(-5.1854902182366556e-08, -3.5302246974189394e-08, 0))
hIsland = hIsland.sub(rect(5.383619865330263e-09, -1.4550310072912108e-09).transl(8.129681896356313e-09, -4e-08, 0))
hIsland = hIsland.sub(rect(2.297474295417871e-09, -2.7736570406252523e-09).transl(-3.908407917276106e-08, -3.824652653250311e-08, 0))
hIsland = hIsland.sub(rect(5.64690871905126e-09, -4.915567052058694e-09).transl(-4.9787675388645e-08, -3.589053871932854e-08, 0))
hIsland = hIsland.add(rect(8.043650015833115e-09, 1.395768857840986e-10).transl(-4.461842198484153e-08, -3.7166042226264513e-08, 0))
hIsland = hIsland.sub(rect(6.37074023267957e-09, -2.1750270774495076e-09).transl(1.2151771188106898e-08, -4e-08, 0))
hIsland = hIsland.add(rect(2.4488064781007122e-09, 1.0381821028200714e-09).transl(-7.810541674328417e-08, -2.20222872386369e-08, 0))
hIsland = hIsland.add(rect(2.4312780693350185e-09, 3.357368691027022e-09).transl(8.766575071570671e-08, -1.0102609020327167e-08, 0))
hIsland = hIsland.add(rect(8.789779560417435e-09, 3.1770807603294793e-10).transl(8.774674967019657e-08, -9.92861730024546e-09, 0))
hIsland = hIsland.add(rect(6.294671984057547e-09, 1.0875613634088595e-09).transl(-2.4438842800957644e-09, -4e-08, 0))
hIsland = hIsland.sub(rect(5.571674935410112e-09, -1.082648651355111e-09).transl(8.993951934450511e-08, -1.6391766679143652e-09, 0))
hIsland = hIsland.sub(rect(9.538092417573365e-09, -2.280369249571875e-09).transl(8.507441224105035e-09, -4e-08, 0))
hIsland = hIsland.add(rect(8.348064368444015e-09, 4.620988524306832e-09).transl(-4.3920290553638316e-08, -3.731802983968649e-08, 0))
hIsland = hIsland.sub(rect(9.578259732448861e-09, -5.893966545447727e-10).transl(5.390059071716879e-08, -3.467284304914434e-08, 0))
hIsland = hIsland.add(rect(4.051610246956516e-09, 2.301051873748807e-09).transl(-2.5739548591416528e-08, -3.976823049454183e-08, 0))
hIsland = hIsland.add(rect(8.82353928853193e-09, 1.3866202276693083e-09).transl(-7.86624588234976e-08, -2.1545717181244033e-08, 0))
hIsland = hIsland.add(rect(4.285629658963418e-09, 3.4699314998390165e-09).transl(3.462151431406252e-08, -3.891953261676233e-08, 0))
hIsland = hIsland.sub(rect(7.691860235697857e-09, -2.804913916511858e-10).transl(6.837726072765214e-08, -2.8578090986588013e-08, 0))
hIsland = hIsland.add(rect(5.664767899213909e-09, 1.5680880221402562e-09).transl(5.3660425647830596e-08, -3.474925189094158e-08, 0))
hIsland = hIsland.add(rect(2.9604271682341595e-09, 9.890735530828987e-10).transl(2.9616056642069407e-08, -3.947599375244761e-08, 0))
hIsland = hIsland.sub(rect(2.2335736532341076e-09, -1.7802776120304555e-09).transl(7.055477715258867e-08, -2.7340984692645977e-08, 0))
hIsland = hIsland.sub(rect(3.5441305570368987e-09, -3.899571850941253e-10).transl(2.6195585511493983e-08, -3.974002079148101e-08, 0))
hIsland = hIsland.add(rect(5.376242066379254e-09, 1.428512786313975e-09).transl(5.03648965775103e-08, -3.5730962597243816e-08, 0))
hIsland = hIsland.add(rect(4.105617990538657e-09, 8.898641663656282e-10).transl(-2.4458338883740194e-08, -3.9838756251281276e-08, 0))
hIsland = hIsland.sub(rect(8.446811529754973e-09, -1.8000045346405779e-09).transl(-4.890629999246365e-08, -3.612734942924359e-08, 0))
hIsland = hIsland.add(rect(3.3878218817709913e-09, 1.9662520559486338e-10).transl(8.330178112560843e-08, -1.6847879503740858e-08, 0))
hIsland = hIsland.sub(rect(5.652747167165231e-09, -1.329891340687953e-10).transl(7.326422518420884e-08, -2.5639147192565806e-08, 0))
hIsland = hIsland.add(rect(4.417616053459744e-09, 3.401761620282309e-09).transl(-1.8139594204016712e-09, -4e-08, 0))
hIsland = hIsland.add(rect(4.646483155066543e-09, 1.5280763068428682e-09).transl(-5.068628624252117e-08, -3.564055244957775e-08, 0))
hIsland = hIsland.add(rect(2.8905112397704925e-09, 7.332179238926159e-10).transl(6.848015971446807e-08, -2.8521994302869144e-08, 0))
hIsland = hIsland.add(rect(7.960771804937854e-09, 2.1197305800684275e-09).transl(-1.4535968377436804e-09, -4e-08, 0))
hIsland = hIsland.sub(rect(4.125129484761824e-09, -2.426402352390434e-09).transl(7.653719147739454e-08, -2.3289623172391396e-08, 0))
hIsland = hIsland.add(rect(9.918177382581345e-09, 1.2308630590149034e-09).transl(3.1867970818019106e-08, -3.9251009994831645e-08, 0))
hIsland = hIsland.sub(rect(5.578570968110392e-09, -1.2610494835284464e-10).transl(3.000216291995908e-08, -3.944032875728007e-08, 0))
hIsland = hIsland.sub(rect(5.145743332179119e-09, -3.7206675864432954e-10).transl(7.531947519834228e-08, -2.4206402600298206e-08, 0))
hIsland = hIsland.add(rect(3.925452340355268e-09, 1.867059546613755e-09).transl(-3.014601586574667e-08, -3.9426734281547155e-08, 0))
hIsland = hIsland.add(rect(3.635093351945951e-09, 2.171449090653293e-09).transl(3.2448093871329366e-08, -3.918637244025419e-08, 0))
hIsland = hIsland.add(rect(4.3705936723710734e-09, 3.4276790426881155e-09).transl(-1.4136459198608579e-08, -4e-08, 0))
hIsland = hIsland.add(rect(2.269209682081594e-09, 1.6569149425044375e-09).transl(-1.3809726284253538e-08, -4e-08, 0))
hIsland = hIsland.add(rect(2.8364144286288698e-09, 3.5981833080866445e-09).transl(6.327938173190232e-08, -3.11000852980881e-08, 0))
hIsland = hIsland.sub(rect(7.587346814035227e-09, -1.8089550067442554e-09).transl(5.32683089717878e-08, -3.487254740378412e-08, 0))
hIsland = hIsland.sub(rect(4.335490124984438e-09, -1.4053315525095851e-09).transl(-2.1452858906700332e-08, -3.995397724825194e-08, 0))
hIsland = hIsland.add(rect(5.32229460748102e-09, 3.0834684278851644e-09).transl(6.245634416153007e-08, -3.146442957262595e-08, 0))
hIsland = hIsland.add(rect(9.559570287966858e-09, 9.99204362413632e-10).transl(5.137117554818992e-08, -3.544411634527651e-08, 0))
hIsland = hIsland.sub(rect(8.197557121355088e-09, -1.336883155759258e-09).transl(-5.725786661745045e-08, -3.3530987642750594e-08, 0))
hIsland = hIsland.add(rect(5.448967020125971e-09, 6.184308981859058e-09).transl(8.139129954483022e-08, -1.8966695486029082e-08, 0))
hIsland = hIsland.add(rect(4.046130801919651e-09, 1.4085374976239758e-09).transl(4.775719056500231e-08, -3.6423900076930805e-08, 0))
hIsland = hIsland.add(rect(6.337326569313003e-09, 1.7540509528714076e-09).transl(3.07053900664407e-08, -3.937228557470872e-08, 0))
hIsland = hIsland.sub(rect(6.665923709567524e-09, -4.154466882948104e-10).transl(-1.441340188755062e-08, -4e-08, 0))
hIsland = hIsland.sub(rect(7.404495139800609e-09, -8.333444454049652e-11).transl(4.516009319445503e-08, -3.704488992628777e-08, 0))
hIsland = hIsland.add(rect(4.8908907882909215e-09, 2.8016718430270127e-10).transl(5.005178712898726e-08, -3.5817968031431434e-08, 0))
hIsland = hIsland.sub(rect(6.291398797519153e-09, -1.8689241773761295e-09).transl(1.0470014022659083e-08, -4e-08, 0))
hIsland = hIsland.add(rect(2.7524618962210134e-09, 1.0909729380651247e-10).transl(-5.634643877647887e-08, -3.3854949458353994e-08, 0))
hIsland = hIsland.sub(rect(9.20771672938136e-09, -1.0531544154838506e-09).transl(2.8981151910855297e-08, -3.953204007124685e-08, 0))
hIsland = hIsland.add(rect(5.619266191859336e-09, 1.2559382757371538e-09).transl(-4.2588350100904537e-08, -3.75952003081303e-08, 0))
hIsland = hIsland.add(rect(2.6332325502132757e-09, 2.006555641050081e-09).transl(-7.261648878523486e-08, -2.6064018720130395e-08, 0))
hIsland = hIsland.sub(rect(9.691525603860215e-09, -9.342142301787978e-10).transl(8.879159615930375e-08, -7.2976808682590825e-09, 0))
hIsland = hIsland.sub(rect(3.1847517176438037e-09, -1.374045419002321e-09).transl(5.5403409749285145e-08, -3.4179017366297155e-08, 0))
hIsland = hIsland.add(rect(9.828117638374328e-09, 1.3022812994731018e-09).transl(1.47435542092662e-08, -4e-08, 0))
hIsland = hIsland.sub(rect(3.241817953667737e-09, -5.2465516340820175e-09).transl(7.667794439759759e-08, -2.3180044374048427e-08, 0))
hIsland = hIsland.sub(rect(2.4383259251902695e-09, -1.9750348293446986e-09).transl(-6.499115964262759e-08, -3.030620946153217e-08, 0))
hIsland = hIsland.add(rect(5.161282367063884e-09, 2.642339152621411e-09).transl(-7.997487367658642e-08, -2.036029657891116e-08, 0))
hIsland = hIsland.sub(rect(6.079554237843674e-09, -1.9913295981416307e-09).transl(1.3050727510104381e-08, -4e-08, 0))
hIsland = hIsland.add(rect(5.354081879407715e-09, 9.688518083372022e-10).transl(-7.760899900044383e-08, -2.2434866205437712e-08, 0))
hIsland = hIsland.sub(rect(6.922383497083496e-09, -3.5139290194720357e-09).transl(-1.2834696347826554e-08, -4e-08, 0))
hIsland = hIsland.sub(rect(2.5719474176394342e-09, -2.0351131353264402e-09).transl(-6.68637359960121e-08, -2.9377992647726744e-08, 0))
hIsland = hIsland.sub(rect(8.975919293704014e-09, -2.0265818304915756e-09).transl(7.495018178990837e-08, -2.4473951850192736e-08, 0))
hIsland = hIsland.sub(rect(2.564164794514901e-09, -2.82489995614754e-09).transl(-1.2656209795812727e-08, -4e-08, 0))
hIsland = hIsland.add(rect(4.560045998096054e-09, 3.7191652670106707e-10).transl(7.200872834722105e-08, -2.645201375281356e-08, 0))
hIsland = hIsland.add(rect(4.995878045158218e-09, 2.0114129118695383e-09).transl(6.30221873216283e-08, -3.121511706806344e-08, 0))
hIsland = hIsland.add(rect(7.954056859934157e-09, 3.649536340935544e-09).transl(2.3608903587826203e-08, -3.987844261443286e-08, 0))
hIsland = hIsland.add(rect(5.21128228902887e-09, 2.784267930014526e-10).transl(-5.729122210271895e-08, -3.351892714661564e-08, 0))
hIsland = hIsland.sub(rect(5.393876012762896e-09, -3.4217594474805636e-09).transl(4.0778184118326084e-08, -3.794551945879011e-08, 0))
hIsland = hIsland.add(rect(7.492055463958414e-09, 1.1631167507624912e-09).transl(-1.4193498424050773e-08, -4e-08, 0))
hIsland = hIsland.sub(rect(2.6301870655180955e-09, -4.744575096833554e-10).transl(4.3416411730880965e-08, -3.742484656411613e-08, 0))
hIsland = hIsland.sub(rect(6.178448161054664e-09, -2.6491207466334583e-09).transl(-6.460120938158406e-08, -3.0491484766464014e-08, 0))
hIsland = hIsland.sub(rect(6.493878611783498e-09, -5.27508168677445e-09).transl(-1.4047414508857623e-08, -4e-08, 0))
hIsland = hIsland.add(rect(2.102921521235616e-09, 2.0173040022761348e-09).transl(-1.6959766041436573e-08, -4e-08, 0))
hIsland = hIsland.sub(rect(7.81033865374116e-09, -2.5661246971511603e-09).transl(5.5870890035879584e-08, -3.401976408081478e-08, 0))
hIsland = hIsland.sub(rect(4.9110275102988864e-09, -2.381729479819363e-09).transl(-5.467521898946732e-08, -3.442171432841456e-08, 0))
hIsland = hIsland.sub(rect(3.870428224314049e-09, -3.497466686114003e-10).transl(5.246133503306637e-08, -3.5120675506993264e-08, 0))
hIsland = hIsland.sub(rect(7.1940377406614975e-09, -1.1368114479796475e-09).transl(1.8082353661691947e-08, -3.999997383438344e-08, 0))
hIsland = hIsland.add(rect(2.075030946326458e-09, 1.285817778975307e-09).transl(-7.948032835350479e-08, -2.0817914483441613e-08, 0))
hIsland = hIsland.sub(rect(6.157448428342131e-09, -2.116888944162004e-09).transl(-8.403116168406227e-09, -4e-08, 0))
hIsland = hIsland.sub(rect(2.7268773200351958e-09, -4.817768929146378e-10).transl(-7.159978798355645e-08, -2.6707507661113876e-08, 0))
hIsland = hIsland.sub(rect(8.895747171761845e-09, -6.776385801436398e-10).transl(6.324102360604726e-08, -3.1117309814402614e-08, 0))
hIsland = hIsland.add(rect(6.935405192782435e-09, 7.994775089211254e-10).transl(1.546647556157439e-08, -4e-08, 0))
hIsland = hIsland.add(rect(2.2908541139126922e-09, 4.663162091262633e-10).transl(-3.352805545222988e-08, -3.90586749737031e-08, 0))
hIsland = hIsland.sub(rect(3.734885471155446e-09, -2.634987037463143e-10).transl(-4.6037664149190206e-08, -3.6842546983447486e-08, 0))
hIsland = hIsland.sub(rect(4.39526403918697e-09, -1.1904156341595166e-10).transl(-4.637780636356783e-09, -4e-08, 0))
hIsland = hIsland.sub(rect(2.98841361101107e-09, -3.1488938814594243e-09).transl(-7.023009092342107e-08, -2.753234686899317e-08, 0))
hIsland = hIsland.sub(rect(6.599659521376429e-09, -1.555346631442648e-09).transl(9.327371320693262e-09, -4e-08, 0))
hIsland = hIsland.add(rect(2.772017614419926e-09, 1.0509063844103697e-09).transl(-3.3942464063549933e-09, -4e-08, 0))
hIsland = hIsland.add(rect(6.9235503542090526e-09, 3.3711389606854237e-10).transl(-2.7155497890541255e-09, -4e-08, 0))
hIsland = hIsland.sub(rect(7.473857516110786e-09, -1.7631324231257444e-09).transl(-3.8701839674676655e-08, -3.8310918704740423e-08, 0))
hIsland = hIsland.add(rect(9.832549671832702e-09, 3.802871241263961e-10).transl(-4.022946022623931e-09, -4e-08, 0))
hIsland = hIsland.add(rect(9.656980652297411e-09, 3.1383914119674894e-09).transl(2.7794820190129648e-08, -3.96281383749308e-08, 0))
hIsland = hIsland.add(rect(9.57955438024056e-09, 1.7449928206535324e-09).transl(-1.2932301539743747e-08, -4e-08, 0))
hIsland = hIsland.add(rect(3.576061192170003e-09, 2.5671790339498795e-09).transl(-7.513967399731662e-08, -2.4337250163455933e-08, 0))
hIsland = hIsland.add(rect(4.653697831978774e-09, 2.9232504733404916e-09).transl(8.587054151439537e-08, -1.3351718742446144e-08, 0))
hIsland = hIsland.add(rect(7.426352656875054e-09, 3.3468637148513117e-09).transl(6.196047128488124e-08, -3.16787353435455e-08, 0))
hIsland = hIsland.sub(rect(4.381438246896685e-09, -2.4139340312734443e-09).transl(7.212144846608652e-08, -2.6380810552584246e-08, 0))
hIsland = hIsland.sub(rect(3.828114319555001e-09, -3.4564446299218274e-10).transl(-2.559912855935097e-08, -3.977658768059258e-08, 0))
hIsland = hIsland.add(rect(3.0943659794616202e-09, 6.757028181875457e-10).transl(2.905728675123131e-08, -3.9525489547655245e-08, 0))
hIsland = hIsland.sub(rect(4.078708537935999e-09, -1.8800621655742696e-09).transl(-1.843511643254086e-08, -3.999926956775267e-08, 0))
hIsland = hIsland.sub(rect(3.332461751470515e-09, -8.540830285373339e-10).transl(-5.1150397825460145e-08, -3.550800259311111e-08, 0))
hIsland = hIsland.sub(rect(8.913075480713026e-09, -3.5550184138130765e-09).transl(-3.241835879270949e-09, -4e-08, 0))
hIsland = hIsland.sub(rect(4.667224480164075e-09, -1.9588508441904198e-09).transl(-7.434935112658824e-08, -2.4899493199838162e-08, 0))
hIsland = hIsland.add(rect(6.445906978338781e-09, 7.42608718104445e-10).transl(-7.849783262225113e-08, -2.168811081261799e-08, 0))
hIsland = hIsland.sub(rect(8.006548582947576e-09, -4.189203524469745e-10).transl(-2.9248933940367013e-08, -3.950879525929802e-08, 0))
hIsland = hIsland.sub(rect(8.174993339817632e-09, -5.574630521301945e-09).transl(-1.2864393124453212e-08, -4e-08, 0))
hIsland = hIsland.sub(rect(5.976457100270961e-09, -1.4281707148340273e-09).transl(-8.268824702619485e-08, -1.7563207691272925e-08, 0))
hIsland = hIsland.sub(rect(5.1402491782219095e-09, -1.0250386513919812e-09).transl(-7.562341649313463e-08, -2.398264464856029e-08, 0))
hIsland = hIsland.sub(rect(7.087394076704205e-09, -1.590862762106139e-11).transl(-1.0604076951212485e-08, -4e-08, 0))
hIsland = hIsland.add(rect(2.376000645188995e-09, 2.4241112785424992e-09).transl(2.7918520637470067e-08, -3.961864097187143e-08, 0))
hIsland = hIsland.sub(rect(4.656786697955628e-09, -5.562771651368312e-10).transl(-1.657131329854459e-08, -4e-08, 0))
hIsland = hIsland.sub(rect(6.60401989103004e-09, -1.4184998530925367e-09).transl(-3.1591280618089475e-08, -3.9280870109137996e-08, 0))
hIsland = hIsland.sub(rect(9.347459378728096e-09, -3.487209385768337e-09).transl(4.897894340688859e-08, -3.610814118296778e-08, 0))
hIsland = hIsland.add(rect(4.035204408184253e-09, 1.6403445728444566e-09).transl(-1.5755648605323565e-08, -4e-08, 0))
hIsland = hIsland.add(rect(8.888368170915279e-09, 3.2643777032828713e-09).transl(9.639578922701474e-09, -4e-08, 0))
hIsland = hIsland.add(rect(9.261609557822031e-09, 5.256853461257459e-09).transl(-3.370843027278853e-08, -3.903640758035123e-08, 0))
hIsland = hIsland.add(rect(4.58655878275836e-09, 2.04887243151523e-11).transl(6.74721790401771e-08, -2.906200003428527e-08, 0))
hIsland = hIsland.sub(rect(8.92029835731427e-09, -1.2111288145711781e-09).transl(8.469327388026455e-08, -1.5071918323635124e-08, 0))
hIsland = hIsland.add(rect(8.093707901447027e-09, 1.9100723951791233e-09).transl(-1.4360801191475052e-08, -4e-08, 0))
hIsland = hIsland.add(rect(8.480658197411643e-09, 3.397204363668994e-09).transl(-6.39708463832868e-08, -3.0785404604584586e-08, 0))
hIsland = hIsland.add(rect(4.0423680117413504e-09, 1.6707698511147441e-09).transl(-4.053167202061351e-09, -4e-08, 0))
hIsland = hIsland.sub(rect(6.331075331159779e-09, -7.914672881553955e-10).transl(-8.357322841128723e-08, -1.6519271533960015e-08, 0))
hIsland = hIsland.sub(rect(3.926360326049509e-09, -1.1314674854057512e-09).transl(-1.6229919813958591e-10, -4e-08, 0))
hIsland = hIsland.sub(rect(2.5467637358071163e-09, -1.3703077234270279e-09).transl(6.98293027429768e-08, -2.776512699244212e-08, 0))
hIsland = hIsland.sub(rect(9.874708527356681e-09, -1.0411949145208592e-09).transl(3.9809860638778944e-10, -4e-08, 0))
hIsland = hIsland.add(rect(2.830303989974361e-09, 3.9536822400904694e-10).transl(-6.692256077928908e-08, -2.9347760797480996e-08, 0))
hIsland = hIsland.add(rect(2.1706165317175973e-09, 2.9433342496801857e-10).transl(7.948798820662184e-08, -2.0810930964860208e-08, 0))
hIsland = hIsland.add(rect(8.271564684156282e-09, 2.135253039652208e-09).transl(8.679035193717335e-08, -1.1809802900789836e-08, 0))
hIsland = hIsland.add(rect(5.1425550070887606e-09, 3.785298539147487e-10).transl(3.950785882597859e-08, -3.8173628706449065e-08, 0))
hIsland = hIsland.sub(rect(6.7640975470361844e-09, -2.634464207593934e-09).transl(1.9620974331939823e-08, -3.998986153233166e-08, 0))
hIsland = hIsland.add(rect(5.11860012292967e-09, 1.3156821284461502e-09).transl(-8.351444242379536e-08, -1.659110495262859e-08, 0))
hIsland = hIsland.add(rect(7.448613728249992e-09, 2.510714304921476e-10).transl(-3.6158230391468955e-08, -3.870702981519378e-08, 0))
hIsland = hIsland.sub(rect(8.286247331664499e-09, -6.828225563325247e-10).transl(3.7346037021471886e-08, -3.85290128439541e-08, 0))
hIsland = hIsland.sub(rect(2.003344354628343e-09, -1.292799780865148e-09).transl(2.0504121420949896e-08, -3.9975800457203843e-08, 0))
hIsland = hIsland.sub(rect(9.09440652857068e-09, -1.1218791393956858e-09).transl(8.910253922781022e-09, -4e-08, 0))
hIsland = hIsland.add(rect(6.429015298690759e-09, 1.2608762020241493e-09).transl(3.1181056776554735e-08, -3.932399348563683e-08, 0))
hIsland = hIsland.sub(rect(6.091426164559143e-09, -9.953280344574096e-10).transl(-3.078261768011276e-08, -3.936456969531805e-08, 0))
hIsland = hIsland.add(rect(3.1010555849694284e-09, 1.4894132421276294e-09).transl(-7.325025292859993e-08, -2.5648439603860535e-08, 0))
hIsland = hIsland.sub(rect(4.102217002906382e-09, -5.313695283819427e-09).transl(3.4535980879201266e-08, -3.893077639515073e-08, 0))
hIsland = hIsland.add(rect(4.367003174406706e-09, 1.7326784905495531e-09).transl(-1.1625796316231058e-08, -4e-08, 0))
hIsland = hIsland.sub(rect(2.046222138194912e-09, -1.4123784527253744e-09).transl(-2.4182572046216084e-08, -3.98522572547706e-08, 0))
hIsland = hIsland.add(rect(8.921210676835196e-09, 3.4630816721895407e-09).transl(2.6250328248181513e-08, -3.9736524557238803e-08, 0))
hIsland = hIsland.add(rect(9.886758443458926e-09, 1.2322772960690311e-09).transl(5.876922089534283e-08, -3.296963917424422e-08, 0))
hIsland = hIsland.add(rect(5.016169369725149e-09, 8.895329736274827e-10).transl(1.9287326531374933e-08, -3.9993605933399593e-08, 0))
hIsland = hIsland.sub(rect(3.32335462255411e-09, -1.9301963510088186e-09).transl(-5.301887616267718e-09, -4e-08, 0))
hIsland = hIsland.sub(rect(6.892362160283728e-09, -3.308531922374536e-09).transl(1.3390119402797516e-08, -4e-08, 0))
hIsland = hIsland.add(rect(7.340356939035264e-09, 3.6151747245470556e-09).transl(1.8004758957895032e-08, -3.999999991262469e-08, 0))
hIsland = hIsland.add(rect(4.8233844622861795e-09, 3.8300090115502336e-10).transl(1.5816238124275235e-08, -4e-08, 0))
hIsland = hIsland.sub(rect(3.2281118496614694e-09, -2.4239525184326885e-09).transl(-4.063332693769571e-08, -3.797226291037151e-08, 0))
hIsland = hIsland.add(rect(4.488683593505862e-09, 1.5231548263569754e-10).transl(6.921634274295719e-08, -2.8113999829815126e-08, 0))
hIsland = hIsland.add(rect(9.415881592833683e-09, 2.5673449556606445e-09).transl(8.641792530506486e-08, -1.2459657082535312e-08, 0))
hIsland = hIsland.sub(rect(4.8552750349056995e-09, -4.3705433437320956e-10).transl(-3.9814446762952154e-08, -3.811989659195005e-08, 0))
hIsland = hIsland.add(rect(7.0163176386435366e-09, 2.2785161943323906e-09).transl(3.9477936464297944e-08, -3.817882810139891e-08, 0))
hIsland = hIsland.add(rect(7.490344178633677e-09, 2.8255438728736377e-09).transl(4.959771320799025e-08, -3.5942274191847893e-08, 0))
hIsland = hIsland.add(rect(9.85718095097991e-09, 2.1483233518860526e-09).transl(-2.5563168429506005e-09, -4e-08, 0))
hIsland = hIsland.add(rect(4.530149671208123e-09, 1.70179730063656e-10).transl(-2.8111243459266784e-08, -3.960360204541287e-08, 0))
hIsland = hIsland.add(rect(9.36656496842938e-09, 3.868947951301092e-09).transl(4.607599191184422e-08, -3.6833537280171327e-08, 0))
hIsland = hIsland.add(rect(6.218640996966966e-09, 9.495660790982509e-12).transl(3.430504981537986e-08, -3.89608277098791e-08, 0))
hIsland = hIsland.add(rect(6.55457752567012e-09, 1.0452476957913365e-09).transl(1.7387648119029123e-08, -4e-08, 0))
hIsland = hIsland.add(rect(8.11610605333716e-09, 3.0285821519986087e-09).transl(-7.696943193678348e-08, -2.295060515254944e-08, 0))
hIsland = hIsland.add(rect(4.7520172116001566e-09, 4.1184446020481794e-10).transl(-6.433394331985283e-08, -3.06169368142312e-08, 0))
hIsland = hIsland.sub(rect(4.846033892696335e-09, -3.07867111889366e-09).transl(-8.825989001547583e-08, -8.74091865622283e-09, 0))
hIsland = hIsland.sub(rect(9.176383116788188e-09, -1.289988589964104e-09).transl(2.3937064487457394e-08, -3.986377755414493e-08, 0))
hIsland = hIsland.add(rect(5.5267564540842975e-09, 1.1767306172832392e-09).transl(-6.826147035462792e-08, -2.864094775329642e-08, 0))
hIsland = hIsland.add(rect(8.600018785454329e-09, 1.2555617994321245e-09).transl(2.1684954219100084e-08, -3.994757796549886e-08, 0))
hIsland = hIsland.add(rect(4.552033991782007e-09, 1.1384365869490154e-09).transl(4.63824024715551e-08, -3.676098655774016e-08, 0))
hIsland = hIsland.add(rect(3.4438794438174984e-09, 1.5243502966514198e-09).transl(-3.741614158668909e-09, -4e-08, 0))
hIsland = hIsland.sub(rect(3.439990872442141e-09, -1.3027057154008575e-09).transl(1.0145880012608752e-09, -4e-08, 0))
hIsland = hIsland.sub(rect(7.499364202443836e-09, -1.5479359405911269e-09).transl(2.1377353872725644e-08, -3.99559691333897e-08, 0))
hIsland = hIsland.add(rect(9.025642961298596e-09, 4.425907762050142e-09).transl(3.368211807283226e-08, -3.9039672654520866e-08, 0))
hIsland = hIsland.sub(rect(6.563921402018438e-09, -1.563610719895552e-09).transl(5.260601648790071e-08, -3.507673960575735e-08, 0))
hIsland = hIsland.add(rect(3.790238881489534e-09, 3.9913407233451863e-10).transl(5.0058178501148626e-08, -3.5816202585572484e-08, 0))
hIsland = hIsland.sub(rect(3.2473900723215217e-09, -1.2979657397815295e-09).transl(1.9274131840561235e-08, -3.9993736346206733e-08, 0))
hIsland = hIsland.sub(rect(3.1816005835491313e-09, -2.9341275116248408e-09).transl(-3.431565048165527e-08, -3.895945799272062e-08, 0))
hIsland = hIsland.add(rect(4.62620378090403e-09, 2.462940530969251e-10).transl(-6.389121359528997e-08, -3.0822052564779175e-08, 0))
hIsland = hIsland.add(rect(2.9635485693609747e-09, 1.233467604478342e-09).transl(-1.15366294334496e-08, -4e-08, 0))
hIsland = hIsland.sub(rect(7.3679486749665215e-09, -2.0936764369921844e-09).transl(1.2063409321649851e-08, -4e-08, 0))
hIsland = hIsland.add(rect(8.756591119771209e-09, 3.7330777658879516e-10).transl(-7.195787095294439e-08, -2.6484028276930834e-08, 0))
hIsland = hIsland.add(rect(7.302649074012612e-09, 5.505622803725324e-10).transl(1.5979699225995585e-08, -4e-08, 0))
hIsland = hIsland.add(rect(4.817175408264113e-09, 2.4913606474323377e-09).transl(7.908708809451397e-08, -2.1172189919018846e-08, 0))
hIsland = hIsland.sub(rect(7.558612680330784e-09, -4.1858021051692525e-10).transl(-5.910093360793991e-08, -3.2842277671328664e-08, 0))
hIsland = hIsland.add(rect(6.042254532049157e-09, 8.233557408860555e-10).transl(7.968418133411221e-08, -2.063095610326096e-08, 0))
hIsland = hIsland.add(rect(4.7478203200012036e-09, 1.3929977074354144e-09).transl(-2.3970182149204583e-08, -3.986225095197751e-08, 0))
hIsland = hIsland.sub(rect(4.844102337303255e-09, -1.6272487667224984e-10).transl(6.475738869404612e-08, -3.041760070871233e-08, 0))
hIsland = hIsland.sub(rect(9.530841495383035e-09, -1.0239360821365138e-09).transl(-2.6054415348226494e-08, -3.974892805992435e-08, 0))
hIsland = hIsland.add(rect(6.5227662802476705e-09, 1.667744479986775e-10).transl(3.7097335963932416e-08, -3.856728831680191e-08, 0))
hIsland = hIsland.sub(rect(3.2419422014663893e-09, -1.3565980907798128e-09).transl(-3.2922184630500026e-08, -3.913149881281611e-08, 0))
hIsland = hIsland.sub(rect(8.059852429143856e-09, -1.7876148977956291e-09).transl(-7.682936272854473e-08, -2.306128497052502e-08, 0))
hIsland = hIsland.sub(rect(9.309943601070136e-09, -1.8623644051427164e-09).transl(-8.997824623996916e-08, -9.832027876883657e-10, 0))
hIsland = hIsland.sub(rect(8.767869734889864e-09, -5.053447503213434e-10).transl(6.771924901187665e-08, -2.8931572514771303e-08, 0))
hIsland = hIsland.sub(rect(7.98621609517499e-09, -3.6287881715321744e-09).transl(-8.003274219688479e-08, -2.0305832157523504e-08, 0))
hIsland = hIsland.sub(rect(5.7703030184601e-09, -3.0178410993667965e-09).transl(-3.6831516235130986e-08, -3.860760973846867e-08, 0))
hIsland = hIsland.add(rect(4.923684581168548e-09, 4.971641770597332e-10).transl(-1.068159238202273e-08, 4e-08, 0))
hIsland = hIsland.sub(rect(7.845257606140366e-09, -5.921057133281645e-09).transl(8.464436070196872e-08, 1.513854929920743e-08, 0))
hIsland = hIsland.sub(rect(4.885991139552782e-09, -3.6857166900020923e-09).transl(4.739778886975671e-08, 3.6513865156026306e-08, 0))
[...]
hIsland = hIsland.add(rect(6.54396410572496e-09, 7.913616451496155e-10).transl(9.740335114922893e-09, 4e-08, 0))
hIsland = hIsland.sub(rect(7.169328191538036e-09, -1.4568825312622358e-09).transl(1.6382979918545052e-08, 4e-08, 0))
hIsland = hIsland.sub(rect(5.546687049320679e-09, -2.3212282326256533e-09).transl(3.024869264481806e-09, 4e-08, 0))
hIsland = hIsland.add(rect(5.3150931131770896e-09, 3.174767632749572e-09).transl(3.832062141605675e-08, 3.837386080371789e-08, 0))
hIsland = hIsland.add(rect(4.690258701141199e-09, 2.7571918559252108e-09).transl(-4.2927351434251234e-08, 3.752623424111364e-08, 0))
hIsland = hIsland.add(rect(2.092512870650244e-09, 1.565986861347477e-09).transl(5.26582841480942e-08, 3.5060808463235235e-08, 0))
hIsland = hIsland.sub(rect(3.690131111061736e-09, -2.5108000813893834e-09).transl(6.1359953837756245e-09, 4e-08, 0))
hIsland = hIsland.add(rect(9.727492599500126e-09, 1.7297068040113686e-09).transl(-4.646468401008134e-08, 3.674134551746872e-08, 0))
hIsland = hIsland.sub(rect(7.975524416477347e-09, -2.6279413368635426e-10).transl(-6.60588003618062e-08, 2.9784989320499005e-08, 0))
hIsland = hIsland.sub(rect(6.1693892609843924e-09, -2.3814083608122075e-09).transl(-7.930237968886208e-08, 2.0979253747530415e-08, 0))
hIsland = hIsland.add(rect(4.1415197470292825e-09, 4.061861110779569e-09).transl(2.3721489384234492e-08, 3.987350585159201e-08, 0))
hIsland = hIsland.sub(rect(7.939530426142781e-09, -5.829927618797623e-10).transl(-4.970709966609658e-08, 3.5912530185298054e-08, 0))
hIsland = hIsland.sub(rect(4.002583346501595e-09, -3.1514462179360226e-10).transl(3.169001366627554e-08, 3.927028659435574e-08, 0))
hIsland = hIsland.add(rect(5.700535991679773e-09, 5.382137725898066e-10).transl(4.922794285641243e-08, 3.6041880581495954e-08, 0))
hIsland = hIsland.add(rect(5.1645527766400795e-09, 6.463722271441193e-10).transl(-8.795024100801905e-08, 9.47647807488202e-09, 0))
hIsland = hIsland.add(rect(5.236072894863848e-09, 4.097041632377968e-09).transl(2.6349101458530502e-08, 3.973015656901577e-08, 0))
hIsland = hIsland.add(rect(4.2670307931770406e-09, 1.2099739835144865e-10).transl(-3.311307562367689e-08, 3.9108881506812444e-08, 0))
hIsland = hIsland.add(rect(5.367879237895143e-09, 2.4811525760739884e-09).transl(1.3517120654192688e-08, 4e-08, 0))
hIsland = hIsland.add(rect(3.731503850156005e-09, 1.4920185882017967e-09).transl(-3.5343553420897595e-08, 3.8822169571358404e-08, 0))
hIsland = hIsland.sub(rect(6.846973949878906e-09, -1.1846162120652957e-09).transl(2.2045823889904876e-08, 3.9936799256982955e-08, 0))
hIsland = hIsland.add(rect(2.7584718299644788e-09, 2.720345510126765e-09).transl(-3.697690687967002e-08, 3.8585631102207704e-08, 0))
hIsland = hIsland.sub(rect(4.286161178320025e-09, -4.139211000438046e-09).transl(2.3943137272514016e-08, 3.986349826131227e-08, 0))
hIsland = hIsland.add(rect(6.602317549894678e-09, 2.57983479586777e-09).transl(4.166189374231482e-08, 3.777824666591123e-08, 0))
hIsland = hIsland.add(rect(9.252465891146671e-09, 2.3223916532499095e-09).transl(5.364305146881868e-09, 4e-08, 0))
hIsland = hIsland.sub(rect(2.356445076112521e-09, -2.3521894427328963e-09).transl(3.016424258051785e-09, 4e-08, 0))
hIsland = hIsland.add(rect(7.4355977601977865e-09, 4.4261337757334387e-10).transl(-6.895195322189176e-08, 2.8261884110576867e-08, 0))
hIsland = hIsland.add(rect(5.8297459464230295e-09, 2.399932609787549e-09).transl(-1.6172440106456307e-08, 4e-08, 0))
hIsland = hIsland.sub(rect(9.784719358764874e-09, -2.208539103326584e-09).transl(-5.205818340627323e-08, 3.524184584377988e-08, 0))
hIsland = hIsland.sub(rect(3.330748077006523e-09, -9.027716096456726e-10).transl(-9.386776109083376e-09, 4e-08, 0))
hIsland = hIsland.add(rect(6.400164684269399e-09, 1.158325393496149e-09).transl(1.5559792370004745e-08, 4e-08, 0))
hIsland = hIsland.sub(rect(7.153096604546209e-09, -7.320535909235577e-10).transl(4.0845765354950045e-08, 3.79329777913534e-08, 0))
hIsland = hIsland.add(rect(8.330143716379124e-09, 1.0093048789953075e-09).transl(-5.6971355034274757e-08, 3.363398435111459e-08, 0))
hIsland = hIsland.sub(rect(8.614512671997183e-09, -2.076728558885191e-09).transl(-2.1522746043787784e-08, 3.995209423083243e-08, 0))
hIsland = hIsland.add(rect(9.07733004932852e-09, 1.008852381953153e-09).transl(5.905456841238044e-08, 3.286017145492817e-08, 0))
hIsland = hIsland.sub(rect(4.822812685375883e-09, -7.390223526814073e-11).transl(-7.096410355316342e-08, 2.7096100892624137e-08, 0))
hIsland = hIsland.add(rect(9.491948144358826e-09, 2.5715217235032394e-09).transl(5.570761552760755e-08, 3.407569520147198e-08, 0))
hIsland = hIsland.sub(rect(6.583776670233877e-09, -7.480272322646203e-10).transl(7.61611591831922e-08, 2.3578602211391125e-08, 0))
hIsland = hIsland.add(rect(9.737378488673296e-09, 2.157917302860453e-09).transl(-7.089705908690864e-08, 2.7136492786047178e-08, 0))
hIsland = hIsland.add(rect(3.98244197665346e-09, 1.0398175438399435e-09).transl(1.5159335557850084e-08, 4e-08, 0))
hIsland = hIsland.sub(rect(2.6306328609847188e-09, -5.399426188453763e-10).transl(2.0458705339047926e-08, 3.997667054259927e-08, 0))
hIsland = hIsland.sub(rect(2.0823313010022747e-09, -3.5048959257228753e-09).transl(1.1597236425792283e-08, 4e-08, 0))
hIsland = hIsland.sub(rect(2.3843629259631512e-09, -6.631580670703431e-10).transl(-6.931902883698924e-08, 2.8056145644114882e-08, 0))
hIsland = hIsland.add(rect(5.421713644752705e-09, 2.4844662973981764e-09).transl(3.089850972004763e-08, 3.935290021392935e-08, 0))
hIsland = hIsland.sub(rect(5.805014951976626e-09, -1.3940677980528185e-10).transl(3.086929540359849e-08, 3.935585213756323e-08, 0))
hIsland = hIsland.add(rect(7.433078425144968e-09, 1.3388668066732638e-09).transl(-5.892779060618967e-08, 3.290894638060368e-08, 0))
hIsland = hIsland.sub(rect(6.145759783243567e-09, -1.8616062604392745e-09).transl(-2.9782841828311747e-08, 3.946073465824231e-08, 0))
hIsland = hIsland.add(rect(2.5549251617854784e-09, 8.742706167375655e-10).transl(2.5076599920117036e-08, 3.980632795083211e-08, 0))
hIsland = hIsland.sub(rect(8.415764575650802e-09, -6.389610120186037e-09).transl(-1.6553565178560502e-08, 4e-08, 0))
hIsland = hIsland.sub(rect(8.949379618796692e-09, -2.6806046168138727e-09).transl(4.237706873309809e-09, 4e-08, 0))
hIsland = hIsland.sub(rect(7.153041329007119e-09, -1.8059689038038472e-10).transl(-3.54544299688229e-08, 3.880682959200028e-08, 0))
hIsland = hIsland.add(rect(3.931443755868297e-09, 2.0657999519804983e-09).transl(1.7722432914227896e-09, 4e-08, 0))
hIsland = hIsland.add(rect(4.285890794282974e-09, 5.162563514869261e-10).transl(-5.088332069700897e-08, 3.558456811084098e-08, 0))
hIsland = hIsland.sub(rect(2.2729884690872633e-09, -1.1778212139736817e-10).transl(5.515108465858413e-08, 3.426384963151701e-08, 0))
hIsland = hIsland.add(rect(7.199342968609569e-09, 2.699586221757083e-09).transl(-6.904018238430564e-08, 2.821270499073209e-08, 0))
hIsland = hIsland.sub(rect(9.607320124062288e-09, -6.784573383570264e-10).transl(4.75854658953813e-08, 3.646705010188942e-08, 0))
hIsland = hIsland.sub(rect(8.766536528278749e-09, -5.510105078489678e-10).transl(6.820997922753516e-08, 2.8668809060612452e-08, 0))
hIsland = hIsland.add(rect(8.612925633827452e-09, 4.433011163440804e-09).transl(3.587120299050096e-08, 3.874823812670135e-08, 0))
hIsland = hIsland.sub(rect(3.750080153575238e-09, -1.477221297641023e-09).transl(4.785646489421844e-09, 4e-08, 0))
hIsland = hIsland.add(rect(4.617752055035025e-09, 1.36865207841977e-09).transl(-8.116339404298401e-08, 1.9199936125237222e-08, 0))
hIsland = hIsland.sub(rect(5.442272810162145e-09, -4.2340530499772304e-10).transl(3.121523049906781e-08, 3.932045333238612e-08, 0))
hIsland = hIsland.add(rect(2.8074259124511763e-09, 2.7029165023727044e-09).transl(5.166195680303573e-08, 3.535914790827905e-08, 0))
hIsland = hIsland.add(rect(6.940977923569938e-09, 1.977496018597249e-09).transl(6.70890980700413e-08, 2.9261804891622655e-08, 0))
hIsland = hIsland.sub(rect(4.259010397807699e-09, -1.2379959446596713e-09).transl(6.283906872933526e-08, 3.129636272147977e-08, 0))
hIsland = hIsland.add(rect(4.471626801851075e-09, 2.9250902598731384e-10).transl(-8.498994522710786e-08, 1.4660217842236107e-08, 0))
hIsland = hIsland.add(rect(3.472219437457205e-09, 1.1678665469282703e-09).transl(4.587760698212627e-08, 3.688001495067997e-08, 0))
hIsland = hIsland.add(rect(5.394304064886538e-09, 2.825134592740949e-10).transl(7.861507462280294e-09, 4e-08, 0))
hIsland = hIsland.sub(rect(5.562133893406198e-09, -1.606444730575595e-09).transl(2.3756875723581855e-09, 4e-08, 0))
hIsland = hIsland.sub(rect(3.93803961396294e-09, -9.760393062766044e-10).transl(-8.039215613918981e-08, 1.996307434065564e-08, 0))
hIsland = hIsland.add(rect(7.167426833238817e-09, 1.2570329477234336e-09).transl(3.519014411335117e-08, 3.884322297120578e-08, 0))
hIsland = hIsland.add(rect(4.829652401827786e-09, 3.7892296234668075e-09).transl(6.795720256126012e-08, 2.8804780940261074e-08, 0))
hIsland = hIsland.add(rect(2.954776116523432e-09, 8.363166117390532e-11).transl(5.5233635880948705e-08, 3.423618203321448e-08, 0))
hIsland = hIsland.add(rect(4.7566255276221156e-09, 5.464545564802984e-09).transl(1.5560297175820753e-08, 4e-08, 0))
hIsland = hIsland.sub(rect(8.749521997517438e-09, -1.029970419010987e-09).transl(-1.6932900026725906e-08, 4e-08, 0))
hIsland = hIsland.sub(rect(4.434893952642584e-09, -1.8055166359580534e-09).transl(-4.446062226233121e-08, 3.720080424214528e-08, 0))
hIsland = hIsland.add(rect(7.727793289229845e-09, 7.995394532179718e-10).transl(7.621640206387709e-09, 4e-08, 0))
hIsland = hIsland.sub(rect(3.470793205178038e-09, -5.33067485968451e-09).transl(7.397037421682969e-08, 2.5161927503426065e-08, 0))
hIsland = hIsland.add(rect(7.951486284895092e-09, 1.0715115215000068e-10).transl(-1.4585213002658717e-08, 4e-08, 0))
hIsland = hIsland.add(rect(8.843193100119194e-09, 3.1414829076936325e-10).transl(2.873231644406134e-08, 3.955312642254332e-08, 0))
hIsland = hIsland.add(rect(4.295997334486391e-09, 4.3080628546655234e-09).transl(6.117343500875713e-08, 3.201106343060501e-08, 0))
hIsland = hIsland.add(rect(2.1125329665361623e-09, 1.1294322664921724e-09).transl(4.769837766871173e-08, 3.643871213322381e-08, 0))
hIsland = hIsland.add(rect(5.265527941894182e-09, 7.815350467610561e-10).transl(-5.121435538955841e-10, 4e-08, 0))
hIsland = hIsland.sub(rect(3.54079793814974e-09, -1.5083095282202966e-09).transl(-2.2541677822090365e-08, 3.992034183406062e-08, 0))
hIsland = hIsland.sub(rect(4.487670054939831e-09, -4.863231520376695e-10).transl(-1.9217186997251904e-08, 3.9994283757505146e-08, 0))
hIsland = hIsland.add(rect(5.625843095753032e-09, 2.2874562784707476e-09).transl(-3.885666011845504e-08, 3.828499258204414e-08, 0))
hIsland = hIsland.sub(rect(2.6232048825539772e-09, -3.9230668866991976e-09).transl(-2.1131245751198205e-08, 3.996215532273962e-08, 0))
hIsland = hIsland.sub(rect(7.264328441032929e-09, -3.0582478991953133e-09).transl(4.540005452468461e-09, 4e-08, 0))
hIsland = hIsland.add(rect(8.302574336810288e-09, 4.940381577178011e-10).transl(3.2575311234569736e-08, 3.917182906252306e-08, 0))
hIsland = hIsland.sub(rect(9.12756511137356e-09, -1.2425427018157115e-09).transl(-2.6466121843476e-08, 3.9722512745368884e-08, 0))
hIsland = hIsland.add(rect(4.057489308430575e-09, 2.0841313531252632e-09).transl(6.428523133988175e-08, 3.063966887197793e-08, 0))
hIsland = hIsland.add(rect(2.7040743282024007e-09, 1.7007065484954304e-09).transl(6.449751096644643e-08, 3.0540306669357357e-08, 0))
hIsland = hIsland.sub(rect(8.045078205490195e-09, -1.8878854899186887e-09).transl(1.3499558429242198e-10, 4e-08, 0))
hIsland = hIsland.add(rect(9.867800868784575e-09, 4.853056155296281e-10).transl(-1.401649229097106e-08, 4e-08, 0))
hIsland = hIsland.add(rect(6.451399437419486e-09, 1.1111507232215857e-09).transl(-7.280598537749255e-08, 2.594095840725743e-08, 0))
hIsland = hIsland.add(rect(7.85306589502143e-09, 8.546821509171652e-10).transl(8.931677820100388e-08, 5.497394080431353e-09, 0))
hIsland = hIsland.add(rect(3.3294791568125935e-09, 9.516891416846573e-10).transl(6.808895579339315e-08, 2.8734075071673e-08, 0))
hIsland = hIsland.sub(rect(9.629669837462919e-09, -1.9168831793540044e-09).transl(5.4228828698110434e-08, 3.456730762630756e-08, 0))
hIsland = hIsland.add(rect(4.162311779226598e-09, 3.844363623908876e-09).transl(6.585870923764148e-09, 4e-08, 0))
hIsland = hIsland.sub(rect(6.17411565184247e-09, -1.15557951302523e-09).transl(3.487228058081399e-08, 3.888621478108542e-08, 0))
hIsland = hIsland.sub(rect(8.107647633696914e-09, -3.0099978387470104e-09).transl(-2.6154228865163082e-08, 3.9742646464838996e-08, 0))
hIsland = hIsland.sub(rect(2.8695096501924686e-09, -2.0151617283265036e-09).transl(5.522366582351973e-08, 3.423952801366332e-08, 0))
hIsland = hIsland.sub(rect(8.721892444354393e-09, -6.546933426015675e-09).transl(6.30011479451754e-08, 3.122447937479976e-08, 0))
hIsland = hIsland.add(rect(3.953269588977599e-09, 2.223531135010792e-09).transl(5.6364906590042164e-08, 3.3848491141751845e-08, 0))
hIsland = hIsland.add(rect(8.61710295023157e-09, 4.4825596773770497e-10).transl(3.1143561276778656e-08, 3.932786683986229e-08, 0))
hIsland = hIsland.add(rect(7.77851303338649e-09, 1.8739708323118367e-09).transl(8.224817398755714e-08, 1.8054890066920268e-08, 0))
hIsland = hIsland.add(rect(3.1245419666532826e-09, 1.4586090773180412e-09).transl(-2.4746240542643676e-08, 3.9824027421187e-08, 0))
hIsland = hIsland.sub(rect(6.211349253242313e-09, -6.019814766771478e-10).transl(-4.5588345244002927e-08, 3.694708932344467e-08, 0))
hIsland = hIsland.sub(rect(5.416110615753306e-09, -1.1917675667163974e-09).transl(-5.572750241163792e-09, 4e-08, 0))
hIsland = hIsland.add(rect(6.322259468289748e-09, 8.973836673878121e-10).transl(-5.377813709148956e-08, 3.471188693409633e-08, 0))
hIsland = hIsland.add(rect(9.345445027060454e-09, 2.05036945493893e-09).transl(2.217076934106392e-08, 3.993283204372046e-08, 0))
hIsland = hIsland.sub(rect(2.2641002544369047e-09, -7.913227413729867e-10).transl(-5.8545855478264445e-08, 3.305454528584876e-08, 0))
hIsland = hIsland.sub(rect(8.542921025592449e-09, -4.5866887848404993e-10).transl(-5.6090771411503276e-08, 3.3943913131305577e-08, 0))
hIsland = hIsland.add(rect(9.84258983314773e-09, 1.69275945996563e-09).transl(7.69664465020115e-08, 2.2952972499916405e-08, 0))
hIsland = hIsland.sub(rect(2.9978810124516903e-09, -9.075869275337274e-10).transl(1.94253082875302e-08, 3.9992161640510373e-08, 0))
hIsland = hIsland.add(rect(3.782251490056974e-09, 3.2940767696317154e-09).transl(6.662211966665038e-08, 2.950146198052311e-08, 0))
hIsland = hIsland.add(rect(5.7315698554160245e-09, 4.137258247374021e-10).transl(-4.912256820481825e-08, 3.60700011651574e-08, 0))
hIsland = hIsland.sub(rect(5.338581334194924e-09, -3.07358378897374e-11).transl(7.121031053312587e-08, 2.694680890523785e-08, 0))
hIsland = hIsland.add(rect(7.935003299944573e-09, 1.2175181630989546e-09).transl(-8.285294928642965e-08, 1.7374727716596303e-08, 0))
hIsland = hIsland.sub(rect(9.035298972283898e-09, -1.9417411005759624e-09).transl(-5.036566448497486e-08, 3.5730747913162444e-08, 0))
hIsland = hIsland.add(rect(3.415585916490284e-09, 2.439094984898849e-10).transl(-4.643368342001605e-09, 4e-08, 0))
hIsland = hIsland.add(rect(9.990461161683452e-09, 1.5958092651342907e-09).transl(1.2390468450546854e-08, 4e-08, 0))
hIsland = hIsland.sub(rect(6.696849324928754e-09, -4.94277279490575e-11).transl(8.88694938083654e-08, 7.060471763739421e-09, 0))
hIsland = hIsland.sub(rect(6.7394303764174305e-09, -2.2367530346657745e-09).transl(-3.777294289228217e-09, 4e-08, 0))
hIsland = hIsland.sub(rect(5.6500385734095315e-09, -1.2423632866765897e-11).transl(2.9245873072066845e-08, 3.9509064200068216e-08, 0))
hIsland = hIsland.add(rect(4.510795095467005e-09, 1.5944802249001266e-09).transl(-5.332512396725578e-10, 4e-08, 0))
hIsland = hIsland.sub(rect(2.052761086975309e-09, -2.1711756981651883e-10).transl(-1.0292824763839127e-08, 4e-08, 0))
hIsland = hIsland.add(rect(8.342343407519029e-09, 8.046579454703025e-10).transl(-7.92923319578612e-08, 2.098831276168989e-08, 0))
hIsland = hIsland.sub(rect(5.39472850656611e-09, -1.4023198126065515e-09).transl(-3.638792215115969e-08, 3.867354791484588e-08, 0))
hIsland = hIsland.add(rect(8.181307247528896e-09, 2.694968638975764e-09).transl(-7.07117537326777e-08, 2.7247556343175972e-08, 0))
hIsland = hIsland.sub(rect(9.452772349050797e-09, -1.602248874092746e-09).transl(7.716723229473479e-08, 2.2792939551298876e-08, 0))
hIsland = hIsland.add(rect(3.2720582339024125e-09, 2.662425776878948e-09).transl(6.397934990032703e-09, 4e-08, 0))
hIsland = hIsland.add(rect(7.600934061374256e-09, 3.608536560227762e-09).transl(-9.427389016767167e-09, 4e-08, 0))
hIsland = hIsland.add(rect(9.219475630694174e-09, 4.751870684505656e-09).transl(-2.349287731787741e-08, 3.988342696577341e-08, 0))
hIsland = hIsland.sub(rect(9.061589599631963e-09, -2.39198499952842e-09).transl(-4.9476667759757025e-09, 4e-08, 0))
hIsland = hIsland.sub(rect(7.09406052911868e-09, -4.4196020145585117e-10).transl(7.529265848503742e-08, 2.422598902742794e-08, 0))
hIsland = hIsland.add(rect(4.021462027878526e-09, 1.7454450218264925e-09).transl(-8.252079966067372e-08, 1.7752294332220275e-08, 0))
hIsland = hIsland.sub(rect(8.018314626565612e-09, -3.6809381341801457e-09).transl(1.7666029115411475e-08, 4e-08, 0))
hIsland = hIsland.sub(rect(9.649398992133061e-09, -2.518067854400039e-10).transl(-2.1258519684407248e-08, 3.9959014687221195e-08, 0))
hIsland = hIsland.sub(rect(2.491963963015767e-09, -2.0153225639409576e-10).transl(-1.1560233041413867e-08, 4e-08, 0))
hIsland = hIsland.add(rect(2.7619130941964034e-09, 2.5862015649542626e-09).transl(8.70334820944093e-08, 1.1363499476215428e-08, 0))
hIsland = hIsland.sub(rect(2.9192484554620094e-09, -7.438400493927182e-10).transl(3.839555677215293e-08, 3.836158887768253e-08, 0))
hIsland = hIsland.add(rect(3.2764454396831106e-09, 2.9858973361722217e-09).transl(-4.583259036224505e-08, 3.689050746837062e-08, 0))
hIsland = hIsland.add(rect(7.095221473243079e-09, 1.6492861033396623e-09).transl(-8.535907110161325e-08, 1.4128549377362994e-08, 0))
hIsland = hIsland.add(rect(6.053698295843637e-09, 1.4639493457560766e-09).transl(2.3360142833011777e-08, 3.988900057555438e-08, 0))
hIsland = hIsland.add(rect(5.743556065406675e-09, 2.4470922480521865e-09).transl(-7.798914996718465e-08, 2.211991649219771e-08, 0))
hIsland = hIsland.add(rect(9.930512375819125e-09, 1.4197359386707346e-09).transl(7.288863285368864e-08, 2.5886969310409404e-08, 0))
hIsland = hIsland.sub(rect(2.850783224246531e-09, -1.8365559352652234e-09).transl(8.72367803801144e-08, 1.0975115548139001e-08, 0))
hIsland = hIsland.add(rect(4.984917164252478e-09, 2.7143050220830406e-09).transl(7.867571255367364e-08, 2.1534195502920835e-08, 0))
hIsland = hIsland.sub(rect(6.623245199869567e-09, -2.84950423229402e-09).transl(-1.4906132883202647e-08, 4e-08, 0))
hIsland = hIsland.add(rect(4.990059616269297e-09, 3.2482083481508326e-09).transl(-7.313249288479452e-08, 2.5726530886481996e-08, 0))
hIsland = hIsland.add(rect(5.9995983474046085e-09, 1.918014748058443e-09).transl(-8.422984731067083e-08, 1.5689968144390355e-08, 0))
vIsland = hIsland.rotz(pi / 2)
vIslands = vIslands.add(vIsland.transl(0, -a/2, 0))
DefRegion(1, hIslands)
DefRegion(2, vIslands)
TableAdd(m_full.Region(1))
TableAdd(m_full.Region(2))
setgeom(hIslands.add(vIslands))
save(geom)
r2o2 := sqrt(2) / 2
m = RandomMagSeed(4)
B_ext = vector(Bmax*r2o2, Bmax*r2o2, 0)
relax()
minimize()
for B := Bmax; B >= -Bmax; B -= Bstep {
	B_ext = vector(B*r2o2, B*r2o2, 0)
	minimize()
	tablesave()
}
//********************************************************************//
//Please cite the following references, relevant for your simulation. //
//See bibtex file in output folder for justification.                 //
//********************************************************************//
//   * Vansteenkiste et al., AIP Adv. 4, 107133 (2014).
//   * Exl et al., J. Appl. Phys. 115, 17D118 (2014).
