# t (s)	mx ()	my ()	mz ()	B_extx (T)	B_exty (T)	B_extz (T)	m_fullx (A/m)	m_fully (A/m)	m_fullz (A/m)	m_full.region1x (A/m)	m_full.region1y (A/m)	m_full.region1z (A/m)	m_full.region2x (A/m)	m_full.region2y (A/m)	m_full.region2z (A/m)
0	0.6532797	0.6532756	-3.426888e-10	0.070710704	0.070710704	0	84171.016	84170.48	-4.404892e-05	643037.06	271550.2	-0.00037572897	271554.6	643035.7	-0.00010776641
0	0.653007	0.65300244	-4.6773074e-10	0.07035722	0.07035722	0	84135.875	84135.28	-6.216117e-05	643313.9	270891.1	-0.00026226335	270895.94	643312.25	-0.00039950068
0	0.65272826	0.6527237	-1.6092282e-10	0.07000352	0.07000352	0	84099.945	84099.37	-2.1464437e-05	643595.5	270219.25	-0.00024713532	270224.12	643593.94	3.6622954e-05
0	0.6524465	0.6524419	-5.2647864e-10	0.06965005	0.06965005	0	84063.65	84063.055	-6.609447e-05	643878.5	269541.72	-0.00027348334	269546.56	643876.94	-0.00050706574
0	0.6521643	0.6521597	-4.4904572e-10	0.06929643	0.06929643	0	84027.27	84026.69	-5.8113154e-05	644160.9	268864.16	-0.0002941852	268869.03	644159.3	-0.00034372162
0	0.6518803	0.65187573	-2.4296012e-10	0.068942994	0.068942994	0	83990.71	83990.11	-2.9192348e-05	644443.4	268184.12	-0.00014062448	268189.06	644441.9	-0.00019433249
0	0.6515926	0.651588	-1.0906664e-10	0.06858929	0.06858929	0	83953.64	83953.05	-1.5622449e-05	644728.2	267496.66	-0.0001019494	267501.56	644726.6	-1.1407904e-05
0	0.65130436	0.65129966	-1.4194969e-10	0.06823583	0.06823583	0	83916.484	83915.89	-1.8402372e-05	645012.1	266808.94	-0.00019329599	266813.8	645010.56	3.404601e-05
0	0.651013	0.6510085	-3.7285092e-10	0.067882195	0.067882195	0	83878.96	83878.37	-4.832023e-05	645297.56	266115.75	-0.00025221496	266120.72	645296.1	-0.00029235755
0	0.65071976	0.6507151	3.6102114e-11	0.06752872	0.06752872	0	83841.18	83840.586	4.019033e-06	645583.7	265419.16	8.036967e-05	265424.1	645582.1	-8.3385785e-08
0	0.6504233	0.65041864	-3.3844683e-10	0.06717502	0.06717502	0	83802.97	83802.38	-4.563713e-05	645871.06	264716.53	-0.00027480169	264721.44	645869.7	-0.00022617058
0	0.65012646	0.6501218	-1.2592187e-10	0.066821605	0.066821605	0	83764.73	83764.13	-1.7181605e-05	646157.6	264014.38	-0.00020644968	264019.38	646156.06	4.940866e-05
0	0.64982814	0.6498234	-3.319717e-10	0.066468135	0.066468135	0	83726.28	83725.695	-4.7720725e-05	646444.1	263310.28	-8.852854e-05	263315.22	646442.6	-0.00037021196
0	0.6495268	0.64952207	-4.2895562e-10	0.06611443	0.06611443	0	83687.45	83686.86	-5.5755547e-05	646732	262600.4	-0.00043009987	262605.38	646730.5	-0.00017286495
0	0.64922273	0.6492181	-4.5605408e-10	0.065760985	0.065760985	0	83648.29	83647.69	-5.687062e-05	647020.8	261886.02	-0.00039790082	261891	647019.4	-0.00021996537
0	0.6489162	0.6489114	-4.829381e-10	0.06540732	0.06540732	0	83608.79	83608.195	-6.2711e-05	647310.56	261166.98	-0.00031252738	261171.98	647309.1	-0.0003468234
0	0.6486057	0.6486011	-9.516467e-10	0.0650539	0.0650539	0	83568.79	83568.2	-0.00012169245	647602.2	260440.78	-0.0009758181	260445.8	647600.75	-0.00043564473
0	0.6482984	0.64829373	-5.0944016e-10	0.064700216	0.064700216	0	83529.21	83528.59	-6.185604e-05	647890	259722.8	-0.00045845626	259727.8	647888.44	-0.00028026642
0	0.6479858	0.6479811	-4.955834e-10	0.06434676	0.06434676	0	83488.92	83488.32	-6.265736e-05	648180.6	258994.38	-0.00025699867	258999.38	648179.25	-0.0004275704
0	0.6476704	0.6476657	-5.473647e-10	0.0639931	0.0639931	0	83448.28	83447.68	-6.916236e-05	648472.44	258261.08	-0.00048108434	258266.12	648470.94	-0.0002803389
0	0.6473535	0.6473489	-6.3667327e-10	0.06363964	0.06363964	0	83407.445	83406.85	-8.09677e-05	648764.1	257525.75	-0.00043897383	257530.78	648762.75	-0.00049813685
0	0.64703405	0.64702934	-4.962583e-11	0.06328595	0.06328595	0	83366.3	83365.69	-8.299947e-06	649056.56	256786.08	-0.00013327356	256791.17	649055.1	5.6509576e-05
0	0.64671296	0.6467082	-4.2091045e-10	0.0629325	0.0629325	0	83324.92	83324.32	-5.2838215e-05	649348.94	256044.08	-0.00031595814	256049.14	649347.44	-0.0002709337
0	0.64638907	0.6463844	-1.5938e-10	0.06257904	0.06257904	0	83283.19	83282.586	-2.0705163e-05	649642.25	255297.38	-0.0002588186	255302.4	649640.8	1.6690718e-05
0	0.646062	0.64605737	-1.2993018e-10	0.062225346	0.062225346	0	83241.055	83240.45	-1.901308e-05	649936.56	254545.22	-6.4485386e-05	254550.28	649935.06	-0.0001362038
0	0.6457336	0.6457289	1.7207319e-10	0.06187191	0.06187191	0	83198.734	83198.13	1.8647048e-05	650230.75	253791.19	-4.2087963e-06	253796.27	650229.25	0.00027606182
0	0.645403	0.6453984	-3.129415e-10	0.061518222	0.061518222	0	83156.14	83155.555	-4.326965e-05	650525.2	253034.05	-0.00030766154	253039.14	650523.75	-0.00014165363
0	0.64506906	0.64506435	-3.8488206e-12	0.061164826	0.061164826	0	83113.11	83112.516	-3.4100237e-06	650821	252270.55	-4.6662826e-05	252275.7	650819.56	3.8795995e-05
0	0.6447326	0.6447279	-4.5772136e-10	0.060811136	0.060811136	0	83069.766	83069.17	-5.750332e-05	651117.3	251503.2	-0.0002192348	251508.31	651115.9	-0.00043646895
0	0.6443931	0.64438844	2.7240032e-10	0.060457677	0.060457677	0	83026.02	83025.414	3.2885648e-05	651414.5	250730.66	-0.00018388857	250735.77	651413.06	0.0006065778
0	0.64405227	0.6440475	-5.121325e-10	0.06010401	0.06010401	0	82982.11	82981.51	-6.244845e-05	651711.4	249956.7	-0.00030281986	249961.83	651709.94	-0.00040046257
0	0.6437092	0.6437045	-8.75191e-10	0.05975055	0.05975055	0	82937.91	82937.305	-0.000112183865	652008.44	249179.25	-0.0006196434	249184.4	652006.94	-0.00066882174
0	0.6433633	0.6433585	-3.0375794e-10	0.059396874	0.059396874	0	82893.33	82892.72	-3.9381135e-05	652306.25	248397.06	-2.682808e-05	248402.23	652304.9	-0.00041904076
0	0.6430145	0.64300984	-2.795846e-10	0.059043404	0.059043404	0	82848.4	82847.79	-3.604254e-05	652604.75	247610.38	-0.00029813932	247615.55	652603.3	-0.00010021607
0	0.642663	0.64265835	-8.180488e-10	0.05868994	0.05868994	0	82803.12	82802.516	-0.000105526124	652903.8	246819.25	-0.00055432844	246824.44	652902.4	-0.00067887997
0	0.6423097	0.6423051	-4.04753e-10	0.05833627	0.05833627	0	82757.59	82756.99	-5.1396502e-05	653202.8	246025.69	-0.00021409664	246030.86	653201.44	-0.00034146916
0	0.6419531	0.6419484	-5.3477245e-10	0.057982814	0.057982814	0	82711.65	82711.04	-6.9674796e-05	653502.75	245226.42	-0.00043945288	245231.61	653501.44	-0.00035413838
0	0.6415943	0.6415896	-6.686819e-11	0.057629142	0.057629142	0	82665.41	82664.8	-6.470805e-06	653802.94	244423.78	-4.034772e-05	244429.02	653801.5	-3.0113906e-06
0	0.6412305	0.6412258	-3.9084694e-10	0.057275668	0.057275668	0	82618.54	82617.94	-4.8976606e-05	654105.1	243612.38	-0.00045400896	243617.6	654103.75	-8.8846544e-05
0	0.6408676	0.6408629	-3.754561e-11	0.056922063	0.056922063	0	82571.78	82571.18	-4.774228e-06	654405.25	242804.14	-7.105521e-05	242809.34	654403.9	4.4457254e-05
0	0.64049816	0.6404935	-4.4111528e-10	0.0565686	0.0565686	0	82524.195	82523.586	-5.756834e-05	654708.4	241983.83	-0.00034949183	241989.06	654707.06	-0.0003046183
0	0.6401313	0.6401265	-4.3745244e-10	0.056214936	0.056214936	0	82476.914	82476.31	-5.630103e-05	655008.2	241170.34	-0.00046511652	241175.56	655006.9	-0.0001319814
0	0.6397582	0.63975364	-3.0077338e-10	0.05586146	0.05586146	0	82428.86	82428.26	-3.806249e-05	655310.94	240345.4	-0.00014340728	240350.62	655309.6	-0.000267956
0	0.6393826	0.63937783	-2.1385332e-10	0.055507805	0.055507805	0	82380.445	82379.84	-2.4714753e-05	655614.2	239516.2	-0.0002448426	239521.52	655612.8	-2.99899e-05
0	0.6390041	0.63899934	-3.8467574e-10	0.055154327	0.055154327	0	82331.69	82331.07	-4.758604e-05	655917.44	238682.92	-0.00029467582	238688.23	655916.2	-0.00022197842
0	0.6386228	0.63861805	-4.927033e-10	0.054800846	0.054800846	0	82282.555	82281.95	-6.479688e-05	656221.44	237845.2	-0.00042095143	237850.52	656220.06	-0.00033968771
0	0.6382391	0.6382344	-4.632395e-10	0.05444718	0.05444718	0	82233.12	82232.516	-6.126729e-05	656525.3	237004.11	-0.0004562595	237009.4	656524.06	-0.00023685934
0	0.63785297	0.6378481	-8.2146984e-10	0.054093722	0.054093722	0	82183.37	82182.75	-0.00010422547	656829.4	236159.4	-0.00045991113	236164.69	656827.94	-0.0007271989
0	0.6374623	0.6374576	-3.3976483e-10	0.053740054	0.053740054	0	82133.05	82132.43	-4.1218922e-05	657134.7	235307.25	-0.00025642102	235312.53	657133.5	-0.00019103567
0	0.63706976	0.63706505	-3.4737416e-10	0.053386588	0.053386588	0	82082.45	82081.85	-4.5415964e-05	657439.94	234452.31	-0.0001687424	234457.6	657438.6	-0.0003331909
0	0.63667405	0.6366694	-5.155331e-10	0.053032987	0.053032987	0	82031.47	82030.875	-6.371886e-05	657745.56	233592.89	-0.00045312976	233598.2	657744.25	-0.00028027422
0	0.6362756	0.6362708	-7.699459e-10	0.05267951	0.05267951	0	81980.125	81979.53	-9.989901e-05	658051.44	232729.12	-0.0004599988	232734.42	658050.2	-0.00062602636
0	0.6358724	0.6358678	-4.5154516e-10	0.05232584	0.05232584	0	81928.195	81927.586	-6.0953505e-05	658358.75	231857.36	-0.0003836363	231862.67	658357.44	-0.00027703884
0	0.6354684	0.6354637	-4.926136e-10	0.05197238	0.05197238	0	81876.13	81875.53	-6.082101e-05	658665.1	230985.4	-0.0004857492	230990.73	658663.75	-0.00020058575
0	0.6350608	0.63505596	-4.8109916e-10	0.051618718	0.051618718	0	81823.62	81823.01	-6.0046288e-05	658971.9	230107.9	-0.00041795723	230113.25	658970.6	-0.0002447996
0	0.63464934	0.63464457	-3.1838132e-10	0.05126525	0.05126525	0	81770.6	81769.984	-3.9389295e-05	659279.5	229224.22	-0.00024161451	229229.55	659278.25	-0.00016281228
0	0.6342354	0.6342306	-5.349551e-10	0.05091175	0.05091175	0	81717.25	81716.66	-6.708131e-05	659587.06	228337.03	-0.00037265103	228342.34	659585.94	-0.0003717716
0	0.6338181	0.6338134	-4.5760531e-10	0.0505581	0.0505581	0	81663.484	81662.89	-5.8551883e-05	659895.3	227444.64	-0.00045018276	227450	659894.06	-0.00019618846
0	0.63339895	0.6333942	-4.4668635e-10	0.050204627	0.050204627	0	81609.484	81608.88	-5.494801e-05	660202.7	226550.44	-0.00032246448	226555.78	660201.4	-0.00027178568
0	0.6329746	0.63296986	-6.1278976e-10	0.049850974	0.049850974	0	81554.82	81554.22	-7.967933e-05	660511.6	225647.36	-0.00047684563	225652.75	660510.5	-0.0003807956
0	0.632548	0.63254327	-3.6762482e-10	0.049497493	0.049497493	0	81499.86	81499.24	-4.9269493e-05	660820.5	224741.38	-0.0003593003	224746.75	660819.25	-0.00017564687
0	0.63211745	0.63211274	-4.6713977e-10	0.049143914	0.049143914	0	81444.38	81443.77	-6.220944e-05	661129.9	223829.19	-0.00032757368	223834.56	661128.6	-0.0003405673
0	0.6316836	0.63167894	-3.7040654e-10	0.04879043	0.04879043	0	81388.484	81387.88	-4.7379122e-05	661439.5	222912.17	-0.00015146623	222917.56	661438.3	-0.00035346983
0	0.6312473	0.6312426	-7.719609e-10	0.04843677	0.04843677	0	81332.26	81331.65	-9.8332086e-05	661748.9	221991.88	-0.0006203706	221997.25	661747.75	-0.00049964106
0	0.63080764	0.630803	-9.527705e-11	0.04808329	0.04808329	0	81275.62	81275.02	-1.346441e-05	662058.4	221066.97	-0.00023055755	221072.34	662057.1	0.00010979523
0	0.63036346	0.6303588	-9.370478e-10	0.04772965	0.04772965	0	81218.4	81217.79	-0.00011930316	662368.94	220134.58	-0.0006731915	220139.97	662367.8	-0.00069247506
0	0.62991714	0.6299124	-4.821914e-10	0.047376156	0.047376156	0	81160.875	81160.266	-6.18369e-05	662678.9	219199.61	-0.00048175984	219205.02	662677.8	-0.00021063775
0	0.62946224	0.6294576	-6.306033e-10	0.04702266	0.04702266	0	81102.28	81101.68	-8.188564e-05	662992.25	218249.52	-0.00048699524	218254.94	662991.1	-0.00042468056
0	0.6290115	0.62900686	-4.2270226e-10	0.046669014	0.046669014	0	81044.21	81043.61	-5.616714e-05	663301.06	217309.69	-0.0002553831	217315.1	663299.94	-0.00038827182
0	0.62855434	0.6285497	-4.704867e-10	0.046315536	0.046315536	0	80985.305	80984.7	-5.8149126e-05	663612	216358.77	-0.00028968093	216364.2	663610.9	-0.0003993851
0	0.62809366	0.628089	-2.5382468e-10	0.045961887	0.045961887	0	80925.94	80925.336	-3.401913e-05	663922.94	215402.8	-0.00025273106	215408.22	663921.8	-0.0001314635
0	0.6276291	0.6276245	-3.499693e-10	0.045608394	0.045608394	0	80866.086	80865.484	-4.329125e-05	664234.2	214441.14	-0.00031803362	214446.55	664233.06	-0.0001502381
0	0.6271607	0.6271561	-5.11753e-10	0.04525483	0.04525483	0	80805.734	80805.14	-6.5357286e-05	664545.75	213473.75	-0.0003958315	213479.19	664544.75	-0.00030438878
0	0.6266888	0.6266841	-4.949621e-10	0.044901334	0.044901334	0	80744.93	80744.33	-6.704406e-05	664857.56	212501.25	-0.0003792689	212506.69	664856.44	-0.00037862692
0	0.62621284	0.6262082	-2.5985367e-10	0.044547696	0.044547696	0	80683.6	80683.01	-3.397369e-05	665169.56	211522.98	-0.00032091423	211528.39	665168.5	-1.067083e-05
0	0.62573385	0.6257292	-2.1510038e-10	0.04419421	0.04419421	0	80621.89	80621.3	-2.5139545e-05	665481.2	210540.64	-0.00015512081	210546.05	665480.2	-0.00010524425
0	0.62525135	0.6252467	-5.07288e-10	0.04384058	0.04384058	0	80559.72	80559.13	-6.462429e-05	665793	209553.4	-0.00026411537	209558.89	665791.94	-0.00047297956
0	0.62476426	0.62475973	-3.666719e-10	0.043487065	0.043487065	0	80496.97	80496.38	-4.6524994e-05	666105.25	208559.39	-0.00033137834	208564.86	666104.1	-0.00018071335
0	0.6242732	0.6242686	7.4888144e-11	0.04313356	0.04313356	0	80433.695	80433.11	1.1785349e-05	666417.6	207559.4	-4.624183e-05	207564.84	666416.56	0.00021354834
0	0.62377876	0.6237742	-3.206092e-10	0.042779934	0.042779934	0	80370	80369.41	-3.8856724e-05	666729.8	206554.97	-0.00033561216	206560.4	666728.9	-0.00010039142
0	0.62328035	0.62327576	-2.2692062e-10	0.04242642	0.04242642	0	80305.77	80305.19	-3.2053158e-05	667042.2	205544.7	-0.00015514556	205550.19	667041.3	-0.00014798548
0	0.62277776	0.62277323	-5.3438604e-10	0.04207281	0.04207281	0	80241.016	80240.43	-6.9285605e-05	667354.7	204528.7	-0.00062723644	204534.16	667353.75	-0.00013976672
0	0.6222717	0.6222671	-3.9620146e-10	0.041719295	0.041719295	0	80175.81	80175.23	-4.9575985e-05	667667.06	203507.89	-0.00025733208	203513.33	667666.06	-0.00030129534
0	0.6217605	0.62175596	-4.6190105e-10	0.041365758	0.041365758	0	80109.95	80109.37	-5.860496e-05	667979.9	202479.36	-0.00034292947	202484.81	667979	-0.00030524805
0	0.62124693	0.6212424	-9.002998e-10	0.041012242	0.041012242	0	80043.79	80043.21	-0.00011290637	668291.94	201448.4	-0.0007190176	201453.83	668291	-0.0005491836
0	0.6207282	0.62072366	-3.0501188e-10	0.040658627	0.040658627	0	79976.945	79976.36	-3.8878483e-05	668604.56	200409.56	-0.00029347502	200415.02	668603.56	-0.00013048555
0	0.6202051	0.6202006	-4.2450718e-10	0.040305126	0.040305126	0	79909.56	79908.98	-5.322324e-05	668917.1	199364.62	-0.0002898384	199370.05	668916.25	-0.00030888306
0	0.61967754	0.6196731	-3.587376e-10	0.03995151	0.03995151	0	79841.59	79841.01	-4.3944085e-05	669229.9	198313.25	-0.00030767516	198318.72	669229	-0.0001741163
0	0.61914843	0.61914396	-4.724342e-10	0.039597988	0.039597988	0	79773.41	79772.82	-5.9877686e-05	669541.1	197261.17	-0.00031551113	197266.61	669540.4	-0.00033823075
0	0.6186128	0.61860836	-1.9633617e-10	0.03924446	0.03924446	0	79704.39	79703.82	-2.5682788e-05	669853.7	196198.88	-0.00026250168	196204.3	669852.9	2.9498733e-06
0	0.6180727	0.61806834	-4.2542742e-10	0.03889085	0.03889085	0	79634.805	79634.234	-5.605293e-05	670166.2	195130.23	-0.00033691994	195135.66	670165.3	-0.00025706016
0	0.6175295	0.6175249	-1.0593336e-10	0.03853732	0.03853732	0	79564.81	79564.25	-1.1266113e-05	670478	194057.83	-4.2416406e-05	194063.23	670477.2	-8.821593e-05
0	0.61698025	0.61697584	-3.8531422e-10	0.03818373	0.03818373	0	79494.055	79493.47	-4.8395665e-05	670790.44	192976.53	-0.0004519745	192982	670789.56	-6.539831e-05
0	0.616429	0.61642456	-7.4215184e-10	0.0378302	0.0378302	0	79423.016	79422.44	-9.582567e-05	671101.6	191893.56	-0.00047970627	191898.98	671100.8	-0.00059776515
0	0.6158719	0.61586744	-9.768336e-11	0.03747659	0.03747659	0	79351.24	79350.67	-1.3065464e-05	671413.3	190801.92	-5.677641e-05	190807.36	671412.44	-5.9158327e-05
0	0.6153105	0.615306	1.2176953e-10	0.037123155	0.037123155	0	79278.91	79278.34	1.6436245e-05	671724.6	189704.62	6.1113686e-05	189710.03	671723.8	0.00017904633
0	0.61474466	0.61474025	-3.5134665e-10	0.036769558	0.036769558	0	79206	79205.44	-4.3696597e-05	672035.8	188601.27	-0.000360849	188606.7	672035.06	-0.00014102661
0	0.6141743	0.6141699	-1.4480897e-10	0.036416043	0.036416043	0	79132.53	79131.96	-2.1936557e-05	672346.7	187491.94	-0.00021499407	187497.36	672346	1.4289884e-05
0	0.61359936	0.61359495	-5.3115323e-10	0.036062438	0.036062438	0	79058.445	79057.875	-6.6660075e-05	672657.3	186376.27	-0.0005372721	186381.64	672656.7	-0.00021589713
0	0.61301947	0.61301506	-4.125573e-10	0.035708897	0.035708897	0	78983.72	78983.16	-5.3724274e-05	672968	185253.86	-0.00039550857	185259.31	672967.3	-0.00017816381
0	0.612434	0.61242974	-9.426541e-10	0.035355352	0.035355352	0	78908.305	78907.74	-0.000120734694	673278.8	184123.55	-0.00078790565	184128.95	673278.06	-0.00057507015
0	0.6118451	0.6118408	-5.073709e-10	0.03500176	0.03500176	0	78832.43	78831.87	-6.4591746e-05	673588.56	182989.23	-0.00042887277	182994.61	673587.9	-0.00026562597
0	0.61125094	0.61124665	-5.2736218e-11	0.034648214	0.034648214	0	78755.86	78755.305	-6.3447596e-06	673898.4	181847.56	2.8041404e-05	181852.9	673897.6	-7.849717e-05
0	0.61065125	0.61064696	-4.036407e-10	0.034294646	0.034294646	0	78678.59	78678.03	-5.3154385e-05	674207.94	180698.25	-0.00044890004	180703.64	674207.44	-0.00012034046
0	0.61004716	0.6100429	-5.3771737e-10	0.033941098	0.033941098	0	78600.78	78600.23	-7.049198e-05	674517.06	179543.62	-0.00064340763	179549.02	674516.56	-0.00013067614
0	0.6094398	0.6094355	-3.9212286e-10	0.03358751	0.03358751	0	78522.516	78521.96	-5.1426247e-05	674825.2	178385.1	-0.00042236093	178390.45	674824.56	-0.00014174581
0	0.60882634	0.60882205	-3.4640538e-10	0.033234067	0.033234067	0	78443.46	78442.92	-4.3909826e-05	675133.3	177218.16	-0.00021418299	177223.52	675132.75	-0.00025079795
0	0.6082073	0.608203	-6.371866e-10	0.032880493	0.032880493	0	78363.71	78363.14	-8.098164e-05	675441.4	176043.47	-0.0006776937	176048.83	675440.75	-0.00023002183
0	0.60758346	0.60757923	-3.9358788e-10	0.03252695	0.03252695	0	78283.33	78282.78	-4.7567133e-05	675748.75	174862.7	-0.00036496643	174868.06	675748.2	-0.000176691
0	0.60695434	0.60695016	-4.421459e-10	0.03217338	0.03217338	0	78202.27	78201.73	-5.4778e-05	676055.8	173674.88	-0.0004566978	173680.2	676055.25	-0.00014433802
0	0.60632	0.60631585	-6.519394e-10	0.03181982	0.03181982	0	78120.55	78120.01	-8.385507e-05	676362.44	172480.28	-0.00043132852	172485.62	676361.94	-0.0005149508
0	0.6056813	0.6056772	-4.5830392e-10	0.03146625	0.03146625	0	78038.25	78037.72	-5.679252e-05	676668.1	171280.45	-0.00033670897	171285.77	676667.56	-0.00032802214
0	0.6050363	0.60503227	-5.4601684e-10	0.031112673	0.031112673	0	77955.16	77954.625	-6.907342e-05	676973.7	170071.89	-0.00048939197	170077.19	676973.3	-0.00028589857
0	0.6043866	0.6043826	-3.9638562e-10	0.030759111	0.030759111	0	77871.44	77870.914	-4.9688504e-05	677278.5	168857.4	-0.0003467066	168862.7	677278.06	-0.00018313117
0	0.603731	0.60372686	-5.1343385e-10	0.030405568	0.030405568	0	77786.97	77786.43	-6.375666e-05	677583.06	167635.1	-0.0005640776	167640.39	677582.56	-0.00012803993
0	0.6030695	0.6030655	-4.7560383e-10	0.030052004	0.030052004	0	77701.74	77701.22	-5.917506e-05	677886.94	166405.11	-0.00013811774	166410.39	677886.5	-0.0005194232
0	0.6024035	0.6023994	-1.1487435e-10	0.029698437	0.029698437	0	77615.914	77615.4	-1.4936786e-05	678190.06	165169.6	-0.00024360481	165174.83	678189.6	8.298756e-05
0	0.60173225	0.6017282	-1.3575151e-10	0.02934497	0.02934497	0	77529.44	77528.914	-1.7680264e-05	678492.3	163927.56	-0.00027673776	163932.78	678492.06	6.983503e-05
0	0.60105366	0.60104954	-2.624554e-10	0.028991407	0.028991407	0	77441.99	77441.484	-3.547658e-05	678794.5	162675.28	-0.00040696096	162680.53	678794.2	5.796668e-05
0	0.60037196	0.60036784	-1.9849197e-10	0.028637834	0.028637834	0	77354.18	77353.66	-2.4021974e-05	679095.1	161420.34	-0.00032479208	161425.56	679094.75	9.128262e-05
0	0.599684	0.59968	-1.7757112e-10	0.0282843	0.0282843	0	77265.53	77265.01	-1.8022987e-05	679395.1	160157.2	-0.0001734156	160162.4	679394.8	-1.8914972e-05
0	0.5989889	0.59898496	-7.273155e-11	0.02793073	0.02793073	0	77175.97	77175.47	-8.903977e-06	679695	158884.2	-0.00034938438	158889.4	679694.7	0.00026396677
0	0.59827924	0.59827536	-4.3795335e-11	0.027577164	0.027577164	0	77084.53	77084.03	-5.129829e-06	679997.9	157587.8	9.0030335e-06	157592.97	679997.56	-7.672456e-05
0	0.597583	0.597579	-4.9194315e-10	0.02722359	0.02722359	0	76994.82	76994.33	-6.2176616e-05	680291.56	156319.36	-0.00046410278	156324.55	680291.4	-0.00024078607
0	0.5968706	0.5968666	-3.8318232e-10	0.026870027	0.026870027	0	76903.03	76902.54	-4.865909e-05	680588.94	155024.73	-0.00023337814	155029.86	680588.6	-0.00034117623
0	0.5961527	0.59614897	-3.6847195e-10	0.026516493	0.026516493	0	76810.55	76810.06	-4.7390793e-05	680885	153723.69	-0.0005387631	153728.81	680884.75	1.4484475e-05
0	0.59542596	0.59542215	-4.1015802e-10	0.02616292	0.02616292	0	76716.914	76716.42	-5.4827073e-05	681181.4	152409.84	-0.0003755881	152414.95	681181.1	-0.00021326324
0	0.5946982	0.5946945	-8.014944e-10	0.025809359	0.025809359	0	76623.15	76622.67	-0.00010378665	681474.9	151097.62	-0.0007848222	151102.73	681474.6	-0.00041058124
0	0.593961	0.59395725	-5.3035515e-10	0.025455875	0.025455875	0	76528.16	76527.67	-6.516586e-05	681768.75	149771.64	-0.00042102544	149776.72	681768.56	-0.00034113773
0	0.5932193	0.5932155	-3.3936143e-10	0.025102314	0.025102314	0	76432.6	76432.12	-4.4845525e-05	682060.8	148441.12	-0.00036491375	148446.16	682060.7	-9.109159e-05
0	0.59247017	0.5924665	-7.295789e-10	0.024748746	0.024748746	0	76336.07	76335.59	-9.4184645e-05	682352.25	147100.81	-0.0005017017	147105.84	682352.25	-0.000560369
0	0.5917145	0.5917108	5.405143e-10	0.024395214	0.024395214	0	76238.72	76238.234	7.066105e-05	682642.9	145752.48	0.0004322936	145757.48	682642.7	0.00043076067
0	0.5909531	0.5909495	-6.960948e-10	0.024041645	0.024041645	0	76140.62	76140.14	-8.821507e-05	682931.94	144397.39	-0.0005297486	144402.38	682931.9	-0.00046142392
0	0.59018284	0.5901792	-6.562753e-10	0.023688078	0.023688078	0	76041.37	76040.914	-8.391677e-05	683220.8	143030.2	-0.00083755	143035.17	683220.75	-0.00012986214
0	0.58940977	0.58940613	-5.234141e-10	0.023334507	0.023334507	0	75941.75	75941.3	-6.8003996e-05	683507.25	141661.45	-0.0005286765	141666.4	683507.1	-0.00021632871
0	0.5886214	0.5886178	-1.712462e-10	0.022980943	0.022980943	0	75840.18	75839.73	-2.3237117e-05	683795.56	140269.45	-0.00019491476	140274.38	683795.56	-6.690665e-05
0	0.58784044	0.587837	-3.8870707e-10	0.022627415	0.022627415	0	75739.57	75739.12	-5.129681e-05	684077.56	138894.19	-0.00037015812	138899.1	684077.44	-0.00020266656
0	0.58704555	0.58704203	-3.5128267e-10	0.022273848	0.022273848	0	75637.15	75636.7	-4.648964e-05	684360.9	137498.06	-0.00040674678	137502.92	684360.9	-0.00011733351
0	0.58623445	0.58623105	-1.3352514e-10	0.02192029	0.02192029	0	75532.65	75532.2	-1.6601962e-05	684646.25	136077.11	-0.00021418562	136081.98	684646.25	9.427208e-06
0	0.58543533	0.585432	-2.7197963e-10	0.02156678	0.02156678	0	75429.69	75429.25	-3.5157947e-05	684923.5	134681.2	-0.00046632372	134686.03	684923.5	7.6587436e-05
0	0.5846187	0.58461535	-7.330129e-10	0.02121321	0.02121321	0	75324.46	75324.03	-9.4467825e-05	685203.06	133258.28	-0.0006091284	133263.08	685203.2	-0.0004655179
0	0.5837968	0.58379346	-4.5683987e-10	0.020859648	0.020859648	0	75218.58	75218.125	-6.112263e-05	685480.75	131830.03	-0.00031554705	131834.83	685480.9	-0.00035372222
0	0.58296645	0.5829631	-1.7210404e-10	0.020506121	0.020506121	0	75111.586	75111.15	-2.0528265e-05	685757.25	130390.99	-0.00027473146	130395.75	685757.44	5.3984444e-05
0	0.5821301	0.58212674	-8.5411495e-10	0.020152563	0.020152563	0	75003.82	75003.39	-0.00011110941	686032.1	128945.29	-0.00089274446	128950.02	686032.2	-0.00032994265
0	0.5812861	0.5812828	-1.0243669e-09	0.019798994	0.019798994	0	74895.07	74894.66	-0.00013042816	686305.3	127490.445	-0.0009027484	127495.125	686305.56	-0.00055236183
0	0.5804338	0.5804305	-3.929418e-10	0.019445425	0.019445425	0	74785.26	74784.85	-5.108633e-05	686577.4	126025.234	-0.0005199885	126029.91	686577.5	-2.5734797e-05
0	0.5795722	0.5795691	2.1675896e-10	0.019091865	0.019091865	0	74674.26	74673.85	2.6983938e-05	686848.2	124548.234	-0.00011010793	124552.87	686848.44	0.00042248014
0	0.5787093	0.57870615	-2.3122915e-10	0.018738296	0.018738296	0	74563.07	74562.664	-3.077783e-05	687115.75	123072.56	-0.0004234654	123077.18	687116	0.00010816513
0	0.57783324	0.57783014	7.127578e-10	0.018384779	0.018384779	0	74450.21	74449.805	9.101475e-05	687383.06	121579	0.0005029416	121583.58	687383.25	0.00058182306
0	0.5769528	0.57694966	-2.5790248e-10	0.018031219	0.018031219	0	74336.75	74336.36	-3.4745666e-05	687647.75	120081.625	-0.00044318233	120086.164	687647.9	8.357203e-05
0	0.57606256	0.5760595	-2.7340807e-10	0.017677676	0.017677676	0	74222.055	74221.664	-3.5406723e-05	687911.2	118571.9	-0.0002857728	118576.4	687911.4	-9.13501e-05
0	0.57516575	0.57516277	-5.1594715e-11	0.017324107	0.017324107	0	74106.51	74106.13	-7.6051615e-06	688172.44	117055.164	-0.00030977977	117059.63	688172.75	0.0002215243
0	0.57426137	0.57425845	-3.3908618e-10	0.016970549	0.016970549	0	73989.99	73989.61	-4.445707e-05	688431.75	115529.81	-0.00047123258	115534.24	688432	-1.4041802e-06
0	0.57334715	0.57334435	-8.997182e-10	0.016617034	0.016617034	0	73872.21	73871.84	-0.00011761633	688689.44	113992.195	-0.0010660387	113996.59	688689.9	-0.0001916929
0	0.57242626	0.57242346	-5.0826876e-10	0.016263476	0.016263476	0	73753.555	73753.19	-6.649011e-05	688945	112447.414	-0.0005682927	112451.805	688945.3	-0.00015355593
0	0.5714971	0.5714943	-6.0112265e-10	0.01590991	0.01590991	0	73633.82	73633.46	-7.999415e-05	689198.44	110893.086	-0.00052593445	110897.41	689198.8	-0.00033292593
0	0.5705594	0.57055664	-2.3204534e-10	0.015556336	0.015556336	0	73513.016	73512.66	-2.8605476e-05	689450	109328.92	-0.00018390072	109333.21	689450.3	-0.0001540516
0	0.569611	0.56960815	-1.2135891e-10	0.015202784	0.015202784	0	73390.81	73390.45	-1.601448e-05	689699.8	107751.234	-0.00054904947	107755.484	689700.3	0.00038866495
0	0.56865865	0.56865597	-2.2470928e-10	0.014849219	0.014849219	0	73268.1	73267.766	-2.4811456e-05	689946.44	106171.445	-0.0003030551	106175.664	689946.9	4.297325e-05
0	0.5676916	0.56768894	-1.675469e-10	0.014495703	0.014495703	0	73143.516	73143.17	-2.1791004e-05	690192.2	104571.71	1.3064083e-05	104575.89	690192.7	-0.00025929572
0	0.56672275	0.5667202	7.7506106e-11	0.01414215	0.01414215	0	73018.69	73018.34	8.169953e-06	690434.2	102973.52	-1.7338454e-05	102977.65	690434.7	0.00011390008
0	0.565743	0.5657405	-2.9860076e-10	0.013788582	0.013788582	0	72892.46	72892.125	-4.1320855e-05	690674.25	101361.914	-0.00050223974	101366	690674.8	8.05703e-05
0	0.56475383	0.5647514	-2.2043279e-11	0.013435014	0.013435014	0	72765.01	72764.69	-2.3006498e-06	690912.2	99739.22	-0.00016838634	99743.27	690912.75	0.00016723707
0	0.56375575	0.5637533	-1.0751903e-10	0.01308146	0.01308146	0	72636.414	72636.09	-1.3401717e-05	691147.56	98106.6	-0.0003838332	98110.61	691148.1	0.00022442499
0	0.5627476	0.56274515	-1.9565015e-10	0.012727938	0.012727938	0	72506.51	72506.195	-2.6343032e-05	691380.6	96461.99	-0.00014220118	96465.96	691381.2	-0.00013001192
0	0.561732	0.56172955	-4.0898596e-10	0.012374373	0.012374373	0	72375.65	72375.34	-5.3525953e-05	691610.75	94810.016	-0.00045492823	94813.92	691611.5	-0.00011856382
0	0.5607072	0.5607049	-6.20923e-10	0.012020823	0.012020823	0	72243.61	72243.32	-7.9503276e-05	691838.3	93147.89	-0.0003856326	93151.77	691838.94	-0.0004917486
0	0.55967206	0.55966985	-5.435383e-10	0.011667253	0.011667253	0	72110.24	72109.96	-7.503187e-05	692063.25	91473.88	-0.00035305356	91477.72	692063.94	-0.00047623363
0	0.5586279	0.5586257	-3.453145e-11	0.011313708	0.011313708	0	71975.71	71975.42	-3.605171e-06	692285.56	89789.79	-0.00021009259	89793.56	692286.2	0.00017141587
0	0.5575739	0.55757177	-8.022554e-11	0.010960145	0.010960145	0	71839.914	71839.63	-1.0753989e-05	692504.8	88094.88	-0.00023955607	88098.6	692505.56	0.00012070979
0	0.55651075	0.55650866	-1.5579138e-10	0.010606605	0.010606605	0	71702.93	71702.66	-1.6427573e-05	692721.25	86390.016	-0.0002035725	86393.69	692722.06	5.135431e-06
0	0.55543786	0.55543584	7.278814e-12	0.010253061	0.010253061	0	71564.7	71564.44	1.2459792e-06	692934.8	84674.68	0.00011551963	84678.305	692935.56	-9.4516494e-05
0	0.5543544	0.5543524	-2.9263508e-10	0.009899497	0.009899497	0	71425.1	71424.84	-3.7631078e-05	693145.3	82947.31	-0.00019740881	82950.88	693146.1	-0.00024105073
0	0.55326056	0.55325866	-2.69099e-10	0.0095459325	0.0095459325	0	71284.18	71283.93	-3.155037e-05	693352.8	81208.43	-0.00032751597	81211.96	693353.7	-3.934206e-05
0	0.5521534	0.55215156	-3.6924172e-10	0.009192389	0.009192389	0	71141.53	71141.28	-4.7324284e-05	693557.8	79453.54	-0.00051530194	79457.01	693558.56	-2.331001e-05
0	0.5510455	0.55104357	-7.375505e-11	0.008838838	0.008838838	0	70998.75	70998.53	-8.144282e-06	693758.06	77702.22	-0.00022989942	77705.625	693758.8	0.00016594653
0	0.54992056	0.5499188	-2.2608533e-10	0.008485274	0.008485274	0	70853.82	70853.59	-2.9989951e-05	693955.8	75929.54	-0.0004474125	75932.89	693956.75	9.233251e-05
0	0.54878765	0.5487859	-1.1195558e-10	0.008131738	0.008131738	0	70707.86	70707.64	-1.2168714e-05	694150	74149.4	-0.00032997123	74152.695	694151	0.00018237637
0	0.5476432	0.5476416	1.783233e-10	0.007778168	0.007778168	0	70560.41	70560.195	2.2851367e-05	694340.94	72356.39	0.0001013196	72359.62	694341.8	0.0001801024
0	0.5464864	0.54648477	4.2785048e-10	0.0074246093	0.0074246093	0	70411.35	70411.15	5.348874e-05	694528.44	70549.27	7.343298e-05	70552.445	694529.4	0.000563311
0	0.54532176	0.54532015	-2.4812744e-10	0.007071075	0.007071075	0	70261.3	70261.09	-3.4395573e-05	694712	68735.305	-0.00023834665	68738.4	694713	-0.00014636271
0	0.5441447	0.54414314	-5.152446e-11	0.006717507	0.006717507	0	70109.64	70109.445	-5.9605763e-06	694892.06	66907.41	-0.0001233551	66910.45	694893.06	7.451336e-05
0	0.5429491	0.5429476	-4.4960474e-10	0.006363969	0.006363969	0	69955.59	69955.41	-5.7249777e-05	695069.6	65056.12	-0.00038912398	65059.098	695070.6	-0.00025112252