# t (s)	mx ()	my ()	mz ()	B_extx (T)	B_exty (T)	B_extz (T)	m_fullx (A/m)	m_fully (A/m)	m_fullz (A/m)	m_full.region1x (A/m)	m_full.region1y (A/m)	m_full.region1z (A/m)	m_full.region2x (A/m)	m_full.region2y (A/m)	m_full.region2z (A/m)
0	0.65391463	0.6539147	-1.3898531e-09	0.07071083	0.07071083	0	87439.805	87439.81	-0.00018421053	620206.7	295274.2	-0.0011890951	295273.9	620206.44	-0.0007033063
0	0.65369385	0.653693	-2.489289e-10	0.07035724	0.07035724	0	87410.266	87410.18	-3.0470914e-05	620400.5	294770.4	-0.00016313806	294770.78	620399.94	-0.00016676335
0	0.65346557	0.65346485	-2.2127014e-10	0.07000352	0.07000352	0	87379.75	87379.664	-2.7700831e-05	620601.2	294250.2	-0.00011600928	294250.56	620600.6	-0.00019214037
0	0.6532367	0.6532359	-4.217962e-10	0.06964995	0.06964995	0	87349.15	87349.055	-5.5401662e-05	620802.75	293728.22	-0.00030452435	293728.6	620802.1	-0.00023926914
0	0.6530058	0.653005	-2.558436e-10	0.06929654	0.06929654	0	87318.266	87318.19	-3.1855954e-05	621003.9	293203.84	-0.00026102088	293204.22	621003.3	-7.069315e-05
0	0.65277493	0.6527742	1.6595261e-10	0.06894301	0.06894301	0	87287.39	87287.31	2.2160664e-05	621206.06	292678.4	0.0001087587	292678.84	621205.44	0.00010513341
0	0.6525417	0.652541	-4.4254028e-10	0.06858926	0.06858927	0	87256.22	87256.125	-6.301939e-05	621407.7	292150.34	-0.0002900232	292150.75	621407.1	-0.0003190255
0	0.6523079	0.6523073	-3.457346e-11	0.0682357	0.0682357	0	87224.95	87224.86	-2.770083e-06	621610.25	291620.53	-4.350348e-05	291620.94	621609.56	-1.812645e-06
0	0.65207225	0.65207154	-2.8350236e-10	0.06788229	0.06788229	0	87193.44	87193.336	-3.7396123e-05	621813.44	291087.25	-3.987819e-05	291087.7	621812.9	-0.00028095997
0	0.65183324	0.65183264	-2.2127014e-10	0.06752872	0.06752872	0	87161.49	87161.4	-2.9778394e-05	622018.1	290548.22	-0.0001450116	290548.62	622017.5	-0.0001812645
0	0.65159446	0.6515937	2.4201421e-10	0.06717499	0.06717499	0	87129.55	87129.445	3.1855954e-05	622221.94	290009.78	0.00020301624	290010.22	622221.4	9.425754e-05
0	0.65135753	0.6513568	-1.9361138e-10	0.06682174	0.06682174	0	87097.88	87097.78	-2.6315789e-05	622423.9	289476.38	-0.00011238399	289476.84	622423.25	-0.00013594837
0	0.6511164	0.65111566	-3.0424643e-10	0.06646816	0.06646816	0	87065.63	87065.53	-4.2243766e-05	622628.25	288934.28	-0.00015951275	288934.72	622627.6	-0.00026102088
0	0.65087175	0.6508711	-4.4254028e-10	0.066114426	0.066114426	0	87032.92	87032.82	-5.8864265e-05	622834.2	288386.03	-0.00018851509	288386.5	622833.44	-0.00042053364
0	0.6506303	0.6506295	-4.5636966e-10	0.06576087	0.06576087	0	87000.62	87000.52	-5.6786703e-05	623037.25	287844.66	-0.00027189674	287845.12	623036.56	-0.00027552203
0	0.6503847	0.650384	-3.2499053e-10	0.06540745	0.06540745	0	86967.79	86967.69	-4.2243766e-05	623242.7	287295.44	-0.00023201856	287295.94	623242.06	-0.00018851509
0	0.6501389	0.6501381	-2.6967298e-10	0.06505392	0.06505392	0	86934.914	86934.81	-3.67036e-05	623447.2	286746.75	-0.00026102088	286747.22	623446.6	-0.000106946056
0	0.64988923	0.64988846	-1.1754976e-10	0.06470019	0.06470019	0	86901.53	86901.43	-1.731302e-05	623653.2	286191.25	-9.063225e-05	286191.66	623652.56	-4.350348e-05
0	0.6496387	0.64963794	-4.287109e-10	0.06434663	0.06434663	0	86868.04	86867.93	-5.8171747e-05	623859.94	285633.84	-0.0004350348	285634.28	623859.3	-0.00013776102
0	0.6493891	0.6493884	-2.2127014e-10	0.06399319	0.06399319	0	86834.65	86834.55	-2.9085873e-05	624066.06	285078.22	-8.700696e-05	285078.66	624065.44	-0.00021570476
0	0.64913416	0.6491333	-5.047725e-10	0.06363963	0.06363963	0	86800.56	86800.45	-6.786703e-05	624273.56	284513.72	-0.00030089906	284514.2	624273	-0.0003860934
0	0.6488837	0.648883	-3.59564e-10	0.06328592	0.06328592	0	86767.08	86766.97	-4.7091413e-05	624479.5	283957.28	-0.00020301624	283957.7	624478.9	-0.00023926914
0	0.6486286	0.64862776	-5.255166e-10	0.062932625	0.062932625	0	86732.95	86732.85	-7.132964e-05	624686.56	283392.97	-0.00039153133	283393.47	624685.9	-0.00035165314
0	0.6483711	0.64837027	-2.3509952e-10	0.06257908	0.06257908	0	86698.52	86698.41	-3.3240998e-05	624895.2	282823.9	-0.00016676335	282824.34	624894.44	-0.0001812645
0	0.6481112	0.64811045	-8.9891e-11	0.062225346	0.062225346	0	86663.78	86663.68	-1.1080332e-05	625103.06	282252.2	-4.350348e-05	282252.7	625102.4	-8.700696e-05
0	0.647852	0.6478512	-1.9361138e-10	0.061871808	0.061871808	0	86629.125	86629.01	-2.7008311e-05	625311.7	281680.6	-0.0001450116	281681.1	625310.94	-0.00011238399
0	0.6475914	0.64759046	-3.457346e-10	0.06151834	0.06151834	0	86594.266	86594.16	-4.639889e-05	625519.94	281107.44	-0.00019939095	281107.94	625519.4	-0.00023564385
0	0.64732885	0.647328	-5.047725e-10	0.06116483	0.06116483	0	86559.164	86559.05	-6.371191e-05	625728.9	280531.06	-0.00020301624	280531.5	625728.1	-0.0004060325
0	0.647064	0.6470631	-3.457346e-11	0.06081111	0.060811114	0	86523.734	86523.62	-4.1551248e-06	625938.3	279950.7	-7.25058e-05	279951.22	625937.56	-1.812645e-05
0	0.646798	0.64679724	-2.627583e-10	0.060457572	0.060457572	0	86488.195	86488.07	-3.2548476e-05	626147.7	279369.12	-0.00017038864	279369.66	626146.94	-0.00013413573
0	0.64653075	0.64652985	-9.680569e-11	0.060104094	0.060104094	0	86452.445	86452.33	-1.5235457e-05	626357.2	278785.34	-7.25058e-05	278785.84	626356.5	-3.62529e-05
0	0.64626133	0.6462605	-3.457346e-10	0.059750553	0.059750553	0	86416.414	86416.31	-4.5706372e-05	626567.2	278198.25	-0.0002175174	278198.72	626566.56	-0.00022839327
0	0.645991	0.6459902	-5.3243127e-10	0.059396837	0.05939683	0	86380.28	86380.16	-6.925208e-05	626777.7	277609.28	-0.00035573158	277609.78	626777.1	-0.00035165314
0	0.6457185	0.6457177	-4.217962e-10	0.05904352	0.05904352	0	86343.836	86343.72	-5.5401662e-05	626988.9	277016.56	-0.000362529	277017.1	626988.1	-0.00018851509
0	0.64544463	0.64544374	-1.6595261e-10	0.058689978	0.058689978	0	86307.21	86307.09	-2.2853186e-05	627199.9	276422.2	-0.00017401393	276422.7	627199.06	-7.613109e-05
0	0.6451685	0.64516765	-4.1488152e-10	0.05833626	0.05833626	0	86270.29	86270.164	-5.5401662e-05	627410.9	275824.56	-0.00030452435	275825.1	627410.1	-0.00026827145
0	0.6448921	0.6448912	-4.287109e-10	0.057982747	0.057982747	0	86233.33	86233.21	-5.470914e-05	627622.5	275225.84	-0.00019893779	275226.44	627621.8	-0.0003697796
0	0.64461386	0.6446129	-4.0105214e-10	0.05762923	0.05762923	0	86196.11	86196	-5.6094184e-05	627834.25	274624.56	-0.00030452435	274625.1	627833.44	-0.00026464617
0	0.64433324	0.64433235	-1.5212322e-10	0.057275698	0.057275705	0	86158.59	86158.48	-2.1468144e-05	628046.6	274019.38	-7.975638e-05	274019.9	628045.9	-0.00012688515
0	0.64404935	0.6440485	-1.3137914e-10	0.056922037	0.056922037	0	86120.63	86120.52	-1.9390582e-05	628258.8	273409.78	-0.00020301624	273410.3	628258.06	6.525522e-05
0	0.64376724	0.6437662	-2.8350236e-10	0.05656851	0.05656851	0	86082.914	86082.79	-3.3240998e-05	628471.3	272802.16	-0.00020301624	272802.75	628470.6	-0.00015951275
0	0.643482	0.6434811	-2.9733174e-10	0.05621499	0.056214985	0	86044.78	86044.65	-4.2936288e-05	628684.94	272189.4	-0.00026464617	272189.94	628684.06	-0.00015951275
0	0.6431943	0.64319336	-6.914692e-12	0.05586147	0.05586147	0	86006.305	86006.19	-6.9252076e-07	628897.9	271573.62	2.900232e-05	271574.2	628897.1	-5.800464e-05
0	0.64290524	0.6429044	-2.2818483e-10	0.055507757	0.055507757	0	85967.66	85967.53	-2.9605264e-05	629112.25	270954.62	-2.900232e-05	270955.2	629111.5	-0.00024651972
0	0.6426152	0.64261425	-2.2818483e-10	0.05515441	0.05515441	0	85928.875	85928.75	-2.9778394e-05	629326.25	270334.5	-0.00026102088	270335.1	629325.5	-3.8065544e-05
0	0.64232326	0.64232224	-3.9413744e-10	0.05480089	0.05480089	0	85889.83	85889.695	-5.4016622e-05	629539.94	269712.03	-0.00027552203	269712.62	629539.2	-0.00023201856
0	0.6420285	0.64202756	-7.606161e-10	0.054447185	0.054447185	0	85850.414	85850.29	-0.00010180056	629754.06	269085.25	-0.00062354986	269085.78	629753.3	-0.00042597158
0	0.64173377	0.64173275	-3.3881992e-10	0.054093685	0.05409368	0	85811	85810.87	-4.432133e-05	629968.9	268457.72	-0.00011963457	268458.3	629968.1	-0.00031540022
0	0.64143604	0.6414351	-6.7763983e-10	0.05374012	0.05374012	0	85771.2	85771.06	-9.072022e-05	630183.8	267826.12	-0.00046403712	267826.75	630182.94	-0.00042053364
0	0.6411375	0.64113647	-2.0744076e-10	0.05338661	0.05338661	0	85731.26	85731.13	-2.9085873e-05	630399.06	267192.72	-0.00011600928	267193.3	630398.25	-0.00019576566
0	0.6408358	0.64083487	-1.2446445e-10	0.053032953	0.05303296	0	85690.94	85690.8	-1.5235457e-05	630614.9	266554.6	1.087587e-05	266555.22	630614.1	-0.00017038864
0	0.6405329	0.6405319	-3.1116115e-10	0.052679453	0.052679453	0	85650.43	85650.29	-4.0858726e-05	630830.44	265915.06	-0.00018851509	265915.7	630829.6	-0.00022476798
0	0.6402278	0.6402268	-3.6647868e-10	0.052325875	0.052325875	0	85609.63	85609.5	-4.639889e-05	631046.44	265271.9	-0.0002900232	265272.53	631045.6	-0.00019214037
0	0.6399227	0.6399216	-3.8030806e-10	0.051972385	0.051972385	0	85568.82	85568.69	-5.2631578e-05	631262.4	264628.62	-0.00011600928	264629.25	631261.6	-0.00041147042
0	0.6396125	0.6396115	-6.223223e-10	0.051618677	0.051618677	0	85527.36	85527.23	-8.3795014e-05	631479.94	263976.94	-0.00039153133	263977.56	631479.2	-0.00044953596
0	0.63930404	0.639303	-2.558436e-10	0.051265296	0.051265296	0	85486.11	85485.97	-3.601108e-05	631695.9	263329.12	-0.00024651972	263329.78	631695.06	-0.000106946056
0	0.63898826	0.6389872	-2.2127014e-10	0.050911795	0.050911795	0	85443.875	85443.734	-2.8393351e-05	631915.06	262667.78	-0.00015226218	262668.44	631914.2	-0.00013776102
0	0.63867867	0.6386776	-3.0424643e-10	0.0505581	0.0505581	0	85402.484	85402.35	-3.8781163e-05	632129.6	262019.86	-0.00019576566	262020.52	632128.8	-0.0002537703
0	0.63836235	0.63836133	-8.9891e-11	0.050204623	0.050204623	0	85360.195	85360.05	-1.0387812e-05	632347.7	261359.05	-2.900232e-05	261359.72	632346.8	-0.00012325986
0	0.63804394	0.6380428	-3.8722275e-10	0.049851004	0.049851004	0	85317.6	85317.46	-5.1246538e-05	632565.3	260695.48	-0.00026102088	260696.14	632564.5	-0.00026827145
0	0.6377243	0.6377232	-5.4626065e-10	0.049497522	0.049497522	0	85274.86	85274.72	-7.756233e-05	632783.1	260030.12	-0.00039153133	260030.84	632782.25	-0.00037703017
0	0.6374037	0.6374026	-2.0052607e-10	0.049143877	0.049143877	0	85231.99	85231.85	-2.5623269e-05	633001.5	259363.02	-0.00013051044	259363.67	633000.56	-0.0001250725
0	0.6370799	0.6370788	-3.59564e-10	0.048790403	0.048790403	0	85188.71	85188.555	-4.7091413e-05	633220.56	258690.64	-0.00022204901	258691.36	633219.75	-0.00027914732
0	0.63675475	0.6367536	-1.0372038e-10	0.048436757	0.048436765	0	85145.22	85145.08	-1.4542937e-05	633438.94	258017.11	-0.00013051044	258017.8	633438	-2.900232e-05
0	0.63642424	0.6364232	-2.489289e-10	0.048083298	0.048083298	0	85101.03	85100.88	-3.462604e-05	633658.1	257335.12	-0.00017401393	257335.8	633657.4	-0.00016313806
0	0.63609695	0.6360958	-1.9361138e-10	0.047729604	0.047729604	0	85057.26	85057.1	-2.3545706e-05	633877.4	256657.61	-0.00013413573	256658.33	633876.5	-0.00012688515
0	0.63576657	0.6357654	4.1488153e-11	0.04737618	0.047376174	0	85013.08	85012.92	4.8476454e-06	634096.06	255976.3	-2.900232e-05	255976.98	634095.25	6.525522e-05
0	0.63543385	0.6354328	-2.3509952e-10	0.0470227	0.047022708	0	84968.6	84968.445	-3.0470914e-05	634315.75	255290.98	-0.0001450116	255291.72	634314.8	-0.00015226218
0	0.63509816	0.635097	-3.7339337e-10	0.046669014	0.046669014	0	84923.7	84923.55	-5.0554016e-05	634535.75	254600.88	-0.00020301624	254601.62	634534.9	-0.00029546113
0	0.63475966	0.6347585	-3.7339337e-10	0.046315562	0.04631557	0	84878.44	84878.3	-4.7091413e-05	634755.4	253907.36	-0.00015951275	253908.11	634754.5	-0.00034077727
0	0.6344216	0.63442045	-2.3509952e-10	0.045961883	0.04596188	0	84833.234	84833.08	-3.3240998e-05	634975.94	253213.58	-0.00020301624	253214.33	634975	-0.00010513341
0	0.6340799	0.6340786	-2.6967298e-10	0.045608435	0.045608435	0	84787.55	84787.39	-3.601108e-05	635196.75	252514.3	-0.00021207947	252515.05	635195.8	-0.00012325986
0	0.63373584	0.6337346	-3.1116115e-10	0.0452548	0.0452548	0	84741.54	84741.375	-3.7396123e-05	635416.75	251812.53	-0.00024651972	251813.3	635415.9	-0.00015951275
0	0.63338935	0.63338816	-4.5636966e-10	0.04490134	0.04490134	0	84695.22	84695.05	-6.232687e-05	635638.8	251105.64	-0.00044953596	251106.42	635637.8	-0.00017582657
0	0.6330428	0.63304156	-5.3934596e-10	0.044547655	0.044547655	0	84648.875	84648.71	-7.132964e-05	635859.25	250399.89	-0.00032627612	250400.7	635858.44	-0.00037340488
0	0.63269144	0.6326902	-4.0796683e-10	0.044194218	0.044194214	0	84601.88	84601.73	-5.33241e-05	636081.2	249686.06	-0.00030452435	249686.88	636080.25	-0.00021026682
0	0.63234055	0.6323393	-3.3190523e-10	0.04384053	0.04384053	0	84554.98	84554.8	-4.432133e-05	636302.2	248973.75	-0.00024651972	248974.55	636301.4	-0.0002012036
0	0.6319866	0.6319853	-4.5636966e-10	0.043487072	0.043487072	0	84507.625	84507.47	-6.232687e-05	636523.8	248256.61	-0.00035165314	248257.42	636522.8	-0.00024470707
0	0.6316289	0.6316276	-1.8669669e-10	0.043133613	0.043133613	0	84459.805	84459.625	-2.6315789e-05	636746.06	247533.48	-0.00015951275	247534.3	636745.2	-7.25058e-05
0	0.6312719	0.63127065	-2.2818483e-10	0.04277993	0.04277993	0	84412.07	84411.9	-2.8393351e-05	636967.3	246812.45	-2.900232e-05	246813.28	636966.44	-0.00026283352
0	0.6309085	0.6309072	-1.728673e-10	0.042426463	0.042426463	0	84363.47	84363.29	-2.1468144e-05	637191.1	246079.9	-7.975638e-05	246080.72	637190.1	-0.0001413863
0	0.6305482	0.63054687	-2.9041705e-10	0.042072795	0.0420728	0	84315.29	84315.12	-3.8781163e-05	637412.06	245354.45	-0.00027552203	245355.28	637411.1	-0.00012325986
0	0.6301808	0.6301795	-6.2232226e-11	0.041719336	0.041719336	0	84266.17	84265.99	-4.1551248e-06	637634.06	244618.3	-0.00010150812	244619.12	637633	2.7189675e-05
0	0.6298151	0.6298138	-2.9733174e-10	0.04136572	0.04136572	0	84217.27	84217.09	-4.0858726e-05	637857.1	243883.17	-0.00019576566	243884.05	637856.06	-0.00019395302
0	0.62944573	0.62944436	0	0.041012254	0.041012254	0	84167.87	84167.69	0	638080.44	243142.67	-5.800464e-05	243143.53	638079.4	6.525522e-05
0	0.6290718	0.62907034	-3.526493e-10	0.040658582	0.040658582	0	84117.86	84117.69	-4.7783935e-05	638303	242396.52	-0.00018851509	242397.39	638302	-0.000250145
0	0.62869984	0.62869847	-2.6967298e-10	0.04030513	0.04030513	0	84068.13	84067.96	-3.601108e-05	638525.94	241652.86	-0.0001848898	241653.73	638524.94	-0.00017038864
0	0.6283228	0.6283214	-3.457346e-11	0.039951455	0.039951455	0	84017.73	84017.52	-5.540166e-06	638750.25	240900.77	-0.00015951275	240901.64	638749.25	0.0001087587
0	0.6279438	0.62794244	-3.7339337e-10	0.039597988	0.039597988	0	83967.04	83966.85	-4.9861497e-05	638973.06	240147.3	-0.00011600928	240148.2	638972	-0.0004024072
0	0.62756205	0.6275606	-1.3829384e-11	0.039244518	0.039244518	0	83916	83915.82	-2.0775624e-06	639197.8	239388.19	7.25058e-06	239389.11	639196.7	-6.7067864e-05
0	0.62717855	0.6271772	-3.0424643e-10	0.038890842	0.038890842	0	83864.72	83864.54	-4.2243766e-05	639421.1	238627.98	-0.0001450116	238628.9	639420.1	-0.0002537703
0	0.62679255	0.6267911	-2.2127014e-10	0.038537372	0.03853737	0	83813.1	83812.91	-3.1855954e-05	639645.5	237863.1	-0.0002900232	237864.03	639644.44	-2.900232e-05
0	0.62640196	0.6264006	-2.6967298e-10	0.038183715	0.038183715	0	83760.88	83760.695	-3.67036e-05	639870.8	237091.14	-0.00022476798	237092.08	639869.7	-0.00015588746
0	0.62601304	0.62601155	-1.728673e-10	0.037830245	0.037830245	0	83708.875	83708.67	-2.2853186e-05	640093.9	236323.48	-1.450116e-05	236324.42	640092.75	-0.00018851509
0	0.62562	0.62561846	-2.7658767e-10	0.03747658	0.03747658	0	83656.305	83656.11	-3.9473685e-05	640318.1	235548.84	-0.00017401393	235549.8	640317.06	-0.00022114269
0	0.6252246	0.6252231	-3.6647868e-10	0.037123166	0.037123166	0	83603.445	83603.25	-4.9861497e-05	640542.75	234770.75	-0.00034077727	234771.7	640541.6	-0.00015226218
0	0.62482435	0.6248229	-4.7019905e-10	0.03676951	0.03676951	0	83549.92	83549.71	-6.371191e-05	640766.7	233986.36	-0.0003335267	233987.36	640765.6	-0.00026827145
0	0.6244227	0.6244212	-1.1754976e-10	0.036416043	0.036416043	0	83496.22	83496.016	-1.5235457e-05	640993.94	233196.94	-5.800464e-05	233197.92	640992.75	-9.607019e-05
0	0.6240219	0.6240204	-3.8030806e-10	0.036062382	0.036062382	0	83442.625	83442.414	-5.4016622e-05	641217.06	232412.62	-0.00035165314	232413.66	641215.94	-0.00017401393
0	0.6236162	0.62361467	0	0.035708904	0.035708904	0	83388.37	83388.164	-2.770083e-06	641442.2	231619.44	-0.00012325986	231620.44	641441.06	9.425754e-05
0	0.6232066	0.623205	-6.914692e-11	0.035355415	0.035355415	0	83333.59	83333.39	-7.6177284e-06	641668.44	230819.78	-2.900232e-05	230820.81	641667.25	-4.5316126e-05
0	0.6227974	0.62279594	-3.457346e-10	0.03500176	0.03500176	0	83278.88	83278.68	-4.7091413e-05	641892.8	230022.61	-0.00038065546	230023.66	641891.7	-0.00011238399
0	0.6223835	0.62238187	-3.8722275e-10	0.03464827	0.03464827	0	83223.52	83223.32	-4.9861497e-05	642118.56	229217.27	-0.00032627612	229218.33	642117.3	-0.00018851509
0	0.621965	0.6219635	-1.4520853e-10	0.034294635	0.034294635	0	83167.586	83167.375	-1.6620499e-05	642345.3	228404.64	-0.00011600928	228405.69	642344.25	-5.800464e-05
0	0.62154746	0.6215458	-2.558436e-10	0.033941146	0.033941146	0	83111.734	83111.516	-3.1163436e-05	642570.56	227594.83	-0.00017582657	227595.9	642569.3	-0.00015588746
0	0.6211265	0.62112486	-3.1116115e-10	0.033587497	0.033587497	0	83055.445	83055.234	-4.2936288e-05	642795.9	226780.08	-0.0002827726	226781.16	642794.75	-0.00013051044
0	0.6207028	0.62070113	-3.7339337e-10	0.03323408	0.03323408	0	82998.79	82998.57	-5.1246538e-05	643021.75	225961.03	-0.0002175174	225962.11	643020.6	-0.0003299014
0	0.6202763	0.62027466	-4.356256e-10	0.032880437	0.032880437	0	82941.766	82941.55	-5.6786703e-05	643247.25	225138.45	-0.00020845418	225139.58	643246.06	-0.0003534658
0	0.6198466	0.6198449	2.0744076e-10	0.03252696	0.03252696	0	82884.305	82884.08	2.9085873e-05	643473.5	224310.58	0.00022476798	224311.73	643472.25	5.075406e-05
0	0.6194149	0.6194132	-2.938744e-10	0.032173313	0.032173313	0	82826.586	82826.36	-4.0858726e-05	643699	223480.67	-0.00023926914	223481.8	643697.8	-0.00019214037
0	0.61897933	0.6189777	-2.9733174e-10	0.031819817	0.031819817	0	82768.35	82768.12	-4.2243766e-05	643925.75	222644.27	-8.3381674e-05	222645.4	643924.44	-0.00035527843
0	0.618541	0.6185393	-5.255166e-10	0.031466313	0.031466313	0	82709.73	82709.5	-7.132964e-05	644152.56	221803.67	-0.00034077727	221804.84	644151.4	-0.00034077727
0	0.6181019	0.6181001	-1.79782e-10	0.031112673	0.031112673	0	82651.01	82650.78	-2.0775624e-05	644378.25	220963.19	-5.075406e-05	220964.36	644377.06	-0.00017220128
0	0.6176594	0.61765766	-3.3881992e-10	0.030759167	0.030759167	0	82591.84	82591.61	-4.5706372e-05	644603.5	220118.55	-0.00016676335	220119.72	644602.2	-0.00029364848
0	0.6172114	0.61720973	-5.5317535e-11	0.030405557	0.030405555	0	82531.93	82531.7	-6.925208e-06	644831.7	219263.11	-1.450116e-05	219264.31	644830.4	-3.62529e-05
0	0.6167631	0.6167614	1.1754976e-10	0.030052047	0.030052047	0	82471.99	82471.766	1.6620499e-05	645056	218411.17	7.25058e-06	218412.38	645054.75	0.0001413863
0	0.6163134	0.6163116	-4.217962e-10	0.029698418	0.029698415	0	82411.85	82411.625	-5.6786703e-05	645282.4	217555.23	-0.00034077727	217556.47	645281	-0.00022114269
0	0.61585855	0.6158567	-1.3829383e-10	0.029344989	0.029344989	0	82351.03	82350.79	-1.9390582e-05	645508.7	216692	-0.0001087587	216693.23	645507.44	-7.25058e-05
0	0.61540014	0.6153982	-3.3190523e-10	0.028991373	0.028991373	0	82289.73	82289.48	-4.8476453e-05	645736.1	215822.73	-0.0003190255	215823.97	645734.8	-0.00015226218
0	0.61493915	0.6149373	-3.2499053e-10	0.028637849	0.028637853	0	82228.09	82227.85	-4.1551248e-05	645962.2	214951.4	-0.0002175174	214952.66	645960.8	-0.00019576566
0	0.61447674	0.614475	-5.255166e-10	0.028284255	0.028284254	0	82166.27	82166.02	-6.925208e-05	646189.3	214076.94	-0.0004060325	214078.22	646187.94	-0.0002900232
0	0.61400944	0.61400753	-2.0052607e-10	0.027930735	0.027930735	0	82103.77	82103.52	-2.9778394e-05	646415.94	213195.98	-0.0003190255	213197.28	646414.6	3.62529e-05
0	0.6135379	0.613536	-2.9041705e-10	0.027577205	0.027577205	0	82040.72	82040.46	-3.7396123e-05	646645	212306.7	-0.00040965778	212308.05	646643.56	2.537703e-05
0	0.6130663	0.6130644	-2.2127014e-10	0.027223593	0.027223593	0	81977.664	81977.414	-2.9085873e-05	646869.6	211421.8	-0.0003190255	211423.12	646868.3	1.450116e-05
0	0.61259085	0.6125888	-4.0105214e-10	0.02687006	0.02687006	0	81914.08	81913.81	-5.2631578e-05	647098.1	210527.56	-0.00027552203	210528.9	647096.8	-0.0002573956
0	0.61211234	0.6121103	-5.3934596e-10	0.026516477	0.02651648	0	81850.09	81849.836	-6.9944595e-05	647323.3	209632.66	-0.0004060325	209634.02	647321.9	-0.0003190255
0	0.6116298	0.61162776	-5.4626065e-10	0.026162937	0.026162934	0	81785.57	81785.305	-6.925208e-05	647552	208728.28	-0.00042778422	208729.62	647550.56	-0.00027552203
0	0.6111449	0.6111429	-3.3881992e-10	0.02580934	0.02580934	0	81720.74	81720.48	-4.639889e-05	647778.8	207822.69	-0.000362529	207824.05	647777.4	-9.063225e-05
0	0.6106582	0.6106562	-2.9733174e-10	0.025455898	0.025455898	0	81655.664	81655.39	-3.808864e-05	648004.8	206915.27	-0.0003226508	206916.64	648003.44	-0.00010513341
0	0.61016756	0.6101656	-4.5636966e-10	0.025102312	0.025102312	0	81590.05	81589.78	-6.232687e-05	648231.5	206001.72	-0.0001087587	206003.12	648230.06	-0.0005147912
0	0.6096731	0.60967094	-4.8402844e-11	0.024748761	0.024748761	0	81523.92	81523.66	-5.540166e-06	648458.3	205082.52	-0.00018851509	205083.95	648456.9	9.063225e-05
0	0.60917366	0.6091716	-4.8402843e-10	0.024395201	0.024395201	0	81457.15	81456.88	-6.786703e-05	648686.25	204155.45	-0.00044591067	204156.89	648684.8	-0.0002175174
0	0.60867244	0.60867035	6.914692e-12	0.024041649	0.024041649	0	81390.13	81389.85	-2.0775624e-06	648911.3	203228.69	-0.0001450116	203230.12	648909.9	0.00013776102
0	0.6081701	0.60816795	-3.0424643e-10	0.023688087	0.02368809	0	81322.95	81322.664	-4.2936288e-05	649139.06	202297.56	-0.00023201856	202299.02	649137.6	-0.00021389211
0	0.6076629	0.60766083	-3.7339337e-10	0.023334507	0.023334507	0	81255.14	81254.85	-5.0554016e-05	649364.56	201362.06	-0.00034440256	201363.55	649363	-0.00017582657
0	0.607152	0.6071498	-3.7339337e-10	0.022980941	0.022980941	0	81186.81	81186.52	-4.8476453e-05	649592.25	200418.92	-0.00038428075	200420.45	649590.8	-8.700696e-05
0	0.6066369	0.6066346	-3.6647868e-10	0.0226274	0.0226274	0	81117.92	81117.64	-4.8476453e-05	649819.7	199470.36	-0.0004060325	199471.92	649818.2	-9.425754e-05
0	0.606118	0.6061158	-4.8402843e-10	0.022273827	0.022273827	0	81048.55	81048.26	-6.6481996e-05	650046.8	198516.8	-0.00031721286	198518.38	650045.3	-0.00033533934
0	0.605599	0.60559684	-4.0796683e-10	0.021920266	0.021920266	0	80979.16	80978.86	-5.2631578e-05	650272.44	197564.6	-0.0003335267	197566.16	650270.9	-0.00017401393
0	0.60507345	0.6050712	-4.978578e-10	0.021566804	0.021566804	0	80908.875	80908.58	-6.4404434e-05	650499.6	196601.56	-0.00026102088	196603.16	650498.1	-0.00034440256
0	0.60454696	0.6045447	-5.186019e-10	0.021213232	0.021213232	0	80838.48	80838.17	-6.7174515e-05	650725.06	195639.06	-0.0003543721	195640.69	650723.5	-0.00030452435
0	0.6040147	0.6040124	-3.6647868e-10	0.020859668	0.020859668	0	80767.3	80766.99	-4.9861497e-05	650952.44	194666.44	-0.0002827726	194668.06	650950.94	-0.00022476798
0	0.60347915	0.6034769	-4.287109e-10	0.020506127	0.020506127	0	80695.7	80695.39	-5.7479225e-05	651179.2	193690.03	-0.00023926914	193691.66	651177.6	-0.000306337
0	0.60294247	0.60294014	-3.6647868e-10	0.020152565	0.020152565	0	80623.93	80623.625	-5.4016622e-05	651403.1	192714.69	-0.00028458526	192716.36	651401.5	-0.00024289443
0	0.602397	0.6023947	-2.0052607e-10	0.019798994	0.019798994	0	80550.99	80550.68	-2.7700831e-05	651630.5	191723.72	-0.00018851509	191725.39	651628.8	-0.00010150812
0	0.6018528	0.6018504	-5.808341e-10	0.019445421	0.019445421	0	80478.22	80477.9	-7.963989e-05	651858.2	190733.97	-0.00049303944	190735.7	651856.56	-0.00026102088
0	0.60130304	0.6013007	-2.489289e-10	0.019091858	0.019091858	0	80404.73	80404.4	-3.7396123e-05	652084.44	189738.22	-0.0002012036	189739.95	652082.75	-0.00017220128
0	0.60074997	0.60074747	-2.558436e-10	0.01873829	0.01873829	0	80330.76	80330.42	-3.67036e-05	652310.75	188737.47	-0.0003190255	188739.2	652309	-4.350348e-05
0	0.60019326	0.6001908	-1.79782e-10	0.018384755	0.018384755	0	80256.32	80255.99	-2.7008311e-05	652536.56	187732.23	-0.00027552203	187734	652534.94	3.262761e-05
0	0.599632	0.5996295	-3.457346e-11	0.018031191	0.018031191	0	80181.25	80180.92	-6.925208e-06	652763	186719.95	-3.62529e-06	186721.75	652761.25	-5.800464e-05
0	0.59906954	0.59906703	-2.0744077e-11	0.017677708	0.017677708	0	80106.06	80105.72	-4.8476454e-06	652986.44	185709.11	3.62529e-05	185710.94	652984.75	-7.975638e-05
0	0.59849936	0.59849674	-2.7658767e-10	0.017324135	0.017324135	0	80029.8	80029.46	-3.531856e-05	653214.7	184682.5	-0.00024651972	184684.34	653212.94	-0.00013232308
0	0.5979292	0.59792656	-2.558436e-10	0.016970573	0.016970573	0	79953.56	79953.23	-3.1163436e-05	653438	183660.97	-0.00028095997	183662.83	653436.25	-3.62529e-05
0	0.597353	0.5973504	-4.0796683e-10	0.01661704	0.01661704	0	79876.52	79876.17	-5.6094184e-05	653663.25	182628.98	-0.0003697796	182630.88	653661.6	-0.00018851509
0	0.5967712	0.5967686	-3.59564e-10	0.01626348	0.01626348	0	79798.72	79798.375	-4.5706372e-05	653891.5	181586.33	-0.00015951275	181588.22	653889.6	-0.00030814964
0	0.5961885	0.59618586	-2.8350236e-10	0.015909908	0.015909908	0	79720.81	79720.445	-3.8781163e-05	654114.6	180547.3	-0.0003226508	180549.23	654112.9	-6.888051e-05
0	0.5956014	0.5955987	-2.8350236e-10	0.015556336	0.015556336	0	79642.3	79641.93	-3.7396123e-05	654339.7	179500.23	-0.0002827726	179502.2	654337.94	-7.25058e-05
0	0.59500945	0.59500676	-4.0796683e-10	0.015202778	0.015202778	0	79563.16	79562.79	-5.2631578e-05	654565.1	178446.17	-0.00029727377	178448.16	654563.3	-0.00023201856
0	0.5944121	0.5944093	-3.7339337e-10	0.014849207	0.014849207	0	79483.266	79482.91	-5.1246538e-05	654792.56	177382.3	-0.0002796005	177384.3	654790.75	-0.000250145
0	0.59381187	0.59380907	-5.047725e-10	0.014495687	0.014495687	0	79403.016	79402.63	-6.925208e-05	655017.56	176317.02	-0.0005727958	176319.06	655015.75	-0.00011600928
0	0.5932092	0.5932064	-1.9361138e-10	0.014142128	0.014142128	0	79322.43	79322.055	-2.2160664e-05	655239.94	175250.92	-0.00016676335	175252.97	655238.1	-8.881961e-05
0	0.5925991	0.5925962	-3.1807584e-10	0.013788602	0.013788602	0	79240.83	79240.45	-4.0858726e-05	655467.4	174169.12	-0.00020664153	174171.23	655465.5	-0.00018851509
0	0.59198797	0.59198517	-3.1807584e-10	0.01343503	0.01343503	0	79159.13	79158.74	-4.0166204e-05	655689.44	173091.72	-0.00022658063	173093.83	655687.44	-0.00021026682
0	0.59137076	0.5913679	-4.909431e-10	0.013081469	0.013081469	0	79076.6	79076.22	-6.578947e-05	655913.75	172003.2	-0.00037703017	172005.36	655911.94	-0.0002863979
0	0.5907488	0.59074575	-3.1807584e-10	0.012727949	0.012727949	0	78993.42	78993.03	-4.362881e-05	656140.75	170905.33	-0.0002093605	170907.5	656138.8	-0.00021389211
0	0.5901249	0.5901219	-2.627583e-10	0.012374381	0.012374381	0	78909.99	78909.59	-3.7396123e-05	656362.6	169809.97	-0.00038428075	169812.19	656360.7	1.450116e-05
0	0.5894952	0.58949214	-2.4201421e-10	0.0120208245	0.0120208245	0	78825.8	78825.39	-3.3933517e-05	656586.75	168704.23	-0.00027552203	168706.52	656584.8	-5.075406e-05
0	0.58885914	0.5888561	-4.287109e-10	0.011667253	0.011667253	0	78740.74	78740.34	-5.8864265e-05	656811.25	167589.31	-0.0004563334	167591.61	656809.25	-0.00013594837
0	0.5882194	0.58821636	-2.3509952e-10	0.0113137	0.0113137	0	78655.21	78654.8	-3.1163436e-05	657037.56	166467.42	-0.00023201856	166469.73	657035.56	-7.975638e-05
0	0.5875767	0.5875736	-8.9891e-11	0.010960133	0.010960133	0	78569.26	78568.84	-1.1772853e-05	657261.2	165343.97	-7.975638e-05	165346.3	657259.06	-6.3442574e-05
0	0.5869291	0.586926	-9.473128e-10	0.010606616	0.010606616	0	78482.664	78482.24	-0.0001267313	657482.25	164216.22	-0.0005365429	164218.58	657480.25	-0.0007123695
0	0.58627534	0.5862722	-1.1063507e-10	0.010253063	0.010253063	0	78395.25	78394.83	-1.5235457e-05	657708.7	163074.52	-0.00020301624	163076.9	657706.5	5.800464e-05
0	0.5856213	0.58561814	-4.217962e-10	0.009899497	0.009899497	0	78307.8	78307.36	-5.7479225e-05	657928.94	161938.52	-0.00034802785	161940.94	657926.9	-0.00020664153
0	0.584957	0.5849538	-3.457346e-10	0.009545929	0.009545929	0	78218.97	78218.53	-4.432133e-05	658155	160782.39	-0.00027552203	160784.86	658152.94	-0.00017763922
0	0.58429044	0.5842872	-2.9041705e-10	0.009192377	0.009192377	0	78129.836	78129.38	-3.9473685e-05	658378.2	159625.98	-0.00024651972	159628.47	658376	-0.00017401393
0	0.583621	0.5836177	-3.146185e-10	0.008838854	0.008838854	0	78040.32	78039.88	-4.2936288e-05	658598.2	158468.73	-0.00032627612	158471.27	658596.06	-7.975638e-05
0	0.5829414	0.58293813	-2.6621563e-10	0.0084852865	0.0084852865	0	77949.45	77949	-3.3240998e-05	658824.7	157290.9	-0.00027688153	157293.45	658822.5	-4.1690837e-05
0	0.5822624	0.582259	-4.5636966e-10	0.00813174	0.00813174	0	77858.65	77858.19	-6.024931e-05	659044.4	156120.36	-0.000362529	156122.94	659042.25	-0.0002175174
0	0.5815749	0.58157134	-1.6595261e-10	0.007778168	0.007778168	0	77766.71	77766.25	-2.1468144e-05	659269.8	154932.4	-0.00031177493	154935.06	659267.56	7.975638e-05
0	0.5808842	0.58088076	-3.007891e-10	0.0074246037	0.0074246037	0	77674.375	77673.9	-3.8781163e-05	659492.06	153743.2	-0.00018806192	153745.89	659489.94	-0.00020845418
0	0.58018994	0.5801864	-1.3829383e-10	0.007071064	0.0070710634	0	77581.53	77581.05	-1.9390582e-05	659712.2	152551.14	-0.00029727377	152553.86	659709.9	9.425754e-05
0	0.5794881	0.5794845	-6.223223e-10	0.006717515	0.006717515	0	77487.67	77487.195	-8.3795014e-05	659934.06	151346.61	-0.00048578886	151349.38	659931.8	-0.00034077727
0	0.57877994	0.5787763	-2.7313032e-10	0.0063639744	0.0063639744	0	77392.98	77392.484	-3.808864e-05	660159.25	150129.81	-0.00029863327	150132.62	660156.94	-8.700696e-05