# t (s)	mx ()	my ()	mz ()	B_extx (T)	B_exty (T)	B_extz (T)	m_fullx (A/m)	m_fully (A/m)	m_fullz (A/m)	m_full.region1x (A/m)	m_full.region1y (A/m)	m_full.region1z (A/m)	m_full.region2x (A/m)	m_full.region2y (A/m)	m_full.region2z (A/m)
0	0.65684974	0.65684724	-2.869597e-10	0.07071067	0.07071067	0	161772.72	161772.08	-7.142857e-05	614089.56	305497.9	-0.00016676335	305500.1	614088.2	-0.00022476798
0	0.65665096	0.65665036	-2.489289e-10	0.070357196	0.070357196	0	161723.75	161723.6	-6.441327e-05	614263.5	305047.44	-0.00019939095	305047.8	614263	-0.00016676335
0	0.6564468	0.65644634	-1.7113863e-10	0.07000352	0.07000351	0	161673.48	161673.36	-4.336735e-05	614444.06	304581.2	-9.425754e-05	304581.44	614443.7	-0.0001413863
0	0.65624213	0.6562416	-1.918827e-10	0.069650054	0.069650054	0	161623.08	161622.95	-4.7512756e-05	614625.8	304112.84	-0.0001413863	304113.16	614625.5	-0.0001413863
0	0.6560367	0.65603614	-2.5930094e-10	0.0692964	0.0692964	0	161572.45	161572.33	-5.628189e-05	614806.44	303644.44	-0.00012688515	303644.75	614806.1	-0.00021389211
0	0.655829	0.6558285	-4.096955e-10	0.06894299	0.06894299	0	161521.31	161521.19	-0.00010499043	614987.8	303172.5	-0.00032083815	303172.78	614987.44	-0.00026464617
0	0.6556213	0.6556209	-5.237879e-10	0.06858932	0.06858932	0	161470.16	161470.05	-0.00012818878	615170.44	302699.16	-0.00034802785	302699.4	615170	-0.00037340488
0	0.65541136	0.6554109	-3.336339e-10	0.068235844	0.06823584	0	161418.45	161418.34	-8.0915175e-05	615352.9	302222.75	-0.00020301624	302223	615352.56	-0.00027552203
0	0.6552016	0.6552011	3.457346e-12	0.06788219	0.067882195	0	161366.8	161366.67	-1.5943878e-06	615534.75	301747.12	-2.900232e-05	301747.44	615534.4	1.812645e-05
0	0.6549888	0.6549884	-1.4866587e-10	0.067528725	0.067528725	0	161314.39	161314.27	-3.236607e-05	615718.1	301265.97	-0.00015588746	301266.25	615717.75	-2.175174e-05
0	0.6547766	0.65477616	-2.178128e-10	0.06717506	0.06717506	0	161262.14	161262.02	-5.6760204e-05	615901.44	300785.56	-0.00014863689	300785.88	615901	-0.00015951275
0	0.6545626	0.6545621	-5.6527605e-10	0.066821575	0.066821575	0	161209.42	161209.3	-0.00013807398	616084.9	300302.4	-0.00044409803	300302.7	616084.5	-0.000362529
0	0.6543475	0.65434706	-4.805711e-10	0.06646809	0.06646809	0	161156.44	161156.33	-0.000120615434	616268.56	299817.62	-0.00042415893	299817.9	616268.1	-0.0002827726
0	0.654131	0.6541306	-3.526493e-10	0.06611443	0.06611443	0	161103.11	161103	-8.928571e-05	616452.75	299330.4	-0.00026827145	299330.7	616452.4	-0.00023564385
0	0.6539135	0.653913	-5.5836136e-10	0.06576097	0.06576097	0	161049.55	161049.44	-0.00014094388	616637	298841.62	-0.00035527843	298841.94	616636.56	-0.00045678654
0	0.6536919	0.6536915	-4.8402843e-10	0.06540731	0.06540731	0	160994.98	160994.86	-0.00011495536	616823	298345.34	-0.00030814964	298345.66	616822.6	-0.00037703017
0	0.6534749	0.6534744	-3.3190523e-10	0.0650539	0.0650539	0	160941.53	160941.44	-8.227041e-05	617006.06	297858.5	-0.00017763922	297858.78	617005.75	-0.0002900232
0	0.6532535	0.6532529	-3.4400593e-10	0.064700246	0.064700246	0	160887	160886.88	-8.474171e-05	617190.7	297363.94	-0.00015951275	297364.2	617190.3	-0.0003335267
0	0.65302885	0.65302825	8.9199526e-10	0.06434676	0.06434676	0	160831.67	160831.55	0.00022680165	617376.9	296863.25	0.00057098316	296863.5	617376.4	0.00067430397
0	0.6528068	0.6528063	-8.7297986e-10	0.063993126	0.063993126	0	160776.98	160776.86	-0.00021301021	617562.3	296366.94	-0.00078306266	296367.22	617561.94	-0.00046041183
0	0.65258217	0.65258163	-2.7658768e-11	0.06363964	0.06363964	0	160721.66	160721.55	-7.653061e-06	617748.44	295866.3	1.2688515e-05	295866.62	617748	-3.987819e-05
0	0.6523538	0.65235335	-1.2273578e-10	0.063285984	0.063285984	0	160665.42	160665.3	-3.3163265e-05	617935.6	295359.4	-1.450116e-05	295359.7	617935.2	-0.00016313806
0	0.6521285	0.652128	-3.6647868e-10	0.0629325	0.06293249	0	160609.92	160609.8	-8.6894135e-05	618121	294858.53	-0.0002827726	294858.84	618120.6	-0.0002175174
0	0.6518967	0.6518962	-2.2818483e-10	0.062579	0.062579	0	160552.86	160552.72	-5.6760204e-05	618309.4	294345.72	-0.00012688515	294346	618309	-0.00017763922
0	0.6516703	0.6516696	-1.8323934e-10	0.062225346	0.062225346	0	160497.06	160496.92	-4.6316964e-05	618494.25	293843.75	-0.00017401393	293844.06	618493.8	-9.788283e-05
0	0.65143836	0.6514378	-3.6475e-10	0.061871875	0.061871875	0	160439.97	160439.84	-8.434311e-05	618682	293331.4	-0.00023564385	293331.75	618681.56	-0.0002419881
0	0.65120256	0.65120214	-4.2525355e-10	0.061518237	0.061518237	0	160381.9	160381.78	-0.000102040816	618870.4	292812.97	-0.0002537703	292813.34	618869.94	-0.0003299014
0	0.65097183	0.6509713	-1.8669669e-10	0.061164815	0.061164815	0	160325.06	160324.94	-4.4722576e-05	619057.2	292303.12	-0.0001848898	292303.4	619056.75	-8.700696e-05
0	0.6507365	0.65073603	-2.3509952e-10	0.060811166	0.060811166	0	160267.1	160266.97	-5.6441328e-05	619244.7	291786.12	-0.00017582657	291786.47	619244.25	-0.00011963457
0	0.6504998	0.6504993	-2.4028554e-10	0.06045767	0.06045767	0	160208.8	160208.67	-5.835459e-05	619433.44	291265.94	-0.00016313806	291266.28	619433.06	-0.00014863689
0	0.6502621	0.6502615	-1.2273578e-10	0.06010405	0.060104053	0	160150.27	160150.12	-2.6466836e-05	619622.06	290744.6	-7.975638e-05	290744.94	619621.56	-6.162993e-05
0	0.6500229	0.65002245	4.667417e-11	0.05975055	0.05975055	0	160091.36	160091.23	1.4030612e-05	619810.56	290221.22	9.607019e-05	290221.56	619810.1	-2.537703e-05
0	0.6497818	0.64978117	-3.3017655e-10	0.059396908	0.059396908	0	160031.97	160031.83	-7.716837e-05	619999.8	289694.28	-0.00027914732	289694.62	619999.4	-0.00012688515
0	0.6495387	0.64953804	-1.4866587e-10	0.05904341	0.05904341	0	159972.08	159971.94	-3.8265305e-05	620189.2	289164.6	-5.800464e-05	289164.9	620188.7	-0.00017763922
0	0.6492967	0.649296	-4.909431e-10	0.0586899	0.0586899	0	159912.45	159912.33	-0.000117586096	620379.06	288635.8	-0.00038065546	288636.16	620378.6	-0.00034802785
0	0.64905185	0.6490513	-1.7113863e-10	0.058336265	0.05833626	0	159852.2	159852.06	-4.0816325e-05	620569.1	288103.2	-0.00012688515	288103.56	620568.6	-0.00012325986
0	0.6488056	0.6488051	-2.0744076e-10	0.05798278	0.05798278	0	159791.55	159791.42	-5.4288903e-05	620758.7	287568.88	-0.00017038864	287569.2	620758.25	-9.063225e-05
0	0.64855754	0.64855695	-1.79782e-10	0.05762915	0.05762915	0	159730.45	159730.33	-4.392538e-05	620949.1	287031.12	-0.00019576566	287031.47	620948.7	-5.437935e-05
0	0.6483097	0.6483092	-3.59564e-10	0.057275645	0.057275645	0	159669.42	159669.28	-9.119898e-05	621139	286494.22	-0.00030089906	286494.53	621138.56	-0.00022839327
0	0.6480583	0.64805776	-2.8523103e-10	0.05692209	0.05692209	0	159607.52	159607.38	-6.816008e-05	621330.56	285950.75	-0.00014319895	285951.1	621330.1	-0.00023201856
0	0.6478074	0.6478068	-4.0105214e-10	0.056568585	0.056568585	0	159545.72	159545.58	-0.00010188138	621521.6	285408.44	-0.00032446344	285408.8	621521.06	-0.00023564385
0	0.6475535	0.64755297	-4.995865e-10	0.056214973	0.056214973	0	159483.19	159483.05	-0.00012627551	621712.3	284862.28	-0.00029364848	284862.6	621711.9	-0.00041690835
0	0.64729905	0.64729846	-4.995865e-10	0.05586147	0.05586147	0	159420.52	159420.36	-0.00012484056	621904.7	284313.66	-0.00031721286	284314.03	621904.1	-0.00038428075
0	0.6470442	0.6470435	1.0199171e-10	0.055507842	0.055507842	0	159357.73	159357.6	1.9770408e-05	622095.5	283766	-2.3564386e-05	283766.34	622095	0.00013413573
0	0.6467851	0.6467845	-1.4347985e-10	0.055154327	0.055154327	0	159293.94	159293.78	-3.1728316e-05	622288.06	283210.7	-1.2688515e-05	283211.03	622287.56	-0.0001848898
0	0.64652425	0.64652365	-2.299135e-10	0.054800812	0.054800812	0	159229.69	159229.53	-5.484694e-05	622480.7	282652.88	-0.0001413863	282653.2	622480.2	-0.0001812645
0	0.6462663	0.64626575	-2.489289e-10	0.054447185	0.054447185	0	159166.17	159166.02	-6.441327e-05	622673	282099.56	-0.00017038864	282099.9	622672.44	-0.00019576566
0	0.6460032	0.6460026	-4.166102e-10	0.054093685	0.054093685	0	159101.36	159101.2	-0.00010379464	622865.44	281538.66	-0.0003299014	281539	622865.06	-0.0002900232
0	0.64574087	0.6457403	-5.479893e-10	0.05374007	0.05374007	0	159036.75	159036.6	-0.00013352997	623058.5	280978.34	-0.0003579974	280978.72	623057.94	-0.0004060325
0	0.6454753	0.6454747	-3.457346e-11	0.05338655	0.05338655	0	158971.34	158971.19	-7.971938e-06	623251.5	280413.56	-5.6191995e-05	280413.88	623251.06	7.25058e-06
0	0.6452088	0.6452082	-2.0916943e-10	0.053033024	0.053033024	0	158905.72	158905.56	-5.3252552e-05	623445.3	279846.66	-0.00015951275	279847.1	623444.8	-0.00013776102
0	0.64494085	0.64494026	-2.1435545e-10	0.0526795	0.0526795	0	158839.72	158839.56	-4.9107144e-05	623638.6	279278.25	-0.00015044953	279278.66	623638.1	-0.00015951275
0	0.64466906	0.6446684	-3.1634717e-10	0.052325882	0.052325882	0	158772.78	158772.62	-7.549426e-05	623833.4	278702.88	-0.0002573956	278703.22	623833	-0.00016676335
0	0.6443993	0.6443987	-2.938744e-10	0.05197238	0.05197238	0	158706.34	158706.2	-7.461735e-05	624026.75	278131.9	-0.00028458526	278132.3	624026.25	-0.00014863689
0	0.6441268	0.6441261	-8.9891e-11	0.051618766	0.051618766	0	158639.23	158639.08	-2.3038903e-05	624220.9	277556.28	6.7067864e-05	277556.66	624220.3	-0.0001812645
0	0.6438529	0.6438522	-3.2499053e-10	0.05126524	0.05126524	0	158571.77	158571.61	-7.9081634e-05	624415.25	276978.38	-0.0002655525	276978.75	624414.75	-0.0001848898
0	0.6435772	0.6435766	2.0744077e-11	0.050911706	0.050911706	0	158503.89	158503.7	2.072704e-06	624609.75	276397.94	5.9817285e-05	276398.34	624609.25	-2.175174e-05
0	0.6432987	0.6432981	-1.3483649e-10	0.050558105	0.050558105	0	158435.28	158435.12	-3.6989797e-05	624804.44	275813.4	-6.525522e-05	275813.84	624803.9	-0.00011238399
0	0.64302045	0.6430198	-2.28617e-10	0.05020459	0.05020459	0	158366.77	158366.6	-5.8992347e-05	624999.44	275228.84	-0.00015044953	275229.28	624998.9	-0.00018851509
0	0.64273983	0.64273924	-1.5385189e-10	0.049850978	0.049850978	0	158297.64	158297.5	-3.635204e-05	625194.9	274640.47	-5.3473028e-05	274640.94	625194.44	-0.00015588746
0	0.642457	0.6424564	-9.5077016e-11	0.049497455	0.049497455	0	158228	158227.83	-2.1045918e-05	625390.1	274049.28	2.0845418e-05	274049.7	625389.56	-0.0001450116
0	0.6421734	0.64217263	-2.6448696e-10	0.049143948	0.049143948	0	158158.11	158157.95	-7.142857e-05	625586.1	273456.16	-0.00020482889	273456.6	625585.56	-0.00013776102
0	0.6418879	0.64188725	-1.9706872e-10	0.048790418	0.048790414	0	158087.81	158087.66	-4.7831632e-05	625781.8	272860.88	-0.00021389211	272861.28	625781.3	-6.525522e-05
0	0.6416002	0.6415995	-3.8203674e-10	0.048436802	0.048436802	0	158016.97	158016.8	-9.8134566e-05	625977.9	272262.03	-0.00038065546	272262.47	625977.25	-0.00020664153
0	0.6413116	0.6413109	-1.1063507e-10	0.04808329	0.04808329	0	157945.88	157945.7	-2.4234694e-05	626174.1	271661.72	-0.0001450116	271662.16	626173.56	5.075406e-05
0	0.64101833	0.6410177	-1.0372038e-11	0.047729697	0.047729697	0	157873.67	157873.5	-3.1887755e-06	626370.4	271054.97	-7.431844e-05	271055.4	626369.75	5.075406e-05
0	0.64072585	0.64072514	-2.7658767e-10	0.047376156	0.047376156	0	157801.62	157801.45	-7.0711096e-05	626568	270447.75	-0.00019395302	270448.16	626567.44	-0.0001812645
0	0.6404339	0.64043313	-1.00263034e-10	0.047022615	0.047022615	0	157729.7	157729.52	-2.7184311e-05	626764	269842.88	-0.000102414444	269843.34	626763.5	-9.788283e-05
0	0.640138	0.6401373	3.8030804e-11	0.04666902	0.04666902	0	157656.84	157656.69	7.015306e-06	626960.94	269231.9	7.613109e-05	269232.34	626960.3	-1.087587e-05
0	0.63984096	0.6398403	6.914692e-11	0.046315495	0.046315495	0	157583.69	157583.53	1.2157207e-05	627157.75	268619.12	8.156903e-05	268619.6	627157.25	-3.62529e-05
0	0.6395414	0.6395407	-1.2100711e-10	0.045961898	0.045961898	0	157509.92	157509.73	-3.093112e-05	627355.25	268002.25	-0.00014682424	268002.7	627354.75	-6.162993e-05
0	0.6392405	0.6392397	-4.217962e-10	0.04560836	0.04560836	0	157435.81	157435.62	-0.00010746173	627552.7	267383.6	-0.00036887327	267384	627552.1	-0.0002537703
0	0.63893753	0.63893676	-3.1980452e-10	0.04525487	0.04525487	0	157361.2	157361.02	-7.676977e-05	627750	266762.12	-0.00022295534	266762.56	627749.44	-0.00024651972
0	0.63863164	0.6386309	4.8402844e-11	0.04490131	0.04490131	0	157285.86	157285.69	1.5625e-05	627947.8	266136.16	4.712877e-05	266136.62	627947.2	5.437935e-05
0	0.63832575	0.6383251	-2.1262678e-10	0.044547737	0.044547737	0	157210.52	157210.36	-5.452806e-05	628145.9	265509.78	-0.00018760876	265510.25	628145.3	-0.00010513341
0	0.6380184	0.6380176	-4.7019905e-10	0.044194207	0.044194207	0	157134.81	157134.64	-0.00012113361	628343.94	264881.34	-0.00039515662	264881.84	628343.4	-0.00027189674
0	0.63770926	0.63770854	-3.457346e-10	0.04384063	0.04384063	0	157058.69	157058.5	-8.3785075e-05	628541.56	264250.94	-0.0002700841	264251.4	628540.94	-0.00019576566
0	0.63739234	0.6373915	1.6249527e-10	0.043487072	0.043487072	0	156980.62	156980.42	3.8345024e-05	628742.5	263606.3	7.5224765e-05	263606.75	628741.8	0.00015226218
0	0.6370813	0.6370805	7.891392e-10	0.043133505	0.043133505	0	156904.03	156903.84	0.000191765	628939.1	262974.28	0.0007241517	262974.75	628938.5	0.00037703017
0	0.6367661	0.63676524	-7.19128e-10	0.04277994	0.04277994	0	156826.38	156826.2	-0.00017793367	629138.25	262333.84	-0.0006090487	262334.28	629137.56	-0.00038790604
0	0.6364496	0.63644874	-1.2273578e-10	0.042426363	0.042426363	0	156748.42	156748.23	-3.539541e-05	629337	261691.94	-0.0001286978	261692.4	629336.4	-6.525522e-05
0	0.63613015	0.63612944	-5.2033056e-10	0.042072818	0.042072818	0	156669.78	156669.6	-0.00012858737	629536.3	261045.39	-0.00040965778	261045.94	629535.7	-0.00031540022
0	0.6358095	0.6358087	-2.869597e-10	0.041719254	0.041719254	0	156590.8	156590.61	-7.142857e-05	629734.8	260397.97	-0.00023836282	260398.48	629734.25	-0.00020301624
0	0.6354855	0.6354847	-1.1754976e-10	0.041365802	0.041365802	0	156511	156510.83	-3.125e-05	629933.8	259745.44	-6.3442574e-05	259745.92	629933.25	-0.00011963457
0	0.6351599	0.6351591	-3.9932346e-10	0.04101223	0.04101223	0	156430.81	156430.62	-9.518495e-05	630132.94	259090.44	-0.0002537703	259090.92	630132.4	-0.00027552203
0	0.6348336	0.6348329	-2.1608412e-10	0.040658668	0.040658668	0	156350.47	156350.27	-5.5165816e-05	630332.94	258433.75	-6.888051e-05	258434.25	630332.3	-0.00023564385
0	0.6345045	0.6345038	-1.0544905e-10	0.040305123	0.040305123	0	156269.4	156269.22	-2.4633291e-05	630532.6	257773.27	-4.259716e-05	257773.77	630532.06	-0.00010150812
0	0.6341743	0.63417345	-3.8354933e-10	0.03995156	0.03995156	0	156188.08	156187.88	-9.470663e-05	630731.94	257111.55	-0.00033262037	257112.08	630731.4	-0.00023201856
0	0.63384145	0.6338406	-1.8669669e-10	0.039597988	0.039597984	0	156106.08	156105.89	-4.6077806e-05	630931.8	256445.72	-0.00015044953	256446.22	630931.06	-0.00013051044
0	0.63350594	0.63350517	-2.368282e-10	0.039244417	0.039244413	0	156023.47	156023.28	-5.484694e-05	631132.1	255775.72	-8.3381674e-05	255776.25	631131.5	-0.00019576566
0	0.63317007	0.6331692	-3.9413744e-10	0.038890854	0.038890854	0	155940.73	155940.53	-9.534439e-05	631331.8	255105.69	-0.00030814964	255106.2	631331.25	-0.00023926914
0	0.6328311	0.6328302	-1.2446445e-10	0.038537282	0.038537282	0	155857.23	155857.03	-2.742347e-05	631532	254430.86	-0.0002573956	254431.42	631531.4	7.25058e-05
0	0.63248855	0.6324878	-1.4866587e-10	0.038183745	0.038183745	0	155772.9	155772.7	-3.7109374e-05	631732.06	253751.33	-8.156903e-05	253751.83	631731.44	-0.00011238399
0	0.63214594	0.63214505	-3.2499053e-10	0.037830174	0.037830174	0	155688.5	155688.3	-7.784598e-05	631932.5	253071.27	-0.00011238399	253071.8	631931.8	-0.0003697796
0	0.6317989	0.631798	-2.368282e-10	0.037476607	0.037476607	0	155603.05	155602.84	-5.9709822e-05	632134.3	252383.69	-0.0001286978	252384.19	632133.7	-0.00015951275
0	0.6314557	0.6314549	-1.2446445e-10	0.03712314	0.03712314	0	155518.53	155518.31	-2.742347e-05	632333.5	251704.12	-0.00015588746	251704.69	632332.75	-1.450116e-05
0	0.63110524	0.6311044	-3.975948e-10	0.036769576	0.036769576	0	155432.2	155432	-9.598214e-05	632534.3	251012.58	-0.0002537703	251013.14	632533.56	-0.00030452435
0	0.63075507	0.6307543	-1.9706872e-10	0.036416035	0.03641604	0	155345.98	155345.75	-4.958546e-05	632734.9	250321.8	-9.1538575e-05	250322.36	632734.25	-0.0001812645
0	0.63040197	0.63040113	-4.4945497e-10	0.036062464	0.036062464	0	155259.02	155258.78	-0.000107262436	632935.44	249626.78	-0.00027280307	249627.33	632934.75	-0.00034077727
0	0.63004565	0.6300448	-1.00263034e-10	0.0357089	0.0357089	0	155171.25	155171.03	-2.6705995e-05	633136.1	248927.23	-6.7974186e-05	248927.81	633135.44	-3.262761e-05
0	0.6296884	0.6296876	-7.951896e-11	0.035355333	0.035355333	0	155083.28	155083.05	-2.0208865e-05	633337.06	248226.25	-2.9908642e-05	248226.8	633336.25	-6.162993e-05
0	0.6293287	0.6293278	-2.817737e-10	0.03500176	0.03500176	0	154994.67	154994.44	-7.079082e-05	633538	247521.64	-0.0001812645	247522.19	633537.2	-0.00020301624
0	0.6289673	0.6289664	-3.146185e-10	0.0346482	0.0346482	0	154905.66	154905.44	-7.493622e-05	633738.75	246814.83	-0.0004060325	246815.4	633738.1	-2.175174e-05
0	0.628602	0.6286011	-4.3735426e-10	0.03429466	0.03429466	0	154815.7	154815.48	-0.00010395408	633939.6	246102.64	-0.0003661543	246103.23	633939	-0.0002537703
0	0.62823665	0.6282357	-1.6422394e-10	0.033941094	0.033941098	0	154725.7	154725.48	-3.635204e-05	634141.06	245389.7	-0.00015226218	245390.3	634140.3	-6.525522e-05
0	0.6278673	0.6278663	-4.4254028e-10	0.03358753	0.03358753	0	154634.73	154634.5	-0.000104791136	634341.94	244671.66	-0.00033080773	244672.23	634341.1	-0.00027552203
0	0.6274976	0.6274967	-3.3881992e-10	0.033234045	0.033234045	0	154543.7	154543.45	-8.238999e-05	634542.9	243953.2	-0.00022748695	243953.8	634542.1	-0.00022114269
0	0.62712294	0.62712204	-2.869597e-10	0.032880485	0.032880485	0	154451.44	154451.2	-6.752232e-05	634744.7	243226.88	-0.00016857599	243227.47	634744	-0.00019939095
0	0.62674856	0.62674767	-2.2299881e-10	0.03252695	0.03252695	0	154359.22	154359	-5.4288903e-05	634945.9	242501.53	-0.0002573956	242502.11	634945.1	-3.262761e-05
0	0.6263704	0.62636936	-2.0398341e-10	0.03217338	0.03217338	0	154266.06	154265.81	-4.4722576e-05	635147.25	241770.6	-6.253625e-05	241771.22	635146.56	-0.00019214037
0	0.6259909	0.62599003	-4.027808e-10	0.03181982	0.03181982	0	154172.64	154172.39	-9.66199e-05	635348.3	241038.47	-0.0002374565	241039.1	635347.56	-0.00032627612
0	0.6256077	0.6256067	-3.4227726e-10	0.031466246	0.031466246	0	154078.25	154078	-8.514031e-05	635549.5	240300.64	-0.00027280307	240301.28	635548.75	-0.00021026682
0	0.6252204	0.62521946	-5.7737676e-10	0.031112673	0.031112673	0	153982.84	153982.62	-0.000140625	635750.9	239557.03	-0.000390625	239557.67	635750.2	-0.00043684745
0	0.62483704	0.624836	-3.1116113e-11	0.030759118	0.030759115	0	153888.45	153888.19	-5.739796e-06	635952.4	238818.94	-0.00010966502	238819.58	635951.5	6.525522e-05
0	0.6244476	0.6244466	-2.4201421e-10	0.030405583	0.030405583	0	153792.52	153792.27	-5.5125958e-05	636153.6	238072.31	-0.00012960412	238072.97	636152.94	-0.00019576566
0	0.6240556	0.62405455	-4.356256e-10	0.030052025	0.030052025	0	153695.97	153695.72	-0.00011084981	636354.94	237322.22	-0.00024833236	237322.86	636354.2	-0.00038428075
0	0.6236618	0.6236608	-2.1954147e-10	0.029698454	0.029698454	0	153599.02	153598.75	-4.9744896e-05	636555.56	236570.33	-0.00012960412	236570.97	636554.75	-0.00017038864
0	0.6232644	0.6232633	-3.837654e-10	0.02934495	0.02934495	0	153501.11	153500.84	-9.725765e-05	636757.56	235811.92	-0.00022476798	235812.56	636756.8	-0.00029364848
0	0.62286276	0.6228616	-1.3483649e-10	0.02899139	0.02899139	0	153402.19	153401.94	-3.3003827e-05	636959.75	235047.4	-8.519432e-05	235048.06	636958.94	-8.156903e-05
0	0.6224648	0.6224637	-3.975948e-10	0.028637823	0.028637823	0	153304.17	153303.92	-9.562341e-05	637160	234289.98	-0.0002863979	234290.62	637159.2	-0.00026827145
0	0.6220603	0.6220592	1.5039454e-10	0.028284293	0.028284293	0	153204.55	153204.3	3.7308673e-05	637361.1	233522.64	0.00027552203	233523.3	637360.3	-3.987819e-05
0	0.62165284	0.62165177	-5.5317535e-11	0.027930735	0.027930735	0	153104.2	153103.94	-1.8494899e-05	637561.5	232751.77	-4.1690837e-05	232752.44	637560.7	-6.7067864e-05
0	0.62124544	0.6212444	-3.6820735e-10	0.027577164	0.027577164	0	153003.89	153003.61	-9.390944e-05	637763.44	231979.52	-0.0002175174	231980.19	637762.56	-0.0002900232
0	0.6208339	0.62083274	-1.728673e-10	0.027223596	0.027223593	0	152902.5	152902.23	-4.001913e-05	637964.2	231202.55	-0.00015498114	231203.19	637963.3	-4.712877e-05
0	0.6204183	0.62041724	-5.877488e-11	0.026870035	0.026870035	0	152800.17	152799.9	-6.257972e-06	638165.25	230419.81	-0.00012779147	230420.47	638164.44	7.25058e-05
0	0.6200031	0.620002	-1.918827e-10	0.026516512	0.026516512	0	152697.9	152697.64	-4.0856186e-05	638366.2	229637.44	-8.881961e-05	229638.14	638365.4	-0.00015226218
0	0.6195816	0.61958045	-1.4866587e-10	0.026162941	0.026162941	0	152594.11	152593.83	-4.0178573e-05	638567.6	228845.92	-0.0001930467	228846.62	638566.75	0
0	0.619162	0.6191609	-2.1435545e-10	0.025809383	0.025809383	0	152490.75	152490.48	-4.9107144e-05	638768.1	228057.94	-8.881961e-05	228058.67	638767.3	-0.00015951275
0	0.618738	0.61873686	-2.8523103e-10	0.025455853	0.025455853	0	152386.33	152386.05	-7.461735e-05	638968.25	227264.16	-0.00020482889	227264.88	638967.44	-0.00020664153
0	0.61831087	0.6183098	-1.8151067e-10	0.025102295	0.025102295	0	152281.16	152280.88	-4.3646363e-05	639169.3	226465.17	-0.0001413863	226465.89	639168.56	-0.00012688515
0	0.6178773	0.6178762	-3.007891e-10	0.024748728	0.024748728	0	152174.36	152174.06	-7.2385206e-05	639369.44	225658.11	-0.00016766967	225658.83	639368.56	-0.0002900232
0	0.6174483	0.617447	-2.5238625e-10	0.024395209	0.024395209	0	152068.7	152068.4	-6.489158e-05	639570.7	224856.1	-0.00027189674	224856.83	639569.8	-6.888051e-05
0	0.6170134	0.61701226	6.914692e-12	0.024041645	0.024041645	0	151961.58	151961.28	1.8734056e-06	639770.9	224047.12	-3.987819e-05	224047.88	639769.94	5.800464e-05
0	0.6165755	0.6165743	-3.267192e-10	0.023688078	0.023688078	0	151853.72	151853.44	-7.940051e-05	639971.2	223233.72	-0.0002900232	223234.48	639970.3	-0.00015588746
0	0.6161342	0.616133	-2.938744e-10	0.02333451	0.02333451	0	151745.05	151744.77	-6.644611e-05	640171.7	222415.39	-0.00030724332	222416.14	640170.8	-4.350348e-05
0	0.61569136	0.6156902	-4.1142417e-10	0.022980949	0.022980949	0	151635.98	151635.72	-9.893176e-05	640371.25	221595.94	-0.0002619272	221596.73	640370.3	-0.00027189674
0	0.6152453	0.6152441	-7.951896e-11	0.022627434	0.022627434	0	151526.12	151525.83	-1.817602e-05	640571.44	220771.16	-8.06627e-05	220771.94	640570.56	-1.812645e-05
0	0.6147957	0.6147945	-5.877488e-11	0.022273868	0.022273868	0	151415.39	151415.1	-1.3791454e-05	640771.1	219942.02	-1.6313805e-05	219942.8	640770.2	-5.437935e-05
0	0.61434484	0.6143436	-2.4720023e-10	0.021920316	0.021920316	0	151304.36	151304.06	-6.441327e-05	640970.25	219111.72	-0.00018217083	219112.53	640969.4	-0.00015588746
0	0.6138899	0.6138887	-3.146185e-10	0.021566752	0.021566752	0	151192.31	151192.02	-7.493622e-05	641170.25	218274.88	-0.00020392257	218275.67	641169.25	-0.00021389211
0	0.61343175	0.61343044	-5.808341e-10	0.021213181	0.021213185	0	151079.47	151079.17	-0.00014094388	641369.2	217434.45	-0.00050210266	217435.23	641368.25	-0.00027552203
0	0.61297137	0.61297005	-2.9906042e-10	0.020859627	0.020859627	0	150966.08	150965.77	-7.4776784e-05	641568.8	216590.27	-0.0002012036	216591.08	641567.8	-0.00019576566
0	0.61250806	0.61250675	-3.457346e-12	0.020506116	0.020506116	0	150851.98	150851.67	2.471301e-06	641767.8	215742.61	-0.000103320766	215743.4	641766.94	0.0001413863
0	0.6120409	0.61203957	-2.8350236e-10	0.020152561	0.020152561	0	150736.92	150736.61	-7.142857e-05	641966.5	214889.84	-0.0003498405	214890.69	641965.56	-6.162993e-05
0	0.61157006	0.61156875	-3.3017655e-10	0.019798992	0.019798992	0	150620.97	150620.64	-8.5857784e-05	642164.6	214032.62	-0.00024470707	214033.48	642163.56	-0.0002573956
0	0.6110978	0.6110965	2.1435545e-10	0.019445427	0.019445427	0	150504.66	150504.33	4.9107144e-05	642362.8	213173.19	0.00015770011	213174.02	642361.9	0.0001087587
0	0.6106246	0.6106232	-2.817737e-10	0.019091872	0.019091872	0	150388.1	150387.78	-6.760204e-05	642561.75	212311.8	-0.00032718244	212312.64	642560.7	-6.162993e-05
0	0.6101464	0.6101451	-3.8722275e-10	0.018738307	0.018738303	0	150270.34	150270	-9.821429e-05	642760.9	211443.28	-0.00028095997	211444.14	642759.8	-0.0002900232
0	0.60966545	0.6096641	-3.5092063e-10	0.018384786	0.018384788	0	150151.88	150151.55	-9.215561e-05	642958.44	210572.25	-0.0003534658	210573.14	642957.44	-0.00016676335
0	0.60918033	0.6091789	-3.3881992e-10	0.018031232	0.018031232	0	150032.42	150032.08	-8.4821426e-05	643156.2	209695.39	-0.00031993183	209696.28	643155.1	-0.00015951275
0	0.60869426	0.6086928	-1.3829384e-11	0.017677667	0.017677667	0	149912.69	149912.36	-6.53699e-06	643353.2	208817.83	-0.00016041908	208818.72	643352.1	0.00016676335
0	0.608203	0.6082016	-2.437429e-10	0.0173241	0.0173241	0	149791.72	149791.38	-5.835459e-05	643550.5	207932.81	-9.969548e-05	207933.72	643549.44	-0.00023926914
0	0.60770893	0.60770756	-6.7591116e-10	0.016970547	0.016970549	0	149670.03	149669.67	-0.00016972258	643748.1	207043.45	-0.0005854843	207044.34	643747.1	-0.0003987819
0	0.6072093	0.60720795	-3.8722275e-10	0.016617022	0.016617022	0	149546.98	149546.62	-9.550383e-05	643945.44	206146.73	-0.00026736513	206147.66	643944.4	-0.00027914732
0	0.60671127	0.60670984	5.0131517e-11	0.016263476	0.016263476	0	149424.31	149423.97	1.1001275e-05	644141.5	205253.25	-5.8910962e-05	205254.17	644140.56	0.0001450116
0	0.6062089	0.60620743	-3.3190523e-10	0.01590991	0.01590991	0	149300.6	149300.25	-8.227041e-05	644337.1	204354.33	-0.00033715199	204355.3	644336.1	-0.0001450116
0	0.60570204	0.6057007	-4.7538506e-10	0.015556336	0.015556336	0	149175.78	149175.39	-0.00011352041	644533.25	203448.7	-0.00031993183	203449.64	644532.1	-0.00034440256
0	0.6051922	0.60519075	-1.5039454e-10	0.015202791	0.015202791	0	149050.19	149049.83	-4.041773e-05	644729.06	202539.05	-0.00015951275	202540	644728	-7.25058e-05
0	0.6046781	0.6046766	-2.938744e-11	0.014849227	0.014849227	0	148923.58	148923.22	-1.4030612e-05	644924.56	201623.83	-0.00015770011	201624.8	644923.5	8.700696e-05
0	0.6041621	0.60416067	-3.6475e-10	0.014495695	0.014495695	0	148796.52	148796.14	-9.072066e-05	645119.5	200706.47	-0.00037340488	200707.44	645118.44	-0.00015226218
0	0.6036396	0.6036382	-4.5291232e-10	0.014142146	0.014142146	0	148667.83	148667.45	-0.00010682398	645315.1	199779.4	-0.00032808876	199780.39	645314.06	-0.00027552203
0	0.6031181	0.60311663	-1.5903792e-10	0.013788582	0.013788582	0	148539.39	148539	-3.8265305e-05	645508.25	198856.12	-0.00014047998	198857.12	645507.1	-0.00010150812
0	0.60258913	0.6025875	-2.9733174e-10	0.013435017	0.013435017	0	148409.08	148408.7	-7.3341835e-05	645702.8	197920.92	-0.00017401393	197921.94	645701.75	-0.00021389211
0	0.6020617	0.6020602	-2.1262678e-10	0.0130814705	0.0130814705	0	148279.19	148278.81	-5.452806e-05	645897.1	196988.28	-0.00037340488	196989.27	645896	6.162993e-05
0	0.6015287	0.6015272	-1.5212322e-10	0.012727927	0.0127279265	0	148147.95	148147.55	-4.145408e-05	646090.3	196048.92	-0.00012054089	196049.95	646089.1	-9.788283e-05
0	0.6009916	0.6009901	-2.0398341e-10	0.012374364	0.012374364	0	148015.66	148015.27	-4.7193877e-05	646283.8	195103.48	-0.00012416618	195104.52	646282.6	-0.00015226218
0	0.60044974	0.6004482	-2.74859e-10	0.012020823	0.012020823	0	147882.2	147881.81	-6.903699e-05	646477	194151.61	-0.0002419881	194152.67	646475.8	-0.00013776102
0	0.59990644	0.59990484	-4.667417e-11	0.011667255	0.011667255	0	147748.38	147748	-1.2755102e-05	646668.2	193199.7	1.6766966e-05	193200.77	646667.06	-6.525522e-05
0	0.5993581	0.59935653	-9.853436e-11	0.011313718	0.011313718	0	147613.34	147612.94	-2.0328443e-05	646861.7	192238.64	-0.00014319895	192239.7	646860.44	2.900232e-05
0	0.5988051	0.5988035	5.0131517e-11	0.010960158	0.010960158	0	147477.16	147476.75	1.8096302e-05	647053.75	191272.45	7.658425e-05	191273.55	647052.5	2.900232e-05
0	0.59824944	0.59824777	-4.408116e-10	0.010606591	0.010606591	0	147340.28	147339.88	-0.00011096939	647245.56	190302.55	-0.0003779365	190303.66	647244.3	-0.00024651972
0	0.5976936	0.5976921	-1.8151067e-10	0.010253058	0.010253058	0	147203.4	147203.02	-5.0063776e-05	647435.75	189334.2	-0.00015860643	189335.3	647434.6	-0.00010150812
0	0.59712756	0.5971259	-2.6621563e-10	0.009899496	0.009899496	0	147064	147063.58	-5.8035715e-05	647627.3	188350.17	-0.00028503843	188351.31	647626.06	-3.262761e-05
0	0.5965644	0.59656274	-1.0544905e-10	0.009545936	0.009545936	0	146925.28	146924.86	-2.5829082e-05	647815.06	187373.9	-0.00019440618	187375.03	647813.94	4.350348e-05
0	0.59599227	0.59599054	-3.3190523e-10	0.009192393	0.009192394	0	146784.38	146783.97	-8.1313774e-05	648007.1	186380.89	-0.00027280307	186382.05	648005.94	-0.00017763922
0	0.59542173	0.59541994	-2.7313032e-10	0.008838833	0.008838833	0	146643.86	146643.44	-6.154337e-05	648195.44	185393.8	-0.0002750689	185394.97	648194.1	-7.975638e-05
0	0.5948409	0.59483904	-3.8722275e-10	0.008485274	0.008485274	0	146500.78	146500.38	-0.00010012755	648385.44	184390.45	-0.00034712153	184391.62	648384.25	-0.00020301624
0	0.5942627	0.59426093	-2.9733174e-10	0.008131738	0.008131738	0	146358.42	146357.98	-7.6211734e-05	648573.3	183393.33	-0.00023065908	183394.5	648572	-0.00015226218
0	0.5936769	0.5936752	-1.00263034e-10	0.007778168	0.007778168	0	146214.16	146213.7	-2.614796e-05	648759.6	182386.86	-0.00015588746	182388.06	648758.44	3.62529e-06
0	0.5930849	0.5930831	3.215332e-10	0.0074246135	0.0074246135	0	146068.33	146067.89	8.195153e-05	648949.5	181368.11	0.00017446709	181369.34	648948.25	0.0002827726
0	0.5924952	0.59249336	-4.5291232e-10	0.007071073	0.007071073	0	145923.08	145922.66	-0.00010809949	649135.06	180356.98	-0.0003498405	180358.23	649133.7	-0.00026102088
0	0.5918981	0.5918963	-2.3509952e-10	0.0067175087	0.006717508	0	145776.05	145775.6	-5.739796e-05	649320.9	179335.19	-6.978683e-05	179336.44	649319.5	-0.00022114269