# t (s)	mx ()	my ()	mz ()	B_extx (T)	B_exty (T)	B_extz (T)	m_fullx (A/m)	m_fully (A/m)	m_fullz (A/m)	m_full.region1x (A/m)	m_full.region1y (A/m)	m_full.region1z (A/m)	m_full.region2x (A/m)	m_full.region2y (A/m)	m_full.region2z (A/m)
0	0.6538999	0.65390134	-4.3035844e-10	0.07071087	0.07071087	0	76074.72	76074.875	-5.375e-05	628128.7	287332.7	-0.00034972923	287331.28	628129.2	-0.00023315282
0	0.6538115	0.6538112	-2.1876555e-10	0.070569105	0.07056911	0	76064.44	76064.4	-2.75e-05	628212.75	287123.44	-0.00024443443	287123.38	628212.4	-0.00012033695
0	0.65371823	0.65371776	-5.307754e-10	0.07042788	0.07042788	0	76053.58	76053.516	-6.125e-05	628303.6	286901.72	-0.0003798135	286901.88	628303	-0.00036101084
0	0.65362346	0.653623	-4.016679e-10	0.07028653	0.07028653	0	76042.54	76042.49	-4.1875e-05	628394.8	286677.84	-0.00018802648	286678.03	628394.3	-0.00028203972
0	0.65352905	0.6535286	-3.873226e-10	0.070144884	0.070144884	0	76031.58	76031.51	-4.5e-05	628485.8	286454.7	-0.00030272262	286454.88	628485.25	-0.00025195547
0	0.6534347	0.65343416	-2.4386979e-10	0.07000352	0.07000352	0	76020.6	76020.53	-3.25e-05	628576.5	286231.97	-0.00021058966	286232.16	628575.94	-0.00017674488
0	0.6533404	0.6533399	-5.020849e-10	0.06986229	0.06986229	0	76009.625	76009.56	-6e-05	628666.8	286009.6	-0.0002406739	286009.78	628666.25	-0.0004813478
0	0.6532453	0.6532448	-3.7297732e-10	0.069720544	0.069720544	0	75998.56	75998.5	-4.5e-05	628757.3	285786.03	-0.00024631468	285786.2	628756.7	-0.0003422082
0	0.6531498	0.6531493	-7.38782e-10	0.06957919	0.06957919	0	75987.445	75987.39	-7.6875e-05	628849.1	285560.4	-0.00057160045	285560.6	628848.6	-0.00037229242
0	0.65305465	0.6530542	-3.7297732e-10	0.069437966	0.069437966	0	75976.38	75976.32	-4.1875e-05	628940	285336.38	-0.00027075812	285336.5	628939.44	-0.00024443443
0	0.6529588	0.6529582	-3.873226e-10	0.069296576	0.069296576	0	75965.23	75965.16	-4.25e-05	629031.5	285110.5	-0.00036101084	285110.7	629031	-0.00016170277
0	0.6528631	0.65286255	-3.7297732e-10	0.06915497	0.069154955	0	75954.086	75954.02	-4.5e-05	629122.5	284885.62	-0.00030084237	284885.78	629121.94	-0.00027827919
0	0.6527669	0.65276635	-2.5821506e-10	0.069013596	0.069013596	0	75942.9	75942.836	-3e-05	629214	284659.44	-0.00023879363	284659.62	629213.5	-0.00012033695
0	0.6526705	0.65267	-2.8690564e-10	0.068872236	0.068872236	0	75931.695	75931.64	-2.5e-05	629304.2	284434.44	-2.6323707e-05	284434.6	629303.7	-0.0003083634
0	0.65257263	0.65257215	-5.164301e-10	0.06873064	0.06873064	0	75920.3	75920.24	-6.25e-05	629397.94	284203.56	-0.00036101084	284203.72	629397.44	-0.00033468712
0	0.6524772	0.6524767	-2.653877e-10	0.06858927	0.06858927	0	75909.2	75909.15	-2.9375e-05	629488.3	283979.7	-0.00038357402	283979.88	629487.75	4.1365824e-05
0	0.6523803	0.6523798	-4.3035844e-10	0.06844801	0.06844801	0	75897.93	75897.87	-5.125e-05	629579.75	283752.6	-0.00030084237	283752.8	629579.25	-0.00031212394
0	0.652283	0.65228254	-4.5187637e-10	0.06830665	0.06830665	0	75886.61	75886.55	-5e-05	629670.8	283525.28	-0.0003459687	283525.47	629670.2	-0.000319645
0	0.6521854	0.65218484	-5.738113e-10	0.06816504	0.068165034	0	75875.24	75875.19	-6.375e-05	629763.44	283295.97	-0.00037605295	283296.12	629762.8	-0.0004211793
0	0.6520879	0.6520874	-3.873226e-10	0.068023674	0.068023674	0	75863.91	75863.84	-4.625e-05	629854.9	283068	-0.00014290011	283068.2	629854.3	-0.00041365824
0	0.6519898	0.6519893	-3.7297732e-10	0.06788232	0.06788232	0	75852.484	75852.43	-4.0625e-05	629947	282838.47	-0.0002726384	282838.66	629946.44	-0.00031588448
0	0.65189147	0.6518909	-6.5629663e-10	0.067740716	0.067740716	0	75841.06	75840.99	-7.4375e-05	630039.5	282608.4	-0.00047382672	282608.66	630038.9	-0.0004587846
0	0.6517933	0.65179276	-3.7297732e-10	0.06759932	0.06759932	0	75829.64	75829.57	-4e-05	630131.5	282378.94	-0.0003309266	282379.16	630130.94	-0.00021435018
0	0.6516934	0.6516928	-3.012509e-10	0.06745809	0.06745809	0	75818.01	75817.945	-3.5e-05	630224.75	282145.75	-0.00021058966	282145.94	630224.2	-0.00020306859
0	0.65159523	0.6515947	-2.5821506e-10	0.067316726	0.06731672	0	75806.586	75806.52	-3.375e-05	630316.5	281916.56	-0.00014666065	281916.78	630315.94	-0.000255716
0	0.6514964	0.65149575	-5.020849e-10	0.067174986	0.067174986	0	75795.086	75795.016	-6e-05	630408.7	281686	-0.00037605295	281686.16	630408.1	-0.0003422082
0	0.6513967	0.6513961	-1.0041697e-10	0.06703377	0.06703377	0	75783.49	75783.44	-2.125e-05	630501.3	281453.84	-0.00031588448	281454.03	630500.75	6.0168473e-05
0	0.6512973	0.6512968	-1.8648866e-10	0.066892385	0.066892385	0	75771.92	75771.86	-2e-05	630593.75	281222.25	-0.0001654633	281222.47	630593.1	-8.273165e-05
0	0.6511975	0.65119696	-7.172641e-10	0.066750765	0.06675076	0	75760.32	75760.25	-8.125e-05	630685.75	280990.56	-0.00047382672	280990.78	630685.1	-0.00056407944
0	0.651097	0.6510964	-6.1684713e-10	0.0666094	0.0666094	0	75748.625	75748.56	-7.375e-05	630778.3	280757.34	-0.00046630565	280757.56	630777.75	-0.00043998196
0	0.65099716	0.6509966	-1.6138442e-10	0.06646816	0.066468164	0	75737.01	75736.94	-2e-05	630871.4	280524.44	-0.00014101986	280524.66	630870.9	-0.00010153429
0	0.6508962	0.6508956	-3.5863204e-10	0.06632643	0.06632643	0	75725.26	75725.2	-4.1875e-05	630963.9	280290.7	-0.00036101084	280290.84	630963.2	-0.00017298435
0	0.65079486	0.65079427	-2.8690564e-10	0.06618507	0.06618507	0	75713.47	75713.41	-3.5e-05	631057.7	280054.94	-0.00031588448	280055.12	631057	-0.00015042118
0	0.6506942	0.65069366	-8.607169e-11	0.06604384	0.06604384	0	75701.76	75701.695	-7.5e-06	631150.75	279820.88	-0.00012973827	279821.1	631150.25	2.6323707e-05
0	0.6505929	0.6505923	-1.7214338e-10	0.065902434	0.065902434	0	75689.98	75689.91	-2.625e-05	631243.8	279586.03	-0.0002406739	279586.25	631243.25	-4.8886883e-05
0	0.6504911	0.65049046	-2.7256034e-10	0.06576085	0.06576085	0	75678.13	75678.07	-2.8125e-05	631337.2	279350.1	-0.00027075812	279350.28	631336.6	-0.00012409747
0	0.6503898	0.65038925	-4.2677212e-10	0.065619476	0.06561948	0	75666.35	75666.28	-5.125e-05	631429.9	279115.6	-0.00039109506	279115.84	631429.3	-0.00027827919
0	0.6502874	0.65028685	-3.69391e-10	0.06547824	0.06547825	0	75654.44	75654.375	-3.75e-05	631523.2	278879	-0.00022563177	278879.25	631522.56	-0.00031212394
0	0.6501848	0.6501842	-2.1517922e-10	0.06533652	0.065336525	0	75642.51	75642.44	-2.625e-05	631616.9	278641.7	-0.00018050542	278641.9	631616.25	-0.00017298435
0	0.6500828	0.6500823	-4.3035844e-10	0.06519514	0.06519514	0	75630.64	75630.58	-4.875e-05	631710	278405.84	-0.00035160952	278406.1	631709.3	-0.00024819493
0	0.6499797	0.64997905	-8.607169e-10	0.06505392	0.06505392	0	75618.63	75618.56	-0.00010125	631803.7	278167.62	-0.00056783995	278167.88	631803.06	-0.00064305053
0	0.64987695	0.64987636	-5.4512067e-10	0.064912505	0.064912505	0	75606.68	75606.62	-6.5e-05	631897	277930.47	-0.00040613717	277930.75	631896.4	-0.00038733453
0	0.64977324	0.64977264	-3.335278e-10	0.06477093	0.06477093	0	75594.62	75594.55	-3.4375e-05	631990.9	277691.44	-0.00018426594	277691.62	631990.3	-0.00024443443
0	0.64966977	0.6496691	-2.8690564e-10	0.06462956	0.06462956	0	75582.58	75582.516	-3.625e-05	632084.4	277453	-0.00018802648	277453.2	632083.75	-0.00024443443
0	0.6495658	0.6495652	-4.8773957e-10	0.06448818	0.06448818	0	75570.49	75570.42	-5.5e-05	632178.9	277213.03	-0.00039109506	277213.28	632178.3	-0.00028203972
0	0.64946175	0.6494612	-3.5863204e-10	0.0643466	0.0643466	0	75558.38	75558.32	-4.25e-05	632272.3	276973.88	-0.00024255415	276974.12	632271.75	-0.0002293923
0	0.6493573	0.6493568	-5.881565e-10	0.06420522	0.06420524	0	75546.234	75546.164	-6.875e-05	632366.94	276733.06	-0.0004813478	276733.3	632366.4	-0.00039861613
0	0.6492531	0.6492524	-5.738113e-10	0.064063966	0.064063966	0	75534.1	75534.016	-7e-05	632460.8	276493.22	-0.0004211793	276493.47	632460.1	-0.00042493982
0	0.6491461	0.64914554	-2.7256034e-10	0.063922584	0.063922584	0	75521.66	75521.586	-3.4375e-05	632557.1	276247.16	-0.00025195547	276247.38	632556.5	-0.000112815884
0	0.64904296	0.6490423	-5.164301e-10	0.063781016	0.063781016	0	75509.65	75509.586	-5.6875e-05	632649.5	276010.3	-0.0005151925	276010.56	632648.94	-0.00019366726
0	0.6489373	0.6489367	-3.873226e-10	0.06363963	0.06363963	0	75497.37	75497.29	-4.5e-05	632743.75	275768.25	-0.00021058966	275768.47	632743.1	-0.0003083634
0	0.648832	0.6488314	-3.6221837e-10	0.06349825	0.06349824	0	75485.125	75485.055	-4.125e-05	632837.8	275526.8	-0.00021058966	275527.03	632837.2	-0.00029708183
0	0.6487254	0.6487248	-3.5863204e-10	0.06335668	0.06335668	0	75472.72	75472.65	-4.5e-05	632932.56	275282.8	-0.00019554753	275283.03	632932	-0.00032716605
0	0.64861846	0.6486179	-3.4428677e-10	0.06321527	0.063215286	0	75460.28	75460.2	-4.75e-05	633028.94	275036.66	-0.0003459687	275036.9	633028.4	-0.0002293923
0	0.6485133	0.6485127	-3.7297732e-10	0.06307404	0.06307404	0	75448.05	75447.96	-4.4375e-05	633122.56	274795.75	-0.00030084237	274796	633121.94	-0.00016170277
0	0.6484061	0.64840543	-1.0041697e-10	0.062932655	0.062932655	0	75435.555	75435.484	-8.75e-06	633216.9	274551.3	9.401324e-06	274551.56	633216.2	-0.00011469615
0	0.648299	0.64829844	-3.5863204e-10	0.062790945	0.062790945	0	75423.11	75423.04	-3.625e-05	633312.75	274305.62	-0.00018050542	274305.88	633312.1	-0.00027827919
0	0.64819264	0.64819205	-8.607169e-11	0.062649705	0.062649705	0	75410.74	75410.664	-1e-05	633406.56	274063.03	-9.025271e-05	274063.3	633405.94	-4.1365824e-05
0	0.6480843	0.6480837	-5.164301e-10	0.06250833	0.06250833	0	75398.125	75398.05	-5.25e-05	633502	273815.8	-0.00033844766	273816.06	633501.4	-0.00038357402
0	0.6479771	0.6479764	-3.0483724e-10	0.06236674	0.06236674	0	75385.65	75385.58	-3.75e-05	633596.94	273570.78	-0.00022563177	273571.03	633596.3	-0.00025195547
0	0.6478693	0.6478687	-4.016679e-10	0.062225346	0.062225346	0	75373.12	75373.05	-4.4375e-05	633692.06	273324.78	-0.00032716605	273325.03	633691.44	-0.00028580023
0	0.64775944	0.6477588	-3.4428677e-10	0.06208412	0.06208412	0	75360.336	75360.26	-4e-05	633789.3	273073.62	-0.0003403279	273073.9	633788.7	-0.0001654633
0	0.6476521	0.64765143	-3.155962e-10	0.061942413	0.061942413	0	75347.84	75347.766	-3.5e-05	633883.56	272829.16	-0.00022563177	272829.4	633882.9	-0.00021435018
0	0.6475439	0.6475432	-6.598829e-10	0.06180102	0.06180102	0	75335.25	75335.18	-7.3125e-05	633977.75	272583.44	-0.00032340555	272583.75	633977	-0.0005866426
0	0.64743245	0.64743185	-5.666386e-10	0.06165979	0.06165979	0	75322.3	75322.22	-7.25e-05	634076.06	272329.12	-0.000447503	272329.4	634075.3	-0.0004211793
0	0.647325	0.6473244	-3.155962e-10	0.061518367	0.061518367	0	75309.78	75309.71	-3.4375e-05	634170	272084.7	-0.0002406739	272084.94	634169.4	-0.00018802648
0	0.64721566	0.647215	-5.379481e-10	0.06137681	0.061376818	0	75297.08	75297	-6.25e-05	634265.1	271836.62	-0.00039109506	271836.88	634264.4	-0.0003948556
0	0.64710534	0.6471046	-4.5904902e-10	0.061235435	0.061235435	0	75284.23	75284.15	-5.125e-05	634361.4	271585.8	-0.000319645	271586.06	634360.75	-0.0003046029
0	0.64699537	0.64699465	-5.738113e-10	0.061094042	0.061094042	0	75271.44	75271.36	-6.875e-05	634457.56	271335.6	-0.0005133123	271335.88	634456.94	-0.00035348977
0	0.6468849	0.64688426	-3.5863204e-10	0.060952503	0.0609525	0	75258.59	75258.516	-3.875e-05	634553.4	271085.28	-0.00036853188	271085.56	634552.7	-0.000127858
0	0.646772	0.6467715	-4.4470372e-10	0.060811102	0.060811102	0	75245.47	75245.39	-5.375e-05	634651.2	270829.53	-0.00028203972	270829.8	634650.44	-0.0003798135
0	0.6466637	0.646663	-4.1601317e-10	0.06066984	0.06066984	0	75232.85	75232.77	-5.125e-05	634744.8	270584.06	-0.00037605295	270584.3	634744.2	-0.00027075812
0	0.6465503	0.64654964	-2.2952451e-10	0.060528446	0.060528446	0	75219.664	75219.586	-2.4375e-05	634843.1	270327.03	-0.00017674488	270327.3	634842.56	-0.00013537906
0	0.6464408	0.64644015	-8.607169e-11	0.060386896	0.060386896	0	75206.92	75206.85	-7.5e-06	634937.3	270079.56	-0.000110935616	270079.8	634936.7	3.3844764e-05
0	0.6463286	0.6463279	-4.7339427e-10	0.060245506	0.060245506	0	75193.87	75193.79	-5.6875e-05	635033.4	269826.38	-0.0003309266	269826.66	635032.7	-0.0003798135
0	0.6462169	0.64621633	-1.14762255e-10	0.060104124	0.060104124	0	75180.875	75180.8	-1.375e-05	635130.1	269573.34	-0.00014290011	269573.6	635129.5	-2.2563177e-05
0	0.6461041	0.6461034	-2.0800658e-10	0.059962578	0.05996258	0	75167.74	75167.67	-3e-05	635227.3	269318.12	-0.0002406739	269318.4	635226.56	-6.768953e-05
0	0.6459921	0.6459914	-3.155962e-10	0.059821147	0.059821147	0	75154.72	75154.64	-3.25e-05	635323.1	269065.56	-0.00013537906	269065.84	635322.44	-0.0002406739
0	0.6458783	0.64587766	-2.8690564e-10	0.059679918	0.05967991	0	75141.49	75141.41	-2.875e-05	635419.7	268809.75	-0.0001711041	268810.03	635419.06	-0.00016922383
0	0.64576524	0.64576447	-2.4386979e-10	0.05953851	0.05953851	0	75128.31	75128.25	-3.5e-05	635517.2	268553.78	-0.00032716605	268554.1	635516.56	-6.768953e-05
0	0.6456503	0.6456497	-8.033358e-10	0.059396826	0.059396826	0	75114.945	75114.875	-9.75e-05	635615.44	268294.6	-0.0006618532	268294.9	635614.9	-0.000511432
0	0.6455382	0.6455376	-4.1601317e-10	0.059255596	0.059255596	0	75101.914	75101.836	-5.0625e-05	635710.6	268042.56	-0.0002933213	268042.84	635709.94	-0.0003083634
0	0.6454243	0.64542365	-3.873226e-10	0.059114188	0.059114188	0	75088.67	75088.58	-4.5e-05	635807.56	267786.1	-0.00036853188	267786.38	635806.9	-0.00021435018
0	0.64530784	0.6453071	-7.172641e-10	0.058972627	0.058972627	0	75075.11	75075.04	-8.125e-05	635906.6	267524.06	-0.00052647415	267524.34	635906	-0.0005227136
0	0.6451954	0.6451947	-2.8690564e-10	0.058831234	0.058831234	0	75062.04	75061.945	-3.3125e-05	636001.75	267271.47	-0.00020682912	267271.72	636001.1	-0.0002293923
0	0.6450796	0.645079	-4.5904902e-10	0.05868999	0.05868999	0	75048.56	75048.484	-4.625e-05	636099	267012.25	-0.00027075812	267012.56	636098.3	-0.00033656738
0	0.6449651	0.64496446	-4.5904902e-10	0.0585483	0.0585483	0	75035.25	75035.164	-5.125e-05	636196.44	266754.4	-0.00036101084	266754.75	636195.8	-0.00026699758
0	0.64484984	0.6448491	-1.577981e-10	0.058406904	0.058406904	0	75021.82	75021.74	-2.4375e-05	636293.6	266495.84	-0.00021435018	266496.16	636292.94	-5.2647414e-05
0	0.64473236	0.64473164	-5.59466e-10	0.058265664	0.058265664	0	75008.164	75008.08	-6.625e-05	636393	266231.97	-0.0004813478	266232.3	636392.25	-0.00038357402
0	0.64461744	0.64461666	-2.0083395e-10	0.05812423	0.05812423	0	74994.79	74994.71	-2.6875e-05	636489.4	265974.75	-0.00027075812	265975.06	636488.7	-9.7773765e-05
0	0.6445012	0.64450055	-5.307754e-10	0.057982713	0.057982713	0	74981.28	74981.19	-6.125e-05	636586.94	265714.5	-0.0004211793	265714.8	636586.3	-0.00037229242
0	0.6443845	0.6443838	-4.7339427e-10	0.05784131	0.057841305	0	74967.7	74967.61	-5.375e-05	636684.8	265453.2	-0.00053211494	265453.53	636684.06	-0.00019178701
0	0.64426833	0.6442676	-2.2952451e-10	0.057699904	0.057699904	0	74954.18	74954.09	-2.75e-05	636781.9	265193.44	-0.00012033695	265193.8	636781.1	-0.000255716
0	0.6441487	0.644148	-4.3035844e-10	0.057558388	0.057558395	0	74940.266	74940.17	-5.5e-05	636881.94	264925.97	-0.00035160952	264926.28	636881.2	-0.00031588448
0	0.6440327	0.644032	-3.2994146e-10	0.057416987	0.057416987	0	74926.766	74926.68	-3.75e-05	636978.44	264667.1	-0.0002933213	264667.4	636977.75	-0.00018426594
0	0.64391506	0.6439144	-1.2910753e-10	0.05727571	0.05727571	0	74913.086	74912.99	-1.25e-05	637076.4	264404.44	-3.0084237e-05	264404.78	637075.7	-0.00019930807
0	0.6437969	0.6437962	-2.8690564e-10	0.0571343	0.0571343	0	74899.336	74899.25	-3.6875e-05	637174.44	264140.94	-0.000127858	264141.22	637173.75	-0.00028956076
0	0.6436782	0.6436775	-3.0842356e-10	0.05699279	0.05699279	0	74885.52	74885.44	-3e-05	637273.1	263876	-0.00023879363	263876.34	637272.5	-0.00020306859
0	0.64355975	0.643559	-5.164301e-10	0.056851387	0.056851387	0	74871.734	74871.64	-6.5e-05	637371.2	263612.03	-0.00046630565	263612.38	637370.44	-0.00027075812
0	0.64344114	0.6434404	-2.4386979e-10	0.056709986	0.056709986	0	74857.945	74857.86	-2.9375e-05	637469.06	263348.2	-0.00013349879	263348.56	637468.3	-0.00018426594
0	0.64332014	0.6433194	-2.0083395e-10	0.05656847	0.056568477	0	74843.86	74843.77	-2.375e-05	637569.3	263078.53	-0.00010153429	263078.88	637568.56	-0.00022563177
0	0.64320135	0.64320064	-2.2952451e-10	0.05642703	0.05642703	0	74830.05	74829.96	-2.4375e-05	637667.2	262814.47	-0.0002406739	262814.8	637666.4	-0.00012409747
0	0.64308274	0.64308196	-4.3035844e-10	0.056285787	0.056285787	0	74816.24	74816.16	-5.125e-05	637764.2	262551.25	-0.00026699758	262551.62	637763.44	-0.00027827919
0	0.64296156	0.64296085	-3.3711411e-10	0.056144364	0.056144364	0	74802.15	74802.055	-3.75e-05	637863.1	262282.72	-0.00020306859	262283.06	637862.44	-0.00020682912
0	0.64284086	0.6428401	-3.2994146e-10	0.0560027	0.056002706	0	74788.11	74788.016	-4.375e-05	637962	262014.86	-0.00027075812	262015.23	637961.25	-0.00027075812
0	0.6427193	0.64271855	-2.653877e-10	0.05586147	0.055861473	0	74773.97	74773.875	-2.875e-05	638061.4	261745.36	-0.00017862515	261745.67	638060.7	-0.0001654633
0	0.6425995	0.6425988	-1.7214338e-10	0.055720054	0.055720054	0	74760.03	74759.945	-1.875e-05	638160	261479.02	-1.1281589e-05	261479.36	638159.3	-0.00022563177
0	0.6424775	0.64247674	-3.155962e-10	0.05557856	0.05557856	0	74745.836	74745.74	-2.75e-05	638258.94	261209.25	-0.00028580023	261209.61	638258.2	-0.00010153429
0	0.64235514	0.6423544	-3.5863204e-10	0.05543711	0.055437114	0	74731.61	74731.52	-4.4375e-05	638358.44	260938.42	-0.0002726384	260938.8	638357.8	-0.0003046029
0	0.64223397	0.64223313	-3.4428677e-10	0.05529586	0.05529586	0	74717.5	74717.41	-3.875e-05	638457.56	260669.55	-0.000255716	260669.89	638456.9	-0.00026323707
0	0.6421117	0.642111	-5.59466e-10	0.055154454	0.055154454	0	74703.28	74703.195	-6.25e-05	638557	260399.11	-0.000511432	260399.44	638556.3	-0.00024443443
0	0.6419882	0.6419874	-3.7297732e-10	0.05501279	0.05501279	0	74688.9	74688.81	-4.5e-05	638656.6	260126.38	-0.00027451865	260126.72	638655.94	-0.0002933213
0	0.64186573	0.6418649	-2.5462873e-10	0.054871544	0.054871544	0	74674.664	74674.56	-3.25e-05	638756.2	259855.56	-0.00031588448	259855.89	638755.44	-5.8288206e-05
0	0.64174163	0.641741	-5.522933e-10	0.05473013	0.05473012	0	74660.234	74660.14	-6.875e-05	638856.7	259581.38	-0.00043622142	259581.72	638856	-0.00037229242
0	0.6416175	0.6416167	-7.7823153e-10	0.054588605	0.054588605	0	74645.78	74645.68	-8.875e-05	638955.56	259308.56	-0.00060544524	259308.97	638954.94	-0.00050015043
0	0.6414947	0.6414939	-2.0800658e-10	0.05444719	0.05444718	0	74631.49	74631.41	-3.25e-05	639055.25	259036.97	-0.00018426594	259037.31	639054.56	-0.00019930807
0	0.6413707	0.6413699	-4.805669e-10	0.05430595	0.05430595	0	74617.07	74616.97	-5e-05	639154.5	258764.1	-0.00019554753	258764.47	639153.75	-0.00045502407
0	0.64124393	0.6412432	-2.79733e-10	0.054164287	0.054164287	0	74602.33	74602.234	-3e-05	639256.8	258484.31	-0.00025195547	258484.67	639256.06	-0.00012409747
0	0.6411198	0.641119	-1.2193489e-10	0.05402286	0.05402286	0	74587.87	74587.77	-1.375e-05	639356.44	258210.84	-0.00018050542	258211.22	639355.7	-2.6323707e-05
0	0.6409962	0.6409954	-1.5062546e-10	0.053881623	0.053881623	0	74573.5	74573.41	-2.3125e-05	639454.6	257939.67	-0.00010529483	257940.06	639453.9	-0.00016170277
0	0.64086986	0.640869	-2.0083395e-10	0.053740162	0.053740162	0	74558.79	74558.7	-2.25e-05	639554.9	257662.47	-5.0767147e-05	257662.88	639554.1	-0.00023315282
0	0.64074415	0.6407434	-2.0800658e-10	0.053598687	0.053598687	0	74544.18	74544.086	-2.5e-05	639655.06	257386.44	-0.0002406739	257386.81	639654.4	-6.768953e-05
0	0.64061844	0.64061767	-5.666386e-10	0.053457264	0.053457264	0	74529.555	74529.45	-7.125e-05	639755.6	257109.8	-0.00057160045	257110.17	639754.9	-0.00025195547
0	0.6404921	0.64049125	-6.311924e-10	0.05331584	0.05331584	0	74514.84	74514.76	-7.0625e-05	639855.94	256832.62	-0.00034408845	256833.03	639855.1	-0.00050015043
0	0.6403632	0.6403624	-5.522933e-10	0.053174376	0.053174376	0	74499.86	74499.766	-6.5e-05	639958.4	256549.77	-0.00043622142	256550.14	639957.6	-0.00037605295
0	0.6402376	0.6402368	-3.4428677e-10	0.053032946	0.053032946	0	74485.234	74485.15	-3.375e-05	640057.4	256274.86	-0.0002406739	256275.22	640056.6	-0.00019554753
0	0.64011085	0.64011	-2.0083395e-10	0.05289166	0.052891657	0	74470.5	74470.4	-2.125e-05	640157.4	255997.5	-0.0001654633	255997.94	640156.56	-0.00014666065
0	0.6399824	0.63998157	-3.012509e-10	0.052750226	0.052750226	0	74455.555	74455.45	-4.125e-05	640258.2	255716.75	-0.00016922383	255717.17	640257.5	-0.00026699758
0	0.63985455	0.6398536	-2.618014e-10	0.052608766	0.052608766	0	74440.67	74440.58	-3.375e-05	640358.94	255437	-0.00022563177	255437.39	640358.1	-0.00017298435
0	0.639726	0.63972515	-3.873226e-10	0.052467342	0.052467342	0	74425.73	74425.62	-4.4375e-05	640459.75	255156.27	-0.00027075812	255156.66	640458.94	-0.00028956076
0	0.63959503	0.63959414	-2.5104244e-10	0.052325908	0.052325908	0	74410.484	74410.39	-3e-05	640563.3	254869.34	-0.00022563177	254869.77	640562.5	-0.00018050542
0	0.63946676	0.63946587	-4.1601317e-10	0.05218446	0.05218445	0	74395.56	74395.48	-5e-05	640663.75	254589.3	-0.00037605295	254589.7	640662.94	-0.000255716
0	0.63933736	0.6393365	-2.9407826e-10	0.052042987	0.052042987	0	74380.51	74380.414	-3.75e-05	640765	254306.95	-0.00026511733	254307.33	640764.2	-0.00020306859
0	0.6392088	0.63920784	-3.4428677e-10	0.051901728	0.051901728	0	74365.55	74365.45	-3.875e-05	640864.7	254027.14	-0.00029708183	254027.58	640863.94	-0.00022187123
0	0.63907915	0.63907826	-3.2994146e-10	0.051760294	0.051760297	0	74350.46	74350.36	-3.375e-05	640965.4	253744.94	-0.00039109506	253745.36	640964.6	-9.7773765e-05
0	0.6389479	0.63894707	-5.236028e-10	0.051618665	0.051618673	0	74335.2	74335.1	-6.25e-05	641066.8	253459.84	-0.00041365824	253460.27	641066	-0.00036477135
0	0.63881505	0.6388142	-3.0842356e-10	0.05147742	0.05147742	0	74319.75	74319.65	-3.9375e-05	641171.2	253169.52	-0.00030084237	253169.94	641170.4	-0.00020682912
0	0.6386868	0.63868594	-8.750622e-10	0.051335983	0.051335983	0	74304.83	74304.73	-0.00010125	641269.75	252891.36	-0.0006167268	252891.77	641268.94	-0.0007220217
0	0.63855433	0.6385535	-4.016679e-10	0.051194493	0.051194493	0	74289.414	74289.31	-4.25e-05	641371.8	252603.9	-0.00028391997	252604.33	641370.94	-0.00031212394
0	0.6384227	0.6384218	-3.658047e-10	0.051053066	0.051053066	0	74274.1	74274	-3.875e-05	641473.5	252317.84	-0.0002763989	252318.28	641472.75	-0.00018050542
0	0.6382906	0.63828975	-5.307754e-10	0.05091181	0.05091181	0	74258.73	74258.625	-6.125e-05	641575.44	252030.98	-0.00036101084	252031.44	641574.56	-0.0004211793
0	0.6381584	0.63815755	-3.9449524e-10	0.050770186	0.050770186	0	74243.35	74243.24	-3.625e-05	641677	251744.36	-0.00033468712	251744.8	641676.25	-0.00014290011
0	0.63802373	0.63802284	-3.5863204e-10	0.050628755	0.050628755	0	74227.69	74227.58	-4.125e-05	641781.5	251451.17	-0.0002763989	251451.64	641780.8	-0.000255716
0	0.637891	0.6378901	-4.4470372e-10	0.05048749	0.050487496	0	74212.24	74212.14	-5.375e-05	641883.4	251163.66	-0.00039109506	251164.08	641882.56	-0.00019930807
0	0.63775885	0.63775796	-4.4470372e-10	0.050346017	0.050346017	0	74196.86	74196.76	-5e-05	641983.6	250878.27	-0.00035160952	250878.69	641982.9	-0.00028956076
0	0.6376227	0.6376219	-2.4386979e-10	0.05020459	0.050204586	0	74181.03	74180.93	-3.5e-05	642088.4	250583.08	-0.00017486462	250583.5	642087.56	-0.00024443443
0	0.63749045	0.6374896	-2.2952451e-10	0.05006314	0.05006314	0	74165.65	74165.54	-2.875e-05	642188.6	250297.6	-0.00022563177	250298.05	642187.8	-5.2647414e-05
0	0.637354	0.6373532	-6.8857353e-10	0.049921695	0.049921695	0	74149.77	74149.67	-7.875e-05	642293.1	250002.12	-0.00054151623	250002.6	642292.4	-0.00047382672
0	0.6372193	0.6372185	-2.5104244e-10	0.049780272	0.04978028	0	74134.1	74133.99	-3.125e-05	642395.4	249711.3	-0.00015794224	249711.77	642394.56	-0.00018802648
0	0.63708603	0.6370851	-3.873226e-10	0.049638826	0.049638826	0	74118.586	74118.484	-4.125e-05	642495.9	249424.02	-0.00037605295	249424.48	642495.1	-0.00017298435
0	0.63694805	0.6369471	-3.514594e-10	0.04949753	0.04949753	0	74102.53	74102.42	-4.3125e-05	642601	249125.78	-0.00027075812	249126.25	642600.2	-0.00027451865
0	0.6368125	0.6368117	-3.5863204e-10	0.049356084	0.049356084	0	74086.766	74086.664	-3.875e-05	642703.4	248833.7	-0.0003083634	248834.19	642702.5	-0.00019178701
0	0.6366763	0.63667536	-3.873226e-10	0.049214657	0.049214657	0	74070.93	74070.82	-4.75e-05	642806.2	248540.23	-0.0003309266	248540.69	642805.3	-0.0001654633
0	0.63654083	0.63653994	-3.2276884e-10	0.049073208	0.04907321	0	74055.16	74055.055	-3.875e-05	642907.3	248249.4	-0.00032340555	248249.89	642906.5	-0.00018050542
0	0.636404	0.63640296	-2.1517922e-10	0.048931766	0.048931766	0	74039.24	74039.125	-3e-05	643010.44	247954.58	-0.00012409747	247955.03	643009.6	-0.00019178701
0	0.63626677	0.6362658	-5.953292e-10	0.04879036	0.04879036	0	74023.27	74023.17	-6.625e-05	643113.25	247659.69	-0.00050391094	247660.12	643112.44	-0.00033468712
0	0.63612866	0.6361277	-5.236028e-10	0.048648857	0.048648857	0	74007.195	74007.09	-6.1875e-05	643216.2	247363.36	-0.00042305957	247363.83	643215.44	-0.00031588448
0	0.63598824	0.63598734	-3.0842356e-10	0.04850761	0.04850761	0	73990.87	73990.766	-4e-05	643322.44	247060.56	-0.00018050542	247061.05	643321.6	-0.00029708183
0	0.6358503	0.6358493	-1.7214338e-10	0.048366148	0.048366148	0	73974.81	73974.71	-2e-05	643425.44	246764.39	-0.00015794224	246764.88	643424.6	-0.00010529483
0	0.6357133	0.6357123	-1.7214338e-10	0.048224546	0.04822455	0	73958.875	73958.78	-2.375e-05	643526.8	246471.23	-0.0002613568	246471.7	643526	1.1281589e-05
0	0.63557225	0.63557124	-1.2193489e-10	0.048083294	0.048083294	0	73942.47	73942.37	-7.5e-06	643632.5	246168.14	-8.273165e-05	246168.64	643631.7	-0.000112815884
0	0.63543475	0.6354338	-2.0800658e-10	0.04794183	0.04794183	0	73926.48	73926.37	-2.375e-05	643733.6	245874.55	-0.00019554753	245875.03	643732.75	-0.00016922383
0	0.6352943	0.6352934	-3.0842356e-10	0.047800392	0.047800396	0	73910.14	73910.04	-3.3125e-05	643837.5	245574.08	-0.00022563177	245574.56	643836.6	-0.00018426594
0	0.63515216	0.6351512	-2.1517922e-10	0.047658946	0.047658946	0	73893.59	73893.49	-2.375e-05	643943.75	245268.78	-0.00013537906	245269.27	643942.8	-0.00016922383
0	0.63501173	0.6350108	-2.8690564e-10	0.047517676	0.047517676	0	73877.266	73877.15	-3.125e-05	644047.44	244968.38	-0.0002406739	244968.88	644046.6	-0.00018050542
0	0.6348723	0.63487124	-1.7931602e-10	0.04737622	0.047376227	0	73861.04	73860.92	-2.5e-05	644149.56	244671.03	-0.00025947654	244671.53	644148.8	-9.401324e-05
0	0.63472855	0.63472754	-3.9449524e-10	0.047234632	0.047234632	0	73844.31	73844.21	-4.625e-05	644256.06	244363.42	-0.0002726384	244363.95	644255.2	-0.00025195547
0	0.6345892	0.6345883	-2.0083395e-10	0.047093365	0.047093365	0	73828.11	73827.99	-2.3125e-05	644357.44	244066.97	-0.00030084237	244067.45	644356.5	-1.5042118e-05
0	0.63444614	0.63444525	-3.514594e-10	0.046951856	0.046951856	0	73811.47	73811.35	-4.0625e-05	644461.8	243762.34	-0.00031776473	243762.84	644461	-0.00015794224
0	0.63430417	0.63430315	-2.1517922e-10	0.046810478	0.04681048	0	73794.94	73794.83	-2.875e-05	644566.2	243459.12	-0.0003459687	243459.64	644565.3	7.521059e-06
0	0.6341608	0.6341598	-2.9407826e-10	0.046669014	0.046669014	0	73778.27	73778.164	-3.25e-05	644670.56	243154.17	-0.00019554753	243154.69	644669.6	-0.00020306859
0	0.6340174	0.63401645	-1.2193489e-10	0.046527762	0.046527762	0	73761.586	73761.47	-1.6875e-05	644775.06	242848.72	-9.7773765e-05	242849.25	644774.25	-4.8886883e-05
0	0.6338721	0.63387114	-4.016679e-10	0.04638618	0.04638618	0	73744.69	73744.57	-4.5e-05	644882.1	242538.33	-0.0002933213	242538.86	644881.3	-0.0002406739
0	0.6337303	0.63372934	-3.514594e-10	0.046244707	0.04624471	0	73728.19	73728.07	-4.0625e-05	644984.3	242237.64	-0.00015042118	242238.17	644983.4	-0.00035348977
0	0.6335831	0.6335822	8.607169e-11	0.04610345	0.04610345	0	73711.06	73710.95	8.75e-06	645091.8	241924.06	2.2563177e-05	241924.6	645090.94	9.025271e-05
0	0.6334386	0.6334377	-5.7381128e-11	0.045961928	0.045961928	0	73694.25	73694.13	-6.25e-06	645196.5	241616.98	7.521059e-06	241617.55	645195.7	-6.3929e-05
0	0.6332929	0.6332919	-3.2994146e-10	0.04582056	0.04582056	0	73677.3	73677.19	-3.75e-05	645301.75	241307.78	-0.00021811071	241308.31	645300.9	-0.00026323707
0	0.6331498	0.63314885	-8.607169e-11	0.0456791	0.045679096	0	73660.65	73660.54	-1.3125e-05	645404.1	241005.17	-5.4527678e-05	241005.73	645403.2	-7.145006e-05
0	0.63300157	0.6330006	-1.6497073e-10	0.04553762	0.04553762	0	73643.4	73643.28	-1.75e-05	645511.6	240689.95	-0.00027451865	240690.48	645510.8	3.0084237e-05
0	0.6328576	0.63285655	-5.020849e-10	0.045396265	0.04539626	0	73626.66	73626.54	-5.6875e-05	645614	240386.11	-0.00046630565	240386.67	645613.06	-0.00024819493
0	0.6327102	0.6327092	-3.0842356e-10	0.04525479	0.04525479	0	73609.5	73609.38	-3.125e-05	645719.5	240074.16	-0.00037229242	240074.73	645718.6	-5.2647414e-05
0	0.6325631	0.6325621	-4.231858e-10	0.04511347	0.04511347	0	73592.39	73592.266	-4.625e-05	645825.06	239762.66	-0.00029896208	239763.19	645824.3	-0.0003083634
0	0.6324133	0.63241243	-4.3394477e-10	0.044972	0.044972	0	73574.98	73574.86	-4.875e-05	645933.3	239444.9	-0.00033844766	239445.47	645932.44	-0.00024819493
0	0.63226557	0.63226455	-5.379481e-10	0.04483065	0.04483065	0	73557.78	73557.66	-6.125e-05	646038.6	239132.67	-0.00036477135	239133.23	646037.7	-0.00038357402
0	0.6321171	0.632116	-3.2276884e-10	0.044689175	0.044689175	0	73540.51	73540.39	-3.625e-05	646144.44	238819.02	-0.00019554753	238819.56	646143.56	-0.0003046029
0	0.63196826	0.6319673	-4.841533e-10	0.044547684	0.044547684	0	73523.19	73523.07	-5.625e-05	646250.2	238504.81	-0.00036101084	238505.4	646249.3	-0.00033844766
0	0.63182086	0.6318198	-1.577981e-10	0.04440635	0.04440635	0	73506.04	73505.91	-1.25e-05	646353.75	238194.89	-0.000127858	238195.47	646352.9	-9.7773765e-05
0	0.6316702	0.63166904	-2.5104244e-10	0.04426482	0.044264823	0	73488.5	73488.375	-3.125e-05	646459.5	237878.06	-0.00017862515	237878.69	646458.6	-0.00019178701