//mumax 3.10 [windows_amd64 go1.11.6(gc) CUDA-11.0]
//GPU info: NVIDIA GeForce RTX 3090(24575MB), CUDA Driver 12.0, cc=8.6, using cc=80 PTX
//(c) Arne Vansteenkiste, Dynamat LAB, Ghent University, Belgium
//This is free software without any warranty. See license.txt
//********************************************************************//
//  If you use mumax in any work or publication,                      //
//  we kindly ask you to cite the references in references.bib        //
//********************************************************************//
//output directory: r1;p0.8;a5.12e-07;l3.0000000000000004e-07;s2.out/
randSeed(2)
ThermSeed(2)
resolution := 2e-09
zResolution := 5e-09
a := 5.12e-07
gridSize := 512
gridDepth := 5
SetCellsize(resolution, resolution, zResolution)
SetGridsize(gridSize, gridSize, gridDepth)
SetPBC(16, 16, 0)
//resizing...
Msat = 700e3
Aex = 13e-12
alpha = 0.2
Bmax := 0.1
Bstep := Bmax / 500.0
TableAdd(B_ext)
TableAdd(m_full)
islandWidth := 8e-08
islandLength := 3.0000000000000004e-07
ellipseConstant := 1.2000000000000002e-07
hIsland := rect(islandLength-2*ellipseConstant, islandWidth)
hIsland = hIsland.add(ellipse(ellipseConstant*2, islandWidth).transl(islandLength/2-ellipseConstant, 0, 0))
hIsland = hIsland.add(ellipse(ellipseConstant*2, islandWidth).transl(-islandLength/2+ellipseConstant, 0, 0))
hIsland = hIsland.sub(rect(1e-08, -1.6795922037973582e-09).transl(-1.9984989298417982e-08, -4e-08, 0))
hIsland = hIsland.sub(rect(1e-08, -2.2787119640499647e-09).transl(4.529243754795893e-08, -3.9673866788887866e-08, 0))
hIsland = hIsland.sub(rect(1e-08, -1.1951263533041406e-09).transl(-7.542332018053207e-08, -3.702359905636294e-08, 0))
hIsland = hIsland.add(rect(1e-08, 2.0396726637869103e-09).transl(6.27315198420267e-08, -3.848325409091165e-08, 0))
hIsland = hIsland.add(rect(1e-08, 7.346704718137536e-10).transl(5.365182300223567e-08, -3.921534743307483e-08, 0))
hIsland = hIsland.sub(rect(1e-08, -7.851235455252251e-09).transl(-9.410060248281168e-09, -4e-08, 0))
hIsland = hIsland.add(rect(1e-08, 4.294320733206208e-09).transl(8.521032561419478e-08, -3.551497328291358e-08, 0))
hIsland = hIsland.sub(rect(1e-08, -1.238294408151616e-09).transl(7.515920849215696e-08, -3.705948055095859e-08, 0))
hIsland = hIsland.add(rect(1e-08, 4.991596588082918e-09).transl(1.2041929304800778e-07, -2.6298186343672056e-08, 0))
hIsland = hIsland.sub(rect(1e-08, -5.794443656889252e-09).transl(8.648427841289248e-08, -3.529168345875216e-08, 0))
hIsland = hIsland.sub(rect(1e-08, -2.7642812297193105e-10).transl(-3.266875118330432e-08, -3.99901067864452e-08, 0))
hIsland = hIsland.add(rect(1e-08, 2.256945018401134e-09).transl(-1.775047327065059e-08, -4e-08, 0))
hIsland = hIsland.add(rect(1e-08, 6.793106595222254e-10).transl(-1.2251728025542566e-07, -2.547450327536454e-08, 0))
hIsland = hIsland.add(rect(1e-08, 6.018907174335981e-09).transl(-1.8245221723755213e-08, -4e-08, 0))
hIsland = hIsland.sub(rect(1e-08, -2.275683908484885e-09).transl(-1.1923707105046026e-07, -2.6743109497453544e-08, 0))
hIsland = hIsland.sub(rect(1e-08, -4.736585031095154e-09).transl(-9.400117225399147e-08, -3.3835960407227024e-08, 0))
hIsland = hIsland.add(rect(1e-08, 2.4697391399599455e-09).transl(7.488227098313623e-08, -3.709684285967133e-08, 0))
hIsland = hIsland.add(rect(1e-08, 3.881822650244712e-09).transl(-1.3421620255181868e-07, -1.9829784348237115e-08, 0))
hIsland = hIsland.sub(rect(1e-08, -7.302138502095117e-09).transl(2.6092700860636632e-08, -4e-08, 0))
hIsland = hIsland.add(rect(1e-08, 7.182190292102556e-09).transl(3.583393156378536e-08, -3.995270153917987e-08, 0))
hIsland = hIsland.sub(rect(1e-08, -7.858923300214073e-11).transl(1.6010769460871586e-08, -4e-08, 0))
hIsland = hIsland.add(rect(1e-08, 7.255653644483067e-10).transl(1.363677916862204e-07, -1.8516937867191345e-08, 0))
hIsland = hIsland.add(rect(1e-08, 6.1802874971608246e-09).transl(-9.668200855269643e-08, -3.325575929298751e-08, 0))
hIsland = hIsland.sub(rect(1e-08, -5.2349390645336285e-09).transl(-1.320239930865942e-07, -2.1058397202558685e-08, 0))
hIsland = hIsland.sub(rect(1e-08, -2.719416571750146e-09).transl(-1.9572788753459958e-08, -4e-08, 0))
hIsland = hIsland.sub(rect(1e-08, -1.7269995591668537e-10).transl(-4.9502333226187634e-08, -3.9468213650332645e-08, 0))
hIsland = hIsland.sub(rect(1e-08, -3.618297284742777e-09).transl(-3.692079132251658e-08, -3.9933420488872867e-08, 0))
hIsland = hIsland.add(rect(1e-08, 1.1079891730509513e-09).transl(1.4474705522161342e-07, -1.17052377543275e-08, 0))
hIsland = hIsland.add(rect(1e-08, 2.3070067667820788e-10).transl(-1.428689480555884e-08, -4e-08, 0))
hIsland = hIsland.sub(rect(1e-08, -1.0121523352023299e-09).transl(1.2569172548600405e-07, -2.4136403288880307e-08, 0))
hIsland = hIsland.add(rect(1e-08, 3.814814190058286e-09).transl(1.36940631604577e-07, -1.8146629047273486e-08, 0))
hIsland = hIsland.sub(rect(1e-08, -4.409562144270225e-09).transl(-1.3239601139308515e-07, -2.085680504665398e-08, 0))
hIsland = hIsland.sub(rect(1e-08, -1.2536099022137414e-10).transl(1.0118655003872478e-07, -3.2201578797706543e-08, 0))
hIsland = hIsland.sub(rect(1e-08, -5.4938093705839295e-09).transl(8.252824256342767e-08, -3.596415458202438e-08, 0))
hIsland = hIsland.sub(rect(1e-08, -1.2966261708304498e-10).transl(1.0372986314748834e-07, -3.155930445694026e-08, 0))
hIsland = hIsland.add(rect(1e-08, 4.834852378863345e-09).transl(-7.33582617116803e-08, -3.7297693019722996e-08, 0))
hIsland = hIsland.sub(rect(1e-08, -3.230233960818751e-09).transl(-7.520910124028311e-08, -3.7052720945290064e-08, 0))
hIsland = hIsland.sub(rect(1e-08, -4.868848309211451e-09).transl(5.0072474191227454e-08, -3.9436440818447926e-08, 0))
hIsland = hIsland.add(rect(1e-08, 3.4317119763396332e-09).transl(-8.699277098396394e-08, -3.520073240331709e-08, 0))
hIsland = hIsland.sub(rect(1e-08, -2.15565694548234e-09).transl(-2.371709397021374e-08, -4e-08, 0))
hIsland = hIsland.add(rect(1e-08, 1.0516626209344148e-09).transl(-3.958209356957285e-08, -3.987227313256942e-08, 0))
hIsland = hIsland.add(rect(1e-08, 7.374700367433216e-09).transl(-1.220434685444968e-08, -4e-08, 0))
hIsland = hIsland.sub(rect(1e-08, -8.482160228181712e-09).transl(3.976117531319904e-08, -3.986744628070626e-08, 0))
hIsland = hIsland.add(rect(1e-08, 7.409038966226376e-10).transl(-9.320747943335517e-08, -3.400133092767919e-08, 0))
hIsland = hIsland.add(rect(1e-08, 1.3442994430536239e-09).transl(1.1722341464184058e-08, -4e-08, 0))
hIsland = hIsland.sub(rect(1e-08, -1.6260210856282392e-09).transl(1.584910436060427e-08, -4e-08, 0))
hIsland = hIsland.add(rect(1e-08, 8.443787073347703e-10).transl(1.0299304210139317e-07, -3.174904338853595e-08, 0))
hIsland = hIsland.sub(rect(1e-08, -4.787151512508394e-09).transl(-2.5775241588806117e-08, -4e-08, 0))
hIsland = hIsland.sub(rect(1e-08, -1.9960299655477283e-09).transl(4.931284966522484e-08, -3.9478564982656414e-08, 0))
hIsland = hIsland.sub(rect(1e-08, -1.0206211770782304e-09).transl(1.2699530582247704e-07, -2.3551151536847896e-08, 0))
hIsland = hIsland.add(rect(1e-08, 5.296859853933137e-09).transl(-6.489884991946312e-09, -4e-08, 0))
hIsland = hIsland.sub(rect(1e-08, -3.765641840588244e-09).transl(1.4793464963302047e-07, -7.389319739677674e-09, 0))
hIsland = hIsland.add(rect(1e-08, 1.620377641049616e-09).transl(-1.0206707505426011e-07, -3.198321902554463e-08, 0))
hIsland = hIsland.add(rect(1e-08, 2.3228045754279523e-09).transl(6.77894852839245e-08, -3.796482992627088e-08, 0))
hIsland = hIsland.add(rect(1e-08, 3.6666445383674065e-09).transl(-1.052934175208463e-07, -3.114643064627955e-08, 0))
hIsland = hIsland.sub(rect(1e-08, -1.7141564931115407e-09).transl(-1.0525753605852626e-07, -3.115606462525862e-08, 0))
hIsland = hIsland.add(rect(1e-08, 3.5731852409027655e-09).transl(-1.1092661484751912e-07, -2.9535069567702622e-08, 0))
hIsland = hIsland.sub(rect(1e-08, -4.897804921422094e-09).transl(2.2982570326998012e-08, -4e-08, 0))
hIsland = hIsland.sub(rect(1e-08, -1.7743385822844712e-09).transl(9.278536130478814e-08, -3.408811849999484e-08, 0))
hIsland = hIsland.sub(rect(1e-08, -5.60338516470988e-09).transl(1.4739140838367194e-07, -8.294959900097051e-09, 0))
hIsland = hIsland.add(rect(1e-08, 6.499582217056056e-10).transl(7.021859081274518e-08, -3.7686521246604525e-08, 0))
hIsland = hIsland.add(rect(1e-08, 2.3093078511887395e-09).transl(1.3397015557898236e-07, -1.997277799873898e-08, 0))
hIsland = hIsland.sub(rect(1e-08, -6.587923322311274e-09).transl(-1.1897214297505954e-07, -2.6841008787188896e-08, 0))
hIsland = hIsland.add(rect(1e-08, 1.8041457208218416e-09).transl(5.598169084774037e-08, -3.905117972423773e-08, 0))
hIsland = hIsland.add(rect(1e-08, 3.936697774373831e-09).transl(-1.4899595676113864e-07, -5.163571917246904e-09, 0))
hIsland = hIsland.sub(rect(1e-08, -6.275855465776939e-09).transl(-4.623692610090591e-09, -4e-08, 0))
hIsland = hIsland.sub(rect(1e-08, -3.820317587300905e-09).transl(-1.1338519377622694e-07, -2.876515920905607e-08, 0))
hIsland = hIsland.add(rect(1e-08, 2.4543263102523394e-09).transl(-6.982343682569182e-08, -3.7733118196368636e-08, 0))
hIsland = hIsland.add(rect(1e-08, 3.0317332025339905e-09).transl(2.1112385518659216e-08, -4e-08, 0))
hIsland = hIsland.add(rect(1e-08, 1.6467001272652593e-09).transl(7.422700208104358e-08, -3.718418464126825e-08, 0))
hIsland = hIsland.sub(rect(1e-08, -1.2741784409471345e-10).transl(6.174250566357149e-08, -3.857519832770812e-08, 0))
hIsland = hIsland.add(rect(1e-08, 3.6175542074303524e-09).transl(5.658945519663072e-08, -3.9005698831988876e-08, 0))
hIsland = hIsland.sub(rect(1e-08, -1.932523765654876e-09).transl(2.2950556812315405e-08, -4e-08, 0))
hIsland = hIsland.add(rect(1e-08, 3.560347531397122e-09).transl(-1.1146413701361282e-09, -4e-08, 0))
hIsland = hIsland.add(rect(1e-08, 1.5357525293750046e-09).transl(9.9508119276151e-08, -3.26064433896335e-08, 0))
hIsland = hIsland.add(rect(1e-08, 4.040496101129285e-09).transl(1.1791236634657413e-07, -2.722624518802429e-08, 0))
hIsland = hIsland.add(rect(1e-08, 8.318074567104189e-10).transl(1.218188528541483e-07, -2.575374462642551e-08, 0))
hIsland = hIsland.add(rect(1e-08, 1.7414580231511956e-09).transl(1.2407356522436713e-07, -2.4833141668112143e-08, 0))
hIsland = hIsland.sub(rect(1e-08, -2.330807710070227e-09).transl(1.1477303065335873e-07, -2.831084062852702e-08, 0))
hIsland = hIsland.sub(rect(1e-08, -2.9529588626275206e-09).transl(-1.3782669960670175e-08, -4e-08, 0))
hIsland = hIsland.sub(rect(1e-08, -1.209542163410857e-09).transl(1.496869808246575e-07, -2.8872636233805736e-09, 0))
hIsland = hIsland.add(rect(1e-08, 3.7262053533581555e-09).transl(-1.0491767849470615e-07, -3.124694020391587e-08, 0))
hIsland = hIsland.sub(rect(1e-08, -7.629579318333022e-09).transl(-4.016689266210146e-08, -3.9856177959142195e-08, 0))
hIsland = hIsland.sub(rect(1e-08, -2.4513863831622862e-11).transl(1.4984242099613334e-07, -2.049231015271189e-09, 0))
hIsland = hIsland.add(rect(1e-08, 7.605965084160096e-09).transl(-3.944719786700675e-08, -3.987584962865177e-08, 0))
hIsland = hIsland.add(rect(1e-08, 1.1679233552297573e-09).transl(-5.7625965598638466e-08, -3.89255786009132e-08, 0))
hIsland = hIsland.sub(rect(1e-08, -1.1948070497615303e-09).transl(-1.3699588171597488e-07, -1.8110406142513497e-08, 0))
hIsland = hIsland.add(rect(1e-08, 9.869808070880706e-09).transl(9.768448790068238e-08, -3.302996972047992e-08, 0))
hIsland = hIsland.add(rect(1e-08, 4.1927215262897285e-09).transl(9.523162483544379e-09, -4e-08, 0))
hIsland = hIsland.sub(rect(1e-08, -3.864104249897776e-09).transl(8.97922101225085e-08, -3.4680913112203364e-08, 0))
hIsland = hIsland.sub(rect(1e-08, -1.8001064331729469e-09).transl(1.8674313677121416e-08, -4e-08, 0))
hIsland = hIsland.sub(rect(1e-08, -5.169971944435041e-09).transl(-1.0763904889125851e-07, -3.049986901112268e-08, 0))
hIsland = hIsland.sub(rect(1e-08, -5.65921979804202e-09).transl(8.981784579005207e-08, -3.467600086681397e-08, 0))
hIsland = hIsland.add(rect(1e-08, 1.159566114366634e-09).transl(1.0162870764054912e-07, -3.209245020552124e-08, 0))
hIsland = hIsland.sub(rect(1e-08, -9.812312609981351e-09).transl(-6.367485775812258e-08, -3.83927133638811e-08, 0))
hIsland = hIsland.add(rect(1e-08, 2.953422031811185e-10).transl(-1.067381713068762e-07, -3.0752150899438496e-08, 0))
hIsland = hIsland.sub(rect(1e-08, -5.032591396103218e-09).transl(-1.429267118922335e-07, -1.3530039587724359e-08, 0))
hIsland = hIsland.add(rect(1e-08, 2.220513599594477e-09).transl(5.57230050830354e-08, -3.9070203209519225e-08, 0))
hIsland = hIsland.add(rect(1e-08, 1.6241263034421213e-10).transl(9.636884401826184e-08, -3.332529326982673e-08, 0))
hIsland = hIsland.add(rect(1e-08, 8.115557095541353e-09).transl(-2.3330552929600662e-08, -4e-08, 0))
hIsland = hIsland.sub(rect(1e-08, -1.3583745077349123e-09).transl(-1.424995839894592e-07, 1.3919784489865185e-08, 0))
hIsland = hIsland.sub(rect(1e-08, -1.922935899075355e-09).transl(-1.2318933671267428e-07, 2.5200854313234486e-08, 0))
hIsland = hIsland.add(rect(1e-08, 4.092704591751701e-09).transl(1.6521119466675265e-08, 4e-08, 0))
hIsland = hIsland.add(rect(1e-08, 1.0889135823313324e-09).transl(8.456154063476126e-08, 3.562620490525556e-08, 0))
hIsland = hIsland.sub(rect(1e-08, -4.7383601260743655e-09).transl(2.3211672281371598e-08, 4e-08, 0))
hIsland = hIsland.sub(rect(1e-08, -2.320651753722396e-09).transl(1.300707077213723e-08, 4e-08, 0))
hIsland = hIsland.add(rect(1e-08, 9.055512155783153e-09).transl(4.846284327917305e-08, 3.952372482734431e-08, 0))
hIsland = hIsland.sub(rect(1e-08, -1.173666791465932e-11).transl(1.1146911362720414e-07, 2.9368886644803212e-08, 0))
hIsland = hIsland.sub(rect(1e-08, -2.4019248400675996e-10).transl(-1.0555976770723323e-07, 3.1074679767776914e-08, 0))
hIsland = hIsland.add(rect(1e-08, 2.3077643453873064e-09).transl(-6.105133342546489e-08, 3.8637653903501104e-08, 0))
hIsland = hIsland.add(rect(1e-08, 2.8086809909126204e-09).transl(-4.534462163834697e-08, 3.967162796252922e-08, 0))
hIsland = hIsland.add(rect(1e-08, 4.728413394978079e-10).transl(9.292213952132079e-08, 3.406008474912703e-08, 0))
hIsland = hIsland.sub(rect(1e-08, -1.4761786695122693e-09).transl(-1.436711321180948e-07, 1.2818709082997217e-08, 0))
hIsland = hIsland.sub(rect(1e-08, -2.5633068593444718e-09).transl(1.2427799961312773e-07, 2.4746848932848645e-08, 0))
hIsland = hIsland.sub(rect(1e-08, -2.563607263605382e-09).transl(6.807506847089226e-08, 3.7933112420178154e-08, 0))
hIsland = hIsland.add(rect(1e-08, 2.0865067043551546e-09).transl(3.967290205435583e-08, 3.986983678288755e-08, 0))
hIsland = hIsland.add(rect(1e-08, 6.134155398271539e-09).transl(2.7174705182099344e-08, 4e-08, 0))
hIsland = hIsland.sub(rect(1e-08, -4.80820618110647e-09).transl(1.440047945034504e-07, 1.2485132626119083e-08, 0))
hIsland = hIsland.sub(rect(1e-08, -3.240503667909092e-09).transl(-1.221684561533864e-07, 2.5614613212646355e-08, 0))
hIsland = hIsland.sub(rect(1e-08, -2.7579621955204676e-09).transl(-9.608644768959508e-09, 4e-08, 0))
hIsland = hIsland.sub(rect(1e-08, -1.3025357102725525e-09).transl(-8.712419908074123e-08, 3.517705356776369e-08, 0))
hIsland = hIsland.sub(rect(1e-08, -4.026979789048472e-09).transl(-4.4204700021156674e-08, 3.971877039792669e-08, 0))
hIsland = hIsland.sub(rect(1e-08, -8.966106303750185e-10).transl(7.821275024372995e-08, 3.662957322822294e-08, 0))
hIsland = hIsland.add(rect(1e-08, 7.071948839405467e-09).transl(8.756437368977448e-08, 3.509723458828187e-08, 0))
hIsland = hIsland.sub(rect(1e-08, -1.0887539384604163e-09).transl(-6.357589826725341e-08, 3.840234231216611e-08, 0))
hIsland = hIsland.add(rect(1e-08, 7.858308374630215e-10).transl(-1.1448199892448233e-07, 2.84073383667041e-08, 0))
hIsland = hIsland.add(rect(1e-08, 1.5141403773469883e-09).transl(5.8787435274862164e-08, 3.883195071972967e-08, 0))
hIsland = hIsland.add(rect(1e-08, 5.506234296425578e-09).transl(-3.777761919288608e-08, 3.9915895802842545e-08, 0))
hIsland = hIsland.add(rect(1e-08, 6.148625610607994e-09).transl(1.1121303453644049e-07, 2.9447586245891425e-08, 0))
hIsland = hIsland.add(rect(1e-08, 1.3308523527993524e-09).transl(6.581195251423645e-08, 3.8177224241567083e-08, 0))
hIsland = hIsland.sub(rect(1e-08, -1.392983681184717e-09).transl(-8.93939776341713e-08, 3.475686250510915e-08, 0))
hIsland = hIsland.sub(rect(1e-08, -1.6470713320805165e-09).transl(-1.372665958779031e-07, 1.79315904009489e-08, 0))
hIsland = hIsland.sub(rect(1e-08, -1.726839570423513e-09).transl(1.413178147214847e-07, 1.4938184203328688e-08, 0))
hIsland = hIsland.sub(rect(1e-08, -1.7528847807121731e-10).transl(1.2529250680522556e-07, 2.431126429999075e-08, 0))
hIsland = hIsland.add(rect(1e-08, 2.5806070974441825e-09).transl(-9.526947903560612e-08, 3.356568205510664e-08, 0))
hIsland = hIsland.sub(rect(1e-08, -5.290222838425654e-09).transl(5.616417392451787e-08, 3.903763996004025e-08, 0))
hIsland = hIsland.sub(rect(1e-08, -2.3708430796378137e-09).transl(1.995046076466097e-08, 4e-08, 0))
hIsland = hIsland.add(rect(1e-08, 3.0010156024497544e-09).transl(-9.086716256599522e-08, 3.447251485066636e-08, 0))
hIsland = hIsland.add(rect(1e-08, 1.6077459102243307e-09).transl(-1.1363530869074132e-07, 2.8684364963443866e-08, 0))
hIsland = hIsland.sub(rect(1e-08, -6.238409069758303e-09).transl(3.6874148042982446e-08, 3.99343156371715e-08, 0))
hIsland = hIsland.sub(rect(1e-08, -8.665215163881902e-11).transl(4.781968387179376e-08, 3.955651212956715e-08, 0))
hIsland = hIsland.add(rect(1e-08, 4.394686871579282e-09).transl(4.9292450771970774e-08, 3.947967317101448e-08, 0))
hIsland = hIsland.add(rect(1e-08, 7.374743358502454e-10).transl(-1.369753071154837e-08, 4e-08, 0))
hIsland = hIsland.sub(rect(1e-08, -5.711576311521092e-09).transl(-1.1352167256373488e-07, 2.8721130843096188e-08, 0))
hIsland = hIsland.add(rect(1e-08, 4.588342226069795e-09).transl(5.938942622532719e-08, 3.8781813644694127e-08, 0))
hIsland = hIsland.add(rect(1e-08, 9.087718859020547e-10).transl(-1.1773873580749187e-08, 4e-08, 0))
hIsland = hIsland.add(rect(1e-08, 8.225531649211801e-10).transl(1.6827590198635783e-08, 4e-08, 0))
hIsland = hIsland.add(rect(1e-08, 5.417279221010825e-10).transl(-3.517258786396621e-08, 3.9962822076399336e-08, 0))
hIsland = hIsland.sub(rect(1e-08, -8.984000124287503e-09).transl(7.263461686590505e-08, 3.739026825956111e-08, 0))
hIsland = hIsland.add(rect(1e-08, 2.908327977791664e-09).transl(1.0132836573042303e-07, 3.216669126463138e-08, 0))
hIsland = hIsland.add(rect(1e-08, 1.7556849984706833e-09).transl(1.1963076541333494e-07, 2.659641974949035e-08, 0))
hIsland = hIsland.sub(rect(1e-08, -7.0259607835737906e-09).transl(-2.837924234608339e-08, 4e-08, 0))
hIsland = hIsland.sub(rect(1e-08, -3.55360669876932e-11).transl(1.0179079997235224e-07, 3.205218148119253e-08, 0))
hIsland = hIsland.add(rect(1e-08, 3.4387012365049752e-09).transl(2.0760472431405765e-08, 4e-08, 0))
hIsland = hIsland.add(rect(1e-08, 7.805966902041794e-10).transl(-1.3622909573422515e-08, 4e-08, 0))
hIsland = hIsland.add(rect(1e-08, 1.465814149009311e-09).transl(3.623369005429335e-08, 3.994599285744998e-08, 0))
hIsland = hIsland.add(rect(1e-08, 3.350105657390017e-09).transl(-4.594529201264138e-08, 3.964529909450047e-08, 0))
hIsland = hIsland.add(rect(1e-08, 6.679731653930563e-10).transl(-4.883113187140536e-08, 3.9504413919968404e-08, 0))
hIsland = hIsland.sub(rect(1e-08, -4.6424584311946927e-10).transl(-1.3501549060300514e-07, 1.935558126056824e-08, 0))
hIsland = hIsland.sub(rect(1e-08, -2.320524074904976e-09).transl(1.492316203033236e-07, 4.519350000511086e-09, 0))
hIsland = hIsland.add(rect(1e-08, 1.6953857726579789e-09).transl(-4.539847380388938e-08, 3.966930944209044e-08, 0))
hIsland = hIsland.add(rect(1e-08, 6.828886409105998e-10).transl(1.269156481869389e-07, 2.3587560602302158e-08, 0))
hIsland = hIsland.add(rect(1e-08, 9.107580484650922e-10).transl(-1.4831220658803782e-07, 6.685155796983393e-09, 0))
hIsland = hIsland.add(rect(1e-08, 5.150545964107189e-09).transl(1.4361850897389596e-07, 1.2870441667931858e-08, 0))
hIsland = hIsland.sub(rect(1e-08, -1.3210509334707737e-09).transl(7.98161502005027e-08, 3.6390400411831686e-08, 0))
hIsland = hIsland.add(rect(1e-08, 7.49306172734138e-09).transl(-1.5458232850205932e-08, 4e-08, 0))
hIsland = hIsland.add(rect(1e-08, 4.415621939803174e-09).transl(1.4839027905701278e-07, 6.5297764535722914e-09, 0))
hIsland = hIsland.sub(rect(1e-08, -5.558071012642035e-09).transl(3.3203527064792e-08, 3.9985743868346585e-08, 0))
hIsland = hIsland.add(rect(1e-08, 2.2563780748268473e-09).transl(-7.842658540187948e-08, 3.6598217665033414e-08, 0))
hIsland = hIsland.sub(rect(1e-08, -1.0350787175829088e-09).transl(-1.000776820971427e-07, 3.2470702130949796e-08, 0))
hIsland = hIsland.sub(rect(1e-08, -7.514339604807565e-10).transl(-1.4789148114791417e-07, 7.465466218611028e-09, 0))
hIsland = hIsland.add(rect(1e-08, 1.0722974069820065e-09).transl(1.4716365633322335e-07, 8.645343220680764e-09, 0))
hIsland = hIsland.add(rect(1e-08, 3.9263052204488084e-09).transl(-7.261887729802968e-09, 4e-08, 0))
hIsland = hIsland.add(rect(1e-08, 3.8176806857365556e-09).transl(5.520841944650231e-09, 4e-08, 0))
hIsland = hIsland.sub(rect(1e-08, -4.140580606357921e-11).transl(1.499498590474308e-07, 1.1562061764181132e-09, 0))
hIsland = hIsland.add(rect(1e-08, 6.293568634790645e-09).transl(5.835755350181037e-08, 3.88670799854981e-08, 0))
hIsland = hIsland.add(rect(1e-08, 3.113634215866969e-11).transl(1.0950754596600745e-07, 2.9960251694654105e-08, 0))
hIsland = hIsland.sub(rect(1e-08, -2.2971500019713026e-09).transl(-1.1569596476867351e-07, 2.800040004151979e-08, 0))
hIsland = hIsland.add(rect(1e-08, 1.3635751249597428e-09).transl(-3.242922869027694e-08, 3.9991803115652944e-08, 0))
hIsland = hIsland.add(rect(1e-08, 3.5720735187680386e-09).transl(-6.118095971202448e-08, 3.862605302618817e-08, 0))
hIsland = hIsland.add(rect(1e-08, 2.060509862923988e-09).transl(-3.729367661016138e-08, 3.992604591478598e-08, 0))
hIsland = hIsland.add(rect(1e-08, 2.601002328180906e-09).transl(-9.913281686812072e-08, 3.2694976902472486e-08, 0))
hIsland = hIsland.sub(rect(1e-08, -3.38310344953398e-10).transl(-5.60059714130876e-08, 3.904938390588352e-08, 0))
hIsland = hIsland.add(rect(1e-08, 1.0558095870079394e-09).transl(5.267671439187083e-08, 3.927929426893388e-08, 0))
hIsland = hIsland.add(rect(1e-08, 4.420801385476917e-09).transl(4.6746589001868243e-08, 3.960857336599196e-08, 0))
hIsland = hIsland.add(rect(1e-08, 1.7188992791803145e-09).transl(-1.2090748188119218e-07, 2.611051243809818e-08, 0))
hIsland = hIsland.add(rect(1e-08, 9.138291637593209e-10).transl(6.386380029285744e-08, 3.837424343043633e-08, 0))
hIsland = hIsland.sub(rect(1e-08, -7.495571569838443e-09).transl(4.454174562519177e-08, 3.9705216049968684e-08, 0))
hIsland = hIsland.add(rect(1e-08, 2.245870876313361e-09).transl(-5.6040388371313207e-08, 3.904683537251014e-08, 0))
hIsland = hIsland.add(rect(1e-08, 2.5160453609453184e-09).transl(1.4318864028790419e-07, 1.3284626494040388e-08, 0))
hIsland = hIsland.add(rect(1e-08, 3.32346603484371e-09).transl(4.536155002347699e-09, 4e-08, 0))
hIsland = hIsland.sub(rect(1e-08, -8.041796592014226e-09).transl(8.369187986600298e-08, 3.577271156816899e-08, 0))
hIsland = hIsland.sub(rect(1e-08, -1.5981656904479017e-09).transl(-9.752727811763506e-08, 3.306570346383355e-08, 0))
hIsland = hIsland.sub(rect(1e-08, -4.992634360060071e-10).transl(-3.030009879555784e-09, 4e-08, 0))
hIsland = hIsland.sub(rect(1e-08, -3.1986688304549014e-09).transl(-6.66394577902482e-08, 3.8089879281096615e-08, 0))
hIsland = hIsland.sub(rect(1e-08, -1.8319758600474352e-09).transl(-4.486432722263698e-08, 3.96919412142767e-08, 0))
hIsland = hIsland.add(rect(1e-08, 7.024463408857067e-10).transl(-6.120879687342736e-08, 3.8623554985862004e-08, 0))
hIsland = hIsland.sub(rect(1e-08, -3.25156410442413e-09).transl(-7.591505042366182e-08, 3.6956142392169236e-08, 0))
hIsland = hIsland.sub(rect(1e-08, -4.692870358712877e-10).transl(-4.482147101923526e-08, 3.9693721861308065e-08, 0))
hIsland = hIsland.add(rect(1e-08, 1.0405602294067457e-08).transl(-8.659054240533762e-08, 3.527276335183295e-08, 0))
vIsland := hIsland.rotz(pi / 2)
vIslands := Universe().Inverse()
hIslands := Universe().Inverse()
hIslands = hIslands.add(hIsland.transl(-a/2, a, 0))
hIslands = hIslands.add(hIsland.transl(-a/2, -a, 0))
hIslands = hIslands.add(hIsland.transl(a/2, a, 0))
hIslands = hIslands.add(hIsland.transl(a/2, -a, 0))
hIslands = hIslands.add(hIsland.transl(-a/2, 0, 0))
hIslands = hIslands.add(hIsland.transl(a/2, 0, 0))
vIslands = vIslands.add(vIsland.transl(-a, a/2, 0))
vIslands = vIslands.add(vIsland.transl(a, a/2, 0))
vIslands = vIslands.add(vIsland.transl(-a, -a/2, 0))
vIslands = vIslands.add(vIsland.transl(a, -a/2, 0))
vIslands = vIslands.add(vIsland.transl(0, a/2, 0))
vIslands = vIslands.add(vIsland.transl(0, -a/2, 0))
DefRegion(1, hIslands)
DefRegion(2, vIslands)
TableAdd(m_full.Region(1))
TableAdd(m_full.Region(2))
setgeom(hIslands.add(vIslands))
save(m)
r2o2 := sqrt(2) / 2
m = RandomMagSeed(4)
B_ext = vector(Bmax*r2o2, Bmax*r2o2, 0)
relax()
minimize()
for B := Bmax; B >= -Bmax; B -= Bstep {
	B_ext = vector(B*r2o2, B*r2o2, 0)
	minimize()
	tablesave()
}
//********************************************************************//
//Please cite the following references, relevant for your simulation. //
//See bibtex file in output folder for justification.                 //
//********************************************************************//
//   * Vansteenkiste et al., AIP Adv. 4, 107133 (2014).
//   * Exl et al., J. Appl. Phys. 115, 17D118 (2014).
