# t (s)	mx ()	my ()	mz ()	B_extx (T)	B_exty (T)	B_extz (T)	m_fullx (A/m)	m_fully (A/m)	m_fullz (A/m)	m_full.region1x (A/m)	m_full.region1y (A/m)	m_full.region1z (A/m)	m_full.region2x (A/m)	m_full.region2y (A/m)	m_full.region2z (A/m)
0	0.62363964	0.62702453	-4.058543e-10	0.07071097	0.07071097	0	69942.5	70322.125	-4.6309116e-05	666944.2	209722.44	0.00027944776	206151.34	668112.06	-0.00085752667
0	0.6235111	0.62689835	-2.7700867e-10	0.070569366	0.070569366	0	69928.08	70307.98	-2.7705368e-05	667025.1	209465.27	-0.00016320772	205890.47	668192.44	-0.0001826397
0	0.6233785	0.62676907	-2.2515277e-10	0.07042761	0.07042761	0	69913.21	70293.47	-3.2881246e-05	667107.94	209201.34	-0.0001484979	205621.98	668275.25	-0.0002619603
0	0.6232457	0.6266393	-2.5113558e-10	0.07028633	0.07028633	0	69898.32	70278.92	-3.1303967e-05	667190.8	208937.03	-0.0001713512	205353.16	668358.06	-0.00021941766
0	0.62311304	0.6265097	-2.1611977e-10	0.07014479	0.07014479	0	69883.42	70264.39	-1.5486157e-05	667273.5	208673.06	-8.657401e-05	205084.6	668440.5	-0.00010674042
0	0.62297994	0.6263799	-2.3197493e-10	0.07000352	0.07000352	0	69868.51	70249.82	-2.5061154e-05	667356.2	208408.77	-0.00010227702	204815.69	668523.06	-0.00021056258
0	0.6228465	0.62624973	-2.6924893e-11	0.06986232	0.06986232	0	69853.55	70235.21	-1.1010949e-05	667439	208143.84	-8.631509e-05	204546.2	668605.75	-5.113511e-05
0	0.6227125	0.6261188	2.8475753e-11	0.0697207	0.0697207	0	69838.516	70220.53	-2.891793e-06	667521.94	207877.83	6.304945e-05	204275.61	668688.56	-9.914783e-05
0	0.62257856	0.625988	-2.5641222e-10	0.06957944	0.06957944	0	69823.484	70205.88	-2.9411498e-05	667604.7	207612.08	-0.00018717673	204005.2	668771.2	-0.00017996841
0	0.6224441	0.6258567	-3.2638167e-10	0.0694377	0.0694377	0	69808.414	70191.14	-3.144991e-05	667687.6	207345.52	-0.0001472782	203734.11	668853.9	-0.0002453125
0	0.6223098	0.62572557	-5.047186e-10	0.069296405	0.069296405	0	69793.36	70176.44	-4.79534e-05	667770.25	207079.52	-0.00035584133	203463.47	668936.3	-0.00024276327
0	0.62217486	0.62559384	-1.4859546e-10	0.06915487	0.06915487	0	69778.22	70161.664	-1.1716962e-05	667853.1	206812.36	-0.00013171842	203191.67	669018.94	-1.45449685e-05
0	0.6220395	0.6254617	-1.378365e-10	0.0690136	0.0690136	0	69763.04	70146.836	-1.4166444e-05	667936.06	206544.48	-0.00010105507	202919.17	669101.8	-7.578532e-05
0	0.62190455	0.62532985	2.597493e-12	0.06887232	0.06887232	0	69747.9	70132.055	-5.4034836e-06	668018.56	206277.58	-3.0202475e-05	202647.67	669184.2	-3.7249465e-05
0	0.6217688	0.62519723	-2.4628669e-10	0.06873079	0.06873079	0	69732.67	70117.19	-2.6157597e-05	668101.5	206009.39	-0.0001570761	202374.89	669266.8	-0.00016945045
0	0.62163275	0.62506443	-1.3204274e-10	0.0685895	0.0685895	0	69717.42	70102.28	-1.4081588e-05	668184.3	205740.66	-7.2911906e-05	202101.5	669349.5	-0.000102869235
0	0.62149644	0.62493116	-9.966321e-11	0.068447776	0.068447776	0	69702.125	70087.34	-9.209167e-06	668267.3	205471.48	-0.00010479525	201827.67	669432.2	-1.0163226e-05
0	0.62135994	0.62479794	-2.9401417e-10	0.0683065	0.0683065	0	69686.82	70072.4	-3.1349016e-05	668350	205202.31	-0.00025336567	201553.9	669514.8	-0.00013796562
0	0.62122226	0.62466323	-4.03865e-10	0.06816496	0.06816496	0	69671.375	70057.3	-3.7856356e-05	668433.44	204930.58	-0.00013779243	201277.69	669598	-0.00033477027
0	0.621086	0.62453026	-9.0088e-11	0.068023674	0.068023674	0	69656.09	70042.38	-1.3951171e-05	668515.75	204662.3	-0.00010582806	201004.67	669680.06	-6.832508e-05
0	0.620949	0.6243965	-1.5913226e-10	0.067882404	0.067882404	0	69640.734	70027.375	-2.6130856e-05	668598.25	204392.55	-4.7104262e-05	200730.22	669762.5	-0.00027908848
0	0.6208112	0.62426186	-2.2069725e-10	0.067740865	0.067740865	0	69625.28	70012.28	-2.4128374e-05	668681.2	204121.42	-0.0001579435	200454.42	669845.2	-0.00014325212
0	0.620673	0.6241269	-1.2913408e-11	0.06759956	0.06759956	0	69609.78	69997.14	-7.215457e-06	668764.1	203849.73	-5.5487795e-05	200178.1	669927.9	-3.45831e-05
0	0.620535	0.6239921	-2.900921e-10	0.06745787	0.06745787	0	69594.3	69982.016	-3.0607185e-05	668846.94	203578.45	-0.00022861201	199902.12	670010.3	-0.00015345895
0	0.62039655	0.6238568	-2.5257055e-10	0.067316584	0.067316584	0	69578.77	69966.836	-2.6916456e-05	668929.7	203306.5	-0.0001467724	199625.5	670092.9	-0.00018922701
0	0.62025815	0.6237215	-1.9528565e-10	0.067174956	0.067174956	0	69563.25	69951.67	-2.049036e-05	669012.25	203034.78	-7.798732e-05	199349.12	670175.25	-0.00017779483
0	0.6201187	0.62358516	-1.6424576e-10	0.06703376	0.06703376	0	69547.61	69936.39	-1.7230615e-05	669095.3	202761.11	-9.661874e-05	199070.83	670258.1	-0.00011847186
0	0.61997944	0.6234491	-3.7576237e-10	0.06689248	0.06689248	0	69532	69921.12	-4.1650106e-05	669178.06	202488.12	-0.00026959603	198793.12	670340.56	-0.0002503242
0	0.6198398	0.6233127	-2.6721e-10	0.06675091	0.06675091	0	69516.336	69905.83	-3.0849704e-05	669260.8	202214.58	-0.00012984856	198514.89	670423.1	-0.00025524976
0	0.61969995	0.6231759	-1.7472952e-10	0.06660963	0.06660963	0	69500.64	69890.484	-1.6622796e-05	669343.7	201940.55	-0.00012939305	198236.16	670505.7	-7.8110104e-05
0	0.61955965	0.6230389	-3.4081643e-10	0.066467956	0.066467956	0	69484.92	69875.125	-3.4264336e-05	669426.44	201666.27	-0.00026901954	197957.19	670588.25	-0.00015870376
0	0.6194196	0.6229018	-3.0746275e-10	0.06632633	0.06632633	0	69469.2	69859.75	-3.4136792e-05	669509	201392.03	-0.0001894228	197678.28	670670.56	-0.0002367084
0	0.6192787	0.6227642	-1.8607771e-10	0.06618504	0.06618504	0	69453.414	69844.31	-2.5485837e-05	669591.75	201116.86	-0.00010033422	197398.39	670753.2	-0.0002178067
0	0.6191375	0.62262625	-2.340924e-10	0.06604385	0.06604385	0	69437.57	69828.836	-2.2462213e-05	669674.7	200841	-8.594149e-05	197117.81	670835.7	-0.0001944554
0	0.6189964	0.62248826	-2.1593904e-11	0.06590254	0.06590254	0	69421.74	69813.36	-3.1573193e-06	669757.4	200565.44	1.3129148e-05	196837.58	670918	-5.2542113e-05
0	0.6188548	0.6223498	-9.008739e-11	0.065760985	0.065760985	0	69405.86	69797.83	-7.024035e-06	669840	200289.17	-2.5322905e-05	196556.62	671000.56	-6.235846e-05
0	0.6187126	0.6222108	-1.7060155e-10	0.0656197	0.0656197	0	69389.914	69782.234	-1.44676505e-05	669923.06	200011.89	-0.00015895978	196274.58	671083.2	-2.1640595e-05
0	0.61857057	0.6220719	-4.2755158e-10	0.06547804	0.06547804	0	69373.984	69766.67	-4.7005953e-05	670005.7	199735.17	-0.00032907265	195993.12	671165.44	-0.00025770496
0	0.618428	0.62193257	-6.821323e-11	0.06533641	0.06533641	0	69358	69751.04	-3.6764682e-06	670088.44	199457.55	-7.818142e-05	195710.81	671247.94	3.2287888e-05
0	0.6182853	0.6217929	-1.9933888e-10	0.06519513	0.06519513	0	69341.984	69735.39	-1.7598333e-05	670171.1	199179.72	-0.0001447067	195428.23	671330.3	-7.497413e-05
0	0.61814237	0.62165314	-2.6170694e-11	0.06505393	0.06505393	0	69325.96	69719.71	-2.3889443e-06	670253.7	198901.72	-3.599603e-05	195145.52	671412.75	6.1747232e-06
0	0.6179989	0.62151283	-2.422805e-10	0.06491261	0.06491261	0	69309.875	69703.98	-2.4832e-05	670336.6	198622.8	-0.00018090014	194861.88	671495.1	-0.0001290789
0	0.61785537	0.62137246	-3.4214193e-10	0.064771056	0.064771056	0	69293.77	69688.234	-3.198e-05	670419.2	198344.02	-0.00029914273	194578.33	671577.44	-0.0001000651
0	0.61771125	0.62123156	7.08275e-11	0.06462978	0.06462978	0	69277.61	69672.42	5.6112926e-06	670501.94	198064.14	-3.376343e-05	194293.77	671660	0.00010380946
0	0.61756676	0.6210903	-2.663247e-10	0.06448806	0.06448806	0	69261.42	69656.58	-3.0933566e-05	670584.7	197783.92	-0.00019634908	194008.75	671742.4	-0.00018979609
0	0.61742216	0.62094873	-3.1483213e-10	0.0643465	0.0643465	0	69245.195	69640.7	-3.74157e-05	670667.5	197503.47	-0.00022498606	193723.56	671824.8	-0.0002420759
0	0.61727744	0.62080723	-2.3358251e-10	0.064205214	0.064205214	0	69228.95	69624.83	-3.0722105e-05	670750.1	197223.03	-0.00022359051	193438.34	671907.06	-0.00015991501
0	0.6171321	0.62066495	-1.4903606e-10	0.06406398	0.06406398	0	69212.664	69608.89	-1.4562592e-05	670832.8	196941.47	-0.00021026802	193152.11	671989.5	2.8482491e-05
0	0.6169868	0.62052286	-1.2303311e-10	0.063922696	0.063922696	0	69196.36	69592.945	-1.5915182e-05	670915.44	196660.3	-0.00012871847	192866.06	672071.75	-6.995152e-05
0	0.61684144	0.62038064	2.7889151e-11	0.06378113	0.06378113	0	69180.055	69576.984	5.682242e-06	670997.8	196379.05	1.2569586e-05	192580.08	672153.8	5.8362108e-05
0	0.61669517	0.6202375	-1.070891e-10	0.06363943	0.06363943	0	69163.66	69560.94	-1.6521595e-05	671080.6	196096.3	-8.104484e-05	192292.58	672236.1	-0.00012519502
0	0.6165489	0.6200945	-1.00652375e-10	0.06349815	0.06349815	0	69147.25	69544.9	-1.5434223e-05	671163.1	195813.83	-7.530701e-05	192005.31	672318.4	-0.00011735912
0	0.61640215	0.6199508	-2.4685842e-10	0.063356586	0.063356586	0	69130.78	69528.78	-2.547066e-05	671246	195530.28	-0.00010962174	191716.95	672400.75	-0.0002083297
0	0.61625534	0.61980724	-9.1306636e-11	0.06321526	0.06321526	0	69114.336	69512.69	-1.529946e-05	671328.3	195247.3	-4.7512192e-05	191429.19	672482.8	-0.00014347171
0	0.6161078	0.6196628	-3.9027134e-10	0.06307407	0.06307407	0	69097.79	69496.48	-4.1413237e-05	671411.2	194962.62	-0.0003186833	191139.78	672565.25	-0.00019828012
0	0.6159605	0.61951864	-1.3059558e-10	0.062932774	0.062932774	0	69081.26	69480.31	-1.4255531e-05	671493.6	194678.67	-6.733343e-05	190850.95	672647.4	-0.000110619025
0	0.61581266	0.619374	4.3258643e-12	0.06279112	0.06279112	0	69064.69	69464.09	3.205784e-06	671576.1	194394.12	3.6220642e-06	190561.64	672729.44	3.6395893e-05
0	0.6156641	0.61922854	-2.8605443e-10	0.06264953	0.06264953	0	69048.02	69447.79	-2.6836307e-05	671658.9	194108.1	-0.00021738194	190270.83	672811.9	-0.00011761696
0	0.6155156	0.61908317	-1.9605334e-10	0.06250824	0.06250824	0	69031.37	69431.484	-2.2224955e-05	671741.5	193822.47	-4.200353e-05	189980.4	672894	-0.00023543164
0	0.61536694	0.6189377	-1.526412e-10	0.062366635	0.062366635	0	69014.7	69415.164	-2.5797712e-05	671823.9	193536.64	-0.00014529077	189689.77	672976.06	-0.00017674328
0	0.6152179	0.6187919	-1.7738944e-10	0.06222535	0.06222535	0	68997.984	69398.805	-1.3282492e-05	671906.44	193250.4	-8.434846e-05	189398.7	673058.1	-8.145752e-05
0	0.61506844	0.61864537	-2.5342298e-10	0.06208415	0.06208415	0	68981.21	69382.38	-2.5257923e-05	671989	192963.27	-0.00023468674	189106.78	673140.3	-8.0609134e-05
0	0.61491907	0.6184993	-2.0818179e-10	0.061942477	0.061942477	0	68964.46	69365.984	-3.0745057e-05	672071.3	192676.75	-0.00021518239	188815.44	673222.25	-0.00016860962
0	0.61476874	0.618352	-1.4629285e-10	0.061801177	0.061801177	0	68947.6	69349.484	-1.3250383e-05	672154	192388.39	-5.5320408e-05	188522.25	673304.44	-0.00011008475
0	0.6146185	0.6182049	-1.1217061e-10	0.061659623	0.061659623	0	68930.75	69332.98	-1.3881521e-05	672236.44	192100.33	-6.463589e-05	188229.42	673386.44	-0.00010864781
0	0.6144682	0.61805785	-3.3573277e-10	0.06151831	0.06151831	0	68913.9	69316.484	-4.262154e-05	672318.6	191812.73	-0.00030927165	187936.94	673468.25	-0.00022277512
0	0.61431706	0.6179097	-1.2760368e-10	0.06137672	0.06137672	0	68896.945	69299.875	-1.45292015e-05	672401.1	191523.3	-5.679294e-06	187642.67	673550.4	-0.0001756894
0	0.61416614	0.6177621	-9.337088e-11	0.061235435	0.061235435	0	68880.02	69283.31	-1.1730686e-05	672483.3	191234.72	-0.00010734025	187349.27	673632.1	-3.909447e-05
0	0.6140141	0.6176131	-2.3116863e-10	0.061094135	0.061094135	0	68862.96	69266.6	-2.4315174e-05	672566	190943.88	-0.00011743914	187053.55	673714.44	-0.00018608835
0	0.61386216	0.6174643	-1.2828953e-10	0.06095255	0.06095255	0	68845.92	69249.92	-1.268571e-05	672648.5	190653.7	-1.5657593e-05	186758.53	673796.3	-0.00014269874
0	0.6137102	0.61731553	7.096341e-12	0.06081125	0.06081125	0	68828.89	69233.234	-1.3652e-06	672730.7	190363.67	1.7871998e-05	186463.62	673878.1	-3.4913854e-05
0	0.6135576	0.61716604	-1.3357969e-10	0.06066969	0.06066969	0	68811.766	69216.46	-1.890292e-05	672813.1	190072.42	-0.00012238571	186167.55	673960.06	-0.000113580325
0	0.6134048	0.6170164	-3.2039853e-12	0.060528405	0.060528405	0	68794.64	69199.67	-2.6450775e-06	672895.4	189781.06	-4.3251028e-05	185871.33	674041.9	1.0232398e-05
0	0.6132517	0.6168664	-4.5986087e-10	0.060386807	0.060386807	0	68777.48	69182.87	-4.789082e-05	672977.6	189489.34	-0.0003345767	185574.78	674123.7	-0.00026324665
0	0.61309826	0.616716	-1.9250528e-10	0.060245506	0.060245506	0	68760.25	69166	-1.788747e-05	673060	189196.98	-0.00018397682	185277.6	674205.5	-3.9313327e-05
0	0.6129445	0.61656547	-5.286367e-10	0.06010422	0.06010422	0	68743.016	69149.11	-5.474901e-05	673142.3	188904.36	-0.0004100184	184980.06	674287.25	-0.00027341614
0	0.61279017	0.61641425	-3.470314e-11	0.05996261	0.05996261	0	68725.7	69132.16	-2.9553657e-06	673224.6	188610.8	1.1148146e-05	184681.6	674369.2	-4.8040118e-05
0	0.6126359	0.6162631	-3.3824551e-10	0.059821296	0.059821296	0	68708.41	69115.2	-4.130431e-05	673306.75	188317.6	-0.00027305103	184383.47	674450.8	-0.00024255266
0	0.6124811	0.6161114	-3.1375988e-10	0.059679788	0.059679788	0	68691.04	69098.19	-3.5537894e-05	673389.06	188023.4	-0.00017496843	184084.48	674532.56	-0.00026865283
0	0.6123259	0.61595935	-4.8657467e-10	0.05953849	0.05953849	0	68673.64	69081.14	-5.2002422e-05	673471.25	187728.84	-0.00029476988	183785	674614.3	-0.00035437883
0	0.6121707	0.61580735	-2.0793303e-10	0.059396796	0.059396796	0	68656.234	69064.086	-2.6638396e-05	673553.3	187434.44	-0.00013282213	183485.69	674695.9	-0.00019970624
0	0.6120151	0.6156548	-2.7826239e-10	0.059255593	0.059255593	0	68638.77	69046.984	-2.8313963e-05	673635.5	187139.22	-0.00016150936	183185.61	674777.56	-0.00019193522
0	0.611859	0.61550176	-1.0268244e-10	0.05911429	0.05911429	0	68621.27	69029.83	-1.3780751e-05	673717.75	186843.4	-0.00011034336	182884.92	674859.1	-6.168242e-05
0	0.61170244	0.61534834	-2.2137624e-10	0.058972668	0.058972668	0	68603.71	69012.61	-2.0802883e-05	673799.94	186546.86	-0.00018791943	182583.44	674940.75	-7.176398e-05
0	0.611546	0.6151951	-2.7609473e-10	0.058831364	0.058831364	0	68586.164	68995.42	-2.625032e-05	673881.9	186250.88	-6.7001674e-05	182282.52	675022.2	-0.0002606823
0	0.6113886	0.61504084	-3.964186e-10	0.05868988	0.05868988	0	68568.516	68978.12	-4.269463e-05	673964.1	185953.22	-0.0002451746	181979.97	675103.94	-0.00028778455
0	0.6112311	0.6148864	4.5435232e-11	0.05854817	0.05854817	0	68550.85	68960.8	3.3609297e-06	674046.3	185655.45	2.0236592e-05	181677.31	675185.56	2.1718053e-05
0	0.6110737	0.6147322	-1.980343e-10	0.05840688	0.05840688	0	68533.2	68943.5	-2.2194086e-05	674128.2	185358.12	-0.00018224654	181375.02	675266.9	-9.480329e-05
0	0.6109157	0.6145772	-1.4892405e-10	0.05826568	0.05826568	0	68515.48	68926.125	-1.8261413e-05	674210.2	185059.7	-0.0001684712	181071.72	675348.3	-5.9486898e-05
0	0.61075723	0.61442196	-2.2396027e-10	0.058124352	0.058124352	0	68497.7	68908.71	-2.3968598e-05	674292.25	184760.9	-0.00012435751	180767.97	675429.9	-0.00017484363
0	0.6105986	0.6142663	-5.7840052e-11	0.057982735	0.057982735	0	68479.914	68891.25	-5.7950683e-06	674374.25	184461.56	-7.608302e-05	180463.8	675511.3	3.7429083e-06
0	0.6104402	0.61411107	-2.3606067e-10	0.05784144	0.05784144	0	68462.15	68873.85	-2.6804186e-05	674455.9	184163.27	-0.00019079476	180160.5	675592.3	-0.00014380319
0	0.61028033	0.61395425	-2.8511574e-10	0.057699878	0.057699878	0	68444.22	68856.26	-3.069256e-05	674538.2	183861.98	-0.00019067687	179854.33	675673.9	-0.00019245983
0	0.6101211	0.6137982	-1.5887824e-10	0.057558257	0.057558257	0	68426.36	68838.76	-1.542678e-05	674619.8	183562.47	-9.739877e-05	179549.81	675754.94	-9.5174444e-05
0	0.6099608	0.613641	-2.2246406e-10	0.057416957	0.057416957	0	68408.38	68821.13	-2.6023645e-05	674701.7	183260.95	-0.00015977593	179243.38	675836.44	-0.00016507844
0	0.60980093	0.61348414	-3.5637654e-10	0.05727573	0.05727573	0	68390.45	68803.54	-3.3183325e-05	674783.4	182960.42	-0.00031497446	178937.89	675917.4	-9.925457e-05
0	0.60963976	0.61332613	3.258554e-11	0.05713443	0.05713443	0	68372.375	68785.82	2.395461e-06	674865.4	182657.62	-2.5599302e-05	178630.19	675998.94	5.5501958e-05
0	0.609479	0.6131684	-8.239656e-11	0.05699281	0.05699281	0	68354.34	68768.13	-1.1358922e-05	674947.1	182355.88	-7.809973e-05	178323.38	676080	-6.3694235e-05
0	0.60931766	0.6130103	-3.853844e-10	0.056851286	0.056851286	0	68336.25	68750.39	-4.774951e-05	675028.94	182053.28	-0.00029234742	178015.89	676161.1	-0.00030371195
0	0.609156	0.61285174	-1.293235e-10	0.056709964	0.056709964	0	68318.125	68732.61	-1.7276976e-05	675110.7	181750.12	-0.00012701307	177707.77	676242.25	-8.8656256e-05
0	0.6089939	0.6126927	-1.6757888e-10	0.056568343	0.056568343	0	68299.95	68714.78	-9.247282e-06	675192.4	181446.52	-8.781345e-05	177399.2	676323.3	-2.7620807e-05
0	0.60883063	0.6125324	6.390398e-10	0.05642702	0.05642702	0	68281.63	68696.8	6.767712e-05	675274.6	181140.48	0.00029333142	177088.3	676404.9	0.00055148534
0	0.608669	0.61237395	-2.0286971e-10	0.05628581	0.05628581	0	68263.5	68679.02	-2.4888552e-05	675355.7	180838.1	-0.00011573286	176780.86	676485.4	-0.0001949521
0	0.60850567	0.6122137	-2.467187e-10	0.056144506	0.056144506	0	68245.19	68661.05	-3.129131e-05	675437.5	180532.69	-0.00014567828	176470.42	676566.5	-0.00024493263
0	0.6083425	0.61205363	-8.7986084e-11	0.056002766	0.056002766	0	68226.89	68643.1	-7.204576e-06	675518.94	180227.8	-0.00013754133	176160.61	676647.3	4.760626e-05
0	0.6081789	0.61189306	-3.265604e-10	0.055861373	0.055861373	0	68208.54	68625.1	-3.8235845e-05	675600.5	179922.14	-0.00027418128	175849.98	676728.25	-0.0002031186
0	0.6080148	0.6117321	-2.8564442e-10	0.05572006	0.05572006	0	68190.14	68607.05	-3.019619e-05	675682	179615.88	-0.00010409446	175538.7	676809.06	-0.00027284605
0	0.6078504	0.6115708	-2.1546735e-10	0.05557843	0.05557843	0	68171.69	68588.945	-2.4902762e-05	675763.56	179309.12	-0.00012368351	175226.95	676890	-0.00018717884
0	0.60768557	0.61140907	-3.6364547e-10	0.055437095	0.055437095	0	68153.21	68570.81	-3.8443137e-05	675845	179001.88	-0.00025740504	174914.72	676970.75	-0.00022248244
0	0.60752034	0.6112469	2.3409039e-11	0.055295892	0.055295892	0	68134.69	68552.62	-1.9348613e-06	675926.6	178694	-0.000116165495	174601.89	677051.6	9.201253e-05
0	0.60735506	0.6110847	-2.1441944e-11	0.055154584	0.055154584	0	68116.14	68534.43	-6.278776e-06	676007.9	178386.31	-2.056779e-05	174289.17	677132.25	-5.7810466e-05
0	0.6071891	0.61092186	-7.488972e-11	0.05501284	0.05501284	0	68097.54	68516.17	-8.824247e-06	676089.4	178077.6	-6.721992e-05	173975.44	677213	-4.293358e-05
0	0.6070231	0.6107589	-3.2233177e-10	0.054871462	0.054871462	0	68078.92	68497.89	-3.7846065e-05	676170.6	177768.92	-0.00030805028	173661.77	677293.6	-0.00016438395
0	0.6068567	0.6105955	-2.1588459e-10	0.05473016	0.05473016	0	68060.25	68479.58	-2.0530992e-05	676251.94	177459.53	-0.00017210617	173347.44	677374.25	-8.418318e-05
0	0.6066895	0.6104314	-2.7109856e-10	0.054588504	0.054588504	0	68041.5	68461.16	-2.9645827e-05	676333.5	177148.92	-0.00013991976	173031.86	677455	-0.0002301505
0	0.6065224	0.61026716	2.0884794e-10	0.05444718	0.05444718	0	68022.766	68442.75	2.444298e-05	676414.7	176838.64	0.00033771727	172716.72	677535.44	-3.2594373e-05
0	0.6063547	0.6101026	-2.1959923e-11	0.054305978	0.054305978	0	68003.95	68424.28	-4.833888e-06	676496	176527.58	-0.0005190832	172400.58	677616	0.00045874153
0	0.60618734	0.60993856	1.7996242e-11	0.054164223	0.054164223	0	67985.18	68405.88	1.4976656e-06	676576.8	176217.64	4.556645e-05	172085.42	677696.25	-2.6871017e-05
0	0.6060193	0.6097736	-1.2813377e-10	0.0540229	0.0540229	0	67966.336	68387.38	-1.3285724e-05	676657.9	175906.39	-0.00014558954	171769.16	677776.5	-2.025677e-05
0	0.6058509	0.6096081	-5.341519e-12	0.053881556	0.053881556	0	67947.45	68368.836	-4.711774e-06	676738.94	175594.56	7.965115e-06	171452.3	677856.9	-6.678241e-05
0	0.6056817	0.6094419	-6.803153e-11	0.053740222	0.053740222	0	67928.47	68350.19	-9.324345e-06	676820.1	175281.38	6.8310495e-05	171134.14	677937.3	-0.00018470673
0	0.60551226	0.6092756	-2.4727698e-10	0.053598575	0.053598575	0	67909.47	68331.53	-3.1577983e-05	676901.3	174968.19	-0.00014410698	170815.89	678017.7	-0.00025008246
0	0.6053427	0.6091091	-2.5202238e-10	0.053457268	0.053457268	0	67890.45	68312.86	-3.062922e-05	676982.2	174654.89	-0.00020978804	170497.52	678097.9	-0.00017255794
0	0.60517263	0.6089421	-4.010682e-11	0.053315945	0.053315945	0	67871.38	68294.14	-8.881866e-06	677063.25	174340.81	-5.25993e-05	170178.42	678178.06	-5.827346e-05
0	0.6050022	0.60877484	3.4447414e-11	0.0531743	0.0531743	0	67852.28	68275.37	8.676778e-06	677144.2	174026.5	-5.510028e-05	169859.03	678258.2	0.00016341291
0	0.6048316	0.6086071	-4.0356404e-10	0.053032976	0.053032976	0	67833.125	68256.56	-3.6147285e-05	677225	173711.64	-0.00022898069	169539.14	678338.3	-0.0002222476
0	0.6046603	0.6084389	-1.3443524e-10	0.052891634	0.052891634	0	67813.92	68237.7	-1.3072272e-05	677306	173395.95	-7.36813e-05	169218.4	678418.5	-8.95005e-05
0	0.604489	0.6082707	-7.572961e-11	0.05275032	0.05275032	0	67794.71	68218.836	-1.06658335e-05	677386.75	173080.53	-5.417744e-05	168897.94	678498.3	-7.896467e-05
0	0.60431725	0.60810196	-1.8907567e-10	0.05260866	0.05260866	0	67775.445	68199.914	-1.8297134e-05	677467.5	172764.33	-0.000114385686	168576.66	678578.4	-0.00011401832
0	0.6041449	0.6079326	-2.095225e-10	0.05246734	0.05246734	0	67756.12	68180.92	-2.2728953e-05	677548.3	172447.28	-0.0001824286	168254.55	678658.4	-0.000101298014
0	0.60397285	0.6077636	-4.747102e-11	0.052326016	0.052326016	0	67736.83	68161.96	-3.4241507e-06	677628.8	172131.05	-6.426687e-05	167933.31	678738	2.152303e-05
0	0.6037996	0.60759336	-1.1073921e-10	0.052184362	0.052184362	0	67717.39	68142.875	-1.39422455e-05	677709.6	171812.58	-7.915761e-05	167609.75	678818.06	-9.488409e-05
0	0.6036263	0.6074231	-1.5463336e-10	0.052043013	0.052043013	0	67697.95	68123.78	-1.6557673e-05	677790.2	171494.61	-0.00010105172	167286.69	678897.9	-0.000105638486
0	0.6034529	0.6072528	-2.7960753e-10	0.051901728	0.051901728	0	67678.516	68104.67	-2.9991144e-05	677870.7	171176.4	-0.00022185402	166963.42	678977.44	-0.00015252686
0	0.60327846	0.6070814	6.158588e-11	0.051760413	0.051760413	0	67658.95	68085.45	6.7114415e-06	677951.4	170856.53	-2.6784197e-05	166638.47	679057.44	0.000110563444
0	0.60310435	0.6069103	-2.1631946e-10	0.05161863	0.05161863	0	67639.42	68066.266	-2.1081149e-05	678031.8	170537.45	-8.537175e-05	166314.28	679136.94	-0.00017778524
0	0.60292965	0.6067386	-5.051493e-10	0.051477425	0.051477425	0	67619.83	68047.01	-5.249856e-05	678112.25	170217.53	-0.00041771843	165989.31	679216.5	-0.00023762352
0	0.6027546	0.6065665	-1.3250344e-10	0.0513361	0.0513361	0	67600.195	68027.7	-1.630983e-05	678192.7	169897.05	-0.00015080009	165663.77	679296.06	-5.2796284e-05
0	0.6025797	0.6063946	-2.4730164e-11	0.0511944	0.0511944	0	67580.58	68008.42	-6.7615088e-06	678272.7	169577.12	-2.3337401e-05	165338.77	679375.25	-6.1066836e-05
0	0.602403	0.60622096	-3.0683092e-10	0.051053077	0.051053077	0	67560.766	67988.95	-3.3000215e-05	678353.44	169254.27	-0.00024140289	165010.75	679455.06	-0.00017054037
0	0.60222685	0.60604787	-6.8393305e-11	0.050911825	0.050911825	0	67541.016	67969.54	-5.5385594e-06	678433.7	168932.56	-4.8593884e-05	164683.98	679534.44	-2.0544216e-05
0	0.6020504	0.6058744	-1.7536733e-10	0.050770037	0.050770037	0	67521.21	67950.086	-2.129273e-05	678513.9	168610.39	-0.0001486736	164356.72	679613.8	-0.000117124575
0	0.6018734	0.60570043	-3.5669762e-10	0.050628714	0.050628714	0	67501.37	67930.58	-4.2534237e-05	678594.06	168287.53	-0.00034933686	164028.73	679693.06	-0.00018162002
0	0.60169625	0.60552627	-3.0468236e-10	0.0504875	0.0504875	0	67481.5	67911.05	-3.386253e-05	678674.1	167964.53	-0.00021582532	163700.64	679772.25	-0.00020688227
0	0.6015182	0.6053511	-2.2476299e-10	0.050346155	0.050346155	0	67461.53	67891.4	-2.5138152e-05	678754.4	167639.97	-0.00015629407	163371.08	679851.56	-0.00015750667
0	0.60134035	0.6051763	-1.6883783e-10	0.050204474	0.050204474	0	67441.586	67871.805	-1.3654853e-05	678834.3	167316.31	-0.00013702086	163042.19	679930.7	-3.3433316e-05
0	0.6011617	0.60500073	-3.174326e-10	0.05006314	0.05006314	0	67421.55	67852.09	-3.0420139e-05	678914.44	166991.23	-0.0001809813	162711.98	680009.75	-0.00019875474
0	0.60098296	0.604825	-2.954472e-12	0.049921803	0.049921803	0	67401.516	67832.39	-4.7055075e-08	678994.25	166666.3	-3.0770294e-05	162381.95	680088.7	3.0182902e-05
0	0.60080403	0.604649	-1.8092923e-10	0.049780127	0.049780127	0	67381.43	67812.664	-2.1412623e-05	679074.06	166341.08	-8.3345e-05	162051.61	680167.56	-0.00018394979
0	0.600624	0.6044719	-1.5456943e-10	0.049638797	0.049638797	0	67361.25	67792.805	-1.285521e-05	679154.2	166014.1	-7.322157e-05	161719.53	680246.7	-8.725063e-05
0	0.60044396	0.6042949	-1.13474535e-10	0.04949756	0.04949756	0	67341.05	67772.95	-1.5846708e-05	679233.94	165687.33	-0.0001037115	161387.62	680325.6	-9.4103714e-05
0	0.6002636	0.6041175	-1.4726893e-10	0.04935623	0.04935623	0	67320.82	67753.05	-1.6780923e-05	679313.75	165360.14	-9.3029834e-05	161055.3	680404.5	-0.000116447234
0	0.60008276	0.6039396	-1.0814835e-10	0.04921455	0.04921455	0	67300.54	67733.09	-1.1444942e-05	679393.44	165032.25	-3.2206308e-06	160722.38	680483.1	-0.00013964713
0	0.5999019	0.6037618	-1.2532408e-10	0.049073216	0.049073216	0	67280.26	67713.15	-9.96443e-06	679472.94	164704.72	-8.278592e-05	160389.64	680561.7	-4.1600546e-05
0	0.59972036	0.60358316	-2.3960534e-10	0.04893189	0.04893189	0	67259.9	67693.125	-2.7784656e-05	679552.6	164376.14	-0.00020307468	160055.9	680640.4	-0.0001437625
0	0.5995383	0.6034042	-2.4116249e-11	0.048790213	0.048790213	0	67239.484	67673.05	2.00254e-07	679632.2	164046.9	3.404481e-06	159721.52	680719	-9.0470087e-07
0	0.59935665	0.60322535	-1.408792e-10	0.048648853	0.048648853	0	67219.1	67652.99	-1.5026771e-05	679711.44	163718.33	-3.413356e-05	159387.83	680797.3	-0.00015344632
0	0.5991724	0.603044	-4.3156165e-10	0.04850764	0.04850764	0	67198.445	67632.65	-4.315495e-05	679791.7	163385.12	-0.000725119	159049.67	680876.5	0.00018641376
0	0.5989904	0.60286504	-4.8920745e-10	0.048366304	0.048366304	0	67178.03	67612.58	-5.5426684e-05	679870.56	163056.75	-0.00046359276	158716.05	680954.4	-0.00022830113
0	0.5988068	0.60268444	-9.875199e-11	0.048224516	0.048224516	0	67157.44	67592.33	-1.21000085e-05	679949.9	162725.48	-3.9634022e-05	158379.5	681032.7	-0.00011141096
0	0.598623	0.60250366	-1.7333143e-10	0.0480833	0.0480833	0	67136.83	67572.055	-2.0050824e-05	680029.1	162394.14	-0.00020820668	158043	681111.06	-4.2088683e-05
0	0.598439	0.6023225	-3.26931e-10	0.047941964	0.047941964	0	67116.19	67551.74	-3.6398567e-05	680108.44	162062.45	-0.0001767036	157706.22	681189.06	-0.00027766143
0	0.598254	0.6021405	-2.632557e-10	0.04780026	0.04780026	0	67095.445	67531.33	-3.124975e-05	680187.7	161729.36	-0.00021771765	157367.98	681267.4	-0.00017237446
0	0.5980692	0.6019587	-1.4954972e-10	0.04765894	0.04765894	0	67074.72	67510.93	-1.9852636e-05	680266.6	161396.75	-4.4292123e-05	157030.14	681345.44	-0.00020352929
0	0.5978835	0.60177606	-2.1302139e-10	0.047517724	0.047517724	0	67053.89	67490.445	-2.6565627e-05	680345.8	161062.89	-0.00011386791	156691.14	681423.5	-0.00021775208
0	0.5976981	0.60159343	-3.3598835e-10	0.047376387	0.047376387	0	67033.086	67469.97	-3.7133665e-05	680424.7	160729.48	-0.0002198623	156352.58	681501.4	-0.00024367901
0	0.5975117	0.60141003	-3.20971e-10	0.047234587	0.047234587	0	67012.195	67449.4	-3.4672354e-05	680503.75	160394.7	-0.00031211475	156012.62	681579.25	-0.00012070191
0	0.597325	0.6012262	-1.6833226e-10	0.047093373	0.047093373	0	66991.25	67428.78	-2.2131228e-05	680582.7	160059.53	-0.00020169075	155672.27	681657.25	-7.457439e-05
0	0.5971381	0.60104233	-8.6662665e-12	0.04695201	0.04695201	0	66970.3	67408.16	-5.7892735e-06	680661.5	159724.38	-1.7275106e-05	155331.94	681734.94	-5.4992677e-05
0	0.5969505	0.6008576	-2.0838685e-10	0.046810348	0.046810348	0	66949.25	67387.445	-3.264026e-05	680740.3	159387.95	-0.00020805295	154990.34	681812.7	-0.00019939692
0	0.5967629	0.600673	-2.1089544e-10	0.04666901	0.04666901	0	66928.22	67366.74	-1.916948e-05	680818.94	159051.98	-0.00023694556	154649.19	681890.25	-2.3479643e-06
0	0.5965747	0.60048765	-4.7174037e-10	0.046527795	0.046527795	0	66907.11	67345.95	-5.4363547e-05	680897.7	158714.84	-0.00029387747	154306.9	681967.9	-0.00038474528
0	0.5963861	0.6003019	-1.5539785e-10	0.046386022	0.046386022	0	66885.95	67325.125	-1.5850634e-05	680976.3	158377.4	-0.0002086407	153964.28	682045.3	1.0776484e-05
0	0.5961967	0.60011554	-1.3915086e-10	0.046244673	0.046244673	0	66864.71	67304.21	-2.525152e-05	681054.94	158038.81	-0.00017257006	153620.53	682122.9	-0.00014264585
0	0.59600776	0.59992945	1.9361272e-10	0.046103455	0.046103455	0	66843.516	67283.34	2.086735e-05	681133.2	157701.1	0.00013908847	153277.58	682200.1	0.00012139965
0	0.5958177	0.59974235	-1.241973e-10	0.045962088	0.045962088	0	66822.2	67262.36	-7.182265e-06	681211.7	157361.81	-0.00019310955	152933.08	682277.4	0.00010345299
0	0.5956274	0.59955496	-3.039815e-10	0.045820434	0.045820434	0	66800.86	67241.35	-3.8198763e-05	681290.1	157022.23	-0.00028982802	152588.28	682354.75	-0.00018700896
0	0.595437	0.59936744	-2.8454342e-10	0.045679096	0.045679096	0	66779.516	67220.32	-3.764768e-05	681368.25	156682.66	-0.00016801002	152243.55	682431.75	-0.00030194776
0	0.5952457	0.59917915	-7.035363e-11	0.04553775	0.04553775	0	66758.06	67199.195	-8.178239e-06	681446.6	156341.77	4.0331583e-05	151897.45	682509	-0.00014242092
0	0.59505457	0.5989907	-4.327082e-11	0.045396097	0.045396097	0	66736.61	67178.055	-7.474982e-06	681524.7	156001.06	-3.9581926e-05	151551.6	682585.8	-5.372863e-05
0	0.5948627	0.5988018	-2.0750934e-12	0.04525476	0.04525476	0	66715.1	67156.88	8.266485e-07	681602.8	155659.72	-0.000109919376	151205.03	682662.75	0.00012023846
0	0.5946702	0.5986122	-3.7915496e-10	0.04511351	0.04511351	0	66693.516	67135.61	-4.8316426e-05	681680.9	155317.28	-0.00043441265	150857.36	682739.9	-0.00016872355
0	0.59447753	0.5984225	-1.8294442e-10	0.04497216	0.04497216	0	66671.914	67114.336	-2.2769174e-05	681758.8	154974.95	-0.00021047294	150509.8	682816.56	-7.375576e-05