# t (s)	mx ()	my ()	mz ()	B_extx (T)	B_exty (T)	B_extz (T)	m_fullx (A/m)	m_fully (A/m)	m_fullz (A/m)	m_full.region1x (A/m)	m_full.region1y (A/m)	m_full.region1z (A/m)	m_full.region2x (A/m)	m_full.region2y (A/m)	m_full.region2z (A/m)
0	0.64860946	0.6486107	-1.9482621e-10	0.07071087	0.07071087	0	88898.414	88898.58	-2.75e-05	624965.06	283089.34	-0.00019790603	283088.16	624965.7	-0.00012448928
0	0.6483762	0.64837545	-1.7047294e-10	0.070357256	0.070357256	0	88866.46	88866.34	-2.5e-05	625153.06	282573.06	-0.00011491318	282573.75	625152.56	-0.0001356614
0	0.64813334	0.6481324	3.6529915e-11	0.07000352	0.07000352	0	88833.16	88833.02	5.9375e-06	625347.6	282038.22	-9.576098e-05	282039.03	625346.94	0.00015321757
0	0.647895	0.6478941	-1.2481054e-10	0.06964992	0.06964992	0	88800.484	88800.35	-2.1875e-05	625540.06	281512.25	-5.1072522e-05	281512.97	625539.44	-0.00012768131
0	0.64765227	0.64765126	-2.952835e-10	0.069296576	0.069296576	0	88767.22	88767.086	-3.4375e-05	625734.3	280978.03	-0.00015002553	280978.84	625733.7	-0.0002713228
0	0.6474057	0.6474046	-1.8569374e-10	0.06894301	0.06894301	0	88733.41	88733.29	-1.90625e-05	625929.1	280438	-0.00022982636	280438.75	625928.56	-1.6758171e-05
0	0.64716345	0.6471624	-3.470342e-10	0.06858927	0.06858927	0	88700.22	88700.086	-4.5e-05	626122.9	279905.16	-0.00020429009	279905.97	626122.25	-0.00030962718
0	0.64691716	0.64691603	-2.7397437e-10	0.068235666	0.068235666	0	88666.46	88666.32	-4.09375e-05	626317.25	279365.88	-0.00025217058	279366.62	626316.7	-0.00013087333
0	0.6466688	0.6466678	3.0441595e-12	0.06788232	0.067882314	0	88632.42	88632.29	-1.25e-06	626512.75	278822.75	3.192033e-05	278823.53	626512.2	-3.3516342e-05
0	0.6464169	0.6464159	-1.15678064e-10	0.06752872	0.06752872	0	88597.89	88597.76	-2e-05	626709.75	278273.16	-8.937692e-05	278273.94	626709.06	-8.1396836e-05
0	0.6461689	0.6461679	-1.9178205e-10	0.067174986	0.067174986	0	88563.91	88563.766	-2.625e-05	626903.5	277732.12	-0.00021067416	277732.94	626902.8	-7.022472e-05
0	0.64591503	0.6459141	4.8706553e-11	0.06682176	0.06682176	0	88529.11	88528.98	2.5e-06	627099.06	277181.16	2.5536261e-05	277181.94	627098.44	1.4364147e-05
0	0.645664	0.6456629	-5.601254e-10	0.066468164	0.066468164	0	88494.695	88494.57	-7.75e-05	627294.3	276634.44	-0.00042134832	276635.25	627293.7	-0.00040299413
0	0.645409	0.64540786	-3.1963676e-10	0.066114426	0.066114426	0	88459.76	88459.61	-3.96875e-05	627491.2	276080.53	-0.0002713228	276081.38	627490.56	-0.00023940245
0	0.6451509	0.6451498	-2.191795e-10	0.06576085	0.06576085	0	88424.38	88424.24	-2.9375e-05	627688.1	275522.3	-0.00021067416	275523.12	627687.5	-0.00013805542
0	0.644894	0.644893	-3.105043e-10	0.06540747	0.06540747	0	88389.164	88389.03	-4e-05	627884.25	274966.5	-0.00028089888	274967.3	627883.6	-0.00018673392
0	0.6446353	0.64463425	-4.6880055e-10	0.065053925	0.065053925	0	88353.71	88353.58	-6.4375e-05	628081.7	274406.9	-0.00038623594	274407.72	628081	-0.0003511236
0	0.64437264	0.64437157	-1.5220798e-10	0.064700186	0.06470019	0	88317.7	88317.57	-1.8125e-05	628279.56	273841.25	-7.022472e-05	273842.1	628278.94	-0.00012608529
0	0.6441137	0.6441126	-2.6179772e-10	0.0643466	0.0643466	0	88282.21	88282.08	-3.25e-05	628476.3	273282	-0.00025536263	273282.84	628475.7	-0.0001173072
0	0.64384997	0.6438489	-2.86151e-10	0.063993216	0.063993216	0	88246.08	88245.94	-3.6875e-05	628674.2	272714.8	-0.0001372574	272715.7	628673.5	-0.0002713228
0	0.643584	0.64358294	-3.2876923e-10	0.06363963	0.06363963	0	88209.625	88209.48	-4.125e-05	628872	272144.78	-9.576098e-05	272145.62	628871.44	-0.00036389174
0	0.6433191	0.643318	-1.15678064e-10	0.06328591	0.0632859	0	88173.31	88173.16	-1.25e-05	629070.25	271575.62	-0.00011491318	271576.47	629069.56	-2.5536261e-05
0	0.64304894	0.64304787	-2.800627e-10	0.062932655	0.06293266	0	88136.28	88136.14	-4.8125e-05	629269.6	270998.03	-0.00025536263	270998.94	629268.94	-0.0001564096
0	0.64278245	0.6427814	-5.2968374e-10	0.06257908	0.06257908	0	88099.76	88099.625	-7.03125e-05	629467.3	270427.22	-0.00035750767	270428.12	629466.7	-0.00041336822
0	0.64251053	0.64250946	-3.8660827e-10	0.062225346	0.062225346	0	88062.51	88062.34	-5.5e-05	629667.2	269846.8	-0.00028089888	269847.66	629666.44	-0.00029845507
0	0.64223963	0.6422385	-2.6788605e-10	0.061871782	0.061871782	0	88025.35	88025.2	-3.875e-05	629865.25	269269.25	-0.00015960164	269270.12	629864.6	-0.00024259448
0	0.64196336	0.6419623	-5.4490457e-10	0.061518367	0.061518367	0	87987.484	87987.34	-7.625e-05	630065	268682.78	-0.00040858018	268683.66	630064.3	-0.00033915348
0	0.6416906	0.6416894	-1.15678064e-10	0.061164834	0.061164834	0	87950.11	87949.96	-1.5e-05	630264.4	268101.5	-2.5536261e-05	268102.4	630263.8	-0.00014683351
0	0.6414124	0.6414113	-3.7138748e-10	0.060811102	0.060811102	0	87911.984	87911.836	-4.875e-05	630464.06	267512.38	-0.00026813074	267513.28	630463.44	-0.00024259448
0	0.6411348	0.64113367	-2.9223932e-10	0.06045754	0.06045754	0	87873.92	87873.78	-4.1875e-05	630665	266922.84	-0.00017875383	266923.72	630664.3	-0.00019631001
0	0.64085525	0.6408541	-2.8919517e-10	0.060104124	0.060104124	0	87835.625	87835.46	-4.5e-05	630865	266331.4	-0.00019152196	266332.34	630864.25	-0.00020030006
0	0.64057374	0.6405726	-4.353148e-10	0.059750553	0.059750553	0	87797.03	87796.89	-6e-05	631065.06	265737.34	-0.000389428	265738.25	631064.2	-0.0002457865
0	0.6402904	0.6402892	-1.6134045e-10	0.059396826	0.059396826	0	87758.195	87758.04	-2.0625e-05	631265.94	265139.62	-0.00014364148	265140.53	631265.25	-7.3416755e-05
0	0.64000314	0.640002	1.0350142e-10	0.05904356	0.05904356	0	87718.84	87718.69	1.25e-05	631468	264535.56	-2.5536261e-05	264536.47	631467.3	0.00016119765
0	0.6397186	0.63971746	-1.7047294e-10	0.05868999	0.05868999	0	87679.84	87679.67	-1.8125e-05	631669.1	263935.97	-1.9152196e-05	263936.88	631668.44	-0.00019152196
0	0.6394315	0.6394302	1.2176638e-11	0.058336265	0.058336265	0	87640.46	87640.31	4.0625e-06	631869	263334.06	-6.3840653e-06	263334.97	631868.25	3.6708378e-05
0	0.63914263	0.63914144	-2.0700285e-10	0.057982713	0.057982713	0	87600.88	87600.72	-3e-05	632071.06	262727.7	-0.00025536263	262728.62	632070.3	-8.538688e-05
0	0.6388511	0.63884985	-1.5829629e-10	0.05762927	0.05762927	0	87560.93	87560.766	-2.4375e-05	632272.44	262118.06	-0.00025536263	262118.97	632271.75	3.1920326e-06
0	0.638559	0.63855773	-1.9482621e-10	0.0572757	0.0572757	0	87520.89	87520.73	-2.15625e-05	632474.5	261507.11	-0.00014683351	261508.05	632473.75	-0.00012129724
0	0.6382647	0.6382635	-3.926966e-10	0.056922022	0.056922026	0	87480.555	87480.39	-5.25e-05	632676.75	260892.88	-0.0001659857	260893.84	632676.06	-0.00038623594
0	0.6379661	0.63796484	-2.8310684e-10	0.05656847	0.05656847	0	87439.625	87439.46	-4e-05	632881.1	260270.47	-0.00022025025	260271.4	632880.4	-0.00021705822
0	0.637671	0.63766986	-7.0015674e-11	0.056215018	0.056215018	0	87399.195	87399.03	-6.5625e-06	633081.7	259656.88	-0.000102145044	259657.81	633080.94	-1.2768131e-05
0	0.6373711	0.63736993	-3.470342e-10	0.055861473	0.05586147	0	87358.09	87357.92	-4.75e-05	633285.25	259033.4	-0.00025536263	259034.39	633284.5	-0.00025137258
0	0.63707006	0.63706887	-1.6438462e-10	0.05550775	0.05550775	0	87316.83	87316.664	-2.5e-05	633487.3	258409.9	-0.00023621041	258410.88	633486.56	4.468846e-05
0	0.6367678	0.63676655	-1.9482621e-10	0.055154454	0.055154454	0	87275.4	87275.234	-2.5625e-05	633690.8	257783.14	-0.0001564096	257784.12	633690.06	-0.00016279367
0	0.6364606	0.6364594	-3.379017e-10	0.054800898	0.054800894	0	87233.29	87233.12	-4.25e-05	633894.6	257149.2	-0.00037027578	257150.17	633893.9	-0.00015840463
0	0.63615584	0.63615453	-2.952835e-10	0.05444718	0.05444718	0	87191.51	87191.34	-3.96875e-05	634098.75	256518.4	-0.00017875383	256519.38	634098	-0.00023301839
0	0.63584936	0.6358481	-2.191795e-10	0.05409365	0.05409365	0	87149.51	87149.336	-3.3125e-05	634301.25	255886.8	-0.00026493872	255887.8	634300.5	-0.00014523749
0	0.6355397	0.6355384	-3.774758e-10	0.053740162	0.053740162	0	87107.06	87106.89	-4.5e-05	634505.2	255249.34	-0.00025536263	255250.33	634504.5	-0.00024897855
0	0.6352263	0.6352251	-3.8051995e-10	0.05338662	0.05338662	0	87064.12	87063.95	-5.1875e-05	634710.7	254605.2	-0.00029047497	254606.25	634709.94	-0.0002745148
0	0.63491523	0.634914	-3.6529915e-11	0.053032946	0.053032946	0	87021.48	87021.305	-5e-06	634913.2	253967.11	-3.830439e-05	253968.14	634912.44	-5.187053e-06
0	0.6345968	0.6345956	-5.083747e-10	0.05267941	0.05267941	0	86977.84	86977.67	-7e-05	635118.9	253315.72	-0.00042134832	253316.7	635118.06	-0.00034074948
0	0.63428324	0.6342819	-3.7138748e-10	0.052325908	0.052325904	0	86934.84	86934.664	-4.53125e-05	635322.3	252673.08	-0.00025536263	252674.12	635321.5	-0.00029685904
0	0.63396424	0.6339629	-3.1963676e-10	0.051972378	0.051972378	0	86891.13	86890.95	-4.5625e-05	635527.06	252021.8	-0.00024897855	252022.8	635526.3	-0.00020069905
0	0.6336442	0.63364285	-1.5220798e-10	0.051618665	0.051618665	0	86847.27	86847.1	-2.25e-05	635731.94	251368.94	-0.00017875383	251369.98	635731.1	-5.266854e-05
0	0.63332134	0.63332003	-1.6438462e-10	0.051265337	0.051265337	0	86803.016	86802.84	-1.96875e-05	635937.9	250710.95	-0.00021705822	250711.97	635937.06	-3.830439e-05
0	0.63299775	0.63299644	-4.6271226e-10	0.050911807	0.050911807	0	86758.69	86758.484	-6.625e-05	636142.56	250053.3	-0.00035750767	250054.31	636141.75	-0.00032000127
0	0.6326696	0.63266826	-4.5662393e-10	0.050558094	0.0505581	0	86713.7	86713.516	-5.75e-05	636348.1	249388.33	-0.00025536263	249389.38	636347.3	-0.00038304392
0	0.63234246	0.6323412	-2.4353276e-11	0.05020459	0.050204586	0	86668.86	86668.68	-3.4375e-06	636554.5	248723.92	1.9152196e-05	248725	636553.75	-3.511236e-05
0	0.6320141	0.6320127	-2.1613533e-10	0.04985105	0.04985105	0	86623.86	86623.664	-2.15625e-05	636759.06	248059.47	-0.00026493872	248060.58	636758.4	4.109742e-05
0	0.6316824	0.631681	-3.62255e-10	0.04949753	0.04949753	0	86578.39	86578.2	-5.25e-05	636964.3	247389.98	-0.00043411643	247391.05	636963.44	-8.937692e-05
0	0.6313492	0.6313479	-3.6529915e-10	0.049143866	0.049143866	0	86532.734	86532.55	-4.5625e-05	637170.56	246717.3	-0.00022025025	246718.36	637169.75	-0.00026813074
0	0.6310113	0.6310099	-1.8264957e-11	0.04879036	0.04879036	0	86486.41	86486.22	-1.875e-06	637377.06	246037.55	-5.1072522e-05	246038.67	637376.3	-1.755618e-05
0	0.6306769	0.63067555	-4.748889e-10	0.0484368	0.0484368	0	86440.58	86440.375	-6e-05	637582.9	245363.69	-0.0003319714	245364.78	637582.1	-0.00039341804
0	0.63033676	0.63033545	-3.835641e-10	0.048083294	0.048083294	0	86393.96	86393.766	-4.375e-05	637789.44	244680.95	-0.0003128192	244682.08	637788.6	-0.0002457865
0	0.6299934	0.62999195	-1.15678064e-10	0.047729596	0.047729596	0	86346.9	86346.7	-1.375e-05	637996.56	243993	6.384066e-05	243994.1	637995.7	-0.00022104826
0	0.6296529	0.6296515	-4.505356e-10	0.047376227	0.047376227	0	86300.22	86300.04	-6.125e-05	638202.6	243310.33	-0.00034473953	243311.45	638201.75	-0.00036907877
0	0.62930727	0.6293059	-5.4794873e-11	0.04702272	0.04702272	0	86252.85	86252.664	-5.625e-06	638408.8	242620.28	-0.00011491318	242621.38	638408	4.468846e-05
0	0.62895936	0.6289579	-3.7138748e-10	0.046669014	0.046669014	0	86205.164	86204.98	-5.375e-05	638615.7	241926.28	-0.00032558735	241927.42	638614.75	-0.00017236976
0	0.62861174	0.6286103	-3.9574075e-10	0.04631553	0.04631553	0	86157.52	86157.336	-5.25e-05	638822.94	241232.38	-0.00039581207	241233.53	638822.06	-0.00021147217
0	0.6282603	0.6282589	-3.62255e-10	0.045961928	0.045961935	0	86109.36	86109.164	-4.75e-05	639030.1	240533.12	-0.00036708376	240534.25	639029.3	-0.00015960164
0	0.62790364	0.6279022	-3.0441597e-11	0.04560844	0.04560844	0	86060.47	86060.28	-1.875e-06	639239.2	239824.75	-1.2768131e-05	239825.92	639238.3	-4.0299412e-05
0	0.62755114	0.62754965	-2.4353278e-10	0.045254786	0.04525479	0	86012.15	86011.95	-3.375e-05	639444.5	239125.89	-0.0003319714	239127.06	639443.6	-3.431435e-05
0	0.6271929	0.6271914	-2.404886e-10	0.0449013	0.0449013	0	85963.06	85962.85	-3.28125e-05	639652.2	238416.78	-0.00025217058	238417.95	639651.25	-9.2568946e-05
0	0.6268341	0.6268326	-1.8569374e-10	0.044547684	0.044547684	0	85913.89	85913.68	-2.5e-05	639860.44	237706.12	-0.00014683351	237707.33	639859.56	-0.00014922753
0	0.6264734	0.62647194	-4.2009402e-10	0.044194214	0.044194214	0	85864.445	85864.25	-5.5e-05	640066.94	236994.66	-0.00030643513	236995.83	640066.06	-0.0003028441
0	0.62610966	0.6261082	-2.800627e-10	0.043840516	0.043840516	0	85814.6	85814.38	-3.90625e-05	640274.7	236277.7	-0.00015321757	236278.92	640273.75	-0.00020429009
0	0.62574416	0.6257426	-3.8051995e-10	0.043487042	0.043487042	0	85764.49	85764.29	-5.3125e-05	640482.2	235558.39	-0.00035750767	235559.6	640481.4	-0.00018952694
0	0.62537485	0.6253733	-3.9574075e-10	0.043133624	0.043133624	0	85713.88	85713.67	-5.75e-05	640691.56	234832.12	-0.00024259448	234833.33	640690.56	-0.00034952757
0	0.6250058	0.62500423	-4.079174e-10	0.04277993	0.04277993	0	85663.3	85663.086	-5.375e-05	640898.4	234108.52	-0.00017236976	234109.72	640897.5	-0.00037346783
0	0.62463087	0.6246293	6.697151e-11	0.042426456	0.042426456	0	85611.914	85611.7	7.5e-06	641106.9	233375.1	-1.9152196e-05	233376.34	641106	7.660878e-05
0	0.62425894	0.6242573	-6.392735e-11	0.042072814	0.042072814	0	85560.92	85560.71	-1.25e-05	641314.25	232646.97	3.830439e-05	232648.22	641313.3	-0.00016159666
0	0.6238816	0.62388	-2.709302e-10	0.041719347	0.041719347	0	85509.2	85509	-4.09375e-05	641523.75	231909.17	-0.00023621041	231910.42	641522.9	-0.00012768131
0	0.6235027	0.6235011	-2.7397437e-10	0.041365713	0.041365713	0	85457.28	85457.06	-3.71875e-05	641732.06	231170.45	-0.00037027578	231171.72	641731.06	-7.301775e-05
0	0.6231219	0.6231203	6.697151e-11	0.04101226	0.041012257	0	85405.08	85404.86	1.5e-05	641940.2	230429.08	0.00019152196	230430.39	641939.3	-1.9950205e-05
0	0.62273926	0.6227377	-4.2618234e-10	0.04065857	0.04065857	0	85352.65	85352.42	-5.8125e-05	642147.2	229686.5	-0.00037027578	229687.75	642146.25	-0.00022982636
0	0.6223512	0.6223496	-3.470342e-10	0.04030513	0.04030513	0	85299.45	85299.234	-4.53125e-05	642356.4	228934.05	-0.00026174667	228935.36	642355.44	-0.00023381639
0	0.62196505	0.6219635	-1.0958975e-10	0.039951444	0.039951444	0	85246.52	85246.305	-1.5e-05	642565.3	228184.47	-0.00019152196	228185.77	642564.3	-2.1147216e-05
0	0.62157506	0.6215734	-1.735171e-10	0.039597984	0.039597984	0	85193.086	85192.86	-1.78125e-05	642773.9	227429.84	-5.745659e-05	227431.12	642772.94	-0.00020748212
0	0.62118393	0.6211822	-3.9574075e-10	0.03924453	0.03924453	0	85139.47	85139.25	-5.71875e-05	642981.06	226675.16	-0.00022982636	226676.47	642979.94	-0.00036349273
0	0.6207881	0.6207865	8.523647e-11	0.038890842	0.038890842	0	85085.21	85084.99	1e-05	643189.56	225912.5	0.000102145044	225913.8	643188.6	2.5137257e-05
0	0.6203921	0.6203905	-3.774758e-10	0.038537383	0.03853738	0	85030.945	85030.72	-5.0625e-05	643398.06	225149.62	-0.000389428	225150.98	643397.06	-0.00015321757
0	0.6199928	0.6199911	-1.5220798e-10	0.038183715	0.038183715	0	84976.22	84975.98	-2e-05	643606.4	224382.2	-0.00018194587	224383.56	643605.4	-0.00012289325
0	0.6195898	0.6195882	-6.453618e-10	0.037830252	0.037830252	0	84920.984	84920.75	-9.5e-05	643814.94	223609.48	-0.0005745659	223610.83	643813.94	-0.00040299413
0	0.61918604	0.61918443	-4.3227066e-10	0.037476573	0.037476573	0	84865.65	84865.42	-5.84375e-05	644023.56	222835.58	-0.00038623594	222836.94	644022.6	-0.00026493872
0	0.6187796	0.6187779	-2.800627e-10	0.03712317	0.03712317	0	84809.93	84809.695	-3.84375e-05	644232.44	222057.64	-0.00015960164	222059	644231.4	-0.00025217058
0	0.6183718	0.61837	-3.987849e-10	0.0367695	0.0367695	0	84754.03	84753.8	-5.625e-05	644440.94	221278.16	-0.00019152196	221279.55	644439.94	-0.00034633555
0	0.6179606	0.61795884	-2.2831197e-10	0.036416046	0.03641604	0	84697.68	84697.44	-2.125e-05	644649.3	220494.11	-0.00019152196	220495.5	644648.3	-8.299285e-05
0	0.61754566	0.6175439	-1.4003135e-10	0.036062367	0.036062367	0	84640.81	84640.56	-2.1875e-05	644858.56	219703.95	-0.00011810521	219705.34	644857.56	-9.576098e-05
0	0.61712706	0.6171253	-2.9223932e-10	0.0357089	0.0357089	0	84583.44	84583.195	-3.875e-05	645067.3	218909.11	-0.00026813074	218910.52	645066.3	-0.0001667837
0	0.61670965	0.6167078	-2.6179772e-10	0.035355434	0.035355434	0	84526.22	84525.97	-3.75e-05	645277.25	218114.8	-0.00024897855	218116.23	645276.1	-0.00014044944
0	0.61628824	0.61628646	-4.9924215e-10	0.03500176	0.03500176	0	84468.46	84468.22	-6.84375e-05	645485.9	217316.16	-0.00036389174	217317.61	645484.8	-0.00035351762
0	0.61586446	0.6158626	-1.3394302e-10	0.034648284	0.034648288	0	84410.38	84410.125	-2.5e-05	645694.44	216514.22	-0.00019152196	216515.69	645693.4	-2.4738254e-05
0	0.61543906	0.61543715	-2.86151e-10	0.034294635	0.034294635	0	84352.08	84351.83	-4.3125e-05	645901.94	215711.23	-0.00021067416	215712.72	645900.9	-0.00021067416
0	0.61500895	0.6150071	-2.6484187e-10	0.03394116	0.03394116	0	84293.12	84292.87	-3.75e-05	646111.6	214899.39	-0.0003319714	214900.83	646110.5	-9.9352015e-05
0	0.6145776	0.61457574	-2.4353278e-10	0.033587493	0.033587493	0	84234.01	84233.75	-3.25e-05	646318.5	214088.64	-0.00028089888	214090.16	646317.5	-6.86287e-05
0	0.6141425	0.6141406	-2.3440028e-10	0.03323408	0.03323408	0	84174.375	84174.12	-3.125e-05	646528.7	213269.3	-0.00017236976	213270.78	646527.6	-0.0001564096
0	0.61370796	0.6137061	-3.0441596e-10	0.032880425	0.032880425	0	84114.8	84114.55	-4.21875e-05	646735.6	212453.95	-0.00024259448	212455.47	646734.44	-0.00021067416
0	0.61326617	0.61326426	-4.5662394e-11	0.032526962	0.032526962	0	84054.25	84053.99	-7.5e-06	646945.6	211625.5	-5.1072522e-05	211627.03	646944.5	-6.1446626e-05
0	0.61282486	0.612823	-2.709302e-10	0.0321733	0.0321733	0	83993.78	83993.516	-4.03125e-05	647153.8	210799.5	-0.00022982636	210801.03	647152.7	-0.00014044944
0	0.6123805	0.6123786	-3.074601e-10	0.031819817	0.031819817	0	83932.875	83932.6	-4.375e-05	647362	209969.06	-0.00028089888	209970.62	647360.9	-0.00017316778
0	0.6119329	0.611931	-2.191795e-10	0.03146633	0.031466328	0	83871.516	83871.266	-2.75e-05	647570.3	209134.16	-0.000102145044	209135.7	647569.25	-0.00019152196
0	0.6114831	0.6114811	-4.809772e-10	0.031112673	0.031112673	0	83809.87	83809.59	-6.6875e-05	647778.4	208296.27	-0.00038304392	208297.84	647777.2	-0.00030643513
0	0.61102915	0.6110272	-1.7656125e-10	0.030759184	0.030759184	0	83747.66	83747.38	-2.65625e-05	647985.2	207454.08	-0.00020429009	207455.64	647983.94	-7.022472e-05
0	0.6105729	0.6105708	-4.596681e-10	0.030405551	0.030405551	0	83685.12	83684.84	-6.875e-05	648194.75	206605.6	-0.0004596527	206607.17	648193.56	-0.0002832929
0	0.61011624	0.6101143	-3.379017e-10	0.030052062	0.030052062	0	83622.53	83622.26	-3.84375e-05	648402.3	205758.86	-0.00026813074	205760.47	648401.1	-0.00013087333
0	0.6096564	0.60965437	-3.5616668e-10	0.029698413	0.029698413	0	83559.51	83559.23	-4.6875e-05	648608.56	204908.78	-0.00026174667	204910.4	648607.4	-0.00027571182
0	0.60919154	0.60918957	-2.6484187e-10	0.029344995	0.029344995	0	83495.805	83495.52	-4e-05	648816	204050.64	-0.00017875383	204052.27	648814.75	-0.00023541242
0	0.6087259	0.60872376	-5.083747e-10	0.028991356	0.028991356	0	83431.97	83431.69	-6.625e-05	649023.7	203190.88	-0.00045326864	203192.52	649022.6	-0.00028728295
0	0.6082556	0.6082536	-2.7397437e-10	0.02863785	0.02863785	0	83367.516	83367.24	-4.375e-05	649231.44	202324.78	-0.00023621041	202326.44	649230.25	-0.00018832993
0	0.60778403	0.60778195	-2.4657693e-10	0.028284235	0.028284235	0	83302.88	83302.59	-3.25e-05	649438.06	201457.94	-0.00011491318	201459.6	649436.8	-0.00024897855
0	0.60730845	0.6073065	-1.8264958e-10	0.027930735	0.027930735	0	83237.71	83237.414	-2.4375e-05	649645.5	200584.75	-0.00014683351	200586.42	649644.25	-0.00015321757
0	0.6068287	0.6068266	-1.5525214e-10	0.027577227	0.027577223	0	83171.945	83171.66	-2.1875e-05	649852.9	199705.56	-0.00015960164	199707.27	649851.6	-6.543667e-05
0	0.6063481	0.60634595	-3.8965242e-10	0.027223594	0.027223594	0	83106.06	83105.79	-4.875e-05	650060.1	198825.5	-0.00028089888	198827.22	650058.8	-0.0002545646
0	0.60586417	0.6058621	-3.2876923e-10	0.026870081	0.026870081	0	83039.75	83039.46	-4.3125e-05	650266.94	197941.19	-0.00038304392	197942.9	650265.75	-9.2568946e-05
0	0.60537744	0.6053753	-1.8264958e-10	0.026516473	0.026516473	0	82973.03	82972.74	-2.59375e-05	650473.44	197053.16	-0.00012768131	197054.89	650472.3	-0.00010493807
0	0.6048856	0.6048834	-4.0487322e-10	0.026162954	0.026162954	0	82905.61	82905.305	-5.625e-05	650681.56	196156.38	-0.00030643513	196158.12	650680.3	-0.00027930285
0	0.6043924	0.60439014	-2.2070157e-10	0.025809333	0.025809333	0	82838.016	82837.73	-3.46875e-05	650888	195259.55	-0.00024897855	195261.31	650886.75	-9.8953016e-05
0	0.6038962	0.60389394	-3.1811467e-10	0.025455903	0.025455903	0	82770.01	82769.7	-4.1875e-05	651094.1	194358.67	-0.00031920327	194360.45	651092.8	-0.0001659857
0	0.6033967	0.6033945	-3.5616668e-10	0.025102295	0.025102293	0	82701.555	82701.25	-5.125e-05	651300.4	193453.3	-0.00029366702	193455.1	651299.06	-0.00023301839
0	0.6028945	0.60289216	-2.633198e-10	0.024748765	0.024748767	0	82632.7	82632.4	-3.4375e-05	651506.2	192544.12	-0.00024897855	192545.94	651504.9	-0.00016279367
0	0.60238874	0.6023865	-2.4657693e-10	0.02439518	0.02439518	0	82563.4	82563.09	-3.4375e-05	651711.9	191630.53	-0.00025536263	191632.38	651710.5	-9.8953016e-05
0	0.60188025	0.601878	-1.2176638e-11	0.024041647	0.024041647	0	82493.7	82493.39	7.5e-06	651917.4	190713.06	5.1072522e-05	190714.9	651916.1	2.9526302e-05
0	0.6013695	0.6013672	-8.219231e-11	0.02368811	0.02368811	0	82423.7	82423.39	-1.4375e-05	652121.25	189794.25	-8.618488e-05	189796.11	652119.8	-5.1072522e-05
0	0.60085255	0.6008502	-4.079174e-10	0.023334507	0.023334507	0	82352.85	82352.53	-5.125e-05	652326.2	188865.53	-0.0002745148	188867.39	652324.8	-0.00028728295
0	0.60033345	0.60033125	-2.4353276e-11	0.022980964	0.022980964	0	82281.71	82281.4	2.5e-06	652532.94	187932.05	-3.830439e-05	187933.94	652531.6	4.2294432e-05
0	0.5998149	0.5998125	-4.38359e-10	0.022627395	0.022627395	0	82210.63	82210.31	-6.5625e-05	652735.8	187003.1	-0.00045646066	187005	652734.5	-0.00021705822
0	0.59928745	0.599285	-2.800627e-10	0.022273842	0.022273842	0	82138.33	82138.016	-3.6875e-05	652942.2	186058.27	-0.0002840909	186060.17	652940.8	-0.000114115166
0	0.5987619	0.59875953	-2.952835e-10	0.021920258	0.021920262	0	82066.31	82065.984	-4e-05	653144.44	185120.38	-0.00028089888	185122.33	653143	-0.00013645939
0	0.59823054	0.5982281	-3.379017e-10	0.021566812	0.021566812	0	81993.47	81993.14	-4.5625e-05	653348.3	184172.42	-0.00030005106	184174.38	653346.94	-0.00018513789
0	0.59769267	0.59769017	2.039587e-10	0.021213228	0.021213228	0	81919.75	81919.42	2.5625e-05	653554.3	183213.34	-5.745659e-05	183215.36	653552.94	0.0003120212
0	0.597156	0.59715354	-3.9574073e-11	0.020859674	0.02085967	0	81846.2	81845.875	-5e-06	653757.75	182258.72	-6.384066e-05	182260.69	653756.3	1.755618e-05
0	0.59661657	0.5966141	-1.15678064e-10	0.020506129	0.020506129	0	81772.266	81771.93	-1.78125e-05	653959.3	181301.9	-0.0001659857	181303.94	653957.8	-4.788049e-05
0	0.5960709	0.5960684	-2.3592236e-10	0.020152565	0.020152565	0	81697.46	81697.125	-3.25e-05	654162.2	180334.9	-0.0003128192	180336.95	654160.8	4.788049e-06
0	0.59552157	0.595519	-5.631695e-11	0.019798992	0.019798992	0	81622.18	81621.84	-3.75e-06	654366.94	179361.28	-0.00017875383	179363.36	654365.44	0.00012927732
0	0.5949714	0.5949688	-2.5875357e-10	0.019445421	0.019445421	0	81546.78	81546.43	-3.71875e-05	654567.2	178390.61	-0.0002138662	178392.69	654565.75	-0.00016279367
0	0.59441537	0.59441286	-9.436895e-11	0.019091858	0.019091858	0	81470.58	81470.22	-1.03125e-05	654769.9	177409.58	-0.00011810521	177411.69	654768.4	-1.5960164e-05
0	0.5938548	0.5938522	-1.6438462e-10	0.018738287	0.018738287	0	81393.74	81393.39	-2.75e-05	654973.5	176421.1	-0.00020429009	176423.2	654972	-5.4264554e-05
0	0.59329313	0.5932905	-3.0289388e-10	0.01838475	0.01838475	0	81316.76	81316.39	-4.34375e-05	655174.94	175433.22	-0.00022344229	175435.36	655173.44	-0.00024897855
0	0.59272736	0.5927247	-1.06545585e-10	0.018031184	0.018031184	0	81239.21	81238.84	-1.25e-05	655376.4	174439.77	-0.00016917773	174441.92	655374.9	2.234423e-05
0	0.59215915	0.5921565	-1.8417165e-10	0.017677717	0.017677717	0	81161.336	81160.98	-2.875e-05	655575.56	173445.17	-0.00014044944	173447.34	655574	-0.00017236976
0	0.5915854	0.5915826	-3.1202635e-10	0.017324144	0.017324144	0	81082.68	81082.32	-4.25e-05	655776.44	172440.8	-0.00020109805	172443.02	655774.94	-0.00023621041
0	0.5910073	0.59100467	-2.7549643e-10	0.01697058	0.01697058	0	81003.47	81003.1	-4.125e-05	655978.75	171429.36	-0.00018034985	171431.61	655977.1	-0.00022503831
0	0.5904267	0.590424	-4.505356e-10	0.01661704	0.016617041	0	80923.89	80923.516	-6.25e-05	656178.75	170416.45	-0.00038304392	170418.7	656177.2	-0.00028010088
0	0.5898425	0.5898397	-2.5723149e-10	0.016263481	0.016263481	0	80843.81	80843.44	-3.46875e-05	656378.5	169398.69	-0.00021705822	169400.97	656376.9	-0.00015960164
0	0.5892543	0.58925164	-7.0015674e-11	0.015909908	0.015909908	0	80763.2	80762.82	-1e-05	656577.94	168375.92	-0.00017077375	168378.2	656576.2	4.468846e-05
0	0.5886623	0.5886596	-2.252678e-10	0.015556336	0.015556336	0	80682.06	80681.68	-3.25e-05	656776.9	167348.22	-0.00015321757	167350.55	656775.2	-0.00018034985
0	0.58806807	0.58806527	-1.9178205e-10	0.015202776	0.015202776	0	80600.62	80600.234	-2.4375e-05	656973.7	166319.3	-0.00013885341	166321.62	656972.1	-0.00012448928
0	0.5874687	0.5874658	-4.9924215e-10	0.014849206	0.014849206	0	80518.45	80518.06	-6.9375e-05	657172.2	165281.58	-0.00041496425	165283.94	657170.56	-0.00032638534
0	0.58686423	0.5868614	-2.404886e-10	0.014495678	0.014495678	0	80435.62	80435.22	-3.375e-05	657370.5	164237.08	-0.00017875383	164239.45	657368.8	-0.00019311797
0	0.5862568	0.5862539	-3.9726283e-10	0.014142117	0.014142117	0	80352.35	80351.96	-5.9375e-05	657568.06	163189	-0.00035431562	163191.42	657566.44	-0.00026493872
0	0.58564585	0.5856429	-3.3485756e-10	0.0137886135	0.013788612	0	80268.62	80268.22	-4.875e-05	657764.8	162136.89	-0.00023621041	162139.34	657763.2	-0.00027770683
0	0.5850305	0.5850276	-3.8965242e-10	0.013435041	0.013435041	0	80184.28	80183.88	-5.5e-05	657961.5	161078.7	-0.00035750767	161081.16	657959.9	-0.00023621041
0	0.5844108	0.58440787	-3.105043e-10	0.013081476	0.013081476	0	80099.35	80098.94	-4.125e-05	658158.4	160014.27	-0.00024099847	160016.75	658156.7	-0.00022982636
0	0.58378774	0.5837847	-2.0700285e-10	0.012727952	0.012727952	0	80013.945	80013.53	-3.21875e-05	658354	158946.33	-0.00012768131	158948.83	658352.25	-0.00017316778
0	0.58316004	0.58315694	-2.4962107e-10	0.0123743825	0.0123743825	0	79927.914	79927.484	-3e-05	658549.56	157871.81	-0.00017875383	157874.36	658547.9	-0.00014044944
0	0.5825282	0.5825251	-2.039587e-10	0.012020824	0.012020824	0	79841.31	79840.89	-3e-05	658745.06	156791.83	-0.000110125126	156794.38	658743.4	-0.00022982636
0	0.5818917	0.5818886	-2.7397437e-10	0.011667253	0.011667253	0	79754.08	79753.65	-3.625e-05	658939.4	155706.4	-0.00019152196	155708.97	658937.6	-0.00023860444
0	0.5812508	0.5812476	-3.7138748e-10	0.011313697	0.011313697	0	79666.234	79665.8	-5e-05	659135.94	154612.52	-0.00035750767	154615.16	659134.2	-0.00017077375
0	0.58060616	0.58060294	-3.62255e-10	0.010960129	0.010960129	0	79577.88	79577.445	-5.3125e-05	659329.9	153516.17	-0.00029366702	153518.81	659328	-0.00022025025
0	0.5799596	0.57995635	-2.420107e-10	0.010606614	0.010606615	0	79489.26	79488.82	-3.5e-05	659521.44	152419.33	-0.00011331716	152422	659519.6	-0.0002346144
0	0.5793055	0.57930225	-4.1704987e-10	0.010253065	0.010253064	0	79399.62	79399.17	-5.25e-05	659714	151310.98	-0.00035750767	151313.69	659712.2	-0.00026653474
0	0.5786488	0.5786455	-4.231382e-10	0.009899496	0.009899496	0	79309.61	79309.164	-6.34375e-05	659907.06	150198.52	-0.00056179776	150201.25	659905.3	-0.00011491318
0	0.5779863	0.57798296	-3.926966e-10	0.009545929	0.009545929	0	79218.8	79218.35	-6.28125e-05	660100.75	149077.34	-0.00036389174	149080.14	660098.9	-0.00026015067
0	0.57732135	0.577318	-2.785406e-10	0.009192375	0.009192375	0	79127.66	79127.2	-4.125e-05	660290.44	147956.6	-0.00029366702	147959.4	660288.5	-0.00010653409
0	0.5766488	0.5766454	-8.067023e-11	0.008838858	0.008838858	0	79035.48	79035.016	-1.15625e-05	660483.7	146821.78	-0.00012448928	146824.61	660481.75	-2.5536261e-05
0	0.5759757	0.5759723	-3.9726283e-10	0.00848529	0.00848529	0	78943.23	78942.76	-5.125e-05	660672.25	145690.89	-0.00035591164	145693.75	660670.3	-0.00018473889
0	0.57529455	0.57529116	-2.6788605e-10	0.008131741	0.008131741	0	78849.875	78849.4	-4e-05	660864.2	144545.31	-0.00017875383	144548.19	660862.25	-0.00020349209
0	0.5746095	0.574606	4.5662394e-11	0.007778168	0.007778168	0	78755.984	78755.5	4.0625e-06	661053.7	143396.75	-9.8953016e-05	143399.67	661051.75	0.00011810521
0	0.57392323	0.5739197	-1.5677422e-10	0.007424603	0.007424603	0	78661.92	78661.43	-2.359375e-05	661240.56	142248.98	-0.00018513789	142251.95	661238.56	-8.219484e-05
0	0.573228	0.5732243	-2.0091454e-10	0.0070710587	0.0070710587	0	78566.62	78566.125	-3e-05	661431.3	141084.72	-0.00029366702	141087.73	661429.3	1.3167135e-05
0	0.5725309	0.57252735	-1.8721581e-10	0.0067175203	0.0067175203	0	78471.09	78470.59	-2.28125e-05	661617.8	139922.42	-0.00015321757	139925.47	661615.8	-8.299285e-05
0	0.5718276	0.571824	-3.835641e-10	0.006363976	0.0063639763	0	78374.695	78374.195	-5.1875e-05	661804.9	138750.78	-0.00032399132	138753.84	661802.75	-0.00019950204
0	0.5711198	0.5711161	-3.226809e-10	0.006010412	0.006010412	0	78277.67	78277.17	-4.75e-05	661991.94	137572.62	-0.00028089888	137575.73	661989.9	-0.00022264427
0	0.57040554	0.5704018	-7.9148146e-11	0.0056568487	0.0056568487	0	78179.77	78179.27	-1.15625e-05	662180.25	136384.25	-1.5960164e-05	136387.4	662178.25	-0.00010852911
0	0.56968874	0.56968504	-3.835641e-10	0.005303307	0.0053033074	0	78081.55	78081.03	-5.28125e-05	662364.56	135196.53	-0.00034633555	135199.69	662362.5	-0.00021306818