# t (s)	mx ()	my ()	mz ()	B_extx (T)	B_exty (T)	B_extz (T)	m_fullx (A/m)	m_fully (A/m)	m_fullz (A/m)	m_full.region1x (A/m)	m_full.region1y (A/m)	m_full.region1z (A/m)	m_full.region2x (A/m)	m_full.region2y (A/m)	m_full.region2z (A/m)
0	0.6359143	0.63591516	-3.5686315e-10	0.07071087	0.07071087	0	124906.29	124906.445	-6.8125e-05	650929.8	239351.16	-0.000222737	239350.25	650930	-0.0003263097
0	0.6358113	0.63581115	-2.0392181e-10	0.07056911	0.070569105	0	124886.055	124886.02	-4.25e-05	651004.75	239131.16	-0.00011582323	239131.16	651004.4	-0.00019155382
0	0.6357053	0.6357052	-2.63399e-10	0.07042789	0.07042789	0	124865.24	124865.19	-5.375e-05	651083	238904.38	-0.00016482537	238904.45	651082.7	-0.00020213382
0	0.63559866	0.63559836	-2.5490227e-10	0.07028653	0.07028652	0	124844.3	124844.234	-5.03125e-05	651161.5	238676.48	-8.6867425e-05	238676.6	651161.2	-0.00030514968
0	0.635492	0.6354917	-2.2091529e-10	0.070144884	0.070144884	0	124823.34	124823.27	-4.4375e-05	651240	238448.73	-0.00010691376	238448.84	651239.7	-0.00019211066
0	0.6353845	0.63538414	-1.8692832e-10	0.07000352	0.07000352	0	124802.22	124802.17	-4.09375e-05	651318.4	238219.84	-3.563792e-05	238219.94	651318	-0.00024723806
0	0.63527703	0.6352767	1.6993485e-11	0.06986229	0.06986229	0	124781.12	124781.055	1.25e-06	651397.25	237990.47	7.127584e-05	237990.56	651396.94	-2.22737e-05
0	0.63516974	0.63516945	-1.1895439e-10	0.069720544	0.069720544	0	124760.06	124760	-2e-05	651476	237761.64	-8.90948e-06	237761.75	651475.56	-0.00015480221
0	0.635062	0.63506174	-1.1045764e-10	0.069579184	0.06957919	0	124738.9	124738.81	-1.9375e-05	651554.75	237531.98	-8.018532e-05	237532.1	651554.44	-7.0162154e-05
0	0.634954	0.6349536	-2.1241855e-10	0.069437966	0.069437966	0	124717.664	124717.61	-3.625e-05	651633.44	237301.92	-0.00012918745	237302.03	651633.2	-0.00011582323
0	0.634846	0.6348456	-1.01960905e-10	0.069296576	0.069296576	0	124696.43	124696.375	-2.5e-05	651712.2	237072	0	237072.12	651711.75	-0.00013586956
0	0.63473755	0.63473725	-1.01960905e-10	0.06915497	0.069154955	0	124675.164	124675.09	-2.5e-05	651790.8	236841.75	-9.8004275e-05	236841.88	651790.44	-0.00010468638
0	0.6346286	0.63462824	-1.5294135e-10	0.069013596	0.069013596	0	124653.734	124653.67	-2.625e-05	651869.94	236609.9	-0.00012250534	236610.02	651869.56	-6.904847e-05
0	0.63451993	0.6345195	-4.248371e-11	0.068872236	0.068872236	0	124632.39	124632.33	-1.375e-05	651948.6	236379.12	-8.90948e-06	236379.22	651948.2	-8.6867425e-05
0	0.63441044	0.6344101	-1.3594788e-10	0.06873064	0.06873064	0	124610.89	124610.836	-2.53125e-05	652027.7	236146.86	-8.018532e-05	236146.97	652027.3	-0.00015368852
0	0.63430166	0.6343013	-1.5294135e-10	0.06858927	0.06858927	0	124589.52	124589.45	-3.5e-05	652106.25	235915.92	-6.68211e-05	235916.05	652105.9	-0.00018709907
0	0.63419163	0.63419133	-2.2941203e-10	0.06844801	0.068448015	0	124567.92	124567.85	-4.15625e-05	652185.44	235682.61	-0.00012473272	235682.73	652185.2	-0.00020603172
0	0.63408226	0.6340819	-3.9085013e-10	0.06830665	0.06830665	0	124546.445	124546.37	-7.125e-05	652264.25	235450.75	-0.00024055595	235450.84	652263.94	-0.00028510336
0	0.6339721	0.63397175	-2.2941203e-10	0.068165034	0.068165034	0	124524.81	124524.74	-4.78125e-05	652343.1	235217.77	-0.0001781896	235217.89	652342.8	-0.00017373485
0	0.63386214	0.6338617	-2.8888922e-10	0.068023674	0.068023674	0	124503.2	124503.13	-5.6875e-05	652422.1	234984.66	-0.00014255168	234984.8	652421.8	-0.00026422174
0	0.63375163	0.63375133	-2.3790878e-10	0.06788232	0.06788232	0	124481.49	124481.44	-4.4375e-05	652501.44	234750.77	-0.0001781896	234750.88	652501.06	-0.00015146115
0	0.6336409	0.6336406	8.496742e-12	0.067740716	0.067740716	0	124459.76	124459.695	-3.75e-06	652580.44	234516.75	-8.90948e-06	234516.89	652580	3.341055e-05
0	0.6335301	0.6335298	-1.8692832e-10	0.06759932	0.06759932	0	124437.96	124437.89	-4.0625e-05	652659.56	234282.39	-0.00015146115	234282.5	652659.2	-0.00014644957
0	0.63341916	0.63341874	-2.7189576e-10	0.06745809	0.06745809	0	124416.19	124416.125	-5.125e-05	652738.75	234047.92	-0.00016928012	234048.06	652738.3	-0.00019823592
0	0.6333077	0.6333073	-2.0392181e-10	0.067316726	0.067316726	0	124394.29	124394.22	-4.375e-05	652817.7	233812.92	-0.00012250534	233813.06	652817.3	-0.00016259801
0	0.6331951	0.63319474	-2.9738598e-10	0.06717498	0.067174986	0	124372.195	124372.125	-5.1875e-05	652897.5	233575.53	-0.0001781896	233575.64	652897.1	-0.00022747015
0	0.63308424	0.63308394	-1.6993484e-10	0.06703377	0.06703377	0	124350.414	124350.34	-3.625e-05	652976.6	233341.27	-7.127584e-05	233341.38	652976.2	-0.00017150749
0	0.63297236	0.63297206	-5.0980452e-11	0.066892385	0.066892385	0	124328.44	124328.37	-1.25e-05	653055.75	233105.5	0	233105.61	653055.4	-8.464006e-05
0	0.6328597	0.63285935	-1.3594788e-10	0.06675076	0.066750765	0	124306.31	124306.23	-3.0625e-05	653135.3	232868.17	-5.345688e-05	232868.3	653134.94	-0.00014700642
0	0.6327477	0.63274735	-2.5490227e-10	0.0666094	0.0666094	0	124284.31	124284.234	-5e-05	653214.5	232632.19	-0.00011582323	232632.33	653214.1	-0.0002294191
0	0.63263416	0.63263375	-2.7189576e-10	0.06646817	0.066468164	0	124261.99	124261.93	-5.375e-05	653293.8	232393.81	-0.00024278332	232393.95	653293.44	-0.00017011538
0	0.63252103	0.63252074	8.496742e-12	0.06632643	0.06632643	0	124239.78	124239.71	6.5625e-06	653373.75	232155.66	3.341055e-05	232155.77	653373.3	-5.568425e-06
0	0.6324088	0.63240844	-1.1045764e-10	0.06618507	0.06618507	0	124217.734	124217.664	-2.09375e-05	653452.94	231919.22	-7.127584e-05	231919.38	653452.5	-0.00010468638
0	0.6322956	0.63229525	-2.464055e-10	0.06604384	0.06604384	0	124195.5	124195.42	-4.625e-05	653532.25	231681.44	-0.0001336422	231681.55	653532	-0.00020714541
0	0.6321819	0.6321815	-2.2091529e-10	0.065902434	0.065902434	0	124173.17	124173.11	-3.875e-05	653611.8	231442.64	-0.00016928012	231442.78	653611.44	-0.00013419904
0	0.632068	0.6320677	-3.5686315e-10	0.06576085	0.06576085	0	124150.78	124150.71	-7.125e-05	653691.06	231203.95	-0.00019600855	231204.08	653690.8	-0.0003318781
0	0.6319533	0.631953	-3.1437944e-10	0.065619476	0.06561948	0	124128.29	124128.2	-5.75e-05	653770.94	230963.67	-0.000222737	230963.83	653770.56	-0.00024055595
0	0.63183993	0.63183963	-3.058827e-10	0.06547824	0.06547824	0	124106.01	124105.93	-6.46875e-05	653850.2	230725.47	-0.00021382752	230725.62	653849.94	-0.000233317
0	0.6317247	0.6317244	-4.248371e-11	0.06533652	0.065336525	0	124083.375	124083.305	-7.5e-06	653930	230484.5	-3.563792e-05	230484.61	653929.6	-4.232003e-05
0	0.6316103	0.63161	-1.4444461e-10	0.06519514	0.06519514	0	124060.9	124060.805	-3.625e-05	654009.9	230244.31	-0.00010691376	230244.47	654009.44	-0.00013809693
0	0.63149536	0.631495	-2.803925e-10	0.065053925	0.065053925	0	124038.32	124038.25	-5.5e-05	654089.75	230003.61	-0.00016037063	230003.75	654089.4	-0.0002583749
0	0.63138026	0.63137996	-7.647068e-11	0.06491251	0.06491251	0	124015.71	124015.63	-2e-05	654169.4	229762.84	-8.90948e-06	229763	654169	-8.90948e-05
0	0.63126475	0.6312643	-1.01960905e-10	0.06477093	0.06477093	0	123993.01	123992.945	-2.5e-05	654249.25	229521.17	-4.009266e-05	229521.33	654248.94	-0.00012918745
0	0.6311487	0.6311483	-2.464055e-10	0.06462956	0.06462956	0	123970.234	123970.15	-4.84375e-05	654328.9	229279.22	-0.00018709907	229279.36	654328.44	-0.00018264433
0	0.6310333	0.63103294	-5.0980452e-11	0.06448818	0.06448818	0	123947.57	123947.49	-1.875e-05	654408.56	229037.97	-8.90948e-05	229038.11	654408.2	-2.672844e-05
0	0.6309169	0.63091654	-1.5294135e-10	0.0643466	0.0643466	0	123924.72	123924.625	-3.5625e-05	654488.56	228794.95	-0.00011805061	228795.12	654488.25	-0.00011359587
0	0.6308005	0.63080007	-1.01960905e-10	0.06420524	0.06420522	0	123901.83	123901.75	-2.59375e-05	654568.6	228551.9	-8.018532e-05	228552.06	654568.25	-0.000111925336
0	0.63068414	0.6306836	8.496742e-12	0.064063966	0.064063966	0	123878.96	123878.89	-7.5e-06	654648.25	228309.22	-4.45474e-05	228309.36	654647.9	-2.6450018e-05
0	0.63056684	0.6305664	-1.6993484e-10	0.063922584	0.063922584	0	123855.93	123855.85	-3.25e-05	654728.4	228064.92	-0.00011582323	228065.1	654728	-0.00011582323
0	0.63044983	0.6304494	-1.4444461e-10	0.06378101	0.06378101	0	123832.94	123832.86	-2.96875e-05	654808.4	227821.11	-9.8004275e-05	227821.3	654808	-0.00015424537
0	0.6303325	0.63033223	-1.01960905e-10	0.06363963	0.06363963	0	123809.92	123809.85	-2e-05	654888.06	227577.38	-3.563792e-05	227577.56	654887.6	-0.000117772186
0	0.63021487	0.6302146	-1.5294135e-10	0.06349825	0.06349824	0	123786.82	123786.75	-3.875e-05	654968.06	227332.75	-8.90948e-05	227332.89	654967.6	-0.00015814326
0	0.6300966	0.6300963	-2.5490227e-10	0.06335668	0.06335668	0	123763.58	123763.516	-5.53125e-05	655048.4	227086.78	-0.00019600855	227086.97	655048	-0.00019934961
0	0.6299787	0.6299785	-1.3594788e-10	0.06321527	0.06321527	0	123740.44	123740.35	-2.5e-05	655128.56	226841.58	-7.127584e-05	226841.75	655128.2	-0.00016482537
0	0.6298608	0.6298604	-1.3594788e-10	0.06307404	0.063074045	0	123717.266	123717.18	-3e-05	655208.3	226596.64	-0.00010468638	226596.78	655208	-0.00012696009
0	0.6297419	0.6297415	-2.7189576e-10	0.062932655	0.062932655	0	123693.914	123693.81	-5.71875e-05	655288.3	226350.11	-0.000222737	226350.25	655287.94	-0.00020491803
0	0.62962234	0.629622	-3.398697e-11	0.062790945	0.062790945	0	123670.42	123670.35	-1.125e-05	655369.06	226102.12	0	226102.28	655368.6	-4.9002138e-05
0	0.6295039	0.6295035	-2.5490227e-10	0.062649705	0.062649705	0	123647.164	123647.08	-5e-05	655449.25	225856.05	-0.00019823592	225856.19	655448.9	-0.00015146115
0	0.6293853	0.6293849	-1.8692832e-10	0.06250833	0.06250833	0	123623.84	123623.77	-3.625e-05	655529.06	225610.12	-8.90948e-05	225610.3	655528.6	-0.00018403644
0	0.6292647	0.6292643	-1.4444461e-10	0.06236674	0.06236674	0	123600.18	123600.09	-2.625e-05	655609.56	225360.88	-8.018532e-05	225361.02	655609.2	-0.00011359587
0	0.6291455	0.62914515	-9.346416e-11	0.062225346	0.062225346	0	123576.75	123576.69	-2e-05	655689.75	225113.73	-8.6867425e-05	225113.92	655689.3	-4.6774767e-05
0	0.6290254	0.629025	-2.464055e-10	0.06208412	0.06208412	0	123553.164	123553.086	-4.8125e-05	655770.06	224865.36	-0.00024055595	224865.55	655769.7	-0.000120277975
0	0.628905	0.6289045	-2.2091529e-10	0.061942417	0.061942413	0	123529.52	123529.44	-4.75e-05	655850.56	224616.28	-0.00016037063	224616.44	655850.1	-0.00020937277
0	0.6287847	0.6287843	-1.6993484e-10	0.06180102	0.06180102	0	123505.89	123505.805	-3.125e-05	655930.75	224367.67	-8.2412684e-05	224367.86	655930.4	-0.00011582323
0	0.62866366	0.62866324	-9.346416e-11	0.06165979	0.06165979	0	123482.11	123482.03	-2.1875e-05	656011.1	224117.77	-2.8955808e-05	224117.97	656010.75	-0.0001074706
0	0.6285421	0.6285417	-1.9542507e-10	0.061518367	0.061518367	0	123458.25	123458.164	-3.5e-05	656091.7	223867.12	-0.00015146115	223867.3	656091.25	-0.00010245902
0	0.62842137	0.62842095	-3.1437944e-10	0.061376818	0.061376818	0	123434.54	123434.45	-6e-05	656172.2	223617.6	-0.00020491803	223617.77	656171.75	-0.00020937277
0	0.6282996	0.6282992	-2.2091529e-10	0.061235435	0.061235435	0	123410.61	123410.53	-4.6875e-05	656252.94	223366.38	-0.00014255168	223366.56	656252.5	-0.00016259801
0	0.62817794	0.6281775	-2.2091529e-10	0.061094042	0.061094042	0	123386.72	123386.64	-4.46875e-05	656333	223115.98	-0.0001336422	223116.17	656332.6	-0.00019600855
0	0.6280557	0.6280553	-1.01960905e-10	0.060952503	0.06095251	0	123362.695	123362.61	-1.875e-05	656413.7	222864	-2.004633e-05	222864.19	656413.3	-0.00012918745
0	0.6279338	0.6279334	-4.248371e-11	0.060811102	0.060811102	0	123338.766	123338.68	-1.34375e-05	656494.06	222613.11	-2.672844e-05	222613.3	656493.6	-2.6171596e-05
0	0.62781066	0.62781024	-1.1045764e-10	0.06066984	0.06066984	0	123314.56	123314.484	-2.25e-05	656575.06	222359.67	-5.345688e-05	222359.89	656574.6	-8.90948e-05
0	0.6276883	0.6276879	-2.0392181e-10	0.060528446	0.060528446	0	123290.52	123290.47	-3.53125e-05	656655.44	222108.03	-7.5730575e-05	222108.2	656655.06	-0.0002004633
0	0.6275654	0.6275649	-3.7385664e-10	0.060386896	0.060386896	0	123266.375	123266.3	-7.71875e-05	656735.8	221855.44	-0.00037419813	221855.64	656735.4	-0.00019433802
0	0.62744176	0.6274413	-2.7189576e-10	0.060245506	0.060245506	0	123242.086	123242.01	-5.125e-05	656816.8	221601.3	-0.00021382752	221601.48	656816.44	-0.00020658856
0	0.62731844	0.6273179	-1.6993484e-10	0.060104124	0.060104124	0	123217.86	123217.79	-3.375e-05	656897.44	221348.02	-0.0001559159	221348.2	656897.1	-7.795795e-05
0	0.6271945	0.62719417	-2.5490227e-10	0.05996258	0.059962578	0	123193.55	123193.48	-4.5e-05	656978.2	221094.05	-0.00016037063	221094.23	656977.8	-0.00020241224
0	0.6270705	0.62707007	-9.346416e-11	0.059821147	0.059821147	0	123169.18	123169.086	-1.75e-05	657058.9	220839.5	-4.45474e-05	220839.7	657058.44	-0.00011582323
0	0.6269458	0.6269454	-1.3594788e-10	0.05967991	0.059679918	0	123144.68	123144.6	-2e-05	657139.94	220584.02	-0.00011582323	220584.22	657139.5	-7.127584e-05
0	0.62682074	0.6268203	-3.058827e-10	0.05953851	0.05953851	0	123120.125	123120.04	-6.09375e-05	657220.44	220328.36	-0.00019823592	220328.56	657220.06	-0.0002018554
0	0.6266962	0.6266958	-7.647068e-11	0.059396826	0.059396826	0	123095.67	123095.586	-1.90625e-05	657301.44	220073.08	-4.45474e-05	220073.3	657301.06	-0.00010245902
0	0.6265717	0.6265713	-1.3594788e-10	0.059255596	0.059255596	0	123071.22	123071.13	-2.375e-05	657381.94	219818.22	-3.7865288e-05	219818.45	657381.5	-0.00013586956
0	0.62644583	0.6264454	-1.1045764e-10	0.059114188	0.059114188	0	123046.484	123046.4	-2.1875e-05	657463.25	219560.75	-3.563792e-05	219560.97	657462.75	-0.00015313168
0	0.6263205	0.62632006	-3.228762e-10	0.058972627	0.05897263	0	123021.88	123021.78	-6.25e-05	657543.9	219304.58	-0.0002583749	219304.8	657543.44	-0.00020937277
0	0.6261947	0.6261943	-2.5490227e-10	0.058831234	0.058831234	0	122997.18	122997.086	-5e-05	657624.75	219047.72	-0.00018487171	219047.92	657624.3	-0.00018709907
0	0.6260682	0.62606776	-1.3594788e-10	0.05868999	0.05868999	0	122972.305	122972.22	-2.40625e-05	657706	218789.22	-8.018532e-05	218789.44	657705.56	-0.00011944271
0	0.6259418	0.62594134	-3.228762e-10	0.0585483	0.0585483	0	122947.484	122947.4	-6.75e-05	657787	218531.28	-0.0002672844	218531.48	657786.56	-0.000222737
0	0.6258139	0.6258134	-3.058827e-10	0.058406904	0.058406904	0	122922.375	122922.28	-5.5e-05	657868.2	218271.06	-0.00023610122	218271.25	657867.8	-0.00020714541
0	0.6256882	0.6256878	-1.614381e-10	0.058265664	0.058265664	0	122897.67	122897.59	-3.75e-05	657948.9	218014.34	-8.2412684e-05	218014.56	657948.44	-0.00016760959
0	0.62556076	0.6255602	-2.2091529e-10	0.05812423	0.05812423	0	122872.625	122872.55	-4.375e-05	658030.06	217754.66	-0.00016928012	217754.89	658029.7	-0.00017373485
0	0.62543297	0.62543243	-1.8692832e-10	0.057982713	0.057982713	0	122847.53	122847.46	-3.375e-05	658111.1	217494.77	-0.00012473272	217494.97	658110.7	-0.00017596222
0	0.6253056	0.62530506	-1.1045764e-10	0.057841305	0.057841305	0	122822.516	122822.42	-1.8125e-05	658192.3	217235.22	-2.672844e-05	217235.44	658191.9	-8.4083214e-05
0	0.6251776	0.6251772	-2.9738598e-10	0.057699904	0.057699904	0	122797.38	122797.29	-5.375e-05	658273.25	216975.3	-0.00019600855	216975.52	658272.75	-0.00021605488
0	0.6250491	0.6250487	-1.3594788e-10	0.057558395	0.057558388	0	122772.164	122772.05	-3.25e-05	658354.5	216714.16	-8.464006e-05	216714.38	658354.06	-0.00013586956
0	0.62492085	0.62492037	-1.1045764e-10	0.057416987	0.057416987	0	122746.95	122746.86	-2.6875e-05	658435.56	216453.42	-8.90948e-05	216453.64	658435.06	-9.076532e-05
0	0.6247919	0.62479144	-1.6993485e-11	0.0572757	0.05727571	0	122721.62	122721.55	-6.875e-06	658516.9	216191.61	2.672844e-05	216191.83	658516.4	-6.68211e-05
0	0.624663	0.6246624	-1.1045764e-10	0.0571343	0.0571343	0	122696.3	122696.195	-2.125e-05	658598.06	215929.89	-9.577691e-05	215930.11	658597.6	-0.00010245902
0	0.62453324	0.62453276	-2.2941203e-10	0.05699279	0.05699279	0	122670.805	122670.72	-3.75e-05	658679	215667.2	-0.00012473272	215667.42	658678.6	-0.00016259801
0	0.62440425	0.6244037	-2.2941203e-10	0.056851387	0.056851387	0	122645.48	122645.39	-4.4375e-05	658760.1	215405.5	-0.00016928012	215405.72	658759.8	-0.00018709907
0	0.6242737	0.62427324	-1.3594788e-10	0.056709986	0.05670998	0	122619.84	122619.76	-3e-05	658841.75	215141.28	-0.00014477904	215141.5	658841.3	-5.122951e-05
0	0.6241433	0.6241428	-1.6993484e-10	0.056568477	0.05656847	0	122594.22	122594.13	-3.5e-05	658923.2	214877.11	-0.00016928012	214877.34	658922.8	-0.000114987975
0	0.62401354	0.624013	-1.6993484e-10	0.05642703	0.05642703	0	122568.74	122568.66	-3.0625e-05	659004.2	214614.45	-6.236636e-05	214614.67	659003.9	-0.00017596222
0	0.6238828	0.6238823	-2.1241855e-10	0.056285787	0.056285787	0	122543.055	122542.96	-4.5e-05	659085.56	214350.02	-9.8004275e-05	214350.28	659085.25	-0.00021605488
0	0.6237514	0.6237509	-3.058827e-10	0.056144364	0.056144364	0	122517.234	122517.16	-5.875e-05	659167.3	214084.47	-0.00016037063	214084.72	659166.8	-0.00028371124
0	0.6236203	0.6236198	-2.2091529e-10	0.056002706	0.056002706	0	122491.49	122491.4	-4.5e-05	659248.56	213819.52	-0.00012473272	213819.73	659248.1	-0.00019712224
0	0.6234878	0.6234873	-3.228762e-10	0.05586147	0.055861466	0	122465.45	122465.36	-6e-05	659330.2	213552.4	-0.0001781896	213552.64	659329.75	-0.00026951177
0	0.62335706	0.6233565	-1.4444461e-10	0.055720054	0.05572005	0	122439.805	122439.7	-3.53125e-05	659411.4	213288.31	-0.00010023165	213288.53	659410.9	-0.000120277975
0	0.62322444	0.623224	-1.1895439e-10	0.05557856	0.05557856	0	122413.75	122413.664	-2.34375e-05	659493.1	213020.92	-0.00014255168	213021.19	659492.6	-2.004633e-05
0	0.62309223	0.6230917	-1.614381e-10	0.055437103	0.055437103	0	122387.77	122387.68	-3.5e-05	659574.44	212754.36	-0.00011582323	212754.61	659574.06	-0.0001336422
0	0.6229595	0.622959	-2.63399e-10	0.05529586	0.05529586	0	122361.71	122361.62	-5.0625e-05	659655.8	212487.27	-0.00013809693	212487.5	659655.5	-0.00021939594
0	0.6228265	0.6228261	-2.2091529e-10	0.055154454	0.055154454	0	122335.58	122335.484	-4.75e-05	659737.56	212219.33	-0.00016037063	212219.56	659737.1	-0.00019378119
0	0.6226933	0.62269276	-3.398697e-11	0.055012785	0.055012785	0	122309.43	122309.33	-1.625e-05	659819.1	211951.25	-2.4501069e-05	211951.5	659818.6	-6.236636e-05
0	0.6225601	0.6225595	-1.5294135e-10	0.054871544	0.054871544	0	122283.24	122283.14	-3.125e-05	659900.56	211683.2	-8.018532e-05	211683.44	659900.1	-0.00014088115
0	0.62242424	0.62242377	-4.248371e-11	0.05473013	0.054730132	0	122256.58	122256.45	-2.5e-06	659983.56	211410.11	0	211410.36	659983.1	-5.7911617e-05
0	0.6222919	0.62229145	-8.496742e-11	0.054588605	0.054588605	0	122230.586	122230.484	-1.375e-05	660064	211144.55	-6.236636e-05	211144.8	660063.56	-5.4570562e-05
0	0.62215626	0.6221558	-1.7843158e-10	0.05444719	0.05444719	0	122203.94	122203.84	-4.4375e-05	660145.6	210872.89	-0.00015146115	210873.17	660145.2	-0.00017373485
0	0.62202305	0.6220225	-1.6993484e-10	0.05430595	0.05430595	0	122177.77	122177.67	-3.5e-05	660227	210604.95	-0.00011582323	210605.23	660226.56	-0.00012473272
0	0.62188655	0.6218861	-2.5490227e-10	0.054164287	0.054164287	0	122150.96	122150.87	-5.125e-05	660309.94	210331	-0.00019155382	210331.3	660309.5	-0.00015146115
0	0.6217528	0.6217522	-5.0980452e-11	0.05402286	0.05402286	0	122124.68	122124.58	-8.4375e-06	660390.56	210063	-6.236636e-05	210063.23	660390.06	5.0115823e-06
0	0.6216163	0.62161577	-1.5294135e-10	0.053881623	0.053881623	0	122097.86	122097.76	-3.21875e-05	660472.6	209789.9	-9.8004275e-05	209790.14	660472.2	-0.00013809693
0	0.62147963	0.6214791	-1.5294135e-10	0.053740162	0.053740162	0	122071.016	122070.914	-3.125e-05	660554.56	209516.55	-0.00012473272	209516.78	660554.25	-0.0001336422
0	0.6213451	0.62134445	-1.1045764e-10	0.053598687	0.053598683	0	122044.59	122044.48	-1.96875e-05	660636.2	209246.53	-8.90948e-05	209246.81	660635.75	-5.0672665e-05
0	0.6212087	0.6212082	-1.8692832e-10	0.053457264	0.053457264	0	122017.81	122017.72	-3.75e-05	660717.9	208974.05	-0.0001336422	208974.31	660717.44	-0.00012473272
0	0.62107134	0.6210708	-2.63399e-10	0.05331584	0.05331584	0	121990.84	121990.73	-5.25e-05	660799.7	208699.9	-0.00010468638	208700.16	660799.2	-0.00024723806
0	0.62093496	0.6209345	-1.1045764e-10	0.053174376	0.053174376	0	121964.055	121963.93	-2.375e-05	660881.6	208427.11	-8.90948e-05	208427.4	660881.1	-0.000110533234
0	0.6207978	0.6207972	-1.9542507e-10	0.053032946	0.053032946	0	121937.1	121936.984	-3.5e-05	660963.3	208153.23	-0.00010691376	208153.48	660962.9	-0.00016983696
0	0.62065965	0.6206591	-2.2091529e-10	0.05289166	0.05289166	0	121909.96	121909.86	-4.125e-05	661045.1	207878.02	-0.00011805061	207878.28	661044.7	-0.00014477904
0	0.6205213	0.62052083	-2.0392181e-10	0.052750226	0.052750226	0	121882.805	121882.695	-4e-05	661127.25	207602.31	-0.00011582323	207602.61	661126.8	-0.00021215699
0	0.6203844	0.62038386	-1.4444461e-10	0.05260877	0.052608766	0	121855.92	121855.805	-3.125e-05	661208.75	207329.12	-0.00010691376	207329.42	661208.3	-0.00010023165
0	0.6202458	0.6202453	-2.1241855e-10	0.052467342	0.052467342	0	121828.67	121828.586	-4e-05	661290.8	207053.08	-0.00011805061	207053.39	661290.3	-0.00016705274
0	0.6201073	0.62010676	-2.2941203e-10	0.052325908	0.052325904	0	121801.47	121801.38	-4.59375e-05	661372.7	206777.23	-0.0001336422	206777.53	661372.2	-0.00018821275
0	0.6199673	0.6199667	-2.9738598e-10	0.05218445	0.05218445	0	121773.96	121773.85	-5.5e-05	661454.9	206498.89	-0.00024055595	206499.16	661454.44	-0.00017986012
0	0.6198286	0.6198279	-2.3790878e-10	0.052042987	0.052042987	0	121746.72	121746.61	-4.6875e-05	661536.94	206222.69	-0.00019600855	206223.02	661536.4	-0.00016928012
0	0.6196892	0.61968875	-1.1895439e-10	0.051901728	0.051901728	0	121719.37	121719.266	-2e-05	661618.7	205946.12	-4.45474e-05	205946.44	661618.25	-0.00010691376
0	0.6195485	0.61954796	-2.63399e-10	0.051760294	0.051760297	0	121691.71	121691.61	-4.625e-05	661700.75	205666.83	-0.0001781896	205667.14	661700.3	-0.00019990646
0	0.619409	0.6194083	-2.5490227e-10	0.051618673	0.051618665	0	121664.3	121664.2	-4.96875e-05	661782.94	205389.23	-0.00016259801	205389.53	661782.44	-0.000222737
0	0.6192687	0.6192681	-2.5490226e-11	0.05147742	0.05147743	0	121636.75	121636.64	-5.9375e-06	661864.75	205111.11	1.781896e-05	205111.38	661864.3	-4.037108e-05
0	0.61912745	0.6191269	-2.0392181e-10	0.051335983	0.051335983	0	121609.01	121608.9	-3.5e-05	661947.2	204830.98	-0.00010691376	204831.31	661946.56	-0.00014255168
0	0.6189866	0.618986	-1.614381e-10	0.051194493	0.051194496	0	121581.34	121581.24	-4.125e-05	662029.06	204551.84	-0.00016705274	204552.17	662028.6	-0.00013141482
0	0.6188448	0.6188443	-1.6993485e-11	0.051053066	0.051053066	0	121553.49	121553.39	-5.9375e-06	662111.1	204271.28	-5.345688e-05	204271.58	662110.56	2.22737e-06
0	0.61870354	0.618703	-7.647068e-11	0.05091181	0.05091181	0	121525.76	121525.66	-1.75e-05	662193.2	203991.61	-6.236636e-05	203991.89	662192.6	-2.8955808e-05
0	0.6185611	0.6185605	-1.7843158e-10	0.050770186	0.050770186	0	121497.766	121497.664	-3.25e-05	662275.75	203709.48	-0.00011359587	203709.78	662275.2	-0.00018487171
0	0.6184192	0.61841863	-4.248371e-11	0.050628755	0.050628755	0	121469.9	121469.79	-1.34375e-05	662357.44	203429.1	-3.563792e-05	203429.4	662356.94	-4.1763185e-05
0	0.6182766	0.618276	-2.464055e-10	0.050487496	0.050487496	0	121441.875	121441.78	-5.1875e-05	662439.56	203147.33	-0.0001781896	203147.62	662439.1	-0.00014255168
0	0.6181329	0.6181324	-1.2745113e-10	0.050346017	0.050346017	0	121413.67	121413.55	-2.75e-05	662522	202863.7	-0.0001559159	202864.03	662521.56	-5.568425e-05
0	0.6179901	0.6179895	-1.1045764e-10	0.05020459	0.05020459	0	121385.62	121385.49	-2.15625e-05	662604.2	202581.52	1.781896e-05	202581.88	662603.75	-0.00015647274
0	0.61784434	0.61784375	-1.614381e-10	0.05006314	0.050063144	0	121356.984	121356.875	-3.3125e-05	662687.1	202294.72	-6.236636e-05	202295.03	662686.5	-0.00012890903
0	0.61770236	0.61770177	-2.1241855e-10	0.049921695	0.049921695	0	121329.11	121328.98	-4.875e-05	662768.9	202014.14	-0.00020937277	202014.45	662768.44	-0.00011582323
0	0.6175579	0.6175573	-1.6993485e-11	0.049780272	0.04978028	0	121300.7	121300.6	-8.75e-06	662851.06	201729.67	-1.781896e-05	201730	662850.6	-4.3712134e-05
0	0.6174137	0.6174131	-2.7189576e-10	0.049638826	0.049638826	0	121272.4	121272.28	-5.1875e-05	662933.4	201445.45	-0.00020491803	201445.78	662932.94	-0.0002294191
0	0.61726755	0.6172671	-3.228762e-10	0.04949753	0.04949753	0	121243.695	121243.586	-6.5e-05	663016.06	201158.25	-0.00026951177	201158.58	663015.56	-0.00019823592
0	0.6171239	0.6171233	-2.3790878e-10	0.049356084	0.049356084	0	121215.48	121215.35	-3.5e-05	663097.9	200875.31	-0.0001781896	200875.64	663097.4	-0.00012751693
0	0.6169783	0.6169777	-2.7189576e-10	0.049214657	0.049214657	0	121186.875	121186.76	-6e-05	663180.2	200589.03	-0.0001781896	200589.38	663179.7	-0.00023164647
0	0.61683017	0.6168295	-2.1241855e-10	0.049073208	0.049073208	0	121157.766	121157.66	-4.40625e-05	663264.2	200297.58	-0.00017596222	200297.92	663263.7	-0.00017624065
0	0.6166869	0.6166863	-1.7843158e-10	0.048931766	0.048931774	0	121129.65	121129.52	-3.3125e-05	663344.7	200016.6	-0.0001113685	200016.94	663344.2	-0.00016816643
0	0.6165399	0.61653924	-2.2941203e-10	0.04879036	0.04879036	0	121100.76	121100.63	-4.625e-05	663427.5	199728	-0.00021382752	199728.33	663427.06	-0.0001297443
0	0.6163932	0.6163927	-1.5294135e-10	0.048648857	0.048648857	0	121071.96	121071.85	-3.625e-05	663509.8	199440.39	-0.00019155382	199440.75	663509.4	-6.236636e-05
0	0.6162452	0.61624455	-2.1241855e-10	0.04850761	0.04850761	0	121042.875	121042.75	-4.75e-05	663592.44	199150.52	-0.0001781896	199150.84	663591.9	-0.00013754009
0	0.6160989	0.6160982	-2.9738598e-10	0.048366148	0.048366144	0	121014.14	121014.016	-5.875e-05	663674.5	198863.61	-0.00026060228	198863.95	663673.9	-0.00019378119
0	0.6159512	0.6159505	-1.614381e-10	0.04822455	0.04822455	0	120985.14	120985.02	-3e-05	663757.06	198574.22	-7.795795e-05	198574.55	663756.5	-0.0001559159
0	0.6158036	0.615803	-1.5294135e-10	0.048083294	0.048083294	0	120956.14	120956.016	-2.78125e-05	663839.1	198285.5	-8.90948e-05	198285.84	663838.6	-0.00013252851
0	0.61565506	0.6156545	-8.496742e-12	0.04794183	0.04794183	0	120926.98	120926.85	-8.125e-06	663921.8	197994.97	-8.90948e-06	197995.33	663921.3	-1.113685e-05
0	0.6155061	0.6155054	-2.2941203e-10	0.0478004	0.047800392	0	120897.7	120897.58	-4.75e-05	664004.5	197703.64	-0.0001336422	197703.97	664004	-0.00017150749
0	0.6153571	0.61535645	-2.8888922e-10	0.047658946	0.047658946	0	120868.45	120868.32	-6.21875e-05	664087.1	197412.47	-0.00016928012	197412.84	664086.6	-0.00024863018
0	0.61520773	0.61520714	-5.9477194e-11	0.047517676	0.047517676	0	120839.12	120838.98	-5.625e-06	664169.6	197120.84	0	197121.19	664169.2	-4.232003e-05
0	0.6150584	0.6150579	-1.1895439e-10	0.047376227	0.04737623	0	120809.78	120809.66	-2.375e-05	664251.94	196829.48	-9.132217e-05	196829.81	664251.44	-7.5730575e-05
0	0.6149082	0.61490756	-1.5294135e-10	0.047234632	0.047234632	0	120780.28	120780.15	-2.8125e-05	664334.7	196536.4	-7.127584e-05	196536.77	664334.2	-0.00016092748
0	0.61475796	0.6147573	-6.797394e-11	0.047093365	0.047093365	0	120750.76	120750.63	-2.03125e-05	664417.2	196243.55	-8.90948e-06	196243.92	664416.7	-0.00010997639
0	0.6146073	0.6146067	-2.464055e-10	0.046951856	0.046951856	0	120721.17	120721.05	-4.75e-05	664499.75	195950.08	-0.00014255168	195950.47	664499.2	-0.00018487171
0	0.6144562	0.61445564	-1.01960905e-10	0.046810478	0.046810478	0	120691.484	120691.37	-2.25e-05	664582.25	195656.17	-6.236636e-05	195656.55	664581.7	-0.0001074706
0	0.6143052	0.6143046	-1.4444461e-10	0.046669014	0.046669014	0	120661.84	120661.695	-3.375e-05	664664.75	195362.17	-0.00012473272	195362.55	664664.3	-8.2412684e-05
0	0.61415327	0.61415255	-1.614381e-10	0.046527762	0.046527762	0	120631.99	120631.85	-3.875e-05	664747.25	195066.98	-0.00010023165	195067.34	664746.7	-0.00013809693
0	0.6140015	0.6140009	-2.0392181e-10	0.04638618	0.04638618	0	120602.19	120602.05	-3.65625e-05	664830	194771.67	-0.00018709907	194772.05	664829.56	-0.00014032431
0	0.6138493	0.6138486	-1.9542507e-10	0.046244707	0.04624471	0	120572.28	120572.15	-3.625e-05	664912.75	194475.92	-9.8004275e-05	194476.3	664912.2	-0.00016816643
0	0.613697	0.6136964	-2.464055e-10	0.046103448	0.04610345	0	120542.375	120542.24	-5.5e-05	664995.06	194180.38	-0.00017373485	194180.75	664994.5	-0.00021828225
0	0.6135437	0.6135431	-1.5294135e-10	0.045961928	0.045961928	0	120512.24	120512.125	-3.21875e-05	665078	193882.83	-0.00015146115	193883.22	665077.4	-7.350321e-05
0	0.61339045	0.6133899	-1.2745113e-10	0.04582056	0.04582056	0	120482.18	120482.04	-2.40625e-05	665160.6	193585.8	-3.563792e-05	193586.2	665160.06	-9.466322e-05
0	0.6132361	0.61323553	-1.1045764e-10	0.045679096	0.045679096	0	120451.85	120451.734	-2.25e-05	665243.1	193287.11	-8.018532e-05	193287.5	665242.56	-9.132217e-05
0	0.6130829	0.61308223	-1.7843158e-10	0.04553762	0.04553762	0	120421.734	120421.61	-3.5625e-05	665326	192989.64	-0.00014255168	192990.05	665325.44	-9.633375e-05
0	0.6129279	0.6129273	-1.2745113e-10	0.04539626	0.045396265	0	120391.31	120391.18	-3e-05	665408.5	192690.28	-9.8004275e-05	192690.69	665407.9	-0.0001113685
0	0.61277455	0.61277384	-2.63399e-10	0.045254786	0.045254786	0	120361.164	120361.03	-5.25e-05	665490.9	192393	-0.00021828225	192393.39	665490.3	-0.00018264433
0	0.6126193	0.6126187	-2.0392181e-10	0.045113478	0.04511347	0	120330.7	120330.555	-4.59375e-05	665573.6	192093.05	-0.00010691376	192093.42	665573.1	-0.00019934961
0	0.6124629	0.6124623	-5.9477194e-11	0.04497199	0.044972	0	120299.984	120299.83	-1.15625e-05	665657.44	191790.2	-8.018532e-05	191790.61	665656.94	-2.672844e-05
0	0.612308	0.6123073	-8.496742e-11	0.04483065	0.04483065	0	120269.55	120269.41	-1.875e-05	665739.4	191491.45	-1.8932644e-05	191491.83	665738.9	-0.00013586956
0	0.6121523	0.61215156	-2.2941203e-10	0.044689175	0.044689175	0	120238.94	120238.8	-4.1875e-05	665822	191190.66	-0.00019600855	191191.05	665821.5	-0.0001074706