# t (s)	mx ()	my ()	mz ()	B_extx (T)	B_exty (T)	B_extz (T)	m_fullx (A/m)	m_fully (A/m)	m_fullz (A/m)	m_full.region1x (A/m)	m_full.region1y (A/m)	m_full.region1z (A/m)	m_full.region2x (A/m)	m_full.region2y (A/m)	m_full.region2z (A/m)
0	0.65342903	0.65480745	-1.6735502e-10	0.070710905	0.070710905	0	63277.65	63411.137	-2.0144627e-05	635927.06	280015.8	-2.9884199e-05	279046.84	636541.56	-0.00025376922
0	0.6533299	0.65471023	-3.5251374e-10	0.070569135	0.070569135	0	63268.047	63401.727	-3.4607438e-05	636025.94	279779.94	-0.00030631304	278809.25	636641.25	-0.00021271831
0	0.6532258	0.65461034	-3.8456047e-10	0.07042786	0.07042785	0	63257.96	63392.03	-3.693182e-05	636130.44	279533.3	-0.00023160253	278559.06	636747.6	-0.00033027318
0	0.65311915	0.65450835	-3.9168194e-10	0.070286535	0.070286535	0	63247.64	63382.164	-3.92562e-05	636237.44	279281.4	-0.00031378408	278303.1	636856.56	-0.000261233
0	0.6530153	0.6544083	-5.1986876e-10	0.07014485	0.07014485	0	63237.586	63372.484	-5.1136365e-05	636340.56	279036.5	-0.00035487485	278054.8	636961.4	-0.00042170472
0	0.6529098	0.65430725	-3.1334554e-10	0.07000352	0.07000351	0	63227.37	63362.695	-2.9442148e-05	636445.75	278787.56	-0.00014942099	277802.06	637068.7	-0.00027802656
0	0.65280265	0.6542046	-3.9880343e-10	0.069862306	0.06986231	0	63216.99	63352.76	-3.6673555e-05	636552.75	278534.72	-0.00031378408	277545.2	637177.6	-0.00027242873
0	0.6526962	0.65410244	-2.706166e-10	0.06972053	0.06972053	0	63206.688	63342.863	-2.5309917e-05	636658.3	278284.03	-0.00020918938	277290.78	637285.2	-0.00017913121
0	0.6525916	0.65400183	-2.2076618e-10	0.06957921	0.06957921	0	63196.555	63333.113	-1.96281e-05	636761.6	278037.97	-0.00014942099	277041.25	637390.2	-0.00014367816
0	0.65248305	0.653898	-3.2046706e-11	0.069437936	0.069437936	0	63186.04	63323.055	-2.5826446e-06	636869.5	277782.4	-2.2413149e-05	276781.53	637500.1	-7.4638006e-06
0	0.6523762	0.6537954	-3.5963524e-10	0.06929659	0.06929659	0	63175.69	63313.133	-3.512397e-05	636975.1	277531.22	-0.00024654463	276526.5	637607.7	-0.0002749944
0	0.65227014	0.6536936	-4.985043e-10	0.069154926	0.069154926	0	63165.42	63303.273	-4.7778925e-05	637079.25	277282.47	-0.0004034367	276274.12	637713.6	-0.00031534556
0	0.6521614	0.6535895	-5.30551e-10	0.069013596	0.069013596	0	63154.89	63293.19	-4.855372e-05	637186.75	277027	-0.00034366827	276014.53	637823.2	-0.00038811762
0	0.65205526	0.6534873	-5.3411175e-10	0.06887227	0.06887227	0	63144.613	63283.3	-4.855372e-05	637290.56	276778.3	-0.0003922301	275762.34	637928.75	-0.00035896216
0	0.6519473	0.653384	-3.8456047e-10	0.0687306	0.0687306	0	63134.16	63273.28	-3.7448346e-05	637396.56	276525.28	-0.00035861038	275505.4	638036.8	-0.00020338857
0	0.651837	0.65327847	-3.560745e-10	0.06858926	0.06858927	0	63123.484	63263.07	-3.2541324e-05	637504.94	276266.94	-0.0002540157	275242.75	638147.25	-0.00025003732
0	0.6517281	0.65317386	-3.48953e-10	0.06844801	0.06844801	0	63112.926	63252.94	-3.305785e-05	637611.44	276011.88	-0.00038102354	274983.78	638255.8	-0.0001306165
0	0.651619	0.65306944	-3.9168194e-10	0.06830669	0.068306684	0	63102.38	63242.83	-3.7964877e-05	637717.75	275757.22	-0.00036608143	274725.22	638364.06	-0.00021085236
0	0.6515113	0.6529658	-1.9228023e-10	0.068165004	0.068165004	0	63091.938	63232.793	-1.96281e-05	637822.3	275505.53	-0.00021666044	274469.84	638470.44	-6.3442305e-05
0	0.6514003	0.6528598	-3.2758854e-10	0.06802368	0.06802368	0	63081.188	63222.523	-3.2024793e-05	637930.6	275246.44	-0.00030631304	274206.4	638581	-0.00015673981
0	0.65129155	0.65275526	-2.9910258e-10	0.06788235	0.06788235	0	63070.656	63212.395	-2.660124e-05	638036	274992.7	-0.00020171834	273948.9	638688.1	-0.00021645022
0	0.65118146	0.6526498	-1.8871948e-10	0.06774067	0.06774067	0	63060.008	63202.195	-1.8078512e-05	638142.6	274736.28	-0.00021666044	273688.47	638796.8	-5.5978504e-05
0	0.6510714	0.6525443	-6.017659e-10	0.06759932	0.06759932	0	63049.35	63191.973	-5.733471e-05	638249	274479.97	-0.00045573403	273428.22	638905.06	-0.00039931334
0	0.65095973	0.652437	-1.0682235e-10	0.06745811	0.06745811	0	63038.52	63181.57	-1.0588843e-05	638356.7	274219.88	-0.00010459469	273164.12	639014.75	-5.2246603e-05
0	0.6508494	0.6523314	-2.9198108e-10	0.06731677	0.06731677	0	63027.84	63171.367	-2.892562e-05	638463.4	273963.28	-0.00015689204	272903.25	639123.56	-0.00028362442
0	0.6507373	0.6522238	-2.7417735e-10	0.06717497	0.06717497	0	63016.977	63160.945	-2.7117769e-05	638571	273702.78	-0.00011580127	272638.78	639233.25	-0.00028362442
0	0.6506261	0.6521174	-1.9228023e-10	0.06703377	0.06703377	0	63006.215	63150.625	-1.911157e-05	638677.94	273444.53	-0.00019424729	272376.34	639342.25	-6.904016e-05
0	0.65051204	0.6520083	-4.913828e-10	0.06689243	0.06689243	0	62995.164	63140.062	-4.5454544e-05	638787.6	273179.75	-0.00038849458	272107.2	639454.06	-0.00030601583
0	0.65039957	0.6519006	-3.6319597e-10	0.06675072	0.06675072	0	62984.273	63129.637	-3.512397e-05	638895.25	272918.97	-0.00026148674	271842.2	639563.8	-0.00025866734
0	0.6502868	0.6517926	-3.7031747e-10	0.06660939	0.0666094	0	62973.355	63119.18	-3.48657e-05	639003	272657.9	-0.00031378408	271576.94	639673.56	-0.00019965667
0	0.6501739	0.6516843	-3.3471004e-10	0.06646818	0.06646819	0	62962.42	63108.695	-3.305785e-05	639110.6	272396.5	-0.00026148674	271311.3	639783.3	-0.00020898641
0	0.6500623	0.6515771	-6.338126e-10	0.06632639	0.06632639	0	62951.613	63098.32	-6.0433886e-05	639216.5	272138.5	-0.00058274186	271049.4	639891.06	-0.00033960294
0	0.64994717	0.65146714	-2.9910258e-10	0.06618506	0.06618506	0	62940.465	63087.668	-2.8409091e-05	639326.4	271872.06	-0.0002838999	270778.38	640003.25	-0.00011755486
0	0.6498349	0.65135926	-2.848596e-10	0.06604385	0.06604385	0	62929.59	63077.215	-2.5309917e-05	639432.44	271613	-0.00013447889	270515.47	640111.1	-0.00025750112
0	0.6497189	0.6512486	-3.097848e-10	0.06590248	0.06590248	0	62918.36	63066.492	-2.9958677e-05	639542.7	271345.22	-0.00026895778	270242.94	640223.8	-0.00017539931
0	0.649606	0.6511401	-2.3500918e-10	0.06576081	0.06576081	0	62907.426	63055.98	-2.2210745e-05	639649	271084.97	-0.00018677625	269978.8	640331.94	-0.00017353336
0	0.64948934	0.6510287	-4.7001836e-10	0.06561947	0.065619476	0	62896.13	63045.203	-4.3904958e-05	639759.4	270816.12	-0.00034366827	269705.3	640444.6	-0.0003321391
0	0.6493758	0.6509197	-2.9910258e-10	0.06547826	0.065478265	0	62885.137	63034.64	-3.0991734e-05	639865.9	270554.72	-0.00030631304	269439.9	640553.06	-0.00014554411
0	0.64926016	0.650809	-3.7743897e-10	0.06533646	0.06533646	0	62873.934	63023.92	-3.512397e-05	639974.9	270288.6	-0.00033619723	269169.3	640664.2	-0.00020152262
0	0.6491425	0.6506967	-3.2046704e-10	0.065195136	0.065195136	0	62862.543	63013.05	-3.0475207e-05	640085.44	270018.28	-0.00023160253	268894.3	640777.06	-0.00024630543
0	0.6490262	0.6505852	-3.8456047e-10	0.06505392	0.06505393	0	62851.285	63002.258	-3.5640496e-05	640194.3	269751.1	-0.00029137093	268622.72	640888.06	-0.000261233
0	0.6489115	0.650475	-3.48953e-10	0.064912565	0.064912565	0	62840.17	62991.58	-3.357438e-05	640301.3	269487.66	-0.00033619723	268355.22	640997.06	-0.00017166742
0	0.6487948	0.65036345	-3.5251374e-10	0.064770885	0.064770885	0	62828.867	62980.777	-3.409091e-05	640410.3	269220.03	-0.00019424729	268083.03	641108.3	-0.0002948201
0	0.6486756	0.65024954	-5.412332e-10	0.06462956	0.06462956	0	62817.332	62969.75	-5.4235537e-05	640521.5	268947	-0.0004034367	267805.3	641221.7	-0.00036572624
0	0.64855814	0.6501371	-1.2106532e-10	0.064488225	0.06448822	0	62805.953	62958.86	-9.555785e-06	640630.7	268677.97	-0.000119536795	267531.75	641333.1	-4.8514703e-05
0	0.64844036	0.6500244	-4.5577536e-10	0.064346544	0.064346544	0	62794.55	62947.938	-4.442149e-05	640740.1	268408.34	-0.00034366827	267257.66	641444.6	-0.00031721152
0	0.6483242	0.64991283	-4.8782206e-10	0.06420522	0.06420522	0	62783.3	62937.145	-4.803719e-05	640847.2	268143.06	-0.0003324617	266988.22	641553.7	-0.00036572624
0	0.6482057	0.6497994	-3.8456047e-10	0.06406397	0.06406397	0	62771.83	62926.16	-3.589876e-05	640956.9	267872.12	-0.0002838999	266712.7	641665.7	-0.00027056277
0	0.6480868	0.6496858	-2.9910258e-10	0.06392263	0.06392263	0	62760.312	62915.152	-2.9442148e-05	641066.7	267600.7	-0.0002838999	266436.6	641777.7	-0.00014181221
0	0.64796764	0.6495718	-3.0622407e-10	0.06378097	0.06378097	0	62748.773	62904.113	-3.0991734e-05	641176.56	267328.88	-0.00029137093	266160.16	641889.75	-0.00014741006
0	0.6478481	0.6494574	-2.7417735e-10	0.06363963	0.06363963	0	62737.203	62893.04	-2.7376032e-05	641286.4	267056.6	-0.00021666044	265883.25	642001.75	-0.00017539931
0	0.6477262	0.649341	-3.809997e-10	0.063498296	0.063498296	0	62725.387	62881.76	-3.822314e-05	641398.6	266778.72	-0.00030631304	265600.44	642116.5	-0.0002649649
0	0.64760613	0.64922595	-3.2758854e-10	0.06335664	0.06335664	0	62713.758	62870.63	-3.1508265e-05	641508.6	266505.44	-0.00017930519	265322.53	642228.6	-0.00027989253
0	0.64748746	0.64911216	-9.257937e-11	0.06321527	0.06321527	0	62702.266	62859.605	-7.7479335e-06	641616.75	266235.72	-7.471049e-05	265048.44	642338.8	-4.4782802e-05
0	0.64736694	0.64899683	-2.9910258e-10	0.06307405	0.06307405	0	62690.6	62848.438	-2.6859505e-05	641726.9	265961.75	-0.00012700785	264769.78	642451.1	-0.00030601583
0	0.64724505	0.64888036	-2.848596e-10	0.062932715	0.062932715	0	62678.793	62837.156	-2.6859505e-05	641837.94	265685.06	-0.0002241315	264488.4	642564.4	-0.00019405881
0	0.647124	0.6487646	-2.777381e-10	0.06279094	0.06279094	0	62667.08	62825.95	-2.8409091e-05	641948	265410.47	-0.00021666044	264208.97	642676.9	-0.00019965667
0	0.6470003	0.64864653	-3.5963524e-10	0.06264972	0.06264972	0	62655.09	62814.516	-3.6157024e-05	642060.6	265129.94	-0.00026895778	263923.3	642791.9	-0.000261233
0	0.646878	0.6485295	-2.4925215e-10	0.062508374	0.06250837	0	62643.25	62803.184	-2.2727272e-05	642171.44	264852.84	-0.00031378408	263641.47	642904.94	-3.7319003e-06
0	0.6467553	0.6484122	-3.9880343e-10	0.062366694	0.062366694	0	62631.363	62791.824	-3.8481405e-05	642282.44	264575.2	-0.00030631304	263358.9	643018.2	-0.00028175846
0	0.64663255	0.64829475	-3.8456047e-10	0.062225346	0.062225346	0	62619.473	62780.45	-3.6673555e-05	642393.25	264297.47	-0.00029884197	263076.38	643131.25	-0.00025003732
0	0.64651054	0.6481779	-1.0682235e-11	0.06208414	0.06208414	0	62607.67	62769.137	-1.5495867e-06	642502.9	264022	-6.7239445e-05	262796.28	643243.06	7.4638e-05
0	0.6463871	0.64805984	-2.8129885e-10	0.061942358	0.061942358	0	62595.715	62757.71	-2.5051653e-05	642613.9	263743.22	-0.00026895778	262512.62	643356.3	-0.00012315271
0	0.64626354	0.6479417	-2.9910258e-10	0.06180101	0.06180101	0	62583.742	62746.26	-2.9442148e-05	642724.75	263464.38	-0.00020918938	262228.88	643469.6	-0.00022764591
0	0.646139	0.6478226	-4.985043e-10	0.061659798	0.061659798	0	62571.695	62734.727	-4.803719e-05	642836.25	263183.7	-0.00046320507	261943.36	643583.3	-0.0002686968
0	0.64601433	0.6477034	-3.1334554e-10	0.061518423	0.061518427	0	62559.617	62723.184	-3.305785e-05	642947.7	262902.78	-0.00023907359	261657.48	643697.06	-0.00023324377
0	0.64588916	0.6475837	-3.7031747e-10	0.061376773	0.061376773	0	62547.492	62711.598	-3.6157024e-05	643059.44	262620.97	-0.00024654463	261370.69	643811.2	-0.00027616063
0	0.645764	0.6474641	-3.3471004e-10	0.061235428	0.061235428	0	62535.37	62700.004	-3.5640496e-05	643171.06	262339.34	-0.00032499066	261083.98	643925.1	-0.00018239663
0	0.64563507	0.64734113	-3.418315e-10	0.06109409	0.06109409	0	62522.887	62688.094	-3.125e-05	643285.8	262049.62	-0.00020171834	260788.9	644042.5	-0.00025003732
0	0.6455099	0.64722157	-5.127473e-10	0.06095245	0.060952455	0	62510.766	62676.523	-4.9070248e-05	643397.06	261768.55	-0.00038849458	260502.72	644156.06	-0.00033960294
0	0.6453834	0.64710075	-1.8515874e-10	0.060811095	0.060811095	0	62498.52	62664.824	-1.96281e-05	643509.06	261484.78	-0.00017930519	260213.8	644270.56	-8.9565605e-05
0	0.64525664	0.64697963	-4.5577536e-10	0.06066985	0.06066985	0	62486.242	62653.086	-4.700413e-05	643621.25	261200.38	-0.0004034367	259924.31	644384.94	-0.00027616063
0	0.64512926	0.6468578	-4.913828e-10	0.060528506	0.060528506	0	62473.906	62641.3	-4.700413e-05	643733.56	260915.05	-0.00038102354	259633.88	644499.6	-0.00034333483
0	0.64500356	0.6467374	-4.3797163e-10	0.060386855	0.060386855	0	62461.73	62629.63	-4.338843e-05	643843.94	260633.67	-0.00036608143	259347.61	644612.25	-0.00029668608
0	0.644874	0.64661396	-2.8842034e-10	0.06024551	0.06024551	0	62449.176	62617.676	-2.8150827e-05	643958.1	260343.78	-0.00020918938	259052.16	644729.2	-0.00019032691
0	0.6447455	0.64649117	-4.4153237e-10	0.06010417	0.06010417	0	62436.742	62605.785	-4.1838844e-05	644070.75	260056.64	-0.00038849458	258759.86	644844.2	-0.00025750112
0	0.64461666	0.64636815	-2.5637364e-10	0.059962526	0.059962522	0	62424.27	62593.88	-2.6859505e-05	644183.6	259769.11	-0.00020918938	258467.08	644959.3	-0.00015673981
0	0.6444876	0.6462448	-2.7417735e-10	0.059821147	0.059821144	0	62411.76	62581.938	-2.4793388e-05	644296.44	259481	-0.00023907359	258173.69	645074.56	-0.00012875056
0	0.64436024	0.64612263	-2.9198108e-10	0.059679933	0.05967993	0	62399.426	62570.105	-2.6859505e-05	644407.06	259196.9	-0.00026148674	257884.75	645187.44	-0.00012688461
0	0.6442306	0.6459991	-4.7357906e-10	0.05953857	0.05953857	0	62386.883	62558.133	-4.803719e-05	644520.06	258908.2	-0.00038102354	257590.58	645302.9	-0.00033960294
0	0.64410037	0.6458747	-1.424298e-10	0.05939681	0.059396807	0	62374.27	62546.086	-1.34297525e-05	644633.06	258618.4	-0.0001643631	257295.5	645418.4	-1.86595e-05
0	0.6439696	0.64574987	-3.7743897e-10	0.059255596	0.059255596	0	62361.6	62534.004	-3.822314e-05	644746.6	258327.39	-0.00029884197	256998.97	645534.5	-0.00023884162
0	0.64383703	0.6456236	-1.7091575e-10	0.059114233	0.059114233	0	62348.766	62521.78	-1.4979339e-05	644861.75	258032.8	-0.00014942099	256698.6	645652.1	-0.00010076131
0	0.6437075	0.64549947	-5.3411175e-10	0.05897258	0.05897258	0	62336.22	62509.76	-5.216942e-05	644973.06	257745.14	-0.00042584984	256406.03	645765.8	-0.00035453052
0	0.643574	0.64537233	-4.6289683e-10	0.05883123	0.05883123	0	62323.285	62497.445	-4.28719e-05	645088.7	257448.7	-0.00030631304	256103.69	645884.1	-0.00033587104
0	0.643442	0.6452465	-4.5577536e-10	0.058689997	0.058689997	0	62310.504	62485.258	-4.5454544e-05	645202.3	257156.16	-0.00031378408	255805.56	646000.2	-0.00036572624
0	0.64331126	0.64512134	-4.913828e-10	0.058548246	0.058548246	0	62297.86	62473.14	-4.8295453e-05	645314.1	256866.66	-0.00038849458	255510.92	646114.3	-0.00033027318
0	0.6431763	0.64499277	-4.842613e-10	0.058406897	0.058406897	0	62284.79	62460.684	-4.5971075e-05	645430.1	256567.69	-0.00038102354	255206.14	646233	-0.00034333483
0	0.6430433	0.6448658	-4.985043e-10	0.058265675	0.058265675	0	62271.9	62448.395	-4.4938017e-05	645544	256273.36	-0.0003922301	254906.16	646349.5	-0.00028735632
0	0.6429099	0.6447385	-6.195696e-10	0.05812428	0.05812428	0	62258.973	62436.062	-5.733471e-05	645657.8	255978.55	-0.0004034367	254605.75	646465.8	-0.00047021944
0	0.6427757	0.6446106	-2.848596e-10	0.057982665	0.05798266	0	62245.984	62423.676	-2.7892562e-05	645772.1	255682.39	-0.00019424729	254303.9	646582.6	-0.00017913121
0	0.64264345	0.64448404	-1.8515874e-10	0.05784131	0.05784131	0	62233.176	62411.41	-1.7561984e-05	645884.25	255390.55	-0.00021666044	254006.81	646697.1	-4.2916854e-05
0	0.6425061	0.6443531	-4.0592493e-10	0.05769995	0.05769995	0	62219.883	62398.746	-3.92562e-05	646001.06	255087.66	-0.00027642885	253697.92	646816.7	-0.00029668608
0	0.64237297	0.64422596	-2.5637364e-10	0.057558335	0.057558335	0	62206.99	62386.42	-2.427686e-05	646113.5	254794.42	-0.00026148674	253399.33	646931.44	-0.00011942081
0	0.6422375	0.64409655	-3.2402778e-10	0.057416975	0.057416975	0	62193.87	62373.902	-3.2024793e-05	646228.1	254496.11	-0.00031378408	253095.28	647048.56	-0.00015673981
0	0.64209926	0.64396507	-3.3471004e-10	0.057275716	0.057275716	0	62180.48	62361.16	-2.9442148e-05	646345.06	254191.95	-0.00026148674	252784.92	647168.4	-0.00020525452
0	0.6419654	0.643837	-5.30551e-10	0.057134356	0.057134364	0	62167.527	62348.766	-5.1136365e-05	646457.25	253897.98	-0.00029884197	252485.61	647282.9	-0.00047021944
0	0.64182645	0.6437048	-2.4925215e-10	0.056992743	0.056992743	0	62154.062	62335.96	-2.427686e-05	646574.44	253592.61	-0.00017556967	252173.97	647402.94	-0.00017166742
0	0.64169127	0.64357567	-3.3114927e-10	0.056851383	0.05685139	0	62140.973	62323.457	-3.409091e-05	646687.44	253296.22	-0.0002838999	251871.98	647518.44	-0.00020152262
0	0.64155376	0.6434444	-3.3471004e-10	0.05671003	0.05671003	0	62127.652	62310.74	-3.305785e-05	646802.5	252994.61	-0.00023907359	251564.62	647635.9	-0.00021271831
0	0.6414134	0.64331084	-4.3085013e-10	0.056568418	0.056568418	0	62114.062	62297.812	-4.0289255e-05	646920.06	252687.08	-0.00032499066	251250.77	647756.3	-0.00031347963
0	0.6412752	0.64317924	-2.9198108e-10	0.056427024	0.056427028	0	62100.69	62285.066	-2.5826446e-05	647035.2	252384.81	-0.00017930519	250942.53	647874.1	-0.00023324377
0	0.64113665	0.64304703	-3.2402778e-10	0.0562858	0.0562858	0	62087.266	62272.266	-2.9442148e-05	647150.56	252081.58	-0.0003287262	250633.23	647992.1	-0.00012315271
0	0.64099944	0.6429159	-5.0206506e-10	0.056144428	0.056144428	0	62073.973	62259.566	-4.855372e-05	647264.06	251781.75	-0.00048561822	250327.75	648108.2	-0.00021271831
0	0.6408574	0.6427808	-5.3411175e-10	0.05600269	0.05600269	0	62060.23	62246.484	-5.0619834e-05	647382.06	251471.62	-0.00038849458	250011.28	648228.94	-0.00037505597
0	0.64071983	0.64264923	-4.344109e-10	0.055861466	0.055861462	0	62046.895	62233.75	-4.0289255e-05	647495.5	251171.39	-0.00036608143	249705.28	648344.9	-0.00024257351
0	0.640577	0.6425135	-3.8456047e-10	0.0557201	0.0557201	0	62033.074	62220.59	-3.770661e-05	647613.7	250860.03	-0.00026895778	249387.47	648465.9	-0.0002948201
0	0.6404384	0.642381	-3.2758854e-10	0.0555785	0.055578496	0	62019.65	62207.773	-3.0475207e-05	647727.5	250558.11	-0.00020918938	249079.72	648582.25	-0.00027056277
0	0.6402949	0.64224476	-2.136447e-10	0.055437103	0.055437114	0	62005.746	62194.562	-2.0144627e-05	647845.75	250245.77	-0.00015689204	248760.83	648703.4	-0.00013808032
0	0.6401554	0.64211136	-2.706166e-10	0.055295877	0.055295877	0	61992.24	62181.656	-2.6859505e-05	647959.8	249942.3	-0.0002540157	248451.53	648820	-0.00012688461
0	0.6400108	0.64197373	-4.4865386e-10	0.055154506	0.055154506	0	61978.234	62168.336	-4.0289255e-05	648078.5	249627.98	-0.00034366827	248130.69	648941.5	-0.00025190326
0	0.6398687	0.6418385	-3.952427e-10	0.055012774	0.055012777	0	61964.473	62155.234	-3.822314e-05	648194.56	249319.61	-0.00038102354	247815.95	649060.25	-0.00017913121
0	0.6397279	0.641704	-3.7031747e-10	0.05487154	0.05487154	0	61950.848	62142.21	-3.512397e-05	648308.8	249014.36	-0.00031378408	247504.84	649177.1	-0.00020525452
0	0.6395819	0.64156514	-3.2046704e-10	0.054730177	0.054730177	0	61936.7	62128.766	-3.0991734e-05	648428.06	248697.61	-0.00026895778	247181.39	649299.2	-0.00018659502
0	0.6394385	0.6414287	-2.777381e-10	0.05458855	0.054588553	0	61922.812	62115.535	-2.8409091e-05	648544.44	248387.03	-0.00026148674	246864.34	649418.44	-0.00011942081
0	0.63929427	0.6412913	-1.424298e-10	0.05444718	0.05444718	0	61908.848	62102.242	-1.1363636e-05	648661.25	248075.05	-0.00017556967	246545.98	649537.94	-3.7319003e-06
0	0.6391518	0.6411552	-2.777381e-10	0.054305963	0.054305963	0	61895.047	62089.05	-2.5568183e-05	648776.06	247766.89	-0.00023907359	246231.88	649655.2	-0.00014554411
0	0.6390065	0.6410166	-2.2076618e-10	0.05416423	0.05416423	0	61880.973	62075.64	-1.96281e-05	648893.1	247452.86	-0.0002540157	245911.48	649775.06	-5.9710404e-05
0	0.63885856	0.6408763	-4.913828e-10	0.05402285	0.05402285	0	61866.652	62062.043	-4.5971075e-05	649012.7	247133.55	-0.00038102354	245585.05	649897.7	-0.00031721152
0	0.63871276	0.6407375	-2.1008395e-10	0.053881627	0.053881627	0	61852.53	62048.605	-2.2469008e-05	649129.8	246819.12	-0.00026895778	245264.08	650017.7	-5.5978504e-05
0	0.63856626	0.64059794	-2.8842034e-10	0.053740226	0.053740222	0	61838.34	62035.098	-2.7892562e-05	649247.3	246503.31	-0.00026148674	244941.69	650137.9	-0.00013924653
0	0.63842136	0.6404597	-9.970086e-11	0.05359863	0.05359863	0	61824.312	62021.707	-8.264463e-06	649362.9	246191.36	-0.00011206575	244623.52	650256.1	-1.86595e-05
0	0.6382723	0.6403181	-2.7417735e-10	0.053457264	0.053457264	0	61809.883	62008	-2.6342976e-05	649482.2	245870.6	-0.00023160253	244295.69	650378.44	-0.00016606956
0	0.6381244	0.6401773	-3.738782e-10	0.053315885	0.053315885	0	61795.555	61994.355	-3.409091e-05	649599.94	245552.58	-0.00036608143	243971.05	650499.06	-0.00017166742
0	0.63797617	0.6400361	-3.2758854e-10	0.053174306	0.053174306	0	61781.2	61980.69	-2.9958677e-05	649717.8	245234.12	-0.0002540157	243645.83	650619.75	-0.00020152262
0	0.6378276	0.63989484	-2.0296247e-10	0.05303293	0.05303293	0	61766.816	61967.008	-2.0402893e-05	649835.56	244915.39	-0.00023907359	243320.33	650740.4	-4.4782802e-05
0	0.63768053	0.6397545	-4.272894e-10	0.05289167	0.05289167	0	61752.574	61953.414	-4.442149e-05	649951.6	244600.03	-0.00032125512	242998.69	650859	-0.00029108822
0	0.6375286	0.6396102	-2.5637364e-10	0.052750282	0.052750286	0	61737.86	61939.44	-2.2727272e-05	650072	244274.34	-0.00023160253	242665.75	650982.6	-0.00011195701
0	0.6373789	0.6394679	-4.7357906e-10	0.05260872	0.05260872	0	61723.367	61925.66	-4.752066e-05	650189.94	243953.97	-0.0003735525	242338.42	651103.44	-0.00034520077
0	0.63723046	0.6393262	-4.201679e-10	0.052467346	0.052467346	0	61708.992	61911.938	-4.0805786e-05	650306.44	243636.34	-0.00041090773	242014.42	651222.44	-0.00019032691
0	0.63707954	0.6391827	-5.3767246e-10	0.052325957	0.052325957	0	61694.383	61898.043	-5.216942e-05	650424.9	243313.89	-0.00045573403	241685	651343.8	-0.00030601583
0	0.63692534	0.63903624	-4.522146e-10	0.05218439	0.05218439	0	61679.445	61883.86	-4.442149e-05	650546	242984.38	-0.0003735525	241348.12	651468.1	-0.00027242873
0	0.6367741	0.6388924	-4.201679e-10	0.052042976	0.052042983	0	61664.797	61869.938	-4.0805786e-05	650664.25	242661.72	-0.0003287262	241018.36	651589.3	-0.00028362442
0	0.63662165	0.6387474	-2.8129885e-10	0.051901743	0.051901743	0	61650.04	61855.89	-2.5826446e-05	650783.1	242336.64	-0.0002577512	240686.25	651711.06	-0.00011568891
0	0.63646924	0.6386025	7.12149e-12	0.051760364	0.051760364	0	61635.27	61841.86	-7.7479336e-07	650901.75	242011.94	0	240354.42	651832.6	1.1195701e-05
0	0.6363159	0.63845664	-1.8515874e-10	0.05161865	0.05161865	0	61620.426	61827.73	-1.6528926e-05	651020.8	241685.52	-0.000119536795	240020.9	651954.7	-0.00010449321
0	0.63616204	0.6383103	-3.097848e-10	0.051477425	0.051477425	0	61605.523	61813.566	-3.0991734e-05	651140	241358.27	-0.0002838999	239686.53	652076.8	-0.00018846097
0	0.6360101	0.63816553	-2.9554184e-10	0.051336035	0.051336035	0	61590.82	61799.55	-2.9958677e-05	651256.94	241035.67	-0.00014942099	239357.16	652196.6	-0.00031347963
0	0.63585347	0.63801706	-1.2106532e-10	0.05119444	0.05119444	0	61575.645	61785.156	-1.1880165e-05	651378.3	240702.97	-0.00014194995	239016.73	652321.06	-2.6123302e-05
0	0.63570046	0.63787115	-1.8159799e-10	0.051053066	0.051053066	0	61560.824	61771.023	-1.7561984e-05	651495.6	240378.33	-0.00014194995	238685.38	652441.1	-0.00012688461
0	0.6355422	0.637721	-4.272894e-10	0.05091182	0.05091182	0	61545.496	61756.49	-4.0805786e-05	651617.7	240042.67	-0.00033619723	238341.94	652566.4	-0.00027242873
0	0.63538873	0.6375747	-4.913828e-10	0.050770126	0.050770126	0	61530.637	61742.32	-4.6487603e-05	651734.9	239717.75	-0.00032125512	238010.12	652686.4	-0.00037319004
0	0.63523227	0.637426	-5.697192e-10	0.050628737	0.050628737	0	61515.492	61727.92	-5.371901e-05	651854.56	239386.75	-0.00033619723	237671.77	652809	-0.00048561353
0	0.6350724	0.6372745	-1.4955129e-10	0.050487496	0.0504875	0	61500.01	61713.254	-1.26549585e-05	651976.94	239048.66	-0.00012700785	237325.69	652934.8	-6.530825e-05
0	0.63491535	0.63712525	-2.5637364e-10	0.05034608	0.05034608	0	61484.8	61698.805	-2.4793388e-05	652096.56	238716.95	-0.00023907359	236986.48	653057.4	-0.00010822511
0	0.6347576	0.63697535	-1.1394384e-10	0.050204534	0.050204534	0	61469.516	61684.29	-1.1880165e-05	652216.5	238383.86	-0.0001643631	236645.88	653180.3	2.2391401e-05
0	0.6345989	0.63682455	-1.9228023e-10	0.05006314	0.050063137	0	61454.15	61669.684	-2.0144627e-05	652336.8	238049.19	-0.00015689204	236303.6	653303.75	-0.00012875056
0	0.63444024	0.6366738	-2.1008395e-10	0.049921747	0.049921747	0	61438.78	61655.082	-1.7561984e-05	652456.8	237714.75	-0.0002540157	235961.61	653426.75	-3.35871e-05
0	0.6342806	0.6365221	-4.9494353e-10	0.049780212	0.049780212	0	61423.324	61640.4	-4.5454544e-05	652577.3	237378.75	-0.00035113934	235617.92	653550.3	-0.0003321391
0	0.63412064	0.6363703	-1.9228023e-10	0.049638808	0.04963881	0	61407.836	61625.684	-1.8078512e-05	652697.75	237042.22	-0.00014942099	235273.73	653673.9	-0.00010822511
0	0.6339601	0.6362179	-5.1986876e-10	0.04949754	0.04949754	0	61392.29	61610.926	-4.9070248e-05	652818.4	236704.92	-0.00036608143	234928.67	653797.6	-0.00035079863
0	0.6337993	0.63606507	-4.0236417e-10	0.04935615	0.04935615	0	61376.715	61596.14	-3.873967e-05	652939	236367.11	-0.00028016436	234583.08	653921.4	-0.0002649649
0	0.6336378	0.63591164	-3.1334554e-10	0.04921461	0.04921461	0	61361.07	61581.277	-3.125e-05	653059.8	236028.11	-0.00023533807	234236.27	654045.3	-0.00020338857
0	0.63347584	0.6357579	-5.625977e-10	0.04907322	0.04907322	0	61345.395	61566.387	-5.216942e-05	653180.75	235688.67	-0.0004034367	233889	654169.3	-0.00036572624
0	0.6333135	0.63560367	-2.065232e-10	0.048931822	0.048931822	0	61329.66	61551.457	-2.0661157e-05	653301.6	235348.45	-0.00018677625	233540.88	654293.44	-0.00011195701
0	0.6331505	0.63544905	-2.8842034e-10	0.0487903	0.0487903	0	61313.887	61536.477	-2.5826446e-05	653422.8	235007.45	-0.00031751962	233191.97	654417.6	-8.769966e-05
0	0.63298696	0.6352937	-4.130464e-10	0.048648857	0.048648853	0	61298.05	61521.434	-3.512397e-05	653544.1	234665.31	-0.00023533807	232841.81	654542.06	-0.00032840722
0	0.63282305	0.6351383	-1.4955129e-10	0.048507623	0.048507623	0	61282.184	61506.38	-1.1880165e-05	653665.25	234323.12	-0.00014942099	232491.6	654666.44	-2.9855202e-05
0	0.6326585	0.63498205	-4.0592493e-10	0.04836622	0.048366215	0	61266.242	61491.25	-3.770661e-05	653786.75	233979.4	-0.00032125512	232139.77	654791.1	-0.00025563518
0	0.6324936	0.6348255	-4.4865386e-10	0.04822453	0.04822453	0	61250.277	61476.094	-4.28719e-05	653908.2	233635.52	-0.0003287262	231787.72	654915.8	-0.00031721152
0	0.6323281	0.6346686	-2.4213065e-10	0.048083294	0.048083298	0	61234.258	61460.895	-2.1694215e-05	654029.7	233290.78	-0.0002838999	231434.84	655040.44	-4.8514703e-05
0	0.63216186	0.6345107	-4.1660717e-10	0.04794189	0.04794189	0	61218.152	61445.61	-3.873967e-05	654151.6	232944.48	-0.0003025775	231080.36	655165.6	-0.00025376922
0	0.63199544	0.6343529	-3.3114927e-10	0.04780034	0.04780034	0	61202.043	61430.33	-3.305785e-05	654273.3	232598.3	-0.00021292492	230725.9	655290.6	-0.00027616063
0	0.63183045	0.6341959	-4.7001836e-10	0.047658943	0.047658943	0	61186.066	61415.125	-4.5971075e-05	654393.3	232255.34	-0.00035113934	230375.2	655413.44	-0.00032094342
0	0.6316625	0.6340363	-4.771398e-10	0.0475177	0.0475177	0	61169.79	61399.668	-4.9070248e-05	654515.5	231906.34	-0.00027269332	230018.08	655538.9	-0.00041050903
0	0.6314921	0.6338753	-2.8842034e-10	0.04737629	0.04737629	0	61153.293	61384.08	-2.7376032e-05	654639.9	231552.75	-0.0002241315	229655.36	655666.75	-0.00020152262
0	0.63132614	0.63371754	-1.3886906e-10	0.047234613	0.047234613	0	61137.22	61368.793	-1.446281e-05	654759.75	231208.73	-0.00013074337	229303.36	655789.6	-3.35871e-05
0	0.6311547	0.6335554	-3.8456047e-10	0.04709337	0.047093377	0	61120.62	61353.1	-4.106405e-05	654884.1	230853.67	-0.00041090773	228939.23	655917.56	-0.00016606956
0	0.6309849	0.6333944	-5.625977e-10	0.04695193	0.046951924	0	61104.176	61337.508	-5.4235537e-05	655006.75	230502.17	-0.0006014195	228579.19	656043.44	-0.00019405881
0	0.6308148	0.6332331	-4.7001836e-10	0.046810426	0.046810426	0	61087.703	61321.883	-4.338843e-05	655129.1	230150.42	-0.0003922301	228218.83	656169.1	-0.00023884162
0	0.63064384	0.633071	-8.9018626e-11	0.04666901	0.04666901	0	61071.15	61306.19	-8.264463e-06	655251.9	229797.17	-0.00010459469	227856.98	656295.25	-4.8514703e-05
0	0.6304726	0.6329086	-6.4805555e-10	0.04652778	0.04652778	0	61054.56	61290.465	-6.508265e-05	655374.56	229443.5	-0.0004669406	227494.62	656421.3	-0.00047395134
0	0.63030064	0.6327456	-3.3471004e-10	0.046386104	0.046386104	0	61037.906	61274.688	-3.6157024e-05	655497.5	229088.86	-0.00028763543	227131.23	656547.44	-0.00020525452
0	0.63012767	0.6325817	-1.5667277e-10	0.046244692	0.046244696	0	61021.16	61258.805	-1.213843e-05	655620.9	228732.5	-0.00018304071	226766.08	656674.2	-3.7319003e-06
0	0.6299551	0.63241816	-2.9554184e-10	0.046103455	0.046103455	0	61004.445	61242.965	-2.7376032e-05	655743.75	228377.08	-0.0002540157	226401.8	656800.4	-0.00017166742
0	0.6297815	0.63225365	-5.1986876e-10	0.045961995	0.045961995	0	60987.637	61227.043	-4.855372e-05	655866.8	228019.98	-0.00038475907	226035.83	656927	-0.00035453052
0	0.6296074	0.63208866	-5.0206506e-10	0.045820504	0.045820504	0	60970.773	61211.062	-5.036157e-05	655990.1	227662.12	-0.00039970115	225669.05	657053.6	-0.00032840722
0	0.62943286	0.6319233	-4.7001836e-10	0.045679096	0.045679096	0	60953.87	61195.043	-4.5971075e-05	656113.5	227303.64	-0.00039970115	225301.58	657180.4	-0.00025750112
0	0.6292576	0.6317573	-3.9168194e-10	0.045537677	0.045537677	0	60936.902	61178.977	-3.7190082e-05	656237.2	226944.1	-0.00032125512	224932.92	657307.25	-0.00023510972
0	0.62908405	0.63159245	-3.0622407e-10	0.04539619	0.04539619	0	60920.098	61163.01	-2.9183884e-05	656358.7	226588.3	-0.00027642885	224568.56	657432	-0.00014181221
0	0.628905	0.6314233	-4.0592493e-10	0.045254778	0.045254774	0	60902.754	61146.62	-3.7190082e-05	656484.75	226221.45	-0.0004034367	224192.16	657561.6	-0.00016420361