# t (s)	mx ()	my ()	mz ()	B_extx (T)	B_exty (T)	B_extz (T)	m_fullx (A/m)	m_fully (A/m)	m_fullz (A/m)	m_full.region1x (A/m)	m_full.region1y (A/m)	m_full.region1z (A/m)	m_full.region2x (A/m)	m_full.region2y (A/m)	m_full.region2z (A/m)
0	0.65822065	0.6575889	-2.5907915e-10	0.07071097	0.07071097	0	49452.926	49405.46	-1.8463174e-05	615170.94	305613	-0.00018645759	306338.03	615011.56	-0.00015758637
0	0.658131	0.6575008	-3.3395198e-10	0.070569366	0.070569366	0	49446.188	49398.836	-2.6318046e-05	615254	305405.9	-0.00032663267	306129.34	615095.06	-0.00016377948
0	0.65804136	0.65740895	-3.1802871e-10	0.07042761	0.07042761	0	49439.457	49391.94	-2.1253765e-05	615341.4	305191.53	-0.000272622	305916.47	615180.94	-0.000123422
0	0.6579501	0.657315	-3.5845169e-10	0.07028633	0.07028633	0	49432.598	49384.883	-2.9942265e-05	615430.75	304972.56	-0.00019558678	305699.38	615268.44	-0.00036235925
0	0.65785795	0.6572205	-4.7276494e-10	0.07014479	0.07014479	0	49425.68	49377.785	-2.6663649e-05	615520.06	304752.44	-0.0002686392	305481	615356.25	-0.00022821293
0	0.657766	0.65712595	-3.249419e-10	0.07000352	0.07000352	0	49418.766	49370.68	-2.0242038e-05	615609.56	304532.3	-0.00013599449	305262.75	615444.06	-0.0002411969
0	0.6576751	0.6570323	-1.8782166e-10	0.06986232	0.06986232	0	49411.938	49363.64	-1.4790154e-05	615698.3	304314.38	-0.0001942438	305046.84	615530.9	-8.1356855e-05
0	0.65758044	0.656935	-2.8292338e-10	0.0697207	0.0697207	0	49404.824	49356.33	-2.2395707e-05	615790.1	304088.12	-0.00022237765	304822.47	615620.8	-0.00019494534
0	0.6574898	0.6568417	-1.9799082e-10	0.06957944	0.06957944	0	49398.01	49349.32	-1.3296725e-05	615878	303871.38	-0.00018981387	304607.66	615707	-5.7958154e-05
0	0.65739733	0.6567464	-4.2284015e-10	0.0694377	0.0694377	0	49391.066	49342.164	-3.50728e-05	615967.8	303650.06	-0.00040971013	304388.44	615794.8	-0.00024383863
0	0.65730435	0.6566506	-4.93711e-10	0.069296405	0.069296405	0	49384.086	49334.973	-4.0688232e-05	616057.75	303428	-0.00034487332	304168.38	615882.9	-0.0004133137
0	0.6572108	0.65655446	-2.4029148e-10	0.06915487	0.06915487	0	49377.06	49327.73	-1.8953748e-05	616148.2	303204.6	-0.0002493645	303947.03	615971.56	-0.00010382083
0	0.65711755	0.6564583	-1.9274363e-10	0.0690136	0.0690136	0	49370.047	49320.516	-5.5555306e-06	616238.06	302982.16	-0.00010055061	303726.47	616059.5	-2.971494e-06
0	0.6570249	0.656363	-2.6798713e-10	0.06887232	0.06887232	0	49363.086	49313.363	-2.5715417e-05	616326.8	302761.7	-0.00026117367	303508	616146.56	-0.00021800902
0	0.6569299	0.6562656	-2.7886768e-10	0.06873079	0.06873079	0	49355.95	49306.04	-1.3345183e-05	616417.06	302536.62	-0.00010058209	303284.7	616235.25	-0.0001480929
0	0.6568348	0.6561673	-3.4996703e-10	0.0685895	0.0685895	0	49348.797	49298.652	-2.8361532e-05	616509.25	302309.03	-0.0002943545	303059.38	616325.25	-0.00023413608
0	0.65674174	0.65607154	-4.981242e-10	0.068447776	0.068447776	0	49341.812	49291.457	-3.0890857e-05	616598.4	302087.6	-0.00025484484	302840.03	616412.5	-0.00032077733
0	0.6566475	0.65597415	-3.3322306e-10	0.0683065	0.0683065	0	49334.734	49284.145	-2.769609e-05	616688.94	301862.84	-0.00026564416	302617.53	616501	-0.00025044652
0	0.65655357	0.6558775	-1.7883471e-10	0.06816496	0.06816496	0	49327.676	49276.883	-1.5994554e-05	616778.3	301639.94	-0.00013931895	302396.66	616588.5	-0.0001587246
0	0.6564575	0.6557785	-3.2926792e-10	0.068023674	0.068023674	0	49320.46	49269.445	-2.3580795e-05	616869.8	301411.84	-0.00023601203	302170.62	616678.06	-0.00020339398
0	0.6563623	0.65568036	-1.8315081e-10	0.067882404	0.067882404	0	49313.305	49262.07	-1.7413413e-05	616960.8	301185.5	-0.00016214098	301946.56	616767	-0.00016234168
0	0.65626746	0.6555826	-1.6470024e-10	0.067740865	0.067740865	0	49306.18	49254.723	-1.6443915e-05	617050.9	300960.44	-0.00023894726	301723.66	616855.1	-6.746971e-05
0	0.6561713	0.6554836	-1.7056338e-10	0.06759956	0.06759956	0	49298.953	49247.29	-1.102513e-05	617141.75	300732.8	-0.0001322099	301498.06	616944.2	-7.323307e-05
0	0.6560762	0.65538543	-4.3382162e-10	0.06745787	0.06745787	0	49291.812	49239.91	-4.1456693e-05	617232	300507.16	-0.00034518552	301274.72	617032.5	-0.00042732115
0	0.65597886	0.6552855	-3.183076e-10	0.067316584	0.067316584	0	49284.5	49232.402	-2.2805905e-05	617323.1	300277.97	-0.00028256795	301047.44	617121.75	-0.00014239873
0	0.6558826	0.6551862	-4.973296e-10	0.067174956	0.067174956	0	49277.26	49224.94	-3.1215845e-05	617413.94	300050.03	-0.00035598225	300821.7	617210.7	-0.0002256958
0	0.6557861	0.6550863	-5.485069e-11	0.06703376	0.06703376	0	49270.008	49217.438	-4.386156e-06	617506.06	299820.34	-0.00013670347	300594.53	617300.5	5.4971555e-05
0	0.65568995	0.65498686	-7.7897765e-11	0.06689248	0.06689248	0	49262.777	49209.973	-6.5962095e-06	617596.9	299592.47	-7.2473405e-05	300369	617389.2	-5.0440776e-05
0	0.65559304	0.6548871	-2.0785165e-10	0.06675091	0.06675091	0	49255.508	49202.47	-1.5042635e-05	617687.6	299363.88	-0.00010875403	300142.62	617478.06	-0.0001715514
0	0.6554944	0.6547856	-3.8064996e-10	0.06660963	0.06660963	0	49248.1	49194.85	-2.795459e-05	617779.4	299132.03	-0.00022988168	299912.84	617567.94	-0.00029102594
0	0.6553981	0.65468574	-3.5826575e-10	0.066467956	0.066467956	0	49240.86	49187.344	-2.7287088e-05	617870.75	298903.03	-0.00020967213	299686.47	617657	-0.0002987972
0	0.6553	0.65458435	-4.778127e-10	0.06632633	0.06632633	0	49233.492	49179.727	-3.875455e-05	617962.94	298671.12	-0.00031806403	299457.03	617747	-0.00040409077
0	0.6552027	0.65448403	-5.457298e-10	0.06618504	0.06618504	0	49226.184	49172.18	-3.8029208e-05	618053.7	298441.88	-0.00048778855	299230.2	617835.6	-0.00022085015
0	0.65510345	0.6543816	-8.140277e-11	0.06604385	0.06604385	0	49218.727	49164.484	-6.518801e-06	618146.1	298208.03	-0.00011333767	298998.66	617926.06	-8.1340795e-06
0	0.65500575	0.65428066	-4.0083273e-10	0.06590254	0.06590254	0	49211.383	49156.906	-3.0039959e-05	618237	297978.03	-0.00027251284	298771	618014.9	-0.00028725364
0	0.6549065	0.65417826	-4.545825e-10	0.065760985	0.065760985	0	49203.93	49149.215	-3.5240584e-05	618329.25	297744.53	-0.00037652603	298539.88	618105.06	-0.00028014922
0	0.6548081	0.6540765	-4.842439e-10	0.0656197	0.0656197	0	49196.53	49141.57	-3.8168644e-05	618420.8	297512.7	-0.00040069243	298310.53	618194.44	-0.00031054445
0	0.6547083	0.65397364	-3.8692802e-10	0.06547804	0.06547804	0	49189.043	49133.84	-3.30151e-05	618512.9	297278.6	-0.0002577962	298078.84	618284.4	-0.00035740927
0	0.65460885	0.6538707	-5.039657e-10	0.06533641	0.06533641	0	49181.562	49126.105	-3.2738946e-05	618605.2	297044.44	-0.00023481449	297847.22	618374.5	-0.00037524506
0	0.65450704	0.6537653	-3.7668754e-10	0.06519513	0.06519513	0	49173.918	49118.188	-3.443055e-05	618699.94	296804.47	-0.0002978682	297609.94	618466.94	-0.0003437129
0	0.6544096	0.6536645	-1.8670684e-10	0.06505393	0.06505393	0	49166.594	49110.617	-1.37044135e-05	618789.75	296575.72	-0.0003090626	297383.75	618554.56	5.3693737e-05
0	0.6543068	0.65355825	-4.0300163e-10	0.06491261	0.06491261	0	49158.883	49102.64	-3.255161e-05	618884.56	296334.5	-0.00032134968	297145.12	618647.2	-0.00028521908
0	0.65420866	0.6534565	-2.9659558e-10	0.064771056	0.064771056	0	49151.492	49094.99	-1.813604e-05	618975.2	296103.6	-0.00020533145	296916.8	618735.56	-0.00013261664
0	0.6541073	0.65335166	-1.4478198e-10	0.06462978	0.06462978	0	49143.883	49087.113	-6.7149895e-06	619068.56	295865.72	-0.00017761123	296681.66	618826.56	5.2483705e-05
0	0.6540072	0.65324837	-5.8008365e-10	0.06448806	0.06448806	0	49136.36	49079.344	-4.141565e-05	619159.75	295631.88	-0.0003855292	296450.25	618915.75	-0.00038621266
0	0.65390414	0.6531415	-2.9091127e-10	0.0643465	0.0643465	0	49128.617	49071.324	-2.1324613e-05	619254.7	295389.88	-0.00020264195	296211.03	619008.3	-0.00019472223
0	0.653804	0.6530381	-4.2060874e-10	0.064205214	0.064205214	0	49121.094	49063.55	-3.8474325e-05	619345.8	295156.06	-0.0003445329	295979.72	619097.25	-0.00037240013
0	0.653703	0.65293336	-1.7200365e-10	0.06406398	0.06406398	0	49113.508	49055.69	-1.2239388e-05	619438.3	294919.44	-2.5248894e-05	295745.94	619187.3	-0.00020282064
0	0.65359837	0.6528252	-4.3163645e-10	0.063922696	0.063922696	0	49105.65	49047.555	-3.0829004e-05	619533.8	294674.75	-0.00034299525	295503.97	619280.44	-0.00023147436
0	0.6534985	0.6527217	-4.3690201e-10	0.06378113	0.06378113	0	49098.145	49039.785	-3.402554e-05	619624.56	294441.4	-0.0003296713	295273.3	619369.06	-0.00030436274
0	0.6533949	0.652615	-2.4616867e-10	0.06363943	0.06363943	0	49090.36	49031.77	-1.8289295e-05	619717.3	294201.34	-0.00024633453	295035.6	619459.75	-9.4469346e-05
0	0.65329254	0.65250903	-3.5464184e-10	0.06349815	0.06349815	0	49082.676	49023.805	-2.5820656e-05	619810.44	293962.1	-0.00034792998	294799.16	619550.56	-0.00013321375
0	0.65318817	0.6524004	-4.537733e-10	0.063356586	0.063356586	0	49074.83	49015.645	-3.0794046e-05	619906.2	293716.94	-0.00034844	294557.25	619643.6	-0.00022537821
0	0.65308714	0.65229565	-1.8717515e-10	0.06321526	0.06321526	0	49067.23	49007.777	-1.27321955e-05	619997.56	293481.3	-0.00010848477	294324.38	619732.75	-0.00012876777
0	0.65298307	0.652188	-3.7524506e-10	0.06307407	0.06307407	0	49059.418	48999.684	-2.7542517e-05	620091.44	293239	-0.00026584574	294084.88	619824.2	-0.0002473833
0	0.65287995	0.65208095	-4.764136e-10	0.062932774	0.062932774	0	49051.664	48991.64	-3.3255328e-05	620184.6	292998.38	-0.00031645544	293847.2	619915	-0.00030322646
0	0.6527763	0.65197366	-2.924816e-10	0.06279112	0.06279112	0	49043.883	48983.582	-2.3714349e-05	620277.56	292757.6	-0.00026844253	293609.22	620005.56	-0.00017345212
0	0.6526714	0.6518649	-4.357525e-10	0.06264953	0.06264953	0	49036	48975.406	-3.6508703e-05	620372.1	292513.28	-0.00035651412	293367.8	620097.6	-0.00032379132
0	0.65256757	0.6517573	2.9804182e-12	0.06250824	0.06250824	0	49028.203	48967.32	3.1817701e-06	620465.1	292272	1.9671554e-05	293129.47	620188.2	3.9617753e-05
0	0.65246123	0.6516468	-1.5826365e-11	0.062366635	0.062366635	0	49020.215	48959.023	-6.092289e-06	620561.06	292024	-0.00012097604	292884.7	620281.5	7.4519467e-06
0	0.6523565	0.6515386	-3.5886655e-10	0.06222535	0.06222535	0	49012.34	48950.9	-2.2811417e-05	620653.56	291782.2	-0.00021312753	292645.47	620371.9	-0.00021194185
0	0.65225065	0.65142846	-2.889996e-10	0.06208415	0.06208415	0	49004.395	48942.617	-2.0139832e-05	620749.25	291534.97	-0.0002401423	292401.66	620464.8	-0.00013514463
0	0.6521466	0.6513205	-7.152683e-11	0.061942477	0.061942477	0	48996.574	48934.508	-9.945346e-07	620841.8	291293.78	-0.00013090667	292163.44	620554.94	0.00011237445
0	0.65203834	0.6512082	-4.485358e-10	0.061801177	0.061801177	0	48988.434	48926.074	-2.9180403e-05	620938.1	291042.75	-0.00031521128	291915.44	620648.8	-0.00022853822
0	0.6519348	0.6511009	5.947525e-11	0.061659623	0.061659623	0	48980.66	48918	3.4431955e-06	621030.06	290802.97	5.9137514e-05	291678.66	620738.2	5.023209e-06
0	0.65182596	0.6509878	-3.5693803e-10	0.06151831	0.06151831	0	48972.477	48909.508	-2.293861e-05	621126.9	290550.44	-0.00014695893	291429.34	620832.56	-0.00028048057
0	0.6517213	0.6508789	-1.5607478e-10	0.06137672	0.06137672	0	48964.617	48901.336	-1.2167298e-05	621219.9	290307.7	-0.00016591536	291189.8	620922.9	-6.0810853e-05
0	0.65161437	0.6507678	-3.3836223e-10	0.061235435	0.061235435	0	48956.582	48892.992	-3.0061015e-05	621314.7	290059.97	-0.00037847727	290945.38	621015.06	-0.00018168155
0	0.6515058	0.6506561	-7.9608437e-10	0.061094135	0.061094135	0	48948.43	48884.586	-5.810509e-05	621408.4	289811.84	-0.0006913263	290699.84	621106.7	-0.00039140767
0	0.6513997	0.65054524	-1.5371089e-10	0.06095255	0.06095255	0	48940.453	48876.26	-1.10616575e-05	621503.6	289564.3	-7.151263e-05	290455.9	621198.94	-0.00013461098
0	0.6512928	0.6504341	-1.9753862e-10	0.06081125	0.06081125	0	48932.426	48867.91	-1.180253e-05	621597.9	289317.12	-0.0001859003	290212.06	621290.5	-3.402879e-05
0	0.65118355	0.6503211	-1.3110502e-10	0.06066969	0.06066969	0	48924.22	48859.426	-9.489906e-06	621692.56	289066.62	-0.00010508971	289964.4	621382.94	-7.174581e-05
0	0.65107656	0.6502095	-3.5888167e-10	0.060528405	0.060528405	0	48916.18	48851.04	-3.0012772e-05	621787.56	288818.2	-0.00039482032	289719.62	621475.1	-0.0001644396
0	0.65096545	0.6500941	-4.8214627e-10	0.060386807	0.060386807	0	48907.832	48842.363	-3.2512427e-05	621885	288561.88	-0.00033353758	289466.6	621569.8	-0.00027230105
0	0.65085936	0.64998364	-5.771696e-10	0.060245506	0.060245506	0	48899.85	48834.066	-4.184503e-05	621977.8	288317.12	-0.00041752387	289225.12	621660	-0.000362219
0	0.65074974	0.64987	-6.0542743e-10	0.06010422	0.06010422	0	48891.63	48825.523	-3.623877e-05	622073.06	288065.3	-0.00041886102	288976.66	621752.6	-0.00025641447
0	0.6506394	0.64975566	-4.3626502e-10	0.05996261	0.05996261	0	48883.336	48816.938	-3.5517136e-05	622168.5	287812.3	-0.00034516596	288726.75	621845.56	-0.0003166626
0	0.6505313	0.6496429	-5.8583666e-10	0.059821296	0.059821296	0	48875.21	48808.465	-4.1826777e-05	622263.25	287562.6	-0.00042386109	288480.6	621937.44	-0.0003555417
0	0.65042114	0.64952826	-4.7808585e-10	0.059679788	0.059679788	0	48866.934	48799.855	-3.64495e-05	622359	287308.97	-0.00032268043	288230.47	622030.56	-0.0003565218
0	0.650309	0.6494113	-5.2129046e-10	0.05953849	0.05953849	0	48858.516	48791.07	-3.590274e-05	622457.1	287050.25	-0.00038569004	287975.56	622125.7	-0.00028332387
0	0.6502	0.6492979	-3.579488e-10	0.059396796	0.059396796	0	48850.332	48782.55	-3.090265e-05	622551.56	286799.78	-0.0003420152	287728.62	622217.3	-0.00023382674
0	0.65009016	0.6491836	-3.2272643e-10	0.059255593	0.059255593	0	48842.07	48773.96	-2.297849e-05	622646.5	286547.47	-0.00017710516	287479.78	622309.56	-0.00025107746
0	0.64997935	0.64906836	-4.1143902e-10	0.05911429	0.05911429	0	48833.746	48765.3	-3.294621e-05	622741.9	286293.44	-0.00040571284	287229.2	622402.3	-0.00020820888
0	0.6498656	0.6489499	-3.4344655e-10	0.058972668	0.058972668	0	48825.2	48756.406	-2.5500229e-05	622839.94	286032.4	-0.00028322064	286971.78	622497.56	-0.00019195222
0	0.6497563	0.6488362	-8.5383214e-11	0.058831364	0.058831364	0	48816.992	48747.855	1.472954e-07	622934.06	285781.84	-7.4075004e-05	286724.88	622588.8	7.681971e-05
0	0.64964455	0.64871967	-3.8755885e-10	0.05868988	0.05868988	0	48808.594	48739.105	-2.7892427e-05	623030.2	285525.44	-0.0002826741	286472.1	622682.06	-0.00023707513
0	0.649533	0.6486036	-2.8209882e-10	0.05854817	0.05854817	0	48800.207	48730.383	-2.3390901e-05	623125.6	285270.25	-0.00024045033	286220.47	622774.8	-0.00019541717
0	0.6494191	0.6484847	-2.7246594e-10	0.05840688	0.05840688	0	48791.652	48721.45	-1.6236938e-05	623223.94	285008.56	-0.00013214957	285962.8	622870	-0.00017041057
0	0.64930797	0.6483693	-2.320066e-10	0.05826568	0.05826568	0	48783.305	48712.777	-1.4758325e-05	623318	284755.44	-0.00019363573	285713.1	622961.56	-8.137182e-05
0	0.64919466	0.64825135	-2.3809175e-11	0.058124352	0.058124352	0	48774.793	48703.918	-1.697454e-06	623414.5	284496.75	-2.544399e-06	285458.1	623055.1	-2.9086063e-05
0	0.64907897	0.6481305	-3.9780076e-10	0.057982735	0.057982735	0	48766.098	48694.836	-3.462774e-05	623513.8	284231.4	-0.00033656484	285196.78	623151.25	-0.00030869068
0	0.64896816	0.648015	-3.1772363e-10	0.05784144	0.05784144	0	48757.777	48686.156	-2.251687e-05	623607.9	283978.34	-0.00021316411	284947.56	623242.56	-0.00020641666
0	0.6488518	0.6478936	-2.5556207e-10	0.057699878	0.057699878	0	48749.023	48677.043	-2.390008e-05	623706.9	283712.44	-0.0002928892	284685.47	623338.6	-0.00015246641
0	0.64874053	0.6477776	-2.4145164e-10	0.057558257	0.057558257	0	48740.664	48668.324	-2.1413714e-05	623801	283458.88	-0.00014128028	284435.7	623429.8	-0.00025774425
0	0.64862436	0.6476573	-2.5148109e-10	0.057416957	0.057416957	0	48731.945	48659.273	-2.1941503e-05	623897.9	283196	-0.00029580938	284176.28	623524.06	-0.000113049966
0	0.64851046	0.64753765	-4.5133436e-10	0.05727573	0.05727573	0	48723.383	48650.293	-3.006031e-05	623995.9	282934	-0.00030448835	283918.72	623618.7	-0.0002556574
0	0.6483952	0.6474171	-3.6098213e-10	0.05713443	0.05713443	0	48714.727	48641.242	-2.4875431e-05	624093.7	282670.7	-0.00024069347	283659.62	623713.3	-0.0002228369
0	0.6482817	0.64729893	-1.1172757e-10	0.05699281	0.05699281	0	48706.195	48632.36	-1.1832996e-05	624188.6	282413.03	-0.00011868071	283405.75	623805.44	-0.000101816084
0	0.64816517	0.6471777	-4.2740636e-10	0.056851286	0.056851286	0	48697.445	48623.258	-3.5198318e-05	624285.9	282149	-0.00033527613	283145.38	623899.9	-0.00032061158
0	0.64804846	0.64705616	-4.5047902e-10	0.056709964	0.056709964	0	48688.68	48614.133	-3.5838613e-05	624383.2	281884.4	-0.00036563425	282884.72	623994.25	-0.00030218475
0	0.64793354	0.64693564	-1.3433446e-10	0.056568343	0.056568343	0	48680.043	48605.062	-1.0245387e-05	624481	281621.12	-6.333026e-05	282626	624088.7	-0.00012758291
0	0.64781785	0.6468147	-3.2728192e-10	0.05642702	0.05642702	0	48671.35	48595.98	-2.2072194e-05	624577.9	281358.1	-0.00015491055	282367.16	624182.5	-0.0002563841
0	0.6476993	0.64669067	-2.4977595e-10	0.05628581	0.05628581	0	48662.438	48586.664	-1.3466223e-05	624677.2	281088.44	-0.00014983806	282101.78	624278.6	-0.0001010924
0	0.647584	0.64657056	-4.2034945e-10	0.056144506	0.056144506	0	48653.78	48577.637	-3.474773e-05	624772.94	280827.38	-0.00039115155	281844.8	624371.3	-0.00025633984
0	0.64746547	0.64644724	-4.1620266e-10	0.056002766	0.056002766	0	48644.883	48568.375	-3.4472796e-05	624870.5	280560.1	-0.00032420014	281581.28	624466	-0.0003181681
0	0.6473484	0.64632434	-5.4338495e-10	0.055861373	0.055861373	0	48636.082	48559.133	-3.91484e-05	624969	280292.84	-0.00028328894	281318.72	624561.1	-0.00044620482
0	0.6472295	0.64619994	-4.479533e-10	0.05572006	0.05572006	0	48627.145	48549.793	-4.2658172e-05	625068	280023.03	-0.0004307918	281053.25	624656.8	-0.00036410327
0	0.6471123	0.64607745	-1.4911151e-10	0.05557843	0.05557843	0	48618.344	48540.594	-1.31388515e-05	625164.8	279757.88	-8.155117e-05	280792.38	624750.6	-0.00016327902
0	0.6469941	0.6459541	-1.8825283e-10	0.055437095	0.055437095	0	48609.46	48531.32	-4.596569e-06	625262.4	279490.6	-0.00017124948	280529.38	624845.06	8.559673e-05
0	0.6468757	0.6458304	3.4799958e-11	0.055295892	0.055295892	0	48600.555	48522.027	2.0496172e-07	625359.5	279223.34	-6.438583e-05	280266.25	624939.25	6.8205096e-05
0	0.64675593	0.6457054	-3.5062e-10	0.055154584	0.055154584	0	48591.57	48512.637	-2.5050278e-05	625458.06	278953.06	-0.0002455321	280000.28	625034.56	-0.00022125634
0	0.64663506	0.6455784	-3.48829e-10	0.05501284	0.05501284	0	48582.48	48503.098	-3.0702256e-05	625558.56	278678.34	-0.0002658196	279730.4	625131.5	-0.0003062882
0	0.6465173	0.6454556	-2.148963e-10	0.054871462	0.054871462	0	48573.64	48493.867	-9.203182e-06	625654.56	278413.34	-7.815939e-05	279469.7	625224.5	-9.3333285e-05
0	0.64639586	0.64532816	-1.8017975e-10	0.05473016	0.05473016	0	48564.51	48484.29	-7.3901333e-06	625755	278138	-0.0001383269	279199.22	625321.4	6.186816e-07
0	0.6462773	0.64520437	-2.5369312e-10	0.054588504	0.054588504	0	48555.605	48474.992	-1.5534608e-05	625851.1	277871.56	-0.00019401974	278936.97	625414.6	-9.545312e-05
0	0.64615446	0.64507556	-3.8742132e-10	0.05444718	0.05444718	0	48546.38	48465.316	-3.0103285e-05	625952.3	277593.7	-0.00032262824	278663.97	625512.1	-0.00023831824
0	0.6460353	0.6449512	-2.5726354e-10	0.054305978	0.054305978	0	48537.426	48455.98	-1.7380527e-05	626048.5	277326.44	-0.0002918451	278400.94	625605.4	-3.20248e-05
0	0.64591235	0.64482194	-4.4371434e-11	0.054164223	0.054164223	0	48528.18	48446.27	-2.3633716e-06	626149.56	277048.03	8.0002246e-07	278127.53	625702.8	-4.4839235e-05
0	0.6457926	0.6446969	-2.656779e-10	0.0540229	0.0540229	0	48519.188	48436.867	-1.870461e-05	626246.4	276779.34	-0.00020478487	277863.28	625796.3	-0.000143758
0	0.64566994	0.64456797	-3.8628603e-10	0.053881556	0.053881556	0	48509.973	48427.18	-2.662937e-05	626346.75	276501.97	-0.0002778344	277591	625893.2	-0.000218379
0	0.64554965	0.64444226	-4.0317208e-10	0.053740222	0.053740222	0	48500.934	48417.742	-2.8523704e-05	626443.56	276232.44	-0.00029233954	277325.97	625986.75	-0.00023917295
0	0.6454244	0.6443109	-2.6506652e-10	0.053598575	0.053598575	0	48491.523	48407.87	-2.4080426e-05	626545.2	275950.44	-0.00020558818	277048.94	626084.8	-0.000243128
0	0.64530414	0.64418525	-4.0027215e-10	0.053457268	0.053457268	0	48482.492	48398.426	-3.3712036e-05	626641.56	275681.3	-0.0003211691	276784.28	626178.06	-0.00030702315
0	0.64518017	0.6440556	-1.9496207e-10	0.053315945	0.053315945	0	48473.176	48388.688	-1.4219555e-05	626740.9	275403.8	-0.00023672394	276511.4	626274.06	-2.8244162e-05
0	0.6450569	0.6439264	-1.6628239e-10	0.0531743	0.0531743	0	48463.918	48378.977	-1.3832429e-05	626840.1	275127	-0.00018648969	276239.53	626369.9	-7.1264665e-05
0	0.64493287	0.6437965	-3.6857054e-10	0.053032976	0.053032976	0	48454.6	48369.215	-2.6413643e-05	626939.5	274849.2	-0.00023971935	275966.6	626465.9	-0.00025247416
0	0.6448094	0.6436668	-4.871558e-10	0.052891634	0.052891634	0	48445.32	48359.477	-3.4800512e-05	627038.7	274572.03	-0.00030998405	275694.47	626561.56	-0.00033849088
0	0.6446851	0.643536	-2.7771016e-10	0.05275032	0.05275032	0	48435.977	48349.65	-1.7944603e-05	627139.25	274292.06	-0.00018607214	275419.9	626658.3	-0.00014830875
0	0.6445607	0.6434055	-4.4526222e-10	0.05260866	0.05260866	0	48426.637	48339.844	-3.4342684e-05	627238.56	274013.47	-0.0002946981	275146.34	626754.1	-0.00034524561
0	0.6444349	0.6432731	-5.093944e-10	0.05246734	0.05246734	0	48417.19	48329.9	-4.1562555e-05	627339.8	273730.84	-0.00038521702	274869.2	626851.5	-0.00038926225
0	0.6443111	0.6431432	-3.3962352e-10	0.052326016	0.052326016	0	48407.88	48320.14	-2.7361777e-05	627437.9	273454.25	-0.0003103371	274597.53	626946.25	-0.00019952396
0	0.6441831	0.643009	-2.0276947e-10	0.052184362	0.052184362	0	48398.26	48310.06	-1.961421e-05	627539.6	273168.2	-0.00017798545	274316.62	627044.5	-0.00018750696
0	0.64405954	0.64287966	-3.5359005e-10	0.052043013	0.052043013	0	48388.98	48300.336	-2.4079845e-05	627636.9	272893.22	-0.00029639775	274046.5	627138.25	-0.00015230762
0	0.64393204	0.64274526	-6.0694155e-10	0.051901728	0.051901728	0	48379.406	48290.246	-4.046983e-05	627738.9	272607	-0.00044167443	273765.94	627236.44	-0.0003124429
0	0.64380664	0.6426138	-2.871933e-10	0.051760413	0.051760413	0	48369.977	48280.367	-2.5805453e-05	627837.5	272327.8	-0.00018348458	273491.78	627331.5	-0.00029737587
0	0.6436789	0.6424803	-3.8630013e-10	0.05161863	0.05161863	0	48360.387	48270.332	-2.7874985e-05	627937.2	272044.53	-0.00039345658	273213.38	627427.9	-0.00012596766
0	0.6435522	0.6423468	-1.5973285e-10	0.051477425	0.051477425	0	48350.863	48260.3	-1.470804e-05	628037.75	271760.78	-4.6312838e-05	272935.25	627524.7	-0.00022775772
0	0.6434225	0.6422101	-2.1496675e-10	0.0513361	0.0513361	0	48341.12	48250.035	-2.0783587e-05	628140.75	271470.44	-0.00026382165	272650.7	627623.75	-0.00012346104
0	0.64329636	0.64207804	-5.4027927e-10	0.0511944	0.0511944	0	48331.645	48240.11	-3.6652465e-05	628238.56	271191.12	-0.0003714892	272376.3	627718.2	-0.00031149515
0	0.6431683	0.64194316	-4.8559584e-10	0.051053077	0.051053077	0	48322.02	48229.98	-3.5379784e-05	628339.4	270905.34	-0.000314518	272096.16	627815.1	-0.0003447511
0	0.643039	0.64180684	-3.3792633e-10	0.050911825	0.050911825	0	48312.31	48219.727	-2.5440148e-05	628441.56	270616.22	-0.00022243081	271813.03	627913.25	-0.00025162252
0	0.64290935	0.6416706	-3.8859513e-10	0.050770037	0.050770037	0	48302.562	48209.5	-2.9022936e-05	628542.5	270328.25	-0.00028352576	271530.47	628010.7	-0.00025728944
0	0.6427801	0.64153475	-2.3020193e-10	0.050628714	0.050628714	0	48292.855	48199.293	-1.7338178e-05	628643.25	270041.06	-0.000100732796	271248.88	628107.56	-0.00022234791
0	0.6426509	0.64139867	-3.1059755e-10	0.0504875	0.0504875	0	48283.156	48189.07	-2.4909357e-05	628744.1	269753.53	-0.0002858246	270967.16	628204.56	-0.00017833791
0	0.6425231	0.64126444	-3.1708436e-10	0.050346155	0.050346155	0	48273.543	48178.98	-1.9082767e-05	628842.75	269470.56	-0.00018489834	270689.5	628299.6	-0.00017069116
0	0.64239216	0.64112747	-3.4484715e-10	0.050204474	0.050204474	0	48263.71	48168.695	-2.4905783e-05	628942.9	269182.2	-0.00020329813	270406.25	628396.25	-0.00026079777
0	0.6422601	0.6409877	-2.9035938e-10	0.05006314	0.05006314	0	48253.79	48158.19	-2.1949516e-05	629046.94	268886.66	-0.00020498008	270117.22	628496.06	-0.0002040286
0	0.6421309	0.6408519	-3.384644e-10	0.049921803	0.049921803	0	48244.086	48147.99	-2.4400195e-05	629146.2	268601.06	-0.00031459378	269837.22	628591.56	-0.00014008101
0	0.642	0.64071405	-1.7524351e-10	0.049780127	0.049780127	0	48234.242	48137.633	-1.4025156e-05	629247.06	268310.94	-0.00017284934	269552.88	628688.7	-8.8496316e-05
0	0.6418667	0.64057344	-1.8412757e-10	0.049638797	0.049638797	0	48224.23	48127.07	-1.3118521e-05	629350.25	268015.06	-0.00010450913	269263.1	628787.8	-0.00013994223
0	0.64173555	0.64043516	-2.8913488e-10	0.04949756	0.04949756	0	48214.383	48116.68	-2.0724245e-05	629451.44	267724.25	-0.00027630798	268978.4	628885	-0.000109868924
0	0.64160484	0.6402978	-3.351813e-10	0.04935623	0.04935623	0	48204.562	48106.363	-2.052138e-05	629550.75	267436.34	-0.00022979229	268696.03	628980.7	-0.00015260438
0	0.64147127	0.6401577	-1.6239324e-10	0.04921455	0.04921455	0	48194.523	48095.832	-1.3986028e-05	629652.2	267142.3	-0.00014402595	268407.62	629078.4	-0.00011659058
0	0.6413385	0.6400172	-3.459367e-10	0.049073216	0.049073216	0	48184.547	48085.277	-2.3655346e-05	629754.7	266847.47	-0.00022352314	268119.22	629176.7	-0.00021727207
0	0.64120585	0.63987756	-3.8869524e-10	0.04893189	0.04893189	0	48174.586	48074.785	-3.0624033e-05	629855.56	266554.88	-0.00036877763	267832.66	629273.6	-0.00020187254
0	0.6410712	0.639736	-4.394517e-10	0.048790213	0.048790213	0	48164.46	48064.15	-3.1123618e-05	629957.44	266258.7	-0.00037049712	267542.22	629371.7	-0.00020946235
0	0.6409373	0.63959485	-2.3490795e-10	0.048648853	0.048648853	0	48154.406	48053.54	-1.8533548e-05	630059.25	265963.22	-0.00018234453	267252.97	629469.5	-0.00016301079
0	0.6408036	0.6394537	-1.3792025e-11	0.04850764	0.04850764	0	48144.363	48042.94	-3.62873e-06	630161.1	265667.97	-9.064109e-05	266964.06	629567.25	2.3023113e-05
0	0.6406671	0.63930905	-5.4054466e-10	0.048366304	0.048366304	0	48134.1	48032.07	-4.0076935e-05	630265.75	265365.2	-0.00036096247	266668.1	629667.5	-0.0003858337
0	0.64053446	0.63916945	-3.083249e-10	0.048224516	0.048224516	0	48124.137	48021.582	-2.2079048e-05	630365.4	265073.9	-0.0001465841	266382.88	629763.2	-0.00026483825
0	0.6403981	0.6390256	-9.956262e-11	0.0480833	0.0480833	0	48113.895	48010.78	-4.820007e-06	630468.1	264774	-5.3682008e-05	266089.25	629861.94	-3.6134305e-05
0	0.6402633	0.6388833	-2.557192e-10	0.047941964	0.047941964	0	48103.766	48000.086	-1.4178142e-05	630569.75	264477.16	-0.00016734582	265798.8	629959.5	-9.685058e-05
0	0.64012635	0.6387392	-4.737177e-10	0.04780026	0.04780026	0	48093.477	47989.26	-3.8518257e-05	630672.06	264177.1	-0.00030737653	265504.88	630057.9	-0.0004103751
0	0.6399902	0.6385952	-2.6196084e-10	0.04765894	0.04765894	0	48083.25	47978.445	-1.4538268e-05	630774.7	263877.12	-0.0001636447	265211.6	630156.2	-0.000107262305
0	0.639852	0.6384487	-3.950695e-10	0.047517724	0.047517724	0	48072.867	47967.438	-2.55874e-05	630879.4	263571.8	-0.00027160192	264913.38	630256.5	-0.00020519535
0	0.63971704	0.63830656	-2.0547411e-10	0.047376387	0.047376387	0	48062.72	47956.75	-1.0152216e-05	630979.56	263276.44	-0.00016830413	264624.2	630352.7	-2.0872913e-05
0	0.6395769	0.6381583	-2.325625e-10	0.047234587	0.047234587	0	48052.195	47945.62	-2.03755e-05	631084.8	262968.2	-0.0002680506	264322.88	630453.5	-0.000111627785
0	0.63944167	0.63801575	-4.945152e-10	0.047093373	0.047093373	0	48042.035	47934.906	-3.7481266e-05	631184.8	262672.5	-0.0004247593	264033.53	630549.5	-0.000273669
0	0.6393026	0.63786894	-3.0840488e-10	0.04695201	0.04695201	0	48031.586	47923.88	-1.7450151e-05	631288.06	262367.94	-0.00023997526	263735.6	630648.6	-8.519194e-05
0	0.6391641	0.63772225	-4.2892377e-11	0.046810348	0.046810348	0	48021.18	47912.863	-1.8936564e-06	631391.4	262063.64	-3.632647e-05	263438.3	630747.56	1.0399579e-06
0	0.6390256	0.63757604	-2.4849595e-10	0.04666901	0.04666901	0	48010.773	47901.867	-1.3856714e-05	631493.8	261760.66	-9.237135e-05	263142	630845.75	-0.00016583553
0	0.63888454	0.6374265	-3.5801023e-10	0.046527795	0.046527795	0	48000.18	47890.63	-2.9860128e-05	631599.2	261450.44	-0.00029483557	262839.22	630946.56	-0.00026158
0	0.638746	0.63728034	-1.806258e-10	0.046386022	0.046386022	0	47989.77	47879.652	-1.0822092e-05	631700.56	261148.66	-0.00016871333	262543.88	631043.9	-3.2946205e-05
0	0.63860667	0.637133	-5.5273774e-10	0.046244673	0.046244673	0	47979.305	47868.58	-4.2797994e-05	631803.3	260843.78	-0.00041760172	262246.03	631142.3	-0.00037989885
0	0.63846445	0.6369822	-2.729332e-10	0.046103455	0.046103455	0	47968.61	47857.25	-1.7361934e-05	631908.7	260531.89	-0.00019704085	261941.47	631243.1	-0.00012648251
0	0.6383232	0.6368341	-2.7250283e-10	0.045962088	0.045962088	0	47958.004	47846.125	-2.7138653e-05	632009.6	260227.4	-0.00025971004	261642.86	631340.3	-0.00024599332
0	0.63818395	0.63668597	-3.5238287e-10	0.045820434	0.045820434	0	47947.54	47834.992	-2.8156952e-05	632113.3	259921.05	-0.0002267613	261344.22	631439.25	-0.0002979171
0	0.6380407	0.63653386	-3.7540726e-10	0.045679096	0.045679096	0	47936.785	47823.574	-2.2827851e-05	632219.2	259606.97	-0.00025407973	261037.89	631540.44	-0.0001712959
0	0.637901	0.6363862	-1.5474064e-10	0.04553775	0.04553775	0	47926.29	47812.477	-1.1758328e-05	632320.5	259303.12	-0.00010415998	260740.94	631637.6	-0.00011494544
0	0.6377587	0.6362356	-6.6600836e-11	0.045396097	0.045396097	0	47915.586	47801.164	-6.9210378e-06	632424	258993.19	-1.2225924e-05	260438.14	631736.7	-0.000116741125
0	0.6376142	0.63608223	-4.5121623e-10	0.04525476	0.04525476	0	47904.734	47789.637	-3.3591175e-05	632530	258677.12	-0.00028007035	260129.89	631838.06	-0.00034586972
0	0.63747364	0.63593376	-4.778559e-10	0.04511351	0.04511351	0	47894.17	47778.484	-3.5562167e-05	632631.1	258372.31	-0.00032447785	259831.92	631934.9	-0.00033818977