# t (s)	mx ()	my ()	mz ()	B_extx (T)	B_exty (T)	B_extz (T)	m_fullx (A/m)	m_fully (A/m)	m_fullz (A/m)	m_full.region1x (A/m)	m_full.region1y (A/m)	m_full.region1z (A/m)	m_full.region2x (A/m)	m_full.region2y (A/m)	m_full.region2z (A/m)
0	0.6512356	0.6512379	-2.9810454e-10	0.070709854	0.070709854	0	11449.488	11449.529	-3.835027e-06	634130	277602.06	-0.0001936015	277599.94	634131	-0.00011178407
0	0.65098417	0.6509838	-3.3289416e-10	0.070357755	0.070357755	0	11445.066	11445.061	-5.4553916e-06	634371.44	277006.3	-0.00026292077	277006.38	634370.94	-0.00017149544
0	0.6507284	0.65072787	-4.5320867e-10	0.0700046	0.0700046	0	11440.571	11440.562	-5.459632e-06	634617.5	276401.94	-0.000290715	276402.22	634617.06	-0.00014403889
0	0.65046996	0.65046936	-1.9707115e-10	0.069649294	0.069649294	0	11436.027	11436.018	-2.251411e-06	634865.25	275792.44	-0.00018842168	275792.62	634864.75	9.140441e-06
0	0.6502096	0.65020907	-3.5007652e-10	0.069297224	0.069297224	0	11431.451	11431.44	-7.3725414e-06	635112.7	275180.56	-0.00030004795	275180.8	635112.2	-0.0002870321
0	0.6499482	0.6499477	-2.9879174e-10	0.06894197	0.06894197	0	11426.854	11426.846	-5.6286317e-06	635361.25	274566.06	-0.00019269253	274566.3	635360.7	-0.00025551888
0	0.6496852	0.6496846	-3.4363817e-10	0.068588786	0.068588786	0	11422.229	11422.219	-3.2947403e-06	635610.5	273948.47	-0.00025704945	273948.72	635609.94	-5.3127656e-06
0	0.6494199	0.6494194	-4.713961e-10	0.06823664	0.06823664	0	11417.565	11417.557	-8.139819e-06	635860.44	273327.12	-0.00031884576	273327.38	635859.94	-0.00032933307
0	0.6491532	0.6491525	-3.6588715e-10	0.067881495	0.067881495	0	11412.875	11412.865	-6.5925533e-06	636111.06	272703.03	-0.0003355339	272703.28	636110.56	-0.00018943517
0	0.6488841	0.6488835	-3.1680586e-10	0.06752796	0.06752796	0	11408.146	11408.138	-7.715833e-06	636362.25	272075.3	-0.0003390195	272075.56	636361.75	-0.00027539703
0	0.64861435	0.6486138	-8.241367e-11	0.06717612	0.06717612	0	11403.403	11403.394	-7.656376e-06	636614	271445.75	-0.00033298266	271446.03	636613.44	-0.00027669928
0	0.64834243	0.6483418	-3.416494e-10	0.066821046	0.066821046	0	11398.622	11398.612	-5.6465374e-06	636866.1	270812.9	-0.00027772284	270813.22	636865.6	-0.00017191445
0	0.64806926	0.6480686	-2.3925006e-10	0.06646746	0.06646746	0	11393.819	11393.809	-4.316648e-06	637118.75	270177.88	-0.0002500615	270178.12	637118.2	-9.3675815e-05
0	0.64779377	0.6477932	-3.9140127e-10	0.06611561	0.06611561	0	11388.976	11388.968	-6.0141165e-06	637372.4	269538.62	-0.00033806992	269538.94	637371.8	-0.00014083789
0	0.6475151	0.64751446	-3.5520642e-10	0.06576051	0.06576051	0	11384.077	11384.068	-7.1696186e-06	637628.94	268891.9	-0.00024598732	268892.2	637628.44	-0.00032493388
0	0.6472359	0.6472353	-4.523014e-10	0.06540694	0.06540694	0	11379.166	11379.157	-9.550484e-06	637884	268245.9	-0.00036542604	268246.2	637883.4	-0.0003950849
0	0.6469568	0.6469562	-6.516925e-10	0.06505365	0.06505365	0	11374.263	11374.252	-1.0782007e-05	638136.6	267602.62	-0.0002997924	267602.94	638136.1	-0.00055878545
0	0.64667374	0.6466731	-5.1538823e-10	0.06470004	0.06470004	0	11369.287	11369.275	-7.5224934e-06	638393	266949.88	-0.0003637731	266950.2	638392.44	-0.0002352477
0	0.6463901	0.6463894	-2.3004845e-10	0.06434636	0.06434636	0	11364.299	11364.287	-4.44291e-06	638649.06	266296.75	-0.00022347967	266297.06	638648.5	-0.00013031201
0	0.64610213	0.64610153	-5.113696e-10	0.06399309	0.06399309	0	11359.236	11359.225	-7.1035684e-06	638909.2	265633.53	-0.00034063892	265633.8	638908.56	-0.00022502264
0	0.6458158	0.64581513	-4.3529205e-10	0.06363921	0.06363921	0	11354.201	11354.19	-6.8848617e-06	639164.1	264977.72	-0.0003692175	264977.97	639163.5	-0.00017902831
0	0.64552605	0.6455254	-1.627073e-10	0.063285835	0.063285835	0	11349.107	11349.096	-6.6815423e-06	639422.9	264313.3	-0.0003315203	264313.62	639422.2	-0.00020053501
0	0.6452323	0.6452317	-2.9218483e-10	0.06293256	0.06293256	0	11343.943	11343.932	-6.1993405e-06	639684.7	263640.28	-0.00025456795	263640.62	639684.06	-0.0002390894
0	0.64494014	0.64493954	-3.6378803e-10	0.06257875	0.06257875	0	11338.807	11338.796	-7.256213e-06	639942.1	262973.78	-0.00042317688	262974.1	639941.5	-0.00015463986
0	0.6446434	0.6446428	-1.3719754e-10	0.06222535	0.06222535	0	11333.591	11333.578	-3.4539596e-06	640203	262297.47	-0.00019323819	262297.8	640202.44	-8.180278e-05
0	0.6443463	0.6443455	-5.279225e-10	0.061871916	0.061871916	0	11328.365	11328.3545	-7.99956e-06	640463.7	261620.83	-0.00034550214	261621.17	640463.06	-0.00029150775
0	0.64404696	0.64404625	-3.8321774e-10	0.06151828	0.06151828	0	11323.104	11323.092	-7.5047756e-06	640725.44	260939.95	-0.0002664311	260940.33	640724.9	-0.00033117877
0	0.64374584	0.6437451	-4.694904e-10	0.06116485	0.06116485	0	11317.81	11317.797	-6.909789e-06	640987.7	260256.16	-0.00031979897	260256.47	640987	-0.00023043182
0	0.64344245	0.64344174	-2.927904e-10	0.06081137	0.06081137	0	11312.475	11312.463	-7.514632e-06	641250.3	259568.73	-0.000323529	259569.06	641249.7	-0.00027486586
0	0.64313686	0.6431362	-4.1804304e-10	0.060457736	0.060457736	0	11307.104	11307.091	-5.60198e-06	641514.2	258877.14	-0.00030012667	258877.44	641513.5	-0.00014596246
0	0.6428279	0.6428272	-1.2132e-10	0.06010433	0.06010433	0	11301.67	11301.657	-3.8862436e-06	641781.1	258177.6	-0.00023189075	258177.94	641780.5	-7.757323e-05
0	0.6425184	0.64251775	-2.558914e-10	0.05975042	0.05975042	0	11296.2295	11296.217	-5.3979556e-06	642046.1	257479.25	-0.00020134731	257479.61	642045.5	-0.00022849526
0	0.64220655	0.6422059	-2.5775784e-10	0.05939726	0.05939726	0	11290.747	11290.734	-4.774397e-06	642311.75	256777.06	-0.000178355	256777.44	642311.1	-0.00020183317
0	0.641895	0.64189434	-2.7154679e-10	0.059043832	0.059043832	0	11285.269	11285.256	-4.918024e-06	642575.2	256077.39	-0.00020068648	256077.77	642574.56	-0.00019093881
0	0.64157903	0.6415783	-2.7236352e-10	0.058689874	0.058689874	0	11279.713	11279.702	-8.595565e-06	642842.1	255368.1	-0.00031858374	255368.42	642841.5	-0.0003658865
0	0.64126146	0.6412608	-2.848607e-10	0.058336806	0.058336806	0	11274.131	11274.119	-7.0858237e-06	643109.44	254656.19	-0.00031820568	254656.56	643108.8	-0.00024604288
0	0.6409412	0.64094055	-4.0387765e-10	0.05798323	0.05798323	0	11268.502	11268.489	-6.8805166e-06	643377.7	253939.67	-0.00031473188	253940.06	643377.06	-0.00023316793
0	0.64061934	0.6406186	-1.3049774e-10	0.057629295	0.057629295	0	11262.843	11262.829	-5.3138815e-06	643646.75	253219.98	-0.00028892895	253220.38	643646.1	-0.0001342187
0	0.6402934	0.6402927	-1.217531e-10	0.05727468	0.05727468	0	11257.112	11257.098	-5.1627576e-06	643918.8	252491.64	-0.00021356545	252492.02	643918.06	-0.00019754811
0	0.63996714	0.6399664	-3.2877198e-10	0.056922715	0.056922715	0	11251.376	11251.362	-2.2147592e-06	644188.75	251764.94	-0.00017318367	251765.3	644188.06	-3.1789916e-06
0	0.6396385	0.63963765	-3.9566794e-10	0.05656864	0.05656864	0	11245.597	11245.583	-1.0409259e-05	644459.7	251033.73	-0.00034182725	251034.16	644459.06	-0.00048706846
0	0.639309	0.6393083	-3.7949902e-10	0.05621419	0.05621419	0	11239.804	11239.793	-8.160004e-06	644728.8	250303.36	-0.0003118379	250303.8	644728.2	-0.00033794835
0	0.63897425	0.6389736	-2.5677835e-10	0.055861782	0.055861782	0	11233.921	11233.907	-6.004438e-06	645003.5	249560.14	-0.00024502946	249560.6	645002.8	-0.00023310767
0	0.6386406	0.6386398	-4.4853013e-10	0.055508047	0.055508047	0	11228.053	11228.039	-7.137797e-06	645273.7	248822.64	-0.00025903145	248823.08	645273.06	-0.00030935573
0	0.63830096	0.63830024	-1.1596049e-10	0.055153705	0.055153705	0	11222.081	11222.068	-6.8661566e-06	645550.06	248070.77	-0.00033415854	248071.17	645549.5	-0.00021259776
0	0.63796306	0.6379622	-3.0357952e-10	0.054801274	0.054801274	0	11216.141	11216.127	-4.9627165e-06	645821.44	247326.44	-0.00024860524	247326.92	645820.75	-0.00014657892
0	0.63761866	0.6376179	-2.6145763e-10	0.05444749	0.05444749	0	11210.085	11210.071	-6.982981e-06	646099.3	246566.38	-0.00030435208	246566.81	646098.56	-0.00025170698
0	0.63727576	0.6372749	-2.318303e-10	0.054093115	0.054093115	0	11204.058	11204.043	-4.7835647e-06	646372.25	245813.33	-0.00020832705	245813.8	646371.56	-0.00017259119
0	0.63692856	0.6369278	-3.5762637e-10	0.053740732	0.053740732	0	11197.953	11197.938	-4.449905e-06	646648.3	245051.16	-0.00017627697	245051.61	646647.7	-0.00017807174
0	0.63657945	0.6365786	-3.5456887e-10	0.05338643	0.05338643	0	11191.814	11191.803	-8.452985e-06	646925.4	244285.38	-0.00033474586	244285.83	646924.75	-0.0003383706
0	0.63622534	0.6362245	-2.9095604e-10	0.053032607	0.053032607	0	11185.591	11185.575	-6.0421326e-06	647206.06	243508.94	-0.00026376688	243509.4	647205.44	-0.00021737193
0	0.6358727	0.6358719	-3.033721e-10	0.052680116	0.052680116	0	11179.391	11179.376	-8.174642e-06	647482	242739.39	-0.0003210783	242739.88	647481.3	-0.00032987352
0	0.6355163	0.63551545	-3.362887e-10	0.052325986	0.052325986	0	11173.125	11173.109	-4.80385e-06	647760.56	241961.72	-0.00021825034	241962.22	647759.9	-0.0001642832
0	0.63515717	0.6351564	-4.5358986e-10	0.051971667	0.051971667	0	11166.811	11166.795	-6.938688e-06	648040.44	241179.06	-0.00033957086	241179.52	648039.8	-0.00021296115
0	0.6347933	0.63479245	-2.8683933e-10	0.05161957	0.05161957	0	11160.413	11160.398	-5.538225e-06	648323.94	240386.2	-0.00021941317	240386.67	648323.25	-0.00022159914
0	0.6344311	0.6344303	-2.4835795e-10	0.051265568	0.051265568	0	11154.046	11154.029	-5.040882e-06	648602.25	239600.84	-0.0002332541	239601.36	648601.44	-0.00016815445
0	0.63406426	0.6340634	-2.944744e-10	0.05091117	0.05091117	0	11147.596	11147.581	-6.282177e-06	648884.06	238805.52	-0.0003008604	238806	648883.3	-0.00019939325
0	0.63369447	0.63369364	-3.4485614e-10	0.05055905	0.05055905	0	11141.096	11141.08	-5.8729247e-06	649167	238004.9	-0.00025837636	238005.4	649166.25	-0.0002092883
0	0.6333205	0.63331974	-2.3072465e-10	0.050205022	0.050205022	0	11134.5205	11134.504	-2.067399e-06	649453.2	237195.02	-0.00017330334	237195.53	649452.56	8.675076e-06
0	0.63294786	0.6329471	-3.662208e-10	0.04985065	0.04985065	0	11127.969	11127.955	-5.052544e-06	649734.4	236392.27	-0.00021316255	236392.78	649733.6	-0.00018917468
0	0.63256973	0.63256884	-4.3408868e-10	0.049496647	0.049496647	0	11121.321	11121.306	-7.660448e-06	650019.4	235577.77	-0.00038581702	235578.3	650018.6	-0.00022418925
0	0.63219047	0.6321895	-4.3232876e-10	0.04914451	0.04914451	0	11114.652	11114.636	-5.1115812e-06	650304.94	234761.16	-0.0002916083	234761.66	650304.3	-0.00011543005
0	0.63180715	0.63180625	-4.6936594e-10	0.04879003	0.04879003	0	11107.913	11107.896	-7.48458e-06	650591.56	233937.97	-0.0003060792	233938.5	650590.9	-0.00028992255
0	0.63142157	0.6314207	-5.279115e-10	0.048436143	0.048436143	0	11101.135	11101.119	-5.620902e-06	650878.6	233111.05	-0.00032206965	233111.58	650877.94	-0.00012552625
0	0.6310339	0.631033	-3.209839e-10	0.048083518	0.048083518	0	11094.318	11094.305	-6.2783356e-06	651165.8	232281.12	-0.00036077297	232281.66	651165.1	-0.00013917481
0	0.63064265	0.6306417	-3.475317e-10	0.047729515	0.047729515	0	11087.439	11087.424	-5.897576e-06	651454.6	231444.39	-0.00029320765	231444.95	651453.94	-0.00017642001
0	0.6302468	0.6302458	-4.5187115e-10	0.04737567	0.04737567	0	11080.479	11080.463	-8.325975e-06	651746.9	230598.05	-0.0003528483	230598.61	651746.2	-0.00031015425
0	0.629852	0.62985104	-2.1668786e-10	0.047023006	0.047023006	0	11073.538	11073.522	-5.607542e-06	652033.8	229758.39	-0.00036236233	229758.97	652033.06	-8.41697e-05
0	0.6294524	0.6294516	-3.0252983e-10	0.04666901	0.04666901	0	11066.514	11066.498	-2.5719717e-06	652324.75	228908.11	-0.00012074205	228908.69	652324	-8.4065636e-05
0	0.6290489	0.629048	-3.1326017e-10	0.046315055	0.046315055	0	11059.42	11059.403	-7.979428e-06	652616.75	228051.12	-0.00042327444	228051.73	652616	-0.00021213239
0	0.6286424	0.6286414	-3.6478023e-10	0.04596245	0.04596245	0	11052.274	11052.257	-5.4729144e-06	652911.4	227187.36	-0.00028485619	227187.95	652910.75	-0.0001509554
0	0.628234	0.6282331	-1.2490653e-10	0.045608502	0.045608502	0	11045.093	11045.076	-4.3654936e-06	653204.5	226322.53	-0.00012353322	226323.12	653203.75	-0.00022409376
0	0.62782234	0.62782145	-2.247706e-10	0.045254562	0.045254562	0	11037.856	11037.84	-5.4758693e-06	653498.44	225452.27	-0.00035789702	225452.86	653497.75	-7.8149846e-05
0	0.6274088	0.62740785	-3.5058767e-10	0.044901803	0.044901803	0	11030.584	11030.568	-6.230034e-06	653790.9	224580.75	-0.00025831655	224581.36	653790.25	-0.00023778496
0	0.6269901	0.6269891	-2.5094413e-10	0.044547983	0.044547983	0	11023.223	11023.207	-5.745159e-06	654088.6	223696.84	-0.00029286253	223697.47	654087.94	-0.00016462806
0	0.62657094	0.6265699	-3.335692e-10	0.044193532	0.044193532	0	11015.854	11015.837	-7.0579204e-06	654382.25	222816.44	-0.0003285597	222817.08	654381.5	-0.00023346688
0	0.6261463	0.6261454	-2.5720354e-10	0.043841247	0.043841247	0	11008.389	11008.373	-4.292451e-06	654679.75	221924.45	-0.00029706687	221925.1	654679.06	-4.4743665e-05
0	0.6257192	0.6257182	-2.492436e-10	0.04348734	0.04348734	0	11000.88	11000.862	-7.2752387e-06	654977.44	221028.78	-0.00022309189	221029.44	654976.6	-0.00035623988
0	0.6252892	0.62528825	-4.6047313e-10	0.043133043	0.043133043	0	10993.319	10993.303	-6.280129e-06	655276.2	220128.02	-0.00033480063	220128.64	655275.5	-0.00016528995
0	0.6248552	0.6248542	-3.426686e-10	0.042780712	0.042780712	0	10985.69	10985.673	-3.7040863e-06	655575.94	219220.77	-0.00017452921	219221.4	655575.25	-0.00012042948
0	0.6244184	0.62441736	-3.1762146e-10	0.042426832	0.042426832	0	10978.01	10977.992	-7.558124e-06	655876.3	218308.8	-0.00039486508	218309.45	655875.56	-0.00020699298
0	0.6239767	0.6239757	-3.5863834e-10	0.042072512	0.042072512	0	10970.244	10970.226	-6.9850066e-06	656179.94	217386.67	-0.00034603846	217387.36	656179.2	-0.00021018194
0	0.62353456	0.6235336	-1.8682746e-10	0.041718654	0.041718654	0	10962.474	10962.455	-4.755336e-06	656479.5	216468.25	-0.000253437	216468.9	656478.8	-0.00012523332
0	0.6230858	0.6230847	-2.6179697e-10	0.041366298	0.041366298	0	10954.581	10954.5625	-5.7239527e-06	656784.9	215534.48	-0.00019943013	215535.17	656784.1	-0.00025637177
0	0.62263536	0.6226343	-2.090774e-10	0.041011877	0.041011877	0	10946.662	10946.644	-4.856258e-06	657088.56	214600.23	-0.00025876288	214600.9	657087.9	-0.00012794393
0	0.62218136	0.6221802	-2.7831168e-10	0.04065816	0.04065816	0	10938.679	10938.662	-3.9472825e-06	657393.2	213660.06	-0.00018172881	213660.73	657392.4	-0.00013259573
0	0.62172526	0.6217242	-3.5133277e-10	0.040305205	0.040305205	0	10930.662	10930.643	-6.1369356e-06	657695.8	212718.78	-0.0003025178	212719.52	657695.06	-0.0001861702
0	0.62126255	0.62126154	-3.4248548e-10	0.039951347	0.039951347	0	10922.527	10922.508	-3.5857042e-06	658005.06	211761.86	-0.0001940366	211762.56	658004.25	-9.149526e-05
0	0.6207975	0.62079644	-2.116768e-10	0.039597534	0.039597534	0	10914.352	10914.334	-2.2965808e-06	658312.3	210803.5	-0.0003132416	210804.2	658311.56	0.00013036345
0	0.6203292	0.6203282	-2.56673e-10	0.039244674	0.039244674	0	10906.116	10906.1	-3.65882e-06	658620.3	209839.88	-0.0003301537	209840.58	658619.56	3.8799597e-05
0	0.6198569	0.61985576	-2.9480962e-10	0.038890842	0.038890842	0	10897.814	10897.796	-4.449313e-06	658929.44	208869.61	-0.0002492996	208870.31	658928.6	-0.00010500198
0	0.61938083	0.6193798	-1.9704921e-10	0.038537055	0.038537055	0	10889.443	10889.425	-4.8667175e-06	659239.25	207893.19	-0.00029393085	207893.89	659238.5	-9.360887e-05
0	0.61890125	0.6189002	-3.7020098e-10	0.038184114	0.038184114	0	10881.01	10880.993	-6.1236105e-06	659549.94	206910.97	-0.0003142922	206911.7	659549.2	-0.00017333466
0	0.61841923	0.6184181	-4.5419826e-10	0.037830334	0.037830334	0	10872.537	10872.519	-6.610225e-06	659859.2	205926.98	-0.00035856297	205927.73	659858.4	-0.00016781331
0	0.61792976	0.6179286	-3.4470288e-10	0.037476543	0.037476543	0	10863.933	10863.913	-5.7374937e-06	660174.56	204926.4	-0.00029524456	204927.12	660173.7	-0.00016163563
0	0.6174402	0.61743915	-4.0721088e-10	0.03712342	0.03712342	0	10855.326	10855.307	-5.1830757e-06	660485.06	203930.6	-0.00022682855	203931.34	660484.25	-0.00018590299
0	0.6169427	0.6169416	-3.367556e-10	0.0367698	0.0367698	0	10846.578	10846.559	-4.357261e-06	660802.6	202916.36	-0.00023628211	202917.11	660801.9	-0.00011068926
0	0.61644304	0.6164419	-5.278509e-10	0.03641543	0.03641543	0	10837.794	10837.773	-8.296027e-06	661118.1	201901.3	-0.00039482542	201902.06	661117.4	-0.0002657924
0	0.615939	0.615938	-4.517974e-10	0.036062844	0.036062844	0	10828.935	10828.916	-7.7206405e-06	661434.56	200879.36	-0.00037488373	200880.12	661433.9	-0.00023991572
0	0.61543304	0.6154319	-2.0372001e-10	0.03570913	0.03570913	0	10820.036	10820.017	-5.9878457e-06	661749	199856.4	-0.00019011008	199857.14	661748.25	-0.0002867058
0	0.614919	0.61491793	-3.03743e-10	0.035354927	0.035354927	0	10810.998	10810.98	-7.5706716e-06	662070.4	198815.34	-0.00029984338	198816.1	662069.6	-0.00030301398
0	0.6144025	0.6144014	-3.5975262e-10	0.0350023	0.0350023	0	10801.917	10801.897	-6.1499313e-06	662389.7	197772.89	-0.00028123363	197773.66	662389	-0.0002084892
0	0.61388344	0.61388236	-4.4378193e-10	0.034648612	0.034648612	0	10792.795	10792.775	-5.954057e-06	662707.2	196729	-0.00032097372	196729.77	662706.4	-0.00015315152
0	0.61335814	0.61335707	-5.209169e-10	0.034294393	0.034294393	0	10783.557	10783.538	-7.5431662e-06	663028.7	195671.84	-0.0003333712	195672.62	663028	-0.00026729578
0	0.6128278	0.61282665	-4.8509796e-10	0.033940747	0.033940747	0	10774.234	10774.213	-6.474668e-06	663351.7	194606.47	-0.0003936524	194607.27	663350.94	-0.000121929406
0	0.6122938	0.6122927	-3.6137623e-10	0.03358806	0.03358806	0	10764.846	10764.826	-4.325425e-06	663674.9	193535.73	-0.00029171002	193536.52	663674	-5.2726253e-05
0	0.61175275	0.6117516	-6.1403205e-10	0.03323373	0.03323373	0	10755.332	10755.314	-7.897361e-06	664002.2	192450.94	-0.00035506353	192451.72	664001.4	-0.0002738081
0	0.611209	0.6112079	-4.848025e-10	0.032880254	0.032880254	0	10745.773	10745.755	-5.683954e-06	664327.7	191364.11	-0.0002415829	191364.9	664327	-0.00021103387
0	0.6106622	0.61066127	-5.5505134e-10	0.032526825	0.032526825	0	10736.16	10736.142	-8.324234e-06	664651.75	190274.55	-0.00039259664	190275.31	664651	-0.00027026725
0	0.6101089	0.6101078	-5.3339333e-10	0.03217318	0.03217318	0	10726.433	10726.412	-9.081131e-06	664979.6	189172.08	-0.0003495291	189172.86	664978.8	-0.00037360695
0	0.60955083	0.6095497	-2.3206033e-10	0.031819604	0.031819604	0	10716.62	10716.601	-6.9324306e-06	665308.25	188062.12	-0.00025285067	188062.94	665307.44	-0.00029918304
0	0.60898554	0.6089844	-2.9654768e-10	0.03146628	0.03146628	0	10706.682	10706.662	-7.642896e-06	665640.9	186938.06	-0.00032678584	186938.89	665640.1	-0.0002818227
0	0.60841864	0.6084176	-3.3866113e-10	0.031112675	0.031112675	0	10696.717	10696.697	-4.2012643e-06	665969.44	185815.92	-0.00026572894	185816.69	665968.8	-6.882029e-05
0	0.6078451	0.607844	-5.532281e-10	0.03075914	0.03075914	0	10686.631	10686.612	-5.8220708e-06	666301.8	184680.48	-0.00033377818	184681.28	666301.1	-0.0001298369
0	0.6072643	0.6072632	-3.4982345e-10	0.030405685	0.030405685	0	10676.421	10676.402	-6.3678954e-06	666637.8	183531.34	-0.0002653046	183532.16	666637.2	-0.00024177486
0	0.60668033	0.6066794	-5.21942e-10	0.030052165	0.030052165	0	10666.154	10666.137	-9.177723e-06	666972.4	182379.38	-0.00049124623	182380.19	666971.6	-0.00023958152
0	0.6060908	0.6060898	-3.110543e-10	0.02969863	0.02969863	0	10655.789	10655.77	-4.459511e-06	667308.06	181218.2	-0.00026448604	181218.97	667307.4	-9.062757e-05
0	0.6054978	0.6054967	-1.8069894e-10	0.029344937	0.029344937	0	10645.362	10645.344	-3.8731096e-06	667642.25	180053.77	-0.00016761081	180054.56	667641.5	-0.00014080729
0	0.604897	0.604896	-2.758126e-10	0.028991615	0.028991615	0	10634.803	10634.782	-6.09114e-06	667980.25	178874.67	-0.00027864345	178875.47	667979.7	-0.00020639783
0	0.6042905	0.6042895	-3.3098868e-10	0.02863734	0.02863734	0	10624.139	10624.119	-4.6764735e-06	668319.9	177686.11	-0.00028454952	177686.9	668319.1	-8.7840934e-05
0	0.6036761	0.60367507	-3.5309292e-10	0.02828432	0.02828432	0	10613.334	10613.317	-8.138355e-06	668663.3	176482.42	-0.00030184994	176483.23	668662.7	-0.00034621227
0	0.60305756	0.60305643	-3.7681944e-10	0.027930891	0.027930891	0	10602.459	10602.442	-6.5018285e-06	669005.5	175274.23	-0.00035156286	175274.97	669004.8	-0.00016618175
0	0.60243326	0.6024323	-2.4416916e-10	0.027576853	0.027576853	0	10591.486	10591.469	-4.1543485e-06	669348.6	174057.28	-0.00033260134	174058.06	669347.94	1.7879945e-06
0	0.60180527	0.6018042	-1.9448645e-10	0.027223745	0.027223745	0	10580.444	10580.428	-4.5660863e-06	669690.1	172836.44	-0.0002718462	172837.2	669689.5	-9.175413e-05
0	0.60116816	0.6011672	-2.9319255e-10	0.026870366	0.026870366	0	10569.244	10569.227	-7.00958e-06	670036.44	171598.25	-0.00028788892	171599.02	670035.8	-0.00027028823
0	0.60052305	0.6005221	-3.2118952e-10	0.026516303	0.026516303	0	10557.901	10557.885	-6.0822867e-06	670386.06	170345.47	-0.00038113137	170346.2	670385.44	-0.00010320494
0	0.5998742	0.59987324	-3.2204495e-10	0.026162993	0.026162993	0	10546.495	10546.479	-4.6282016e-06	670732.5	169090.64	-0.00037704923	169091.38	670731.9	8.5026495e-06
0	0.5992171	0.59921616	-4.6372942e-10	0.025809785	0.025809785	0	10534.94	10534.925	-5.808899e-06	671084.5	167818.66	-0.00026439386	167819.36	671084	-0.00019817236
0	0.5985539	0.59855294	-9.949065e-11	0.025455585	0.025455585	0	10523.281	10523.266	-2.6667617e-06	671435.94	166538.86	-0.00024665016	166539.6	671435.3	3.4294266e-05
0	0.59788597	0.59788513	-3.581362e-10	0.025102511	0.025102511	0	10511.541	10511.524	-5.6752283e-06	671786	165253.84	-0.00038635553	165254.55	671785.3	-6.556644e-05
0	0.5972089	0.59720796	-3.6138512e-10	0.024748323	0.024748323	0	10499.636	10499.619	-7.781784e-06	672140.2	163951.56	-0.00040359047	163952.27	672139.6	-0.00021607781
0	0.5965247	0.59652376	-1.5355077e-10	0.024395015	0.024395015	0	10487.6045	10487.588	-4.5006595e-06	672495.8	162637.95	-0.00022046607	162638.67	672495.25	-0.00013792425
0	0.59583294	0.59583205	-3.3631467e-10	0.024041759	0.024041759	0	10475.445	10475.429	-4.679053e-06	672852.94	161312.6	-0.0002602704	161313.28	672852.4	-0.000112325455
0	0.59513235	0.5951314	-3.3058967e-10	0.023687836	0.023687836	0	10463.127	10463.11	-7.4712675e-06	673212.2	159972.42	-0.00032375794	159973.06	673211.6	-0.00027118373
0	0.59442395	0.5944232	-3.8143078e-10	0.023334505	0.023334505	0	10450.672	10450.658	-6.3995294e-06	673574.75	158618.05	-0.00034578156	158618.69	673574.25	-0.00016381692
0	0.59371084	0.5937101	-1.8284566e-10	0.022981225	0.022981225	0	10438.136	10438.122	-4.947069e-06	673934	157260.58	-0.00030616028	157261.2	673933.44	-8.77779e-05
0	0.59298867	0.59298784	-4.6846854e-10	0.022627281	0.022627281	0	10425.439	10425.426	-5.655452e-06	674297.06	155886.58	-0.00024099534	155887.2	674296.5	-0.0002093518
0	0.59225744	0.5922566	-3.7842646e-10	0.022273991	0.022273991	0	10412.582	10412.57	-4.941455e-06	674661.9	154497.95	-0.00029935082	154498.52	674661.44	-9.414028e-05
0	0.59151495	0.5915143	-2.414557e-10	0.021920623	0.021920623	0	10399.529	10399.517	-6.8605013e-06	675031.5	153088.98	-0.00039501098	153089.53	675031	-0.00015129504
0	0.59076935	0.5907686	-4.4493217e-10	0.021566521	0.021566521	0	10386.421	10386.408	-6.2472836e-06	675396.75	151679.88	-0.00031456797	151680.4	675396.25	-0.00018290708
0	0.5900116	0.590011	-4.1955978e-10	0.021213416	0.021213416	0	10373.099	10373.088	-7.726744e-06	675766.94	150248.86	-0.00039931422	150249.31	675766.56	-0.00021597119
0	0.58924526	0.58924466	-3.0780822e-10	0.020859327	0.020859327	0	10359.625	10359.614	-7.5402977e-06	676138.7	148804.14	-0.00033301944	148804.6	676138.3	-0.0002674191
0	0.5884668	0.58846617	-3.695958e-10	0.020505939	0.020505939	0	10345.938	10345.929	-4.66151e-06	676514.8	147338.3	-0.00028410333	147338.75	676514.4	-8.7095614e-05
0	0.5876813	0.5876807	-3.8410902e-10	0.020152602	0.020152602	0	10332.13	10332.119	-6.19024e-06	676890	145863.45	-0.00020884295	145863.84	676889.6	-0.00028408974
0	0.58688855	0.5868881	-1.7693493e-10	0.019798767	0.019798767	0	10318.191	10318.182	-4.0765813e-06	677264.3	144379.39	-0.00035298758	144379.75	677263.9	2.8366887e-05
0	0.5860802	0.58607984	-1.94026e-10	0.019445421	0.019445421	0	10303.9795	10303.974	-4.545465e-06	677645.9	142866.14	-0.0003022635	142866.48	677645.56	-5.969468e-05
0	0.5852673	0.5852669	-2.1588636e-10	0.019092057	0.019092057	0	10289.688	10289.68	-5.912293e-06	678023.6	141350.38	-0.00029328687	141350.67	678023.25	-0.00017751275
0	0.5844407	0.58444035	-1.740025e-10	0.018738272	0.018738272	0	10275.155	10275.15	-5.147397e-06	678406.2	139810.62	-0.0002348862	139810.86	678405.9	-0.00017500421
0	0.5836	0.5835997	-3.869694e-10	0.0183849	0.0183849	0	10260.374	10260.369	-5.2080877e-06	678793.44	138246.38	-0.0002778567	138246.56	678793.1	-0.00013686651
0	0.5827539	0.58275354	-4.1475673e-10	0.018031422	0.018031422	0	10245.498	10245.492	-6.36596e-06	679176.9	136678.22	-0.00032059522	136678.36	679176.75	-0.00018633011
0	0.5818898	0.5818896	-2.3487154e-10	0.017677464	0.017677464	0	10230.307	10230.305	-5.4459742e-06	679568.2	135077.47	-0.00024716897	135077.55	679568	-0.00018649733
0	0.5810199	0.5810198	-4.2170423e-10	0.017324306	0.017324306	0	10215.015	10215.012	-5.075918e-06	679955.7	133472.23	-0.00027652155	133472.27	679955.5	-0.00012767695
0	0.5801348	0.5801347	-3.247279e-10	0.016970374	0.016970374	0	10199.451	10199.45	-4.244145e-06	680347.8	131840.8	-0.00031457978	131840.75	680347.75	-2.338414e-05
0	0.5792363	0.57923627	-2.620845e-10	0.016616864	0.016616864	0	10183.656	10183.656	-5.2960154e-06	680742.3	130188.58	-0.00041806695	130188.46	680742.25	-3.6580304e-06
0	0.5783243	0.5783243	-3.1464492e-10	0.016263412	0.016263412	0	10167.622	10167.623	-6.4587575e-06	681139.1	128515.11	-0.0003149031	128514.97	681139.06	-0.00019941179
0	0.57739574	0.57739586	-3.6179695e-10	0.015909802	0.015909802	0	10151.295	10151.298	-5.500574e-06	681540.3	126813.82	-0.0003549232	126813.586	681540.3	-8.3090876e-05
0	0.5764593	0.57645947	-2.1151184e-10	0.015556337	0.015556337	0	10134.831	10134.836	-5.440487e-06	681938.2	125105	-0.00040265243	125104.695	681938.2	-3.0576906e-05
0	0.5755014	0.5755017	-1.315252e-10	0.015202843	0.015202843	0	10117.991	10117.998	-2.2112458e-06	682343.8	123358.56	-0.00027052607	123358.164	682343.8	9.444319e-05
0	0.57453513	0.5745355	-3.8879047e-10	0.014849315	0.014849315	0	10101.003	10101.011	-5.0655526e-06	682745.94	121603.69	-0.00032661564	121603.23	682746.06	-7.675745e-05
0	0.57354593	0.5735464	-4.0345363e-10	0.014495808	0.014495808	0	10083.612	10083.622	-6.7479923e-06	683155.8	119809.03	-0.00041146085	119808.47	683156	-0.00012588594
0	0.5725477	0.5725482	-3.3863984e-10	0.01414216	0.01414216	0	10066.0625	10066.071	-4.2454026e-06	683562.25	118005.11	-0.00031749156	118004.47	683562.4	-2.0572481e-05
0	0.5715282	0.5715288	-2.640924e-10	0.013788426	0.013788426	0	10048.138	10048.149	-4.739146e-06	683974	116166.2	-0.00019963384	116165.45	683974.2	-0.00017774728
0	0.5704876	0.5704884	-8.7443205e-11	0.013435183	0.013435183	0	10029.844	10029.857	-3.3282013e-06	684390.3	114293.21	-0.00024528487	114292.35	684390.56	-1.974187e-05
0	0.56943196	0.5694328	-4.119923e-10	0.013081497	0.013081497	0	10011.284	10011.299	-4.3830223e-06	684806.3	112399.43	-0.0003107108	112398.44	684806.56	-3.8311984e-05
0	0.5683608	0.5683618	-3.993966e-10	0.012727792	0.012727792	0	9992.451	9992.469	-6.3261905e-06	685221.75	110484.445	-0.00034318704	110483.37	685222.06	-0.0001605714
0	0.5672655	0.5672666	-1.2955427e-10	0.012374162	0.012374162	0	9973.194	9973.215	-3.913448e-06	685642.25	108530.66	-0.00024279332	108529.44	685642.5	-6.883698e-05
0	0.56615007	0.5661513	-2.4266467e-10	0.012020879	0.012020879	0	9953.584	9953.605	-4.255262e-06	686064.44	106547	-0.00032366082	106545.66	686064.75	-1.5188335e-05
0	0.56501293	0.56501436	-3.4436792e-10	0.0116672525	0.0116672525	0	9933.592	9933.616	-6.6955663e-06	686488.5	104531.086	-0.00036675305	104529.61	686488.94	-0.00016641906
0	0.5638475	0.5638489	-2.4261151e-10	0.0113136405	0.0113136405	0	9913.104	9913.128	-6.3249854e-06	686918.25	102469.9	-0.00039477818	102468.266	686918.7	-0.00010888435
0	0.5626664	0.5626681	-4.761324e-10	0.010960312	0.010960312	0	9892.339	9892.366	-8.812781e-06	687344.56	100390.31	-0.00046875083	100388.55	687345	-0.00023301636
0	0.5614564	0.5614582	-2.5678157e-10	0.010606708	0.010606708	0	9871.064	9871.096	-4.628581e-06	687775.2	98265.73	-0.00024723323	98263.81	687775.75	-0.000121343524
0	0.5602162	0.5602181	-4.2010748e-10	0.010252969	0.010252969	0	9849.259	9849.294	-7.805048e-06	688210.1	96094.625	-0.00046925186	96092.54	688210.75	-0.000152269
0	0.5589558	0.5589578	-4.8032556e-10	0.009899383	0.009899383	0	9827.102	9827.138	-9.215153e-06	688642.2	93898.22	-0.00043299326	93895.98	688642.9	-0.00030081507
0	0.55766284	0.5576651	-3.0512834e-10	0.009546028	0.009546028	0	9804.37	9804.409	-7.495354e-06	689077.94	91652.55	-0.0004424029	91650.09	689078.6	-0.00015445676
0	0.556334	0.5563364	-2.2827353e-10	0.00919245	0.00919245	0	9781.006	9781.05	-5.411065e-06	689518.06	89352.164	-0.0002993902	89349.54	689518.8	-0.00013149627
0	0.5549774	0.55497986	-4.688654e-10	0.008838732	0.008838732	0	9757.154	9757.2	-7.939423e-06	689956.9	87014.26	-0.00046945835	87011.445	689957.7	-0.0001627629
0	0.55358964	0.55359244	-4.1347328e-10	0.008485187	0.008485187	0	9732.758	9732.807	-4.8457446e-06	690395.3	84633.28	-0.0003484995	84630.27	690396.1	-3.737013e-05
0	0.5521618	0.5521646	-3.3155567e-10	0.008131706	0.008131706	0	9707.654	9707.705	-7.5510934e-06	690836.56	82193.18	-0.00059093046	82189.98	690837.4	-1.03678185e-05
0	0.55069584	0.5506989	-2.3604074e-10	0.0077781687	0.0077781687	0	9681.881	9681.936	-4.827685e-06	691278.25	79699.375	-0.0003020823	79695.99	691279.1	-8.234926e-05
0	0.54918885	0.54919213	-2.5479593e-10	0.0074246577	0.0074246577	0	9655.387	9655.443	-3.9130005e-06	691720.25	77147.75	-0.0003817517	77144.14	691721.2	7.015705e-05
0	0.5476379	0.5476412	-3.5708672e-10	0.00707108	0.00707108	0	9628.119	9628.178	-4.8733577e-06	692162.56	74534.38	-0.00028689695	74530.55	692163.4	-0.00010117152