# t (s)	mx ()	my ()	mz ()	B_extx (T)	B_exty (T)	B_extz (T)	m_fullx (A/m)	m_fully (A/m)	m_fullz (A/m)	m_full.region1x (A/m)	m_full.region1y (A/m)	m_full.region1z (A/m)	m_full.region2x (A/m)	m_full.region2y (A/m)	m_full.region2z (A/m)
0	0.6408693	0.64086723	-4.2024426e-11	0.07071087	0.07071087	0	76353.17	76352.914	-3.75e-06	654196.4	243018.45	-5.9672446e-05	243020.69	654195.56	9.180376e-06
0	0.6405723	0.64056927	-3.4670153e-10	0.070357256	0.070357256	0	76317.79	76317.42	-4.3125e-05	654442.3	242355.8	-0.00023409959	242358.94	654441.1	-0.00027173912
0	0.6402707	0.64026755	-3.834729e-10	0.07000352	0.07000352	0	76281.84	76281.48	-4.578125e-05	654691	241684.73	-0.0002148208	241687.92	654689.9	-0.0003736413
0	0.6399667	0.6399636	-5.988481e-10	0.06964992	0.06964992	0	76245.64	76245.25	-6.75e-05	654940.44	241009.77	-0.00038190364	241012.94	654939.25	-0.0004590188
0	0.63966113	0.6396581	-3.2218728e-10	0.069296576	0.069296576	0	76209.234	76208.85	-3.453125e-05	655190	240332.53	-0.0002515423	240335.75	655188.75	-0.0001854436
0	0.63935226	0.63934916	-4.5526463e-10	0.06894301	0.06894301	0	76172.42	76172.05	-5.21875e-05	655440.8	239649.08	-0.00023134548	239652.28	655439.7	-0.00043331375
0	0.63904345	0.63904023	-4.027341e-10	0.06858927	0.06858927	0	76135.64	76135.26	-4.875e-05	655690.7	238966.95	-0.00035987073	238970.16	655689.44	-0.000244198
0	0.638731	0.63872784	-1.6459567e-10	0.068235666	0.068235666	0	76098.41	76098.03	-1.921875e-05	655942	238278.2	-0.0003047885	238281.44	655940.75	2.9377203e-05
0	0.6384179	0.6384148	-1.085631e-10	0.06788232	0.06788232	0	76061.12	76060.74	-1.484375e-05	656192.5	237589.39	-0.00020105024	237592.61	656191.4	-1.8360752e-06
0	0.6381023	0.63809913	-7.354275e-11	0.06752872	0.06752872	0	76023.51	76023.13	-8.75e-06	656444.06	236895.9	-0.00011750881	236899.16	656442.8	-3.488543e-05
0	0.6377849	0.63778174	-3.4670153e-10	0.067174986	0.06717498	0	75985.69	75985.31	-3.703125e-05	656695.6	236199.88	-0.0002148208	236203.16	656694.4	-0.00029193595
0	0.6374651	0.63746196	-5.7783587e-11	0.06682176	0.06682176	0	75947.6	75947.21	-5.9375e-06	656947.8	235500.12	1.8360752e-05	235503.42	656946.56	-0.00011934489
0	0.6371433	0.63714015	-1.7860381e-10	0.066468164	0.06646817	0	75909.25	75908.875	-1.75e-05	657200.1	234797.14	-0.00011016451	234800.45	657199	-0.00014872209
0	0.6368206	0.6368174	-2.5564859e-10	0.066114426	0.066114426	0	75870.81	75870.42	-2.8125e-05	657452.2	234093.36	-0.00024511604	234096.66	657450.94	-0.00011016451
0	0.63649464	0.6364914	-5.428155e-11	0.06576085	0.06576085	0	75831.98	75831.59	-7.34375e-06	657705.3	233383.89	-9.27218e-05	233387.19	657704.1	-1.8360752e-06
0	0.6361665	0.63616335	2.6790573e-10	0.06540747	0.06540747	0	75792.87	75792.484	3.375e-05	657958.9	232670.88	0.00021298473	232674.17	657957.7	0.00013586956
0	0.6358377	0.63583446	-2.5915062e-10	0.065053925	0.06505392	0	75753.695	75753.31	-3.078125e-05	658211.6	231957.78	-0.00023409959	231961.08	658210.5	-0.00012485312
0	0.63550615	0.635503	-4.2724835e-10	0.064700186	0.064700186	0	75714.2	75713.82	-5.1875e-05	658465.2	231240.11	-0.00038649383	231243.42	658464	-0.00023134548
0	0.6351714	0.63516825	-4.8152987e-10	0.0643466	0.0643466	0	75674.32	75673.945	-5.6875e-05	658719.94	230516.78	-0.00033783785	230520.08	658718.75	-0.00036537898
0	0.63483506	0.63483185	-7.0566014e-10	0.063993216	0.063993216	0	75634.25	75633.87	-8.375e-05	658974.44	229791.33	-0.00046085488	229794.66	658973.2	-0.0006279377
0	0.63449675	0.6344935	1.575916e-11	0.06363963	0.06363963	0	75593.945	75593.56	2.5e-06	659229	229063.11	2.7541128e-05	229066.45	659227.9	-2.0196827e-05
0	0.63415796	0.63415474	-1.3307735e-10	0.0632859	0.0632859	0	75553.586	75553.195	-1.25e-05	659482.94	228334.89	-7.344301e-05	228338.22	659481.75	-0.00012485312
0	0.6338161	0.63381284	-1.173182e-10	0.06293266	0.062932655	0	75512.85	75512.48	-1.40625e-05	659737.56	227601.6	-7.160693e-05	227604.97	659736.44	-9.3639836e-05
0	0.6334713	0.6334681	-7.2492135e-10	0.06257908	0.06257908	0	75471.78	75471.38	-8.453125e-05	659993	226863.53	-0.0005985605	226866.92	659991.8	-0.00044065804
0	0.6331246	0.6331213	-9.630598e-11	0.062225346	0.062225346	0	75430.45	75430.07	-1.25e-05	660248.75	226122.2	-0.00018360752	226125.55	660247.56	3.3049353e-05
0	0.63277596	0.6327727	-5.288074e-10	0.061871782	0.061871782	0	75388.914	75388.53	-6.0625e-05	660504.25	225378.61	-0.00039108403	225382	660503.1	-0.00035987073
0	0.63242453	0.63242126	-2.5564859e-10	0.061518367	0.061518367	0	75347.055	75346.664	-2.78125e-05	660760.44	224630.47	-0.00017626322	224633.86	660759.25	-0.00017442714
0	0.6320698	0.6320666	5.0779514e-10	0.061164834	0.061164834	0	75304.805	75304.41	6.1875e-05	661017.5	223876.86	0.00012485312	223880.25	661016.3	0.00057101937
0	0.63171595	0.63171273	-1.6984872e-10	0.060811102	0.060811102	0	75262.64	75262.26	-2.375e-05	661272.9	223126.08	-0.00016891892	223129.52	661271.7	-8.262338e-05
0	0.6313584	0.6313551	-2.8366487e-10	0.06045754	0.06045754	0	75220.03	75219.64	-3.65625e-05	661529.25	222368.89	-0.00023593566	222372.33	661528.2	-0.00018727967
0	0.6309978	0.6309945	-5.0604415e-10	0.060104124	0.060104124	0	75177.07	75176.68	-5.875e-05	661786.56	221606.89	-0.00044065804	221610.34	661785.4	-0.00027724737
0	0.6306347	0.6306314	-1.8560789e-10	0.059750553	0.059750553	0	75133.82	75133.43	-2.75e-05	662043.8	220841.36	-0.0002708211	220844.8	662042.6	-3.6721503e-05
0	0.63027024	0.63026696	-3.361954e-10	0.059396826	0.059396826	0	75090.4	75090	-4.09375e-05	662301	220073.89	-0.00019370593	220077.34	662299.8	-0.0002956081
0	0.6299043	0.6299011	-1.9436297e-10	0.05904356	0.05904356	0	75046.81	75046.42	-2.375e-05	662557.8	219305.02	-0.00015423032	219308.48	662556.56	-0.00013219741
0	0.6295339	0.6295306	-1.4358345e-10	0.05868999	0.058689985	0	75002.664	75002.27	-1.84375e-05	662815.94	218528	-0.00019095182	218531.48	662814.9	-4.590188e-05
0	0.62916267	0.6291594	-1.4883651e-10	0.058336265	0.058336265	0	74958.44	74958.05	-1.953125e-05	663073.56	217750.69	-0.00022583726	217754.16	663072.4	-3.6721503e-06
0	0.6287884	0.62878513	-1.8560789e-10	0.057982713	0.057982713	0	74913.85	74913.46	-2.0625e-05	663331.75	216968.62	-0.00014688601	216972.11	663330.56	-9.3639836e-05
0	0.62841207	0.6284088	-4.4125648e-10	0.057629272	0.05762927	0	74869.016	74868.62	-5.75e-05	663589.8	216183.66	-0.0002827556	216187.17	663588.6	-0.00039659225
0	0.62803394	0.6280306	-4.710238e-10	0.0572757	0.05727571	0	74823.97	74823.57	-5.71875e-05	663847.44	215396.62	-0.00045718273	215400.12	663846.25	-0.0002368537
0	0.6276515	0.6276482	-3.9573e-10	0.056922026	0.056922022	0	74778.41	74778.01	-4.375e-05	664106.56	214602.11	-0.00019095182	214605.61	664105.44	-0.00033600177
0	0.62726843	0.6272651	-2.9066896e-10	0.05656847	0.05656847	0	74732.76	74732.37	-3.625e-05	664364.7	213807.44	-0.0001735091	213810.97	664363.7	-0.00026255875
0	0.62688196	0.6268787	-9.105292e-11	0.056215018	0.056215018	0	74686.71	74686.32	-1.125e-05	664623.6	213007.55	-0.00015239425	213011.11	664622.56	3.3049353e-05
0	0.6264928	0.62648946	-2.5915062e-10	0.055861466	0.05586147	0	74640.35	74639.95	-3e-05	664882.8	212203.58	-0.00020564042	212207.11	664881.7	-0.00022583726
0	0.6261015	0.6260982	-1.5759159e-10	0.05550775	0.05550775	0	74593.734	74593.336	-2.3125e-05	665141.8	211396.73	-0.00016341069	211400.27	665140.7	-8.078731e-05
0	0.62570757	0.62570435	-4.1849324e-10	0.055154454	0.055154454	0	74546.81	74546.414	-4.53125e-05	665400.9	210586.28	-0.00029193595	210589.84	665399.75	-0.00026072268
0	0.6253111	0.62530774	-1.768528e-10	0.054800898	0.054800898	0	74499.57	74499.17	-2.1875e-05	665660.3	209771.73	-9.547591e-05	209775.3	665659.2	-0.00015055816
0	0.6249113	0.624908	-1.5759159e-10	0.05444719	0.05444718	0	74451.94	74451.54	-1.5625e-05	665920.1	208952.08	-0.0001413778	208955.66	665919.06	-5.8754405e-05
0	0.6245102	0.62450683	-3.3794642e-10	0.05409365	0.05409365	0	74404.15	74403.75	-3.9375e-05	666179.4	208131.36	-0.00030662457	208134.95	666178.4	-0.00016341069
0	0.62410593	0.6241026	-4.254973e-10	0.053740162	0.053740162	0	74355.984	74355.586	-5.25e-05	666439	207305.75	-0.00028642773	207309.34	666437.94	-0.00033232963
0	0.6236987	0.6236954	-3.2218728e-10	0.05338662	0.05338662	0	74307.46	74307.06	-3.875e-05	666698.94	206475.56	-0.00030111632	206479.14	666697.94	-0.00016524676
0	0.62328666	0.6232833	-5.5682364e-10	0.053032946	0.053032946	0	74258.37	74257.97	-6.578125e-05	666960.1	205637.52	-0.00028642773	205641.12	666959.06	-0.0005196093
0	0.6228772	0.6228739	-3.7121578e-10	0.05267941	0.05267941	0	74209.59	74209.195	-4e-05	667218.44	204806.06	-0.00032314923	204809.64	667217.4	-0.00017809929
0	0.622462	0.62245864	-4.727748e-10	0.052325904	0.052325908	0	74160.12	74159.73	-6e-05	667478.6	203964.55	-0.0004470843	203968.14	667477.56	-0.0002588866
0	0.62204343	0.6220401	-5.3756244e-10	0.051972378	0.051972378	0	74110.25	74109.86	-6.40625e-05	667739.06	203118.1	-0.0006270197	203121.69	667738	-0.00014872209
0	0.6216236	0.62162024	-2.3813843e-10	0.051618673	0.051618665	0	74060.234	74059.836	-2.625e-05	667998.9	202270.48	-0.00027908344	202274.12	667997.9	-4.957403e-05
0	0.62120056	0.6211972	-2.0837111e-10	0.051265337	0.051265337	0	74009.83	74009.43	-2.703125e-05	668258.94	201418.17	-0.00026072268	201421.8	668257.9	-7.160693e-05
0	0.6207743	0.62077093	-2.4339147e-10	0.050911807	0.050911807	0	73959.05	73958.65	-2.875e-05	668519.3	200561	-0.00030295242	200564.64	668518.25	-3.855758e-05
0	0.6203458	0.6203424	-4.8152987e-10	0.050558105	0.050558094	0	73907.99	73907.6	-5.6875e-05	668779.2	199701.17	-0.00042596945	199704.81	668778.25	-0.00027173912
0	0.6199142	0.6199108	-4.2899936e-10	0.05020459	0.05020459	0	73856.57	73856.17	-4.96875e-05	669039.5	198836.64	-0.00025521446	198840.28	669038.5	-0.00035252643
0	0.61947906	0.6194757	-1.7860381e-10	0.04985105	0.04985105	0	73804.73	73804.32	-2.484375e-05	669300.25	197966.72	-0.00028734576	197970.38	669299.2	-3.121328e-05
0	0.61904144	0.61903816	-3.1693423e-10	0.04949753	0.04949753	0	73752.6	73752.21	-4.125e-05	669560.5	197093.86	-0.00020564042	197097.53	669559.5	-0.0002754113
0	0.6186005	0.6185971	-5.288074e-10	0.049143866	0.049143866	0	73700.055	73699.664	-6.125e-05	669821.25	196215.73	-0.0004443302	196219.39	669820.2	-0.00030295242
0	0.61815727	0.61815405	-2.2938333e-10	0.04879036	0.04879036	0	73647.26	73646.87	-3.0625e-05	670081.44	195335.17	-0.00023409959	195338.84	670080.3	-8.262338e-05
0	0.61771077	0.61770743	-1.3482837e-10	0.0484368	0.0484368	0	73594.06	73593.664	-1.9375e-05	670341.9	194449.56	-0.00024970624	194453.27	670340.8	1.6524677e-05
0	0.6172621	0.61725885	-1.9961603e-10	0.048083294	0.048083294	0	73540.61	73540.21	-2.25e-05	670601.75	193561.56	-0.00023226351	193565.23	670600.75	-5.8754405e-05
0	0.61680996	0.61680657	-5.2180327e-10	0.047729596	0.047729596	0	73486.734	73486.336	-6.0625e-05	670862.06	192668.19	-0.00031121474	192671.89	670861.06	-0.0004443302
0	0.61635494	0.6163516	-3.0117506e-10	0.047376227	0.04737622	0	73432.53	73432.14	-3.5625e-05	671121.94	191771.31	-0.00027173912	191775.03	671121	-0.00017259107
0	0.6158957	0.61589235	-3.729668e-10	0.04702272	0.04702272	0	73377.81	73377.414	-4.34375e-05	671382.7	190867.61	-0.00023501762	190871.31	671381.75	-0.00028459166
0	0.6154349	0.6154316	-1.9436297e-10	0.046669014	0.046669014	0	73322.91	73322.51	-2.390625e-05	671642.4	189962.75	-0.00010649236	189966.47	671641.44	-0.00015790247
0	0.6149704	0.614967	-3.852239e-11	0.04631553	0.046315532	0	73267.57	73267.17	1.25e-06	671902.5	189052.33	-0.00024236193	189056.06	671901.44	0.00019095182
0	0.6145029	0.61449957	6.303664e-11	0.045961928	0.045961928	0	73211.875	73211.48	7.5e-06	672162.25	188138.11	0.00010465629	188141.83	672161.3	1.8360752e-06
0	0.6140319	0.6140286	-3.9573e-10	0.04560844	0.04560844	0	73155.766	73155.37	-4.59375e-05	672422.25	187218.73	-0.00037272327	187222.47	672421.25	-0.00018911574
0	0.6135571	0.6135538	-7.9146e-10	0.04525479	0.04525479	0	73099.195	73098.79	-9.125e-05	672682.25	186293.9	-0.0007784959	186297.66	672681.4	-0.0003635429
0	0.6130803	0.613077	-2.0136705e-10	0.0449013	0.0449013	0	73042.38	73041.99	-2.234375e-05	672941.75	185366.95	-0.00015331228	185370.7	672940.9	-0.000170755
0	0.6126003	0.61259705	-6.828969e-11	0.044547684	0.044547684	0	72985.2	72984.81	-1.03125e-05	673201.06	184435.72	-8.721357e-05	184439.47	673200.1	-2.0196827e-05
0	0.61211556	0.6121123	-2.6790573e-10	0.044194214	0.04419421	0	72927.45	72927.055	-3.375e-05	673460.94	183497.12	-0.00035619858	183500.9	673460	-3.488543e-05
0	0.6116294	0.6116261	-4.237463e-10	0.043840516	0.043840524	0	72869.53	72869.13	-4.84375e-05	673719.75	182557.67	-0.0003442641	182561.44	673718.8	-0.00025521446
0	0.611139	0.61113566	-2.5564859e-10	0.043487042	0.043487042	0	72811.1	72810.7	-2.5625e-05	673978.9	181612	-0.00015239425	181615.73	673977.94	-0.00014688601
0	0.61064607	0.6106427	-9.2803945e-11	0.043133624	0.043133624	0	72752.37	72751.984	-1.0625e-05	674237.4	180663.34	-0.00026439482	180667.11	674236.5	0.00013219741
0	0.6101484	0.6101451	-5.620767e-10	0.04277993	0.04277993	0	72693.086	72692.69	-6.59375e-05	674496.44	179707.64	-0.0005269536	179711.39	674495.5	-0.0003047885
0	0.6096481	0.6096448	-5.6557875e-10	0.042426456	0.042426456	0	72633.47	72633.086	-6.546875e-05	674755	178748.55	-0.00046177293	178752.3	674754.1	-0.00036537898
0	0.6091447	0.60914135	-4.6051768e-10	0.042072814	0.042072807	0	72573.49	72573.09	-5.625e-05	675013.1	177785.61	-0.0004222973	177789.39	675012.25	-0.00025705053
0	0.6086369	0.60863364	-3.4670153e-10	0.041719347	0.041719347	0	72512.99	72512.61	-4.34375e-05	675271.5	176816.34	-0.0003488543	176820.12	675270.6	-0.00015973854
0	0.6081266	0.6081232	-2.6265268e-10	0.041365713	0.041365713	0	72452.195	72451.8	-3.65625e-05	675529.2	175844.12	-0.00015973854	175847.9	675528.4	-0.00025521446
0	0.6076126	0.60760933	-3.239383e-10	0.041012257	0.041012257	0	72390.96	72390.57	-4e-05	675786.7	174867.16	-0.00044065804	174870.94	675785.94	-8.262338e-05
0	0.6070942	0.607091	-4.237463e-10	0.04065857	0.04065857	0	72329.2	72328.82	-4.78125e-05	676044.4	173883.75	-0.00036905112	173887.53	676043.6	-0.00021114865
0	0.6065736	0.6065703	-2.3813843e-10	0.04030513	0.04030513	0	72267.18	72266.79	-2.84375e-05	676301.25	172897.97	-0.00019646005	172901.73	676300.44	-0.00017259107
0	0.60604656	0.6060432	-3.8872594e-10	0.039951444	0.039951444	0	72204.375	72203.984	-4.25e-05	676559	171902.28	-0.00032314923	171906.08	676558.1	-0.00023134548
0	0.60551995	0.6055166	-2.8541589e-10	0.039597984	0.039597984	0	72141.64	72141.25	-3.21875e-05	676814.8	170909.3	-0.0002882638	170913.1	676813.94	-0.00011934489
0	0.60498756	0.6049843	-1.3132634e-10	0.03924453	0.03924453	0	72078.23	72077.83	-1.75e-05	677071.06	169907.78	-0.00015055816	169911.58	677070.2	-7.160693e-05
0	0.60445184	0.6044486	-4.5701565e-10	0.038890842	0.038890842	0	72014.41	72014.016	-5.5625e-05	677326.9	168901.97	-0.0004443302	168905.75	677326.06	-0.00019829613
0	0.6039128	0.6039095	-1.9611399e-10	0.038537383	0.03853738	0	71950.17	71949.78	-2.375e-05	677582.25	167891.88	-0.0002001322	167895.66	677581.44	-7.527908e-05
0	0.60336727	0.60336405	-5.3581145e-10	0.038183715	0.038183715	0	71885.17	71884.79	-6.3125e-05	677838.5	166871.9	-0.00040118242	166875.67	677837.7	-0.0003708872
0	0.6028214	0.60281813	-2.8366487e-10	0.037830256	0.037830256	0	71820.15	71819.76	-3.375e-05	678092.9	165853.38	-0.00031580494	165857.17	678092.06	-0.00011200059
0	0.6022708	0.6022676	-1.1906921e-10	0.037476573	0.037476573	0	71754.55	71754.16	-1.578125e-05	678347.25	164828.16	-0.0002001322	164831.95	678346.44	4.4065804e-05
0	0.601716	0.60171276	-2.644037e-10	0.03712317	0.03712317	0	71688.44	71688.06	-3.3125e-05	678601.44	163797.19	-0.00016157462	163800.98	678600.7	-0.00022400118
0	0.6011578	0.6011545	-5.533216e-10	0.0367695	0.0367695	0	71621.94	71621.55	-6.5625e-05	678854.9	162762.17	-0.0004369859	162765.95	678854.2	-0.00035803465
0	0.6005938	0.6005906	-2.2938333e-10	0.03641604	0.03641604	0	71554.75	71554.36	-2.40625e-05	679108.8	161718.8	-0.00019646005	161722.61	679108	-9.180376e-05
0	0.6000286	0.60002524	-3.93979e-10	0.036062367	0.036062367	0	71487.4	71487.01	-4.5625e-05	679361.25	160674.94	-0.00024511604	160678.72	679360.5	-0.00031947708
0	0.59945816	0.599455	2.8016284e-11	0.0357089	0.0357089	0	71419.445	71419.07	3.125e-06	679613.5	159624.11	-2.9377203e-05	159627.9	679612.9	8.445946e-05
0	0.59888273	0.5988795	-1.9436297e-10	0.035355434	0.035355434	0	71350.89	71350.51	-2.375e-05	679865.9	158566.2	-0.00011016451	158569.98	679865.25	-0.00017259107
0	0.59830517	0.59830207	2.0486908e-10	0.03500176	0.03500176	0	71282.09	71281.7	2.65625e-05	680116.94	157506.61	0.00010832844	157510.4	680116.3	0.00022583726
0	0.59772164	0.59771854	-2.0837111e-10	0.034648288	0.034648288	0	71212.56	71212.18	-2.1875e-05	680368.3	156438.27	-0.00013954172	156442.05	680367.6	-0.00012852527
0	0.5971357	0.5971325	-7.004071e-11	0.034294635	0.034294635	0	71142.75	71142.375	-7.5e-06	680618.6	155367.66	-4.590188e-05	155371.44	680617.94	-5.1410105e-05
0	0.59654427	0.59654105	-4.90285e-10	0.03394116	0.03394116	0	71072.28	71071.91	-5.96875e-05	680868.7	154289.45	-0.0003754774	154293.25	680868.1	-0.00034334607
0	0.59594965	0.5959465	-6.426235e-10	0.033587493	0.033587493	0	71001.445	71001.07	-7.625e-05	681117.9	153207.88	-0.0005324618	153211.66	681117.25	-0.0003929201
0	0.59534997	0.59534687	-3.2043626e-10	0.03323408	0.033234082	0	70930	70929.625	-4e-05	681366.75	152119.42	-0.00033600177	152123.2	681366.2	-0.00012301705
0	0.59474665	0.59474355	-4.132402e-10	0.032880425	0.032880425	0	70858.12	70857.74	-5.203125e-05	681615	151026.53	-0.00033049352	151030.28	681614.44	-0.00027908344
0	0.5941381	0.5941349	-3.0117506e-10	0.032526962	0.032526962	0	70785.6	70785.234	-3.375e-05	681862.94	149926.53	-0.00023134548	149930.31	681862.44	-0.00018727967
0	0.59352607	0.5935229	-3.5195458e-10	0.0321733	0.0321733	0	70712.695	70712.32	-3.921875e-05	682110	148822.77	-0.0002221651	148826.55	682109.4	-0.00024787016
0	0.5929101	0.5929071	-5.515706e-10	0.031819817	0.031819817	0	70639.31	70638.94	-6.5625e-05	682356.2	147714.25	-0.00052144536	147718.02	682355.6	-0.0002708211
0	0.5922894	0.5922863	3.151832e-11	0.031466328	0.031466328	0	70565.36	70564.99	2.5e-06	682601.6	146599.66	3.6721503e-05	146603.44	682601.2	1.4688601e-05
0	0.5916638	0.5916608	-2.4339147e-10	0.031112673	0.031112673	0	70490.82	70490.46	-2.796875e-05	682846.94	145478.62	-0.00021941098	145482.36	682846.4	-0.00010649236
0	0.5910338	0.59103084	-4.727748e-10	0.030759184	0.030759184	0	70415.77	70415.4	-5.4375e-05	683091.4	144352.27	-0.0004443302	144356.03	683090.8	-0.00022583726
0	0.5903994	0.5903964	-5.6732974e-10	0.030405551	0.030405551	0	70340.19	70339.83	-6.75e-05	683334.94	143220.47	-0.0004994125	143224.2	683334.5	-0.00029744417
0	0.5897561	0.589753	-1.2957531e-10	0.030052062	0.030052062	0	70263.52	70263.18	-1.46875e-05	683579.56	142075.17	-0.00017534518	142078.92	683579.06	-2.3868977e-05
0	0.5891169	0.5891139	-3.2744032e-10	0.029698413	0.029698413	0	70187.39	70187.03	-3.65625e-05	683820.2	140939.88	-0.00022859137	140943.58	683819.7	-0.00024052586
0	0.5884691	0.5884661	-2.9942404e-10	0.029344993	0.029344993	0	70110.21	70109.85	-3.5e-05	684061.3	139791.83	-0.00030111632	139795.53	684060.8	-0.00013219741
0	0.5878151	0.5878121	-2.9767303e-10	0.028991356	0.028991356	0	70032.29	70031.93	-3.4375e-05	684302.2	138635.25	-0.00032590335	138638.97	684301.75	-5.1410105e-05
0	0.58715796	0.587155	1.1381616e-10	0.02863785	0.02863785	0	69954	69953.64	7.65625e-06	684541.9	137475.5	2.0196827e-05	137479.22	684541.44	8.996768e-05
0	0.5864959	0.58649296	-2.3988944e-10	0.028284235	0.028284235	0	69875.12	69874.77	-2.9375e-05	684780.75	136309.84	-0.00018360752	136313.55	684780.2	-0.00016891892
0	0.58582926	0.5858263	-1.7510178e-10	0.027930735	0.027930733	0	69795.695	69795.34	-2.015625e-05	685018.56	135138.62	-0.00022583726	135142.33	685018.2	-3.121328e-05
0	0.5851563	0.5851534	-2.6965674e-10	0.027577227	0.027577227	0	69715.52	69715.17	-3.359375e-05	685256.06	133959.06	-0.00029928025	133962.73	685255.6	-0.00013770565
0	0.58447856	0.5844757	-3.0817912e-10	0.02722359	0.02722359	0	69634.77	69634.43	-3.3125e-05	685492.7	132773.69	-0.0004222973	132777.38	685492.2	3.6721503e-06
0	0.5837959	0.58379304	-1.7335076e-10	0.026870081	0.026870081	0	69553.445	69553.1	-1.796875e-05	685728.1	131582.5	-9.455787e-05	131586.14	685727.8	-0.00012301705
0	0.583111	0.5831081	-2.8016284e-10	0.026516473	0.026516473	0	69471.836	69471.5	-3.484375e-05	685961.94	130389.734	-0.0003249853	130393.39	685961.7	-0.000121180965
0	0.58241844	0.5824156	-5.393135e-10	0.026162954	0.026162952	0	69389.336	69388.99	-6.4375e-05	686195.6	129186.516	-0.0004994125	129190.17	686195.25	-0.00026806697
0	0.581722	0.5817192	1.5408956e-10	0.025809333	0.025809336	0	69306.36	69306.02	1.75e-05	686427.9	127979.305	-0.0001147547	127982.914	686427.44	0.00033967392
0	0.58101964	0.58101684	-1.6984872e-10	0.025455903	0.025455903	0	69222.68	69222.34	-1.828125e-05	686659.3	126764.58	-0.00034334607	126768.195	686659	0.00011750881
0	0.58031225	0.58030945	-2.4864452e-10	0.025102293	0.025102295	0	69138.4	69138.06	-3e-05	686889.75	125543.76	-0.00032314923	125547.37	686889.44	-2.9377203e-05
0	0.57959974	0.57959694	-1.4008142e-10	0.024748767	0.024748765	0	69053.516	69053.19	-1.8125e-05	687119.06	124317.016	-3.121328e-05	124320.62	687118.75	-0.00019462398
0	0.57888186	0.5788792	-4.552646e-11	0.02439518	0.02439518	0	68967.984	68967.66	-8.125e-06	687347.3	123083.734	-8.262338e-05	123087.33	687347.06	1.8360752e-05
0	0.5781588	0.5781561	-4.4125648e-10	0.024041647	0.024041647	0	68881.85	68881.52	-5.3125e-05	687574.44	121844.52	-0.0003782315	121848.086	687574.1	-0.0002809195
0	0.5774296	0.5774269	-6.618847e-10	0.02368811	0.02368811	0	68794.96	68794.64	-7.828125e-05	687800.5	120597.4	-0.00037180522	120600.94	687800.25	-0.000561839
0	0.57669646	0.5766937	-3.0117506e-10	0.023334507	0.023334507	0	68707.62	68707.29	-4e-05	688025.06	119346.42	-0.0003121328	119349.96	688024.75	-0.00013586956
0	0.5759573	0.57595456	-2.1362417e-10	0.022980964	0.022980964	0	68619.55	68619.23	-2.6875e-05	688248.56	118088.13	-0.00018360752	118091.664	688248.3	-0.00015055816
0	0.5752121	0.5752095	-3.1868524e-10	0.022627395	0.022627395	0	68530.77	68530.46	-3.921875e-05	688470.94	116822.52	-0.00048655993	116826.03	688470.75	3.3049353e-05
0	0.5744621	0.57445955	-1.4883651e-10	0.022273842	0.022273842	0	68441.43	68441.11	-1.453125e-05	688691.94	115551.64	-0.00024511604	115555.125	688691.7	4.0393654e-05
0	0.57370603	0.5737034	1.5408956e-10	0.021920262	0.021920258	0	68351.336	68351.016	1.9375e-05	688911.6	114273.21	2.5705052e-05	114276.69	688911.44	0.00020564042
0	0.5729442	0.57294166	-1.7510177e-12	0.021566812	0.021566812	0	68260.58	68260.26	1.5625e-06	689130.2	112988.266	-3.3049353e-05	112991.73	689130	5.8754405e-05
0	0.572177	0.57217443	1.6109364e-10	0.021213228	0.021213228	0	68169.17	68168.87	1.96875e-05	689347.25	111697.16	0.00017901733	111700.61	689347.06	0.00010282021
0	0.5714038	0.57140124	-2.1537519e-10	0.02085967	0.020859674	0	68077.055	68076.74	-2.4375e-05	689562.94	110398.93	-0.00025705053	110402.37	689562.8	-4.0393654e-05
0	0.5706242	0.57062167	-2.8191385e-10	0.020506129	0.020506129	0	67984.164	67983.87	-3.375e-05	689777.5	109093.016	-0.00016524676	109096.43	689777.3	-0.000244198
0	0.5698399	0.56983733	-5.88342e-10	0.020152565	0.020152565	0	67890.72	67890.42	-7.125e-05	689990.1	107782.24	-0.0005517406	107785.64	689990.06	-0.0002827556
0	0.5690491	0.5690466	-3.239383e-10	0.019798992	0.019798992	0	67796.516	67796.23	-3.625e-05	690201.5	106463.875	-0.0004443302	106467.26	690201.5	-2.3868977e-05
0	0.5682523	0.5682498	-2.1537519e-10	0.019445421	0.019445421	0	67701.58	67701.29	-2.1875e-05	690411.5	105138.38	-0.00030937867	105141.74	690411.4	4.4065804e-05
0	0.5674496	0.56744725	-2.8366487e-10	0.019091858	0.019091858	0	67605.945	67605.66	-3.09375e-05	690619.8	103806.36	-0.00034059194	103809.695	690619.75	-4.957403e-05
0	0.5666404	0.56663793	-5.323094e-10	0.018738287	0.018738287	0	67509.52	67509.234	-6.4375e-05	690826.7	102466.44	-0.0003708872	102469.75	690826.6	-0.00036721505
0	0.56582534	0.565823	-1.873589e-10	0.01838475	0.01838475	0	67412.44	67412.15	-2e-05	691031.9	101120.35	-0.00026990304	101123.66	691031.8	3.6721503e-06
0	0.56500393	0.5650016	-2.8891795e-10	0.018031184	0.018031185	0	67314.58	67314.3	-3.5e-05	691235.44	99766.82	-0.00025613248	99770.086	691235.5	-0.00015973854
0	0.56417644	0.5641742	-4.8152987e-10	0.017677717	0.017677717	0	67215.984	67215.7	-5.625e-05	691437.4	98406.445	-0.00048472386	98409.695	691437.44	-0.00019462398
0	0.56334263	0.5633403	1.575916e-11	0.017324144	0.017324144	0	67116.63	67116.37	4.375e-06	691637.5	97038.836	-9.3639836e-05	97042.06	691637.56	0.00010282021
0	0.562502	0.56249976	-1.0506106e-11	0.01697058	0.01697058	0	67016.49	67016.23	-4.6875e-06	691836.1	95663.53	2.5705052e-05	95666.73	691836.06	-7.344301e-05
0	0.5616551	0.5616529	-2.7841182e-10	0.01661704	0.016617043	0	66915.586	66915.32	-3.3125e-05	692032.9	94281.19	-0.0002754113	94284.375	692032.9	-0.00014321387
0	0.5608019	0.5607997	8.579987e-11	0.016263481	0.016263481	0	66813.945	66813.67	9.6875e-06	692227.7	92891.875	4.0393654e-05	92895.03	692227.75	9.547591e-05
0	0.5599418	0.5599396	-4.710238e-10	0.015909908	0.015909908	0	66711.47	66711.21	-5.578125e-05	692420.75	91494.695	-0.00038190364	91497.83	692420.9	-0.00029009988
0	0.5590749	0.55907273	-3.344444e-10	0.015556336	0.015556336	0	66608.18	66607.93	-4.03125e-05	692611.94	90089.805	-0.00043331375	90092.914	692612	-5.324618e-05
0	0.55820197	0.5581999	-5.6557875e-10	0.015202776	0.015202776	0	66504.18	66503.93	-6.75e-05	692801.1	88678.59	-0.00043147767	88681.67	692801.2	-0.00033600177
0	0.5573218	0.5573197	-2.3288535e-10	0.014849206	0.014849206	0	66399.32	66399.07	-2.46875e-05	692988.4	87259.04	-0.00021023062	87262.09	692988.56	-0.00013586956
0	0.55643475	0.55643266	1.2782429e-10	0.014495678	0.014495678	0	66293.64	66293.39	1.4375e-05	693173.56	85831.95	-0.00022583726	85834.97	693173.75	0.00038924796
0	0.55553985	0.5555378	-7.87958e-10	0.014142117	0.014142117	0	66187.016	66186.78	-9.484375e-05	693357	84395.8	-0.00071239716	84398.78	693357.2	-0.00040944476
0	0.5546399	0.5546379	1.2957531e-10	0.013788612	0.0137886135	0	66079.8	66079.56	1.625e-05	693538	82954.9	6.793478e-05	82957.836	693538.25	0.00013586956
0	0.55373174	0.55372983	-2.661547e-10	0.013435041	0.013435041	0	65971.6	65971.37	-3.21875e-05	693717.1	81504.48	-0.00038190364	81507.41	693717.3	-2.0196827e-05
0	0.5528166	0.55281484	-3.7121578e-10	0.013081476	0.013081476	0	65862.58	65862.35	-4.40625e-05	693893.94	80046.52	-0.00030662457	80049.42	693894.1	-0.00021665687
0	0.5518943	0.55189246	7.004071e-11	0.012727952	0.012727952	0	65752.695	65752.48	7.96875e-06	694068.5	78580.67	-0.000100984136	78583.53	694068.75	0.00020564042
0	0.55096483	0.55096304	-2.7841182e-10	0.0123743825	0.0123743825	0	65641.96	65641.734	-3.25e-05	694240.8	77107.13	-0.00026072268	77109.97	694241.1	-0.000113836664
0	0.55002606	0.5500242	2.6265266e-11	0.012020824	0.012020824	0	65530.098	65529.887	6.5625e-06	694411.25	75622.35	0.0001413778	75625.164	694411.5	-6.6098706e-05
0	0.5490835	0.54908174	-1.12065135e-10	0.011667253	0.011667253	0	65417.8	65417.6	-1.375e-05	694578.7	74135.41	-0.0002956081	74138.16	694579	0.0001413778
0	0.54813176	0.54813004	-5.603257e-10	0.011313697	0.011313697	0	65304.418	65304.22	-7e-05	694744.06	72637.72	-0.00065547886	72640.45	694744.4	-0.00017809929
0	0.547172	0.54717034	-3.852239e-10	0.010960129	0.010960131	0	65190.074	65189.867	-4.8125e-05	694907	71131.086	-0.0003461002	71133.77	694907.25	-0.00023868978
0	0.5462053	0.5462037	-1.6109364e-10	0.010606614	0.010606614	0	65074.902	65074.707	-1.796875e-05	695067.4	69617.47	-8.6295535e-05	69620.13	695067.7	-0.000113836664
0	0.5452301	0.5452284	-3.1868524e-10	0.010253064	0.010253064	0	64958.71	64958.52	-3.96875e-05	695225.25	68094.23	-0.00035252643	68096.85	695225.6	-7.527908e-05
0	0.54424775	0.54424614	-5.1129717e-10	0.009899496	0.009899496	0	64841.676	64841.48	-6.03125e-05	695380.5	66563.75	-0.00061141304	66566.336	695380.8	-9.547591e-05
0	0.5432571	0.5432556	-1.8035483e-10	0.009545929	0.009545929	0	64723.656	64723.477	-2.09375e-05	695533.2	65024.34	-2.3868977e-05	65026.88	695533.5	-0.00019829613
0	0.54225844	0.54225695	9.2803945e-11	0.009192375	0.009192375	0	64604.67	64604.49	1.375e-05	695683.2	63476.133	2.5705052e-05	63478.637	695683.56	0.0001560664
0	0.54125106	0.54124963	-7.686968e-10	0.008838858	0.008838858	0	64484.652	64484.48	-9.28125e-05	695830.44	61918.52	-0.000585708	61920.977	695830.94	-0.0004994125
0	0.540237	0.54023564	-1.9611399e-10	0.00848529	0.00848529	0	64363.836	64363.67	-2.390625e-05	695974.9	60354.543	-0.00026072268	60356.96	695975.3	-3.6721503e-05
0	0.5392142	0.53921276	-7.109132e-10	0.00813174	0.008131741	0	64241.977	64241.812	-8.4375e-05	696116.4	58781.008	-0.00066098705	58783.39	696116.9	-0.00034151
0	0.5381828	0.5381814	-2.9942404e-10	0.007778168	0.007778168	0	64119.098	64118.938	-3.390625e-05	696255.1	57198.43	-0.00035711663	57200.754	696255.6	-5.324618e-05
0	0.5371429	0.5371416	-4.2199527e-10	0.007424603	0.007424603	0	63995.207	63995.055	-5.34375e-05	696390.9	55606.9	-0.0006444624	55609.19	696391.4	7.3443007e-06
0	0.53609467	0.53609353	-3.1518319e-10	0.0070710587	0.0070710587	0	63870.324	63870.176	-3.625e-05	696523.6	54006.766	-0.0003121328	54009	696524.1	-0.000113836664
0	0.53503805	0.5350369	-5.93595e-10	0.0067175203	0.0067175203	0	63744.434	63744.293	-6.96875e-05	696653.2	52397.86	-0.0004663631	52400.05	696653.8	-0.00036721505
0	0.53397256	0.5339714	-2.94171e-10	0.006363976	0.006363976	0	63617.496	63617.35	-3.4375e-05	696779.9	50779.617	-0.00051410106	50781.76	696780.3	8.445946e-05
0	0.5328974	0.5328963	8.579987e-11	0.006010412	0.006010412	0	63489.395	63489.266	9.6875e-06	696903.25	49151	-3.3049353e-05	49153.09	696903.7	0.00018727967
0	0.53181505	0.53181404	-4.3775445e-11	0.0056568487	0.0056568487	0	63360.44	63360.316	-4.6875e-06	697023.25	47515.8	-0.00019921416	47517.85	697023.8	0.00011934489
0	0.53072304	0.530722	-2.5915062e-10	0.005303307	0.005303307	0	63230.34	63230.215	-3.109375e-05	697140	45870.207	-0.0004296416	45872.207	697140.5	5.1410105e-05