//mumax 3.10 [windows_amd64 go1.11.6(gc) CUDA-11.0]
//GPU info: NVIDIA GeForce RTX 3090(24575MB), CUDA Driver 12.0, cc=8.6, using cc=80 PTX
//(c) Arne Vansteenkiste, Dynamat LAB, Ghent University, Belgium
//This is free software without any warranty. See license.txt
//********************************************************************//
//  If you use mumax in any work or publication,                      //
//  we kindly ask you to cite the references in references.bib        //
//********************************************************************//
//output directory: r1;p0.8;a5.12e-07;l1.8000000000000002e-07;s2.out/
randSeed(2)
ThermSeed(2)
resolution := 2e-09
zResolution := 5e-09
a := 5.12e-07
gridSize := 512
gridDepth := 5
SetCellsize(resolution, resolution, zResolution)
SetGridsize(gridSize, gridSize, gridDepth)
SetPBC(16, 16, 0)
//resizing...
Msat = 700e3
Aex = 13e-12
alpha = 0.2
Bmax := 0.1
Bstep := Bmax / 500.0
TableAdd(B_ext)
TableAdd(m_full)
islandWidth := 8e-08
islandLength := 1.8000000000000002e-07
ellipseConstant := 7.200000000000001e-08
hIsland := rect(islandLength-2*ellipseConstant, islandWidth)
hIsland = hIsland.add(ellipse(ellipseConstant*2, islandWidth).transl(islandLength/2-ellipseConstant, 0, 0))
hIsland = hIsland.add(ellipse(ellipseConstant*2, islandWidth).transl(-islandLength/2+ellipseConstant, 0, 0))
hIsland = hIsland.add(rect(6.000000000000001e-09, 2.368851425772736e-09).transl(4.69019002233999e-08, -3.6635846320795394e-08, 0))
hIsland = hIsland.sub(rect(6.000000000000001e-09, -4.299181891517281e-09).transl(-3.347943389305443e-08, -3.9064631181766664e-08, 0))
hIsland = hIsland.sub(rect(6.000000000000001e-09, -6.510389954697011e-10).transl(-8.70748602254842e-08, -1.1285625141037559e-08, 0))
hIsland = hIsland.sub(rect(6.000000000000001e-09, -4.4823764628612947e-10).transl(3.726493072532307e-08, -3.854155383025927e-08, 0))
hIsland = hIsland.sub(rect(6.000000000000001e-09, -5.730244518576353e-10).transl(3.806028354352588e-08, -3.84161144177923e-08, 0))
hIsland = hIsland.sub(rect(6.000000000000001e-09, -2.772510492253695e-09).transl(-4.457668374240199e-09, -4e-08, 0))
hIsland = hIsland.sub(rect(6.000000000000001e-09, -1.7292328134275603e-09).transl(8.092827246688393e-08, -1.943676454949104e-08, 0))
hIsland = hIsland.sub(rect(6.000000000000001e-09, -1.3241217574853986e-09).transl(6.190871947744541e-08, -3.1700879928254664e-08, 0))
hIsland = hIsland.sub(rect(6.000000000000001e-09, -2.0520716005634986e-09).transl(-8.005180214516059e-10, -4e-08, 0))
hIsland = hIsland.add(rect(6.000000000000001e-09, 1.103405602985513e-09).transl(2.6862640094164585e-09, -4e-08, 0))
hIsland = hIsland.add(rect(6.000000000000001e-09, 8.902778230012151e-10).transl(7.607035493876673e-09, -4e-08, 0))
hIsland = hIsland.add(rect(6.000000000000001e-09, 2.31246974537654e-09).transl(-5.932115566286552e-08, -3.275687702127298e-08, 0))
hIsland = hIsland.sub(rect(6.000000000000001e-09, -2.313029438043445e-09).transl(-5.797136801231907e-08, -3.326979935531825e-08, 0))
hIsland = hIsland.add(rect(6.000000000000001e-09, 1.2744669560736035e-09).transl(-1.7581342130521623e-08, -4e-08, 0))
hIsland = hIsland.add(rect(6.000000000000001e-09, 2.2210412952600846e-10).transl(-4.665511215303392e-08, -3.669563059524989e-08, 0))
hIsland = hIsland.add(rect(6.000000000000001e-09, 3.1990518478477945e-09).transl(1.2968580202458226e-08, -4e-08, 0))
hIsland = hIsland.add(rect(6.000000000000001e-09, 2.794868438354447e-09).transl(2.646612985551475e-08, -3.97225122183259e-08, 0))
hIsland = hIsland.sub(rect(6.000000000000001e-09, -2.377779246287808e-09).transl(-8.610972822157238e-08, -1.2970347492222263e-08, 0))
hIsland = hIsland.add(rect(6.000000000000001e-09, 2.1101421735883764e-09).transl(-6.362668171489672e-08, -3.094302767396797e-08, 0))
hIsland = hIsland.add(rect(6.000000000000001e-09, 5.783744702875979e-10).transl(2.0635779664318907e-08, -3.997318802617159e-08, 0))
hIsland = hIsland.sub(rect(6.000000000000001e-09, -1.4540475671890208e-09).transl(-2.2238737680979024e-08, -3.993062310282924e-08, 0))
hIsland = hIsland.add(rect(6.000000000000001e-09, 7.993253481814764e-10).transl(5.295076446210674e-08, -3.497108180787473e-08, 0))
hIsland = hIsland.add(rect(6.000000000000001e-09, 5.661825659258387e-10).transl(-3.423925002838137e-08, -3.896930874718264e-08, 0))
hIsland = hIsland.sub(rect(6.000000000000001e-09, -2.4556397545766157e-09).transl(-5.3090990394153056e-08, -3.492771368230806e-08, 0))
hIsland = hIsland.sub(rect(6.000000000000001e-09, -3.8320975486276185e-09).transl(-2.864759138881862e-08, -3.9560193226946196e-08, 0))
hIsland = hIsland.sub(rect(6.000000000000001e-09, -9.347964050860325e-10).transl(4.404943342801788e-09, -4e-08, 0))
hIsland = hIsland.add(rect(6.000000000000001e-09, 2.4177674191034033e-09).transl(8.364802262087733e-08, -1.6427328986925574e-08, 0))
hIsland = hIsland.add(rect(6.000000000000001e-09, 1.5999546308064792e-09).transl(-5.789136306762543e-08, -3.329942327294527e-08, 0))
hIsland = hIsland.sub(rect(6.000000000000001e-09, -3.357666494703175e-09).transl(1.5003231989974094e-08, -4e-08, 0))
hIsland = hIsland.sub(rect(6.000000000000001e-09, -2.11559547178933e-09).transl(4.575619368197448e-09, -4e-08, 0))
hIsland = hIsland.add(rect(6.000000000000001e-09, 5.082514640166725e-09).transl(-8.888543286261817e-08, -7.010913183490191e-09, 0))
hIsland = hIsland.sub(rect(6.000000000000001e-09, -5.861220313535649e-10).transl(5.512586070099701e-08, -3.4272286914845766e-08, 0))
hIsland = hIsland.add(rect(6.000000000000001e-09, 1.7320760483917825e-09).transl(-5.619766964795261e-08, -3.390681690384984e-08, 0))
hIsland = hIsland.add(rect(6.000000000000001e-09, 1.8404603485110798e-09).transl(8.691422268765948e-08, -1.1584764251554669e-08, 0))
hIsland = hIsland.sub(rect(6.000000000000001e-09, -3.383151641215333e-10).transl(2.637372607177046e-08, -3.9728557038283195e-08, 0))
hIsland = hIsland.add(rect(6.000000000000001e-09, 7.912163181827907e-10).transl(8.282336739368951e-08, -1.7408766059749087e-08, 0))
hIsland = hIsland.sub(rect(6.000000000000001e-09, -1.4258953606366733e-09).transl(3.726556537711407e-08, -3.85414559181431e-08, 0))
hIsland = hIsland.sub(rect(6.000000000000001e-09, -7.298137236504536e-10).transl(2.7154457524325527e-08, -3.967536438814253e-08, 0))
hIsland = hIsland.sub(rect(6.000000000000001e-09, -1.2491863940686181e-11).transl(-2.978561926036196e-08, -3.9460478660635596e-08, 0))
hIsland = hIsland.sub(rect(6.000000000000001e-09, -3.746861148522352e-09).transl(4.590928696639754e-08, -3.687261898999388e-08, 0))
hIsland = hIsland.sub(rect(6.000000000000001e-09, -2.37214567612723e-09).transl(8.88917329595413e-08, -6.991224613957471e-09, 0))
hIsland = hIsland.sub(rect(6.000000000000001e-09, -3.9868531553922026e-09).transl(4.8657335939769854e-08, -3.6192761336648995e-08, 0))
hIsland = hIsland.sub(rect(6.000000000000001e-09, -4.381647063765376e-10).transl(-3.8024946553952064e-08, -3.8421804169659384e-08, 0))
hIsland = hIsland.sub(rect(6.000000000000001e-09, -3.3998308788855584e-10).transl(-5.109915136088529e-09, -4e-08, 0))
hIsland = hIsland.sub(rect(6.000000000000001e-09, -3.955488211514327e-09).transl(-8.709588825764396e-08, -1.1245825369299672e-08, 0))
hIsland = hIsland.add(rect(6.000000000000001e-09, 1.494267231954109e-10).transl(-2.1882840183370192e-08, -3.994179234013814e-08, 0))
hIsland = hIsland.add(rect(6.000000000000001e-09, 1.6953892989642572e-09).transl(-7.157718865086221e-08, -2.6721499506685224e-08, 0))
hIsland = hIsland.add(rect(6.000000000000001e-09, 1.6812258284261e-10).transl(3.643610376777983e-08, -3.866646742391058e-08, 0))
hIsland = hIsland.add(rect(6.000000000000001e-09, 1.2726384977385143e-09).transl(-1.5173759575235493e-08, -4e-08, 0))
hIsland = hIsland.add(rect(6.000000000000001e-09, 1.623933093108921e-10).transl(6.39147883356138e-08, -3.0811214348986514e-08, 0))
hIsland = hIsland.sub(rect(6.000000000000001e-09, -1.2913068946723973e-09).transl(2.62821108181978e-08, -3.973448388992218e-08, 0))
hIsland = hIsland.add(rect(6.000000000000001e-09, 1.489656142379179e-09).transl(-2.924975060177684e-08, -3.950872349131148e-08, 0))
hIsland = hIsland.add(rect(6.000000000000001e-09, 5.786199602848164e-09).transl(3.012457773961436e-08, -3.942877080864e-08, 0))
hIsland = hIsland.sub(rect(6.000000000000001e-09, -1.178068080378017e-09).transl(-7.979749925216468e-08, -2.0526022975505e-08, 0))
hIsland = hIsland.sub(rect(6.000000000000001e-09, -8.236195460589772e-10).transl(8.778032723643835e-08, -9.855529418347873e-09, 0))
hIsland = hIsland.add(rect(6.000000000000001e-09, 4.5652987142392945e-10).transl(-7.189746554052398e-08, -2.6521963925498455e-08, 0))
hIsland = hIsland.add(rect(6.000000000000001e-09, 8.650777374572362e-10).transl(2.8481452342204488e-08, -3.957388447379271e-08, 0))
hIsland = hIsland.add(rect(6.000000000000001e-09, 2.301941588521872e-10).transl(4.214846029482209e-08, -3.7683099764167955e-08, 0))
hIsland = hIsland.add(rect(6.000000000000001e-09, 9.70625962216879e-10).transl(3.750470564062921e-08, -3.8504314564527395e-08, 0))
hIsland = hIsland.add(rect(6.000000000000001e-09, 1.4380812968337049e-09).transl(-2.1884663499362393e-08, -3.994173762076025e-08, 0))
hIsland = hIsland.sub(rect(6.000000000000001e-09, -1.5522700632564574e-10).transl(-2.0847702462458648e-08, -3.996870145364404e-08, 0))
hIsland = hIsland.add(rect(6.000000000000001e-09, 1.7990985023050022e-10).transl(-3.334220314226528e-08, -3.908133653092819e-08, 0))
hIsland = hIsland.sub(rect(6.000000000000001e-09, -1.0918231034302564e-09).transl(-2.0084456591226307e-08, -3.99832335258789e-08, 0))
hIsland = hIsland.add(rect(6.000000000000001e-09, 1.951316899481833e-09).transl(4.53683969269262e-08, -3.699754266802444e-08, 0))
hIsland = hIsland.add(rect(6.000000000000001e-09, 2.6865421682068102e-09).transl(-6.045366928232766e-08, -3.2306814079177285e-08, 0))
hIsland = hIsland.add(rect(6.000000000000001e-09, 1.012443553517282e-10).transl(6.112872042853994e-08, -3.202966157222277e-08, 0))
hIsland = hIsland.sub(rect(6.000000000000001e-09, -2.0257420756585502e-09).transl(5.1601322507655e-08, -3.5376943412727634e-08, 0))
hIsland = hIsland.sub(rect(6.000000000000001e-09, -4.789758088419178e-10).transl(5.760819318324198e-08, -3.340358815260454e-08, 0))
hIsland = hIsland.sub(rect(6.000000000000001e-09, -4.822193712582973e-09).transl(-7.12854798893236e-08, -2.6900924951767836e-08, 0))
hIsland = hIsland.sub(rect(6.000000000000001e-09, -1.1876254599589419e-09).transl(-2.4773682651028933e-08, -3.9822589684499226e-08, 0))
hIsland = hIsland.sub(rect(6.000000000000001e-09, -1.6891502829774615e-09).transl(2.1135498741641882e-08, -3.9962052399595457e-08, 0))
hIsland = hIsland.add(rect(6.000000000000001e-09, 1.0564560936605964e-09).transl(-7.955875574237045e-08, -2.0746259453503686e-08, 0))
hIsland = hIsland.add(rect(6.000000000000001e-09, 1.3300113629935504e-09).transl(-5.496268525122836e-08, -3.432667995142015e-08, 0))
hIsland = hIsland.add(rect(6.000000000000001e-09, 1.1004235497645585e-09).transl(7.285864133939025e-08, -2.5906583547622045e-08, 0))
hIsland = hIsland.sub(rect(6.000000000000001e-09, -2.1015085306741443e-09).transl(8.565846337901738e-08, -1.3679897989726033e-08, 0))
hIsland = hIsland.sub(rect(6.000000000000001e-09, -4.988369239830802e-10).transl(-3.831680613582412e-08, -3.8374484306823086e-08, 0))
hIsland = hIsland.sub(rect(6.000000000000001e-09, -3.434986959047336e-09).transl(1.1809046970169917e-08, -4e-08, 0))
hIsland = hIsland.sub(rect(6.000000000000001e-09, -5.939620165361781e-10).transl(3.3731078229464314e-08, -3.9033592598604735e-08, 0))
hIsland = hIsland.sub(rect(6.000000000000001e-09, -2.317054339944774e-09).transl(1.0804187343167536e-08, -4e-08, 0))
hIsland = hIsland.sub(rect(6.000000000000001e-09, -1.9502911715518727e-09).transl(-1.0197538474341933e-08, -4e-08, 0))
hIsland = hIsland.sub(rect(6.000000000000001e-09, -1.8059712129093583e-09).transl(-8.512217548329363e-08, -1.4472340140167263e-08, 0))
hIsland = hIsland.sub(rect(6.000000000000001e-09, -2.239912110824934e-09).transl(-7.743832255356088e-08, -2.2574197359498144e-08, 0))
hIsland = hIsland.sub(rect(6.000000000000001e-09, -1.6961892675134142e-09).transl(3.683015900949041e-08, -3.860781405458282e-08, 0))
hIsland = hIsland.sub(rect(6.000000000000001e-09, -2.796337428481778e-09).transl(-4.036399191173773e-08, -3.802148460942648e-08, 0))
hIsland = hIsland.add(rect(6.000000000000001e-09, 2.0149157072235646e-09).transl(-3.09676923373127e-08, -3.9345882161142594e-08, 0))
hIsland = hIsland.sub(rect(6.000000000000001e-09, -5.105399779835926e-09).transl(1.2953042267285274e-08, -4e-08, 0))
hIsland = hIsland.sub(rect(6.000000000000001e-09, -3.136578939246825e-10).transl(-1.3837229635568529e-08, -4e-08, 0))
hIsland = hIsland.add(rect(6.000000000000001e-09, 3.6784907901770636e-09).transl(6.24957005345355e-08, -3.144725465426852e-08, 0))
hIsland = hIsland.sub(rect(6.000000000000001e-09, -1.866987654887191e-10).transl(-2.4136096574437697e-08, -3.985447416225367e-08, 0))
hIsland = hIsland.sub(rect(6.000000000000001e-09, -4.0541591461004104e-10).transl(6.808011349454638e-08, -2.8738831606217774e-08, 0))
hIsland = hIsland.add(rect(6.000000000000001e-09, 2.2475682215327866e-09).transl(-1.157941816103058e-08, -4e-08, 0))
hIsland = hIsland.add(rect(6.000000000000001e-09, 3.5553811137808014e-09).transl(-6.294011256469768e-08, -3.125159888587383e-08, 0))
hIsland = hIsland.sub(rect(6.000000000000001e-09, -5.445695862370393e-09).transl(2.682819712299717e-08, -3.9698178175839646e-08, 0))
hIsland = hIsland.sub(rect(6.000000000000001e-09, -2.1827633847970513e-09).transl(-1.77576365559211e-08, -4e-08, 0))
hIsland = hIsland.sub(rect(6.000000000000001e-09, -2.2111862856915114e-09).transl(4.615168879177258e-08, -3.681570056480695e-08, 0))
hIsland = hIsland.add(rect(6.000000000000001e-09, 3.1695452276455215e-09).transl(5.018820338902362e-08, -3.578019126860788e-08, 0))
hIsland = hIsland.sub(rect(6.000000000000001e-09, -1.2054330192297255e-09).transl(-1.64833854185113e-08, -4e-08, 0))
hIsland = hIsland.add(rect(6.000000000000001e-09, 6.346402638124067e-10).transl(8.271361455069332e-08, -1.753434101265968e-08, 0))
hIsland = hIsland.add(rect(6.000000000000001e-09, 1.5474009821507247e-09).transl(-7.679161991588104e-08, -2.309097298145806e-08, 0))
hIsland = hIsland.add(rect(6.000000000000001e-09, 2.9296170196246585e-09).transl(1.7433342504033815e-08, -4e-08, 0))
hIsland = hIsland.add(rect(6.000000000000001e-09, 6.38946216424248e-10).transl(3.795089161304356e-08, 3.843369279587042e-08, 0))
hIsland = hIsland.add(rect(6.000000000000001e-09, 3.7780472066542815e-10).transl(-6.512899528167594e-08, 3.024007746525902e-08, 0))
hIsland = hIsland.add(rect(6.000000000000001e-09, 1.5298434210685307e-09).transl(2.9678079581607343e-08, 3.9470345397892115e-08, 0))
hIsland = hIsland.add(rect(6.000000000000001e-09, 2.046914910895871e-09).transl(-2.6097144689887654e-08, 3.9746248552967444e-08, 0))
hIsland = hIsland.sub(rect(6.000000000000001e-09, -5.266599700131856e-10).transl(-8.900714357348079e-08, 6.619871915490248e-09, 0))
hIsland = hIsland.add(rect(6.000000000000001e-09, 1.032237023849642e-09).transl(-2.8448544158624488e-08, 3.957657027980998e-08, 0))
hIsland = hIsland.sub(rect(6.000000000000001e-09, -8.489937825314041e-10).transl(4.994237838739206e-08, 3.584812125075523e-08, 0))
hIsland = hIsland.add(rect(6.000000000000001e-09, 2.1981238496025793e-09).transl(-6.697362023957244e-08, 2.9321464984486424e-08, 0))
hIsland = hIsland.sub(rect(6.000000000000001e-09, -1.913888929732466e-09).transl(1.5005465420621104e-08, 4e-08, 0))
hIsland = hIsland.add(rect(6.000000000000001e-09, 1.6901473400235642e-09).transl(-2.39248386525008e-08, 3.9864338959288656e-08, 0))
hIsland = hIsland.add(rect(6.000000000000001e-09, 1.9486603510322952e-10).transl(6.582640582254608e-08, 2.990021938323833e-08, 0))
hIsland = hIsland.add(rect(6.000000000000001e-09, 1.893823991518656e-09).transl(-2.050126000389407e-08, 3.997585574711146e-08, 0))
hIsland = hIsland.add(rect(6.000000000000001e-09, 3.87480518520781e-09).transl(7.363235695815772e-08, 2.539223694967971e-08, 0))
hIsland = hIsland.add(rect(6.000000000000001e-09, 6.093720873991631e-10).transl(4.47088188937698e-08, 3.7146020645338183e-08, 0))
hIsland = hIsland.add(rect(6.000000000000001e-09, 1.1142303431956154e-10).transl(8.503871367774602e-08, 1.4591250426971283e-08, 0))
hIsland = hIsland.add(rect(6.000000000000001e-09, 9.875025988356862e-10).transl(7.65963236743311e-08, 2.3243682613478423e-08, 0))
hIsland = hIsland.sub(rect(6.000000000000001e-09, -1.4463362933001613e-09).transl(-8.283413664465621e-08, 1.7396383950408053e-08, 0))
hIsland = hIsland.add(rect(6.000000000000001e-09, 3.6313777199014142e-09).transl(1.7114089498846008e-08, 4e-08, 0))
hIsland = hIsland.add(rect(6.000000000000001e-09, 7.070235922144121e-10).transl(1.3436705859357679e-08, 4e-08, 0))
hIsland = hIsland.add(rect(6.000000000000001e-09, 1.3779425019506386e-09).transl(5.177805792206177e-08, 3.53249588390359e-08, 0))
hIsland = hIsland.sub(rect(6.000000000000001e-09, -7.511659563425475e-10).transl(8.132518738048671e-08, 1.903473630447611e-08, 0))
hIsland = hIsland.sub(rect(6.000000000000001e-09, -2.616510882884094e-09).transl(-6.505500243241159e-09, 4e-08, 0))
hIsland = hIsland.sub(rect(6.000000000000001e-09, -1.8903593121209003e-09).transl(8.012445699825006e-08, 2.0219107228588684e-08, 0))
hIsland = hIsland.sub(rect(6.000000000000001e-09, -1.380815531749888e-09).transl(-1.6045816388641286e-08, 4e-08, 0))
hIsland = hIsland.sub(rect(6.000000000000001e-09, -1.8279452728712991e-09).transl(-8.13926873509224e-08, 1.896526381608343e-08, 0))
hIsland = hIsland.add(rect(6.000000000000001e-09, 8.587308461844827e-10).transl(7.737378019097378e-08, 2.2626559190759463e-08, 0))
hIsland = hIsland.add(rect(6.000000000000001e-09, 1.1841741160437002e-09).transl(1.7674215762711045e-08, 4e-08, 0))
hIsland = hIsland.add(rect(6.000000000000001e-09, 1.4792156706970669e-09).transl(-7.023999424422851e-08, 2.7526547238798526e-08, 0))
hIsland = hIsland.sub(rect(6.000000000000001e-09, -8.834088727729473e-10).transl(-6.516928885107552e-08, 3.022068107428697e-08, 0))
hIsland = hIsland.add(rect(6.000000000000001e-09, 1.5590942937072866e-10).transl(6.076067939805238e-08, 3.2181604176158146e-08, 0))
hIsland = hIsland.sub(rect(6.000000000000001e-09, -1.8190080490443263e-09).transl(6.895435365052901e-08, 2.8260548364189574e-08, 0))
hIsland = hIsland.sub(rect(6.000000000000001e-09, -2.2952907504710484e-09).transl(5.9530691574310066e-08, 3.267498787327049e-08, 0))
hIsland = hIsland.sub(rect(6.000000000000001e-09, -3.6763396425687567e-09).transl(1.9964006913859203e-08, 3.998511558269161e-08, 0))
hIsland = hIsland.sub(rect(6.000000000000001e-09, -1.3686600388298751e-09).transl(-7.14834656732715e-08, 2.677938503461377e-08, 0))
hIsland = hIsland.add(rect(6.000000000000001e-09, 2.2977107175885235e-09).transl(8.351757863038418e-08, 1.6587282150470876e-08, 0))
hIsland = hIsland.add(rect(6.000000000000001e-09, 6.74164944094899e-10).transl(2.5819130464285952e-08, 3.976342540104186e-08, 0))
hIsland = hIsland.add(rect(6.000000000000001e-09, 5.711237407410739e-10).transl(2.3643099516910813e-08, 3.987695359912002e-08, 0))
hIsland = hIsland.add(rect(6.000000000000001e-09, 1.749408328557359e-09).transl(-4.463705551988701e-08, 3.716192160886896e-08, 0))
hIsland = hIsland.add(rect(6.000000000000001e-09, 2.8479648592724246e-09).transl(1.3943381010311263e-10, 4e-08, 0))
hIsland = hIsland.sub(rect(6.000000000000001e-09, -1.065598873513154e-09).transl(-1.841522122856327e-08, 3.9999334837568837e-08, 0))
hIsland = hIsland.add(rect(6.000000000000001e-09, 3.5001361721748427e-10).transl(-3.724272758424078e-08, 3.8544977075524185e-08, 0))
hIsland = hIsland.sub(rect(6.000000000000001e-09, -1.5242871340054635e-10).transl(-7.337891592480213e-08, 2.5562654032218454e-08, 0))
hIsland = hIsland.add(rect(6.000000000000001e-09, 1.6922622565645243e-10).transl(6.352495380248732e-08, 3.09892383813675e-08, 0))
hIsland = hIsland.sub(rect(6.000000000000001e-09, -2.966905306791288e-10).transl(7.796768823922453e-08, 2.213787023477741e-08, 0))
hIsland = hIsland.add(rect(6.000000000000001e-09, 3.0221052151739932e-09).transl(-4.203368250039864e-09, 4e-08, 0))
hIsland = hIsland.sub(rect(6.000000000000001e-09, -3.3506031007653424e-09).transl(-6.921115137081831e-08, 2.8116918456331238e-08, 0))
hIsland = hIsland.sub(rect(6.000000000000001e-09, -1.6542232777007527e-09).transl(-4.616294752960338e-08, 3.681304278748347e-08, 0))
hIsland = hIsland.sub(rect(6.000000000000001e-09, -1.0321744527590435e-09).transl(-4.669559303242295e-08, 3.668586593524814e-08, 0))
hIsland = hIsland.add(rect(6.000000000000001e-09, 2.9667383308902323e-09).transl(-1.750570422695489e-09, 4e-08, 0))
hIsland = hIsland.add(rect(6.000000000000001e-09, 1.6650107893563865e-09).transl(3.219787155112367e-08, 3.921459023723986e-08, 0))
hIsland = hIsland.sub(rect(6.000000000000001e-09, -1.872427599927628e-09).transl(6.802840150627723e-08, 2.8766616468813326e-08, 0))
hIsland = hIsland.add(rect(6.000000000000001e-09, 6.268074174401201e-10).transl(7.412239347017812e-08, 2.5057199694630218e-08, 0))
hIsland = hIsland.sub(rect(6.000000000000001e-09, -2.737716169021588e-10).transl(6.751232096814304e-08, 2.9040893221793725e-08, 0))
hIsland = hIsland.add(rect(6.000000000000001e-09, 2.0996118077612354e-10).transl(3.4124133780091987e-09, 4e-08, 0))
hIsland = hIsland.sub(rect(6.000000000000001e-09, -8.203671290075977e-10).transl(3.166351409291035e-08, 3.9273134970896256e-08, 0))
hIsland = hIsland.sub(rect(6.000000000000001e-09, -5.314927311412094e-09).transl(7.154626504158948e-08, 2.6740623717851228e-08, 0))
hIsland = hIsland.add(rect(6.000000000000001e-09, 6.312486613312451e-10).transl(7.435024094882693e-09, 4e-08, 0))
hIsland = hIsland.sub(rect(6.000000000000001e-09, -2.0500208589934294e-10).transl(-2.036339353153118e-08, 3.9978444697571275e-08, 0))
hIsland = hIsland.sub(rect(6.000000000000001e-09, -1.8037270794341284e-09).transl(7.081540188852688e-08, 2.7185538340488274e-08, 0))
hIsland = hIsland.add(rect(6.000000000000001e-09, 1.2616954708192723e-09).transl(4.88825760704585e-08, 3.613361049184885e-08, 0))
hIsland = hIsland.add(rect(6.000000000000001e-09, 2.8876069558948666e-09).transl(1.880871356040552e-08, 3.999747670427495e-08, 0))
hIsland = hIsland.add(rect(6.000000000000001e-09, 6.716536751017971e-11).transl(-3.8919946291507246e-08, 3.8274334013609235e-08, 0))
hIsland = hIsland.add(rect(6.000000000000001e-09, 1.7420680039344686e-09).transl(-6.08836217077502e-08, 3.213107313602209e-08, 0))
hIsland = hIsland.sub(rect(6.000000000000001e-09, -4.666023907564654e-09).transl(-3.5827934512475686e-08, 3.8754389440833055e-08, 0))
hIsland = hIsland.add(rect(6.000000000000001e-09, 5.234054667983681e-09).transl(5.763296465753071e-08, 3.339451844043874e-08, 0))
hIsland = hIsland.sub(rect(6.000000000000001e-09, -2.859857224123398e-09).transl(5.429465451106952e-09, 4e-08, 0))
hIsland = hIsland.add(rect(6.000000000000001e-09, 4.596973085253465e-09).transl(1.1186457228251287e-08, 4e-08, 0))
hIsland = hIsland.sub(rect(6.000000000000001e-09, -3.1925307143930097e-10).transl(9.363197377281064e-09, 4e-08, 0))
hIsland = hIsland.add(rect(6.000000000000001e-09, 2.8474403263552047e-09).transl(6.251584320100723e-08, 3.143845498563418e-08, 0))
hIsland = hIsland.sub(rect(6.000000000000001e-09, -2.2959015638874e-09).transl(-6.48705715390642e-08, 3.036378977510261e-08, 0))
hIsland = hIsland.sub(rect(6.000000000000001e-09, -1.2630380918329154e-09).transl(-6.547097059075657e-08, 3.00745316516365e-08, 0))
hIsland = hIsland.add(rect(6.000000000000001e-09, 4.448327473014033e-11).transl(-3.6641173926884215e-08, 3.8636109551879454e-08, 0))
hIsland = hIsland.sub(rect(6.000000000000001e-09, -1.5096739445104614e-09).transl(4.4867884514815486e-08, 3.711059872275409e-08, 0))
hIsland = hIsland.add(rect(6.000000000000001e-09, 3.057119731451218e-10).transl(2.5804221295052524e-08, 3.976432939166046e-08, 0))
hIsland = hIsland.add(rect(6.000000000000001e-09, 2.008749146427041e-09).transl(-3.405956016118013e-08, 3.899228527459004e-08, 0))
hIsland = hIsland.sub(rect(6.000000000000001e-09, -1.8224466541972305e-09).transl(1.4068763737706066e-09, 4e-08, 0))
hIsland = hIsland.sub(rect(6.000000000000001e-09, -2.438426242406193e-09).transl(-2.170827724265544e-08, 3.994691183807133e-08, 0))
hIsland = hIsland.add(rect(6.000000000000001e-09, 1.8392824578197528e-09).transl(-4.5596185259374534e-08, 3.694528219238253e-08, 0))
hIsland = hIsland.add(rect(6.000000000000001e-09, 7.431879290170215e-10).transl(-7.664490723474801e-08, 2.3205834564783205e-08, 0))
hIsland = hIsland.add(rect(6.000000000000001e-09, 1.3331859641006309e-09).transl(8.679422083130416e-08, 1.180284518186028e-08, 0))
hIsland = hIsland.add(rect(6.000000000000001e-09, 5.854947934029223e-10).transl(-2.5140846544696154e-08, 3.980278663946793e-08, 0))
hIsland = hIsland.add(rect(6.000000000000001e-09, 1.3788578733329373e-09).transl(4.2387735554953316e-08, 3.763550970686562e-08, 0))
hIsland = hIsland.sub(rect(6.000000000000001e-09, -9.520743217280672e-10).transl(-6.383439028547807e-08, 3.084813792306623e-08, 0))
hIsland = hIsland.sub(rect(6.000000000000001e-09, -1.339578447697961e-09).transl(1.5203475701421376e-08, 4e-08, 0))
hIsland = hIsland.add(rect(6.000000000000001e-09, 1.1098941165669822e-09).transl(1.8331346751301183e-08, 3.999957642264309e-08, 0))
hIsland = hIsland.add(rect(6.000000000000001e-09, 3.029598932948133e-09).transl(8.092403704596368e-08, 1.944099621677543e-08, 0))
hIsland = hIsland.add(rect(6.000000000000001e-09, 2.168920170574759e-09).transl(1.4778528965013319e-08, 4e-08, 0))
hIsland = hIsland.add(rect(6.000000000000001e-09, 1.4679852527722151e-09).transl(4.401992120755118e-08, 3.729662423224444e-08, 0))
hIsland = hIsland.add(rect(6.000000000000001e-09, 1.9003565468806978e-09).transl(-7.272339078831217e-08, 2.5994719909191287e-08, 0))
hIsland = hIsland.sub(rect(6.000000000000001e-09, -6.049189848660634e-10).transl(4.1459052244214426e-08, 3.781727048390517e-08, 0))
hIsland = hIsland.add(rect(6.000000000000001e-09, 2.0275199618744366e-09).transl(-8.917047077646668e-08, 6.054385449033124e-09, 0))
hIsland = hIsland.add(rect(6.000000000000001e-09, 3.64966755466111e-11).transl(6.696652044308934e-08, 2.932512446005455e-08, 0))
hIsland = hIsland.sub(rect(6.000000000000001e-09, -1.8100200765068149e-09).transl(4.4712631003696633e-08, 3.714517459007653e-08, 0))
hIsland = hIsland.add(rect(6.000000000000001e-09, 8.603964282088363e-10).transl(3.119317066139857e-08, 3.932273965900495e-08, 0))
hIsland = hIsland.add(rect(6.000000000000001e-09, 9.707346605412916e-10).transl(-2.6926421912902177e-08, 3.969139826517466e-08, 0))
hIsland = hIsland.add(rect(6.000000000000001e-09, 1.647923067880675e-09).transl(-1.355280238767111e-09, 4e-08, 0))
hIsland = hIsland.add(rect(6.000000000000001e-09, 8.895884637464275e-10).transl(-1.9872511136794585e-09, 4e-08, 0))
hIsland = hIsland.add(rect(6.000000000000001e-09, 1.1133052286457416e-09).transl(8.760317406250123e-09, 4e-08, 0))
hIsland = hIsland.add(rect(6.000000000000001e-09, 1.6865545242595862e-09).transl(-6.936346961088913e-08, 2.8031034330859065e-08, 0))
hIsland = hIsland.sub(rect(6.000000000000001e-09, -2.214920827665007e-10).transl(8.033896290675233e-08, 2.001429815843823e-08, 0))
vIsland := hIsland.rotz(pi / 2)
vIslands := Universe().Inverse()
hIslands := Universe().Inverse()
hIslands = hIslands.add(hIsland.transl(-a/2, a, 0))
hIslands = hIslands.add(hIsland.transl(-a/2, -a, 0))
hIslands = hIslands.add(hIsland.transl(a/2, a, 0))
hIslands = hIslands.add(hIsland.transl(a/2, -a, 0))
hIslands = hIslands.add(hIsland.transl(-a/2, 0, 0))
hIslands = hIslands.add(hIsland.transl(a/2, 0, 0))
vIslands = vIslands.add(vIsland.transl(-a, a/2, 0))
vIslands = vIslands.add(vIsland.transl(a, a/2, 0))
vIslands = vIslands.add(vIsland.transl(-a, -a/2, 0))
vIslands = vIslands.add(vIsland.transl(a, -a/2, 0))
vIslands = vIslands.add(vIsland.transl(0, a/2, 0))
vIslands = vIslands.add(vIsland.transl(0, -a/2, 0))
DefRegion(1, hIslands)
DefRegion(2, vIslands)
TableAdd(m_full.Region(1))
TableAdd(m_full.Region(2))
setgeom(hIslands.add(vIslands))
save(m)
r2o2 := sqrt(2) / 2
m = RandomMagSeed(4)
B_ext = vector(Bmax*r2o2, Bmax*r2o2, 0)
relax()
minimize()
for B := Bmax; B >= -Bmax; B -= Bstep {
	B_ext = vector(B*r2o2, B*r2o2, 0)
	minimize()
	tablesave()
}
//********************************************************************//
//Please cite the following references, relevant for your simulation. //
//See bibtex file in output folder for justification.                 //
//********************************************************************//
//   * Vansteenkiste et al., AIP Adv. 4, 107133 (2014).
//   * Exl et al., J. Appl. Phys. 115, 17D118 (2014).
