//mumax 3.10 [windows_amd64 go1.11.6(gc) CUDA-11.0]
//GPU info: NVIDIA GeForce RTX 3090(24575MB), CUDA Driver 12.1, cc=8.6, using cc=80 PTX
//(c) Arne Vansteenkiste, Dynamat LAB, Ghent University, Belgium
//This is free software without any warranty. See license.txt
//********************************************************************//
//  If you use mumax in any work or publication,                      //
//  we kindly ask you to cite the references in references.bib        //
//********************************************************************//
//output directory: r1;p0.5;a3.4000000000000003e-07;l2.3000000000000002e-07;s4.out/
randSeed(4)
ThermSeed(4)
resolution := 2e-09
zResolution := 5e-09
a := 3.4000000000000003e-07
gridSize := 340
gridDepth := 5
SetCellsize(resolution, resolution, zResolution)
SetGridsize(gridSize, gridSize, gridDepth)
SetPBC(16, 16, 0)
//resizing...
Msat = 700e3
Aex = 13e-12
alpha = 0.2
Bmax := 0.1
Bstep := Bmax / 500.0
TableAdd(B_ext)
TableAdd(m_full)
islandWidth := 8e-08
islandLength := 2.3000000000000002e-07
ellipseConstant := 5.7500000000000005e-08
hIsland := Universe().Inverse()
vIsland := Universe().Inverse()
vIslands := Universe().Inverse()
hIslands := Universe().Inverse()
hIsland = rect(islandLength-2*ellipseConstant, islandWidth)
hIsland = hIsland.add(ellipse(ellipseConstant*2, islandWidth).transl(islandLength/2-ellipseConstant, 0, 0))
hIsland = hIsland.add(ellipse(ellipseConstant*2, islandWidth).transl(-islandLength/2+ellipseConstant, 0, 0))
hIsland = hIsland.sub(rect(4.9157725186683095e-09, -6.085986458256944e-10).transl(3.1291429656271684e-08, -4e-08, 0))
hIsland = hIsland.add(rect(7.895890512084275e-09, 8.183411055711535e-10).transl(-8.057871636518491e-08, -3.663665796290417e-08, 0))
hIsland = hIsland.add(rect(8.279682651505245e-09, 5.054512592793982e-10).transl(4.862353077668468e-08, -4e-08, 0))
hIsland = hIsland.add(rect(5.909325043688838e-09, 4.15222583190547e-10).transl(6.426936223139936e-08, -3.972183498034642e-08, 0))
hIsland = hIsland.sub(rect(3.2390460268436254e-09, -3.019809440258578e-10).transl(8.237177613690676e-08, -3.606434746073686e-08, 0))
hIsland = hIsland.sub(rect(5.004779588898425e-09, -3.364652382865079e-09).transl(-5.1632385463491614e-08, -4e-08, 0))
hIsland = hIsland.sub(rect(3.77889995369051e-09, -1.3400988518410414e-09).transl(2.3185055880738896e-08, -4e-08, 0))
hIsland = hIsland.add(rect(2.0901743205995693e-09, 4.129370902472055e-09).transl(-9.228009688556049e-09, -4e-08, 0))
hIsland = hIsland.sub(rect(4.1462488184569996e-09, -3.1937151642293933e-10).transl(-1.1498102778098266e-07, -1.0274585360681587e-09, 0))
hIsland = hIsland.sub(rect(5.177994493034598e-09, -1.2021659367815255e-09).transl(8.008841144520354e-08, -3.67842403560869e-08, 0))
hIsland = hIsland.add(rect(3.5220174454538747e-09, 2.6020142541236557e-09).transl(-5.924114133797369e-08, -3.998165735557465e-08, 0))
hIsland = hIsland.sub(rect(6.246991231924484e-09, -2.3770750117272256e-09).transl(2.004761742410337e-08, -4e-08, 0))
hIsland = hIsland.sub(rect(8.372471953593416e-09, -4.34012973365869e-09).transl(-1.4035667018876557e-08, -4e-08, 0))
hIsland = hIsland.add(rect(6.328682030439701e-09, 1.7489431830543653e-09).transl(-5.612888631833964e-08, -4e-08, 0))
hIsland = hIsland.sub(rect(4.900636070740786e-09, -1.014458782295095e-09).transl(-2.9453232636446462e-08, -4e-08, 0))
hIsland = hIsland.sub(rect(5.817616144263991e-09, -5.363527633988855e-10).transl(-8.053098856589755e-08, -3.665118965137344e-08, 0))
hIsland = hIsland.sub(rect(7.62653742846943e-09, -1.7242298397577832e-09).transl(-5.089380801446911e-08, -4e-08, 0))
hIsland = hIsland.add(rect(2.6984938546087504e-09, 8.248548948668579e-10).transl(-8.588468398072559e-08, -3.478650214949373e-08, 0))
hIsland = hIsland.sub(rect(8.59734544304538e-09, -2.095326713626053e-09).transl(8.241827092817774e-09, -4e-08, 0))
hIsland = hIsland.sub(rect(2.3585418460725115e-09, -3.308870997964161e-09).transl(-8.192505787049233e-08, -3.6211796537801204e-08, 0))
hIsland = hIsland.sub(rect(5.808349624637116e-09, -1.7259379408133854e-09).transl(-2.178898622227619e-08, -4e-08, 0))
hIsland = hIsland.sub(rect(5.502516340787982e-09, -7.212904824405254e-10).transl(-1.3171644588189909e-09, -4e-08, 0))
hIsland = hIsland.add(rect(9.61408060282458e-09, 4.0572672706057556e-10).transl(4.7655572193398344e-08, -4e-08, 0))
hIsland = hIsland.sub(rect(2.674102427772122e-09, -3.0597177553603173e-10).transl(-3.810314920351934e-08, -4e-08, 0))
hIsland = hIsland.add(rect(9.44273454709931e-09, 1.0025585937803196e-09).transl(1.3509431808019133e-08, -4e-08, 0))
hIsland = hIsland.add(rect(5.248327084396268e-09, 9.662623356217347e-10).transl(-4.7096121340683814e-08, -4e-08, 0))
hIsland = hIsland.sub(rect(5.8673171353494045e-09, -1.4384671652786352e-09).transl(-7.86702801159781e-08, -3.719020048456933e-08, 0))
hIsland = hIsland.add(rect(6.629613812213147e-09, 6.638434339667121e-10).transl(1.075172367894543e-07, -1.973159510119319e-08, 0))
hIsland = hIsland.add(rect(7.60905300734924e-09, 1.1699951667964195e-09).transl(2.900263323891491e-08, -4e-08, 0))
hIsland = hIsland.sub(rect(6.752545117785698e-09, -1.0216018387363213e-09).transl(-9.271150224073833e-08, -3.1622729620225404e-08, 0))
hIsland = hIsland.add(rect(2.356384790244282e-09, 4.418197376958719e-09).transl(-1.0010942141985755e-07, -2.685872599733779e-08, 0))
hIsland = hIsland.add(rect(7.798108728452536e-09, 7.589832181647471e-10).transl(1.1071499918162074e-07, -1.5152030359099583e-08, 0))
hIsland = hIsland.add(rect(9.917723761959523e-09, 1.1888081137918561e-09).transl(-6.706521134441582e-08, -3.9442660719610626e-08, 0))
hIsland = hIsland.add(rect(4.224404213863386e-09, 1.553510742054333e-09).transl(6.462455139106955e-08, -3.9691762190319653e-08, 0))
hIsland = hIsland.add(rect(5.824166370312507e-09, 1.6240737384798609e-09).transl(-2.6139641133077905e-08, -4e-08, 0))
hIsland = hIsland.add(rect(5.382969448109119e-09, 2.029272088515905e-09).transl(-1.3132521512835078e-08, -4e-08, 0))
hIsland = hIsland.sub(rect(3.214723360247125e-09, -1.9227011074542666e-09).transl(-9.253024392402814e-08, -3.1720000033358734e-08, 0))
hIsland = hIsland.add(rect(2.8012464631295944e-09, 2.9399099079617288e-09).transl(8.699456140307412e-08, -3.433676588564597e-08, 0))
hIsland = hIsland.sub(rect(6.915607484801607e-09, -1.4114697578901483e-09).transl(-1.0222041296283582e-07, -2.5143131819330488e-08, 0))
hIsland = hIsland.add(rect(4.258510863240024e-09, 3.805614516569029e-09).transl(-2.688894301760684e-08, -4e-08, 0))
hIsland = hIsland.add(rect(3.060065810513236e-09, 7.707164462777974e-10).transl(9.690047522269441e-08, -2.9133233264988667e-08, 0))
hIsland = hIsland.sub(rect(7.913133101114411e-09, -5.51735888114143e-10).transl(7.861005405822983e-08, -3.7206763977430524e-08, 0))
hIsland = hIsland.add(rect(8.05712195737793e-09, 3.0104187130217324e-09).transl(-2.2059806527637242e-08, -4e-08, 0))
hIsland = hIsland.add(rect(3.731521253861041e-09, 4.423865467084005e-09).transl(1.0251555638353837e-07, -2.4886947367717863e-08, 0))
hIsland = hIsland.add(rect(3.407272526747426e-09, 1.3180224958343703e-10).transl(9.847518708608248e-08, -2.8062336600698867e-08, 0))
hIsland = hIsland.sub(rect(8.544631331006853e-09, -6.767313767943418e-10).transl(1.0675004240414948e-07, -2.0644388955430785e-08, 0))
hIsland = hIsland.sub(rect(2.7648084505178767e-09, -3.4971441451544606e-09).transl(-8.552339694644899e-08, -3.492796912093386e-08, 0))
hIsland = hIsland.add(rect(5.916335959963291e-09, 1.3645063854871513e-09).transl(-6.951395812042202e-08, -3.911715212804291e-08, 0))
hIsland = hIsland.sub(rect(2.6560253206644235e-09, -1.5629747441621533e-09).transl(3.5945756180034985e-08, -4e-08, 0))
hIsland = hIsland.sub(rect(5.5105780740641655e-09, -1.4788617300451068e-09).transl(8.546481644443702e-08, -3.4950682903956954e-08, 0))
hIsland = hIsland.sub(rect(8.2528603614341e-09, -5.730474326201612e-10).transl(2.8545224730836028e-08, -4e-08, 0))
hIsland = hIsland.sub(rect(8.549198586471898e-09, -1.5659267982461747e-09).transl(-1.0911599472120811e-07, -1.7626775836943412e-08, 0))
hIsland = hIsland.sub(rect(2.1187838604385e-09, -6.608203860330974e-09).transl(-2.6888414775016554e-08, -4e-08, 0))
hIsland = hIsland.sub(rect(5.829299773102265e-09, -3.1133023177669533e-10).transl(-8.840997456734174e-08, -3.37288982942205e-08, 0))
hIsland = hIsland.sub(rect(2.9528449833772152e-09, -5.289701408428348e-12).transl(9.510294589844386e-08, -3.026101716912491e-08, 0))
hIsland = hIsland.sub(rect(7.367366654991353e-09, -9.508764200267069e-10).transl(4.776759534782235e-09, -4e-08, 0))
hIsland = hIsland.add(rect(9.1906559679933e-09, 3.540637379262624e-10).transl(4.833805562685132e-08, -4e-08, 0))
hIsland = hIsland.sub(rect(3.5910936394533365e-09, -2.1120933484857534e-09).transl(4.2236927176151284e-08, -4e-08, 0))
hIsland = hIsland.sub(rect(5.9625661766682864e-09, -1.0689564149157308e-09).transl(-3.803470412129125e-08, -4e-08, 0))
hIsland = hIsland.add(rect(4.02414005070404e-09, 2.167422399361266e-09).transl(7.822860791479694e-08, -3.7310406733109476e-08, 0))
hIsland = hIsland.sub(rect(6.505151058501048e-09, -2.046296883935088e-10).transl(-3.801985273845493e-08, -4e-08, 0))
hIsland = hIsland.add(rect(3.535749275609235e-09, 1.9119065013779654e-10).transl(8.221687009807837e-08, -3.6115848600055e-08, 0))
hIsland = hIsland.sub(rect(8.455863517395813e-09, -8.894367083418867e-11).transl(-8.333166645492533e-08, -3.573631645775076e-08, 0))
hIsland = hIsland.sub(rect(4.3552836943764434e-09, -7.619715910085306e-10).transl(4.656176371152306e-08, -4e-08, 0))
hIsland = hIsland.sub(rect(8.506780967592327e-09, -1.6009133839680923e-09).transl(3.6917659095461745e-08, -4e-08, 0))
hIsland = hIsland.add(rect(2.0756720350138158e-09, 2.94292149115561e-10).transl(1.1213009279299291e-07, -1.2479212062354053e-08, 0))
hIsland = hIsland.sub(rect(6.042592975675335e-09, -1.4581164329764903e-09).transl(2.7695509388238667e-08, -4e-08, 0))
hIsland = hIsland.add(rect(6.9044894336590146e-09, 1.5008310593664794e-09).transl(1.0850548262196071e-07, -1.8466790817589498e-08, 0))
hIsland = hIsland.sub(rect(8.184065820865926e-09, -2.4006443280794965e-09).transl(5.503218271356717e-08, -4e-08, 0))
hIsland = hIsland.add(rect(8.800063546351085e-09, 1.7004454348429727e-09).transl(2.1525324492337967e-08, -4e-08, 0))
hIsland = hIsland.sub(rect(6.3834574812176485e-09, -2.041327380063596e-09).transl(-1.0453746587179729e-07, -2.300628918353159e-08, 0))
hIsland = hIsland.sub(rect(7.357083762957704e-09, -8.999298458405422e-10).transl(-8.991947994233435e-08, -3.303598868178317e-08, 0))
hIsland = hIsland.add(rect(7.516778015762731e-09, 5.810206905018418e-10).transl(9.293692112643125e-09, -4e-08, 0))
hIsland = hIsland.sub(rect(6.868509918178406e-09, -5.187167889617552e-09).transl(4.330500928682053e-09, -4e-08, 0))
hIsland = hIsland.sub(rect(6.528483228795747e-09, -3.565973283411847e-09).transl(-2.6549264183366142e-08, -4e-08, 0))
hIsland = hIsland.add(rect(8.573249892427066e-09, 2.9776813006304154e-10).transl(-6.178083454525785e-08, -3.9888992010522364e-08, 0))
hIsland = hIsland.sub(rect(4.4862829015722996e-09, -3.210310597488358e-10).transl(-9.777434965415263e-08, -2.8549100427906194e-08, 0))
hIsland = hIsland.add(rect(9.279912956582692e-09, 2.107876400279737e-09).transl(-6.921869599038785e-08, -3.916047335101397e-08, 0))
hIsland = hIsland.add(rect(3.061252197020258e-09, 8.764237305104756e-11).transl(-3.316057607857717e-08, -4e-08, 0))
hIsland = hIsland.add(rect(7.583780657536137e-09, 8.625579745910568e-10).transl(5.687279897427174e-08, -4e-08, 0))
hIsland = hIsland.sub(rect(9.73325096271002e-09, -1.252625186828139e-09).transl(-2.3111508062002538e-08, -4e-08, 0))
hIsland = hIsland.sub(rect(9.729916781595407e-09, -8.089548912852145e-10).transl(1.2000376091775585e-10, -4e-08, 0))
hIsland = hIsland.add(rect(7.010861028180388e-09, 9.212313465925923e-10).transl(-6.644254641612357e-08, -3.9513293713815564e-08, 0))
hIsland = hIsland.sub(rect(4.5309318355581924e-09, -1.498286518836101e-09).transl(8.300036144168067e-08, -3.585128074117518e-08, 0))
hIsland = hIsland.sub(rect(8.543427003260114e-09, -7.936081583589797e-10).transl(4.465967614882003e-08, -4e-08, 0))
hIsland = hIsland.add(rect(2.76062375669837e-09, 5.454774803993448e-10).transl(-9.683101339286828e-08, -2.9178619288821295e-08, 0))
hIsland = hIsland.sub(rect(8.412677322262954e-09, -3.857377618715484e-09).transl(4.927662383384457e-08, -4e-08, 0))
hIsland = hIsland.sub(rect(2.606096573584832e-09, -1.941261170563961e-09).transl(-1.118656047920771e-07, -1.3026187089029375e-08, 0))
hIsland = hIsland.add(rect(5.395406573316785e-09, 1.857257185405597e-09).transl(6.361847243048875e-08, -3.977290115702151e-08, 0))
hIsland = hIsland.sub(rect(2.125129449056984e-09, -5.060215032558704e-10).transl(5.802819014215081e-08, -3.999831234352048e-08, 0))
hIsland = hIsland.sub(rect(4.182303146134959e-09, -1.919659345413203e-09).transl(9.705314114262491e-08, -2.9032950141804373e-08, 0))
hIsland = hIsland.sub(rect(6.13764199918921e-09, -2.3206046615100655e-09).transl(-5.6480467207139955e-08, -4e-08, 0))
hIsland = hIsland.add(rect(2.82615281479242e-09, 6.600826410751731e-10).transl(-9.216871476910386e-08, -3.191163767079497e-08, 0))
hIsland = hIsland.add(rect(6.11166546796381e-09, 3.3090306002990385e-09).transl(-6.913604501437886e-08, -3.917239848552121e-08, 0))
hIsland = hIsland.sub(rect(7.699832090370214e-09, -9.460818473901356e-10).transl(9.48912554765857e-08, -3.0387692375846507e-08, 0))
hIsland = hIsland.add(rect(3.7037447750775405e-09, 2.696537665801859e-09).transl(6.734522334670868e-08, -3.940930397322224e-08, 0))
hIsland = hIsland.add(rect(8.770067120559973e-09, 1.750124217142842e-09).transl(-8.769206032642945e-08, -3.4042131970458426e-08, 0))
hIsland = hIsland.sub(rect(6.412617418992063e-09, -8.525622243669107e-10).transl(-1.0637660685369194e-07, -2.106950373370359e-08, 0))
hIsland = hIsland.sub(rect(6.889439970095949e-09, -1.1316791271242307e-09).transl(2.8580464661879642e-08, -4e-08, 0))
hIsland = hIsland.sub(rect(9.020301038457363e-09, -2.1274917086884808e-09).transl(5.829959355654574e-08, -3.999613229025386e-08, 0))
hIsland = hIsland.sub(rect(3.5805478880797444e-09, -1.8865023977282845e-09).transl(-1.0487715216435495e-07, -2.2666472826374566e-08, 0))
hIsland = hIsland.add(rect(6.23876520219848e-09, 1.4279705800075256e-10).transl(7.111512552212761e-08, -3.88624849936226e-08, 0))
hIsland = hIsland.add(rect(3.243161303925315e-09, 3.698221259120304e-09).transl(8.20242926400598e-08, -3.6179324481556964e-08, 0))
hIsland = hIsland.add(rect(9.818486224109683e-09, 1.9613183200162652e-09).transl(-1.022101348370094e-07, -2.5151976015577437e-08, 0))
hIsland = hIsland.sub(rect(2.9842745987811716e-09, -1.7581670824820162e-09).transl(-1.9956542430955942e-08, -4e-08, 0))
hIsland = hIsland.add(rect(4.637789471310629e-09, 6.540662138106069e-10).transl(-2.1239696670368496e-08, -4e-08, 0))
hIsland = hIsland.add(rect(6.18501205641255e-09, 1.679997861936284e-09).transl(3.4505748499696966e-08, -4e-08, 0))
hIsland = hIsland.add(rect(6.905986847573826e-09, 1.1725861769850813e-09).transl(-9.163442699653569e-08, -3.218916409294235e-08, 0))
hIsland = hIsland.add(rect(3.839982788259181e-09, 4.6840220412505686e-09).transl(8.9784356778805e-08, -3.3099963126238895e-08, 0))
hIsland = hIsland.add(rect(7.048035216292344e-09, 3.2394392559726776e-10).transl(-6.816757233343313e-08, -3.930559690519103e-08, 0))
hIsland = hIsland.add(rect(6.934893308141224e-09, 1.9006022868179138e-10).transl(-8.604485360637201e-08, -3.472301909528024e-08, 0))
hIsland = hIsland.sub(rect(8.995385923395857e-09, -2.9263322900244215e-09).transl(-6.019869018153841e-08, -3.9955920188825665e-08, 0))
hIsland = hIsland.sub(rect(7.416573182896699e-09, -7.101097313468196e-10).transl(-7.282684842403983e-08, -3.855280069831773e-08, 0))
hIsland = hIsland.sub(rect(4.0473352834933776e-09, -9.975973405724145e-10).transl(9.835891378314969e-08, -2.814426063374443e-08, 0))
hIsland = hIsland.sub(rect(9.731227019850618e-09, -2.3192587994335584e-09).transl(-1.5858250071719553e-08, -4e-08, 0))
hIsland = hIsland.add(rect(9.541369347740184e-09, 2.5899446450818633e-09).transl(-2.8833819097689167e-08, -4e-08, 0))
hIsland = hIsland.sub(rect(6.811482837161568e-09, -2.7967526156072627e-09).transl(-8.046292291228686e-08, -3.667185164328553e-08, 0))
hIsland = hIsland.add(rect(5.356524900949499e-09, 4.733618688043659e-10).transl(-5.426144166136752e-08, -4e-08, 0))
hIsland = hIsland.add(rect(8.886337847960295e-09, 8.485244141701876e-10).transl(-9.043364008398334e-08, -3.2788953653351206e-08, 0))
hIsland = hIsland.add(rect(3.589388492655699e-09, 3.409357298534585e-10).transl(6.105548450211157e-08, -3.992345662373707e-08, 0))
hIsland = hIsland.add(rect(6.932972968668161e-09, 2.0096241813799454e-10).transl(-8.258127789213104e-08, -3.5994064618362723e-08, 0))
hIsland = hIsland.add(rect(6.781870891492476e-09, 1.0144809452562289e-09).transl(-2.9621685278379768e-08, -4e-08, 0))
hIsland = hIsland.add(rect(9.649743137754872e-09, 5.416805776202345e-10).transl(-3.266934390426919e-08, -4e-08, 0))
hIsland = hIsland.sub(rect(2.70284119407621e-09, -1.8847875335387585e-09).transl(-3.560389766336169e-08, -4e-08, 0))
hIsland = hIsland.sub(rect(9.902837135267195e-09, -1.4422366218731863e-09).transl(8.95636890016955e-09, -4e-08, 0))
hIsland = hIsland.add(rect(8.933511268198878e-09, 3.5678369967514035e-09).transl(-8.468319774106667e-08, -3.524783661746636e-08, 0))
hIsland = hIsland.add(rect(6.2892825753532016e-09, 1.1297001017972178e-09).transl(-6.378133847462679e-08, -3.9760613198678976e-08, 0))
hIsland = hIsland.sub(rect(7.165353106248402e-09, -2.257013262556575e-09).transl(1.1675737176645178e-08, -4e-08, 0))
hIsland = hIsland.sub(rect(2.4126331444155237e-09, -2.926292799014593e-09).transl(3.7462586552720527e-08, -4e-08, 0))
hIsland = hIsland.add(rect(5.415094091193762e-09, 1.1210152564937287e-09).transl(9.232019247140102e-09, -4e-08, 0))
hIsland = hIsland.sub(rect(6.28650065079445e-09, -2.0445851257815213e-10).transl(-5.565408556576362e-08, -4e-08, 0))
hIsland = hIsland.add(rect(9.414212553585384e-09, 1.923362110723746e-10).transl(-7.840447005637212e-08, -3.7262893803914924e-08, 0))
hIsland = hIsland.sub(rect(5.938410529652537e-09, -2.5239272096561503e-09).transl(-3.3522688146065467e-08, -4e-08, 0))
hIsland = hIsland.sub(rect(6.833363961204275e-09, -1.405784450173113e-09).transl(-9.797177586193542e-08, -2.8413668926178974e-08, 0))
hIsland = hIsland.add(rect(7.861323105728241e-09, 3.7242352228417783e-09).transl(5.652457016025298e-08, -4e-08, 0))
hIsland = hIsland.add(rect(8.837321286009352e-09, 9.204517525995479e-10).transl(-4.43970151531412e-08, -4e-08, 0))
hIsland = hIsland.add(rect(6.691212694985607e-09, 2.265534267878711e-09).transl(1.3218899633683306e-08, -4e-08, 0))
hIsland = hIsland.sub(rect(8.40612167415673e-09, -1.2666086199503095e-09).transl(-5.5361644457703486e-08, -4e-08, 0))
hIsland = hIsland.add(rect(4.015113907764591e-09, 5.888456100905457e-10).transl(-1.1386899172877438e-08, -4e-08, 0))
hIsland = hIsland.add(rect(9.807579426786599e-09, 1.1902671005874992e-09).transl(-9.781709658397154e-08, -2.8519887303944555e-08, 0))
hIsland = hIsland.add(rect(3.766353128230382e-09, 2.108244291074948e-09).transl(2.203215458183577e-08, -4e-08, 0))
hIsland = hIsland.add(rect(7.415550350330117e-09, 1.0821948934444852e-09).transl(8.030473993190719e-08, -3.6719588890380297e-08, 0))
hIsland = hIsland.sub(rect(6.487121941061883e-09, -1.9120310413481288e-09).transl(-4.0900923946802366e-08, -4e-08, 0))
hIsland = hIsland.sub(rect(8.541618994450165e-09, -6.45985070818503e-11).transl(4.114773529042553e-08, -4e-08, 0))
hIsland = hIsland.add(rect(7.980799312370537e-09, 3.7836133812669434e-09).transl(-1.1371298089858237e-07, -8.415688753309793e-09, 0))
hIsland = hIsland.add(rect(9.966183030051518e-09, 2.3317907408990724e-09).transl(6.821125540863776e-08, -3.929984742266225e-08, 0))
hIsland = hIsland.add(rect(9.180138974676338e-09, 4.346798487399279e-10).transl(-3.7155100805713935e-08, -4e-08, 0))
hIsland = hIsland.add(rect(5.34811627852153e-09, 9.257014660340456e-10).transl(-1.0243581286520635e-07, -2.495659054939188e-08, 0))
hIsland = hIsland.sub(rect(7.778927813244864e-09, -3.3762847764413342e-09).transl(-9.903126779174766e-08, -2.7663908218352225e-08, 0))
hIsland = hIsland.add(rect(7.57006235396135e-09, 2.339668919178229e-09).transl(4.290041942510043e-08, -4e-08, 0))
hIsland = hIsland.sub(rect(5.87638829991455e-09, -6.650901057855011e-10).transl(1.0940963647101583e-07, -1.7204416950033527e-08, 0))
hIsland = hIsland.sub(rect(6.8905464936895025e-09, -1.0649760849013124e-09).transl(-1.6085809323823116e-08, -4e-08, 0))
hIsland = hIsland.add(rect(7.803760202014277e-09, 2.2487792241949354e-10).transl(-4.784342209431979e-08, -4e-08, 0))
hIsland = hIsland.sub(rect(5.198448803594185e-09, -1.7436990793528797e-10).transl(-8.334616260515794e-08, -3.57312438383451e-08, 0))
hIsland = hIsland.sub(rect(7.072423068051211e-09, -7.916958260830847e-10).transl(-7.612474080556138e-08, -3.7843535996923076e-08, 0))
hIsland = hIsland.sub(rect(4.691881269261906e-09, -4.794683322777178e-09).transl(-6.338228505801483e-08, -3.97901411961117e-08, 0))
hIsland = hIsland.sub(rect(2.120574121805395e-09, -1.9694108886544258e-10).transl(-1.0929222610724128e-07, -1.7374813953838632e-08, 0))
hIsland = hIsland.add(rect(3.257709824003601e-09, 1.993557484878763e-09).transl(-4.4950129105624764e-08, -4e-08, 0))
hIsland = hIsland.add(rect(4.500370586983457e-09, 1.688186803192416e-09).transl(6.987040742546335e-08, -3.9063350543397195e-08, 0))
hIsland = hIsland.sub(rect(9.513738394594917e-09, -6.465701054447047e-11).transl(3.499672971374869e-09, -4e-08, 0))
hIsland = hIsland.sub(rect(8.932657839242879e-09, -2.231061414619987e-09).transl(7.829653723980902e-08, -3.72921089161324e-08, 0))
hIsland = hIsland.sub(rect(2.9725482314880642e-09, -9.026980312447093e-10).transl(5.32812489274801e-09, -4e-08, 0))
hIsland = hIsland.sub(rect(6.559087670249891e-09, -2.1459988385057624e-09).transl(3.70375454171393e-08, -4e-08, 0))
hIsland = hIsland.sub(rect(8.243441352359313e-09, -8.062638475461642e-10).transl(-3.6206111766103746e-08, -4e-08, 0))
hIsland = hIsland.add(rect(9.468553051412602e-09, 3.7463891130835975e-11).transl(-7.99840315519111e-08, -3.681517448410749e-08, 0))
hIsland = hIsland.add(rect(4.2081882157941154e-09, 1.5034122581491323e-09).transl(4.188468934190447e-08, -4e-08, 0))
hIsland = hIsland.sub(rect(6.640067047844996e-09, -2.2206858040567766e-09).transl(6.062647158117555e-08, -3.994082685829461e-08, 0))
hIsland = hIsland.add(rect(7.5851763865682e-09, 1.0381358801263077e-09).transl(4.7578417590407754e-08, -4e-08, 0))
hIsland = hIsland.add(rect(6.135950529129338e-09, 3.883557360973092e-09).transl(-8.304398922999634e-09, -4e-08, 0))
hIsland = hIsland.add(rect(2.3904462774279457e-09, 1.860917356209904e-09).transl(6.081746041220031e-09, -4e-08, 0))
hIsland = hIsland.sub(rect(8.326835594095262e-09, -2.763563007642188e-09).transl(-8.864648080391998e-08, -3.362344475806675e-08, 0))
hIsland = hIsland.add(rect(9.355214383344603e-09, 2.950517229349576e-09).transl(1.8477687186201206e-08, -4e-08, 0))
hIsland = hIsland.add(rect(8.95726294781727e-09, 3.139609020613952e-09).transl(9.781040994316886e-08, -2.8524460953595524e-08, 0))
hIsland = hIsland.sub(rect(8.579474618451805e-09, -3.824364050446769e-09).transl(-8.19679758793553e-08, -3.61977724416213e-08, 0))
hIsland = hIsland.sub(rect(6.0809391995898545e-09, -8.461615720587809e-11).transl(-1.8646386525831427e-08, -4e-08, 0))
hIsland = hIsland.sub(rect(6.456372850655898e-09, -3.024825254380671e-09).transl(-6.037861287982069e-08, -3.99498428088582e-08, 0))
hIsland = hIsland.sub(rect(7.007697749538894e-09, -1.317993653721576e-10).transl(-1.067364301081633e-07, -2.066009602069945e-08, 0))
hIsland = hIsland.add(rect(8.471582415640502e-09, 7.305409427403232e-10).transl(4.1782629026190975e-08, -4e-08, 0))
hIsland = hIsland.sub(rect(4.789191983987444e-09, -3.3616636501450056e-10).transl(6.508950068616119e-08, -3.9650034903921935e-08, 0))
hIsland = hIsland.sub(rect(9.97443431089442e-09, -1.574707952690136e-10).transl(-9.379953602276221e-08, -3.102167006604665e-08, 0))
hIsland = hIsland.sub(rect(5.476605910425926e-09, -2.129389314051187e-09).transl(-6.443213286261741e-08, -3.970824736362869e-08, 0))
hIsland = hIsland.add(rect(5.4837455688848515e-09, 1.0944570701116222e-09).transl(6.782356433393251e-08, -3.9350025136183055e-08, 0))
hIsland = hIsland.add(rect(7.191428448925889e-09, 8.482693400438881e-11).transl(-8.002884566723901e-08, -3.680191406480578e-08, 0))
hIsland = hIsland.sub(rect(5.2506058221912824e-09, -1.8265945393434696e-09).transl(1.0346114837490169e-07, -2.403599408068943e-08, 0))
hIsland = hIsland.sub(rect(5.930183581405096e-09, -6.916527571992739e-10).transl(-1.004272660572721e-07, -2.6612672201622792e-08, 0))
hIsland = hIsland.sub(rect(6.558313595269449e-09, -6.780142458392843e-10).transl(4.428465723794281e-08, -4e-08, 0))
hIsland = hIsland.add(rect(6.559212097002723e-09, 1.2065113619408561e-09).transl(3.608139513761725e-08, -4e-08, 0))
hIsland = hIsland.add(rect(9.658020373141476e-09, 9.599741237408638e-10).transl(-3.1822947445967995e-08, -4e-08, 0))
hIsland = hIsland.sub(rect(5.639287255046753e-09, -2.9803626379900905e-09).transl(7.213124204136282e-08, -3.868337004933483e-08, 0))
hIsland = hIsland.add(rect(6.8308003029471834e-09, 3.807631790809042e-11).transl(4.2724212564169796e-08, -4e-08, 0))
hIsland = hIsland.sub(rect(8.074824682645842e-09, -2.6568782006055044e-09).transl(8.478094592321187e-08, -3.521127153808487e-08, 0))
hIsland = hIsland.sub(rect(5.748005640193747e-09, -1.443391514246034e-09).transl(5.240573406923699e-08, -4e-08, 0))
hIsland = hIsland.sub(rect(4.617915963954284e-09, -8.413402560555779e-10).transl(-5.504249191649852e-08, -4e-08, 0))
hIsland = hIsland.sub(rect(8.130702830556895e-09, -4.947341285735323e-11).transl(7.150242912566832e-08, -3.879582993874955e-08, 0))
hIsland = hIsland.add(rect(6.123699422544062e-09, 1.7471024205642962e-10).transl(-8.944618644711257e-08, -3.3258367052787716e-08, 0))
hIsland = hIsland.sub(rect(5.061946695998893e-09, -6.515804825158637e-11).transl(9.063023341177812e-08, -3.2692970354998646e-08, 0))
hIsland = hIsland.add(rect(7.428055632536386e-09, 4.841081771708712e-10).transl(3.4113796404217e-08, -4e-08, 0))
hIsland = hIsland.add(rect(2.5750646295011726e-09, 1.2653019270813315e-09).transl(1.0905842420184364e-07, -1.770812490773287e-08, 0))
hIsland = hIsland.sub(rect(7.711462298055282e-09, -1.4408934675738688e-09).transl(3.524389484380671e-08, -4e-08, 0))
hIsland = hIsland.sub(rect(7.85204518631515e-09, -4.14626855140437e-09).transl(7.782624254987709e-08, -3.7417382946520527e-08, 0))
hIsland = hIsland.sub(rect(4.753519573514099e-09, -1.5191969947586186e-09).transl(-8.331088401784889e-08, 3.5743582610436453e-08, 0))
hIsland = hIsland.add(rect(5.5170356130396715e-09, 1.1676766206198626e-09).transl(3.217936682970164e-08, 4e-08, 0))
hIsland = hIsland.add(rect(3.576908498209375e-09, 9.232416396594442e-10).transl(-6.640311150268385e-09, 4e-08, 0))
hIsland = hIsland.add(rect(9.869345564547942e-09, 1.1412393639148602e-10).transl(8.317609582771697e-08, 3.579053096250425e-08, 0))
hIsland = hIsland.add(rect(6.6769258626072445e-09, 1.1487165059372103e-09).transl(3.2152970284458394e-09, 4e-08, 0))
hIsland = hIsland.sub(rect(8.632297706749974e-09, -1.4335313808706064e-09).transl(4.154953847910914e-08, 4e-08, 0))
hIsland = hIsland.sub(rect(5.336480491575361e-09, -1.6049317851587152e-10).transl(1.193662824496898e-08, 4e-08, 0))
hIsland = hIsland.add(rect(4.548677119554011e-09, 7.766997486933317e-10).transl(-8.069569867955753e-08, 3.6600888563087574e-08, 0))
hIsland = hIsland.add(rect(9.177557553118828e-09, 1.6814956917399979e-09).transl(6.937245406927782e-08, 3.9138054272645003e-08, 0))
hIsland = hIsland.sub(rect(7.149585467519906e-09, -3.346739829419888e-10).transl(6.753613299470944e-08, 3.9385993135441317e-08, 0))
hIsland = hIsland.sub(rect(9.911490386700831e-09, -7.083735447398477e-11).transl(4.487558280412361e-08, 4e-08, 0))
hIsland = hIsland.sub(rect(7.941244592803161e-09, -5.357442379138044e-10).transl(5.84411415532559e-08, 3.999464162265799e-08, 0))
hIsland = hIsland.add(rect(9.45067065715946e-09, 1.4411507178730906e-09).transl(6.54199084208764e-08, 3.961875052433356e-08, 0))
hIsland = hIsland.sub(rect(4.326249095614353e-09, -1.7776652612839097e-09).transl(5.0329716449935726e-08, 4e-08, 0))
hIsland = hIsland.sub(rect(8.610368535294707e-09, -1.6817266710376832e-09).transl(-2.854641168148551e-08, 4e-08, 0))
hIsland = hIsland.add(rect(4.065447646985929e-09, 1.97120750943807e-09).transl(7.541314432999385e-08, 3.8009414081481723e-08, 0))
hIsland = hIsland.add(rect(6.22569437026995e-09, 8.514310008867143e-10).transl(-9.298604337983221e-08, 3.147386546488637e-08, 0))
hIsland = hIsland.add(rect(9.255437683174789e-09, 1.4708139583425094e-09).transl(1.0441672430386672e-07, 2.3125292458470917e-08, 0))
hIsland = hIsland.add(rect(5.440600078353388e-09, 1.5558837267056811e-09).transl(7.895193028056462e-08, 3.711201457186062e-08, 0))
hIsland = hIsland.add(rect(2.5128219420542497e-09, 2.071112477689985e-09).transl(-3.752450188924313e-08, 4e-08, 0))
hIsland = hIsland.add(rect(8.580303713009968e-09, 3.237952947600972e-10).transl(-6.194258252572665e-08, 3.988043201887816e-08, 0))
hIsland = hIsland.add(rect(5.187451668159414e-09, 1.2519470173052515e-10).transl(-8.106854330807096e-08, 3.648543962585213e-08, 0))
hIsland = hIsland.add(rect(4.591045953089036e-09, 2.846868188839121e-09).transl(-6.125019398206916e-08, 3.9914834371699654e-08, 0))
hIsland = hIsland.sub(rect(7.471983294320845e-09, -1.314580213988575e-09).transl(-4.693971917902414e-08, 4e-08, 0))
hIsland = hIsland.sub(rect(6.965819777345037e-09, -1.6679964755039477e-09).transl(-7.600705913134292e-08, 3.7871465113602975e-08, 0))
hIsland = hIsland.add(rect(8.38946910213742e-09, 1.4091870143025017e-09).transl(-8.434753977279533e-08, 3.537211475501342e-08, 0))
hIsland = hIsland.add(rect(9.321822433819377e-09, 6.551402518229212e-10).transl(-8.31756225886355e-08, 3.579069525614115e-08, 0))
hIsland = hIsland.add(rect(8.55360287430191e-09, 1.7814964885690575e-09).transl(1.0023487334979034e-07, 2.6762098073133394e-08, 0))
hIsland = hIsland.add(rect(9.585774162340283e-09, 2.514700259386444e-09).transl(4.1112275785216664e-08, 4e-08, 0))
hIsland = hIsland.sub(rect(7.246429886221679e-09, -1.1110669802964036e-09).transl(-8.883176202964559e-08, 3.354003606441855e-08, 0))
hIsland = hIsland.sub(rect(6.730707916627282e-09, -1.4123670507481808e-09).transl(1.1036179054763885e-07, 1.573898400274036e-08, 0))
hIsland = hIsland.add(rect(5.748663352014176e-09, 1.350496548755086e-09).transl(3.134136391191682e-09, 4e-08, 0))
hIsland = hIsland.add(rect(4.969978458428496e-09, 2.1164307498595072e-09).transl(-4.358554614293171e-08, 4e-08, 0))
hIsland = hIsland.add(rect(6.0188179950990275e-09, 2.231652193298446e-09).transl(2.5736664414693156e-08, 4e-08, 0))
hIsland = hIsland.add(rect(6.858179391608227e-09, 2.1425316195315476e-09).transl(2.3401639955737133e-08, 4e-08, 0))
hIsland = hIsland.add(rect(2.9672287947099404e-09, 1.1728793167417935e-09).transl(6.581743982013872e-08, 3.9579308763420994e-08, 0))
hIsland = hIsland.sub(rect(3.3681731984394888e-09, -5.5326817936632565e-09).transl(1.0433108804540066e-07, 2.3209141722621524e-08, 0))
hIsland = hIsland.add(rect(5.574144969148235e-09, 1.500619996817814e-09).transl(-6.673171910904999e-08, 3.9481097694155414e-08, 0))
hIsland = hIsland.add(rect(4.601034082719067e-09, 3.1296232840221505e-10).transl(2.3870520092436277e-08, 4e-08, 0))
hIsland = hIsland.sub(rect(7.247457783908794e-09, -6.125433199370663e-10).transl(9.227747972218632e-08, 3.185431414750111e-08, 0))
hIsland = hIsland.sub(rect(4.758014297957336e-09, -2.002372105211682e-09).transl(-3.4225550486796214e-08, 4e-08, 0))
hIsland = hIsland.sub(rect(6.561221450303598e-09, -7.512931065914195e-10).transl(6.967904764162323e-09, 4e-08, 0))
hIsland = hIsland.sub(rect(8.455178418760571e-09, -1.912959533104871e-09).transl(-4.4367282807563945e-08, 4e-08, 0))
hIsland = hIsland.sub(rect(6.329300442425761e-09, -2.1099750059536017e-09).transl(-1.0462857137960389e-08, 4e-08, 0))
hIsland = hIsland.add(rect(8.177711840112029e-09, 1.0508751155857934e-09).transl(-1.5660827346899304e-08, 4e-08, 0))
hIsland = hIsland.sub(rect(2.5744635759040237e-09, -3.167125297477153e-09).transl(-1.075213602646138e-07, 1.97265359371955e-08, 0))
hIsland = hIsland.sub(rect(4.140964574473864e-09, -3.8293410454421375e-09).transl(-1.124705951262722e-07, 1.173331739283133e-08, 0))
hIsland = hIsland.add(rect(6.948306027189999e-09, 1.2621842439826022e-09).transl(-4.896916390804676e-08, 4e-08, 0))
hIsland = hIsland.add(rect(6.851592888580874e-09, 1.1871726314700094e-09).transl(-6.478583761426205e-08, 3.967759106206041e-08, 0))
hIsland = hIsland.sub(rect(8.342359684135444e-09, -7.3476286745176e-10).transl(9.670293892543292e-08, 2.926190877345279e-08, 0))
hIsland = hIsland.sub(rect(2.132539241723495e-09, -1.5311507060100593e-10).transl(-2.807395157597552e-08, 4e-08, 0))
hIsland = hIsland.add(rect(5.142172661310794e-09, 4.872871655383743e-10).transl(-4.838754656732928e-08, 4e-08, 0))
hIsland = hIsland.add(rect(5.162514743099331e-09, 1.3286771279000683e-09).transl(7.538161953884885e-08, 3.801659688206364e-08, 0))
hIsland = hIsland.add(rect(3.048075371335819e-09, 2.594671103068355e-09).transl(1.0016102168747766e-07, 2.6819058007920065e-08, 0))
hIsland = hIsland.add(rect(9.602601036808581e-09, 1.4978591451067773e-09).transl(-5.052080611286315e-08, 4e-08, 0))
hIsland = hIsland.add(rect(5.435883556409355e-09, 1.2219049316164548e-09).transl(-1.0877344665519017e-07, 1.8104121194386458e-08, 0))
hIsland = hIsland.sub(rect(9.656109442348493e-09, -7.0339531860201046e-12).transl(2.9963521972490014e-08, 4e-08, 0))
hIsland = hIsland.sub(rect(9.863617067521784e-09, -4.644453590699989e-09).transl(1.0535249127112753e-07, 2.2177987872033662e-08, 0))
hIsland = hIsland.add(rect(6.396114856714541e-09, 1.732484896898515e-09).transl(-1.1070663872008475e-07, 1.516623205397575e-08, 0))
hIsland = hIsland.add(rect(5.973059657203263e-09, 1.2927921668947274e-09).transl(-9.499382296542041e-08, 3.032647153554044e-08, 0))
hIsland = hIsland.add(rect(8.490297075345752e-09, 1.2155786756014276e-09).transl(-4.771328866817973e-08, 4e-08, 0))
hIsland = hIsland.add(rect(5.9438901069459215e-09, 2.0111958305321636e-11).transl(2.6699045937810286e-08, 4e-08, 0))
hIsland = hIsland.sub(rect(5.4234551005941004e-09, -1.8355488390840048e-10).transl(1.673153614914112e-08, 4e-08, 0))
hIsland = hIsland.add(rect(3.796483670649271e-09, 1.7431435716976358e-09).transl(8.954309391765547e-08, 3.3213221734644713e-08, 0))
hIsland = hIsland.sub(rect(9.697090392028432e-09, -9.699571420393124e-10).transl(-7.620810166291832e-08, 3.782363246997839e-08, 0))
hIsland = hIsland.sub(rect(4.449254721136238e-09, -2.542913497249477e-09).transl(1.0770658551884585e-07, 1.949749076279434e-08, 0))
hIsland = hIsland.add(rect(7.252576436126199e-09, 2.3674841288129046e-09).transl(4.04077555886152e-08, 4e-08, 0))
hIsland = hIsland.sub(rect(4.0677296131357e-09, -3.0192510342147223e-09).transl(4.569102706508236e-08, 4e-08, 0))
hIsland = hIsland.add(rect(2.187788896710865e-09, 8.013254113617926e-10).transl(5.4091570851087834e-08, 4e-08, 0))
hIsland = hIsland.sub(rect(5.7426122803225174e-09, -1.0626933905596096e-09).transl(-5.10780621729937e-08, 4e-08, 0))
hIsland = hIsland.sub(rect(9.386090902371813e-09, -3.2811518345983575e-09).transl(1.0618392341087049e-07, 2.1284291976736866e-08, 0))
hIsland = hIsland.add(rect(2.1330815890051876e-09, 1.2723022659334987e-09).transl(-3.4238697215890135e-08, 4e-08, 0))
hIsland = hIsland.sub(rect(7.604646815419205e-09, -1.2649022965374732e-10).transl(5.122586552420021e-08, 4e-08, 0))
hIsland = hIsland.add(rect(4.4333694118949385e-09, 1.291213528413792e-09).transl(3.981042781216364e-09, 4e-08, 0))
hIsland = hIsland.add(rect(8.271823662894583e-09, 5.392625003323642e-10).transl(1.0403251290593304e-07, 2.3497965246775216e-08, 0))
hIsland = hIsland.add(rect(3.26245773335646e-09, 8.061845737910451e-10).transl(3.204106108134417e-08, 4e-08, 0))
hIsland = hIsland.add(rect(2.2688437756203534e-09, 1.8481334904230036e-10).transl(-1.1860739174023219e-08, 4e-08, 0))
hIsland = hIsland.sub(rect(9.651883179019269e-09, -5.731570495597885e-10).transl(7.625267830601957e-08, 3.781294840352395e-08, 0))
hIsland = hIsland.add(rect(5.55449281172243e-09, 1.0450425696411105e-09).transl(3.747626996261428e-08, 4e-08, 0))
hIsland = hIsland.add(rect(4.698082486830326e-09, 2.686295991209534e-09).transl(-5.945990921994382e-08, 3.9976756987518586e-08, 0))
hIsland = hIsland.sub(rect(8.523548721304089e-09, -8.725036855694178e-11).transl(-6.747882146931907e-08, 3.9393039582985993e-08, 0))
hIsland = hIsland.add(rect(4.0901449498601134e-09, 2.6350628739005296e-09).transl(-6.200861085253302e-08, 3.98768458957093e-08, 0))
hIsland = hIsland.add(rect(5.61672487685344e-09, 2.487685625964985e-10).transl(-1.2032807850724582e-08, 4e-08, 0))
hIsland = hIsland.add(rect(6.4405486944578945e-09, 8.351490264335695e-10).transl(-8.913620779264177e-08, 3.34014503172717e-08, 0))
hIsland = hIsland.add(rect(5.641943645644013e-09, 1.2977027894156147e-09).transl(-9.513232132266294e-08, 3.0243340385157426e-08, 0))
hIsland = hIsland.add(rect(6.6401641249423935e-09, 1.0760946022184824e-09).transl(1.7093898749287127e-08, 4e-08, 0))
hIsland = hIsland.add(rect(4.28593053235773e-09, 1.0926951245542982e-09).transl(2.096812174511426e-08, 4e-08, 0))
hIsland = hIsland.add(rect(3.3713644089005287e-09, 9.224210930402402e-10).transl(-8.106010273547586e-10, 4e-08, 0))
hIsland = hIsland.add(rect(6.821588455212069e-09, 4.3167303649483184e-10).transl(-5.1374321612128033e-08, 4e-08, 0))
hIsland = hIsland.add(rect(3.458763015904773e-09, 1.5652151023521387e-09).transl(8.114976275919729e-08, 3.6459997311371594e-08, 0))
hIsland = hIsland.add(rect(4.059101955232253e-09, 7.240496928006515e-10).transl(8.614729386599594e-08, 3.4682168401578406e-08, 0))
hIsland = hIsland.add(rect(4.8306439174758425e-09, 1.271918077364726e-09).transl(7.689704305692948e-08, 3.765531688071593e-08, 0))
hIsland = hIsland.sub(rect(5.157220810410926e-09, -1.7105632954476177e-09).transl(8.173001142563082e-08, 3.6275152954131285e-08, 0))
hIsland = hIsland.sub(rect(4.733761241319563e-09, -3.0259833230919505e-09).transl(-1.9633017049147363e-08, 4e-08, 0))
hIsland = hIsland.sub(rect(8.075807263014603e-09, -1.949961783515801e-09).transl(9.946308958333359e-08, 2.7346732985377764e-08, 0))
hIsland = hIsland.sub(rect(2.1524626314890903e-09, -1.4136745844559418e-09).transl(2.4223201445136995e-08, 4e-08, 0))
hIsland = hIsland.add(rect(8.618957587528493e-09, 4.739682934224194e-10).transl(1.0952472552871048e-07, 1.7035354708725524e-08, 0))
hIsland = hIsland.add(rect(8.613665670206661e-09, 2.3984572803397527e-10).transl(-7.72554454296629e-08, 3.7565039457714584e-08, 0))
hIsland = hIsland.add(rect(5.296978646582101e-09, 1.2344577971050482e-09).transl(2.872426733926171e-08, 4e-08, 0))
hIsland = hIsland.sub(rect(6.5546740747779365e-09, -7.52402145039409e-11).transl(1.524720547351882e-08, 4e-08, 0))
hIsland = hIsland.add(rect(6.5814499766394036e-09, 2.6388687231888943e-09).transl(1.0535191580846781e-07, 2.217858873489077e-08, 0))
hIsland = hIsland.add(rect(8.344018743932594e-09, 8.195376667051987e-11).transl(-1.793692870407127e-08, 4e-08, 0))
hIsland = hIsland.add(rect(3.734325425371421e-09, 3.290010009827085e-10).transl(-6.430866499222478e-08, 3.971858408865635e-08, 0))
hIsland = hIsland.sub(rect(6.890453955498785e-09, -1.1504448701861804e-09).transl(6.4933388270115625e-09, 4e-08, 0))
hIsland = hIsland.add(rect(5.3284735756766e-09, 1.797131497418284e-09).transl(1.0115265399339054e-07, 2.6035388328658874e-08, 0))
hIsland = hIsland.add(rect(3.0196811381162237e-09, 1.1898829870254415e-09).transl(8.987807911457121e-08, 3.305563157994197e-08, 0))
hIsland = hIsland.add(rect(4.577452560223154e-09, 2.4489881971630493e-09).transl(-3.4432505086229098e-09, 4e-08, 0))
hIsland = hIsland.sub(rect(6.3978686520498445e-09, -7.230083677485057e-10).transl(-1.0794962862468993e-07, 1.91914911407894e-08, 0))
hIsland = hIsland.add(rect(7.87153983914982e-09, 4.1282346223911106e-10).transl(-5.018556987403287e-08, 4e-08, 0))
hIsland = hIsland.add(rect(8.691161635737708e-09, 3.1541406561874465e-09).transl(-8.95454488096644e-08, 3.321212221783367e-08, 0))
hIsland = hIsland.sub(rect(3.699557373890775e-09, -6.112000913559259e-10).transl(-1.0855023127178172e-07, 1.840685513262162e-08, 0))
hIsland = hIsland.add(rect(4.842036286997228e-09, 1.354583482004798e-09).transl(-1.1222971710420985e-07, 1.2266146321915493e-08, 0))
hIsland = hIsland.add(rect(5.861908813014156e-09, 1.6080310355552115e-10).transl(-1.5263074179643154e-08, 4e-08, 0))
hIsland = hIsland.sub(rect(6.719847082073559e-09, -8.832506359698277e-10).transl(-7.921826226790576e-08, 3.703697568769241e-08, 0))
hIsland = hIsland.add(rect(2.7778807363858605e-09, 2.470438735671017e-09).transl(8.972612596547806e-08, 3.3127412339191096e-08, 0))
hIsland = hIsland.sub(rect(9.299667036372626e-09, -1.9386183557848003e-12).transl(6.616919473425607e-08, 3.954276324235466e-08, 0))
hIsland = hIsland.sub(rect(5.609623908252532e-09, -8.842293977571394e-10).transl(-9.445998864824408e-09, 4e-08, 0))
hIsland = hIsland.sub(rect(8.441383950789188e-09, -7.420703219476278e-10).transl(8.865261731606418e-08, 3.3620693488029175e-08, 0))
hIsland = hIsland.add(rect(5.746977688962642e-09, 2.617319445216021e-09).transl(-7.91149228117822e-08, 3.7066219510390776e-08, 0))
hIsland = hIsland.add(rect(5.937654385561219e-09, 5.287621835543501e-10).transl(9.050322341145347e-08, 3.275507823887857e-08, 0))
hIsland = hIsland.sub(rect(9.261450225587996e-09, -2.3125685678161696e-09).transl(-9.782994906255e-08, 2.8511092041257776e-08, 0))
hIsland = hIsland.sub(rect(8.463384457213118e-09, -7.746652847184868e-10).transl(5.003898270197525e-08, 4e-08, 0))
hIsland = hIsland.add(rect(9.577151246465689e-09, 2.9263787871016213e-09).transl(-7.010929084835245e-08, 3.9026370823127296e-08, 0))
hIsland = hIsland.sub(rect(9.138415924492872e-09, -2.252665054542338e-09).transl(1.835129836535514e-08, 4e-08, 0))
hIsland = hIsland.add(rect(3.735162723367622e-09, 2.8659633296924873e-10).transl(-9.22354487658642e-08, 3.187649967124005e-08, 0))
hIsland = hIsland.add(rect(6.677501200962552e-09, 2.258272603901116e-10).transl(-3.039783867222773e-08, 4e-08, 0))
hIsland = hIsland.add(rect(3.052070215992631e-09, 1.9649617015529132e-09).transl(-3.756344488161468e-08, 4e-08, 0))
hIsland = hIsland.sub(rect(2.2531564171223543e-09, -1.88662485406746e-10).transl(-4.479555997877566e-08, 4e-08, 0))
hIsland = hIsland.add(rect(9.21788367652211e-09, 3.228016350901193e-09).transl(8.482604834113792e-08, 3.519434278002573e-08, 0))
hIsland = hIsland.sub(rect(3.976603120563739e-09, -3.536339718112603e-11).transl(-3.75231951084871e-08, 4e-08, 0))
hIsland = hIsland.sub(rect(4.63772899572544e-09, -1.389712095905876e-09).transl(-2.4814506045783318e-08, 4e-08, 0))
hIsland = hIsland.add(rect(4.351119596913304e-09, 1.3895682178812305e-09).transl(3.501395765909468e-08, 4e-08, 0))
hIsland = hIsland.sub(rect(7.094970889607239e-09, -5.837248560800196e-10).transl(8.080664054478224e-09, 4e-08, 0))
hIsland = hIsland.sub(rect(7.252681451229179e-09, -3.4253641955519996e-09).transl(4.860404141359832e-08, 4e-08, 0))
hIsland = hIsland.add(rect(8.099090086513665e-09, 3.603737320706943e-10).transl(-9.607379672167906e-08, 2.9663771952674685e-08, 0))
hIsland = hIsland.sub(rect(5.4836485934467254e-09, -3.976079532392347e-09).transl(-7.975936276105216e-08, 3.688118451511302e-08, 0))
hIsland = hIsland.add(rect(9.459978858991846e-09, 7.292463645173317e-10).transl(-1.0733630012901571e-07, 1.9951920304004257e-08, 0))
hIsland = hIsland.add(rect(6.131066688454359e-09, 1.954171417321008e-09).transl(2.355877195307194e-08, 4e-08, 0))
hIsland = hIsland.add(rect(6.3825638732671645e-09, 2.8564628082095657e-09).transl(7.264084079560947e-08, 3.858835305839064e-08, 0))
hIsland = hIsland.add(rect(4.481159329763254e-09, 3.2602299554721207e-09).transl(9.391918119397515e-08, 3.0953733073498205e-08, 0))
hIsland = hIsland.sub(rect(9.432064266353976e-09, -1.828394979829847e-09).transl(7.861793149326247e-08, 3.7204600610340396e-08, 0))
hIsland = hIsland.add(rect(9.658865813693385e-09, 2.9638392512200585e-09).transl(-2.1206547853375448e-08, 4e-08, 0))
hIsland = hIsland.add(rect(5.490163713505216e-09, 1.541311598687099e-09).transl(6.108808898468186e-08, 3.9922044974918934e-08, 0))
hIsland = hIsland.add(rect(4.255446386178358e-09, 3.1769528105325887e-09).transl(4.8347057893551465e-08, 4e-08, 0))
hIsland = hIsland.add(rect(2.6499164912201263e-09, 1.2250292804790897e-09).transl(7.358258329024632e-08, 3.84035317513387e-08, 0))
hIsland = hIsland.add(rect(8.024906550737903e-09, 1.0991079571697914e-09).transl(-3.2242287835796235e-08, 4e-08, 0))
hIsland = hIsland.sub(rect(2.770294362957037e-09, -6.32591697076547e-10).transl(3.784023144283056e-08, 4e-08, 0))
hIsland = hIsland.sub(rect(2.230974651437493e-09, -2.4761006638460373e-09).transl(1.3655189239617994e-08, 4e-08, 0))
hIsland = hIsland.sub(rect(5.5573118197461204e-09, -1.1575275486208822e-09).transl(-1.0277522823312154e-07, 2.4657937726636096e-08, 0))
hIsland = hIsland.sub(rect(6.772945315558587e-09, -1.6441842592341087e-09).transl(-9.406378887004015e-09, 4e-08, 0))
hIsland = hIsland.sub(rect(7.513135207742496e-09, -4.936802401526065e-10).transl(-1.6362036683540444e-09, 4e-08, 0))
hIsland = hIsland.sub(rect(7.717864461271941e-09, -1.5032002368423323e-09).transl(8.259478995204987e-08, 3.598950667325822e-08, 0))
hIsland = hIsland.add(rect(5.967098780657046e-09, 3.6784501575913077e-09).transl(-6.315125535289172e-09, 4e-08, 0))
hIsland = hIsland.add(rect(7.260968704004753e-09, 1.4898113640340626e-09).transl(7.809812028012208e-08, 3.7345362698457205e-08, 0))
hIsland = hIsland.add(rect(7.761885601572811e-09, 2.209055337294459e-09).transl(-1.428187108463175e-08, 4e-08, 0))
hIsland = hIsland.sub(rect(7.120306648973521e-09, -1.047889227621529e-09).transl(-1.5902921412355542e-08, 4e-08, 0))
hIsland = hIsland.sub(rect(6.9881962796392255e-09, -3.9516816857300323e-10).transl(5.5085069696638574e-08, 4e-08, 0))
hIsland = hIsland.sub(rect(8.938369409869546e-09, -1.99204868127426e-09).transl(7.636866430752295e-08, 3.77850156299427e-08, 0))
hIsland = hIsland.sub(rect(2.3925840442335028e-09, -2.5486919670727194e-10).transl(-1.0420850297575674e-07, 2.3328379559912214e-08, 0))
hIsland = hIsland.add(rect(5.181586404707397e-09, 1.537402246461767e-09).transl(6.15089902544269e-08, 3.9902659615151005e-08, 0))
hIsland = hIsland.add(rect(9.460517086654353e-09, 1.264840203274611e-09).transl(3.646274394783042e-08, 4e-08, 0))
hIsland = hIsland.sub(rect(7.704664345260935e-09, -2.0987548018586615e-09).transl(5.947808432358023e-08, 3.997632377501168e-08, 0))
hIsland = hIsland.sub(rect(8.178256373162144e-09, -3.542984441690427e-10).transl(9.97679213425325e-08, 2.7118595636502722e-08, 0))
hIsland = hIsland.add(rect(8.214831183181352e-09, 1.4593245809562659e-09).transl(1.0442902288723892e-07, 2.3113212924156655e-08, 0))
hIsland = hIsland.add(rect(5.288898916822101e-09, 4.405244487382741e-10).transl(-1.1314321681651927e-07, 1.0082935865786567e-08, 0))
hIsland = hIsland.add(rect(7.382176804149738e-09, 7.445390292782378e-10).transl(2.7883048052242426e-08, 4e-08, 0))
hIsland = hIsland.sub(rect(6.136625198433617e-09, -3.596759591263463e-09).transl(5.341560508808182e-08, 4e-08, 0))
hIsland = hIsland.sub(rect(9.047835212313776e-09, -2.0284234052819496e-09).transl(-5.723081651441024e-08, 4e-08, 0))
hIsland = hIsland.sub(rect(6.501644473476212e-09, -4.96181675240306e-10).transl(1.076417353980868e-07, 1.957808422540363e-08, 0))
hIsland = hIsland.add(rect(7.608361789442506e-09, 4.0029629660108505e-10).transl(1.018093862953007e-07, 2.5492859790224416e-08, 0))
hIsland = hIsland.sub(rect(9.738396733536433e-09, -2.771914764453934e-10).transl(-7.795905830794473e-08, 3.7382337015885813e-08, 0))
hIsland = hIsland.add(rect(5.190362303471707e-09, 1.0550544497696353e-09).transl(-4.8948567767246495e-08, 4e-08, 0))
hIsland = hIsland.add(rect(8.854381445073252e-09, 1.1327768835487494e-09).transl(-4.6368611130553666e-08, 4e-08, 0))
hIsland = hIsland.sub(rect(7.645660296485515e-09, -2.491704944358594e-10).transl(-8.234630405747884e-08, 3.607284325171254e-08, 0))
hIsland = hIsland.add(rect(7.814953647137886e-09, 1.249135144098207e-09).transl(1.1393097804647338e-07, 7.677262168532935e-09, 0))
hIsland = hIsland.add(rect(5.602659608922138e-09, 2.4094204339994484e-10).transl(5.4867341125610225e-08, 4e-08, 0))
hIsland = hIsland.add(rect(9.54566129762599e-09, 1.79857090472427e-10).transl(8.831281778380101e-09, 4e-08, 0))
hIsland = hIsland.add(rect(5.909127046175947e-09, 1.9684984935069485e-09).transl(-6.496403697394102e-08, 3.966155893239052e-08, 0))
hIsland = hIsland.add(rect(7.962684246728869e-09, 2.906049853048298e-09).transl(-1.1326167429894205e-07, 9.7611100891203e-09, 0))
hIsland = hIsland.add(rect(8.616278217672846e-09, 7.649241740317362e-10).transl(4.202212252870769e-09, 4e-08, 0))
hIsland = hIsland.add(rect(7.752039425880876e-09, 1.4778470482932504e-09).transl(-3.2963841553702694e-08, 4e-08, 0))
hIsland = hIsland.sub(rect(3.1718305032109724e-09, -1.3528274764690994e-09).transl(-1.1522410677169258e-08, 4e-08, 0))
hIsland = hIsland.sub(rect(2.391623274428384e-09, -3.426726242418591e-11).transl(1.1494761611027886e-07, 1.7070294071704615e-09, 0))
hIsland = hIsland.add(rect(7.660561239576667e-09, 5.326048230489823e-10).transl(-7.076727127614118e-08, 3.8920663701257376e-08, 0))
hIsland = hIsland.add(rect(7.831304077823874e-09, 7.474762077161473e-10).transl(1.1406390063558471e-07, 7.188317171924184e-09, 0))
hIsland = hIsland.add(rect(8.830158812796085e-09, 1.326519464799504e-09).transl(-1.626497504066409e-08, 4e-08, 0))
hIsland = hIsland.sub(rect(5.306869916349955e-09, -2.2737995159534044e-09).transl(5.0415192238989896e-08, 4e-08, 0))
hIsland = hIsland.add(rect(2.9894936610816743e-09, 4.045331531498624e-09).transl(-7.416643899977009e-08, 3.828286995030074e-08, 0))
hIsland = hIsland.add(rect(4.032803465701291e-09, 1.7420677009585748e-09).transl(7.649955816194218e-08, 3.775326068243958e-08, 0))
hIsland = hIsland.add(rect(6.416830392236583e-09, 2.2335791369886522e-09).transl(7.454416882969943e-09, 4e-08, 0))
hIsland = hIsland.sub(rect(3.602950082707844e-09, -2.7583992430813043e-09).transl(5.897079614292808e-08, 3.998691208918972e-08, 0))
hIsland = hIsland.sub(rect(4.3318223420282156e-09, -1.7454071189989624e-09).transl(1.970504394329353e-08, 4e-08, 0))
hIsland = hIsland.add(rect(9.95239283762626e-09, 5.848336721193506e-10).transl(-1.1325336763651316e-07, 9.78404542880347e-09, 0))
hIsland = hIsland.add(rect(8.203205305926188e-09, 4.389338146491793e-09).transl(-4.723387376092485e-09, 4e-08, 0))
hIsland = hIsland.add(rect(9.420415736822922e-09, 2.8792712871150764e-09).transl(6.922914802205261e-08, 3.915895902844469e-08, 0))
hIsland = hIsland.add(rect(3.994274257632032e-09, 8.938831882035871e-10).transl(-3.731908699225439e-08, 4e-08, 0))
hIsland = hIsland.add(rect(6.770287736228752e-09, 3.5943346880874057e-09).transl(-5.0120836486058994e-09, 4e-08, 0))
hIsland = hIsland.sub(rect(3.192078509252572e-09, -2.527822977329671e-09).transl(4.399974279844969e-08, 4e-08, 0))
hIsland = hIsland.sub(rect(7.894675581612092e-09, -2.5525108120458526e-10).transl(-7.230105635731497e-08, 3.8652094562963056e-08, 0))
hIsland = hIsland.add(rect(5.6077088568761766e-09, 6.581083955265324e-10).transl(9.865601577023248e-08, 2.7933985293159353e-08, 0))
vIsland = hIsland.rotz(pi / 2)
hIslands = hIslands.add(hIsland.transl(-a/2, a, 0))
hIsland = rect(islandLength-2*ellipseConstant, islandWidth)
hIsland = hIsland.add(ellipse(ellipseConstant*2, islandWidth).transl(islandLength/2-ellipseConstant, 0, 0))
hIsland = hIsland.add(ellipse(ellipseConstant*2, islandWidth).transl(-islandLength/2+ellipseConstant, 0, 0))
hIsland = hIsland.sub(rect(6.00304559475836e-09, -1.5433068036083638e-09).transl(4.3332692169031436e-08, -4e-08, 0))
hIsland = hIsland.add(rect(2.306355559504722e-09, 2.417115755764172e-09).transl(1.1314630435575552e-07, -1.0074686667479752e-08, 0))
hIsland = hIsland.sub(rect(9.416683750724748e-09, -4.978398687804137e-10).transl(2.4886297553577794e-08, -4e-08, 0))
hIsland = hIsland.add(rect(5.1528947387844924e-09, 2.9470449104281643e-09).transl(-7.38168309041521e-08, -3.835568349667079e-08, 0))
hIsland = hIsland.add(rect(7.04646532679873e-09, 8.410318202948166e-10).transl(1.0097370598033791e-07, -2.6179886773659896e-08, 0))
hIsland = hIsland.sub(rect(8.387964164361511e-09, -1.4724841706959631e-09).transl(-5.409091447272714e-08, -4e-08, 0))
hIsland = hIsland.add(rect(5.228533326973353e-09, 3.2729564585606588e-09).transl(-3.060825881329708e-08, -4e-08, 0))
hIsland = hIsland.sub(rect(9.128081575398739e-09, -1.3292055534529437e-09).transl(-8.522252698368037e-08, -3.504396761433097e-08, 0))
hIsland = hIsland.sub(rect(8.84714675910532e-09, -1.7008914948754333e-09).transl(-6.50266985032934e-08, -3.9655827808097856e-08, 0))
hIsland = hIsland.sub(rect(3.063502769109608e-09, -1.212584052529351e-09).transl(-7.772933736644124e-08, -3.744278864262672e-08, 0))
hIsland = hIsland.sub(rect(7.490407267190361e-09, -5.931695756364023e-11).transl(4.873576842990456e-08, -4e-08, 0))
hIsland = hIsland.add(rect(6.363120562194062e-09, 2.7609982494851253e-09).transl(1.2319078399469457e-08, -4e-08, 0))
hIsland = hIsland.add(rect(2.2385390440794586e-09, 1.2495181083481703e-09).transl(2.8383389083703457e-08, -4e-08, 0))
hIsland = hIsland.sub(rect(7.377589614491996e-09, -5.75481348324758e-10).transl(5.7994416401475945e-08, -3.9998521272762055e-08, 0))
hIsland = hIsland.add(rect(5.924389284380862e-09, 1.0811588798833897e-09).transl(-4.29159591790203e-08, -4e-08, 0))
hIsland = hIsland.add(rect(4.407285674356599e-09, 8.648515057982126e-10).transl(-9.706348054327287e-08, -2.9026131824193895e-08, 0))
hIsland = hIsland.add(rect(7.640060326608488e-09, 3.0168862969626043e-09).transl(4.5924786842413124e-08, -4e-08, 0))
hIsland = hIsland.add(rect(4.643714411866445e-09, 2.2055635497337184e-09).transl(-9.264457505589593e-08, -3.1658738691531775e-08, 0))
hIsland = hIsland.sub(rect(5.340367627571192e-09, -3.0860670111180487e-09).transl(1.4631399727786205e-09, -4e-08, 0))
hIsland = hIsland.add(rect(9.307345116964423e-09, 6.977320110845285e-10).transl(1.1387806265839947e-08, -4e-08, 0))
hIsland = hIsland.add(rect(9.326045186234766e-09, 3.344736222887548e-09).transl(1.128517448844643e-07, -1.0831515191495792e-08, 0))
hIsland = hIsland.add(rect(8.217251236136074e-09, 3.799975852935852e-10).transl(5.830502756655576e-08, -3.999607953939598e-08, 0))
hIsland = hIsland.sub(rect(9.931120424857224e-09, -1.5227235450038529e-09).transl(1.6768304108230005e-08, -4e-08, 0))
hIsland = hIsland.add(rect(4.168548787634288e-09, 2.216153913843077e-09).transl(-1.1022555439146845e-08, -4e-08, 0))
hIsland = hIsland.sub(rect(2.2023548920500274e-09, -8.353254680723706e-10).transl(-8.341253413372192e-08, -3.570797296080177e-08, 0))
hIsland = hIsland.sub(rect(3.104397701336103e-09, -1.019335153862594e-09).transl(9.28190744692948e-08, -3.156462218057506e-08, 0))
hIsland = hIsland.add(rect(9.707840137784989e-09, 3.0246813085758934e-09).transl(3.506233998876166e-09, -4e-08, 0))
hIsland = hIsland.add(rect(3.028727539841743e-09, 2.069425154924448e-10).transl(-6.837745067167457e-08, -3.92777505506942e-08, 0))
hIsland = hIsland.sub(rect(3.629837917978643e-09, -2.6928529318084376e-09).transl(-3.831476116493988e-08, -4e-08, 0))
hIsland = hIsland.sub(rect(4.1341335192911294e-09, -5.186624978364103e-10).transl(2.3448823507018232e-09, -4e-08, 0))
hIsland = hIsland.add(rect(3.7949115269969246e-09, 2.3372141029486603e-09).transl(-5.42466335059626e-08, -4e-08, 0))
hIsland = hIsland.sub(rect(8.500519106914067e-09, -2.440774525131851e-09).transl(-3.831534336659566e-08, -4e-08, 0))
hIsland = hIsland.add(rect(7.566394360296756e-09, 2.756318875866287e-09).transl(-4.174763694363548e-08, -4e-08, 0))
hIsland = hIsland.add(rect(7.788465134486175e-09, 3.5823806268415166e-09).transl(-3.074420923425541e-08, -4e-08, 0))
hIsland = hIsland.add(rect(5.387599811155216e-09, 1.1396699964237403e-09).transl(8.96541245417003e-08, -3.3161252994543843e-08, 0))
hIsland = hIsland.sub(rect(3.878871245283622e-09, -1.4841714857781314e-09).transl(-1.0806909976502692e-07, -1.903871958274782e-08, 0))
hIsland = hIsland.add(rect(6.499758468050625e-09, 2.2120303896162235e-09).transl(-1.0168826003308134e-09, -4e-08, 0))
hIsland = hIsland.sub(rect(4.304307934667723e-09, -1.104272506256752e-09).transl(-9.189685980731119e-08, -3.205368680113446e-08, 0))
hIsland = hIsland.add(rect(6.270397155279415e-09, 1.553215244125459e-09).transl(-8.646147454416011e-08, -3.4555663049503905e-08, 0))
hIsland = hIsland.add(rect(7.257797415419243e-09, 1.2953629956639514e-09).transl(7.730393255939846e-09, -4e-08, 0))
hIsland = hIsland.add(rect(4.792433147238336e-09, 1.1223515618522736e-09).transl(-2.728325748734382e-08, -4e-08, 0))
hIsland = hIsland.add(rect(7.907413137569907e-09, 2.004250631919163e-10).transl(2.9251735213566832e-08, -4e-08, 0))
hIsland = hIsland.add(rect(4.046933033210545e-09, 9.929898499016793e-10).transl(-2.5521331525989253e-08, -4e-08, 0))
hIsland = hIsland.add(rect(9.285166171256215e-09, 1.0669811915056837e-09).transl(1.0814004936054262e-07, -1.8947238582338934e-08, 0))
hIsland = hIsland.sub(rect(5.238344855505628e-09, -3.3847353698912236e-09).transl(1.1408451273474691e-07, -7.109378660745278e-09, 0))
hIsland = hIsland.add(rect(2.7707194244044944e-09, 1.4936338796479946e-09).transl(6.660941793748713e-08, -3.94948427453071e-08, 0))
hIsland = hIsland.add(rect(5.62802717247785e-09, 8.379056047559592e-10).transl(-1.1436006057029142e-07, -5.951120854754313e-09, 0))
hIsland = hIsland.sub(rect(5.539820387106965e-09, -2.7354620353915696e-09).transl(-8.154815048091693e-08, -3.63336703598663e-08, 0))
hIsland = hIsland.add(rect(7.802238599883544e-09, 1.852957196178066e-09).transl(9.999266233092596e-08, -2.6948093138667794e-08, 0))
hIsland = hIsland.sub(rect(2.1290124705949554e-09, -2.5961170475789435e-09).transl(8.032152039880733e-08, -3.671454337841469e-08, 0))
hIsland = hIsland.add(rect(7.622304409125423e-09, 1.395883907664741e-09).transl(-7.01425732342123e-08, -3.902115967975976e-08, 0))
hIsland = hIsland.sub(rect(3.476671383488659e-09, -1.5871390058279753e-09).transl(-6.76704781940878e-08, -3.936931221116979e-08, 0))
hIsland = hIsland.add(rect(3.672150733181706e-09, 2.16274254097117e-09).transl(-1.0192187047479149e-07, -2.539794956303183e-08, 0))
hIsland = hIsland.add(rect(7.65275706594521e-09, 6.11210747580168e-10).transl(7.636146624825951e-08, -3.778675474543128e-08, 0))
hIsland = hIsland.add(rect(2.7439828424842113e-09, 7.027102889019391e-10).transl(9.771873451229105e-08, -2.8587016661297017e-08, 0))
hIsland = hIsland.add(rect(2.6249687453513834e-09, 4.8691378625525336e-11).transl(7.55847504134611e-08, -3.7970068339026264e-08, 0))
hIsland = hIsland.add(rect(7.645317839003533e-09, 3.254239461640126e-09).transl(-1.7722771897389237e-09, -4e-08, 0))
hIsland = hIsland.sub(rect(7.659409795654988e-09, -7.289541471111335e-10).transl(-5.3905902546405636e-08, -4e-08, 0))
hIsland = hIsland.add(rect(6.823058279099445e-09, 9.305154021125984e-10).transl(-9.261313145409327e-08, -3.167561864253289e-08, 0))
hIsland = hIsland.sub(rect(3.652630527535621e-09, -8.33308515618474e-12).transl(-2.5291504364615735e-08, -4e-08, 0))
hIsland = hIsland.sub(rect(8.916075252514912e-09, -2.376236213060057e-09).transl(-9.949217915477322e-08, -2.7325115468094956e-08, 0))
hIsland = hIsland.add(rect(2.4454668744292277e-09, 2.055311320059801e-10).transl(1.7920280837838935e-08, -4e-08, 0))
hIsland = hIsland.sub(rect(7.91887953494004e-09, -1.5793014096093935e-09).transl(2.37510250196559e-08, -4e-08, 0))
hIsland = hIsland.add(rect(9.440632186720876e-09, 1.179955846800705e-09).transl(-6.60083250771606e-08, -3.9559668782495785e-08, 0))
hIsland = hIsland.sub(rect(5.952352089820376e-09, -2.299544839187673e-09).transl(6.854079361294371e-09, -4e-08, 0))
hIsland = hIsland.add(rect(9.207828877653885e-09, 2.410416681686487e-09).transl(5.0538531538224924e-08, -4e-08, 0))
hIsland = hIsland.add(rect(8.920729066285634e-09, 6.812548680258861e-10).transl(3.710880137401064e-08, -4e-08, 0))
hIsland = hIsland.add(rect(6.674989383978889e-09, 6.510337907596452e-10).transl(-8.496882266749901e-08, -3.5140515342423224e-08, 0))
hIsland = hIsland.sub(rect(4.7669172751617604e-09, -1.3114634022756586e-09).transl(-7.697972462634677e-09, -4e-08, 0))
hIsland = hIsland.sub(rect(8.377272322979404e-09, -1.0876436924753689e-09).transl(9.663544881880973e-08, -2.9305594777756003e-08, 0))
hIsland = hIsland.add(rect(7.64085672125909e-09, 8.191030198519578e-10).transl(2.9317772155303536e-08, -4e-08, 0))
hIsland = hIsland.add(rect(3.8684521845076984e-09, 4.483951662220424e-10).transl(2.2938819449870497e-08, -4e-08, 0))
hIsland = hIsland.add(rect(2.7363573414254357e-09, 6.000110978730762e-11).transl(3.4796873478869024e-08, -4e-08, 0))
hIsland = hIsland.add(rect(7.503732330815528e-09, 1.1626788808771363e-09).transl(-8.340135031423966e-08, -3.571189942393598e-08, 0))
hIsland = hIsland.add(rect(5.129933071435499e-09, 2.922579183392133e-09).transl(5.678809308471691e-08, -4e-08, 0))
hIsland = hIsland.add(rect(5.669387900117449e-09, 2.0493844450867295e-09).transl(-5.9114425451233075e-09, -4e-08, 0))
hIsland = hIsland.add(rect(5.422733602518021e-09, 1.8584986297109945e-09).transl(-2.8280238896249296e-08, -4e-08, 0))
hIsland = hIsland.add(rect(5.350645139412215e-09, 2.511324185328731e-09).transl(4.876174218004065e-09, -4e-08, 0))
hIsland = hIsland.sub(rect(4.832728832087767e-09, -2.055196110479577e-10).transl(-6.111955147271894e-08, -3.9920670505213554e-08, 0))
hIsland = hIsland.sub(rect(6.1086301353619785e-09, -1.0365793879189194e-09).transl(-8.941968741697626e-08, -3.327067744373307e-08, 0))
hIsland = hIsland.add(rect(7.417849714588306e-09, 1.2379975906768644e-09).transl(6.356010843046581e-08, -3.977722515171891e-08, 0))
hIsland = hIsland.sub(rect(7.831089578250589e-09, -1.769507005651457e-09).transl(4.921909324317885e-08, -4e-08, 0))
hIsland = hIsland.add(rect(8.270326079768676e-09, 3.822835655233389e-09).transl(4.156133106526976e-08, -4e-08, 0))
hIsland = hIsland.add(rect(6.0428326411454165e-09, 3.923243999409229e-09).transl(-3.62355798770016e-08, -4e-08, 0))
hIsland = hIsland.add(rect(4.597446646527995e-09, 1.2262350007853094e-10).transl(3.43133065496208e-08, -4e-08, 0))
hIsland = hIsland.add(rect(3.199283920428956e-09, 4.077857193100069e-10).transl(1.046572751006078e-07, -2.2887288540851624e-08, 0))
hIsland = hIsland.add(rect(7.735796191609806e-09, 2.9219545078350854e-09).transl(1.4439563616927254e-08, -4e-08, 0))
hIsland = hIsland.add(rect(4.20017835392085e-09, 2.870902357399537e-09).transl(-9.603006112703632e-08, -2.969126594775517e-08, 0))
hIsland = hIsland.sub(rect(8.9458346472303e-09, -4.872716381455978e-10).transl(9.476591402937669e-08, -3.046211266059685e-08, 0))
hIsland = hIsland.sub(rect(8.5328210892925e-09, -9.512742185375198e-10).transl(5.667722509062969e-08, -4e-08, 0))
hIsland = hIsland.add(rect(8.318232678973602e-09, 6.8883402090907e-10).transl(-4.2576709749442445e-08, -4e-08, 0))
hIsland = hIsland.sub(rect(5.444701625845043e-09, -2.239354976968486e-09).transl(-8.880225120240458e-08, -3.355336808849397e-08, 0))
hIsland = hIsland.add(rect(2.9019910451906492e-09, 5.70691540112897e-10).transl(9.529386479893256e-08, -3.0145698141356684e-08, 0))
hIsland = hIsland.add(rect(6.693730283631374e-09, 1.1245039531358432e-09).transl(8.560094161657264e-08, -3.4897806316762116e-08, 0))
hIsland = hIsland.add(rect(8.399253187848896e-09, 1.0508014457720046e-10).transl(-6.89327820584003e-08, -3.920135174185793e-08, 0))
hIsland = hIsland.sub(rect(6.951111718306839e-09, -7.611817579827396e-10).transl(-7.268639820989837e-08, -3.857968865318479e-08, 0))
hIsland = hIsland.add(rect(8.092973235312946e-09, 8.23960598421073e-10).transl(-2.769118401991467e-08, -4e-08, 0))
hIsland = hIsland.add(rect(6.013315435542238e-09, 1.3349113703626569e-09).transl(1.0767392459006605e-07, -1.9538135196251978e-08, 0))
hIsland = hIsland.add(rect(8.937084206064324e-09, 2.162742101376214e-09).transl(1.0899066233111428e-07, -1.7803283045721404e-08, 0))
hIsland = hIsland.sub(rect(8.37170639339621e-09, -4.575600907771166e-10).transl(-6.266295011758118e-08, -3.9838427227074653e-08, 0))
hIsland = hIsland.add(rect(2.7722451044852995e-09, 3.1434440658178536e-09).transl(-3.699255738100087e-08, -4e-08, 0))
hIsland = hIsland.sub(rect(9.672214992847195e-09, -2.5314486621341523e-09).transl(5.291326648586398e-10, -4e-08, 0))
hIsland = hIsland.sub(rect(2.068414542027806e-09, -2.0678294919696724e-09).transl(9.670742838963458e-08, -2.9258997779861593e-08, 0))
hIsland = hIsland.add(rect(3.795675310507445e-09, 1.6953287204714928e-09).transl(6.426532546352106e-08, -3.972216779710909e-08, 0))
hIsland = hIsland.sub(rect(2.5548038666631067e-09, -1.2910662656343295e-10).transl(4.902020130457477e-08, -4e-08, 0))
hIsland = hIsland.add(rect(7.50586480586111e-09, 2.521036159411155e-09).transl(-6.574022249276956e-08, -3.958712426765385e-08, 0))
hIsland = hIsland.sub(rect(5.18245071530101e-09, -1.449808739307036e-09).transl(4.4101436789140415e-08, -4e-08, 0))
hIsland = hIsland.add(rect(8.872124406179128e-09, 2.1911515755569017e-09).transl(-6.328836065107321e-08, -3.979680643610119e-08, 0))
hIsland = hIsland.sub(rect(3.895710534898726e-09, -2.010324438883786e-09).transl(-1.1273738975089446e-07, -1.1110433627168981e-08, 0))
hIsland = hIsland.add(rect(3.682506655441458e-09, 3.730952010373359e-10).transl(3.061902791485155e-08, -4e-08, 0))
hIsland = hIsland.add(rect(4.9318779971133695e-09, 7.07712569397127e-10).transl(-1.0394043764832503e-07, -2.3585950780569413e-08, 0))
hIsland = hIsland.sub(rect(6.61956258370883e-09, -1.3223957642464849e-11).transl(-5.846727501243538e-08, -3.999433988869052e-08, 0))
hIsland = hIsland.sub(rect(7.871407858353194e-09, -1.942601810796416e-09).transl(5.226099433794055e-08, -4e-08, 0))
hIsland = hIsland.sub(rect(8.171712786457256e-09, -2.0091995897892892e-10).transl(-5.5328203728698923e-08, -4e-08, 0))
hIsland = hIsland.sub(rect(6.057093699003896e-09, -1.3768414704092587e-09).transl(7.427173098204978e-08, -3.826061052791839e-08, 0))
hIsland = hIsland.add(rect(4.245096903185474e-09, 3.6421867333613794e-09).transl(4.8782533533627866e-09, -4e-08, 0))
hIsland = hIsland.add(rect(3.638097242505657e-09, 1.8489937637873346e-09).transl(1.6133113926799353e-08, -4e-08, 0))
hIsland = hIsland.sub(rect(6.401956292181151e-09, -2.4289933516394444e-09).transl(-4.889136912530762e-08, -4e-08, 0))
hIsland = hIsland.add(rect(4.576000354417973e-09, 2.486549394323342e-10).transl(-1.030846352014719e-07, -2.4380510073289897e-08, 0))
hIsland = hIsland.add(rect(5.443467188982301e-09, 1.3998097763284044e-09).transl(-4.9701394839757215e-08, -4e-08, 0))
hIsland = hIsland.sub(rect(6.548971653905285e-09, -2.2773606852979816e-09).transl(-3.983874856375346e-08, -4e-08, 0))
hIsland = hIsland.add(rect(5.591180021160564e-09, 4.0262552680717287e-10).transl(-5.909409483667273e-08, -3.998462531988176e-08, 0))
hIsland = hIsland.add(rect(7.42439031652548e-09, 1.6075014166502872e-09).transl(-4.553715862514651e-08, -4e-08, 0))
hIsland = hIsland.sub(rect(9.304486801886627e-09, -1.1127781830382976e-09).transl(-8.449341907373985e-08, -3.531834600504907e-08, 0))
hIsland = hIsland.sub(rect(3.108454726952942e-09, -1.9493190399469946e-10).transl(3.8186353008462394e-08, -4e-08, 0))
hIsland = hIsland.sub(rect(8.19370880537574e-09, -1.0721430388969109e-09).transl(1.0499509573180224e-07, -2.2546707061774764e-08, 0))
hIsland = hIsland.add(rect(7.29396248439456e-09, 6.34992262973248e-10).transl(-1.2074503736794777e-08, -4e-08, 0))
hIsland = hIsland.sub(rect(4.461627995599202e-09, -5.917203712560397e-10).transl(-5.008818486264604e-08, -4e-08, 0))
hIsland = hIsland.sub(rect(2.4205042498143767e-09, -1.1632335066088166e-09).transl(4.722353365598784e-08, -4e-08, 0))
hIsland = hIsland.add(rect(6.637821980249407e-09, 3.07705215952083e-09).transl(-7.726028916447914e-09, -4e-08, 0))
hIsland = hIsland.sub(rect(3.580040624313271e-09, -9.575367213848923e-10).transl(4.840834654266323e-08, -4e-08, 0))
hIsland = hIsland.sub(rect(6.099429977655887e-09, -2.9961614951968844e-10).transl(-5.311794318975234e-08, -4e-08, 0))
hIsland = hIsland.sub(rect(6.674409534349885e-09, -5.953093073265804e-10).transl(9.01539795492901e-08, -3.2924032127368815e-08, 0))
hIsland = hIsland.add(rect(4.926578875641323e-09, 2.2514325922702234e-09).transl(-1.2997221280782649e-08, -4e-08, 0))
hIsland = hIsland.sub(rect(6.9418697204047764e-09, -2.813725300373098e-10).transl(-9.880753020294409e-08, -2.7825547373315033e-08, 0))
hIsland = hIsland.sub(rect(8.24935638965295e-09, -8.399649788339352e-10).transl(-5.120965327507565e-08, -4e-08, 0))
hIsland = hIsland.add(rect(9.89165130437964e-09, 8.978129327966611e-10).transl(1.1264062319936823e-07, -1.1340659767452945e-08, 0))
hIsland = hIsland.sub(rect(4.201914078740581e-09, -1.2032809681324935e-09).transl(5.9476049898049307e-08, -3.997637246552844e-08, 0))
hIsland = hIsland.add(rect(6.867998570219156e-09, 2.216969915449861e-09).transl(6.120677485021316e-08, -3.9916797066411166e-08, 0))
hIsland = hIsland.add(rect(9.162410425079424e-09, 2.8682494495082016e-09).transl(1.0467871965439504e-07, -2.2865891315648286e-08, 0))
hIsland = hIsland.sub(rect(7.661018485998945e-09, -5.583241088613759e-10).transl(-1.1946613332244657e-08, -4e-08, 0))
hIsland = hIsland.sub(rect(8.493222849813052e-09, -3.3882672396479287e-10).transl(-4.941643877377336e-08, -4e-08, 0))
hIsland = hIsland.sub(rect(3.817707333622325e-09, -2.6201296781705444e-09).transl(-8.466525400484979e-08, -3.525453053946208e-08, 0))
hIsland = hIsland.sub(rect(8.698037234871347e-09, -9.382569311509153e-10).transl(-1.6131587676891516e-08, -4e-08, 0))
hIsland = hIsland.add(rect(8.2444647127552e-09, 2.06636331025127e-09).transl(7.63132804239003e-08, -3.7798377726989793e-08, 0))
hIsland = hIsland.sub(rect(6.328281349760932e-09, -3.841721405552264e-09).transl(4.538362851181442e-08, -4e-08, 0))
hIsland = hIsland.add(rect(9.973432428039429e-09, 7.437270763070825e-10).transl(-7.246615693517209e-08, -3.862131652137259e-08, 0))
hIsland = hIsland.add(rect(8.221223546626452e-09, 1.1666327640928767e-09).transl(9.80286044199002e-08, -2.8374442335616187e-08, 0))
hIsland = hIsland.add(rect(3.470595927006972e-09, 3.459791467401842e-10).transl(-4.6864726102186295e-08, -4e-08, 0))
hIsland = hIsland.add(rect(2.9393762128667165e-09, 5.000001885620173e-10).transl(-2.5460867998301345e-08, -4e-08, 0))
hIsland = hIsland.sub(rect(9.581490457016116e-09, -3.408444075662222e-09).transl(5.531125447528409e-08, -4e-08, 0))
hIsland = hIsland.add(rect(6.5433560821331325e-09, 5.979620260787177e-09).transl(-1.0818012668943338e-07, -1.8895310939424893e-08, 0))
hIsland = hIsland.add(rect(4.877415518002748e-09, 2.691938188671012e-10).transl(-6.016087478573815e-08, -3.9957147528238183e-08, 0))
hIsland = hIsland.sub(rect(4.5939990617867225e-09, -2.2118677261657992e-09).transl(-2.254591054288651e-08, -4e-08, 0))
hIsland = hIsland.sub(rect(3.6454241873984875e-09, -3.2693737164785435e-09).transl(-5.5992443394551244e-08, -4e-08, 0))
hIsland = hIsland.add(rect(7.23866320518081e-09, 3.229134755396067e-10).transl(-8.080447632439806e-08, -3.656743399451261e-08, 0))
hIsland = hIsland.add(rect(6.5088147261779075e-09, 1.214394364072996e-09).transl(6.862939348037003e-08, -3.9243579653678995e-08, 0))
hIsland = hIsland.sub(rect(8.660916573024567e-09, -3.936666716068175e-09).transl(4.473371923411561e-09, -4e-08, 0))
hIsland = hIsland.sub(rect(3.5393130349004127e-09, -9.962031135187011e-10).transl(-7.921883612176607e-08, -3.70368128399096e-08, 0))
hIsland = hIsland.add(rect(7.074512248137878e-09, 3.479350270306374e-11).transl(-5.0747971110478533e-08, -4e-08, 0))
hIsland = hIsland.sub(rect(8.069905433482562e-09, -1.9747567917993025e-12).transl(-5.7067944938184486e-08, -4e-08, 0))
hIsland = hIsland.sub(rect(9.129422006257912e-09, -2.356047426720068e-09).transl(4.349471312482187e-08, -4e-08, 0))
hIsland = hIsland.sub(rect(8.53758562382551e-09, -4.223921572257377e-10).transl(5.645395513583074e-08, -4e-08, 0))
hIsland = hIsland.add(rect(9.009757172303506e-09, 1.2666922364626431e-09).transl(6.397357335834497e-08, -3.9745688952689737e-08, 0))
hIsland = hIsland.add(rect(2.5730675280553063e-09, 3.649571107380234e-10).transl(8.475452526188222e-09, -4e-08, 0))
hIsland = hIsland.sub(rect(9.573410122837817e-09, -1.9579110221934253e-10).transl(-4.663009762173126e-08, -4e-08, 0))
hIsland = hIsland.sub(rect(3.5372792699225964e-09, -1.6171345547725335e-09).transl(2.233765240097283e-08, -4e-08, 0))
hIsland = hIsland.sub(rect(3.4566179091834094e-09, -1.3100213135873325e-10).transl(-9.182656044550697e-08, -3.2090135799932064e-08, 0))
hIsland = hIsland.add(rect(2.9259210707674993e-09, 1.036831057264806e-09).transl(3.645571740373783e-08, -4e-08, 0))
hIsland = hIsland.sub(rect(4.485048156455999e-09, -2.0674520383052855e-09).transl(1.004012742141795e-07, -2.663294759128758e-08, 0))
hIsland = hIsland.sub(rect(6.738060322859735e-09, -2.4688560370027555e-09).transl(-5.9391162989240466e-08, -3.997835937884926e-08, 0))
hIsland = hIsland.add(rect(6.5585646227048476e-09, 1.0808554366046605e-09).transl(-7.972976232142424e-08, -3.688982325909195e-08, 0))
hIsland = hIsland.sub(rect(5.0202091182302005e-09, -2.991267221115651e-09).transl(9.36898073908429e-08, -3.108364978763029e-08, 0))
hIsland = hIsland.sub(rect(9.711579806274242e-09, -4.994108377485729e-10).transl(6.135136065732283e-09, -4e-08, 0))
hIsland = hIsland.sub(rect(6.563618338763006e-09, -6.979422880765692e-10).transl(4.24686062490791e-08, -4e-08, 0))
hIsland = hIsland.sub(rect(9.28775939650808e-09, -3.733110076886227e-09).transl(-1.1140022145027847e-07, -1.393070405403877e-08, 0))
hIsland = hIsland.add(rect(4.027922842664459e-09, 1.5869587337247984e-09).transl(-5.4444043610685865e-08, -4e-08, 0))
hIsland = hIsland.add(rect(8.09301232935119e-09, 4.148075725809975e-09).transl(5.6057791263422026e-08, -4e-08, 0))
hIsland = hIsland.sub(rect(9.61686244430036e-09, -1.462662268777431e-09).transl(-7.262470110912156e-08, -3.859141589879671e-08, 0))
hIsland = hIsland.sub(rect(5.968781104910199e-09, -1.3016652524132877e-09).transl(9.877029429376491e-08, -2.78522729735287e-08, 0))
hIsland = hIsland.add(rect(7.593219780908939e-09, 4.6194766205735924e-10).transl(-8.961994038227928e-08, -3.3177280985761965e-08, 0))
hIsland = hIsland.add(rect(5.1066081021606485e-09, 2.0661438189255142e-10).transl(-1.959064356092009e-08, -4e-08, 0))
hIsland = hIsland.sub(rect(4.3657194895359865e-09, -1.2432165184299576e-09).transl(-8.411506318614156e-08, -3.545703311467153e-08, 0))
hIsland = hIsland.add(rect(6.068478286923093e-09, 1.018520825660518e-09).transl(-8.094182838925326e-08, -3.652492363271726e-08, 0))
hIsland = hIsland.add(rect(9.98741970093357e-09, 1.4489439376827258e-09).transl(-7.317307908648086e-08, -3.848537825451438e-08, 0))
hIsland = hIsland.add(rect(3.767140906217142e-09, 3.002662988994835e-09).transl(-4.580644686232861e-08, -4e-08, 0))
hIsland = hIsland.sub(rect(8.609720568457521e-09, -8.257646302910337e-12).transl(4.1171583041661913e-08, -4e-08, 0))
hIsland = hIsland.sub(rect(6.810557031991741e-09, -4.498333564027613e-09).transl(6.335178955300592e-08, -3.9792317159669425e-08, 0))
hIsland = hIsland.sub(rect(3.0842849161014527e-09, -1.3331738010560793e-09).transl(2.9058130226914478e-08, -4e-08, 0))
hIsland = hIsland.sub(rect(8.163066049537911e-09, -4.324948493600531e-09).transl(1.9423998954407127e-08, -4e-08, 0))
hIsland = hIsland.sub(rect(4.750582423773304e-09, -3.1303222338990794e-09).transl(1.0871528450213469e-07, -1.818361641009866e-08, 0))
hIsland = hIsland.sub(rect(6.129239586894773e-09, -1.7586921920506561e-09).transl(4.4757918596556493e-08, -4e-08, 0))
hIsland = hIsland.add(rect(7.744327852394388e-09, 4.2525182881275055e-10).transl(7.310547811955622e-08, -3.849867003523617e-08, 0))
hIsland = hIsland.add(rect(2.9055094152415734e-09, 1.0420200892703501e-10).transl(-4.795577420805371e-08, -4e-08, 0))
hIsland = hIsland.sub(rect(2.33217843425374e-09, -9.06671822365735e-10).transl(3.8087373620554885e-08, -4e-08, 0))
hIsland = hIsland.add(rect(4.156800601332206e-09, 3.182270222971428e-10).transl(-2.8781817057477112e-08, -4e-08, 0))
hIsland = hIsland.add(rect(3.95505422113398e-09, 2.0955458377931573e-09).transl(-7.969602493487373e-08, -3.689965287246007e-08, 0))
hIsland = hIsland.add(rect(9.132451755940384e-09, 3.1521616796535338e-09).transl(-2.7630089315571953e-08, -4e-08, 0))
hIsland = hIsland.add(rect(6.475068825545637e-09, 9.960390796893395e-10).transl(-1.0483240096672718e-07, -2.271167257304908e-08, 0))
hIsland = hIsland.add(rect(6.4583439913581235e-09, 2.0061164211733378e-09).transl(7.231910701411066e-08, -3.86487473717128e-08, 0))
hIsland = hIsland.add(rect(4.477090307062973e-09, 1.845544512479474e-09).transl(-3.420583606502296e-08, 4e-08, 0))
hIsland = hIsland.sub(rect(7.0106829569412494e-09, -8.691715188540849e-10).transl(1.1051658427891255e-09, 4e-08, 0))
hIsland = hIsland.sub(rect(7.984492669340582e-09, -1.5532304177907688e-10).transl(-2.357601622303614e-09, 4e-08, 0))
hIsland = hIsland.add(rect(3.533288416357091e-09, 1.8017325480467928e-09).transl(-8.713174974772316e-08, 3.427955813847389e-08, 0))
hIsland = hIsland.add(rect(4.953606434794775e-09, 1.7396453006299953e-10).transl(1.0243549153778695e-07, 2.4956870534826434e-08, 0))
hIsland = hIsland.sub(rect(3.0093860569042773e-09, -3.0260149451730193e-09).transl(-8.733231270775259e-08, 3.419527151831465e-08, 0))
hIsland = hIsland.sub(rect(6.982282631120091e-09, -6.187592399510686e-11).transl(9.1959178181538e-08, 3.202127866481918e-08, 0))
hIsland = hIsland.add(rect(3.3977097895619375e-09, 1.3712643771427934e-09).transl(-9.48823493387533e-08, 3.039299457968072e-08, 0))
hIsland = hIsland.add(rect(9.642911222843804e-09, 7.074099738216309e-10).transl(-9.653560728137507e-08, 2.936996489376974e-08, 0))
hIsland = hIsland.sub(rect(2.037907833848836e-09, -3.0268491767888698e-09).transl(-3.8318796708661183e-08, 4e-08, 0))
hIsland = hIsland.add(rect(3.545654888119768e-09, 3.654870386706316e-09).transl(6.878525316752963e-08, 3.92220334571033e-08, 0))
hIsland = hIsland.add(rect(7.042172775954447e-09, 3.709256596975673e-10).transl(-5.301485662603641e-08, 4e-08, 0))
hIsland = hIsland.add(rect(5.9546342270593636e-09, 3.5225380051469063e-09).transl(6.205258977658262e-08, 3.987442778036948e-08, 0))
hIsland = hIsland.add(rect(7.841412229774404e-09, 1.482184903135702e-09).transl(7.242902786136134e-08, 3.8628270021833777e-08, 0))
hIsland = hIsland.add(rect(9.371899632244184e-09, 1.3543601625458489e-09).transl(-4.787520677226625e-08, 4e-08, 0))
hIsland = hIsland.add(rect(2.3850631647731424e-09, 1.4749477618651098e-09).transl(-7.856480534946348e-08, 3.721917249269903e-08, 0))
hIsland = hIsland.sub(rect(5.723413886441296e-09, -3.944626177571115e-09).transl(4.0633016879495004e-08, 4e-08, 0))
hIsland = hIsland.add(rect(2.0203443466567314e-09, 8.752228839011095e-10).transl(-5.202913744155367e-08, 4e-08, 0))
hIsland = hIsland.sub(rect(7.628747229800377e-09, -3.3949949490453016e-09).transl(-9.377774508137036e-08, 3.1034003371496993e-08, 0))
hIsland = hIsland.sub(rect(9.642241161976035e-09, -1.3903637586160544e-09).transl(-7.200252439123116e-08, 3.8706819524100884e-08, 0))
hIsland = hIsland.add(rect(8.361814531572694e-09, 1.3744595019740865e-09).transl(1.3132130446890463e-09, 4e-08, 0))
hIsland = hIsland.sub(rect(9.169528338132253e-09, -4.5252132586129376e-10).transl(-2.6547229791168904e-08, 4e-08, 0))
hIsland = hIsland.sub(rect(7.072485973697391e-09, -1.540589462988856e-09).transl(1.9977988541754707e-08, 4e-08, 0))
hIsland = hIsland.sub(rect(5.0833298893998955e-09, -7.156802681237783e-10).transl(-6.013230116470135e-08, 3.995806340376491e-08, 0))
hIsland = hIsland.add(rect(6.494514074905278e-09, 3.0126450136450068e-09).transl(-9.46553516645041e-08, 3.052740068040893e-08, 0))
hIsland = hIsland.add(rect(4.633172568171855e-09, 1.6383046524202494e-11).transl(4.772155299648455e-08, 4e-08, 0))
[...]
hIsland = hIsland.add(rect(3.353964231457184e-09, 1.9902368505883054e-10).transl(-1.0887414552730718e-07, 1.7965440245618945e-08, 0))
hIsland = hIsland.sub(rect(4.4507495697677075e-09, -8.377008309220432e-10).transl(2.0865945931575923e-08, 4e-08, 0))
hIsland = hIsland.add(rect(5.405262199963753e-09, 6.857003921845646e-10).transl(9.907599463699727e-08, 2.763137676722744e-08, 0))
hIsland = hIsland.sub(rect(7.389576140222492e-09, -1.9663429163104778e-09).transl(-5.166604392422506e-08, 4e-08, 0))
hIsland = hIsland.sub(rect(9.279566793440346e-09, -7.821080395068042e-10).transl(-9.806145320993771e-08, 2.8351718172913737e-08, 0))
hIsland = hIsland.add(rect(4.366995845903303e-09, 9.086765745664421e-10).transl(-3.5219458294052503e-08, 4e-08, 0))
hIsland = hIsland.add(rect(9.059809000778213e-09, 7.257383042206258e-10).transl(2.4416937607483304e-08, 4e-08, 0))
hIsland = hIsland.sub(rect(4.301038043765292e-09, -1.897110899389847e-09).transl(3.4484702986469326e-09, 4e-08, 0))
hIsland = hIsland.sub(rect(4.308171334485535e-09, -2.6916978555625124e-09).transl(5.434990574911928e-08, 4e-08, 0))
hIsland = hIsland.sub(rect(2.1852258954031587e-09, -5.103262576140533e-09).transl(4.403677333853531e-08, 4e-08, 0))
hIsland = hIsland.add(rect(4.404398983295416e-09, 5.107215040492362e-10).transl(4.754779267663341e-08, 4e-08, 0))
hIsland = hIsland.add(rect(6.81791125351014e-09, 9.87690338200236e-10).transl(6.41001323200308e-08, 3.9735614744581594e-08, 0))
hIsland = hIsland.add(rect(2.482245751487254e-09, 4.772220098009794e-10).transl(-7.851776851174837e-09, 4e-08, 0))
hIsland = hIsland.sub(rect(2.4247285583256383e-09, -7.179803791650571e-10).transl(5.1708398918882984e-08, 4e-08, 0))
hIsland = hIsland.add(rect(5.39001201784733e-09, 2.7309225987091263e-09).transl(6.540314770668141e-09, 4e-08, 0))
hIsland = hIsland.add(rect(6.102135746589718e-09, 3.2257210023308686e-09).transl(3.4977813781381456e-08, 4e-08, 0))
hIsland = hIsland.sub(rect(7.543900340029198e-09, -6.595683558265916e-10).transl(-9.741792148767222e-08, 2.8790332711489268e-08, 0))
hIsland = hIsland.sub(rect(5.602702524044172e-09, -1.3241161406435657e-09).transl(6.011657256507677e-08, 3.9958563327011334e-08, 0))
hIsland = hIsland.add(rect(7.349324337855853e-09, 1.6100340145502785e-09).transl(-7.219736086886107e-08, 3.867123854607272e-08, 0))
hIsland = hIsland.sub(rect(5.7182245755966896e-09, -1.5910761762802308e-09).transl(3.7745488600832255e-08, 4e-08, 0))
hIsland = hIsland.sub(rect(2.8739756819320146e-09, -2.8247409625477796e-09).transl(1.0003530818991208e-07, 2.6915514905153084e-08, 0))
hIsland = hIsland.sub(rect(2.4797853354547365e-09, -9.34751781601799e-10).transl(9.072491738932308e-08, 3.264643744274732e-08, 0))
hIsland = hIsland.sub(rect(3.713122636321654e-09, -3.5312498194364015e-09).transl(-2.407395111279513e-08, 4e-08, 0))
hIsland = hIsland.sub(rect(8.486182047191907e-09, -1.724628349016959e-10).transl(1.0361402177486986e-07, 2.389387496204162e-08, 0))
hIsland = hIsland.sub(rect(9.289127252550841e-09, -9.603969975399932e-10).transl(-3.5985714948936566e-08, 4e-08, 0))
hIsland = hIsland.add(rect(8.218793712235425e-09, 1.2513593699126398e-09).transl(-5.001197133347892e-08, 4e-08, 0))
hIsland = hIsland.add(rect(2.903332823304009e-09, 4.48385764247475e-10).transl(7.893701054538035e-08, 3.7116186355672264e-08, 0))
hIsland = hIsland.add(rect(9.864531596703795e-09, 2.986204187006112e-09).transl(-3.630313312531254e-08, 4e-08, 0))
hIsland = hIsland.add(rect(4.135955251811507e-09, 2.8139376972688553e-10).transl(6.01726888173573e-08, 3.9956765955356874e-08, 0))
hIsland = hIsland.sub(rect(2.6364108801714247e-09, -3.6403376440055895e-09).transl(-9.873724692114846e-08, 2.787595068234795e-08, 0))
hIsland = hIsland.add(rect(2.0238397228281263e-09, 9.170938258818212e-10).transl(-3.1705006179914444e-08, 4e-08, 0))
hIsland = hIsland.add(rect(3.7057373473753084e-09, 4.867563119101656e-10).transl(-1.5599974915154016e-08, 4e-08, 0))
hIsland = hIsland.add(rect(8.04085532220647e-09, 1.3138363730103874e-09).transl(-8.860409376204313e-09, 4e-08, 0))
hIsland = hIsland.add(rect(5.996017090579809e-09, 8.64884675143593e-10).transl(-8.173606205755132e-08, 3.627319683488716e-08, 0))
hIsland = hIsland.add(rect(3.2296710447784563e-09, 2.1265952635227158e-09).transl(-9.706013545888e-08, 2.902833811032404e-08, 0))
hIsland = hIsland.add(rect(5.765158381970724e-09, 3.580935427468748e-09).transl(1.1018869369640257e-08, 4e-08, 0))
hIsland = hIsland.add(rect(5.211486496390863e-09, 2.474901866131149e-10).transl(-5.034703076361317e-08, 4e-08, 0))
hIsland = hIsland.sub(rect(2.177159411897363e-09, -2.124839847755724e-09).transl(-4.770297271605535e-08, 4e-08, 0))
hIsland = hIsland.add(rect(9.621126722244218e-09, 9.603188380207324e-10).transl(-2.4794685732305498e-08, 4e-08, 0))
hIsland = hIsland.sub(rect(7.286756378981625e-09, -2.4345041091898297e-09).transl(-1.0648489947618744e-07, 2.0947444523696587e-08, 0))
hIsland = hIsland.add(rect(4.812639208824635e-09, 2.5199055111597824e-09).transl(4.092011410835586e-08, 4e-08, 0))
hIsland = hIsland.add(rect(3.1324159027361623e-09, 7.463809022287993e-10).transl(-9.680478196762471e-08, 2.9195719618758443e-08, 0))
hIsland = hIsland.sub(rect(3.5597049712136163e-09, -2.517175094736329e-09).transl(-9.540284615829067e-08, 3.007940998577485e-08, 0))
hIsland = hIsland.add(rect(9.092739460360885e-09, 7.51454917516982e-10).transl(-9.675634131758016e-08, 2.9227241953153928e-08, 0))
hIsland = hIsland.add(rect(7.949882324282691e-09, 1.7241562459103945e-09).transl(3.5356477463537668e-09, 4e-08, 0))
hIsland = hIsland.sub(rect(8.370747243273909e-09, -1.040383450757328e-09).transl(-6.46290641449843e-08, 3.969137006692457e-08, 0))
hIsland = hIsland.add(rect(6.2500719254945935e-09, 1.7846250177397743e-09).transl(-1.1060732260133531e-07, 1.5333762817025465e-08, 0))
hIsland = hIsland.add(rect(4.573562432685414e-09, 1.076281784034656e-09).transl(3.8942489283024154e-08, 4e-08, 0))
hIsland = hIsland.add(rect(8.054529957940477e-09, 1.1887664781934736e-09).transl(6.561869351385264e-08, 3.959927403816059e-08, 0))
hIsland = hIsland.sub(rect(6.5914330108290805e-09, -4.4282854734307397e-10).transl(1.3460645669999964e-08, 4e-08, 0))
hIsland = hIsland.add(rect(9.358403860735104e-09, 9.64790870007556e-10).transl(6.365959491821885e-08, 3.9769829355232085e-08, 0))
hIsland = hIsland.sub(rect(7.871086678449223e-09, -3.1214349672552303e-09).transl(-1.9555897775534886e-08, 4e-08, 0))
hIsland = hIsland.sub(rect(3.674322882046832e-09, -9.234272968417321e-10).transl(-1.0678577608439488e-07, 2.060307860501198e-08, 0))
hIsland = hIsland.sub(rect(7.186816788627229e-09, -2.0656982801236013e-09).transl(6.89973877412983e-08, 3.9192206779828226e-08, 0))
hIsland = hIsland.sub(rect(6.49901150365274e-09, -1.2349531972602977e-09).transl(-2.334671663345095e-08, 4e-08, 0))
hIsland = hIsland.sub(rect(5.33722588072454e-09, -1.2365987983340393e-09).transl(-1.0165636106811918e-07, 2.5621028954839675e-08, 0))
hIsland = hIsland.add(rect(2.768437204591269e-09, 1.3710286927697873e-09).transl(-2.6832422203740945e-08, 4e-08, 0))
hIsland = hIsland.sub(rect(3.690563806689227e-09, -8.897950477903354e-10).transl(-6.323787160752743e-08, 3.980034454568631e-08, 0))
hIsland = hIsland.sub(rect(8.651754126722169e-09, -3.3475239967938588e-09).transl(-4.490409777513345e-08, 4e-08, 0))
hIsland = hIsland.add(rect(2.5458626119055466e-09, 9.345779795484735e-10).transl(1.0564899456973448e-08, 4e-08, 0))
hIsland = hIsland.add(rect(5.108450505742276e-09, 1.8802582191277077e-09).transl(-9.976967156650026e-08, 2.7117275432095586e-08, 0))
hIsland = hIsland.add(rect(4.026656236828963e-09, 1.7068184796451515e-09).transl(-8.543209638127563e-08, 3.4963342561006785e-08, 0))
hIsland = hIsland.add(rect(5.7246728604967416e-09, 2.174916678066256e-09).transl(5.628189697827969e-08, 4e-08, 0))
hIsland = hIsland.add(rect(2.276284716904546e-09, 1.4634133699021244e-09).transl(-4.50758867475388e-08, 4e-08, 0))
hIsland = hIsland.sub(rect(5.966775322460955e-09, -2.6792976230756633e-09).transl(9.143934590857318e-08, 3.2288834844494104e-08, 0))
hIsland = hIsland.sub(rect(2.3336214745838133e-09, -7.72600729729067e-10).transl(-1.082501085993835e-07, 1.8804193422366844e-08, 0))
hIsland = hIsland.add(rect(8.27014398260695e-09, 9.700190857729607e-10).transl(9.026104205641185e-08, 3.2872521594238124e-08, 0))
hIsland = hIsland.add(rect(8.120714892601768e-09, 6.187042558382753e-10).transl(-2.8252243876136128e-08, 4e-08, 0))
hIsland = hIsland.sub(rect(7.501242560486793e-09, -2.643280917965479e-09).transl(-2.0437232634977396e-08, 4e-08, 0))
hIsland = hIsland.sub(rect(2.7102519937368035e-09, -2.7024262003232363e-09).transl(-3.790592522752061e-10, 4e-08, 0))
hIsland = hIsland.sub(rect(9.063989204802302e-09, -2.2929219974722893e-10).transl(1.2175312838428027e-08, 4e-08, 0))
hIsland = hIsland.add(rect(2.6594573365378934e-09, 2.8137493075635157e-09).transl(-5.334558330382572e-08, 4e-08, 0))
hIsland = hIsland.add(rect(6.329663693239606e-09, 1.2309517666772105e-09).transl(2.2240942198769908e-08, 4e-08, 0))
hIsland = hIsland.sub(rect(4.350150455844441e-09, -1.0083582937586449e-10).transl(-9.792826419376362e-08, 2.8443629666614437e-08, 0))
hIsland = hIsland.add(rect(4.131423112600099e-09, 3.694635271115519e-10).transl(-7.2832374453079174e-09, 4e-08, 0))
hIsland = hIsland.add(rect(5.974048768743968e-09, 1.4863854842464214e-09).transl(4.6481112115368945e-08, 4e-08, 0))
hIsland = hIsland.sub(rect(2.854439325952399e-09, -3.804948667627618e-09).transl(-1.0479100330564412e-07, 2.2753367295801756e-08, 0))
hIsland = hIsland.add(rect(3.3382157836076154e-09, 2.9437028082047926e-09).transl(-2.793432307517719e-08, 4e-08, 0))
hIsland = hIsland.sub(rect(7.638109269337391e-09, -5.889795142820229e-10).transl(-2.077371744861368e-08, 4e-08, 0))
hIsland = hIsland.add(rect(3.937257284272627e-09, 2.3649625101120853e-09).transl(-8.026328670466115e-08, 3.673203407849837e-08, 0))
hIsland = hIsland.sub(rect(7.992786121521157e-09, -5.626973126197003e-10).transl(2.9235145754989033e-08, 4e-08, 0))
hIsland = hIsland.sub(rect(6.919829180306785e-09, -2.9804864455958183e-10).transl(1.1240493572549172e-07, 1.1881161435495347e-08, 0))
hIsland = hIsland.sub(rect(9.60048467747457e-09, -1.9593298861911586e-09).transl(4.0438011275313205e-08, 4e-08, 0))
hIsland = hIsland.sub(rect(4.363062182691898e-09, -3.7737911062034814e-10).transl(9.813834165032529e-08, 2.829838473568789e-08, 0))
hIsland = hIsland.sub(rect(5.7049118491315105e-09, -3.4364426935256472e-09).transl(7.549521424012342e-08, 3.799064902605685e-08, 0))
hIsland = hIsland.sub(rect(8.187946982876096e-09, -2.4560516042796175e-09).transl(8.348778330113164e-08, 3.5681498822221864e-08, 0))
hIsland = hIsland.add(rect(9.8644073676571e-09, 6.245382949671421e-10).transl(1.1233732451252936e-07, 1.2031320744763976e-08, 0))
hIsland = hIsland.sub(rect(7.1942598291671484e-09, -6.743910861336459e-10).transl(9.686248215327028e-08, 2.9158076427247128e-08, 0))
hIsland = hIsland.add(rect(7.576394842163415e-09, 2.021496749496808e-09).transl(-2.302895732984411e-08, 4e-08, 0))
hIsland = hIsland.add(rect(3.723660937425284e-09, 1.1417303206925008e-09).transl(-6.1600264680549204e-09, 4e-08, 0))
hIsland = hIsland.add(rect(6.8981147116983846e-09, 3.003544222422074e-09).transl(4.623764592327891e-08, 4e-08, 0))
hIsland = hIsland.add(rect(2.421113757070285e-09, 1.2054481989441495e-09).transl(8.68476186306993e-08, 3.439764202201742e-08, 0))
hIsland = hIsland.add(rect(9.719582578406877e-09, 1.6703816142636773e-10).transl(2.8088351584174492e-08, 4e-08, 0))
hIsland = hIsland.add(rect(9.384026402139384e-09, 1.0473234912879559e-09).transl(8.225345485259488e-08, 3.610372101565669e-08, 0))
hIsland = hIsland.add(rect(7.793429319722934e-09, 1.1153089191097978e-09).transl(9.870981923950089e-08, 2.7895572358100393e-08, 0))
hIsland = hIsland.add(rect(3.4645477042644607e-09, 3.895098916374915e-09).transl(-8.555604796385598e-09, 4e-08, 0))
hIsland = hIsland.sub(rect(3.7445368523146145e-09, -7.291197169950453e-10).transl(1.6692071020637026e-08, 4e-08, 0))
hIsland = hIsland.add(rect(4.639911547009526e-09, 1.2577636049276956e-09).transl(2.501714760541412e-08, 4e-08, 0))
hIsland = hIsland.sub(rect(2.7774528385150098e-09, -9.10643824890725e-10).transl(-3.8514538689773925e-08, 4e-08, 0))
hIsland = hIsland.sub(rect(8.940275315897378e-09, -2.885866022566686e-09).transl(-3.926520021658774e-08, 4e-08, 0))
hIsland = hIsland.sub(rect(2.904521624077271e-09, -5.856778242569016e-10).transl(-5.412095890598478e-08, 4e-08, 0))
hIsland = hIsland.add(rect(7.363118098613798e-09, 1.8169327199076231e-09).transl(-6.517412260306847e-09, 4e-08, 0))
hIsland = hIsland.add(rect(4.371909064442342e-09, 2.5235429716405127e-10).transl(8.89510318668169e-08, 3.348597156249606e-08, 0))
hIsland = hIsland.add(rect(7.685851477203437e-09, 6.532875609161255e-11).transl(1.0235594400663005e-07, 2.5026025679826566e-08, 0))
hIsland = hIsland.sub(rect(6.145136804813762e-09, -1.2928155089568412e-09).transl(3.5337445962812683e-08, 4e-08, 0))
hIsland = hIsland.sub(rect(5.958399891321223e-09, -8.130140451831731e-10).transl(3.8566363611794556e-08, 4e-08, 0))
hIsland = hIsland.sub(rect(4.8556442203480885e-09, -1.995362052452811e-09).transl(-7.689378518474113e-09, 4e-08, 0))
hIsland = hIsland.sub(rect(9.178345044961305e-09, -2.141824413385326e-09).transl(-3.5939498589662206e-08, 4e-08, 0))
hIsland = hIsland.add(rect(7.239287528482944e-09, 3.888831957461271e-09).transl(-7.779738463231503e-08, 3.742496314516302e-08, 0))
hIsland = hIsland.sub(rect(8.16159468932646e-09, -1.931131802875139e-09).transl(2.616937367733064e-08, 4e-08, 0))
hIsland = hIsland.add(rect(2.4777774513816953e-09, 9.918250567221167e-10).transl(6.440567231789147e-08, 3.971047850644441e-08, 0))
hIsland = hIsland.sub(rect(6.0024706406156244e-09, -1.6909048135481002e-10).transl(-6.476530655811101e-08, 3.967941289044688e-08, 0))
hIsland = hIsland.add(rect(8.849674302407443e-09, 2.3212442584645486e-09).transl(1.1498387152479035e-07, 9.473430335466876e-10, 0))
hIsland = hIsland.add(rect(5.986337608183712e-09, 7.620593604819105e-10).transl(1.958916646115282e-08, 4e-08, 0))
hIsland = hIsland.add(rect(2.7869560713947276e-09, 2.1981116154603924e-09).transl(2.3891995000754754e-08, 4e-08, 0))
hIsland = hIsland.add(rect(4.361566278327618e-09, 1.8317121995742354e-09).transl(8.827179789212677e-08, 3.3789985550929544e-08, 0))
hIsland = hIsland.sub(rect(2.2820133967381228e-09, -4.8206781118259305e-09).transl(2.2425769350888746e-08, 4e-08, 0))
hIsland = hIsland.sub(rect(3.773535468741154e-09, -3.233235539488123e-10).transl(-5.2355653893940475e-08, 4e-08, 0))
hIsland = hIsland.add(rect(2.627496903776256e-09, 3.2803732508250255e-09).transl(3.721024813412457e-08, 4e-08, 0))
hIsland = hIsland.add(rect(3.374818099717117e-09, 2.279590002379739e-09).transl(-2.8196681960848915e-08, 4e-08, 0))
hIsland = hIsland.add(rect(4.147802957281891e-09, 2.708615083763305e-09).transl(-1.0511734747533137e-07, 2.2421574481099094e-08, 0))
hIsland = hIsland.add(rect(7.824747961725302e-09, 6.328117888032778e-11).transl(5.256632207792171e-08, 4e-08, 0))
hIsland = hIsland.add(rect(3.840665112410068e-09, 4.183932285377284e-09).transl(8.408162134003465e-08, 3.546917126142549e-08, 0))
hIsland = hIsland.sub(rect(5.2952694745953e-09, -5.436716264603497e-10).transl(-3.5311400139704757e-08, 4e-08, 0))
hIsland = hIsland.add(rect(9.389006650125363e-09, 2.2054471204214382e-09).transl(8.864755091643872e-08, 3.3622965034477e-08, 0))
hIsland = hIsland.add(rect(2.9635779511533607e-09, 5.586703593096646e-10).transl(1.7736893411368252e-08, 4e-08, 0))
hIsland = hIsland.add(rect(7.783472315116174e-09, 1.0648884469029916e-10).transl(-6.783056996189609e-08, 3.9349135385643087e-08, 0))
hIsland = hIsland.add(rect(2.2784894176684268e-09, 8.327365063230551e-10).transl(-3.078951963395739e-08, 4e-08, 0))
hIsland = hIsland.sub(rect(4.3669352587876835e-09, -1.900487079128331e-09).transl(2.0962386360365585e-08, 4e-08, 0))
hIsland = hIsland.sub(rect(7.471610034587982e-09, -2.037738489398945e-09).transl(-6.102491712569381e-08, 3.9924768325449455e-08, 0))
hIsland = hIsland.add(rect(2.358209570697258e-09, 8.429466976767633e-10).transl(-1.0732592226816118e-07, 1.996445955389047e-08, 0))
hIsland = hIsland.add(rect(9.528499598814329e-09, 2.4705217529450004e-09).transl(3.709079614412488e-08, 4e-08, 0))
hIsland = hIsland.sub(rect(6.814900723870312e-09, -8.73645215037601e-10).transl(-9.047388647632972e-08, 3.2769373395767605e-08, 0))
hIsland = hIsland.add(rect(9.224172072675879e-09, 6.251030506884998e-10).transl(5.960315681399762e-08, 3.997323403255738e-08, 0))
hIsland = hIsland.add(rect(6.510725645580459e-09, 1.4390555860722194e-10).transl(8.020700599487907e-08, 3.674888784654168e-08, 0))
hIsland = hIsland.sub(rect(8.456430222453874e-09, -3.865248313415768e-09).transl(-4.910545088978489e-08, 4e-08, 0))
hIsland = hIsland.sub(rect(4.62851766277311e-09, -8.454890858388346e-10).transl(1.1158763473386583e-07, 1.3574628064987544e-08, 0))
hIsland = hIsland.add(rect(5.273143447299063e-09, 3.249140578368462e-09).transl(-7.835705174310673e-08, 3.727575037696862e-08, 0))
hIsland = hIsland.sub(rect(6.379955990670403e-09, -2.665722347900239e-10).transl(7.248411568334139e-08, 3.861794657482858e-08, 0))
hIsland = hIsland.add(rect(8.885759122545814e-09, 2.3541396092947454e-09).transl(9.109381435676609e-08, 3.24632304159762e-08, 0))
hIsland = hIsland.add(rect(9.000566074819685e-09, 3.814780207054694e-10).transl(1.097874472744993e-07, 1.6641547950633053e-08, 0))
hIsland = hIsland.sub(rect(3.314936803040077e-09, -3.3953611013974527e-09).transl(6.548031662650703e-08, 3.961288394585033e-08, 0))
hIsland = hIsland.add(rect(2.961532555252319e-09, 5.115898945612595e-10).transl(9.6651972003617e-08, 2.9294912381975308e-08, 0))
hIsland = hIsland.sub(rect(6.252171965722352e-09, -1.104317865534242e-09).transl(1.1284422836445227e-08, 4e-08, 0))
hIsland = hIsland.add(rect(7.461060269733305e-09, 4.365662526729478e-09).transl(6.849395462586475e-08, 3.926205010963344e-08, 0))
hIsland = hIsland.sub(rect(2.3101919671419857e-09, -2.0749446045958404e-09).transl(1.1244150973466385e-07, 1.1799058793277165e-08, 0))
hIsland = hIsland.add(rect(5.62191531027073e-09, 1.743336794874058e-09).transl(-1.1086054699510242e-07, 1.4902259901579695e-08, 0))
hIsland = hIsland.sub(rect(5.192987955067346e-09, -1.9079152194945467e-09).transl(-9.429329441488677e-08, 3.0738881139185354e-08, 0))
hIsland = hIsland.sub(rect(4.211949051097641e-09, -3.136288110198257e-09).transl(7.304704862670294e-08, 3.851010854513753e-08, 0))
hIsland = hIsland.sub(rect(9.45842358112354e-09, -1.6862853553403863e-09).transl(4.236931674576961e-09, 4e-08, 0))
hIsland = hIsland.add(rect(3.631898517973662e-09, 3.515108414590184e-11).transl(1.1450992374330426e-07, 5.211293586048429e-09, 0))
hIsland = hIsland.add(rect(4.0580770710944965e-09, 1.6851531403041895e-09).transl(-3.942375390571485e-08, 4e-08, 0))
hIsland = hIsland.add(rect(6.416015210774842e-09, 1.0055467354548903e-09).transl(-4.474489961446851e-08, 4e-08, 0))
hIsland = hIsland.sub(rect(9.940733907897496e-09, -3.893787269499744e-09).transl(-9.250968183307128e-08, 3.173098399188878e-08, 0))
vIsland = hIsland.rotz(pi / 2)
vIslands = vIslands.add(vIsland.transl(0, -a/2, 0))
DefRegion(1, hIslands)
DefRegion(2, vIslands)
TableAdd(m_full.Region(1))
TableAdd(m_full.Region(2))
setgeom(hIslands.add(vIslands))
save(geom)
r2o2 := sqrt(2) / 2
m = RandomMagSeed(4)
B_ext = vector(Bmax*r2o2, Bmax*r2o2, 0)
relax()
minimize()
for B := Bmax; B >= -Bmax; B -= Bstep {
	B_ext = vector(B*r2o2, B*r2o2, 0)
	minimize()
	tablesave()
}
//********************************************************************//
//Please cite the following references, relevant for your simulation. //
//See bibtex file in output folder for justification.                 //
//********************************************************************//
//   * Vansteenkiste et al., AIP Adv. 4, 107133 (2014).
//   * Exl et al., J. Appl. Phys. 115, 17D118 (2014).
