//mumax 3.10 [windows_amd64 go1.11.6(gc) CUDA-11.0]
//GPU info: NVIDIA GeForce RTX 3090(24575MB), CUDA Driver 12.0, cc=8.6, using cc=80 PTX
//(c) Arne Vansteenkiste, Dynamat LAB, Ghent University, Belgium
//This is free software without any warranty. See license.txt
//********************************************************************//
//  If you use mumax in any work or publication,                      //
//  we kindly ask you to cite the references in references.bib        //
//********************************************************************//
//output directory: r1;p0.1;a5.12e-07;l1.8000000000000002e-07;s0.out/
randSeed(0)
ThermSeed(0)
resolution := 2e-09
zResolution := 5e-09
a := 5.12e-07
gridSize := 512
gridDepth := 5
SetCellsize(resolution, resolution, zResolution)
SetGridsize(gridSize, gridSize, gridDepth)
SetPBC(16, 16, 0)
//resizing...
Msat = 700e3
Aex = 13e-12
alpha = 0.2
Bmax := 0.1
Bstep := Bmax / 500.0
TableAdd(B_ext)
TableAdd(m_full)
islandWidth := 8e-08
islandLength := 1.8000000000000002e-07
ellipseConstant := 9.000000000000001e-09
hIsland := rect(islandLength-2*ellipseConstant, islandWidth)
hIsland = hIsland.add(ellipse(ellipseConstant*2, islandWidth).transl(islandLength/2-ellipseConstant, 0, 0))
hIsland = hIsland.add(ellipse(ellipseConstant*2, islandWidth).transl(-islandLength/2+ellipseConstant, 0, 0))
hIsland = hIsland.sub(rect(1e-08, -2.860551474228992e-09).transl(-3.999809805377257e-08, -4e-08, 0))
hIsland = hIsland.sub(rect(1e-08, -4.424030277284604e-09).transl(-6.503051136955424e-08, -4e-08, 0))
hIsland = hIsland.sub(rect(1e-08, -2.0759621726505724e-09).transl(-8.942917159073631e-08, -1.401872912569946e-08, 0))
hIsland = hIsland.add(rect(1e-08, 2.6576407961261657e-09).transl(-4.875617964193258e-08, -4e-08, 0))
hIsland = hIsland.sub(rect(1e-08, -7.3065321182954495e-09).transl(4.499066583624695e-08, -4e-08, 0))
hIsland = hIsland.sub(rect(1e-08, -1.1133140452087925e-09).transl(3.5406599918133285e-08, -4e-08, 0))
hIsland = hIsland.sub(rect(1e-08, -5.61239658554185e-09).transl(8.504425926229356e-08, -3.573398756154908e-08, 0))
hIsland = hIsland.add(rect(1e-08, 7.337714114063047e-10).transl(-3.719454730223997e-08, -4e-08, 0))
hIsland = hIsland.sub(rect(1e-08, -4.3811789302657474e-09).transl(-5.92776032054263e-08, -4e-08, 0))
hIsland = hIsland.add(rect(1e-08, 3.952684426456866e-09).transl(-1.3877392663500924e-08, -4e-08, 0))
hIsland = hIsland.sub(rect(1e-08, -1.3277599297568096e-09).transl(2.754875741102661e-08, -4e-08, 0))
hIsland = hIsland.sub(rect(1e-08, -1.900640428353944e-09).transl(7.910948131477951e-08, -4e-08, 0))
hIsland = hIsland.sub(rect(1e-08, -2.9624347996858045e-09).transl(-6.332600283519618e-08, -4e-08, 0))
hIsland = hIsland.add(rect(1e-08, 9.704860329514962e-10).transl(-6.037731232280398e-08, -4e-08, 0))
hIsland = hIsland.add(rect(1e-08, 1.4808752946851434e-09).transl(3.4157519833975705e-08, -4e-08, 0))
hIsland = hIsland.add(rect(1e-08, 2.7945286350581786e-09).transl(-3.7049678293424066e-08, -4e-08, 0))
hIsland = hIsland.add(rect(1e-08, 2.4836499910024316e-09).transl(-5.7583166449292136e-08, -4e-08, 0))
hIsland = hIsland.sub(rect(1e-08, -3.2219103600548235e-09).transl(-1.4271722023742606e-08, -4e-08, 0))
hIsland = hIsland.add(rect(1e-08, 2.5961479532943545e-09).transl(1.0938599943919346e-08, -4e-08, 0))
hIsland = hIsland.sub(rect(1e-08, -4.562437899462697e-09).transl(2.5913181802418183e-08, -4e-08, 0))
hIsland = hIsland.sub(rect(1e-08, -4.998846862429577e-09).transl(7.696656983779629e-08, -4e-08, 0))
hIsland = hIsland.add(rect(1e-08, 2.4824709992653382e-09).transl(-9.041292517313668e-09, -4e-08, 0))
hIsland = hIsland.sub(rect(1e-08, -1.6461405309851706e-09).transl(-7.561031234391799e-08, -4e-08, 0))
hIsland = hIsland.sub(rect(1e-08, -4.018236290311862e-09).transl(1.513432941291044e-08, -4e-08, 0))
hIsland = hIsland.add(rect(1e-08, 3.2227750158897342e-09).transl(-8.432015949080175e-09, -4e-08, 0))
hIsland = hIsland.add(rect(1e-08, 6.496844327741087e-10).transl(6.053391426064994e-08, -4e-08, 0))
hIsland = hIsland.add(rect(1e-08, 2.2443943919877033e-09).transl(7.638681488425101e-08, -4e-08, 0))
hIsland = hIsland.sub(rect(1e-08, -2.700585982240561e-10).transl(7.491045105412201e-08, -4e-08, 0))
hIsland = hIsland.sub(rect(1e-08, -1.6609362087451982e-09).transl(9.647407601444573e-09, -4e-08, 0))
hIsland = hIsland.sub(rect(1e-08, -4.167513995721525e-09).transl(4.019468495707948e-08, -4e-08, 0))
hIsland = hIsland.add(rect(1e-08, 1.9033745891358355e-09).transl(-8.386533109596833e-09, -4e-08, 0))
hIsland = hIsland.add(rect(1e-08, 9.293333754918666e-10).transl(6.512428766984073e-08, -4e-08, 0))
hIsland = hIsland.sub(rect(1e-08, -1.1155943888697913e-08).transl(-2.8230835070947844e-08, -4e-08, 0))
hIsland = hIsland.sub(rect(1e-08, -3.1078576735104285e-10).transl(4.720990616891395e-08, -4e-08, 0))
hIsland = hIsland.add(rect(1e-08, 6.824795474762811e-10).transl(-3.961836292985862e-08, -4e-08, 0))
hIsland = hIsland.add(rect(1e-08, 1.421322106838518e-09).transl(1.0820877661999823e-08, -4e-08, 0))
hIsland = hIsland.add(rect(1e-08, 5.5675166710867566e-09).transl(3.952924527314531e-08, -4e-08, 0))
hIsland = hIsland.sub(rect(1e-08, -2.0508996745511295e-09).transl(3.889456172131063e-08, -4e-08, 0))
hIsland = hIsland.sub(rect(1e-08, -1.2441343494994092e-09).transl(3.706142620305757e-08, -4e-08, 0))
hIsland = hIsland.sub(rect(1e-08, -7.402950407271713e-09).transl(-1.0296386033458687e-08, -4e-08, 0))
hIsland = hIsland.add(rect(1e-08, 7.82432502259884e-09).transl(2.7669302091222065e-08, -4e-08, 0))
hIsland = hIsland.sub(rect(1e-08, -4.491974938644946e-09).transl(8.90957533762776e-08, -1.747451182058325e-08, 0))
hIsland = hIsland.sub(rect(1e-08, -4.3475602461780996e-09).transl(8.859186681073803e-08, -2.148260660921327e-08, 0))
hIsland = hIsland.sub(rect(1e-08, -7.246174832837549e-09).transl(4.900718137524079e-08, -4e-08, 0))
hIsland = hIsland.add(rect(1e-08, 4.251545248428376e-09).transl(5.53796411930714e-09, -4e-08, 0))
hIsland = hIsland.add(rect(1e-08, 3.630981609991751e-09).transl(7.099659676071606e-08, -4e-08, 0))
hIsland = hIsland.add(rect(1e-08, 4.872383654040155e-09).transl(-2.8122930416934542e-08, -4e-08, 0))
hIsland = hIsland.sub(rect(1e-08, -1.2098391798009646e-10).transl(-4.372161639965386e-08, -4e-08, 0))
hIsland = hIsland.add(rect(1e-08, 3.980012802703078e-09).transl(7.740840298072646e-08, -4e-08, 0))
hIsland = hIsland.sub(rect(1e-08, -9.075381695589556e-10).transl(8.671394980266146e-09, -4e-08, 0))
hIsland = hIsland.sub(rect(1e-08, -9.790116709469585e-09).transl(8.4521031201173e-08, -3.681179072528662e-08, 0))
hIsland = hIsland.sub(rect(1e-08, -3.581093621838866e-09).transl(-7.335669302296294e-08, -4e-08, 0))
hIsland = hIsland.sub(rect(1e-08, -1.534518496492933e-09).transl(5.837431455392272e-08, -4e-08, 0))
hIsland = hIsland.add(rect(1e-08, 3.922826226937525e-10).transl(1.839869685431522e-08, -4e-08, 0))
hIsland = hIsland.add(rect(1e-08, 5.061058126823527e-09).transl(-5.271431566101523e-08, -4e-08, 0))
hIsland = hIsland.sub(rect(1e-08, -2.1171969817151353e-09).transl(-2.5664030332356194e-08, -4e-08, 0))
hIsland = hIsland.sub(rect(1e-08, -1.405567081262453e-09).transl(-4.2301106872666444e-08, -4e-08, 0))
hIsland = hIsland.sub(rect(1e-08, -1.7764847268774513e-09).transl(-7.919744182229484e-08, -4e-08, 0))
hIsland = hIsland.add(rect(1e-08, 8.43862801621573e-09).transl(4.8209803720318016e-08, -4e-08, 0))
hIsland = hIsland.sub(rect(1e-08, -2.6046769427738953e-09).transl(4.6086776989326954e-08, -4e-08, 0))
hIsland = hIsland.sub(rect(1e-08, -7.1880348737794614e-09).transl(-8.629230314792772e-09, -4e-08, 0))
hIsland = hIsland.sub(rect(1e-08, -4.5419303025181085e-09).transl(-1.0938929408913093e-08, -4e-08, 0))
hIsland = hIsland.add(rect(1e-08, 3.866031602673978e-09).transl(-8.491046521988381e-08, -3.602694787402358e-08, 0))
hIsland = hIsland.sub(rect(1e-08, -1.9587584050176825e-10).transl(-6.732174629611843e-08, -4e-08, 0))
hIsland = hIsland.sub(rect(1e-08, -2.53878618074177e-09).transl(-7.508769095100566e-08, -4e-08, 0))
hIsland = hIsland.sub(rect(1e-08, -2.481925012398051e-09).transl(-3.5010818094397094e-08, -4e-08, 0))
hIsland = hIsland.add(rect(1e-08, 7.673758914021508e-09).transl(2.926880460412981e-08, -4e-08, 0))
hIsland = hIsland.add(rect(1e-08, 6.224798132837532e-10).transl(-1.155872015257457e-08, -4e-08, 0))
hIsland = hIsland.sub(rect(1e-08, -4.2611146769952504e-09).transl(7.243005630185672e-08, -4e-08, 0))
hIsland = hIsland.sub(rect(1e-08, -3.812453142720299e-09).transl(-6.232880002269915e-08, -4e-08, 0))
hIsland = hIsland.add(rect(1e-08, 6.731791145930323e-10).transl(3.433737443399184e-08, -4e-08, 0))
hIsland = hIsland.sub(rect(1e-08, -6.161459735607529e-09).transl(-3.399282861544309e-08, -4e-08, 0))
hIsland = hIsland.add(rect(1e-08, 4.214821998708366e-09).transl(8.193396495091301e-08, -3.9784036620068906e-08, 0))
hIsland = hIsland.add(rect(1e-08, 2.8325243192938246e-09).transl(-1.8432517633912786e-08, -4e-08, 0))
hIsland = hIsland.sub(rect(1e-08, -1.5149541705430428e-09).transl(7.97401308228187e-08, -4e-08, 0))
hIsland = hIsland.sub(rect(1e-08, -2.2056785132873435e-09).transl(-6.781294355874404e-08, -4e-08, 0))
hIsland = hIsland.add(rect(1e-08, 3.571342199137471e-09).transl(3.2832718534624243e-09, -4e-08, 0))
hIsland = hIsland.sub(rect(1e-08, -2.9560272611964745e-09).transl(3.253690313504536e-08, -4e-08, 0))
hIsland = hIsland.sub(rect(1e-08, -6.9969981322885435e-09).transl(1.6535177916261482e-08, -4e-08, 0))
hIsland = hIsland.add(rect(1e-08, 5.153872680992438e-09).transl(6.52880512848603e-08, -4e-08, 0))
hIsland = hIsland.add(rect(1e-08, 7.015395965753787e-10).transl(-3.162676035280014e-08, -4e-08, 0))
hIsland = hIsland.sub(rect(1e-08, -4.2054016671326e-09).transl(-1.111999582791215e-08, -4e-08, 0))
hIsland = hIsland.sub(rect(1e-08, -2.1593381269753093e-09).transl(6.143396200265946e-08, -4e-08, 0))
hIsland = hIsland.add(rect(1e-08, 8.943466454404184e-09).transl(-8.044268498932451e-08, -4e-08, 0))
hIsland = hIsland.add(rect(1e-08, 9.365705131344308e-11).transl(7.819432603794965e-08, -4e-08, 0))
hIsland = hIsland.sub(rect(1e-08, -3.1238321667555345e-09).transl(7.467661916401027e-08, -4e-08, 0))
hIsland = hIsland.sub(rect(1e-08, -7.988516622109098e-09).transl(2.4074478566980265e-08, -4e-08, 0))
hIsland = hIsland.sub(rect(1e-08, -1.1739234711602792e-08).transl(-3.395501253493118e-08, -4e-08, 0))
hIsland = hIsland.add(rect(1e-08, 1.790115942168957e-09).transl(-2.8671061149821628e-08, -4e-08, 0))
hIsland = hIsland.add(rect(1e-08, 1.6612028448566043e-09).transl(8.696915142812413e-08, -2.993630480281242e-08, 0))
hIsland = hIsland.sub(rect(1e-08, -3.739254620735013e-09).transl(-1.7453278761847393e-09, -4e-08, 0))
hIsland = hIsland.sub(rect(1e-08, -1.2827298299848711e-09).transl(7.91851749280399e-08, -4e-08, 0))
hIsland = hIsland.add(rect(1e-08, 2.4154149635484715e-09).transl(5.508082556968478e-08, -4e-08, 0))
hIsland = hIsland.sub(rect(1e-08, -3.294056663459289e-09).transl(5.57128298578084e-08, -4e-08, 0))
hIsland = hIsland.add(rect(1e-08, 7.657892057418122e-09).transl(2.1098816940753096e-08, -4e-08, 0))
hIsland = hIsland.sub(rect(1e-08, -2.1830566357778055e-09).transl(-4.1955841279323945e-08, -4e-08, 0))
hIsland = hIsland.add(rect(1e-08, 5.865744163595052e-09).transl(-1.189210859840025e-10, -4e-08, 0))
hIsland = hIsland.sub(rect(1e-08, -7.663634166434686e-09).transl(9.08768815807333e-10, -4e-08, 0))
hIsland = hIsland.sub(rect(1e-08, -4.1542632468427234e-09).transl(3.351128071938638e-08, -4e-08, 0))
hIsland = hIsland.add(rect(1e-08, 4.547309643915653e-09).transl(-3.675258431434811e-08, -4e-08, 0))
hIsland = hIsland.sub(rect(1e-08, -1.1348986838085654e-08).transl(-5.7293349590343256e-08, 4e-08, 0))
hIsland = hIsland.add(rect(1e-08, 3.809277073747007e-09).transl(-2.2434862675466508e-09, 4e-08, 0))
hIsland = hIsland.sub(rect(1e-08, -1.4362113529076564e-09).transl(7.720252719595412e-08, 4e-08, 0))
hIsland = hIsland.add(rect(1e-08, 4.585589180597713e-09).transl(1.152951227849775e-08, 4e-08, 0))
hIsland = hIsland.sub(rect(1e-08, -3.6525325924840202e-09).transl(-3.7577659548080346e-08, 4e-08, 0))
hIsland = hIsland.add(rect(1e-08, 1.5256969319215914e-09).transl(6.159053698343746e-08, 4e-08, 0))
hIsland = hIsland.add(rect(1e-08, 1.057034852870536e-09).transl(7.756515125510008e-08, 4e-08, 0))
hIsland = hIsland.sub(rect(1e-08, -1.0200000838993078e-09).transl(-6.851590977293084e-09, 4e-08, 0))
hIsland = hIsland.sub(rect(1e-08, -6.550893537110211e-09).transl(2.2058992648523242e-08, 4e-08, 0))
hIsland = hIsland.sub(rect(1e-08, -2.6485000218161013e-09).transl(-8.792093900249409e-08, 2.557027723745138e-08, 0))
hIsland = hIsland.add(rect(1e-08, 5.157202746887196e-09).transl(-4.259910697560224e-08, 4e-08, 0))
hIsland = hIsland.add(rect(1e-08, 9.036477768042037e-10).transl(5.5988578938774176e-08, 4e-08, 0))
hIsland = hIsland.sub(rect(1e-08, -3.4991057727510306e-10).transl(5.6153122532790876e-08, 4e-08, 0))
hIsland = hIsland.sub(rect(1e-08, -3.31385770295142e-10).transl(9.604101631664835e-09, 4e-08, 0))
hIsland = hIsland.sub(rect(1e-08, -1.816691079199274e-09).transl(6.528513539375976e-08, 4e-08, 0))
hIsland = hIsland.add(rect(1e-08, 6.200082884833089e-09).transl(3.6719539499108654e-08, 4e-08, 0))
hIsland = hIsland.add(rect(1e-08, 4.978762191547222e-09).transl(4.613561024942034e-08, 4e-08, 0))
hIsland = hIsland.add(rect(1e-08, 6.975398079268128e-09).transl(-4.6895859273285575e-08, 4e-08, 0))
hIsland = hIsland.sub(rect(1e-08, -3.605053753714888e-09).transl(-2.4042760005350193e-08, 4e-08, 0))
hIsland = hIsland.add(rect(1e-08, 6.773347333853795e-09).transl(-4.547353984422317e-08, 4e-08, 0))
hIsland = hIsland.sub(rect(1e-08, -9.921828754069461e-09).transl(8.462535905255253e-08, 3.661120970887429e-08, 0))
hIsland = hIsland.add(rect(1e-08, 1.1160643084293533e-09).transl(-2.1445057069662358e-08, 4e-08, 0))
hIsland = hIsland.add(rect(1e-08, 8.944936497325513e-09).transl(-4.245156769056123e-08, 4e-08, 0))
hIsland = hIsland.add(rect(1e-08, 3.2598317420465946e-10).transl(-8.013409477076314e-08, 4e-08, 0))
hIsland = hIsland.add(rect(1e-08, 2.1325546609280827e-09).transl(-2.09869005109063e-08, 4e-08, 0))
hIsland = hIsland.sub(rect(1e-08, -1.9670422116550783e-10).transl(-2.790915692888534e-08, 4e-08, 0))
hIsland = hIsland.add(rect(1e-08, 3.463785141979951e-09).transl(7.497119463127474e-08, 4e-08, 0))
hIsland = hIsland.sub(rect(1e-08, -4.926272116499687e-09).transl(-1.5800425853547427e-09, 4e-08, 0))
hIsland = hIsland.add(rect(1e-08, 2.3986636539182135e-09).transl(-8.456071107375794e-08, 3.6736320816666434e-08, 0))
hIsland = hIsland.sub(rect(1e-08, -1.7407100964283478e-09).transl(4.707282186976207e-08, 4e-08, 0))
hIsland = hIsland.add(rect(1e-08, 4.370743688385426e-09).transl(3.9206210618870734e-08, 4e-08, 0))
hIsland = hIsland.sub(rect(1e-08, -4.35157711912196e-09).transl(-4.5161763791908445e-09, 4e-08, 0))
hIsland = hIsland.add(rect(1e-08, 6.484875927498985e-09).transl(-3.7406793872596755e-08, 4e-08, 0))
hIsland = hIsland.add(rect(1e-08, 3.7079177345351074e-10).transl(-8.928213932064066e-08, 1.5654395997431693e-08, 0))
hIsland = hIsland.add(rect(1e-08, 1.5548868649960541e-09).transl(2.9203299270701367e-08, 4e-08, 0))
hIsland = hIsland.add(rect(1e-08, 7.534316930375955e-09).transl(8.98351114359296e-08, 7.621679170426524e-09, 0))
hIsland = hIsland.sub(rect(1e-08, -1.9544324462947195e-10).transl(-1.8576207606957661e-10, 4e-08, 0))
hIsland = hIsland.add(rect(1e-08, 2.2436515235160852e-10).transl(2.999525161914398e-08, 4e-08, 0))
hIsland = hIsland.add(rect(1e-08, 1.5996729063401423e-09).transl(2.479211284840335e-08, 4e-08, 0))
hIsland = hIsland.sub(rect(1e-08, -8.686890009635466e-09).transl(4.669179969529188e-08, 4e-08, 0))
hIsland = hIsland.add(rect(1e-08, 5.885612137816727e-09).transl(-4.602739948702627e-09, 4e-08, 0))
hIsland = hIsland.sub(rect(1e-08, -9.021007291517146e-10).transl(5.61838038226358e-08, 4e-08, 0))
hIsland = hIsland.add(rect(1e-08, 5.321387349827832e-10).transl(-6.085195100806364e-08, 4e-08, 0))
hIsland = hIsland.sub(rect(1e-08, -2.0344525140769044e-09).transl(5.071772593018707e-08, 4e-08, 0))
hIsland = hIsland.add(rect(1e-08, 4.124574669702421e-09).transl(-3.448372652975399e-08, 4e-08, 0))
hIsland = hIsland.add(rect(1e-08, 4.569009920807839e-09).transl(-4.098441170401853e-11, 4e-08, 0))
hIsland = hIsland.add(rect(1e-08, 3.1574830346112004e-09).transl(2.4581811112421817e-08, 4e-08, 0))
hIsland = hIsland.add(rect(1e-08, 7.0699745883015344e-09).transl(-4.868467916006735e-09, 4e-08, 0))
hIsland = hIsland.sub(rect(1e-08, -3.378721743086528e-09).transl(4.136886736647113e-08, 4e-08, 0))
hIsland = hIsland.sub(rect(1e-08, -4.563763294501526e-09).transl(-6.240103566888594e-08, 4e-08, 0))
hIsland = hIsland.add(rect(1e-08, 3.968892944363335e-09).transl(-5.830452736379505e-08, 4e-08, 0))
hIsland = hIsland.add(rect(1e-08, 1.6117151192247947e-09).transl(6.37908774429905e-08, 4e-08, 0))
hIsland = hIsland.sub(rect(1e-08, -2.235253924487932e-09).transl(-5.213945431245625e-08, 4e-08, 0))
hIsland = hIsland.sub(rect(1e-08, -1.4427052252036562e-09).transl(-3.777240445546254e-08, 4e-08, 0))
hIsland = hIsland.sub(rect(1e-08, -4.175224179779732e-09).transl(-5.726483793887738e-08, 4e-08, 0))
hIsland = hIsland.sub(rect(1e-08, -1.7664193905354962e-09).transl(-6.434532119820157e-08, 4e-08, 0))
hIsland = hIsland.sub(rect(1e-08, -2.931388472422539e-09).transl(5.0770917901717806e-08, 4e-08, 0))
hIsland = hIsland.add(rect(1e-08, 3.565197902487219e-09).transl(4.1729687832013855e-08, 4e-08, 0))
hIsland = hIsland.add(rect(1e-08, 1.5570328221215318e-09).transl(3.108064652000909e-09, 4e-08, 0))
hIsland = hIsland.sub(rect(1e-08, -2.8827419855377745e-09).transl(-6.654323784593088e-09, 4e-08, 0))
hIsland = hIsland.add(rect(1e-08, 1.2576001297090089e-09).transl(-4.546613301539354e-08, 4e-08, 0))
hIsland = hIsland.add(rect(1e-08, 3.3853589893706845e-09).transl(6.828938706755242e-08, 4e-08, 0))
hIsland = hIsland.sub(rect(1e-08, -3.7128270913702404e-09).transl(5.4240444070883036e-08, 4e-08, 0))
hIsland = hIsland.sub(rect(1e-08, -4.604542889772262e-09).transl(-4.3939939065181765e-08, 4e-08, 0))
hIsland = hIsland.sub(rect(1e-08, -5.021855929878633e-09).transl(-2.5230252834403775e-08, 4e-08, 0))
hIsland = hIsland.sub(rect(1e-08, -3.519413972460328e-09).transl(5.408862873851098e-08, 4e-08, 0))
hIsland = hIsland.add(rect(1e-08, 4.417405536747584e-09).transl(-7.358603511826809e-08, 4e-08, 0))
hIsland = hIsland.add(rect(1e-08, 1.3919873023640653e-09).transl(5.1474670354706214e-08, 4e-08, 0))
hIsland = hIsland.sub(rect(1e-08, -5.464194919267148e-09).transl(-4.9858860846613333e-08, 4e-08, 0))
hIsland = hIsland.add(rect(1e-08, 4.692938947130505e-10).transl(-5.5139430136785114e-08, 4e-08, 0))
hIsland = hIsland.add(rect(1e-08, 5.590528063518254e-10).transl(4.6016289608885104e-08, 4e-08, 0))
hIsland = hIsland.sub(rect(1e-08, -2.360067115151007e-09).transl(2.554740409559813e-08, 4e-08, 0))
hIsland = hIsland.sub(rect(1e-08, -1.2788313512066574e-09).transl(-3.377994852189848e-08, 4e-08, 0))
hIsland = hIsland.add(rect(1e-08, 2.8879210021058343e-09).transl(-2.1797541504487328e-08, 4e-08, 0))
hIsland = hIsland.add(rect(1e-08, 5.107938163456776e-10).transl(1.6665270684730897e-08, 4e-08, 0))
hIsland = hIsland.sub(rect(1e-08, -7.789195507019998e-09).transl(6.011433949364534e-08, 4e-08, 0))
hIsland = hIsland.sub(rect(1e-08, -4.058181567225627e-09).transl(-3.601987354775641e-08, 4e-08, 0))
hIsland = hIsland.add(rect(1e-08, 7.572013011754652e-09).transl(5.568740803758215e-08, 4e-08, 0))
hIsland = hIsland.add(rect(1e-08, 9.770831070721202e-11).transl(4.258048382821387e-08, 4e-08, 0))
hIsland = hIsland.sub(rect(1e-08, -1.3065860255846692e-09).transl(-7.726712717472959e-08, 4e-08, 0))
hIsland = hIsland.sub(rect(1e-08, -4.295119843683595e-09).transl(-6.782272608084492e-08, 4e-08, 0))
hIsland = hIsland.sub(rect(1e-08, -5.989049268629853e-10).transl(-1.905410342489839e-09, 4e-08, 0))
hIsland = hIsland.sub(rect(1e-08, -6.1499454630026535e-09).transl(6.141792888148123e-08, 4e-08, 0))
hIsland = hIsland.sub(rect(1e-08, -8.506611250708421e-10).transl(8.547939813716921e-08, 3.4693719452608395e-08, 0))
hIsland = hIsland.sub(rect(1e-08, -4.022031399588081e-09).transl(-1.1048101314875607e-08, 4e-08, 0))
hIsland = hIsland.add(rect(1e-08, 8.454171205395659e-09).transl(-2.4925410033256973e-08, 4e-08, 0))
hIsland = hIsland.sub(rect(1e-08, -3.0880079259537886e-09).transl(7.915270941023087e-09, 4e-08, 0))
hIsland = hIsland.add(rect(1e-08, 2.5023318293098924e-09).transl(8.3629061562786e-08, 3.825529197290841e-08, 0))
hIsland = hIsland.add(rect(1e-08, 6.554731275704064e-10).transl(-6.075233556836526e-08, 4e-08, 0))
hIsland = hIsland.sub(rect(1e-08, -8.215919905655805e-10).transl(8.445128578807029e-09, 4e-08, 0))
hIsland = hIsland.add(rect(1e-08, 8.421011325024728e-09).transl(-2.205617318607285e-08, 4e-08, 0))
hIsland = hIsland.sub(rect(1e-08, -4.205949047336645e-09).transl(8.753842566974525e-08, 2.7487007844099016e-08, 0))
hIsland = hIsland.sub(rect(1e-08, -9.7523773725145e-10).transl(6.21233194259635e-08, 4e-08, 0))
hIsland = hIsland.sub(rect(1e-08, -1.6042011685482233e-09).transl(3.714416085998202e-08, 4e-08, 0))
hIsland = hIsland.sub(rect(1e-08, -5.400780275216285e-09).transl(7.128923757516278e-08, 4e-08, 0))
hIsland = hIsland.add(rect(1e-08, 2.08798138249784e-09).transl(7.785027419661571e-08, 4e-08, 0))
hIsland = hIsland.add(rect(1e-08, 2.1744582190461577e-09).transl(-6.211565115624487e-08, 4e-08, 0))
hIsland = hIsland.add(rect(1e-08, 3.1931428299056063e-09).transl(8.686945646564789e-08, 3.032319107539395e-08, 0))
hIsland = hIsland.add(rect(1e-08, 1.137639436823873e-09).transl(6.676243049304033e-08, 4e-08, 0))
hIsland = hIsland.add(rect(1e-08, 9.209812741749878e-10).transl(6.676014112120497e-08, 4e-08, 0))
vIsland := hIsland.rotz(pi / 2)
vIslands := Universe().Inverse()
hIslands := Universe().Inverse()
hIslands = hIslands.add(hIsland.transl(-a/2, a, 0))
hIslands = hIslands.add(hIsland.transl(-a/2, -a, 0))
hIslands = hIslands.add(hIsland.transl(a/2, a, 0))
hIslands = hIslands.add(hIsland.transl(a/2, -a, 0))
hIslands = hIslands.add(hIsland.transl(-a/2, 0, 0))
hIslands = hIslands.add(hIsland.transl(a/2, 0, 0))
vIslands = vIslands.add(vIsland.transl(-a, a/2, 0))
vIslands = vIslands.add(vIsland.transl(a, a/2, 0))
vIslands = vIslands.add(vIsland.transl(-a, -a/2, 0))
vIslands = vIslands.add(vIsland.transl(a, -a/2, 0))
vIslands = vIslands.add(vIsland.transl(0, a/2, 0))
vIslands = vIslands.add(vIsland.transl(0, -a/2, 0))
DefRegion(1, hIslands)
DefRegion(2, vIslands)
TableAdd(m_full.Region(1))
TableAdd(m_full.Region(2))
setgeom(hIslands.add(vIslands))
save(m)
r2o2 := sqrt(2) / 2
m = RandomMagSeed(4)
B_ext = vector(Bmax*r2o2, Bmax*r2o2, 0)
relax()
minimize()
for B := Bmax; B >= -Bmax; B -= Bstep {
	B_ext = vector(B*r2o2, B*r2o2, 0)
	minimize()
	tablesave()
}
//********************************************************************//
//Please cite the following references, relevant for your simulation. //
//See bibtex file in output folder for justification.                 //
//********************************************************************//
//   * Vansteenkiste et al., AIP Adv. 4, 107133 (2014).
//   * Exl et al., J. Appl. Phys. 115, 17D118 (2014).
