# t (s)	mx ()	my ()	mz ()	B_extx (T)	B_exty (T)	B_extz (T)	m_fullx (A/m)	m_fully (A/m)	m_fullz (A/m)	m_full.region1x (A/m)	m_full.region1y (A/m)	m_full.region1z (A/m)	m_full.region2x (A/m)	m_full.region2y (A/m)	m_full.region2z (A/m)
0	0.6361466	0.63614476	-1.9283855e-10	0.07071087	0.07071087	0	83271.59	83271.36	-2.21875e-05	658582.25	232020.95	-0.00022393047	232022.94	658581.75	-5.3475935e-05
0	0.63584334	0.63584065	-2.3746236e-10	0.070357256	0.070357256	0	83231.9	83231.54	-2.96875e-05	658813.9	231363.84	-0.0003342246	231366.78	658813	-2.6737967e-05
0	0.63553435	0.6355316	-1.9443226e-10	0.07000352	0.07000352	0	83191.45	83191.086	-2.578125e-05	659048.75	230696.44	-0.00015374331	230699.38	659047.8	-0.00012700535
0	0.63522327	0.63522047	5.418604e-11	0.06964992	0.06964992	0	83150.73	83150.37	6.875e-06	659283.8	230025.8	6.684492e-05	230028.73	659282.94	-6.684492e-06
0	0.6349113	0.6349086	-5.8010935e-10	0.069296576	0.069296576	0	83109.89	83109.53	-7.5e-05	659518.6	229354.2	-0.00032837567	229357.19	659517.75	-0.0004470254
0	0.6345975	0.63459474	-3.139603e-10	0.06894301	0.068943	0	83068.805	83068.445	-4.0625e-05	659753.56	228679.95	-0.00018549465	228682.89	659752.56	-0.00027072194
0	0.63428116	0.6342784	-2.693365e-10	0.06858927	0.06858927	0	83027.41	83027.05	-3.3125e-05	659989.2	228001.48	-0.00019217914	228004.47	659988.3	-0.00019301471
0	0.6339628	0.63396007	-3.4105332e-10	0.068235666	0.068235666	0	82985.734	82985.37	-4.4375e-05	660225.06	227319.81	-0.00029411764	227322.8	660224.2	-0.00019886364
0	0.6336432	0.6336404	-2.0558821e-10	0.06788232	0.06788232	0	82943.9	82943.53	-2.96875e-05	660460.8	226636.66	-0.00020053476	226639.64	660459.94	-0.00012032085
0	0.6333212	0.6333185	-1.7212036e-10	0.06752872	0.06752872	0	82901.75	82901.39	-1.875e-05	660697.2	225949.56	-0.00021306818	225952.58	660696.3	-3.7600268e-05
0	0.63299775	0.63299495	-4.063953e-10	0.067174986	0.06717499	0	82859.4	82859.03	-5.375e-05	660933.4	225260.39	-0.00035427808	225263.39	660932.56	-0.00022894386
0	0.63267213	0.6326693	-2.3268124e-10	0.06682176	0.06682176	0	82816.78	82816.42	-3.25e-05	661169.9	224568.17	-0.00026153075	224571.19	661169	-7.352941e-05
0	0.63234425	0.63234144	-9.721613e-11	0.06646817	0.066468164	0	82773.87	82773.49	-1.15625e-05	661406.8	223872.22	-6.684492e-05	223875.22	661405.94	-8.1885024e-05
0	0.63201517	0.6320124	-4.239261e-10	0.066114426	0.066114426	0	82730.8	82730.43	-5.5e-05	661643.5	223174.75	-0.00033255346	223177.77	661642.6	-0.00031500668
0	0.63168347	0.63168067	-3.2670996e-10	0.06576085	0.06576085	0	82687.35	82687	-4.53125e-05	661880.75	222473	-0.00028074867	222476.06	661879.94	-0.00022727273
0	0.63134956	0.63134676	-7.171682e-11	0.06540747	0.06540747	0	82643.67	82643.305	-7.8125e-06	662118.3	221768.2	3.425802e-05	221771.22	662117.44	-0.000119485296
0	0.63101554	0.6310127	-1.4662105e-10	0.06505392	0.065053925	0	82599.93	82599.57	-1.625e-05	662355	221063.73	-0.00010695187	221066.78	662354	-8.1885024e-05
0	0.6306783	0.63067555	-4.3348833e-10	0.064700186	0.064700186	0	82555.79	82555.43	-5.375e-05	662592.2	220354.34	-0.0003342246	220357.39	662591.44	-0.0002824198
0	0.6303387	0.63033587	-1.0518467e-10	0.0643466	0.0643466	0	82511.336	82510.97	-1.0625e-05	662830.25	219640.84	-4.428476e-05	219643.86	662829.4	-7.937834e-05
0	0.6299983	0.6299955	-2.470246e-10	0.063993216	0.063993216	0	82466.77	82466.414	-3.25e-05	663067.6	218926.95	-0.00018048128	218930	663066.75	-0.0001453877
0	0.62965566	0.6296528	-3.5061556e-10	0.06363963	0.06363963	0	82421.93	82421.555	-4.28125e-05	663305.06	218209.77	-0.0002406417	218212.84	663304.25	-0.00026403743
0	0.6293101	0.6293073	-2.3268124e-10	0.0632859	0.0632859	0	82376.695	82376.33	-3.125e-05	663543.4	217487.66	-0.00020053476	217490.73	663542.56	-0.0001278409
0	0.62896323	0.62896043	-5.992339e-10	0.062932655	0.06293266	0	82331.3	82330.93	-8e-05	663781.25	216764.23	-0.00036096256	216767.3	663780.4	-0.0005180481
0	0.6286134	0.6286107	-2.7411762e-10	0.06257908	0.06257908	0	82285.5	82285.14	-3.875e-05	664019.9	216035.84	-0.00032837567	216038.92	664019.06	-9.358289e-05
0	0.6282618	0.62825906	-2.8527355e-10	0.062225346	0.062225346	0	82239.48	82239.11	-3.9375e-05	664258.4	215305.12	-0.00020220588	215308.2	664257.5	-0.00022393047
0	0.6279076	0.6279049	-3.9842676e-10	0.061871782	0.061871782	0	82193.1	82192.74	-5.1875e-05	664497.4	214570.2	-0.00029411764	214573.28	664496.56	-0.00028743315
0	0.6275534	0.6275506	-5.434541e-10	0.061518367	0.061518367	0	82146.74	82146.37	-7.21875e-05	664735.2	213836.44	-0.00035010028	213839.53	664734.4	-0.0004378342
0	0.6271958	0.627193	-5.4982896e-10	0.061164834	0.061164834	0	82099.93	82099.555	-7e-05	664973.9	213097.06	-0.00044451872	213100.14	664973.06	-0.00034007351
0	0.6268359	0.62683314	-4.4145687e-10	0.060811114	0.060811102	0	82052.82	82052.45	-6.109375e-05	665212.8	212354.33	-0.00040106953	212357.47	665211.94	-0.0002690508
0	0.6264735	0.6264707	-4.7811212e-12	0.06045754	0.06045754	0	82005.38	82005	-1.5625e-06	665451.9	211607.88	-9.608957e-05	211611	665451.06	8.0213904e-05
0	0.6261102	0.62610745	-3.5539668e-10	0.060104124	0.060104124	0	81957.836	81957.46	-4.84375e-05	665690.44	210860.84	-0.00020137032	210863.94	665689.56	-0.00032419787
0	0.62574327	0.62574047	-3.9364564e-10	0.059750553	0.059750553	0	81909.79	81909.42	-5.375e-05	665930	210107.47	-0.00030748663	210110.6	665929.1	-0.00026988637
0	0.62537503	0.62537223	-2.709302e-10	0.059396826	0.059396826	0	81861.586	81861.23	-3.515625e-05	666168.94	209352.95	-0.00020554813	209356.1	666168.2	-0.00016209894
0	0.6250021	0.62499934	-2.3905607e-11	0.05904356	0.05904356	0	81812.77	81812.414	-6.5625e-06	666409.5	208590.3	-0.00010528075	208593.4	666408.75	3.1751337e-05
0	0.624632	0.6246292	-8.9247595e-11	0.058689985	0.05868999	0	81764.33	81763.97	-1.1875e-05	666647.06	207834.62	-0.0002473262	207837.75	666646.3	8.0213904e-05
0	0.6242555	0.6242526	-2.9642952e-10	0.058336265	0.058336258	0	81715.05	81714.664	-4.4375e-05	666887.3	207067.22	-0.00028826873	207070.34	666886.44	-0.00015040107
0	0.62387943	0.62387663	-5.9604643e-10	0.057982713	0.057982713	0	81665.82	81665.45	-7.765625e-05	667126	206302.12	-0.00044117647	206305.27	667125.2	-0.00039187833
0	0.62349975	0.6234969	-5.7692195e-10	0.05762927	0.057629272	0	81616.12	81615.74	-7.1875e-05	667365.44	205531.03	-0.00056149735	205534.19	667364.7	-0.00022393047
0	0.6231174	0.62311447	-5.067988e-10	0.05727571	0.05727571	0	81566.06	81565.69	-6.421875e-05	667605.25	204755.89	-0.00035762033	204759.02	667604.44	-0.00034258023
0	0.6227332	0.6227304	-3.2192882e-10	0.056922022	0.056922026	0	81515.77	81515.4	-4.125e-05	667844.9	203978.42	-0.00013368984	203981.56	667844.06	-0.00030330883
0	0.6223459	0.62234306	-1.0518467e-10	0.05656847	0.05656847	0	81465.086	81464.71	-1.125e-05	668084.75	203196.48	-0.00016042781	203199.62	668083.94	4.5955883e-05
0	0.62195796	0.6219551	-3.5061554e-11	0.056215018	0.056215018	0	81414.3	81413.94	-5.3125e-06	668323.75	202414.23	-0.00010695187	202417.4	668322.94	7.018717e-05
0	0.62156683	0.621564	-1.5299588e-10	0.055861466	0.055861473	0	81363.1	81362.73	-2.125e-05	668563.4	201627.03	-0.00014204545	201630.22	668562.56	-5.514706e-05
0	0.6211732	0.6211704	-2.3268124e-10	0.05550775	0.05550775	0	81311.58	81311.2	-3.375e-05	668802.9	200836.42	-0.00020721926	200839.58	668802.2	-0.00014288102
0	0.6207772	0.6207744	-8.4466475e-11	0.055154454	0.055154447	0	81259.73	81259.37	-6.40625e-06	669042.5	200042.39	-0.00017296123	200045.55	669041.75	5.3475935e-05
0	0.62037885	0.620376	-3.8886452e-10	0.054800898	0.054800898	0	81207.57	81207.21	-5.1875e-05	669282.2	199244.94	-0.0003099933	199248.08	669281.44	-0.00024899733
0	0.6199774	0.6199746	-3.394596e-10	0.05444718	0.05444718	0	81155.04	81154.67	-4.265625e-05	669522.1	198443.03	-0.00018716577	198446.22	669521.44	-0.00029411764
0	0.61957467	0.6195718	-2.1196304e-10	0.05409365	0.05409365	0	81102.32	81101.96	-2.515625e-05	669761.44	197639.88	-0.0002473262	197643.06	669760.75	-5.1804815e-05
0	0.6191687	0.619166	-2.8686728e-10	0.053740162	0.053740162	0	81049.19	81048.83	-3.8125e-05	670001.06	196832	-0.00023729946	196835.19	670000.3	-0.00020889037
0	0.6187582	0.61875534	-1.800889e-10	0.05338662	0.05338662	0	80995.445	80995.086	-1.9375e-05	670241.94	196016.36	-8.0213904e-05	196019.53	670241.2	-0.00016627673
0	0.61834973	0.6183469	-6.04015e-10	0.053032946	0.053032946	0	80941.984	80941.62	-7.71875e-05	670480.1	195206.25	-0.00047627004	195209.42	670479.5	-0.00041443852
0	0.6179369	0.6179341	-7.3310524e-11	0.05267941	0.05267941	0	80887.945	80887.57	-6.875e-06	670719.44	194388.94	-1.671123e-05	194392.14	670718.75	-9.5254014e-05
0	0.6175215	0.6175187	-4.6217505e-10	0.052325908	0.052325904	0	80833.57	80833.195	-5.953125e-05	670958.7	193568.22	-0.00042780748	193571.42	670958	-0.00022225936
0	0.61710256	0.61709976	-4.3348833e-10	0.051972378	0.051972378	0	80778.73	80778.36	-5.84375e-05	671198.5	192741.86	-0.00026236632	192745.05	671197.75	-0.00036931818
0	0.616682	0.6166792	-1.7052666e-10	0.051618665	0.051618665	0	80723.67	80723.305	-2.5e-05	671437.7	191913.9	-0.00022894386	191917.12	671436.94	1.7546792e-05
0	0.6162577	0.616255	-2.6614908e-10	0.051265337	0.051265337	0	80668.13	80667.766	-3.0625e-05	671677.2	191080.33	-0.00026069517	191083.56	671676.56	-0.00011697861
0	0.6158324	0.6158296	-4.1914497e-10	0.050911807	0.050911807	0	80612.46	80612.09	-5.125e-05	671916.06	190246.14	-0.00043114973	190249.34	671915.4	-0.00013870321
0	0.6154038	0.615401	4.7811213e-11	0.050558105	0.050558094	0	80556.35	80555.99	6.875e-06	672155.06	189406.95	-4.6791443e-05	189410.17	672154.44	0.00010945855
0	0.6149725	0.6149697	-8.9247595e-11	0.05020459	0.05020459	0	80499.9	80499.53	-1.125e-05	672394.06	188564.12	-0.00013368984	188567.38	672393.44	-1.1697861e-05
0	0.6145385	0.61453575	-4.2551979e-10	0.04985105	0.04985105	0	80443.086	80442.72	-6e-05	672632.94	187717.69	-0.00037433155	187720.9	672632.3	-0.0002556818
0	0.61410147	0.6140987	-5.2592336e-10	0.04949753	0.049497534	0	80385.88	80385.516	-6.75e-05	672871.9	186866.94	-0.00030748663	186870.16	672871.25	-0.00042864305
0	0.6136629	0.61366016	-8.4147733e-10	0.049143866	0.049143866	0	80328.48	80328.12	-0.0001075	673110.06	186014.78	-0.0005013369	186018.02	673109.4	-0.0006651069
0	0.6132205	0.6132178	-2.1833788e-10	0.04879036	0.04879036	0	80270.57	80270.21	-3.125e-05	673348.7	185156.86	-0.00022393047	185160.12	673348	-0.00010360963
0	0.6127758	0.61277294	-3.0917918e-10	0.0484368	0.0484368	0	80212.35	80211.99	-4.1875e-05	673587	184295.84	-0.00028910427	184299.1	673586.3	-0.00018048128
0	0.6123288	0.612326	-1.6893295e-10	0.048083294	0.048083294	0	80153.836	80153.48	-2.4375e-05	673825	183432.12	-0.00020721926	183435.36	673824.4	-5.6818182e-05
0	0.6118787	0.61187595	-1.8327631e-10	0.047729596	0.047729596	0	80094.92	80094.56	-2.71875e-05	674062.94	182564	-0.00024899733	182567.27	674062.2	-4.34492e-05
0	0.6114248	0.611422	-1.7212036e-10	0.047376227	0.047376227	0	80035.51	80035.14	-2.3125e-05	674301.2	181690.3	-0.00020721926	181693.52	674300.56	-4.2613636e-05
0	0.61096865	0.6109659	-4.749247e-10	0.047022715	0.047022726	0	79975.805	79975.44	-6.1875e-05	674539	180813.89	-0.0004812834	180817.16	674538.4	-0.00022142379
0	0.6105101	0.61050737	-3.601778e-10	0.046669014	0.046669014	0	79915.766	79915.414	-4.5e-05	674776.44	179934.53	-0.00048796792	179937.77	674775.7	-5.096925e-05
0	0.61004895	0.61004615	-3.9364564e-10	0.046315532	0.04631553	0	79855.4	79855.04	-5.3125e-05	675013.6	179051.69	-0.00038770054	179054.92	675012.94	-0.00019802808
0	0.6095847	0.6095818	-4.1117643e-10	0.045961928	0.045961928	0	79794.63	79794.266	-5.484375e-05	675250.5	178164.75	-0.0003275401	178167.98	675249.94	-0.00026320186
0	0.6091156	0.6091129	-1.6096441e-10	0.04560844	0.04560844	0	79733.234	79732.87	-1.78125e-05	675488.25	177270.39	-0.0002824198	177273.61	675487.6	4.34492e-05
0	0.60864663	0.6086439	-6.8688777e-10	0.04525479	0.04525479	0	79671.84	79671.49	-9.1875e-05	675724.3	176377.81	-0.00050969253	176381.05	675723.7	-0.0004988302
0	0.60817313	0.60817045	-8.606018e-11	0.044901304	0.044901304	0	79609.875	79609.51	-1.21875e-05	675960.7	175478.45	-3.342246e-05	175481.73	675960.2	-8.856952e-05
0	0.6076976	0.6076949	-3.2033512e-10	0.044547684	0.044547684	0	79547.625	79547.266	-4.046875e-05	676196.56	174576.81	-0.00020053476	174580.03	676196.1	-0.00025902406
0	0.6072184	0.6072157	-2.3108752e-10	0.044194214	0.04419421	0	79484.875	79484.53	-3.125e-05	676432.6	173669.81	-0.00023061497	173673.06	676432.1	-0.00013368984
0	0.6067358	0.60673314	-9.721613e-11	0.043840524	0.043840524	0	79421.73	79421.36	-1.15625e-05	676668.56	172758.45	-0.00010695187	172761.7	676667.94	-5.013369e-05
0	0.60624737	0.6062447	-2.3905605e-10	0.043487042	0.043487042	0	79357.78	79357.42	-3.09375e-05	676905.3	171837.75	-4.6791443e-05	171840.98	676904.9	-0.00030915777
0	0.60576254	0.6057599	-2.4064978e-10	0.043133624	0.043133624	0	79294.33	79293.97	-3.25e-05	677138.94	170925.5	-0.0001955214	170928.73	677138.3	-0.00016042781
0	0.60527074	0.60526794	-1.5140217e-10	0.04277993	0.04277993	0	79229.93	79229.586	-2.0625e-05	677374	170001.72	-0.00018716577	170004.97	677373.44	-3.0080213e-05
0	0.6047764	0.6047737	-4.46238e-10	0.042426456	0.04242646	0	79165.234	79164.875	-5.5625e-05	677608.4	169075.33	-0.00033923797	169078.55	677607.9	-0.00028074867
0	0.6042779	0.6042752	-2.5658684e-10	0.042072807	0.042072814	0	79099.98	79099.625	-3.125e-05	677843	168142.86	-0.00022225936	168146.08	677842.44	-0.00015207219
0	0.6037778	0.60377514	-6.374828e-12	0.041719347	0.04171934	0	79034.52	79034.164	0	678076.56	167209.12	-3.342246e-06	167212.36	678076.1	-3.6764704e-05
0	0.6032747	0.60327196	-1.0199725e-10	0.041365713	0.041365713	0	78968.65	78968.3	-1.140625e-05	678309.9	166271.4	-0.00010026738	166274.62	678309.3	-8.355615e-05
0	0.60276705	0.6027644	-1.7212036e-10	0.041012257	0.041012257	0	78902.21	78901.86	-2.25e-05	678543.25	165327.42	-0.00016878342	165330.62	678542.8	-5.8489306e-05
0	0.6022559	0.60225326	-1.09965786e-10	0.04065857	0.04065857	0	78835.3	78834.945	-1.78125e-05	678776.5	164378.52	-0.00013034759	164381.75	678776.06	-6.0160426e-05
0	0.6017435	0.6017408	-3.15554e-10	0.04030513	0.04030513	0	78768.22	78767.875	-4.140625e-05	679008.5	163429.12	-0.00030414437	163432.36	679008	-0.00016209894
0	0.6012264	0.60122377	-1.5937071e-10	0.039951444	0.039951444	0	78700.53	78700.195	-1.8125e-05	679240.6	162473.06	-0.00011614305	162476.3	679240.2	-0.0001345254
0	0.600706	0.6007035	-1.6574554e-10	0.039597984	0.039597984	0	78632.43	78632.08	-2e-05	679472.44	161512.9	-0.00013034759	161516.12	679471.94	-9.5254014e-05
0	0.6001822	0.6001795	-2.8527355e-10	0.039244533	0.039244533	0	78563.84	78563.5	-3.65625e-05	679703.94	160547.86	-0.00028158422	160551.1	679703.44	-0.00013201871
0	0.5996559	0.5996533	-3.2192882e-10	0.038890842	0.038890842	0	78494.96	78494.62	-4.125e-05	679934.6	159580.44	-0.00020304145	159583.67	679934.2	-0.00023562834
0	0.5991218	0.5991192	-6.358891e-10	0.03853738	0.038537383	0	78425.05	78424.71	-8.09375e-05	680166.7	158600.62	-0.0005314171	158603.84	680166.25	-0.00035093582
0	0.598592	0.59858936	-3.5061556e-10	0.038183715	0.038183715	0	78355.695	78355.35	-4.421875e-05	680395.1	157630.47	-0.0002974599	157633.69	680394.75	-0.00017212567
0	0.59805495	0.5980524	-5.5142263e-10	0.037830256	0.037830256	0	78285.39	78285.05	-7.15625e-05	680624.6	156649	-0.0005071858	156652.2	680624.25	-0.00029829546
0	0.597514	0.5975114	-3.824897e-10	0.037476573	0.037476573	0	78214.58	78214.24	-5.125e-05	680853.9	155662.44	-0.00039772727	155665.67	680853.44	-0.00014037434
0	0.5969711	0.5969686	-3.2989736e-10	0.03712317	0.03712317	0	78143.516	78143.17	-4.34375e-05	681082.25	154674.16	-0.00028910427	154677.39	681081.8	-0.00018382353
0	0.59642357	0.596421	-7.9685356e-11	0.0367695	0.0367695	0	78071.84	78071.51	-1.1875e-05	681310.25	153679.53	-8.940508e-05	153682.73	681309.94	-2.4231284e-05
0	0.595872	0.5958694	1.5937071e-10	0.03641604	0.036416046	0	77999.65	77999.31	1.90625e-05	681538	152679.62	1.3368984e-05	152682.81	681537.7	0.00020889037
0	0.5953166	0.595314	-3.824897e-10	0.036062367	0.036062367	0	77926.945	77926.6	-4.984375e-05	681765.5	151674.53	-0.0003233623	151677.73	681765.2	-0.00024231283
0	0.59476036	0.5947578	-1.5299588e-10	0.0357089	0.0357089	0	77854.125	77853.8	-2e-05	681991.3	150669.92	-0.00012867647	150673.11	681991	-0.00010360963
0	0.5941986	0.5941961	-3.362722e-10	0.035355434	0.035355434	0	77780.6	77780.266	-4.6875e-05	682217.3	149657.5	-0.00031082888	149660.69	682217.06	-0.00019301471
0	0.5936329	0.59363025	-2.2949381e-10	0.03500176	0.03500176	0	77706.54	77706.21	-3.25e-05	682442.94	148639.8	-0.00028074867	148642.98	682442.6	-5.1804815e-05
0	0.5930637	0.59306115	-4.0958273e-10	0.034648288	0.034648288	0	77632.04	77631.71	-5.25e-05	682667.8	147618.17	-0.0003409091	147621.34	682667.4	-0.00026570854
0	0.5924913	0.5924889	1.9602597e-10	0.034294635	0.034294635	0	77557.12	77556.79	2.8125e-05	682891.94	146592.78	0.00019385027	146595.94	682891.56	0.000115307485
0	0.5919145	0.5919121	1.5937071e-11	0.03394116	0.033941157	0	77481.6	77481.28	2.65625e-06	683115.7	145561.4	-3.2586897e-05	145564.58	683115.4	6.5173794e-05
0	0.5913343	0.5913319	5.418604e-11	0.033587493	0.033587493	0	77405.664	77405.336	8.125e-06	683338.7	144526.14	8.522727e-05	144529.3	683338.44	3.342246e-06
0	0.5907509	0.5907484	-2.8208616e-10	0.033234086	0.033234082	0	77329.28	77328.96	-3.5625e-05	683561.06	143487.06	-0.0002540107	143490.22	683560.6	-0.0001888369
0	0.59016335	0.5901609	-1.6893295e-10	0.032880425	0.032880425	0	77252.375	77252.06	-2.328125e-05	683782.56	142442.94	-0.0002473262	142446.1	683782.3	-3.0080213e-05
0	0.5895715	0.58956903	-3.2989736e-10	0.032526962	0.032526962	0	77174.9	77174.586	-3.953125e-05	684003.8	141393.11	-0.0003793449	141396.27	684003.5	-9.441845e-05
0	0.5889759	0.5889734	-3.4264702e-10	0.0321733	0.0321733	0	77096.94	77096.625	-4.3125e-05	684224.1	140338.95	-0.00036096256	140342.1	684223.8	-0.00011196524
0	0.5883774	0.5883749	-3.5539668e-10	0.031819817	0.031819817	0	77018.6	77018.28	-4.5e-05	684443.44	139281.77	-0.00013536097	139284.89	684443.25	-0.00038937165
0	0.587774	0.58777153	1.4024622e-10	0.031466328	0.031466328	0	76939.61	76939.3	1.875e-05	684662.44	138217.88	3.1751337e-05	138221.02	684662.25	0.00018048128
0	0.58716667	0.5871642	-6.374828e-12	0.031112673	0.031112673	0	76860.11	76859.8	-3.125e-06	684880.75	137149.47	-5.6818182e-05	137152.58	684880.44	2.17246e-05
0	0.5865553	0.5865529	-4.860807e-10	0.030759184	0.030759184	0	76780.08	76779.766	-6.4375e-05	685098.25	136076.02	-0.00031500668	136079.14	685097.94	-0.00037266043
0	0.5859394	0.58593696	-6.8529404e-11	0.030405551	0.030405551	0	76699.46	76699.15	-1e-05	685315.2	134996.83	-0.00015541444	134999.94	685314.9	7.018717e-05
0	0.58532107	0.58531874	-3.5699038e-10	0.030052062	0.030052062	0	76618.53	76618.23	-4.5e-05	685530.75	133915.7	-0.00044786095	133918.81	685530.5	-5.2640375e-05
0	0.5846975	0.5846951	-1.6255812e-10	0.029698413	0.029698415	0	76536.9	76536.59	-2.03125e-05	685745.9	132827.53	-0.0001888369	132830.61	685745.6	-4.8462567e-05
0	0.58407015	0.58406776	-2.3586866e-10	0.029344995	0.029344995	0	76454.78	76454.47	-3.25e-05	685960.06	131735	-0.00029161095	131738.1	685959.94	-4.0942512e-05
0	0.58343834	0.583436	-4.6536247e-10	0.028991356	0.028991356	0	76372.08	76371.766	-5.8125e-05	686173.6	130636.94	-0.00035093582	130640	686173.44	-0.00030080214
0	0.58280265	0.5828004	2.0718192e-10	0.028637854	0.028637854	0	76288.87	76288.57	2.4375e-05	686386.1	129534.62	0.00024231283	129537.67	686385.94	6.183155e-05
0	0.5821626	0.58216035	-1.8646373e-10	0.028284235	0.028284235	0	76205.086	76204.79	-2.46875e-05	686597.8	128426.82	-0.00019385027	128429.86	686597.6	-6.099599e-05
0	0.58151805	0.5815158	-3.8089598e-10	0.027930737	0.027930737	0	76120.71	76120.414	-5.125e-05	686808.8	127313.51	-0.00026069517	127316.55	686808.6	-0.00031417113
0	0.58086985	0.58086765	-2.23119e-10	0.027577227	0.027577227	0	76035.87	76035.57	-2.703125e-05	687018.56	126196.26	-0.00027907753	126199.28	687018.4	-5.514706e-05
0	0.5802159	0.58021367	-3.840834e-10	0.027223594	0.027223594	0	75950.266	75949.98	-5.125e-05	687227.8	125071.445	-0.00040106953	125074.484	687227.7	-0.00013953877
0	0.5795598	0.5795576	-5.6895344e-10	0.026870081	0.026870081	0	75864.375	75864.086	-7.71875e-05	687435.5	123945.195	-0.00044535426	123948.22	687435.4	-0.00039354948
0	0.5788986	0.5788964	1.8327631e-10	0.026516473	0.026516473	0	75777.82	75777.54	2.4375e-05	687642.4	122812.56	-4.1778076e-06	122815.58	687642.3	0.0002540107
0	0.5782324	0.5782302	-6.4385763e-10	0.026162954	0.026162954	0	75690.625	75690.336	-8.5625e-05	687848.56	121673.81	-0.00052807486	121676.79	687848.44	-0.00038770054
0	0.57756114	0.577559	3.0280434e-11	0.025809336	0.025809336	0	75602.76	75602.46	3.125e-06	688053.9	120528.836	-0.00012032085	120531.82	688053.8	0.00016377005
0	0.57688636	0.5768842	-3.3149108e-10	0.025455903	0.025455903	0	75514.43	75514.14	-4.0625e-05	688257.75	119380.164	-0.00025233958	119383.125	688257.8	-0.00019886364
0	0.5762073	0.5762052	-2.8686728e-10	0.025102293	0.025102293	0	75425.53	75425.26	-3.875e-05	688460.7	118226.56	-0.0003275401	118229.51	688460.6	-5.1804815e-05
0	0.5755234	0.57552123	-3.5380296e-10	0.024748765	0.024748765	0	75336.01	75335.734	-4.75e-05	688662.6	117067.16	-0.00032419787	117070.086	688662.56	-0.00021306818
0	0.57483184	0.57482976	-2.5180572e-10	0.02439518	0.02439518	0	75245.484	75245.21	-3.046875e-05	688864.1	115897.47	-5.1804815e-05	115900.4	688864.2	-0.00027072194
0	0.5741409	0.5741388	-3.15554e-10	0.024041647	0.024041647	0	75155.04	75154.77	-3.875e-05	689063.25	114731.086	-0.00036514038	114733.99	689063.25	-7.770722e-05
0	0.5734435	0.57344145	-2.23119e-10	0.023688113	0.023688113	0	75063.75	75063.48	-2.875e-05	689261.7	113556.37	-0.0003342246	113559.26	689261.6	1.2533423e-05
0	0.57274073	0.5727386	9.084131e-11	0.023334507	0.023334507	0	74971.76	74971.49	1.34375e-05	689459.06	112375.086	7.8542784e-05	112377.96	689459.06	0.00010026738
0	0.5720331	0.572031	5.2592333e-11	0.022980964	0.022980964	0	74879.13	74878.87	6.875e-06	689655.4	111188.09	1.3368984e-05	111190.97	689655.4	8.856952e-05
0	0.5713214	0.57131946	-7.9685356e-12	0.022627395	0.022627395	0	74785.98	74785.7	-2.5e-06	689850.25	109996.945	-0.00020721926	109999.805	689850.25	0.00015625
0	0.570604	0.570602	-3.362722e-10	0.022273842	0.022273842	0	74692.06	74691.805	-4.625e-05	690044.06	108798.63	-0.00022393047	108801.484	690044.2	-0.00025735295
0	0.5698821	0.5698801	-4.9245547e-10	0.021920262	0.021920262	0	74597.56	74597.305	-6.140625e-05	690236.7	107595.47	-0.00043114973	107598.3	690236.75	-0.00024899733
0	0.56915504	0.56915313	-2.7571131e-10	0.021566812	0.021566812	0	74502.4	74502.14	-3.75e-05	690427.94	106386.34	-0.0002473262	106389.15	690428.06	-0.0001671123
0	0.56842303	0.5684211	-3.0599176e-10	0.021213228	0.02121323	0	74406.58	74406.32	-3.9375e-05	690617.94	105171.49	-0.00028074867	105174.29	690618.1	-0.00012199198
0	0.56768614	0.5676842	-3.2830366e-10	0.020859674	0.02085967	0	74310.11	74309.86	-4.875e-05	690806.75	103951.01	-0.00030414437	103953.8	690806.8	-0.00015875668
0	0.5669428	0.5669409	-3.2670996e-10	0.020506129	0.020506129	0	74212.82	74212.57	-4.375e-05	690994.4	102722.836	-0.00022727273	102725.6	690994.5	-0.00019802808
0	0.5661976	0.5661957	-3.617715e-10	0.020152565	0.020152565	0	74115.266	74115.02	-4.703125e-05	691179.9	101493.945	-0.0002840909	101496.7	691180	-0.00019719251
0	0.56544536	0.5654435	-4.3189463e-10	0.019798992	0.019798992	0	74016.8	74016.555	-5.625e-05	691364.6	100256.21	-0.0004512032	100258.93	691364.7	-0.00015875668
0	0.5646884	0.5646866	-2.4383717e-10	0.019445421	0.019445423	0	73917.71	73917.484	-2.96875e-05	691547.75	99013.44	-0.00033088235	99016.15	691547.8	-6.684492e-06
0	0.5639259	0.56392413	-5.9604643e-10	0.019091858	0.019091858	0	73817.9	73817.664	-8.015625e-05	691729.44	97764.24	-0.0006534091	97766.93	691729.6	-0.00018048128
0	0.56315726	0.5631555	-2.0718192e-10	0.018738287	0.018738288	0	73717.28	73717.055	-2.765625e-05	691909.8	96507.7	-0.00040106953	96510.37	691910	7.937834e-05
0	0.5623848	0.562383	-3.2192882e-10	0.018384747	0.01838475	0	73616.17	73615.94	-3.90625e-05	692088.44	95247.62	-0.00030748663	95250.266	692088.56	-0.00012867647
0	0.56160647	0.5616047	2.8846098e-10	0.018031184	0.018031184	0	73514.29	73514.06	3.75e-05	692265.6	93980.79	0.00011029412	93983.414	692265.8	0.00030915777
0	0.56082284	0.5608212	-9.084131e-11	0.017677717	0.017677717	0	73411.72	73411.49	-9.0625e-06	692441.3	92708.13	-5.1804815e-05	92710.76	692441.5	-6.433824e-05
0	0.5600339	0.56003225	-1.1793433e-10	0.017324144	0.017324144	0	73308.44	73308.23	-1.25e-05	692615.3	91429.625	-0.00027072194	91432.21	692615.5	0.00015040107
0	0.5592387	0.55923694	-3.7133374e-10	0.01697058	0.01697058	0	73204.336	73204.12	-4.734375e-05	692787.94	90143.53	-0.0003927139	90146.1	692788.1	-0.0001453877
0	0.5584383	0.55843663	-5.3229815e-10	0.016617041	0.016617041	0	73099.58	73099.36	-6.9375e-05	692958.8	88852.25	-0.0005314171	88854.8	692959.06	-0.00023061497
0	0.5576324	0.5576308	-2.0718192e-10	0.016263481	0.01626348	0	72994.07	72993.87	-2.5e-05	693128.06	87554.73	-0.00040441175	87557.26	693128.3	0.00010026738
0	0.55682176	0.55682015	1.6415183e-10	0.015909908	0.015909908	0	72887.98	72887.766	2.15625e-05	693295.4	86252.62	4.512032e-05	86255.13	693295.7	0.0001955214
0	0.5560048	0.5560033	-1.6733924e-10	0.015556336	0.015556336	0	72781.02	72780.82	-2.125e-05	693461.1	84943.055	-0.00011697861	84945.54	693461.4	-9.5254014e-05
0	0.5551812	0.55517966	-3.6336523e-10	0.015202776	0.015202776	0	72673.21	72673.016	-4.578125e-05	693625.25	83625.93	-0.00017045454	83628.41	693625.56	-0.00031584225
0	0.5543533	0.5543518	1.0359096e-10	0.014849206	0.014849206	0	72564.85	72564.66	1.3125e-05	693787.44	82304.836	-0.0002105615	82307.27	693787.7	0.00033088235
0	0.553518	0.5535165	-4.9245547e-10	0.014495678	0.014495678	0	72455.516	72455.305	-6.5625e-05	693948	80974.83	-0.0002690508	80977.24	693948.25	-0.00041360295
0	0.5526773	0.55267584	-2.8208616e-10	0.014142117	0.014142117	0	72345.46	72345.266	-3.5625e-05	694106.6	79639.234	0.00010360963	79641.625	694106.94	-0.0004963235
0	0.5518326	0.5518311	-5.8967164e-10	0.0137886135	0.0137886135	0	72234.88	72234.695	-7.75e-05	694263	78300.21	-0.000434492	78302.586	694263.4	-0.00039605616
0	0.5509806	0.5509792	-2.1515045e-10	0.013435041	0.013435041	0	72123.37	72123.18	-2.8125e-05	694417.75	76952.73	-0.00018716577	76955.06	694418.1	-0.00010695187
0	0.55012196	0.55012065	-9.211627e-10	0.013081477	0.013081476	0	72010.98	72010.79	-0.000118125	694570.7	75597.79	-0.0007118984	75600.11	694571.1	-0.0005940842
0	0.54925716	0.54925585	-3.5061556e-10	0.012727952	0.012727952	0	71897.766	71897.58	-4.734375e-05	694721.7	74235.99	-0.00032252673	74238.27	694722.06	-0.00015040107
0	0.54838705	0.5483857	4.7811213e-11	0.0123743825	0.0123743825	0	71783.87	71783.695	5e-06	694870.5	72869.11	-0.00011864973	72871.37	694870.9	0.00019134358
0	0.5475105	0.54750913	-3.15554e-10	0.012020824	0.012020824	0	71669.125	71668.95	-4.5e-05	695017.25	71495.14	-0.00014037434	71497.375	695017.7	-0.00028743315
0	0.54662776	0.54662657	-4.6854987e-10	0.011667253	0.011667253	0	71553.586	71553.42	-6.25e-05	695162.06	70114.76	-0.0004578877	70116.96	695162.44	-0.0002105615
0	0.5457385	0.54573727	-5.195485e-10	0.011313697	0.011313696	0	71437.17	71437.01	-6.75e-05	695304.6	68727.125	-0.000421123	68729.305	695305.06	-0.00030414437
0	0.54484284	0.54484165	-2.6296168e-10	0.010960131	0.010960131	0	71319.92	71319.766	-3.4375e-05	695445.1	67332.73	-0.00040441175	67334.88	695445.56	5.013369e-05
0	0.543941	0.5439399	-1.5937071e-10	0.010606614	0.010606615	0	71201.88	71201.734	-2.140625e-05	695583.4	65931.97	-0.0003709893	65934.09	695583.8	0.00013201871
0	0.54303277	0.54303163	-4.828932e-10	0.010253064	0.010253064	0	71082.99	71082.836	-6.03125e-05	695719.4	64524.336	-0.00027907753	64526.438	695719.9	-0.00038937165
0	0.54211754	0.5421164	-4.016142e-10	0.009899496	0.009899496	0	70963.19	70963.04	-5.609375e-05	695853.25	63109.223	-0.0005598262	63111.28	695853.75	-5.514706e-05
0	0.541196	0.541195	-3.9523937e-10	0.009545929	0.009545929	0	70842.555	70842.42	-5.375e-05	695984.8	61687.61	-0.00044117647	61689.63	695985.25	-0.00012951203
0	0.5402677	0.5402666	-6.119835e-10	0.009192375	0.009192374	0	70721.03	70720.9	-8e-05	696113.94	60258.777	-0.00070020056	60260.785	696114.44	-0.00017713904
0	0.5393328	0.5393318	-4.303009e-11	0.008838858	0.008838858	0	70598.67	70598.53	-7.03125e-06	696240.75	58823.254	-7.8542784e-05	58825.227	696241.25	2.256016e-05
0	0.5383912	0.53839016	-6.1995203e-10	0.00848529	0.00848529	0	70475.414	70475.28	-8.203125e-05	696365.1	57380.65	-0.0006617647	57382.586	696365.7	-0.00022894386
0	0.5374419	0.537441	-6.4226396e-10	0.008131741	0.008131741	0	70351.164	70351.03	-8.3125e-05	696487	55929.816	-0.00045621657	55931.727	696487.6	-0.00046122994
0	0.53648674	0.53648585	-4.303009e-10	0.007778168	0.007778168	0	70226.12	70225.99	-5.765625e-05	696606.56	54473.055	-0.00030748663	54474.926	696607.06	-0.00030330883
0	0.5355244	0.5355235	3.0121064e-10	0.007424603	0.007424603	0	70100.14	70100.03	4e-05	696723.4	53008.934	2.17246e-05	53010.773	696724	0.00038352274
0	0.53455484	0.53455395	-6.502325e-10	0.0070710597	0.0070710587	0	69973.22	69973.11	-8.328125e-05	696837.7	51537.246	-0.0006885027	51539.047	696838.25	-0.00020951705
0	0.533578	0.53357714	-5.38673e-10	0.0067175203	0.0067175203	0	69845.36	69845.24	-7.0625e-05	696949.4	50057.992	-0.00032085562	50059.754	696950	-0.00042947862
0	0.5325943	0.5325935	-2.024008e-10	0.006363976	0.006363976	0	69716.6	69716.484	-2.625e-05	697058.44	48571.832	-0.00017212567	48573.555	697059.06	-0.0001236631
0	0.5316035	0.53160274	2.2790012e-10	0.006010412	0.006010412	0	69586.89	69586.805	2.640625e-05	697164.7	47078.516	0.00011196524	47080.21	697165.4	0.00018549465
0	0.53060496	0.53060424	2.8367986e-10	0.0056568487	0.0056568487	0	69456.19	69456.09	3.515625e-05	697268.4	45576.94	6.183155e-05	45578.594	697269	0.00033506015
0	0.5295992	0.52959853	-5.992339e-10	0.005303307	0.0053033074	0	69324.53	69324.45	-7.6875e-05	697369.06	44068.184	-0.0004645722	44069.805	697369.75	-0.0003643048