//mumax 3.10 [windows_amd64 go1.11.6(gc) CUDA-11.0]
//GPU info: NVIDIA GeForce RTX 3090(24575MB), CUDA Driver 12.0, cc=8.6, using cc=80 PTX
//(c) Arne Vansteenkiste, Dynamat LAB, Ghent University, Belgium
//This is free software without any warranty. See license.txt
//********************************************************************//
//  If you use mumax in any work or publication,                      //
//  we kindly ask you to cite the references in references.bib        //
//********************************************************************//
//output directory: r1;p0.1;a4.4e-07;l2.3000000000000002e-07;s0.out/
randSeed(0)
ThermSeed(0)
resolution := 2e-09
zResolution := 5e-09
a := 4.4e-07
gridSize := 440
gridDepth := 5
SetCellsize(resolution, resolution, zResolution)
SetGridsize(gridSize, gridSize, gridDepth)
SetPBC(16, 16, 0)
//resizing...
Msat = 700e3
Aex = 13e-12
alpha = 0.2
Bmax := 0.1
Bstep := Bmax / 500.0
TableAdd(B_ext)
TableAdd(m_full)
islandWidth := 8e-08
islandLength := 2.3000000000000002e-07
ellipseConstant := 1.1500000000000002e-08
hIsland := Universe().Inverse()
vIsland := Universe().Inverse()
vIslands := Universe().Inverse()
hIslands := Universe().Inverse()
hIsland = rect(islandLength-2*ellipseConstant, islandWidth)
hIsland = hIsland.add(ellipse(ellipseConstant*2, islandWidth).transl(islandLength/2-ellipseConstant, 0, 0))
hIsland = hIsland.add(ellipse(ellipseConstant*2, islandWidth).transl(-islandLength/2+ellipseConstant, 0, 0))
hIsland = hIsland.add(rect(8.040270008611284e-09, 5.76289512898003e-10).transl(3.648247736067373e-08, -4e-08, 0))
hIsland = hIsland.add(rect(4.417314925401234e-09, 1.6546751572096777e-10).transl(2.417881920277905e-10, -4e-08, 0))
hIsland = hIsland.add(rect(9.845398916276446e-09, 2.408378191541691e-09).transl(1.073544406569308e-07, -3.768632446205779e-08, 0))
hIsland = hIsland.add(rect(4.976247117274136e-09, 6.843125236370879e-10).transl(4.07215396832815e-08, -4e-08, 0))
hIsland = hIsland.sub(rect(9.080188929947464e-09, -3.1422000000404927e-09).transl(-6.187696062932325e-08, -4e-08, 0))
hIsland = hIsland.add(rect(8.650443511677336e-09, 6.113519391301269e-10).transl(-5.821009289883147e-08, -4e-08, 0))
hIsland = hIsland.sub(rect(8.127394851677039e-09, -5.780327793521528e-10).transl(4.983981427615896e-08, -4e-08, 0))
hIsland = hIsland.sub(rect(8.625128551750073e-09, -9.921160807340862e-10).transl(1.1498988143698265e-07, -1.6776058702240588e-09, 0))
hIsland = hIsland.sub(rect(8.736564927356766e-09, -1.009929899254433e-09).transl(-4.347105643458448e-08, -4e-08, 0))
hIsland = hIsland.add(rect(5.3871579780422016e-09, 2.5512369411827065e-09).transl(-1.0060778438877525e-07, -4e-08, 0))
hIsland = hIsland.sub(rect(5.079852493661065e-09, -2.564270470992693e-10).transl(5.7081628089575675e-08, -4e-08, 0))
hIsland = hIsland.sub(rect(5.743428752323443e-09, -1.217737287131335e-09).transl(2.0651386017468693e-08, -4e-08, 0))
hIsland = hIsland.add(rect(6.518524924674597e-09, 2.0084165838108385e-09).transl(-8.507414095797803e-08, -4e-08, 0))
hIsland = hIsland.add(rect(3.4220665523817496e-09, 3.262275393042009e-10).transl(-1.2057976020895608e-08, -4e-08, 0))
hIsland = hIsland.add(rect(3.972960707424913e-09, 1.7353091322957713e-09).transl(-5.8528254869201025e-08, -4e-08, 0))
hIsland = hIsland.add(rect(4.022179547978157e-09, 4.294086131057504e-09).transl(-1.1343670152104328e-07, -2.013548450340531e-08, 0))
hIsland = hIsland.sub(rect(2.1723464291072408e-09, -1.0114502250869906e-09).transl(-1.0466052509217645e-07, -3.979580113089572e-08, 0))
hIsland = hIsland.sub(rect(2.974168566002835e-09, -2.9073815140474665e-09).transl(-6.056445293185563e-09, -4e-08, 0))
hIsland = hIsland.add(rect(6.363095437683596e-09, 2.0324808897230815e-09).transl(3.063148280203261e-08, -4e-08, 0))
hIsland = hIsland.add(rect(5.497667904730232e-09, 2.191333490068953e-09).transl(8.466859290890866e-08, -4e-08, 0))
hIsland = hIsland.sub(rect(8.413327778699647e-09, -1.318474160987709e-09).transl(1.2716521522925958e-08, -4e-08, 0))
hIsland = hIsland.sub(rect(5.221620868315865e-09, -1.1528263897151228e-09).transl(-2.3595166333314136e-08, -4e-08, 0))
hIsland = hIsland.add(rect(9.90448509287128e-09, 1.969369232991209e-09).transl(5.954432484005266e-08, -4e-08, 0))
hIsland = hIsland.add(rect(6.656211779846604e-09, 2.6218278397980725e-10).transl(4.491129593919279e-08, -4e-08, 0))
hIsland = hIsland.sub(rect(9.77412240547438e-09, -1.907505639437777e-09).transl(-1.0209005093960549e-07, -4e-08, 0))
hIsland = hIsland.add(rect(3.5391554716746713e-09, 5.762045597746235e-10).transl(-4.072964637908779e-08, -4e-08, 0))
hIsland = hIsland.sub(rect(2.938398611270177e-09, -1.9932047555070992e-09).transl(5.145662270974552e-08, -4e-08, 0))
hIsland = hIsland.add(rect(3.711918505694537e-09, 1.5693315104333224e-09).transl(5.8451026246906385e-08, -4e-08, 0))
hIsland = hIsland.add(rect(2.090821693627145e-09, 3.5180685492623993e-09).transl(-1.0120166803870487e-07, -4e-08, 0))
hIsland = hIsland.add(rect(5.0419457705237405e-09, 1.1665607129015521e-09).transl(-1.0058307539353138e-07, -4e-08, 0))
hIsland = hIsland.sub(rect(4.0123634038663256e-09, -1.4834548911570973e-10).transl(4.68309326953713e-08, -4e-08, 0))
hIsland = hIsland.add(rect(6.299431431911909e-09, 9.476697876065703e-10).transl(3.49676522853833e-08, -4e-08, 0))
hIsland = hIsland.add(rect(3.2455820226231123e-09, 8.555867532097739e-10).transl(-3.868438617759221e-08, -4e-08, 0))
hIsland = hIsland.add(rect(6.359509365734533e-09, 4.2610320751159725e-10).transl(-2.4448637801256457e-08, -4e-08, 0))
hIsland = hIsland.sub(rect(9.39749895128795e-09, -2.586439350810201e-09).transl(1.4375499134675835e-08, -4e-08, 0))
hIsland = hIsland.add(rect(5.384076698770504e-09, 9.043683856863689e-10).transl(-3.356753064940382e-08, -4e-08, 0))
hIsland = hIsland.sub(rect(6.526382687532344e-09, -4.509316112313819e-10).transl(-6.352576050567748e-08, -4e-08, 0))
hIsland = hIsland.add(rect(2.9997902551281737e-09, 6.113988138815201e-10).transl(-1.0794127138579843e-07, -3.6896644440878434e-08, 0))
hIsland = hIsland.add(rect(9.663041162056665e-09, 1.886289089142007e-09).transl(-1.1597822939442454e-08, -4e-08, 0))
hIsland = hIsland.sub(rect(6.575782617162555e-09, -1.4322904881899691e-09).transl(-2.9116981556816145e-08, -4e-08, 0))
hIsland = hIsland.add(rect(2.7060688986523698e-09, 5.739179302713938e-10).transl(-3.6037086775167166e-09, -4e-08, 0))
hIsland = hIsland.sub(rect(4.752337310940244e-09, -1.4426276078082437e-10).transl(1.694362012257077e-08, -4e-08, 0))
hIsland = hIsland.sub(rect(5.685830375399304e-09, -2.309381157059933e-09).transl(5.2560290562218154e-08, -4e-08, 0))
hIsland = hIsland.sub(rect(4.20664055928825e-09, -2.0142552335687753e-09).transl(9.928418105917825e-08, -4e-08, 0))
hIsland = hIsland.sub(rect(8.721200602691987e-09, -1.0612505148543324e-09).transl(-5.222257517721627e-08, -4e-08, 0))
hIsland = hIsland.sub(rect(7.671686257863056e-09, -9.761491887457207e-10).transl(-2.3801804786884483e-08, -4e-08, 0))
hIsland = hIsland.sub(rect(9.562559926260193e-09, -1.1738268620227963e-09).transl(-8.226344789682777e-08, -4e-08, 0))
hIsland = hIsland.add(rect(4.6386633758408606e-09, 6.553995464797482e-10).transl(1.8138705631695748e-08, -4e-08, 0))
hIsland = hIsland.add(rect(7.884475964582132e-09, 2.077190600371726e-09).transl(1.059056122446274e-07, -3.9115054713267546e-08, 0))
hIsland = hIsland.add(rect(6.1862592348191925e-09, 2.4195950514508465e-09).transl(-5.062948874318331e-08, -4e-08, 0))
hIsland = hIsland.sub(rect(5.583139420127933e-09, -8.058119108444313e-10).transl(-3.4493013806884046e-08, -4e-08, 0))
hIsland = hIsland.sub(rect(6.09661295563057e-09, -1.3444398281532176e-09).transl(2.06146978532599e-09, -4e-08, 0))
hIsland = hIsland.add(rect(4.307058907373253e-09, 3.884781500399159e-10).transl(-4.617717214015909e-08, -4e-08, 0))
hIsland = hIsland.sub(rect(4.567405722910686e-09, -2.1265513858544277e-09).transl(7.230191444111426e-08, -4e-08, 0))
hIsland = hIsland.add(rect(7.347859925286349e-09, 3.15372024391574e-09).transl(1.1025719847104938e-07, -3.236657125366799e-08, 0))
hIsland = hIsland.sub(rect(7.0959881749968115e-09, -1.8104412374811132e-09).transl(-9.912940667440437e-08, -4e-08, 0))
hIsland = hIsland.sub(rect(3.017510948423394e-09, -5.035802281731025e-10).transl(5.870773991857296e-08, -4e-08, 0))
hIsland = hIsland.add(rect(3.233281638905947e-09, 1.6243600850499932e-09).transl(7.535393338890752e-09, -4e-08, 0))
hIsland = hIsland.sub(rect(7.833708832184465e-09, -2.6497975233524172e-09).transl(-8.710020357853182e-08, -4e-08, 0))
hIsland = hIsland.add(rect(9.196998251808961e-09, 1.8083326663691101e-09).transl(-7.538057822687019e-08, -4e-08, 0))
hIsland = hIsland.add(rect(2.487590722414887e-09, 7.269969954732888e-10).transl(-6.648665916343063e-08, -4e-08, 0))
hIsland = hIsland.add(rect(4.209215513281305e-09, 4.3598741280888535e-09).transl(-1.1398517666403046e-07, -1.6429424596697108e-08, 0))
hIsland = hIsland.sub(rect(6.136017290927184e-09, -2.839576351927794e-09).transl(-6.768782094614459e-08, -4e-08, 0))
hIsland = hIsland.sub(rect(5.76581543625671e-09, -3.043093058546572e-09).transl(-2.6753382343333275e-08, -4e-08, 0))
hIsland = hIsland.sub(rect(6.690686090919861e-09, -1.5826687583867099e-09).transl(-1.0799671118919073e-07, -3.681531504790438e-08, 0))
hIsland = hIsland.add(rect(9.006080482501355e-09, 2.776519226375741e-09).transl(-9.412111431424478e-08, -4e-08, 0))
hIsland = hIsland.add(rect(3.805670246692972e-09, 2.8008860662262365e-10).transl(-7.747854700697137e-08, -4e-08, 0))
hIsland = hIsland.sub(rect(5.551998214572079e-09, -4.111041169253535e-09).transl(8.175803133043374e-08, -4e-08, 0))
hIsland = hIsland.sub(rect(6.832930206472299e-09, -8.307907883176612e-10).transl(1.0921461816664672e-08, -4e-08, 0))
hIsland = hIsland.add(rect(8.729436903916533e-09, 1.6544900218113893e-09).transl(8.949466180548602e-08, -4e-08, 0))
hIsland = hIsland.sub(rect(7.188304726818907e-09, -3.720594216239986e-09).transl(-2.0196181155770258e-08, -4e-08, 0))
hIsland = hIsland.sub(rect(7.486612667498393e-09, -7.019394975097232e-10).transl(7.439284575878616e-08, -4e-08, 0))
hIsland = hIsland.sub(rect(5.2217395605819736e-09, -2.5998860698018004e-09).transl(-1.0338948590439017e-07, -4e-08, 0))
hIsland = hIsland.add(rect(7.030235774858802e-09, 2.281836066228902e-09).transl(4.2589695102373664e-08, -4e-08, 0))
hIsland = hIsland.add(rect(3.390761183350442e-09, 1.247345431493528e-09).transl(2.7464186817273027e-08, -4e-08, 0))
hIsland = hIsland.sub(rect(7.297551980197236e-09, -8.534985494318797e-10).transl(2.275943764931457e-08, -4e-08, 0))
hIsland = hIsland.add(rect(4.5133597422080556e-09, 2.3675536732544427e-10).transl(-6.656870015094266e-08, -4e-08, 0))
hIsland = hIsland.sub(rect(4.448858971960961e-09, -2.5573361204629216e-09).transl(-9.321562617860449e-08, -4e-08, 0))
hIsland = hIsland.add(rect(9.058096861002706e-09, 1.2644368101356714e-09).transl(5.118282537842387e-08, -4e-08, 0))
hIsland = hIsland.add(rect(4.05362977009302e-09, 2.662659524151577e-09).transl(9.423029577372998e-08, -4e-08, 0))
hIsland = hIsland.add(rect(6.0203559418593976e-09, 1.119179653154546e-09).transl(1.268786859606599e-08, -4e-08, 0))
hIsland = hIsland.sub(rect(8.357826053958325e-09, -8.308856960100286e-10).transl(6.471050945355554e-09, -4e-08, 0))
hIsland = hIsland.add(rect(5.446601317294957e-09, 2.6609524379303008e-09).transl(-4.3958007582166063e-08, -4e-08, 0))
hIsland = hIsland.add(rect(3.5296318010442296e-09, 4.011744030864053e-09).transl(2.1908928461559732e-08, -4e-08, 0))
hIsland = hIsland.sub(rect(4.826965320737152e-09, -1.1302026227931345e-09).transl(6.777612835852115e-08, -4e-08, 0))
hIsland = hIsland.sub(rect(4.643212853217368e-09, -1.4551523551170015e-09).transl(7.766530478380841e-08, -4e-08, 0))
hIsland = hIsland.add(rect(8.130860824959595e-09, 6.932706316532876e-10).transl(-7.700499684261337e-08, -4e-08, 0))
hIsland = hIsland.sub(rect(8.863485268716531e-09, -2.370489458285184e-09).transl(5.3175656641427315e-08, -4e-08, 0))
hIsland = hIsland.sub(rect(7.010168784892212e-09, -1.934528092499831e-09).transl(1.1044167480201059e-07, -3.189076837924421e-08, 0))
hIsland = hIsland.add(rect(4.4596547647411144e-09, 2.219434719182409e-09).transl(-7.587094817984625e-08, -4e-08, 0))
hIsland = hIsland.sub(rect(4.341362221116694e-09, -3.0053186145355266e-11).transl(-6.261381393919532e-08, -4e-08, 0))
hIsland = hIsland.add(rect(4.3546847188997654e-09, 3.453444423249704e-09).transl(9.798005484212774e-10, -4e-08, 0))
hIsland = hIsland.add(rect(8.085288649682796e-09, 3.779907590230225e-09).transl(-5.473140872300926e-08, -4e-08, 0))
hIsland = hIsland.sub(rect(3.422706619576138e-09, -1.085840054949473e-09).transl(-5.001004546817928e-08, -4e-08, 0))
hIsland = hIsland.sub(rect(8.559644183432788e-09, -3.07373146420373e-10).transl(2.251716141238526e-08, -4e-08, 0))
hIsland = hIsland.sub(rect(9.635354930699504e-09, -1.5977759170998984e-09).transl(-9.532109081166937e-08, -4e-08, 0))
hIsland = hIsland.sub(rect(2.7475177682605916e-09, -1.909674624414301e-09).transl(1.1164887803540715e-07, -2.8224492818775078e-08, 0))
hIsland = hIsland.add(rect(7.240752055063295e-09, 1.0836828723594656e-09).transl(-1.337459444808409e-08, -4e-08, 0))
hIsland = hIsland.add(rect(4.1448969898337355e-09, 3.161710183246973e-10).transl(1.0322405503235183e-08, -4e-08, 0))
hIsland = hIsland.add(rect(4.3965903771072006e-09, 1.247783226326103e-09).transl(-1.0180060249821431e-07, -4e-08, 0))
hIsland = hIsland.add(rect(3.889656818106176e-09, 5.741585331324425e-09).transl(1.093160165444245e-07, -3.45074247497258e-08, 0))
hIsland = hIsland.add(rect(7.594969722977156e-09, 3.2297731067470193e-10).transl(2.110778964416147e-08, -4e-08, 0))
hIsland = hIsland.sub(rect(2.3074464771536384e-09, -1.0836202474167004e-09).transl(1.0630653884385813e-07, -3.879053765201069e-08, 0))
hIsland = hIsland.add(rect(9.886427706403361e-09, 2.7430836911291174e-09).transl(-7.180253707910797e-08, -4e-08, 0))
hIsland = hIsland.sub(rect(4.38193318292668e-09, -3.6194248900545854e-10).transl(8.921317866460254e-08, -4e-08, 0))
hIsland = hIsland.sub(rect(2.6291427467230354e-09, -1.6613018009380833e-10).transl(-1.0989220699025111e-07, -3.3251462570849596e-08, 0))
hIsland = hIsland.add(rect(2.7253412693250277e-09, 4.223785944601461e-10).transl(9.555324494401959e-08, -4e-08, 0))
hIsland = hIsland.sub(rect(6.639883374170633e-09, -8.89335911506352e-10).transl(8.098562544361492e-08, -4e-08, 0))
hIsland = hIsland.sub(rect(9.433130771802999e-09, -1.1150472821829614e-09).transl(-8.474232370155656e-08, -4e-08, 0))
hIsland = hIsland.sub(rect(9.847616405072923e-09, -4.231797868014105e-09).transl(-5.6388349218307605e-08, -4e-08, 0))
hIsland = hIsland.add(rect(6.134363779696233e-09, 1.0293294179665207e-09).transl(5.711304614866889e-08, -4e-08, 0))
hIsland = hIsland.sub(rect(5.7181258248963744e-09, -5.360502244861993e-10).transl(1.2636852380441568e-10, -4e-08, 0))
hIsland = hIsland.sub(rect(6.778599161563613e-09, -2.245007522997243e-09).transl(-9.35052205034243e-08, -4e-08, 0))
hIsland = hIsland.sub(rect(3.2457077453279065e-09, -3.476248017226971e-09).transl(-4.694803648928137e-08, -4e-08, 0))
hIsland = hIsland.add(rect(9.623670087838297e-09, 1.0951237385225441e-09).transl(-6.113239628632029e-08, -4e-08, 0))
hIsland = hIsland.sub(rect(7.834977794574092e-09, -1.539309284619247e-09).transl(-2.2604764067829287e-09, -4e-08, 0))
hIsland = hIsland.add(rect(5.657693460183554e-09, 1.161465907447614e-09).transl(3.622481759990761e-08, -4e-08, 0))
hIsland = hIsland.sub(rect(5.511496411403603e-09, -1.4143984517678125e-09).transl(-6.422945090362093e-08, -4e-08, 0))
hIsland = hIsland.sub(rect(3.069052049137395e-09, -3.3992236603040626e-10).transl(2.1113149366181233e-08, -4e-08, 0))
hIsland = hIsland.sub(rect(4.3221186563716634e-09, -2.7510348208085386e-09).transl(1.0196586138323844e-07, -4e-08, 0))
hIsland = hIsland.add(rect(9.11577389530684e-09, 6.549821611366257e-10).transl(-1.0925929835497181e-07, -3.462232328741535e-08, 0))
hIsland = hIsland.sub(rect(3.6547343830769745e-09, -3.021083109611153e-09).transl(9.346077292372422e-08, -4e-08, 0))
hIsland = hIsland.add(rect(3.0831316213983187e-09, 8.258299194167905e-10).transl(-4.3641427642605755e-08, -4e-08, 0))
hIsland = hIsland.add(rect(2.6323275318375173e-09, 4.561690008100448e-10).transl(6.609708027411885e-08, -4e-08, 0))
hIsland = hIsland.add(rect(8.784204163081121e-09, 2.1909313480968204e-09).transl(-3.9990134462992536e-08, -4e-08, 0))
hIsland = hIsland.add(rect(6.695520760550081e-09, 2.166175355329717e-09).transl(-1.08791027147389e-07, -3.5514905495722773e-08, 0))
hIsland = hIsland.sub(rect(7.862980392241449e-09, -6.628185944451298e-09).transl(5.412803847349483e-08, -4e-08, 0))
hIsland = hIsland.sub(rect(3.1466601933054482e-09, -3.5822705740273895e-09).transl(9.538247252514239e-08, -4e-08, 0))
hIsland = hIsland.add(rect(8.258329515868574e-09, 3.0579181536610467e-09).transl(-9.864604548509026e-08, -4e-08, 0))
hIsland = hIsland.add(rect(8.186817524237637e-09, 2.1637336023391566e-09).transl(-5.71606150393263e-08, -4e-08, 0))
hIsland = hIsland.add(rect(2.6027263481838673e-09, 2.0182983560326975e-09).transl(1.0458555428221248e-07, -3.9821389037571316e-08, 0))
hIsland = hIsland.sub(rect(9.65829319401651e-09, -2.4332913936532984e-09).transl(-9.239567547832053e-08, -4e-08, 0))
hIsland = hIsland.sub(rect(9.712057713689733e-09, -1.945214937525323e-09).transl(2.7601331947309968e-08, -4e-08, 0))
hIsland = hIsland.sub(rect(4.547551460010258e-09, -1.2509769778385549e-09).transl(-1.1345772387850089e-07, -2.000944507699427e-08, 0))
hIsland = hIsland.add(rect(8.403408290192737e-09, 1.887776665914345e-09).transl(2.8997379337643615e-09, -4e-08, 0))
hIsland = hIsland.sub(rect(3.2439736328398663e-09, -1.1496545331708813e-09).transl(5.571826436666193e-08, -4e-08, 0))
hIsland = hIsland.add(rect(8.072509748932216e-09, 2.5544790877237296e-09).transl(-9.717447543233558e-08, -4e-08, 0))
hIsland = hIsland.sub(rect(6.878878872527978e-09, -2.964993472183168e-09).transl(5.929806867447922e-08, -4e-08, 0))
hIsland = hIsland.add(rect(5.238252796890646e-09, 3.6319574907730317e-10).transl(7.535380559045474e-09, -4e-08, 0))
hIsland = hIsland.add(rect(3.9856264937923455e-09, 7.940806937341553e-10).transl(-1.6535809195703328e-08, -4e-08, 0))
hIsland = hIsland.sub(rect(5.777794609167466e-09, -8.376921498099794e-10).transl(-7.38884545396386e-08, -4e-08, 0))
hIsland = hIsland.sub(rect(7.607421267253175e-09, -1.2942973800737848e-09).transl(5.120655943444421e-08, -4e-08, 0))
hIsland = hIsland.sub(rect(5.328012468787567e-09, -3.2540636366419865e-10).transl(-4.397203522331081e-08, -4e-08, 0))
hIsland = hIsland.add(rect(8.519119514317208e-09, 1.888529372254358e-09).transl(-1.0368011984350189e-07, -3.999509336136396e-08, 0))
hIsland = hIsland.sub(rect(6.473456759290118e-09, -2.3074209674672514e-09).transl(6.0328942115678375e-09, -4e-08, 0))
hIsland = hIsland.add(rect(6.055694149454006e-09, 1.6611076074933075e-09).transl(7.954712701925118e-08, -4e-08, 0))
hIsland = hIsland.sub(rect(5.6488707276854216e-09, -2.1700470495559255e-09).transl(2.1871612522327838e-08, -4e-08, 0))
hIsland = hIsland.add(rect(9.054028413191629e-09, 8.347765351497821e-10).transl(-5.570966028509538e-08, -4e-08, 0))
hIsland = hIsland.add(rect(5.1200194692397364e-09, 1.5124593997728504e-09).transl(-8.13179641666173e-08, -4e-08, 0))
hIsland = hIsland.sub(rect(3.210435420620435e-09, -1.358183352276635e-09).transl(-6.336419291833292e-08, -4e-08, 0))
hIsland = hIsland.sub(rect(3.6605882154033573e-09, -2.029747937157046e-09).transl(4.1616632902931864e-08, -4e-08, 0))
hIsland = hIsland.add(rect(6.0524638041526965e-09, 1.6297745950417525e-09).transl(1.3753201714532184e-08, -4e-08, 0))
hIsland = hIsland.sub(rect(4.2560041492569245e-09, -1.9984924829862015e-09).transl(9.608318766297522e-08, -4e-08, 0))
hIsland = hIsland.sub(rect(7.340594440135039e-09, -1.7512510625335985e-09).transl(6.857035387923695e-08, -4e-08, 0))
hIsland = hIsland.sub(rect(8.031648913479169e-09, -1.305794929429231e-09).transl(3.797134722433925e-08, -4e-08, 0))
hIsland = hIsland.sub(rect(3.2769645689028356e-09, -1.2618073096930614e-09).transl(6.849773326142027e-08, -4e-08, 0))
hIsland = hIsland.sub(rect(8.000294392676824e-09, -3.0030072157977384e-09).transl(5.860333334235547e-08, -4e-08, 0))
hIsland = hIsland.sub(rect(7.134348131053563e-09, -4.278657424523508e-10).transl(4.964268347871997e-08, -4e-08, 0))
hIsland = hIsland.add(rect(9.439017131707542e-09, 5.292354105369555e-10).transl(7.261305815803786e-08, -4e-08, 0))
hIsland = hIsland.sub(rect(2.2243920187196554e-09, -1.1174281458477191e-09).transl(-9.652632406187115e-08, -4e-08, 0))
hIsland = hIsland.sub(rect(6.547598844361558e-09, -9.853077269687694e-10).transl(4.60794465076445e-08, -4e-08, 0))
hIsland = hIsland.sub(rect(7.2591277340912506e-09, -3.528202096524178e-09).transl(-9.065736157547008e-09, -4e-08, 0))
hIsland = hIsland.add(rect(2.3570746461537047e-09, 2.2606136001576172e-09).transl(-6.497618564140699e-08, -4e-08, 0))
hIsland = hIsland.add(rect(4.372604872147289e-09, 4.385284492823899e-10).transl(-2.683443320983715e-08, -4e-08, 0))
hIsland = hIsland.add(rect(7.877611620278265e-09, 4.604814444504169e-10).transl(-7.032594861835185e-08, -4e-08, 0))
hIsland = hIsland.sub(rect(8.847487229711614e-09, -2.810306913368092e-10).transl(-4.132816738012747e-08, -4e-08, 0))
hIsland = hIsland.sub(rect(6.2998921773993045e-09, -1.559331937484154e-09).transl(-2.457992057810335e-09, -4e-08, 0))
hIsland = hIsland.sub(rect(6.50351227715889e-09, -2.501512462064367e-09).transl(6.288326712670441e-10, -4e-08, 0))
hIsland = hIsland.add(rect(7.331558962239324e-09, 2.7301873363889284e-09).transl(-4.4367562180128217e-08, -4e-08, 0))
hIsland = hIsland.add(rect(5.388952010574854e-09, 2.2738986791097764e-10).transl(-5.633751985495709e-09, -4e-08, 0))
hIsland = hIsland.sub(rect(6.184468631974842e-09, -9.54369481924838e-10).transl(-8.945079984806439e-08, -4e-08, 0))
hIsland = hIsland.sub(rect(9.811500346706924e-09, -2.3562398093452554e-09).transl(-8.66232224670542e-08, -4e-08, 0))
hIsland = hIsland.sub(rect(4.064508957236764e-09, -1.7833981237029857e-11).transl(-5.287864259271189e-08, -4e-08, 0))
hIsland = hIsland.add(rect(9.763089259462457e-09, 1.7637366649221177e-09).transl(4.0232599320316376e-08, -4e-08, 0))
hIsland = hIsland.add(rect(4.987628353730513e-09, 1.6857759434960208e-09).transl(9.194411323480537e-08, -4e-08, 0))
hIsland = hIsland.add(rect(9.95743918609016e-09, 1.8523896973449287e-09).transl(1.2783758910108062e-08, -4e-08, 0))
hIsland = hIsland.add(rect(5.58919412522637e-09, 8.73686122626481e-10).transl(3.317280879632206e-08, -4e-08, 0))
hIsland = hIsland.add(rect(5.150568835692616e-09, 4.5454033300303536e-10).transl(2.175646760977052e-09, -4e-08, 0))
hIsland = hIsland.add(rect(4.1521779751382415e-09, 1.665746909536306e-09).transl(-4.9184101674088415e-08, -4e-08, 0))
hIsland = hIsland.add(rect(9.654026678505925e-09, 3.355713402212684e-09).transl(6.408403257194215e-09, -4e-08, 0))
hIsland = hIsland.sub(rect(3.7235507708310555e-09, -6.880277233940266e-10).transl(1.0072967262108826e-07, -4e-08, 0))
hIsland = hIsland.sub(rect(6.641523205992162e-09, -4.169010617377597e-10).transl(-5.150015808589017e-08, -4e-08, 0))
hIsland = hIsland.add(rect(9.928022683249737e-09, 1.2545865872815814e-10).transl(6.338327015321138e-08, -4e-08, 0))
hIsland = hIsland.add(rect(7.373880108330606e-09, 1.944917015326189e-09).transl(-3.2889710052312866e-08, -4e-08, 0))
hIsland = hIsland.sub(rect(5.706382466006518e-09, -2.343874863350566e-09).transl(-7.936040372817991e-08, -4e-08, 0))
hIsland = hIsland.sub(rect(2.195065137477263e-09, -1.034903013906675e-09).transl(-8.431984529549528e-08, -4e-08, 0))
hIsland = hIsland.add(rect(5.754941099836447e-09, 2.1231235001647213e-09).transl(9.17699704476571e-09, -4e-08, 0))
hIsland = hIsland.sub(rect(6.020715199228931e-09, -2.0487047071696025e-09).transl(3.803613515242527e-08, -4e-08, 0))
hIsland = hIsland.sub(rect(9.022044455158722e-09, -1.3523053545293627e-09).transl(1.5640939301393266e-09, -4e-08, 0))
hIsland = hIsland.sub(rect(5.622399507617632e-09, -4.229666310117774e-10).transl(2.8815915060238675e-08, -4e-08, 0))
hIsland = hIsland.add(rect(9.647415322973178e-09, 6.204259087993877e-10).transl(-6.772347323512926e-08, -4e-08, 0))
hIsland = hIsland.add(rect(3.686604626695811e-09, 2.8802501310416553e-10).transl(-2.8776907155383695e-08, -4e-08, 0))
hIsland = hIsland.add(rect(6.127626305874204e-09, 2.6871530280711194e-10).transl(5.402768986973507e-08, -4e-08, 0))
hIsland = hIsland.sub(rect(9.551695359676028e-09, -2.7758505297428526e-10).transl(-7.192459204175727e-08, -4e-08, 0))
hIsland = hIsland.sub(rect(3.561939591859374e-09, -8.771258140446033e-10).transl(-9.094573984310412e-08, -4e-08, 0))
hIsland = hIsland.add(rect(2.3670460454885797e-09, 2.0540311831936406e-09).transl(6.663647948090725e-08, -4e-08, 0))
hIsland = hIsland.sub(rect(5.484991763385657e-09, -3.124973476527925e-09).transl(-9.0724898954794e-08, -4e-08, 0))
hIsland = hIsland.add(rect(9.217189667632644e-09, 1.5600167260572439e-09).transl(7.412617844275169e-08, -4e-08, 0))
hIsland = hIsland.add(rect(6.5009126345722685e-09, 4.657519166562467e-10).transl(-1.039752769633806e-07, -3.996582461537104e-08, 0))
hIsland = hIsland.sub(rect(6.127864778147403e-09, -7.715596163910927e-11).transl(2.2022019768509525e-08, -4e-08, 0))
hIsland = hIsland.sub(rect(6.506253239048468e-09, -7.757621684722371e-10).transl(5.9381434000158746e-08, 4e-08, 0))
hIsland = hIsland.sub(rect(6.02661521859152e-09, -2.0940348698460555e-09).transl(6.900032645651281e-08, 4e-08, 0))
hIsland = hIsland.sub(rect(3.088675144903416e-09, -4.465656167926122e-11).transl(-6.438882267475686e-08, 4e-08, 0))
hIsland = hIsland.sub(rect(4.636038010077911e-09, -2.8941945472989837e-09).transl(-2.606639523898989e-08, 4e-08, 0))
hIsland = hIsland.sub(rect(5.857517981168743e-09, -2.0460637251218423e-09).transl(1.007910010786469e-07, 4e-08, 0))
hIsland = hIsland.add(rect(6.374641941136307e-09, 7.681887638402742e-10).transl(3.73764724996813e-08, 4e-08, 0))
hIsland = hIsland.sub(rect(7.863688025852757e-09, -2.4159216047365398e-09).transl(-8.378958832041462e-08, 4e-08, 0))
hIsland = hIsland.sub(rect(6.646513687577749e-09, -2.3445630690723552e-09).transl(-6.551260107807409e-08, 4e-08, 0))
hIsland = hIsland.add(rect(6.891611495530737e-09, 7.405176507187337e-10).transl(-2.3255580728181365e-08, 4e-08, 0))
hIsland = hIsland.sub(rect(9.66110621968394e-09, -7.22658610280787e-10).transl(8.998960161173223e-08, 4e-08, 0))
hIsland = hIsland.sub(rect(6.352114987383687e-09, -8.075139331295376e-10).transl(8.861124865253833e-10, 4e-08, 0))
hIsland = hIsland.add(rect(2.973044118516679e-09, 2.7579328573755244e-09).transl(-4.2878610028860435e-09, 4e-08, 0))
hIsland = hIsland.add(rect(9.669646140474875e-09, 2.774289150985402e-09).transl(-2.677310411489301e-08, 4e-08, 0))
hIsland = hIsland.add(rect(4.462161775882699e-09, 2.405693911270908e-09).transl(-8.37625770474121e-08, 4e-08, 0))
hIsland = hIsland.sub(rect(3.372872190428484e-09, -3.2373673092721656e-09).transl(-8.995766057700173e-08, 4e-08, 0))
hIsland = hIsland.add(rect(3.080304078400996e-09, 1.528089510972149e-10).transl(5.6569766282450264e-09, 4e-08, 0))
hIsland = hIsland.sub(rect(5.473403948339036e-09, -6.108420009344011e-11).transl(8.179994228789856e-08, 4e-08, 0))
hIsland = hIsland.sub(rect(3.836426324436951e-09, -1.6857650830666266e-09).transl(-6.238877371406934e-08, 4e-08, 0))
hIsland = hIsland.sub(rect(8.355839956791262e-09, -2.828960556750622e-09).transl(-1.674471053483765e-08, 4e-08, 0))
hIsland = hIsland.add(rect(9.289047012989994e-09, 7.64252830766093e-10).transl(-6.778368330932956e-08, 4e-08, 0))
hIsland = hIsland.sub(rect(9.345229818840687e-09, -2.954431705720359e-09).transl(-3.194217840848858e-08, 4e-08, 0))
hIsland = hIsland.sub(rect(4.775551526827437e-09, -2.2707614531261477e-09).transl(8.594777496063857e-08, 4e-08, 0))
hIsland = hIsland.sub(rect(8.715127675657898e-09, -1.0683010095749242e-09).transl(9.107820270119813e-08, 4e-08, 0))
hIsland = hIsland.sub(rect(9.122323996014746e-09, -2.0044709497551302e-09).transl(-9.320397873895926e-09, 4e-08, 0))
hIsland = hIsland.add(rect(5.692140376851961e-09, 1.7066306783131524e-09).transl(8.050478513633335e-08, 4e-08, 0))
hIsland = hIsland.sub(rect(8.723120205529171e-09, -1.568450624491676e-09).transl(2.5074680474643523e-08, 4e-08, 0))
hIsland = hIsland.add(rect(9.904648727784484e-09, 4.751182538572077e-12).transl(-7.632778511619204e-09, 4e-08, 0))
hIsland = hIsland.sub(rect(8.809269805426187e-09, -5.908606977841756e-10).transl(-5.766597526539492e-08, 4e-08, 0))
hIsland = hIsland.sub(rect(9.888872409832574e-09, -1.671080741135329e-09).transl(4.308846105496619e-08, 4e-08, 0))
hIsland = hIsland.sub(rect(3.808360806704736e-09, -4.16207248654819e-09).transl(-4.3700047629526427e-08, 4e-08, 0))
hIsland = hIsland.add(rect(3.89057840284578e-09, 2.67042269937631e-09).transl(-6.368411692130675e-08, 4e-08, 0))
hIsland = hIsland.add(rect(9.648276752014634e-09, 1.9441649824994907e-09).transl(-7.82181227684973e-08, 4e-08, 0))
hIsland = hIsland.sub(rect(9.329490522825964e-09, -1.328492508491056e-09).transl(-2.4286567457022214e-09, 4e-08, 0))
hIsland = hIsland.add(rect(2.503501809314922e-09, 2.3957802240368846e-10).transl(-1.7685931687617977e-08, 4e-08, 0))
hIsland = hIsland.add(rect(6.506070576346893e-09, 1.8322332094432973e-09).transl(8.305281251503836e-09, 4e-08, 0))
hIsland = hIsland.add(rect(2.152713419434619e-09, 8.65198982861701e-10).transl(-5.8987267967520836e-08, 4e-08, 0))
hIsland = hIsland.sub(rect(6.302390399026435e-09, -1.6682235163707225e-09).transl(7.599537741296404e-08, 4e-08, 0))
hIsland = hIsland.sub(rect(6.311381768381581e-09, -1.7488205436324974e-09).transl(-3.1996344790716514e-08, 4e-08, 0))
hIsland = hIsland.add(rect(2.7852995116962298e-09, 2.734034045849486e-09).transl(-4.4544147881789034e-08, 4e-08, 0))
hIsland = hIsland.sub(rect(9.870247037633016e-09, -9.30396386967285e-11).transl(-7.008533084149816e-08, 4e-08, 0))
hIsland = hIsland.add(rect(7.302965500202917e-09, 2.4465177540201607e-09).transl(-2.4277783068309774e-09, 4e-08, 0))
hIsland = hIsland.sub(rect(6.910155422260214e-09, -1.4919732585854808e-09).transl(-5.41357029601856e-09, 4e-08, 0))
hIsland = hIsland.add(rect(3.9677114562286975e-09, 8.351982112014148e-10).transl(5.988380012509792e-08, 4e-08, 0))
hIsland = hIsland.add(rect(2.9978319114925178e-09, 2.6522560801542994e-09).transl(8.330835611542572e-08, 4e-08, 0))
hIsland = hIsland.add(rect(5.884124896633914e-09, 5.590864771302835e-10).transl(-5.528770832707113e-08, 4e-08, 0))
hIsland = hIsland.add(rect(9.439990141572232e-09, 4.122240215433011e-10).transl(-3.792028039031806e-08, 4e-08, 0))
hIsland = hIsland.sub(rect(8.851746165937009e-09, -5.223413425183711e-10).transl(4.831356432996523e-08, 4e-08, 0))
hIsland = hIsland.sub(rect(9.239624014577911e-09, -1.6505001215766139e-09).transl(4.5953017455964556e-08, 4e-08, 0))
hIsland = hIsland.sub(rect(5.550293227977873e-09, -5.943221801505168e-11).transl(-3.465633883715961e-08, 4e-08, 0))
hIsland = hIsland.add(rect(2.043576158982738e-09, 1.3109493543753058e-09).transl(9.680769989443209e-08, 4e-08, 0))
hIsland = hIsland.sub(rect(7.94933533471611e-09, -6.980803281860638e-10).transl(4.853348925950901e-08, 4e-08, 0))
hIsland = hIsland.sub(rect(2.658031395433228e-09, -9.372652115150177e-10).transl(7.195717883742455e-08, 4e-08, 0))
hIsland = hIsland.add(rect(2.0966124547379526e-09, 4.111505082399284e-09).transl(-4.867492979826991e-08, 4e-08, 0))
hIsland = hIsland.add(rect(5.2380918751322375e-09, 5.496882866736289e-11).transl(8.51640577199458e-08, 4e-08, 0))
hIsland = hIsland.add(rect(3.186041775620706e-09, 1.886932727583227e-09).transl(5.52918700328554e-08, 4e-08, 0))
hIsland = hIsland.sub(rect(5.8338951727926e-09, -4.211968221306141e-09).transl(1.1355703169119646e-07, 1.9399253917334205e-08, 0))
hIsland = hIsland.sub(rect(8.288313869844147e-09, -2.6336933719445004e-09).transl(-9.570511364974003e-10, 4e-08, 0))
hIsland = hIsland.sub(rect(4.135518058363625e-09, -4.5764072099879007e-10).transl(-1.0317824398147128e-07, 4e-08, 0))
hIsland = hIsland.sub(rect(7.449204057805425e-09, -2.3336150362781747e-09).transl(-8.5575480089209e-08, 4e-08, 0))
hIsland = hIsland.sub(rect(8.53884051143421e-09, -3.770181660273689e-09).transl(6.784865414282601e-08, 4e-08, 0))
hIsland = hIsland.add(rect(9.933963528484022e-09, 4.228080909015644e-10).transl(-8.721735328888533e-08, 4e-08, 0))
hIsland = hIsland.add(rect(5.494076791656987e-09, 1.5797024757784921e-09).transl(-8.051968562775608e-08, 4e-08, 0))
hIsland = hIsland.sub(rect(4.8984356247054e-09, -1.6347368588230483e-09).transl(-8.961395776521577e-08, 4e-08, 0))
hIsland = hIsland.sub(rect(7.869415790727857e-09, -9.278477670012584e-10).transl(-6.348397114671302e-08, 4e-08, 0))
hIsland = hIsland.sub(rect(3.72874451947627e-09, -2.0743445708874593e-09).transl(-9.048640232103021e-08, 4e-08, 0))
hIsland = hIsland.sub(rect(5.475250164370762e-09, -1.540189818023408e-09).transl(-5.2057282263987365e-08, 4e-08, 0))
hIsland = hIsland.sub(rect(9.619565509940966e-09, -1.4113248339895823e-09).transl(-8.66580160508881e-08, 4e-08, 0))
hIsland = hIsland.add(rect(8.777060943465399e-09, 1.1896459691746875e-09).transl(-2.638806528864594e-09, 4e-08, 0))
hIsland = hIsland.sub(rect(6.443674232261812e-09, -7.827180581637462e-10).transl(-5.698700572760833e-08, 4e-08, 0))
hIsland = hIsland.add(rect(7.79870002077552e-09, 3.803113597312967e-09).transl(5.3419709459040864e-08, 4e-08, 0))
hIsland = hIsland.add(rect(5.310829779577643e-09, 1.8534329216254575e-09).transl(-4.4257707371415564e-08, 4e-08, 0))
hIsland = hIsland.add(rect(5.368223260136388e-09, 4.7120210140455354e-09).transl(-5.156221166198017e-08, 4e-08, 0))
hIsland = hIsland.add(rect(6.674965830876768e-09, 1.1537836315471493e-09).transl(-1.2301417376916548e-08, 4e-08, 0))
hIsland = hIsland.add(rect(6.993016221223531e-09, 2.4026627327804234e-10).transl(7.525605557917853e-08, 4e-08, 0))
hIsland = hIsland.sub(rect(5.319769918962867e-09, -1.5881977148766852e-09).transl(-1.1034597385412233e-08, 4e-08, 0))
hIsland = hIsland.add(rect(5.508646553871695e-09, 1.534877597784253e-09).transl(-7.819055718766729e-08, 4e-08, 0))
hIsland = hIsland.sub(rect(2.2707312071131813e-09, -1.064897136842725e-09).transl(4.4460481928506254e-08, 4e-08, 0))
hIsland = hIsland.add(rect(5.5171192179122726e-09, 5.097931860830817e-09).transl(-1.1418284552142491e-08, 4e-08, 0))
hIsland = hIsland.add(rect(4.300184253474176e-09, 5.775575024978158e-10).transl(-9.286382919075393e-08, 4e-08, 0))
hIsland = hIsland.add(rect(5.786197617917269e-09, 6.584254131753244e-10).transl(-5.428427105634352e-08, 4e-08, 0))
hIsland = hIsland.add(rect(2.101202187794443e-09, 1.6927789665214478e-09).transl(-3.128526567518398e-08, 4e-08, 0))
hIsland = hIsland.sub(rect(2.1403148893372394e-09, -7.881733115169358e-10).transl(-4.142272459857561e-08, 4e-08, 0))
hIsland = hIsland.sub(rect(3.7285738915554625e-09, -9.091308362416046e-10).transl(-1.1169032483880895e-08, 4e-08, 0))
hIsland = hIsland.sub(rect(6.30933808128772e-09, -1.474389040132349e-10).transl(8.95332829903581e-08, 4e-08, 0))
hIsland = hIsland.add(rect(3.808363461356957e-09, 9.855790154629214e-10).transl(6.583972955176802e-08, 4e-08, 0))
hIsland = hIsland.add(rect(2.8548561222192924e-09, 1.380174417879333e-09).transl(3.5014093133305613e-08, 4e-08, 0))
hIsland = hIsland.sub(rect(4.361339756939182e-09, -1.306811717016246e-09).transl(-3.542089255431497e-08, 4e-08, 0))
hIsland = hIsland.sub(rect(6.521886946202163e-09, -2.775822593742704e-09).transl(5.430867895432784e-08, 4e-08, 0))
hIsland = hIsland.sub(rect(7.434596035751338e-09, -8.407763697769213e-10).transl(3.906736741831659e-08, 4e-08, 0))
hIsland = hIsland.sub(rect(4.526044681929738e-09, -5.917926037002914e-10).transl(7.398182746492954e-08, 4e-08, 0))
hIsland = hIsland.sub(rect(3.609044321011422e-09, -1.2956239559566427e-09).transl(8.245786286396846e-09, 4e-08, 0))
hIsland = hIsland.add(rect(7.945141469884051e-09, 6.245089667647896e-10).transl(1.1202284779340165e-07, 2.6855026992043697e-08, 0))
hIsland = hIsland.sub(rect(5.649381318825421e-09, -3.017012757523617e-09).transl(8.028122868601813e-08, 4e-08, 0))
hIsland = hIsland.sub(rect(3.0096190745904024e-09, -1.1059897318036562e-09).transl(9.641977841123426e-08, 4e-08, 0))
hIsland = hIsland.sub(rect(3.813337541441204e-09, -3.0750988294065966e-09).transl(-2.0223302177567665e-08, 4e-08, 0))
hIsland = hIsland.sub(rect(7.1260905806656015e-09, -5.02255033287796e-10).transl(-1.0398069953326332e-07, 3.9965039990330974e-08, 0))
hIsland = hIsland.add(rect(3.657929249437631e-09, 5.601539488383542e-09).transl(-1.9225779714586795e-08, 4e-08, 0))
hIsland = hIsland.add(rect(4.603811841668719e-09, 1.2535702135485473e-09).transl(2.1377782488950455e-08, 4e-08, 0))
hIsland = hIsland.add(rect(7.540188689223396e-09, 1.4555408673392537e-09).transl(7.00732812084037e-09, 4e-08, 0))
hIsland = hIsland.add(rect(3.0333299690849025e-09, 2.5115895679456477e-09).transl(-6.336378624695332e-08, 4e-08, 0))
hIsland = hIsland.sub(rect(5.406267189871942e-09, -3.34906582116443e-09).transl(7.025264059573789e-10, 4e-08, 0))
hIsland = hIsland.add(rect(4.681456329341689e-09, 5.866027580342074e-10).transl(-4.678939354376137e-08, 4e-08, 0))
hIsland = hIsland.sub(rect(8.84775081462026e-09, -2.010074189935106e-09).transl(1.0078766947551946e-07, 4e-08, 0))
hIsland = hIsland.sub(rect(6.1233905485195585e-09, -2.0273097831962312e-09).transl(3.0030643060232078e-09, 4e-08, 0))
hIsland = hIsland.sub(rect(8.138766686021054e-09, -4.008424514213416e-09).transl(-1.0615604101426359e-08, 4e-08, 0))
hIsland = hIsland.add(rect(7.419313435377346e-09, 1.469163056194632e-09).transl(-5.699930689064244e-08, 4e-08, 0))
hIsland = hIsland.sub(rect(2.4696060857527976e-09, -3.961597393237475e-09).transl(4.5178266692300537e-08, 4e-08, 0))
hIsland = hIsland.sub(rect(3.425143021684373e-09, -3.530491636006015e-10).transl(6.548589459356794e-08, 4e-08, 0))
hIsland = hIsland.sub(rect(6.938562516717919e-09, -3.2040138034681956e-10).transl(-9.728077866858241e-08, 4e-08, 0))
hIsland = hIsland.sub(rect(6.963245913165772e-09, -4.3762242122116964e-10).transl(1.0389533276722291e-07, 3.997635777724926e-08, 0))
hIsland = hIsland.sub(rect(9.515664737469665e-09, -6.097031107398312e-09).transl(-9.571377326243933e-08, 4e-08, 0))
hIsland = hIsland.sub(rect(9.154436228730842e-09, -3.697878293950466e-10).transl(-2.991700732129954e-08, 4e-08, 0))
hIsland = hIsland.sub(rect(7.49947823321848e-09, -3.4240691752026256e-09).transl(-1.0720493234614902e-07, 3.786730009665946e-08, 0))
hIsland = hIsland.sub(rect(2.5345276991113483e-09, -5.853935170989008e-10).transl(-8.072020905053918e-08, 4e-08, 0))
hIsland = hIsland.add(rect(8.251802940022347e-09, 2.222494339327819e-09).transl(-1.0659157101205189e-07, 3.852748037341225e-08, 0))
hIsland = hIsland.sub(rect(6.478834950989656e-09, -6.953284528034462e-10).transl(8.14451813409135e-08, 4e-08, 0))
hIsland = hIsland.sub(rect(8.816430315873972e-09, -1.5689746628465128e-09).transl(8.10206415756677e-08, 4e-08, 0))
hIsland = hIsland.sub(rect(5.668911092472328e-09, -2.7819542754227695e-09).transl(5.631256799951436e-08, 4e-08, 0))
hIsland = hIsland.sub(rect(2.830098873298517e-09, -2.65660200839528e-11).transl(-4.992433458035791e-08, 4e-08, 0))
hIsland = hIsland.add(rect(9.583921940212585e-09, 1.1236130762004547e-09).transl(3.6796669599277318e-09, 4e-08, 0))
hIsland = hIsland.sub(rect(9.11300908640155e-09, -2.979152357146801e-09).transl(-4.2723617665933445e-08, 4e-08, 0))
hIsland = hIsland.add(rect(5.0629572141702375e-09, 1.2504691451978303e-09).transl(-6.680263207346789e-08, 4e-08, 0))
hIsland = hIsland.sub(rect(4.717519406900908e-09, -5.363032862646457e-10).transl(-8.665424775788884e-08, 4e-08, 0))
hIsland = hIsland.sub(rect(6.447818393140365e-09, -1.5623783696440294e-09).transl(3.2098950998093815e-08, 4e-08, 0))
hIsland = hIsland.sub(rect(4.103908467500583e-09, -5.279793259648051e-09).transl(9.805989192477283e-08, 4e-08, 0))
hIsland = hIsland.sub(rect(7.826477153386088e-09, -1.357795906696493e-09).transl(1.0742008155303919e-07, 3.760432113166547e-08, 0))
hIsland = hIsland.sub(rect(7.004859137523377e-09, -4.355688909112868e-09).transl(-1.9110138509257438e-08, 4e-08, 0))
hIsland = hIsland.add(rect(5.099125762755252e-09, 4.130111556810185e-09).transl(1.1183246966355905e-07, 2.7568360661464812e-08, 0))
hIsland = hIsland.add(rect(3.4076865824854787e-09, 1.0436912731828754e-09).transl(-3.2253486749125356e-08, 4e-08, 0))
hIsland = hIsland.sub(rect(4.168620849718201e-09, -2.269416651788946e-09).transl(1.5562111809140236e-08, 4e-08, 0))
hIsland = hIsland.add(rect(2.537246124547588e-09, 1.2623668519483607e-09).transl(5.7882557282969856e-08, 4e-08, 0))
hIsland = hIsland.add(rect(9.08987308808943e-09, 2.671922010513466e-09).transl(8.477462428965369e-08, 4e-08, 0))
hIsland = hIsland.sub(rect(2.639843547793769e-09, -9.526317146216926e-10).transl(8.15326489855964e-09, 4e-08, 0))
hIsland = hIsland.sub(rect(9.2839991692106e-09, -2.2072497623217032e-09).transl(5.992630440906442e-08, 4e-08, 0))
hIsland = hIsland.add(rect(8.326684058471135e-09, 3.438408511081423e-09).transl(1.8147326676596606e-08, 4e-08, 0))
hIsland = hIsland.sub(rect(7.485250366836175e-09, -2.2348150397575267e-09).transl(6.125304959368025e-08, 4e-08, 0))
hIsland = hIsland.add(rect(6.8622552062351435e-09, 2.1455878093069118e-09).transl(-3.935900758163745e-08, 4e-08, 0))
hIsland = hIsland.sub(rect(9.821442759733324e-09, -9.664738776794203e-10).transl(-1.1415945290277416e-07, 1.5011451734871746e-08, 0))
hIsland = hIsland.add(rect(5.881835354453756e-09, 1.5648393365306371e-09).transl(-6.887238469017062e-08, 4e-08, 0))
hIsland = hIsland.add(rect(3.6746782159481512e-09, 6.460560791156055e-10).transl(1.0901114251307153e-07, 3.51075789964819e-08, 0))
hIsland = hIsland.sub(rect(9.096516372778525e-09, -3.122733090213979e-09).transl(-3.950697077122086e-08, 4e-08, 0))
hIsland = hIsland.add(rect(9.145295017574036e-09, 4.37383415097349e-09).transl(3.193378256940819e-08, 4e-08, 0))
hIsland = hIsland.sub(rect(9.695168770652578e-09, -1.3236920244745003e-09).transl(1.0311658948548546e-07, 4e-08, 0))
hIsland = hIsland.add(rect(3.961927865580002e-09, 5.4982144443121e-10).transl(7.524100882222508e-09, 4e-08, 0))
hIsland = hIsland.add(rect(2.096338371355839e-09, 2.6193381956346875e-09).transl(-2.8339771944293655e-09, 4e-08, 0))
hIsland = hIsland.add(rect(8.259517491934277e-09, 1.5303209738898246e-09).transl(7.687941393340733e-08, 4e-08, 0))
hIsland = hIsland.add(rect(2.9231261851384567e-09, 1.454352982183916e-10).transl(-7.13598186590694e-08, 4e-08, 0))
hIsland = hIsland.add(rect(2.2574258480835843e-09, 1.0313687176050745e-09).transl(-7.673907244731899e-08, 4e-08, 0))
hIsland = hIsland.sub(rect(2.7105799968151205e-09, -4.2831031512814703e-10).transl(-3.139234570984491e-08, 4e-08, 0))
hIsland = hIsland.sub(rect(6.352552748176791e-09, -1.056054908949361e-09).transl(3.087374420037103e-08, 4e-08, 0))
hIsland = hIsland.sub(rect(7.731938975277406e-09, -4.700107176827847e-10).transl(6.057008704725098e-08, 4e-08, 0))
hIsland = hIsland.sub(rect(5.237740866217603e-09, -4.12614775436731e-10).transl(4.550943613154158e-08, 4e-08, 0))
hIsland = hIsland.add(rect(6.003335373685269e-09, 8.931148658811287e-10).transl(2.3047978938467965e-08, 4e-08, 0))
hIsland = hIsland.sub(rect(8.629699847618444e-09, -2.7801152756338808e-09).transl(-9.961584136433004e-08, 4e-08, 0))
hIsland = hIsland.sub(rect(5.898938144336844e-09, -9.19834679831313e-10).transl(-1.0885872785356972e-07, 3.539188732200144e-08, 0))
hIsland = hIsland.add(rect(4.121867317446843e-09, 3.364974198866782e-10).transl(7.866393358518528e-08, 4e-08, 0))
hIsland = hIsland.sub(rect(4.605691546916653e-09, -1.703785938822164e-09).transl(-9.528233008043957e-09, 4e-08, 0))
hIsland = hIsland.sub(rect(4.966680916382378e-09, -1.438397268721501e-09).transl(4.747114186205809e-08, 4e-08, 0))
hIsland = hIsland.add(rect(3.3892646901925734e-09, 2.8881912381740926e-09).transl(-5.0598921525131436e-08, 4e-08, 0))
hIsland = hIsland.add(rect(7.925631499781142e-09, 2.2445146146035717e-09).transl(5.150318429409605e-09, 4e-08, 0))
hIsland = hIsland.add(rect(5.16605859116559e-09, 6.361691880211161e-10).transl(-1.0861119602688031e-07, 3.583211011838919e-08, 0))
hIsland = hIsland.add(rect(8.43360555170635e-09, 4.823420255540857e-09).transl(9.22322368552767e-08, 4e-08, 0))
hIsland = hIsland.add(rect(9.095709051328295e-09, 2.4953541579636087e-09).transl(6.288923886957251e-08, 4e-08, 0))
hIsland = hIsland.add(rect(7.617983936797246e-09, 1.9546910308247896e-10).transl(-1.1483565164331227e-07, 6.738318556624463e-09, 0))
hIsland = hIsland.sub(rect(8.333795914883968e-09, -1.709599865695174e-09).transl(-7.030227486838639e-09, 4e-08, 0))
hIsland = hIsland.sub(rect(8.010499975214344e-09, -2.592662749838122e-09).transl(-5.009421388370048e-08, 4e-08, 0))
hIsland = hIsland.add(rect(9.797184183606679e-09, 1.0801254719552159e-09).transl(9.731930391137634e-08, 4e-08, 0))
hIsland = hIsland.sub(rect(2.1275016159334152e-09, -1.9544924853627718e-09).transl(9.978703399867475e-08, 4e-08, 0))
hIsland = hIsland.add(rect(5.793452095907559e-09, 1.3516589195246021e-09).transl(3.0833219343984126e-08, 4e-08, 0))
hIsland = hIsland.sub(rect(2.0352298813901292e-09, -4.16425995806749e-09).transl(9.90617921618883e-08, 4e-08, 0))
hIsland = hIsland.sub(rect(8.29507120334043e-09, -3.784832308026184e-09).transl(2.3872647832318643e-08, 4e-08, 0))
hIsland = hIsland.sub(rect(9.339045716755744e-09, -1.914487168962785e-09).transl(-9.231222075179504e-08, 4e-08, 0))
hIsland = hIsland.add(rect(4.373924872025291e-09, 1.3935893442068914e-09).transl(1.0384247867120053e-07, 3.9982258199159346e-08, 0))
hIsland = hIsland.sub(rect(4.397894223713566e-09, -1.0350244415715213e-09).transl(-1.0344437671251614e-07, 4e-08, 0))
hIsland = hIsland.sub(rect(3.903694552649494e-09, -1.4388192525263845e-10).transl(-7.668954019770708e-08, 4e-08, 0))
hIsland = hIsland.sub(rect(8.79400785445859e-09, -1.2077955355377387e-09).transl(7.059025760705023e-08, 4e-08, 0))
hIsland = hIsland.sub(rect(5.070422142031697e-09, -1.8134542960755776e-09).transl(5.5439930720197343e-08, 4e-08, 0))
hIsland = hIsland.sub(rect(3.2035428116679106e-09, -9.7867328111773e-10).transl(-2.9776422104466145e-08, 4e-08, 0))
hIsland = hIsland.sub(rect(3.2303479710579933e-09, -3.2419551482437395e-10).transl(1.0943835920812302e-07, 3.425440502512875e-08, 0))
hIsland = hIsland.add(rect(2.604746521581266e-09, 4.786147327985945e-10).transl(1.130582272707655e-07, 2.224191895554864e-08, 0))
hIsland = hIsland.sub(rect(8.559831543704089e-09, -1.684538750091511e-09).transl(-6.963794067851554e-08, 4e-08, 0))
hIsland = hIsland.add(rect(4.039643063634813e-09, 7.25535527066494e-10).transl(-3.596836462635435e-08, 4e-08, 0))
hIsland = hIsland.add(rect(6.2764946007995056e-09, 2.1906363185193634e-10).transl(-5.8531431273226007e-08, 4e-08, 0))
hIsland = hIsland.sub(rect(5.403656703977582e-09, -1.7047064143433115e-09).transl(2.490050427173097e-08, 4e-08, 0))
hIsland = hIsland.sub(rect(7.708164654627871e-09, -2.2139567347082723e-10).transl(2.739746872408701e-08, 4e-08, 0))
hIsland = hIsland.sub(rect(5.790516804669749e-09, -4.864235862636806e-09).transl(-8.831933922967031e-08, 4e-08, 0))
hIsland = hIsland.sub(rect(3.517293436948325e-09, -1.2572722138022141e-09).transl(8.719511996131314e-08, 4e-08, 0))
hIsland = hIsland.add(rect(7.962520685085169e-09, 8.014602365254659e-10).transl(1.022057347560939e-07, 4e-08, 0))
hIsland = hIsland.add(rect(6.702723942949183e-09, 9.94714957644485e-10).transl(7.239015679765337e-08, 4e-08, 0))
hIsland = hIsland.sub(rect(2.6546562878663176e-09, -8.829090365713542e-10).transl(-1.7573707162562078e-09, 4e-08, 0))
hIsland = hIsland.sub(rect(7.83687722702003e-09, -9.776231575477296e-10).transl(1.2616820279331847e-08, 4e-08, 0))
hIsland = hIsland.add(rect(7.972022223988032e-09, 1.3513827130355488e-09).transl(2.8955934653642974e-08, 4e-08, 0))
hIsland = hIsland.add(rect(9.891593197388915e-09, 1.6530009808672515e-09).transl(3.513590286763874e-08, 4e-08, 0))
hIsland = hIsland.add(rect(9.189312686773633e-09, 8.051454784594024e-10).transl(3.2198739555076005e-08, 4e-08, 0))
hIsland = hIsland.sub(rect(5.61214758132232e-09, -1.3853822904448357e-09).transl(3.525775694585059e-08, 4e-08, 0))
hIsland = hIsland.add(rect(2.4765245950373215e-09, 5.541879416296926e-11).transl(-1.5695947285454553e-08, 4e-08, 0))
hIsland = hIsland.sub(rect(7.147142415907459e-09, -2.7743114867736713e-09).transl(3.9417641583847645e-08, 4e-08, 0))
hIsland = hIsland.add(rect(7.946089769936512e-09, 6.465448573054743e-10).transl(9.143270409969245e-08, 4e-08, 0))
hIsland = hIsland.sub(rect(6.435295549257011e-09, -1.3209744918174157e-09).transl(1.167243923158048e-08, 4e-08, 0))
hIsland = hIsland.add(rect(8.805657377165414e-09, 2.974405398268245e-09).transl(1.0053001213983789e-07, 4e-08, 0))
vIsland = hIsland.rotz(pi / 2)
hIslands = hIslands.add(hIsland.transl(-a/2, a, 0))
hIsland = rect(islandLength-2*ellipseConstant, islandWidth)
hIsland = hIsland.add(ellipse(ellipseConstant*2, islandWidth).transl(islandLength/2-ellipseConstant, 0, 0))
hIsland = hIsland.add(ellipse(ellipseConstant*2, islandWidth).transl(-islandLength/2+ellipseConstant, 0, 0))
hIsland = hIsland.sub(rect(8.267108921552969e-09, -9.078772735895896e-10).transl(7.346943236398026e-10, -4e-08, 0))
hIsland = hIsland.add(rect(5.043589822426381e-09, 1.8841613892427542e-09).transl(6.402720703207749e-08, -4e-08, 0))
hIsland = hIsland.add(rect(8.21971255291723e-09, 3.652464088260006e-10).transl(6.102278479241315e-08, -4e-08, 0))
hIsland = hIsland.add(rect(6.0402818797103774e-09, 6.983847057332053e-10).transl(-7.049931657030596e-08, -4e-08, 0))
hIsland = hIsland.sub(rect(4.982423635290985e-09, -7.335995301569351e-10).transl(7.538106690322131e-08, -4e-08, 0))
hIsland = hIsland.add(rect(8.662059265070106e-09, 9.94990633948884e-10).transl(9.778855160588742e-08, -4e-08, 0))
hIsland = hIsland.add(rect(3.4535567252310485e-09, 1.9735200823521344e-09).transl(-5.762682467357181e-08, -4e-08, 0))
hIsland = hIsland.sub(rect(3.321222670012038e-09, -2.302936564185719e-10).transl(-4.466024644635293e-08, -4e-08, 0))
hIsland = hIsland.sub(rect(4.845050856177458e-09, -1.2757693760096987e-09).transl(6.486176157446618e-08, -4e-08, 0))
hIsland = hIsland.sub(rect(9.676468015131106e-09, -1.069339003423578e-09).transl(-6.115892109151575e-08, -4e-08, 0))
hIsland = hIsland.add(rect(3.961428403476938e-09, 1.3623518431516254e-09).transl(1.070327352628997e-07, -3.806587171981246e-08, 0))
hIsland = hIsland.sub(rect(2.7135156978110475e-09, -1.1882565634839232e-09).transl(2.8755287722678138e-08, -4e-08, 0))
hIsland = hIsland.sub(rect(3.3979511022583095e-09, -2.8026116074339964e-09).transl(-7.92577514550581e-08, -4e-08, 0))
hIsland = hIsland.sub(rect(4.951185380283733e-09, -2.8634708248917697e-09).transl(-1.0829614471927968e-07, -3.635523050552321e-08, 0))
hIsland = hIsland.add(rect(2.3131883486843095e-09, 1.7494513571159674e-09).transl(-3.0084651897316726e-08, -4e-08, 0))
hIsland = hIsland.add(rect(7.790095678638037e-09, 1.024659525531853e-09).transl(-7.694287914989112e-08, -4e-08, 0))
hIsland = hIsland.add(rect(6.083972169527072e-09, 9.951912018267164e-10).transl(-1.0080137314978587e-07, -4e-08, 0))
hIsland = hIsland.add(rect(6.346576103252513e-09, 8.184240333008082e-10).transl(2.7815224791351893e-09, -4e-08, 0))
hIsland = hIsland.sub(rect(4.8878023832883604e-09, -1.7951028287124701e-09).transl(-1.0521391997882402e-07, -3.955326769280678e-08, 0))
hIsland = hIsland.sub(rect(2.6270601229198966e-09, -2.1446102904827495e-10).transl(-7.697052894249985e-08, -4e-08, 0))
hIsland = hIsland.add(rect(4.465224067772824e-09, 3.2881862322261245e-09).transl(-7.124504501559941e-08, -4e-08, 0))
hIsland = hIsland.sub(rect(4.722223758198059e-09, -9.096307756173726e-10).transl(3.5800322052036774e-08, -4e-08, 0))
hIsland = hIsland.sub(rect(9.81892132243709e-09, -1.692981998048876e-09).transl(-1.1206337979568177e-07, -2.669857544677941e-08, 0))
hIsland = hIsland.add(rect(9.695725902792939e-09, 1.326573175897779e-09).transl(9.07980230530336e-09, -4e-08, 0))
hIsland = hIsland.add(rect(2.0832283258037416e-09, 5.358111213807664e-10).transl(-8.855886215371636e-08, -4e-08, 0))
hIsland = hIsland.sub(rect(6.532963228955315e-09, -2.5889485025627827e-09).transl(-1.7943818981770366e-08, -4e-08, 0))
hIsland = hIsland.sub(rect(5.713609712425229e-09, -3.6178007775144347e-10).transl(5.6965202659042666e-08, -4e-08, 0))
hIsland = hIsland.sub(rect(2.842824673469928e-09, -1.3466985158216432e-10).transl(-2.257111613389731e-08, -4e-08, 0))
hIsland = hIsland.sub(rect(5.538523990552276e-09, -3.2321090356718765e-09).transl(3.6009388051238154e-08, -4e-08, 0))
hIsland = hIsland.sub(rect(8.568064554712017e-09, -6.423776757005046e-11).transl(-7.681232304180208e-08, -4e-08, 0))
hIsland = hIsland.add(rect(6.173572367126999e-09, 2.134778021656916e-09).transl(-4.198751452836543e-08, -4e-08, 0))
hIsland = hIsland.sub(rect(9.55643324558689e-09, -1.9072377971738967e-09).transl(-7.3933355213088e-08, -4e-08, 0))
hIsland = hIsland.add(rect(3.886062051356672e-09, 2.363449908631553e-09).transl(1.0370246847514487e-07, -3.9993800126940854e-08, 0))
hIsland = hIsland.sub(rect(8.156096639082919e-09, -1.2423103433330607e-09).transl(2.1544249438760473e-09, -4e-08, 0))
hIsland = hIsland.add(rect(9.935325857482793e-09, 1.4963804464700856e-09).transl(-3.7576101355570205e-08, -4e-08, 0))
hIsland = hIsland.add(rect(3.657353601689043e-09, 1.3797362450015704e-09).transl(4.2522031207525635e-08, -4e-08, 0))
hIsland = hIsland.add(rect(2.02501636073613e-09, 9.693904874422364e-10).transl(1.0001996230761686e-07, -4e-08, 0))
hIsland = hIsland.add(rect(6.191834567040303e-09, 3.2308887742612815e-10).transl(-8.450566029687537e-08, -4e-08, 0))
hIsland = hIsland.sub(rect(4.3848447180012345e-09, -2.835571348303471e-10).transl(-5.9068869130816164e-08, -4e-08, 0))
hIsland = hIsland.sub(rect(7.172922287334655e-09, -1.9742812697302746e-09).transl(-9.252224298752908e-08, -4e-08, 0))
hIsland = hIsland.add(rect(9.682615359527116e-09, 1.7282900219701785e-09).transl(1.1014554314044531e-07, -3.2645059166922355e-08, 0))
hIsland = hIsland.sub(rect(9.527051197348103e-09, -2.5238657240160333e-09).transl(-9.205867050312976e-08, -4e-08, 0))
hIsland = hIsland.add(rect(8.405563872350194e-09, 2.310211021523293e-09).transl(-4.3588661256219706e-08, -4e-08, 0))
hIsland = hIsland.sub(rect(3.264829333734812e-09, -3.0528551458738286e-09).transl(1.2022025785031762e-08, -4e-08, 0))
hIsland = hIsland.sub(rect(2.103691627402057e-09, -1.5224301151095597e-10).transl(1.0819273497590063e-07, -3.6518134554370014e-08, 0))
hIsland = hIsland.add(rect(2.4689236169833126e-09, 6.30804863601273e-10).transl(3.323931291230228e-08, -4e-08, 0))
hIsland = hIsland.sub(rect(7.82789688774183e-09, -2.465685984743439e-09).transl(9.460394150228928e-08, -4e-08, 0))
hIsland = hIsland.add(rect(5.103492531653884e-09, 3.922399438246916e-09).transl(2.0471720958887476e-08, -4e-08, 0))
hIsland = hIsland.sub(rect(2.166200406396689e-09, -2.7866940674864485e-09).transl(1.3282752478909968e-08, -4e-08, 0))
hIsland = hIsland.add(rect(3.39917888469987e-09, 5.795491336878479e-10).transl(-8.99660052323307e-08, -4e-08, 0))
hIsland = hIsland.sub(rect(9.334462081850305e-09, -2.43152183758409e-09).transl(-6.966051626197454e-08, -4e-08, 0))
hIsland = hIsland.sub(rect(2.115875792294802e-09, -3.1301449078890726e-09).transl(-7.094850706769378e-08, -4e-08, 0))
hIsland = hIsland.add(rect(6.6483838320314394e-09, 2.736105149516358e-09).transl(-9.881396924708776e-08, -4e-08, 0))
hIsland = hIsland.add(rect(7.145057039903138e-09, 6.2230800580928435e-09).transl(-4.846702520500911e-08, -4e-08, 0))
hIsland = hIsland.add(rect(7.523388644174337e-09, 1.3052366620386217e-09).transl(-1.8013862588435106e-08, -4e-08, 0))
hIsland = hIsland.sub(rect(7.65286921154355e-09, -1.7156247141355569e-09).transl(-9.880860316604663e-08, -4e-08, 0))
hIsland = hIsland.sub(rect(9.064934968243965e-09, -1.6699670992429586e-09).transl(7.512320735487355e-09, -4e-08, 0))
hIsland = hIsland.sub(rect(3.2612489738843478e-09, -2.078636886536904e-09).transl(-8.68278040635488e-09, -4e-08, 0))
hIsland = hIsland.sub(rect(4.4859759492441035e-09, -2.1121087948441974e-09).transl(-6.911839601974789e-09, -4e-08, 0))
hIsland = hIsland.add(rect(7.748525203664727e-09, 3.4807559341033316e-10).transl(8.58543912247057e-08, -4e-08, 0))
hIsland = hIsland.add(rect(3.828133700078249e-09, 2.056611836976562e-09).transl(6.314913618360828e-09, -4e-08, 0))
hIsland = hIsland.add(rect(9.046080371544914e-09, 3.282536508837428e-10).transl(1.101446299461467e-07, -3.264730799221042e-08, 0))
hIsland = hIsland.add(rect(5.966059781077139e-09, 3.6171847788114088e-09).transl(-1.4633138870293326e-08, -4e-08, 0))
hIsland = hIsland.sub(rect(5.441210801255898e-09, -1.9742297567624753e-09).transl(-3.172817309629446e-08, -4e-08, 0))
hIsland = hIsland.add(rect(5.1637981042112684e-09, 1.0902916290861749e-09).transl(2.6697360337184652e-08, -4e-08, 0))
hIsland = hIsland.sub(rect(4.54796409518784e-09, -1.4564638719019786e-09).transl(5.058299113286227e-08, -4e-08, 0))
hIsland = hIsland.sub(rect(9.51638615860178e-09, -1.0346517138761015e-09).transl(-1.1149973155673778e-07, -2.873605482881207e-08, 0))
hIsland = hIsland.sub(rect(2.089961088127339e-09, -1.129112755386139e-09).transl(3.125974274906199e-08, -4e-08, 0))
hIsland = hIsland.add(rect(6.770353824134659e-09, 4.631152081469394e-11).transl(-9.541764456443719e-08, -4e-08, 0))
hIsland = hIsland.sub(rect(7.68449014132392e-09, -8.93314847548168e-10).transl(-3.485706956258735e-08, -4e-08, 0))
hIsland = hIsland.sub(rect(8.887012532290007e-09, -3.288322998167145e-09).transl(7.801330955368631e-10, -4e-08, 0))
hIsland = hIsland.add(rect(4.015255536871033e-09, 2.301436341546867e-09).transl(-1.3274957039755115e-08, -4e-08, 0))
hIsland = hIsland.sub(rect(9.474164755263022e-09, -9.068468086607161e-10).transl(-2.9743489879032122e-08, -4e-08, 0))
hIsland = hIsland.add(rect(3.0609109595448055e-09, 1.3012083415986102e-09).transl(8.259084788469857e-08, -4e-08, 0))
hIsland = hIsland.sub(rect(6.311267973282942e-09, -2.3631760939220994e-10).transl(-5.245845081595291e-08, -4e-08, 0))
hIsland = hIsland.sub(rect(9.009199814802244e-09, -2.420154861932462e-09).transl(1.0552924751199331e-07, -3.937233896608849e-08, 0))
hIsland = hIsland.add(rect(6.204038812730112e-09, 1.188980608474819e-09).transl(-1.1285545351877581e-07, -2.3261606348809233e-08, 0))
hIsland = hIsland.sub(rect(4.603801259300908e-09, -3.4440034575789373e-09).transl(4.2091198962493894e-08, -4e-08, 0))
hIsland = hIsland.add(rect(3.747625779958958e-09, 8.208004921237025e-10).transl(-7.520896029426053e-08, -4e-08, 0))
hIsland = hIsland.add(rect(7.14621918845099e-09, 2.6114955932221583e-10).transl(9.367829938139437e-09, -4e-08, 0))
hIsland = hIsland.add(rect(3.529445211472788e-09, 3.953759999867342e-09).transl(8.930231863493646e-08, -4e-08, 0))
hIsland = hIsland.sub(rect(7.662524535606768e-09, -3.6081150523340417e-09).transl(-9.543182245294462e-08, -4e-08, 0))
hIsland = hIsland.sub(rect(4.824836740414794e-09, -2.9971947349897e-09).transl(-3.487340779327348e-08, -4e-08, 0))
hIsland = hIsland.sub(rect(3.413407241355832e-09, -2.2542620151762916e-09).transl(5.870652015510534e-08, -4e-08, 0))
hIsland = hIsland.sub(rect(4.9872844547216585e-09, -5.394472232858192e-10).transl(2.06908075509962e-09, -4e-08, 0))
hIsland = hIsland.sub(rect(8.2984494548476e-09, -9.11639671061171e-10).transl(-2.574287807227608e-08, -4e-08, 0))
hIsland = hIsland.sub(rect(2.2732320679590554e-09, -4.464953596862367e-10).transl(1.68105031138425e-08, -4e-08, 0))
hIsland = hIsland.add(rect(6.892153211835838e-09, 9.709587325903716e-10).transl(-1.1208170700382613e-07, -2.6627286463875128e-08, 0))
hIsland = hIsland.add(rect(2.017877661623498e-09, 2.326501888427691e-09).transl(-6.229754291774876e-09, -4e-08, 0))
hIsland = hIsland.add(rect(9.480466043935208e-09, 9.763512763073638e-10).transl(-1.0697275362117966e-07, -3.813258847306605e-08, 0))
hIsland = hIsland.sub(rect(4.3628595680970465e-09, -2.86829943256754e-10).transl(-7.843484363988287e-08, -4e-08, 0))
hIsland = hIsland.sub(rect(8.1214595106427e-09, -1.4155874879092903e-09).transl(-3.514655670297822e-08, -4e-08, 0))
hIsland = hIsland.sub(rect(8.300435907137993e-09, -2.067397911954985e-09).transl(-8.63049540959248e-08, -4e-08, 0))
hIsland = hIsland.add(rect(6.005591348360108e-09, 3.981557201899652e-10).transl(-5.73239438762068e-08, -4e-08, 0))
hIsland = hIsland.sub(rect(6.285713722836897e-09, -1.146396674352075e-09).transl(2.729903832761092e-08, -4e-08, 0))
hIsland = hIsland.add(rect(4.361005751968222e-09, 1.8948286441799884e-09).transl(6.946870428202961e-08, -4e-08, 0))
hIsland = hIsland.add(rect(9.381796214908363e-09, 6.556448014033805e-10).transl(-1.7125193009043627e-08, -4e-08, 0))
hIsland = hIsland.add(rect(6.259068297543545e-09, 7.480346083447438e-10).transl(-4.195385323699682e-08, -4e-08, 0))
hIsland = hIsland.sub(rect(8.382694455561371e-09, -1.5997613240318143e-09).transl(1.1079740314624412e-07, -3.0915049370974955e-08, 0))
hIsland = hIsland.add(rect(8.451738751458924e-09, 2.8362821972971823e-10).transl(-1.0674779684331733e-07, -3.8371668134343344e-08, 0))
hIsland = hIsland.sub(rect(9.942245983634833e-09, -3.412708824506252e-09).transl(-1.6048835772165886e-08, -4e-08, 0))
hIsland = hIsland.sub(rect(2.622383562418634e-09, -9.706605290652466e-11).transl(-8.520316778573387e-08, -4e-08, 0))
hIsland = hIsland.sub(rect(9.094882563930537e-09, -3.2594012500989425e-09).transl(-2.1552997387683946e-08, -4e-08, 0))
hIsland = hIsland.sub(rect(3.6077953294281593e-09, -1.7325437394250685e-09).transl(8.146214876605241e-08, -4e-08, 0))
hIsland = hIsland.sub(rect(4.516092806247413e-09, -7.822293736695102e-10).transl(-5.509819140797163e-08, -4e-08, 0))
hIsland = hIsland.sub(rect(6.819731679094503e-09, -1.8780901580942817e-09).transl(4.2223583475634984e-08, -4e-08, 0))
hIsland = hIsland.sub(rect(9.069846079534501e-09, -1.023623856422233e-09).transl(-3.2544406130003365e-08, -4e-08, 0))
hIsland = hIsland.sub(rect(7.131795955962596e-09, -2.210361715099403e-09).transl(8.479618774185465e-08, -4e-08, 0))
hIsland = hIsland.sub(rect(8.67335572698726e-09, -1.491784613338855e-09).transl(-7.220032387468794e-09, -4e-08, 0))
hIsland = hIsland.add(rect(3.912283088177095e-09, 3.1323858891262345e-09).transl(-6.6121560068068e-08, -4e-08, 0))
hIsland = hIsland.add(rect(9.949639602787872e-09, 3.559640877503947e-10).transl(-1.1057952966673264e-07, -3.1521998861486355e-08, 0))
hIsland = hIsland.add(rect(9.646549521439187e-09, 2.0112350752842576e-09).transl(-3.7055856723979394e-08, -4e-08, 0))
hIsland = hIsland.sub(rect(4.23674513456878e-09, -1.5188775411196407e-09).transl(5.079767601143356e-08, -4e-08, 0))
hIsland = hIsland.sub(rect(8.370303249871128e-09, -7.695927550623334e-10).transl(1.0322081163732606e-07, -4e-08, 0))
hIsland = hIsland.sub(rect(5.478912019536038e-09, -3.060572624162072e-09).transl(-6.698331654628881e-08, -4e-08, 0))
hIsland = hIsland.add(rect(5.622498657087543e-09, 4.945469852308978e-10).transl(-6.861924550493463e-09, -4e-08, 0))
hIsland = hIsland.add(rect(4.731436128794482e-09, 3.1149992721224416e-09).transl(1.1293026858175405e-07, -2.289320239235841e-08, 0))
hIsland = hIsland.add(rect(6.2456943851538545e-09, 2.926977025998492e-09).transl(-1.0219038147757925e-07, -4e-08, 0))
hIsland = hIsland.add(rect(7.879011002948878e-09, 2.318981378272858e-09).transl(1.0299737283692584e-07, -4e-08, 0))
hIsland = hIsland.sub(rect(3.4416125899516817e-09, -3.935743121641793e-09).transl(-8.305974685343872e-08, -4e-08, 0))
hIsland = hIsland.sub(rect(8.580037946302002e-09, -3.4451315424374985e-09).transl(1.0024021133904069e-07, -4e-08, 0))
hIsland = hIsland.add(rect(3.3447390550796163e-09, 2.531388023900751e-09).transl(9.313001601014837e-08, -4e-08, 0))
hIsland = hIsland.sub(rect(8.797976036559932e-09, -2.2275559662290707e-09).transl(1.0080367653330356e-07, -4e-08, 0))
hIsland = hIsland.sub(rect(3.3257088651552662e-09, -8.224706104184679e-10).transl(6.824475298894536e-08, -4e-08, 0))
hIsland = hIsland.add(rect(7.61089547242694e-09, 2.365563443898446e-09).transl(-1.8871033205945074e-08, -4e-08, 0))
hIsland = hIsland.sub(rect(3.3402444688744863e-09, -7.48648236975363e-10).transl(-1.0026989645440073e-08, -4e-08, 0))
hIsland = hIsland.add(rect(3.768020718820277e-09, 2.6610412398392067e-09).transl(3.563051652438923e-08, -4e-08, 0))
hIsland = hIsland.add(rect(2.623928004820277e-09, 4.074208156443869e-09).transl(-4.440618163099467e-08, -4e-08, 0))
hIsland = hIsland.sub(rect(3.3987202724375153e-09, -1.2330106238866923e-09).transl(-1.106669006232242e-07, -3.1282221254019857e-08, 0))
hIsland = hIsland.add(rect(3.818913579049018e-09, 2.0613750008022658e-09).transl(-7.653829208824881e-08, -4e-08, 0))
hIsland = hIsland.sub(rect(7.342511495965465e-09, -2.8684112142653054e-09).transl(-1.888267830359783e-08, -4e-08, 0))
hIsland = hIsland.sub(rect(3.058883459392428e-09, -1.7214027684838859e-09).transl(9.970470366174723e-08, -4e-08, 0))
hIsland = hIsland.add(rect(5.505183102059066e-09, 4.993725683036311e-10).transl(-4.0849349830303934e-08, -4e-08, 0))
hIsland = hIsland.add(rect(5.140126987411723e-09, 9.886338564809205e-10).transl(-7.654730316178458e-09, -4e-08, 0))
hIsland = hIsland.add(rect(9.908293391806142e-09, 9.115430379698954e-10).transl(7.762749043286773e-08, -4e-08, 0))
hIsland = hIsland.add(rect(7.167357227925825e-09, 1.1497796292990017e-10).transl(5.6638181724413495e-08, -4e-08, 0))
hIsland = hIsland.add(rect(8.473660998955707e-09, 1.4842808299538282e-09).transl(-6.291642918534925e-08, -4e-08, 0))
hIsland = hIsland.add(rect(9.772779428112671e-09, 1.1774308204264932e-09).transl(8.171196971768438e-08, -4e-08, 0))
hIsland = hIsland.sub(rect(8.784595829320872e-09, -7.906153647488225e-10).transl(7.081942454212038e-08, -4e-08, 0))
hIsland = hIsland.sub(rect(3.344132996392242e-09, -1.6454500741537164e-09).transl(-2.68580736119893e-08, -4e-08, 0))
hIsland = hIsland.add(rect(9.623776451267442e-09, 1.7707517413107663e-09).transl(-1.0643276928042457e-07, -3.86773951025716e-08, 0))
hIsland = hIsland.add(rect(3.5411103883391056e-09, 2.3798993822227126e-09).transl(-7.86265702883764e-08, -4e-08, 0))
hIsland = hIsland.sub(rect(2.04468131510059e-09, -7.101453941180619e-10).transl(5.552882935559214e-08, -4e-08, 0))
hIsland = hIsland.sub(rect(6.26336626023704e-09, -2.504036188994868e-09).transl(4.836809849312838e-08, -4e-08, 0))
hIsland = hIsland.add(rect(4.422109171746616e-09, 8.468614391065639e-10).transl(5.0952553404081104e-08, -4e-08, 0))
hIsland = hIsland.sub(rect(6.4705282348641894e-09, -3.783610180985394e-09).transl(-4.9194404348316604e-08, -4e-08, 0))
hIsland = hIsland.add(rect(4.59110273356524e-09, 1.172071180413007e-09).transl(-4.4654450990153e-09, -4e-08, 0))
hIsland = hIsland.add(rect(3.990260180400847e-09, 1.7363366317006479e-09).transl(-1.0816936847943312e-07, -3.655435363665857e-08, 0))
hIsland = hIsland.sub(rect(3.782984727702588e-09, -7.979463954913118e-10).transl(-1.1459899429676898e-07, -1.0470851055107858e-08, 0))
hIsland = hIsland.add(rect(8.29079643014221e-09, 1.6190089293091054e-09).transl(-7.117474283035297e-08, -4e-08, 0))
hIsland = hIsland.sub(rect(9.280851398087563e-09, -4.11982495668226e-09).transl(-6.180012771822901e-08, -4e-08, 0))
hIsland = hIsland.sub(rect(5.09074282225246e-09, -2.768905699340133e-09).transl(4.5236014292242295e-08, -4e-08, 0))
hIsland = hIsland.sub(rect(4.595921622230186e-09, -6.130114190661342e-09).transl(-5.1790212071534544e-08, -4e-08, 0))
hIsland = hIsland.add(rect(5.354259584277167e-09, 2.823735217485652e-09).transl(-1.570551586428335e-08, -4e-08, 0))
hIsland = hIsland.add(rect(4.292452589274962e-09, 1.137411065704808e-09).transl(1.0774069508844503e-07, -3.7181047702514316e-08, 0))
hIsland = hIsland.sub(rect(6.1788693795737525e-09, -5.449277998113922e-09).transl(2.3456398923517517e-08, -4e-08, 0))
hIsland = hIsland.sub(rect(3.3871509610534604e-09, -2.9725977439686915e-09).transl(-3.9507624532537e-09, -4e-08, 0))
hIsland = hIsland.sub(rect(7.020786654469617e-09, -1.280710031877177e-09).transl(7.037834204840803e-10, -4e-08, 0))
hIsland = hIsland.add(rect(2.307436643313576e-09, 1.3241088902798097e-09).transl(9.153698554457877e-08, -4e-08, 0))
hIsland = hIsland.add(rect(9.033532097843508e-09, 3.1509574390348256e-09).transl(-5.459288600035868e-08, -4e-08, 0))
hIsland = hIsland.add(rect(9.275146261998096e-09, 2.451968341044153e-09).transl(4.1370848870330256e-08, -4e-08, 0))
hIsland = hIsland.add(rect(9.30261656652872e-09, 3.126014696641617e-10).transl(9.94026656642253e-08, -4e-08, 0))
hIsland = hIsland.sub(rect(7.033497860824323e-09, -5.601287333485803e-10).transl(3.4315115077055454e-08, -4e-08, 0))
hIsland = hIsland.add(rect(3.332857706402984e-09, 1.9307149337602763e-09).transl(6.906558811935754e-08, -4e-08, 0))
hIsland = hIsland.add(rect(4.573826407483409e-09, 9.311959033813145e-10).transl(8.727221695689538e-08, -4e-08, 0))
hIsland = hIsland.sub(rect(5.2683725363719166e-09, -5.547477487385612e-10).transl(7.864620857141863e-08, -4e-08, 0))
hIsland = hIsland.add(rect(7.878606932398373e-09, 5.500276509840205e-10).transl(-9.516295588119286e-08, -4e-08, 0))
hIsland = hIsland.sub(rect(9.27011328565093e-09, -1.7103328094098171e-09).transl(1.0868465551065797e-07, -3.57041991120483e-08, 0))
hIsland = hIsland.sub(rect(8.557103849314938e-09, -2.6361704474509833e-10).transl(-5.1430820308768895e-08, -4e-08, 0))
hIsland = hIsland.sub(rect(8.326063209105813e-09, -5.312460504129775e-09).transl(-9.155227273340671e-08, -4e-08, 0))
hIsland = hIsland.sub(rect(7.89624330879641e-09, -2.863750511908788e-09).transl(-6.976320082134056e-08, -4e-08, 0))
hIsland = hIsland.add(rect(3.1203224125177277e-09, 9.527513620539706e-10).transl(-5.7372465821566086e-08, -4e-08, 0))
hIsland = hIsland.add(rect(3.5019383629075326e-09, 3.132858838985911e-09).transl(1.0834769175515468e-07, -3.627242183148827e-08, 0))
hIsland = hIsland.add(rect(2.750443708021899e-09, 1.8756610552531863e-09).transl(5.273904854467548e-08, -4e-08, 0))
hIsland = hIsland.sub(rect(8.037501811613532e-09, -3.85247289494629e-09).transl(2.504074377947197e-08, -4e-08, 0))
hIsland = hIsland.sub(rect(6.143805768012165e-09, -5.571641217440627e-10).transl(-1.1418635214222853e-07, -1.4778261413884088e-08, 0))
hIsland = hIsland.sub(rect(3.9389443500035074e-09, -4.1394887663433746e-10).transl(2.674819189577231e-09, -4e-08, 0))
hIsland = hIsland.add(rect(3.06604005745485e-09, 1.4227277988981191e-09).transl(7.888179111065222e-08, -4e-08, 0))
hIsland = hIsland.add(rect(4.11894009753875e-09, 4.306568626399332e-09).transl(-1.3415308640684574e-08, -4e-08, 0))
hIsland = hIsland.sub(rect(4.63477438649199e-09, -1.2324162819209377e-09).transl(3.8780535138845524e-08, -4e-08, 0))
hIsland = hIsland.sub(rect(4.91709978196408e-09, -1.2556983845938591e-09).transl(5.6432891317045956e-08, -4e-08, 0))
hIsland = hIsland.add(rect(4.5488217427760276e-09, 3.6690943392604793e-10).transl(-4.992922329755014e-09, -4e-08, 0))
hIsland = hIsland.add(rect(4.413670780293608e-09, 3.400042686037454e-09).transl(-1.2856335627111394e-10, -4e-08, 0))
hIsland = hIsland.sub(rect(7.2259499869879934e-09, -3.813441162356338e-09).transl(1.0860465484455908e-07, -3.5843389476154344e-08, 0))
hIsland = hIsland.sub(rect(9.94316132111883e-09, -1.3338082339927466e-09).transl(4.477880676408615e-08, -4e-08, 0))
hIsland = hIsland.sub(rect(7.63926575658986e-09, -1.1951475507946414e-09).transl(-1.21160284380141e-08, -4e-08, 0))
hIsland = hIsland.sub(rect(5.476811506345273e-09, -1.8219543596408658e-09).transl(5.452942467188104e-08, -4e-08, 0))
hIsland = hIsland.sub(rect(7.0693424057271374e-09, -3.625217741272171e-09).transl(-8.423364532602116e-08, -4e-08, 0))
hIsland = hIsland.sub(rect(4.9336189263799385e-09, -4.265766422121119e-09).transl(-4.6625218303515283e-08, -4e-08, 0))
hIsland = hIsland.sub(rect(9.17653252574231e-09, -8.145281857676689e-10).transl(1.0518706679775869e-07, -3.956723253270906e-08, 0))
hIsland = hIsland.sub(rect(5.0046976518107384e-09, -5.200828715111768e-10).transl(-1.1724259954541604e-08, -4e-08, 0))
hIsland = hIsland.sub(rect(3.191801969786333e-09, -7.91841220544231e-10).transl(-4.583284362380464e-08, -4e-08, 0))
hIsland = hIsland.add(rect(4.160929588288415e-09, 1.1561627932668908e-10).transl(5.7070217879827615e-08, -4e-08, 0))
hIsland = hIsland.sub(rect(4.220357769448362e-09, -3.2079265063362736e-09).transl(-1.0655634431100466e-07, -3.85614688756286e-08, 0))
hIsland = hIsland.add(rect(8.202935536805956e-09, 7.084563862202719e-10).transl(-7.872155519978713e-08, -4e-08, 0))
hIsland = hIsland.add(rect(9.83597169694048e-09, 5.878392021621675e-10).transl(-7.491880219667791e-08, -4e-08, 0))
hIsland = hIsland.sub(rect(9.998981702594386e-09, -4.0446366506689343e-10).transl(-1.1167954865448778e-07, -2.8116954514082373e-08, 0))
hIsland = hIsland.sub(rect(5.46570331193518e-09, -5.3400264507611075e-11).transl(7.530971528627845e-08, -4e-08, 0))
hIsland = hIsland.sub(rect(7.996893973676939e-09, -1.3754441371193125e-09).transl(-7.292831453264894e-08, -4e-08, 0))
hIsland = hIsland.add(rect(4.106101213200075e-09, 5.030679152421038e-09).transl(-4.1023629511392266e-08, -4e-08, 0))
hIsland = hIsland.add(rect(8.677859137239214e-09, 6.795800038600837e-10).transl(-1.1395423580697747e-08, 4e-08, 0))
hIsland = hIsland.sub(rect(3.6200427935770272e-09, -3.635127777680776e-09).transl(-3.336122027541891e-08, 4e-08, 0))
hIsland = hIsland.sub(rect(9.928927012367719e-09, -8.145961318860672e-10).transl(3.8393771010116494e-08, 4e-08, 0))
hIsland = hIsland.add(rect(8.541849008882025e-09, 2.2523699107301097e-09).transl(-4.129782919019376e-08, 4e-08, 0))
hIsland = hIsland.add(rect(2.4192459014628807e-09, 8.55026944834336e-10).transl(3.311797516360021e-08, 4e-08, 0))
hIsland = hIsland.sub(rect(4.448305863737162e-09, -2.2142162910467144e-09).transl(2.9054554966516488e-08, 4e-08, 0))
hIsland = hIsland.add(rect(3.59065057561293e-09, 4.6019352612720737e-10).transl(4.3701884439833616e-08, 4e-08, 0))
hIsland = hIsland.sub(rect(5.4046361010659215e-09, -4.5711611607382e-09).transl(7.1244886970109465e-09, 4e-08, 0))
hIsland = hIsland.sub(rect(7.420412030470222e-09, -2.739277148835336e-10).transl(-1.0551547498686901e-08, 4e-08, 0))
hIsland = hIsland.add(rect(4.432750122353412e-09, 2.442200392204062e-09).transl(-1.1167446974211545e-07, 2.813481870233217e-08, 0))
hIsland = hIsland.sub(rect(4.358237641675972e-09, -4.695483867816594e-11).transl(-9.80100943197598e-09, 4e-08, 0))
hIsland = hIsland.add(rect(7.944384972057288e-09, 1.5716442284332163e-09).transl(1.533356335457527e-08, 4e-08, 0))
hIsland = hIsland.sub(rect(7.081632658706756e-09, -3.74469634687011e-09).transl(1.9177551536456777e-09, 4e-08, 0))
hIsland = hIsland.sub(rect(2.19557152704464e-09, -1.2977031534492502e-09).transl(-7.967372529471983e-08, 4e-08, 0))
hIsland = hIsland.add(rect(6.938784450602108e-09, 3.937235357545466e-10).transl(4.015620505651217e-08, 4e-08, 0))
hIsland = hIsland.add(rect(6.123038468210297e-09, 1.5436053123510407e-09).transl(9.540083164960105e-08, 4e-08, 0))
hIsland = hIsland.sub(rect(7.985627279286305e-09, -8.716185177725649e-10).transl(-1.2768770703467189e-08, 4e-08, 0))
hIsland = hIsland.add(rect(3.828126713290076e-09, 1.5211450882465025e-09).transl(-1.0932787077287945e-07, 3.448321973302455e-08, 0))
hIsland = hIsland.add(rect(6.792604822113759e-09, 1.583514035948987e-09).transl(3.314666875130815e-08, 4e-08, 0))
hIsland = hIsland.sub(rect(6.930380723748661e-09, -1.6446640235733707e-09).transl(-7.069858937031238e-08, 4e-08, 0))
hIsland = hIsland.sub(rect(7.162515343900465e-09, -1.6652705866951656e-09).transl(-8.581434920437759e-08, 4e-08, 0))
hIsland = hIsland.sub(rect(3.6503825683274293e-09, -1.4150950603514268e-09).transl(6.329190459579205e-08, 4e-08, 0))
hIsland = hIsland.add(rect(2.0991616126287713e-09, 3.2119351110418604e-09).transl(8.377174284687864e-08, 4e-08, 0))
hIsland = hIsland.add(rect(6.8070812719652505e-09, 2.413040877087689e-10).transl(6.489908088355376e-08, 4e-08, 0))
hIsland = hIsland.sub(rect(5.783242309188893e-09, -3.2282006282470333e-09).transl(-9.674308033242189e-08, 4e-08, 0))
hIsland = hIsland.sub(rect(2.3959292449328444e-09, -1.8576589165202677e-11).transl(5.410670482310581e-09, 4e-08, 0))
hIsland = hIsland.sub(rect(7.010308442391436e-09, -1.2561859654731848e-09).transl(6.682501812829349e-08, 4e-08, 0))
hIsland = hIsland.sub(rect(5.105544302071115e-09, -3.013013308947438e-09).transl(6.897787964016927e-08, 4e-08, 0))
hIsland = hIsland.sub(rect(6.491355551711107e-09, -2.740790557116283e-09).transl(-7.199277521184888e-08, 4e-08, 0))
hIsland = hIsland.add(rect(4.3624623667687615e-09, 1.9319808576449757e-09).transl(-8.071879262697951e-08, 4e-08, 0))
hIsland = hIsland.add(rect(8.622795555610196e-09, 5.249065894318208e-10).transl(1.0411234256848176e-07, 3.994325450608365e-08, 0))
hIsland = hIsland.sub(rect(5.186510975738789e-09, -2.5889872913263613e-09).transl(-6.85284345323694e-08, 4e-08, 0))
hIsland = hIsland.sub(rect(8.073320012467589e-09, -2.7901112476526016e-09).transl(5.294719422354721e-08, 4e-08, 0))
hIsland = hIsland.add(rect(9.22562589518683e-09, 3.951623746719679e-09).transl(-5.116326471551071e-08, 4e-08, 0))
hIsland = hIsland.sub(rect(9.626614384266939e-09, -9.45601437094478e-10).transl(3.925256189024609e-08, 4e-08, 0))
hIsland = hIsland.add(rect(6.760423371678956e-09, 2.1261049212838703e-09).transl(-8.52142599126568e-08, 4e-08, 0))
hIsland = hIsland.add(rect(3.589056908095936e-09, 6.42191551824167e-10).transl(-6.025939042318586e-08, 4e-08, 0))
hIsland = hIsland.add(rect(9.842193354816826e-09, 3.972432984911578e-09).transl(-1.068605993567706e-07, 3.825397123002494e-08, 0))
hIsland = hIsland.sub(rect(8.9318855373047e-09, -4.699475387368653e-09).transl(1.6762391881844033e-08, 4e-08, 0))
hIsland = hIsland.sub(rect(9.309762160484734e-09, -4.774317944226418e-10).transl(-8.885459133178461e-09, 4e-08, 0))
hIsland = hIsland.sub(rect(8.264472779696811e-09, -1.8110534104096496e-09).transl(-9.025446360349289e-09, 4e-08, 0))
hIsland = hIsland.add(rect(4.314333111907195e-09, 1.6804118191198503e-09).transl(-7.839958125084749e-08, 4e-08, 0))
hIsland = hIsland.sub(rect(5.160981084216424e-09, -1.3175892977832418e-09).transl(1.0718837032073298e-07, 3.7886855634817713e-08, 0))
hIsland = hIsland.sub(rect(7.11580242764068e-09, -2.7042954178697644e-09).transl(4.114981125972772e-08, 4e-08, 0))
hIsland = hIsland.sub(rect(2.672851983484316e-09, -2.9681440980775277e-09).transl(-3.5577267259123e-08, 4e-08, 0))
hIsland = hIsland.sub(rect(5.336339128812045e-09, -4.744905970093362e-11).transl(1.1037724489430302e-07, 3.205920848777158e-08, 0))
hIsland = hIsland.add(rect(9.339980336616875e-09, 1.8084188242038607e-09).transl(4.314707624338792e-08, 4e-08, 0))
hIsland = hIsland.add(rect(4.26402953149973e-09, 1.3878590862820266e-10).transl(-3.276169454914554e-08, 4e-08, 0))
hIsland = hIsland.add(rect(3.738827470651976e-09, 7.443236870629602e-10).transl(-6.063655004256945e-08, 4e-08, 0))
hIsland = hIsland.add(rect(7.90955432407095e-09, 3.853347339023433e-09).transl(-7.077943083397048e-08, 4e-08, 0))
hIsland = hIsland.add(rect(7.169779874303369e-09, 1.3467608653980896e-09).transl(8.687217121141047e-08, 4e-08, 0))
hIsland = hIsland.sub(rect(8.044193305082842e-09, -3.751957109221902e-09).transl(4.2350740809658693e-08, 4e-08, 0))
hIsland = hIsland.add(rect(8.486431480055088e-09, 1.911832113208824e-09).transl(9.243029832335807e-08, 4e-08, 0))
hIsland = hIsland.add(rect(8.97491846895046e-09, 3.284504222087174e-09).transl(8.082121795152931e-08, 4e-08, 0))
hIsland = hIsland.sub(rect(2.7757130609950798e-09, -3.4348058319442045e-10).transl(8.31458847856644e-08, 4e-08, 0))
hIsland = hIsland.add(rect(5.923607159551413e-09, 1.5437331250958663e-09).transl(-2.159345089865961e-08, 4e-08, 0))
hIsland = hIsland.add(rect(4.8057662150215115e-09, 5.302929830541068e-10).transl(-1.0931056285090387e-07, 3.451853834346813e-08, 0))
hIsland = hIsland.add(rect(8.961208730126011e-09, 1.442126431130897e-09).transl(-1.1075731049305055e-07, 3.1029020022689994e-08, 0))
hIsland = hIsland.sub(rect(5.353918477747725e-09, -1.887824441745235e-09).transl(-9.787691969385347e-08, 4e-08, 0))
hIsland = hIsland.sub(rect(3.647149451554457e-09, -2.560732858640677e-09).transl(-1.721018806941476e-08, 4e-08, 0))
hIsland = hIsland.sub(rect(3.788644892118527e-09, -8.30833534906815e-10).transl(-4.95034325705328e-08, 4e-08, 0))
[...]
hIsland = hIsland.sub(rect(6.666067067397287e-09, -5.892990544694877e-10).transl(-8.681658114191447e-08, 4e-08, 0))
hIsland = hIsland.add(rect(6.246124534206839e-09, 3.148912726232105e-09).transl(-7.28304993438514e-08, 4e-08, 0))
hIsland = hIsland.add(rect(6.54639103662966e-09, 4.278490998870493e-10).transl(-2.9271768115252032e-08, 4e-08, 0))
hIsland = hIsland.add(rect(6.876144559574282e-09, 8.936341358136839e-10).transl(-5.1959813981672983e-08, 4e-08, 0))
hIsland = hIsland.add(rect(2.5212862441389614e-09, 8.533258108541359e-10).transl(8.016882397880597e-08, 4e-08, 0))
hIsland = hIsland.add(rect(6.9310158136237576e-09, 3.2104044002696755e-09).transl(-5.168989526876828e-08, 4e-08, 0))
hIsland = hIsland.sub(rect(3.005108868394352e-09, -4.685766339497295e-10).transl(8.632477202893962e-08, 4e-08, 0))
hIsland = hIsland.sub(rect(4.2297541766894695e-09, -2.756328373953069e-09).transl(1.4578984804971233e-08, 4e-08, 0))
hIsland = hIsland.add(rect(9.360969181448884e-09, 8.960046245748165e-10).transl(-4.867068607042875e-08, 4e-08, 0))
hIsland = hIsland.sub(rect(6.131000407204289e-09, -1.441115413232181e-09).transl(-3.378406346217226e-08, 4e-08, 0))
hIsland = hIsland.add(rect(9.327151422782387e-09, 5.094671979519624e-09).transl(3.688823628524609e-08, 4e-08, 0))
hIsland = hIsland.add(rect(6.457546664449586e-09, 3.7143326868204324e-09).transl(-3.6688770811841645e-08, 4e-08, 0))
hIsland = hIsland.sub(rect(5.992241096387408e-09, -5.949409074621627e-10).transl(2.7566064120723467e-08, 4e-08, 0))
hIsland = hIsland.sub(rect(7.5470866410683e-09, -2.094017407848163e-10).transl(7.462720187419828e-08, 4e-08, 0))
hIsland = hIsland.add(rect(8.654424354868446e-09, 2.6269231266896866e-10).transl(8.242814283046187e-08, 4e-08, 0))
hIsland = hIsland.sub(rect(6.682643102578482e-09, -4.676810340082347e-09).transl(-2.4194180233038235e-08, 4e-08, 0))
hIsland = hIsland.sub(rect(3.423674728993974e-09, -5.923254763889876e-10).transl(-6.515392015307124e-08, 4e-08, 0))
hIsland = hIsland.sub(rect(4.075403857411084e-09, -1.9421750034369347e-09).transl(6.629369340047519e-08, 4e-08, 0))
hIsland = hIsland.sub(rect(4.783907376870827e-09, -1.3102210112991914e-09).transl(8.206045648294787e-08, 4e-08, 0))
hIsland = hIsland.add(rect(9.770645897106294e-09, 2.794855858506818e-09).transl(4.128702340570072e-08, 4e-08, 0))
hIsland = hIsland.add(rect(8.29185528777733e-09, 2.1777627048841617e-09).transl(7.806823586652877e-08, 4e-08, 0))
hIsland = hIsland.sub(rect(8.295578814072733e-09, -1.8381253815264787e-09).transl(-7.625270637786445e-08, 4e-08, 0))
hIsland = hIsland.sub(rect(7.855694141619623e-09, -9.046601950193242e-10).transl(1.0520173821240592e-07, 3.9559630689212954e-08, 0))
hIsland = hIsland.add(rect(9.60591883549639e-09, 1.0200836562476772e-09).transl(7.107330651609923e-08, 4e-08, 0))
hIsland = hIsland.sub(rect(3.880774431848072e-09, -6.306590738743849e-09).transl(7.616714938920236e-08, 4e-08, 0))
hIsland = hIsland.sub(rect(9.421704672336174e-09, -5.653578621407024e-10).transl(-9.585345643161757e-08, 4e-08, 0))
hIsland = hIsland.sub(rect(8.737361935260237e-09, -4.58648992797818e-09).transl(2.3835948222877767e-08, 4e-08, 0))
hIsland = hIsland.sub(rect(3.694103156804871e-09, -5.8665784317512154e-09).transl(-5.1659146992756045e-08, 4e-08, 0))
hIsland = hIsland.add(rect(6.713484703342454e-09, 1.4728870892631501e-09).transl(2.4695989000641983e-08, 4e-08, 0))
hIsland = hIsland.sub(rect(7.675993251110112e-09, -2.8474890863847057e-09).transl(-6.575224236746637e-08, 4e-08, 0))
hIsland = hIsland.sub(rect(3.873750610943329e-09, -1.7149965836632833e-09).transl(-5.3050564997660045e-08, 4e-08, 0))
hIsland = hIsland.add(rect(2.110499718435354e-09, 5.182396859954413e-10).transl(-6.274421358085075e-08, 4e-08, 0))
hIsland = hIsland.sub(rect(4.428905606549595e-09, -1.5012186674661321e-09).transl(-2.7377815327959986e-08, 4e-08, 0))
hIsland = hIsland.add(rect(9.772290261355293e-09, 1.8027723065816756e-09).transl(-1.063318064305008e-07, 3.876831436165949e-08, 0))
hIsland = hIsland.add(rect(7.215259437488946e-09, 2.324193890455554e-09).transl(-7.41870190594647e-08, 4e-08, 0))
hIsland = hIsland.sub(rect(2.718980375994243e-09, -2.8674374814303683e-09).transl(9.790404733500138e-09, 4e-08, 0))
hIsland = hIsland.sub(rect(3.031475892609139e-09, -3.2094917313056164e-09).transl(6.051458791503531e-08, 4e-08, 0))
hIsland = hIsland.add(rect(3.541946608901773e-09, 1.5797594911761873e-09).transl(1.7866079494397836e-08, 4e-08, 0))
hIsland = hIsland.add(rect(4.968970721871258e-09, 2.1848046020463948e-09).transl(6.443328667113593e-08, 4e-08, 0))
hIsland = hIsland.add(rect(4.481678343918384e-09, 2.372397802268968e-09).transl(-9.282879443821979e-08, 4e-08, 0))
hIsland = hIsland.sub(rect(2.487175222454325e-09, -3.5649747614192333e-10).transl(-6.334947520397911e-08, 4e-08, 0))
hIsland = hIsland.sub(rect(9.592546231321632e-09, -3.3131933049047393e-09).transl(-8.45483433328115e-08, 4e-08, 0))
hIsland = hIsland.add(rect(3.87855834291946e-09, 3.922703059915404e-09).transl(3.143905795879626e-08, 4e-08, 0))
hIsland = hIsland.sub(rect(5.154766565008673e-09, -2.639896543475498e-09).transl(-9.163691833411264e-08, 4e-08, 0))
hIsland = hIsland.add(rect(7.74220413943629e-09, 2.583082602266811e-09).transl(-9.949712221535028e-08, 4e-08, 0))
hIsland = hIsland.sub(rect(5.7433475435854655e-09, -4.202202294429659e-09).transl(9.021725813052074e-08, 4e-08, 0))
hIsland = hIsland.sub(rect(8.121703155817358e-09, -2.6388508434604334e-09).transl(3.9042156749204477e-08, 4e-08, 0))
hIsland = hIsland.sub(rect(9.170101944256412e-09, -1.907233684090129e-09).transl(-8.463120247765651e-08, 4e-08, 0))
hIsland = hIsland.sub(rect(4.382754008531357e-09, -4.693029286710733e-10).transl(-9.906014400645212e-08, 4e-08, 0))
hIsland = hIsland.add(rect(4.129491220432685e-09, 4.5100719635653303e-10).transl(4.1331434703096533e-08, 4e-08, 0))
hIsland = hIsland.sub(rect(6.763727525693409e-09, -3.636352038204609e-09).transl(1.0109772177295268e-07, 4e-08, 0))
hIsland = hIsland.add(rect(2.1120045483206848e-09, 3.1432072360691456e-10).transl(6.390339065426598e-08, 4e-08, 0))
hIsland = hIsland.sub(rect(8.258070974092938e-09, -1.8994047931809255e-10).transl(-7.046808268038774e-10, 4e-08, 0))
hIsland = hIsland.add(rect(5.6228919550243575e-09, 2.2213835119367526e-09).transl(-8.173018882454344e-08, 4e-08, 0))
hIsland = hIsland.add(rect(7.974079618051552e-09, 1.6916233783257157e-10).transl(-2.789235072916999e-08, 4e-08, 0))
hIsland = hIsland.add(rect(9.394118554161495e-09, 5.4188690420255e-10).transl(2.803266758626526e-08, 4e-08, 0))
hIsland = hIsland.add(rect(7.920088614566183e-09, 5.797363520832072e-10).transl(4.5247630535540357e-08, 4e-08, 0))
hIsland = hIsland.sub(rect(5.791777685097621e-09, -2.575600172719749e-09).transl(-3.904041341429166e-08, 4e-08, 0))
hIsland = hIsland.sub(rect(8.5250779901906e-09, -2.33303631136074e-09).transl(-5.701527089801283e-08, 4e-08, 0))
hIsland = hIsland.sub(rect(7.266376317545602e-09, -7.776671448587834e-11).transl(4.011229696865449e-08, 4e-08, 0))
hIsland = hIsland.sub(rect(3.2137116576597865e-09, -4.870818855852428e-10).transl(-5.720097987153346e-08, 4e-08, 0))
hIsland = hIsland.sub(rect(3.9907956731876545e-09, -4.067735560257095e-10).transl(-4.166737761739774e-08, 4e-08, 0))
hIsland = hIsland.add(rect(7.0876211113477255e-09, 1.5145142271134097e-09).transl(2.4163701354044133e-08, 4e-08, 0))
hIsland = hIsland.sub(rect(9.257134186680628e-09, -1.0904573584727882e-09).transl(3.440823641227114e-08, 4e-08, 0))
hIsland = hIsland.add(rect(8.72354190136613e-09, 1.0957753150501954e-09).transl(-4.352016206547096e-08, 4e-08, 0))
hIsland = hIsland.add(rect(2.217317051586312e-09, 1.0573039441660052e-09).transl(-7.012080795735005e-08, 4e-08, 0))
hIsland = hIsland.sub(rect(9.476900615366962e-09, -4.239502254846631e-09).transl(5.838004532413063e-08, 4e-08, 0))
hIsland = hIsland.sub(rect(7.141590397538923e-09, -4.2668440024409027e-10).transl(3.328249030842288e-08, 4e-08, 0))
hIsland = hIsland.sub(rect(3.5970562061522133e-09, -1.5570615619809682e-09).transl(-5.5456775298082484e-08, 4e-08, 0))
hIsland = hIsland.add(rect(5.7701458416169165e-09, 4.491771606572931e-09).transl(-6.51552913029192e-08, 4e-08, 0))
hIsland = hIsland.add(rect(9.759306470896585e-09, 4.78334913014823e-09).transl(1.0122168145740826e-07, 4e-08, 0))
hIsland = hIsland.sub(rect(4.132079752594074e-09, -3.6342388317096785e-09).transl(1.1213878162176228e-07, 2.6403059246817513e-08, 0))
hIsland = hIsland.sub(rect(4.659606929954506e-09, -1.3207739654855562e-09).transl(7.29039447289248e-08, 4e-08, 0))
hIsland = hIsland.sub(rect(8.778240904438295e-09, -5.277673634342611e-10).transl(6.494183464372501e-08, 4e-08, 0))
hIsland = hIsland.sub(rect(2.988961807657977e-09, -6.072518875672167e-09).transl(9.723677930237851e-08, 4e-08, 0))
hIsland = hIsland.sub(rect(2.1707132375658554e-09, -1.704587990295607e-10).transl(-4.121836087570913e-08, 4e-08, 0))
hIsland = hIsland.sub(rect(5.5910304624836245e-09, -2.5330905484784097e-09).transl(-5.309931889686263e-08, 4e-08, 0))
hIsland = hIsland.add(rect(2.9515692105826457e-09, 2.5535442995782425e-09).transl(-1.1023762824079077e-07, 3.2415892051335606e-08, 0))
hIsland = hIsland.add(rect(4.2172835260647324e-09, 9.229875090838323e-10).transl(2.8073548588998434e-08, 4e-08, 0))
hIsland = hIsland.sub(rect(4.1169309306121405e-09, -1.8919258458992145e-09).transl(-5.433476216939489e-08, 4e-08, 0))
hIsland = hIsland.sub(rect(3.1839648557882382e-09, -4.539284046259193e-09).transl(7.492622998580699e-09, 4e-08, 0))
hIsland = hIsland.add(rect(4.3952343736200945e-09, 1.412115888229195e-09).transl(5.99836611693716e-08, 4e-08, 0))
hIsland = hIsland.add(rect(6.124823386049153e-09, 3.10665266054767e-09).transl(-9.140205080670713e-08, 4e-08, 0))
hIsland = hIsland.add(rect(9.180019087441828e-09, 3.90513720028318e-09).transl(-4.846090473657666e-08, 4e-08, 0))
hIsland = hIsland.sub(rect(9.067353540878824e-09, -2.3132412939575674e-10).transl(1.1466820774446122e-07, 9.53902233004845e-09, 0))
hIsland = hIsland.sub(rect(6.629024033162778e-09, -1.2552023347599846e-09).transl(7.099366189186383e-08, 4e-08, 0))
hIsland = hIsland.sub(rect(7.54490952617895e-09, -7.288053373482041e-10).transl(6.461226153080176e-08, 4e-08, 0))
hIsland = hIsland.sub(rect(3.737751110966763e-09, -4.793630125911962e-10).transl(5.102595551335458e-08, 4e-08, 0))
hIsland = hIsland.sub(rect(9.75686037766639e-09, -4.910610350533133e-09).transl(-4.03779992376118e-08, 4e-08, 0))
hIsland = hIsland.sub(rect(8.322685339927805e-09, -2.3781504357911305e-09).transl(-7.874707179232743e-08, 4e-08, 0))
hIsland = hIsland.add(rect(4.08659938509489e-09, 3.3333764914884023e-10).transl(1.4067628859394484e-08, 4e-08, 0))
hIsland = hIsland.add(rect(7.329457756060035e-09, 2.1190158901378075e-09).transl(-9.06960376582099e-08, 4e-08, 0))
hIsland = hIsland.sub(rect(3.0002015649295626e-09, -7.560722384355183e-10).transl(-4.378748451922536e-08, 4e-08, 0))
hIsland = hIsland.add(rect(2.322888684287369e-09, 3.312324351581564e-10).transl(5.440345072090882e-08, 4e-08, 0))
hIsland = hIsland.add(rect(4.748981090937018e-09, 5.215891921359754e-10).transl(5.441627726500641e-08, 4e-08, 0))
hIsland = hIsland.add(rect(7.0852124896771004e-09, 1.2923789119393667e-09).transl(-5.225781187032402e-09, 4e-08, 0))
hIsland = hIsland.add(rect(7.726872011759854e-09, 1.192911395595508e-09).transl(-1.0624442657810047e-07, 3.884426726716068e-08, 0))
hIsland = hIsland.add(rect(4.0861295605243795e-09, 2.241982748818442e-09).transl(9.418297289022088e-08, 4e-08, 0))
hIsland = hIsland.sub(rect(3.0412231981890214e-09, -3.856818506198239e-09).transl(9.14262457645622e-08, 4e-08, 0))
hIsland = hIsland.sub(rect(8.336928749444575e-09, -1.8369557331412666e-09).transl(4.140772124327137e-08, 4e-08, 0))
hIsland = hIsland.add(rect(8.206511801789397e-09, 1.1349004916372681e-10).transl(1.9979373270161343e-08, 4e-08, 0))
hIsland = hIsland.sub(rect(5.906284809092378e-09, -1.0161816152119876e-10).transl(7.702063988662615e-09, 4e-08, 0))
hIsland = hIsland.sub(rect(5.7670309658730024e-09, -1.0775920141387373e-09).transl(9.834071965525432e-08, 4e-08, 0))
hIsland = hIsland.add(rect(5.697826202838678e-09, 9.392317159016746e-10).transl(-7.66524750389652e-08, 4e-08, 0))
hIsland = hIsland.sub(rect(5.89310839249584e-09, -2.251714899320431e-09).transl(1.1192728767993611e-07, 2.7217435168092932e-08, 0))
hIsland = hIsland.sub(rect(3.416322253476934e-09, -1.3842694378400414e-09).transl(-1.0685535196806586e-07, 3.8259543561274825e-08, 0))
hIsland = hIsland.add(rect(6.206359539094552e-09, 1.6036059092183226e-09).transl(7.503766546576273e-08, 4e-08, 0))
hIsland = hIsland.add(rect(4.319086850370283e-09, 4.4269902862705896e-10).transl(7.373069257744963e-08, 4e-08, 0))
hIsland = hIsland.add(rect(7.991951284576957e-09, 2.5504573320240973e-11).transl(2.826501635466556e-09, 4e-08, 0))
hIsland = hIsland.add(rect(4.362199728367695e-09, 4.948903365142659e-10).transl(1.4454484170810904e-08, 4e-08, 0))
hIsland = hIsland.sub(rect(7.48676445811279e-09, -3.9555806883235646e-10).transl(6.267544318890004e-08, 4e-08, 0))
hIsland = hIsland.sub(rect(3.986836758148961e-09, -1.3440111515913445e-09).transl(1.005769207909886e-07, 4e-08, 0))
hIsland = hIsland.sub(rect(5.82240532586598e-09, -1.8671362023835253e-09).transl(1.122140689063966e-07, 2.6102025350921613e-08, 0))
hIsland = hIsland.sub(rect(7.140260762425066e-09, -6.746136650036719e-10).transl(4.010331628074868e-08, 4e-08, 0))
hIsland = hIsland.add(rect(2.000020386713815e-09, 1.5625610588697406e-09).transl(-1.0331861768284282e-07, 4e-08, 0))
hIsland = hIsland.sub(rect(7.606392322902029e-09, -7.113419835479761e-10).transl(-1.0276575423760598e-07, 4e-08, 0))
hIsland = hIsland.add(rect(7.368599646292129e-09, 4.92240407613593e-11).transl(1.3141144694497101e-08, 4e-08, 0))
hIsland = hIsland.add(rect(4.0724598105929016e-09, 2.615247354186351e-10).transl(-5.602995071365383e-08, 4e-08, 0))
hIsland = hIsland.add(rect(2.471779759887496e-09, 4.405214376993595e-11).transl(-2.557142805683578e-08, 4e-08, 0))
hIsland = hIsland.add(rect(7.28725108492054e-09, 2.771478071824913e-09).transl(-1.059087502897031e-07, 3.9112718237378817e-08, 0))
hIsland = hIsland.sub(rect(4.663671188782775e-09, -1.5699364330250033e-09).transl(6.845348681483897e-08, 4e-08, 0))
hIsland = hIsland.sub(rect(2.67856226315776e-09, -2.289170432029841e-10).transl(9.038058921692843e-08, 4e-08, 0))
hIsland = hIsland.add(rect(6.8934003473402375e-09, 1.4599950802763347e-09).transl(6.395820051691068e-09, 4e-08, 0))
hIsland = hIsland.sub(rect(5.044528921668641e-09, -3.1613245743162676e-09).transl(-4.2798011255436785e-09, 4e-08, 0))
hIsland = hIsland.sub(rect(3.722569944204782e-09, -3.623311004589935e-09).transl(-4.567173022552955e-08, 4e-08, 0))
hIsland = hIsland.sub(rect(6.38707921673329e-09, -4.963147162686797e-10).transl(-6.248318062288557e-08, 4e-08, 0))
hIsland = hIsland.add(rect(7.167013354708579e-09, 5.7664557955479516e-11).transl(6.400631023437538e-08, 4e-08, 0))
hIsland = hIsland.add(rect(2.8083292870642354e-09, 2.164066031325051e-10).transl(7.259823001770994e-08, 4e-08, 0))
hIsland = hIsland.sub(rect(3.983119348334175e-09, -1.1662527626609063e-09).transl(-7.476837536606626e-08, 4e-08, 0))
hIsland = hIsland.add(rect(6.914530190985875e-09, 8.220790830795705e-10).transl(-3.8848060725606034e-08, 4e-08, 0))
hIsland = hIsland.add(rect(3.2449967854318924e-09, 2.1387569923442712e-10).transl(5.995326910816556e-08, 4e-08, 0))
hIsland = hIsland.add(rect(5.059158547178275e-09, 2.758718797060462e-09).transl(-4.379477121045933e-08, 4e-08, 0))
hIsland = hIsland.add(rect(2.6598578398693723e-09, 1.4460831372395442e-09).transl(-1.5277671117995207e-08, 4e-08, 0))
hIsland = hIsland.add(rect(6.2785599592032775e-09, 1.5070236991199892e-09).transl(-3.9125450007749285e-08, 4e-08, 0))
hIsland = hIsland.add(rect(2.669282237741273e-09, 2.913839550075426e-10).transl(-2.2576968498736593e-08, 4e-08, 0))
hIsland = hIsland.sub(rect(3.218803396502714e-09, -1.7142987655885418e-09).transl(-6.538224723759379e-08, 4e-08, 0))
hIsland = hIsland.add(rect(2.9021828356217345e-09, 2.4800539881471383e-09).transl(9.886303268874053e-08, 4e-08, 0))
hIsland = hIsland.sub(rect(7.3833620184549465e-09, -6.804573397011708e-10).transl(5.8295488110798875e-09, 4e-08, 0))
hIsland = hIsland.add(rect(5.430440043384514e-09, 2.3133378391507007e-09).transl(1.0967157594476453e-07, 3.375197431153771e-08, 0))
hIsland = hIsland.add(rect(9.739029870386592e-09, 1.2675404768315583e-09).transl(9.59829005868248e-08, 4e-08, 0))
hIsland = hIsland.sub(rect(4.736354115882152e-09, -8.474783358651294e-10).transl(-4.4776613245661634e-08, 4e-08, 0))
hIsland = hIsland.sub(rect(2.9930526776905854e-09, -2.183869529614473e-09).transl(-6.440227931078801e-08, 4e-08, 0))
hIsland = hIsland.sub(rect(6.2898807300217945e-09, -1.2268626054385045e-09).transl(5.9305818767407526e-08, 4e-08, 0))
hIsland = hIsland.sub(rect(4.67468891131356e-09, -3.784389773204666e-09).transl(-4.203696349228658e-08, 4e-08, 0))
hIsland = hIsland.sub(rect(9.73970623071562e-09, -2.6857617831166725e-10).transl(3.397218829678928e-08, 4e-08, 0))
hIsland = hIsland.add(rect(9.043732230026323e-09, 4.5710773443978395e-10).transl(6.867523112090934e-08, 4e-08, 0))
hIsland = hIsland.sub(rect(6.281974127821011e-09, -1.924292827768209e-10).transl(2.7830298022496164e-08, 4e-08, 0))
hIsland = hIsland.add(rect(5.4049010080528855e-09, 1.523113325187728e-09).transl(-2.4454402489406747e-08, 4e-08, 0))
hIsland = hIsland.sub(rect(8.199174058453928e-09, -7.574420419721791e-11).transl(5.499514012602016e-08, 4e-08, 0))
hIsland = hIsland.add(rect(9.450557615329534e-09, 1.3556024733876093e-12).transl(-3.337331943975663e-08, 4e-08, 0))
hIsland = hIsland.sub(rect(8.692433573317804e-09, -5.165987603723751e-10).transl(-1.0682279700092343e-07, 3.829390196066151e-08, 0))
hIsland = hIsland.sub(rect(5.097798892057324e-09, -1.1893649327425419e-09).transl(-7.398295544861414e-08, 4e-08, 0))
hIsland = hIsland.add(rect(9.55224369148248e-09, 8.493367320567003e-10).transl(-1.0853600094496446e-07, 3.5960691748279835e-08, 0))
hIsland = hIsland.add(rect(4.971388674085373e-09, 1.2620449347808253e-09).transl(-9.061166766678653e-08, 4e-08, 0))
hIsland = hIsland.sub(rect(5.381857602009274e-09, -1.9339500652378046e-09).transl(1.1468389995797703e-08, 4e-08, 0))
hIsland = hIsland.sub(rect(4.252388201249835e-09, -2.2367892587811867e-09).transl(4.333527999107973e-08, 4e-08, 0))
hIsland = hIsland.sub(rect(2.0499254083610535e-09, -1.2823248551772654e-09).transl(9.344712283801657e-08, 4e-08, 0))
hIsland = hIsland.sub(rect(7.90360432026915e-09, -1.2679930745965363e-10).transl(-2.1897881965297428e-10, 4e-08, 0))
hIsland = hIsland.add(rect(7.886942206309303e-09, 2.6654821740193183e-09).transl(-9.487748705599989e-08, 4e-08, 0))
hIsland = hIsland.sub(rect(9.554669491220683e-09, -3.0083236736358746e-10).transl(-8.905582609529885e-08, 4e-08, 0))
hIsland = hIsland.add(rect(5.3775538390049196e-09, 1.98142145042819e-09).transl(1.1633853111355431e-08, 4e-08, 0))
hIsland = hIsland.add(rect(4.54554125666639e-09, 2.2126626245208197e-09).transl(-3.571538485916074e-08, 4e-08, 0))
hIsland = hIsland.sub(rect(4.2448374822067855e-09, -7.272746129070246e-11).transl(-5.749797285613594e-08, 4e-08, 0))
vIsland = hIsland.rotz(pi / 2)
vIslands = vIslands.add(vIsland.transl(0, -a/2, 0))
DefRegion(1, hIslands)
DefRegion(2, vIslands)
TableAdd(m_full.Region(1))
TableAdd(m_full.Region(2))
setgeom(hIslands.add(vIslands))
save(m)
r2o2 := sqrt(2) / 2
m = RandomMagSeed(4)
B_ext = vector(Bmax*r2o2, Bmax*r2o2, 0)
relax()
minimize()
for B := Bmax; B >= -Bmax; B -= Bstep {
	B_ext = vector(B*r2o2, B*r2o2, 0)
	minimize()
	tablesave()
}
//********************************************************************//
//Please cite the following references, relevant for your simulation. //
//See bibtex file in output folder for justification.                 //
//********************************************************************//
//   * Vansteenkiste et al., AIP Adv. 4, 107133 (2014).
//   * Exl et al., J. Appl. Phys. 115, 17D118 (2014).
