# t (s)	mx ()	my ()	mz ()	B_extx (T)	B_exty (T)	B_extz (T)	m_fullx (A/m)	m_fully (A/m)	m_fullz (A/m)	m_full.region1x (A/m)	m_full.region1y (A/m)	m_full.region1z (A/m)	m_full.region2x (A/m)	m_full.region2y (A/m)	m_full.region2z (A/m)
0	0.65206563	0.6520626	-3.9283374e-10	0.07071067	0.07071067	0	167487.75	167486.92	-9.821429e-05	633856.4	279033.1	-0.00023724277	279035.62	633854.5	-0.00029894328
0	0.6519793	0.65197855	-3.2156008e-10	0.07056918	0.07056918	0	167465.53	167465.34	-8.09949e-05	633934	278836.6	-0.00020074389	278836.97	633933.4	-0.00024332592
0	0.65188986	0.65188944	-1.6741016e-10	0.07042789	0.07042789	0	167442.55	167442.47	-3.762755e-05	634018.06	278627.6	-0.00013122219	278627.6	634017.6	-8.690212e-05
0	0.6518001	0.6517996	-7.624621e-11	0.070286386	0.070286386	0	167419.5	167419.4	-2.4234694e-05	634102.44	278417.6	-8.7771135e-05	278417.62	634102.06	-3.4760844e-05
0	0.65171	0.65170956	-4.0112136e-10	0.07014502	0.07014502	0	167396.36	167396.27	-0.000106505104	634186.75	278207.1	-0.00032631744	278207.12	634186.3	-0.0002502781
0	0.65162	0.6516196	-4.3095683e-10	0.07000352	0.07000352	0	167373.25	167373.16	-0.00010969388	634270.75	277997.22	-0.00035586415	277997.25	634270.25	-0.00022942158
0	0.65152955	0.65152913	-1.8067037e-10	0.06986222	0.06986222	0	167350.02	167349.92	-4.846939e-05	634355.2	277786.16	-0.00013643631	277786.16	634354.7	-0.00010775862
0	0.6514391	0.6514388	-3.1493e-10	0.069720745	0.069720745	0	167326.78	167326.7	-7.493622e-05	634439.3	277575.38	-0.00015338224	277575.34	634438.9	-0.0002919911
0	0.6513486	0.6513482	-3.9614878e-10	0.06957926	0.06957926	0	167303.52	167303.44	-0.000101403064	634523.4	277364.62	-0.0002711346	277364.62	634522.94	-0.0002919911
0	0.65125793	0.6512575	-2.3205368e-10	0.06943794	0.06943794	0	167280.25	167280.14	-6.632653e-05	634607.7	277153.28	-0.00017988737	277153.34	634607.25	-0.00017032815
0	0.6511668	0.6511665	-4.2598425e-10	0.0692964	0.0692964	0	167256.84	167256.75	-0.00011033163	634692.3	276941.16	-0.00028503893	276941.16	634691.9	-0.00035456062
0	0.6510754	0.651075	-7.624621e-11	0.0691551	0.0691551	0	167233.36	167233.28	-1.5625e-05	634776.94	276728.6	3.736791e-05	276728.66	634776.44	-0.00016337597
0	0.650984	0.6509837	-3.480805e-10	0.0690136	0.0690136	0	167209.89	167209.8	-9.5663265e-05	634861.44	276516.12	-0.00028677698	276516.16	634861	-0.00023637374
0	0.6508918	0.65089136	6.2986e-11	0.068872124	0.068872124	0	167186.2	167186.1	1.4668367e-05	634946.56	276301.78	5.9093436e-05	276301.8	634946.06	2.0856507e-05
0	0.6508003	0.6508	-2.1879347e-10	0.06873082	0.06873082	0	167162.7	167162.62	-5.229592e-05	635030.8	276089.62	-0.00019466074	276089.66	635030.4	-0.00011818687
0	0.65070814	0.65070784	-4.3095683e-11	0.06858932	0.06858932	0	167139.03	167138.97	-4.4642857e-06	635115.5	275875.9	-6.4742075e-05	275875.97	635115.06	6.952169e-05
0	0.6506155	0.65061504	-9.613652e-11	0.068447955	0.068447955	0	167115.23	167115.16	-1.7219389e-05	635200.9	275660.78	-6.2569525e-05	275660.84	635200.44	-6.2569525e-05
0	0.65052336	0.65052295	-3.9449125e-10	0.06830648	0.06830648	0	167091.58	167091.47	-9.630102e-05	635285.3	275447.28	-0.00033457312	275447.3	635284.9	-0.00020856508
0	0.6504307	0.6504303	2.1050583e-10	0.06816515	0.06816515	0	167067.77	167067.67	5.8035715e-05	635370.1	275232.8	0.00012557356	275232.88	635369.6	0.0001564238
0	0.6503374	0.6503371	-4.359294e-10	0.068023674	0.068023674	0	167043.83	167043.72	-0.00011352041	635455.2	275017.28	-0.00022898708	275017.3	635454.6	-0.00041713016
0	0.6502436	0.6502432	-3.6465577e-11	0.06788219	0.06788219	0	167019.72	167019.62	-1.4668367e-05	635540.7	274800.3	2.9546718e-05	274800.38	635540.2	-5.214127e-05
0	0.6501509	0.65015054	-2.7349184e-10	0.06774088	0.06774088	0	166995.89	166995.8	-6.8239795e-05	635625.9	274585.25	-0.00027287262	274585.28	635625.44	-0.00012513905
0	0.6500573	0.6500569	-1.8730047e-10	0.067599334	0.067599334	0	166971.88	166971.77	-5.0382652e-05	635711.2	274369	-8.21225e-05	274369.06	635710.7	-0.00021899333
0	0.6499636	0.6499632	-1.8232789e-10	0.06745803	0.06745803	0	166947.8	166947.7	-4.655612e-05	635796.4	274152.66	-0.00013035318	274152.72	635795.9	-0.00012513905
0	0.64986926	0.6498689	-3.530531e-10	0.06731653	0.06731653	0	166923.56	166923.47	-9.183674e-05	635882.1	273934.8	-0.00030763348	273934.9	635881.56	-0.0002224694
0	0.6497753	0.64977485	-2.4862895e-10	0.06717506	0.06717506	0	166899.42	166899.33	-6.0586735e-05	635967.25	273718.06	-0.00016163793	273718.1	635966.8	-0.00014947164
0	0.64968103	0.6496806	3.4808052e-11	0.06703376	0.06703376	0	166875.2	166875.11	7.015306e-06	636052.44	273501	4.9968716e-05	273501.06	636051.9	6.952169e-06
0	0.64958626	0.64958584	-1.4751984e-10	0.066892266	0.066892266	0	166850.86	166850.77	-3.4119897e-05	636138.1	273282.6	-4.4320077e-05	273282.7	636137.7	-0.00016337597
0	0.6494914	0.649491	-3.845461e-10	0.066750884	0.066750884	0	166826.5	166826.4	-9.885204e-05	636223.8	273064.06	-0.00019813683	273064.12	636223.3	-0.00032675194
0	0.649396	0.6493956	-2.51944e-10	0.06660941	0.06660941	0	166802.02	166801.9	-7.52551e-05	636309.7	272844.7	-0.00013209121	272844.72	636309.2	-0.00023637374
0	0.649301	0.64930063	-2.585741e-10	0.06646809	0.06646809	0	166777.6	166777.48	-6.760204e-05	636395	272626.38	-8.733662e-05	272626.44	636394.5	-0.00028503893
0	0.64920497	0.6492045	-2.022182e-10	0.06632662	0.06632662	0	166752.92	166752.83	-5.2933672e-05	636481.1	272405.75	-0.00018770856	272405.8	636480.6	-0.0001355673
0	0.64910954	0.6491092	-4.972579e-11	0.06618514	0.06618514	0	166728.42	166728.33	-1.1479592e-05	636566.94	272186.38	-1.607689e-05	272186.44	636566.44	-5.9093436e-05
0	0.6490136	0.64901316	-1.4917736e-10	0.066043824	0.066043824	0	166703.77	166703.66	-3.4438777e-05	636653.06	271965.9	-0.00017336971	271965.97	636652.5	-1.7380422e-05
0	0.6489173	0.6489169	-1.5912252e-10	0.06590227	0.06590227	0	166679.05	166678.95	-4.0178573e-05	636738.94	271745.2	-0.00012166296	271745.3	636738.5	-9.733037e-05
0	0.64882106	0.64882064	-1.88958e-10	0.06576097	0.06576097	0	166654.34	166654.22	-4.40051e-05	636824.9	271524.56	-0.00015425125	271524.66	636824.4	-9.385428e-05
0	0.64872473	0.6487243	-1.8398541e-10	0.065619476	0.065619476	0	166629.58	166629.47	-4.0816325e-05	636910.56	271304.06	-0.00012513905	271304.12	636910	-0.00014599555
0	0.64862627	0.64862585	-2.1216336e-10	0.06547816	0.06547816	0	166604.28	166604.2	-5.0382652e-05	636998.1	271078.62	-0.00019552975	271078.72	636997.6	-0.00010775862
0	0.64853066	0.6485302	-4.475321e-10	0.0653367	0.0653367	0	166579.72	166579.62	-0.00011033163	637083.2	270859.53	-0.00026939655	270859.62	637082.75	-0.0003197998
0	0.6484332	0.64843285	-3.1990258e-10	0.06519521	0.06519521	0	166554.7	166554.58	-8.227041e-05	637169.9	270636.6	-0.00021855881	270636.66	637169.25	-0.0002224694
0	0.64833593	0.6483355	-3.0829989e-10	0.0650539	0.0650539	0	166529.7	166529.6	-7.3979594e-05	637256	270414.22	-0.00022377293	270414.3	637255.5	-0.00021899333
0	0.6482379	0.6482375	-1.4420479e-10	0.06491236	0.06491236	0	166504.55	166504.44	-3.4438777e-05	637341.9	270191.12	-0.00013773984	270191.16	637341.44	-7.299778e-05
0	0.64813983	0.6481393	-2.022182e-10	0.06477103	0.06477103	0	166479.34	166479.22	-5.229592e-05	637428.6	269967.03	-7.690837e-05	269967.1	637428.06	-0.0002016129
0	0.64804244	0.64804196	1.9890315e-11	0.06462956	0.06462956	0	166454.31	166454.2	1.2755102e-05	637514.9	269744.34	1.04282535e-05	269744.4	637514.5	3.823693e-05
0	0.6479439	0.64794344	3.1493e-11	0.06448809	0.06448809	0	166429.03	166428.9	9.566326e-06	637601.4	269519.97	8.8640154e-05	269520.03	637600.9	-1.3904338e-05
0	0.6478443	0.64784396	-2.7680688e-10	0.06434676	0.06434675	0	166403.47	166403.36	-7.015306e-05	637688.75	269293.34	-0.0001972678	269293.44	637688.25	-0.00017728031
0	0.6477464	0.6477459	-3.2487515e-10	0.06420529	0.06420529	0	166378.28	166378.19	-8.290816e-05	637775.1	269069.75	-0.00028112833	269069.8	637774.6	-0.00019466074
0	0.64764756	0.647647	-1.12711784e-10	0.06406391	0.06406391	0	166352.89	166352.77	-2.3596938e-05	637861.4	268845.03	-4.8665184e-05	268845.1	637860.9	-0.00012861512
0	0.6475477	0.6475473	-3.729434e-10	0.06392241	0.06392241	0	166327.28	166327.16	-9.948979e-05	637948.4	268618.34	-0.00022942158	268618.44	637947.9	-0.0003128476
0	0.64744776	0.6474473	-1.6906768e-10	0.063781105	0.063781105	0	166301.61	166301.48	-4.7831632e-05	638035.6	268391.25	-4.9099694e-05	268391.3	638035.1	-0.00018770856
0	0.64734864	0.64734817	-1.4586231e-10	0.06363964	0.06363964	0	166276.11	166276.02	-4.3686225e-05	638122.8	268165.2	-8.603309e-05	268165.28	638122.3	-0.00015294772
0	0.6472485	0.647248	-4.972579e-10	0.06349814	0.06349814	0	166250.4	166250.27	-0.00013679847	638210.06	267937.78	-0.00042929643	267937.84	638209.56	-0.00029894328
0	0.6471492	0.64714885	-7.624621e-11	0.06335684	0.06335683	0	166224.92	166224.8	-2.0408163e-05	638296.06	267712.88	2.0421996e-05	267712.97	638295.5	-0.00011818687
0	0.6470479	0.6470475	-1.955881e-10	0.06321529	0.06321529	0	166198.88	166198.77	-5.9311224e-05	638383.7	267483.28	-0.00018857759	267483.4	638383.2	-0.0001112347
0	0.646947	0.64694667	-1.9061552e-10	0.06307396	0.06307396	0	166172.97	166172.86	-4.336735e-05	638471.4	267254.38	-0.00015468577	267254.5	638470.8	-7.299778e-05
0	0.6468469	0.64684635	-7.127363e-11	0.06293249	0.06293249	0	166147.23	166147.14	-1.7219389e-05	638558	267027.6	-0.00014121593	267027.66	638557.44	4.1713014e-05
0	0.6467446	0.64674413	-9.945158e-11	0.06279103	0.06279103	0	166120.97	166120.86	-2.4872448e-05	638645.7	266796.7	-6.083148e-06	266796.75	638645.2	-0.00011818687
0	0.6466435	0.64664304	-7.127363e-10	0.06264969	0.06264969	0	166095	166094.88	-0.00017857143	638733	266567.8	-0.0006222191	266567.94	638732.5	-0.00037194105
0	0.64654243	0.64654195	-6.630105e-11	0.062508225	0.062508225	0	166069.03	166068.92	-2.1045918e-05	638820.6	266338.7	-8.950918e-05	266338.8	638820.06	0
0	0.6464406	0.64644	-2.9835473e-10	0.06236684	0.06236684	0	166042.86	166042.73	-6.8877554e-05	638908.25	266108.38	-0.00011818687	266108.5	638907.7	-0.00024332592
0	0.6463388	0.64633834	1.8232789e-10	0.062225346	0.062225346	0	166016.75	166016.61	4.40051e-05	638995.3	265878.84	0.00014165044	265878.97	638994.8	0.00010080645
0	0.6462362	0.6462357	-5.254358e-10	0.062084038	0.062084038	0	165990.38	165990.25	-0.00013329081	639083.06	265647.4	-0.00037150652	265647.53	639082.5	-0.00036498887
0	0.6461338	0.64613324	-9.945158e-11	0.061942577	0.061942577	0	165964.08	165963.95	-2.1683674e-05	639171	265416.16	-5.8224417e-05	265416.28	639170.44	-4.8665184e-05
0	0.64603096	0.6460305	-2.3039615e-10	0.061801083	0.06180108	0	165937.66	165937.55	-5.3571428e-05	639258.75	265184.5	-0.00014947164	265184.62	639258.25	-0.00016685206
0	0.6459285	0.64592797	-3.77916e-10	0.061659772	0.061659772	0	165911.34	165911.23	-9.119898e-05	639346.06	264953.7	-0.0002424569	264953.8	639345.5	-0.00028156285
0	0.645825	0.6458245	-1.1602684e-11	0.06151823	0.06151823	0	165884.77	165884.64	-3.8265307e-06	639433.94	264720.94	1.9552976e-05	264721.06	639433.44	-1.04282535e-05
0	0.64572144	0.64572096	-2.4199884e-10	0.061376892	0.061376892	0	165858.14	165858.03	-6.186224e-05	639522	264487.8	-9.385428e-05	264487.94	639521.5	-0.00021551724
0	0.6456177	0.6456172	-2.8177946e-10	0.06123543	0.06123543	0	165831.52	165831.39	-7.8443874e-05	639609.8	264254.8	-0.0003037229	264254.94	639609.25	-9.733037e-05
0	0.6455137	0.6455132	-1.3425963e-10	0.061093967	0.061093967	0	165804.8	165804.67	-4.0816325e-05	639698.2	264020.84	-0.0001598999	264020.97	639697.6	-6.2569525e-05
0	0.6454092	0.64540875	-1.12711784e-10	0.060952656	0.060952656	0	165777.98	165777.86	-3.0612246e-05	639786.3	263786.47	-0.000123401	263786.6	639785.9	-5.214127e-05
0	0.6453052	0.64530474	-1.4586231e-10	0.060811166	0.060811166	0	165751.23	165751.12	-3.125e-05	639874.4	263552.72	-6.952169e-05	263552.84	639873.8	-0.0001112347
0	0.64520043	0.64519984	4.6410736e-11	0.060669772	0.060669772	0	165724.33	165724.19	1.3392857e-05	639962.5	263317.84	0.0001112347	263317.97	639961.94	-6.952169e-05
0	0.6450958	0.64509547	-2.9172462e-10	0.060528316	0.060528316	0	165697.48	165697.34	-7.780612e-05	640050.44	263083.66	-0.00017467325	263083.78	640049.9	-0.00022073137
0	0.6449902	0.64498985	-5.801342e-11	0.060386974	0.060386974	0	165670.36	165670.22	-1.6581633e-05	640139.25	262846.97	-6.6914625e-05	262847.1	640138.7	-4.1713014e-05
0	0.64488393	0.6448835	-4.475321e-10	0.06024551	0.06024551	0	165643.05	165642.92	-0.000112244896	640228.06	262609.3	-0.00031067507	262609.44	640227.5	-0.00030241936
0	0.6447794	0.6447789	-2.3205368e-11	0.06010405	0.06010405	0	165616.19	165616.06	-9.566326e-06	640316.06	262374.94	5.1706756e-05	262375.12	640315.5	-7.647386e-05
0	0.6446716	0.6446711	-4.607923e-10	0.059962712	0.059962712	0	165588.52	165588.39	-0.00012053571	640406.06	262134.03	-0.00029025305	262134.2	640405.5	-0.00034760847
0	0.6445671	0.64456654	-2.4199884e-10	0.059821166	0.059821166	0	165561.64	165561.52	-5.2933672e-05	640493.4	261900.3	-0.00011340726	261900.44	640492.8	-0.0002016129
0	0.644461	0.64446044	-8.287632e-11	0.05967986	0.05967986	0	165534.39	165534.27	-2.1683674e-05	640581.8	261663.33	1.0862764e-06	261663.5	640581.3	-0.0001112347
0	0.6443543	0.64435387	-3.281902e-10	0.059538364	0.059538368	0	165507.02	165506.89	-8.322704e-05	640670.5	261425.47	-0.0002157345	261425.58	640669.94	-0.00022594549
0	0.6442471	0.6442467	-1.5414994e-10	0.059396908	0.059396908	0	165479.47	165479.34	-3.635204e-05	640759.2	261186.72	-0.00015707557	261186.86	640758.56	-3.1284762e-05
0	0.6441397	0.64413923	-2.6686173e-10	0.059255596	0.059255596	0	165451.9	165451.77	-6.8239795e-05	640848.1	260947.38	-0.00018575326	260947.52	640847.56	-0.00020508899
0	0.64403284	0.64403224	-1.4088973e-10	0.059114102	0.059114102	0	165424.44	165424.31	-3.6989797e-05	640937.06	260708.78	-9.819939e-05	260708.92	640936.5	-8.342603e-05
0	0.6439253	0.6439248	-5.801342e-11	0.058972713	0.058972713	0	165396.83	165396.69	-1.4668367e-05	641025.8	260469.5	-8.3208775e-05	260469.64	641025.25	-1.04282535e-05
0	0.64381725	0.64381677	-2.2376605e-10	0.05883125	0.058831252	0	165369.08	165368.95	-5.229592e-05	641114.2	260229.84	-0.0001520787	260229.98	641113.6	-0.00015294772
0	0.6437085	0.643708	-1.9890316e-10	0.0586899	0.0586899	0	165341.12	165341	-4.846939e-05	641204.2	259987.5	-8.472956e-05	259987.67	641203.6	-0.00018423249
0	0.6436008	0.6436003	-2.652042e-10	0.05854845	0.05854845	0	165313.47	165313.31	-7.142857e-05	641293.2	259747.77	-8.4077794e-05	259747.9	641292.56	-0.00027461068
0	0.64349157	0.643491	-2.1216336e-10	0.058406986	0.058406986	0	165285.4	165285.28	-5.229592e-05	641382.6	259505.55	-0.0001851015	259505.69	641382	-0.00011818687
0	0.6433837	0.6433832	-2.5360153e-10	0.05826565	0.05826565	0	165257.7	165257.58	-6.760204e-05	641471.2	259265.92	-0.00015772734	259266.1	641470.5	-0.00019118465
0	0.643274	0.6432735	-5.967095e-11	0.058124106	0.058124106	0	165229.5	165229.38	-1.9132653e-05	641560.75	259022.66	2.4332592e-05	259022.83	641560.2	-9.733037e-05
0	0.6431648	0.64316416	0	0.05798278	0.05798278	0	165201.45	165201.33	-1.3711735e-05	641649.7	258780.8	-5.387931e-05	258780.97	641649.2	-3.4760844e-06
0	0.64305323	0.6430527	-2.403413e-10	0.05784131	0.05784131	0	165172.83	165172.69	-5.2933672e-05	641741	258533.44	-0.00015772734	258533.61	641740.4	-0.0001355673
0	0.6429454	0.6429449	6.464353e-11	0.057699848	0.057699848	0	165145.12	165144.98	1.2755102e-06	641828.75	258294.72	-6.17005e-05	258294.89	641828.06	0.00010428254
0	0.6428343	0.64283377	-1.193419e-10	0.05755853	0.05755853	0	165116.6	165116.45	-3.1887754e-05	641918.4	258049.52	-4.366831e-05	258049.66	641917.8	-8.342603e-05
0	0.6427241	0.6427236	-2.51944e-10	0.05741706	0.05741706	0	165088.3	165088.16	-6.728317e-05	642008.25	257805.47	-0.00017793207	257805.61	642007.6	-0.00017380423
0	0.64261353	0.64261305	-3.6134074e-10	0.057275645	0.057275645	0	165059.89	165059.75	-9.375e-05	642097.8	257560.97	-0.0002118239	257561.17	642097.3	-0.00028156285
0	0.64250207	0.6425015	-5.900794e-10	0.05713419	0.05713419	0	165031.25	165031.1	-0.00015306122	642187.44	257315.22	-0.00035325708	257315.39	642186.9	-0.00049012795
0	0.6423917	0.6423911	-2.83437e-10	0.056992844	0.056992844	0	165002.89	165002.77	-7.653061e-05	642277.2	257071.02	-0.00025397143	257071.16	642276.56	-0.0001807564
0	0.64227843	0.6422779	-2.5028646e-10	0.056851387	0.056851387	0	164973.81	164973.66	-6.441327e-05	642368.5	256821.08	-0.00018140816	256821.25	642367.9	-0.00014947164
0	0.64216846	0.64216787	-3.0001227e-10	0.056709927	0.056709927	0	164945.55	164945.4	-7.461735e-05	642456.94	256578.66	-0.00029416365	256578.86	642456.4	-0.0001598999
0	0.642056	0.64205545	-2.585741e-10	0.056568585	0.056568585	0	164916.67	164916.53	-6.760204e-05	642547.1	256331.14	-0.0001933572	256331.31	642546.44	-0.0001564238
0	0.64194405	0.64194345	-1.7238273e-10	0.056427047	0.056427047	0	164887.9	164887.77	-4.4642857e-05	642637.1	256084.31	-0.00019944036	256084.48	642636.5	-1.7380422e-05
0	0.6418314	0.64183086	-3.7625847e-10	0.05628571	0.05628571	0	164858.97	164858.83	-8.609694e-05	642727.25	255836.47	-0.00018249443	255836.66	642726.6	-0.00027808675
0	0.6417185	0.641718	-1.9227304e-10	0.05614425	0.05614424	0	164829.98	164829.83	-4.0816325e-05	642817.4	255588.34	-0.00012057668	255588.55	642816.75	-0.00011818687
0	0.64160544	0.6416049	-2.3536872e-10	0.056002792	0.056002792	0	164800.95	164800.8	-6.25e-05	642907.25	255340.19	-0.00014056417	255340.38	642906.6	-0.0002016129
0	0.6414926	0.641492	3.8123105e-11	0.05586147	0.05586147	0	164771.95	164771.81	8.290816e-06	642997.3	255092.06	3.8454185e-05	255092.27	642996.75	-3.4760844e-06
0	0.64137805	0.6413774	-1.4254727e-10	0.055719994	0.055719994	0	164742.52	164742.39	-3.890306e-05	643087.8	254841.19	-0.00021464821	254841.39	643087.2	0
0	0.6412648	0.64126426	-9.613652e-11	0.055578664	0.055578664	0	164713.45	164713.3	-2.2959184e-05	643177.94	254592.62	-0.00012579082	254592.88	643177.25	2.7808675e-05
0	0.6411502	0.6411496	-1.6741016e-10	0.055437125	0.055437125	0	164684	164683.86	-4.5280613e-05	643268.44	254341.67	-0.0001399124	254341.86	643267.8	-0.00013209121
0	0.6410362	0.6410356	-7.956126e-11	0.05529578	0.05529578	0	164654.72	164654.58	-2.5510204e-05	643358.94	254091.6	-5.713814e-05	254091.8	643358.3	-6.952169e-05
0	0.64092165	0.6409211	-1.4254727e-10	0.055154327	0.055154327	0	164625.3	164625.16	-3.9221937e-05	643449.3	253840.77	-6.213501e-05	253840.97	643448.8	-0.00011818687
0	0.6408047	0.6408041	-1.4586231e-10	0.05501287	0.05501287	0	164595.27	164595.11	-3.507653e-05	643541.6	253584.75	-3.2805547e-05	253584.94	643541.06	-0.00011818687
0	0.64069134	0.64069074	-1.12711784e-10	0.054871522	0.054871522	0	164566.16	164566	-2.997449e-05	643630.9	253336.83	-0.0001792356	253337.1	643630.25	2.0856507e-05
0	0.6405751	0.6405746	-2.2542357e-10	0.05473008	0.05473008	0	164536.31	164536.16	-5.5484696e-05	643721.9	253083.19	-0.000110800196	253083.42	643721.2	-0.00023289767
0	0.6404603	0.6404597	-7.624621e-11	0.05458865	0.05458865	0	164506.8	164506.64	-1.6581633e-05	643812.1	252832.06	3.1067506e-05	252832.3	643811.56	-0.00011818687
0	0.6403434	0.6403429	1.4917736e-10	0.054447185	0.054447185	0	164476.8	164476.64	3.635204e-05	643902.7	252577.97	0.000109496665	252578.2	643902.06	6.952169e-05
0	0.6402259	0.6402253	-2.5525904e-10	0.054305855	0.054305855	0	164446.61	164446.44	-6.632653e-05	643995.3	252320.75	-0.00015946537	252320.95	643994.75	-0.00023289767
0	0.64011127	0.64011073	-2.0056068e-10	0.054164406	0.054164406	0	164417.16	164417	-4.846939e-05	644084.6	252070.89	-0.00011796962	252071.12	644083.94	-0.00013904338
0	0.6399932	0.6399926	-2.7846442e-10	0.054022938	0.054022938	0	164386.83	164386.66	-7.270408e-05	644176	251814.12	-0.00022333843	251814.39	644175.5	-0.00016337597
0	0.6398771	0.63987654	-4.972579e-10	0.0538816	0.0538816	0	164357.02	164356.84	-0.00012117347	644266.94	251560.81	-0.0002880805	251561.03	644266.25	-0.0004067019
0	0.63975924	0.6397586	-2.3702626e-10	0.05374007	0.05374007	0	164326.73	164326.58	-6.3137755e-05	644358.25	251304.47	-0.00016902461	251304.66	644357.56	-0.00017728031
0	0.63964224	0.63964164	-1.09396735e-10	0.05359871	0.05359871	0	164296.67	164296.52	-2.8061224e-05	644448.94	251049.94	-9.146448e-05	251050.17	644448.3	-3.823693e-05
0	0.63952374	0.6395232	6.630105e-12	0.053457264	0.053457264	0	164266.25	164266.1	-5.739796e-06	644540.3	250792.81	-8.8640154e-05	250793.03	644539.6	6.952169e-05
0	0.63940567	0.6394051	-1.8564295e-10	0.053315822	0.05331583	0	164235.9	164235.75	-4.145408e-05	644631.7	250535.98	-6.8435416e-05	250536.2	644631.06	-0.00016337597
0	0.6392868	0.63928616	-2.386838e-10	0.053174455	0.053174462	0	164205.39	164205.22	-5.8035715e-05	644723.06	250278.25	-0.0001607689	250278.53	644722.44	-0.00014947164
0	0.6391678	0.6391672	-2.3205368e-10	0.053033024	0.053033024	0	164174.81	164174.66	-6.6007655e-05	644814.75	250019.97	-0.0001627242	250020.22	644814.1	-0.00016337597
0	0.6390488	0.6390482	-7.458868e-11	0.052891586	0.052891586	0	164144.25	164144.1	-2.742347e-05	644906.06	249762.08	-2.5201613e-05	249762.31	644905.4	-9.385428e-05
0	0.6389297	0.6389291	-1.7569779e-10	0.052750126	0.052750126	0	164113.66	164113.48	-4.9744896e-05	644997.3	249504.03	-0.000116448835	249504.3	644996.7	-0.00015294772
0	0.63880956	0.63880897	-1.5912252e-10	0.052608773	0.052608773	0	164082.81	164082.64	-3.762755e-05	645088.44	249244.73	-0.00011384177	249244.95	645087.8	-0.00011471079
0	0.63868934	0.6386887	-7.127363e-11	0.05246734	0.05246734	0	164051.92	164051.77	-1.5943877e-05	645180.06	248984.78	-8.907467e-05	248985.03	645179.4	-2.7808675e-05
0	0.6385694	0.63856876	-2.0553326e-10	0.052325882	0.052325882	0	164021.11	164020.94	-5.2933672e-05	645271.94	248725.02	-0.00017554227	248725.25	645271.25	-0.00010428254
0	0.63844866	0.63844806	-2.9172462e-10	0.05218454	0.05218454	0	163990.1	163989.94	-7.302296e-05	645363.56	248464.23	-0.0002959017	248464.52	645362.94	-8.342603e-05
0	0.6383277	0.638327	-3.911762e-10	0.052043002	0.052043002	0	163959.03	163958.88	-0.000101403064	645455.8	248202.7	-0.00024767104	248202.97	645455.1	-0.0002919911
0	0.63820726	0.63820666	-2.9835473e-10	0.051901635	0.051901635	0	163928.08	163927.92	-7.9719386e-05	645547.25	247942.72	-0.0002715691	247942.98	645546.56	-0.00017032815
0	0.63808554	0.6380849	-3.8123105e-10	0.0517602	0.0517602	0	163896.84	163896.67	-9.757653e-05	645639.4	247680.08	-0.00024701926	247680.4	645638.75	-0.00028503893
0	0.63796395	0.63796324	-3.9780632e-10	0.051618766	0.051618766	0	163865.6	163865.4	-9.821429e-05	645731.4	247417.83	-0.000287646	247418.08	645730.7	-0.00027808675
0	0.63784194	0.6378413	-4.0112136e-10	0.05147742	0.05147742	0	163834.25	163834.08	-0.000100765305	645823.4	247155.16	-0.00034956375	247155.44	645822.6	-0.0002016129
0	0.6377194	0.63771874	-1.6741016e-10	0.05133596	0.05133596	0	163802.77	163802.6	-4.40051e-05	645915.56	246891.27	-8.429505e-05	246891.53	645914.9	-0.00013209121
0	0.6375969	0.63759625	-2.3039615e-10	0.051194515	0.051194515	0	163771.33	163771.14	-6.0586735e-05	646007.56	246627.84	-0.00019813683	246628.12	646006.9	-0.00018770856
0	0.637474	0.6374733	-7.2931154e-11	0.05105309	0.05105309	0	163739.73	163739.56	-2.0408163e-05	646099.7	246363.55	-2.2160038e-05	246363.86	646099	-6.6045606e-05
0	0.6373503	0.63734955	-4.044364e-10	0.05091171	0.05091171	0	163707.97	163707.8	-0.000102040816	646192	246098.1	-0.00023984983	246098.4	646191.4	-0.00034413236
0	0.63722736	0.6372266	-4.243267e-10	0.05077028	0.05077028	0	163676.38	163676.22	-0.00011926021	646284.2	245833.81	-0.00030198484	245834.1	646283.44	-0.0003371802
0	0.637103	0.63710237	-3.1327246e-10	0.050628845	0.050628845	0	163644.47	163644.3	-8.195153e-05	646376.25	245567.7	-0.00014990615	245567.98	646375.56	-0.00025375417
0	0.6369775	0.6369769	-3.397929e-10	0.050487474	0.050487474	0	163612.22	163612.05	-9.0561225e-05	646470.25	245298	-0.0002637479	245298.28	646469.6	-0.00024332592
0	0.63685477	0.6368541	-8.121879e-11	0.050345946	0.050345946	0	163580.7	163580.52	-2.5829082e-05	646561.5	245034.86	-2.9329463e-05	245035.14	646560.8	-0.00010775862
0	0.6367299	0.6367292	-2.1879347e-10	0.05020459	0.05020459	0	163548.62	163548.44	-5.6760204e-05	646654.25	244767.23	-0.00019205367	244767.55	646653.7	-0.00012513905
0	0.63660556	0.63660485	-2.8177946e-10	0.050063137	0.050063137	0	163516.69	163516.52	-7.3341835e-05	646746.1	244501.36	-0.00017988737	244501.64	646745.44	-0.00021899333
0	0.63647974	0.636479	-1.193419e-10	0.04992171	0.04992171	0	163484.38	163484.19	-2.997449e-05	646839.2	244232.2	-0.0001253563	244232.55	646838.44	-4.51891e-05
0	0.63635474	0.63635397	-2.4199884e-10	0.049780354	0.049780354	0	163452.27	163452.08	-5.9630103e-05	646931.3	243965.02	-0.00025201612	243965.33	646930.6	-6.2569525e-05
0	0.63622683	0.6362261	-2.0884831e-10	0.049638905	0.0496389	0	163419.4	163419.22	-5.8035715e-05	647025.56	243691.61	-9.602684e-05	243691.92	647024.94	-0.00018423249
0	0.63610274	0.63610196	-1.0608168e-10	0.049497455	0.049497455	0	163387.53	163387.34	-2.2321428e-05	647116.6	243426.89	-0.00010580332	243427.2	647116	-1.7380422e-05
0	0.6359753	0.6359745	-1.9061552e-10	0.04935602	0.04935602	0	163354.8	163354.61	-5.1658164e-05	647210	243155.1	-0.00016120342	243155.4	647209.4	-8.342603e-05
0	0.6358492	0.6358484	-3.3316278e-10	0.04921464	0.04921464	0	163322.4	163322.22	-8.227041e-05	647302.6	242885.94	-0.00022105726	242886.25	647301.9	-0.00023984983
0	0.635722	0.63572127	-1.4586231e-10	0.04907321	0.04907321	0	163289.73	163289.56	-3.4438777e-05	647395.3	242615.19	-0.00012448728	242615.53	647394.56	-7.299778e-05
0	0.6355943	0.6355936	-2.9172462e-10	0.04893179	0.04893179	0	163256.95	163256.77	-7.3979594e-05	647488.4	242343.47	-0.00019737643	242343.75	647487.6	-0.00018770856
0	0.6354663	0.6354655	-2.3702626e-10	0.048790418	0.048790418	0	163224.05	163223.86	-6.632653e-05	647581.7	242070.72	-0.00015935676	242071.03	647581	-0.00020508899
0	0.63533866	0.63533777	-4.2598425e-10	0.048648883	0.048648883	0	163191.25	163191.06	-0.00010459184	647674.3	241799.4	-0.00041723877	241799.72	647673.56	-0.00018770856
0	0.63521	0.63520926	-2.718343e-10	0.04850753	0.04850753	0	163158.22	163158.03	-7.142857e-05	647767.44	241526.2	-0.00012231473	241526.55	647766.7	-0.0002502781
0	0.6350816	0.6350809	-2.1216336e-10	0.048366077	0.048366077	0	163125.23	163125.03	-5.1020408e-05	647860.6	241253.14	-9.885115e-05	241253.48	647860	-0.00020508899
0	0.63495237	0.6349516	-2.8177946e-11	0.048224654	0.048224654	0	163092.05	163091.86	-2.5510203e-06	647954.2	240978.75	1.4447476e-05	240979.1	647953.5	-3.823693e-05
0	0.63482285	0.6348221	-1.3923221e-10	0.04808329	0.04808329	0	163058.77	163058.58	-3.380102e-05	648047.94	240703.7	-0.00010993117	240704.02	648047.25	-6.6045606e-05
0	0.6346934	0.6346926	-4.9062776e-10	0.04794185	0.04794185	0	163025.55	163025.33	-0.00012053571	648140.9	240429.56	-0.00021008585	240429.9	648140.25	-0.00043798666
0	0.6345632	0.6345624	7.2931154e-11	0.047800384	0.047800384	0	162992.08	162991.88	2.327806e-05	648234.1	240153.97	7.690837e-05	240154.28	648233.4	1.3904338e-05
0	0.6344331	0.6344324	-4.5084714e-10	0.047658965	0.047658965	0	162958.69	162958.48	-0.00011926021	648327.7	239878.4	-0.0004032258	239878.75	648327	-0.00025375417
0	0.63430256	0.6343018	-3.0166977e-10	0.04751758	0.04751758	0	162925.12	162924.94	-7.9081634e-05	648421.2	239602.02	-0.00017912698	239602.39	648420.4	-0.00022942158
0	0.63417155	0.6341708	8.287632e-11	0.047376156	0.047376156	0	162891.5	162891.3	1.4668367e-05	648515.1	239324.66	6.17005e-05	239325.03	648514.44	3.4760844e-05
0	0.6340402	0.6340394	1.6575262e-11	0.047234733	0.047234733	0	162857.73	162857.55	-1.9132654e-06	648608.56	239047.22	-5.6486374e-06	239047.6	648607.94	3.4760844e-05
0	0.63390875	0.63390803	-4.1438156e-10	0.047093347	0.047093347	0	162824	162823.8	-0.00010267857	648702.5	238769.42	-0.00030839388	238769.78	648701.75	-0.0002676585
0	0.63377714	0.6337765	-3.845461e-10	0.046951823	0.046951823	0	162790.19	162790	-9.5663265e-05	648795.94	238491.75	-0.00030643857	238492.11	648795.25	-0.00020856508
0	0.63364494	0.63364416	-1.5083489e-10	0.046810456	0.046810456	0	162756.22	162756.02	-4.0816325e-05	648889.75	238212.75	-0.000121011195	238213.12	648889.06	-5.9093436e-05
0	0.6335124	0.6335116	-2.2542357e-10	0.046669025	0.04666902	0	162722.17	162721.95	-5.6122448e-05	648983.6	237933.22	-7.440994e-05	237933.6	648982.94	-0.00025723025
0	0.63337946	0.63337874	-2.2210853e-10	0.046527658	0.046527658	0	162688.05	162687.86	-5.2933672e-05	649077.5	237653.48	-0.00012839788	237653.84	649076.75	-0.00014599555
0	0.63324624	0.63324547	-3.1493e-10	0.046386234	0.046386234	0	162653.81	162653.61	-8.227041e-05	649171.44	237372.9	-0.00018683955	237373.25	649170.7	-0.00022942158
0	0.6331129	0.6331121	-1.7569779e-10	0.0462448	0.0462448	0	162619.56	162619.36	-4.9107144e-05	649265.4	237092.28	-0.00017749757	237092.66	649264.6	-7.299778e-05
0	0.6329792	0.6329784	-1.8730047e-10	0.04610342	0.04610342	0	162585.22	162585.02	-4.7831632e-05	649359.25	236811.22	-0.0001171006	236811.58	649358.5	-0.00014599555
0	0.6328446	0.63284373	-1.6575263e-10	0.045961898	0.045961898	0	162550.66	162550.42	-4.591837e-05	649453.44	236528.61	-0.00010743274	236529	649452.6	-0.00013209121
0	0.6327102	0.6327094	-6.9616105e-11	0.045820512	0.045820512	0	162516.14	162515.92	-1.5943877e-05	649547.4	236246.5	6.5176587e-06	236246.88	649546.7	-7.299778e-05
0	0.63257545	0.63257474	-2.7349184e-10	0.0456791	0.045679096	0	162481.55	162481.33	-7.206632e-05	649641.75	235963.6	-0.00016185519	235963.95	649641	-0.000246802
0	0.63244015	0.6324393	-1.7901283e-10	0.045537677	0.045537677	0	162446.77	162446.56	-5.484694e-05	649736.2	235679.58	-0.00014002103	235679.95	649735.44	-0.0001598999
0	0.6323038	0.632303	-1.09396735e-10	0.045396283	0.045396283	0	162411.75	162411.53	-3.1887754e-05	649830.4	235394.48	-0.00029785698	235394.88	649829.7	0.00015294772
0	0.6321691	0.6321683	2.3205368e-11	0.04525487	0.04525487	0	162377.16	162376.95	1.9132654e-06	649924.56	235111.8	-1.1080019e-05	235112.19	649923.9	2.4332592e-05
0	0.6320331	0.6320323	-2.4697142e-10	0.045113385	0.045113385	0	162342.22	162342.02	-6.505102e-05	650018.8	234827.16	-0.00019357445	234827.58	650018.1	-0.00017380423