# t (s)	mx ()	my ()	mz ()	B_extx (T)	B_exty (T)	B_extz (T)	m_fullx (A/m)	m_fully (A/m)	m_fullz (A/m)	m_full.region1x (A/m)	m_full.region1y (A/m)	m_full.region1z (A/m)	m_full.region2x (A/m)	m_full.region2y (A/m)	m_full.region2z (A/m)
0	0.626557	0.6265556	-3.49839e-10	0.070710905	0.07071091	0	65462.27	65462.117	-3.6673555e-05	666437.75	210739.95	-0.00025955148	210742.05	666437.94	-0.00024224806
0	0.62623554	0.62623334	-1.336649e-10	0.07035723	0.07035723	0	65428.676	65428.45	-1.3688016e-05	666646.1	210080.75	-0.000110741974	210083.69	666645.94	-7.959579e-05
0	0.6259081	0.6259058	-3.3498734e-10	0.07000352	0.07000351	0	65394.465	65394.23	-3.6286157e-05	666856.9	209411.5	-0.0003114618	209414.45	666856.75	-0.0001799557
0	0.6255793	0.62557703	-3.0033348e-10	0.069649905	0.069649905	0	65360.105	65359.87	-3.1572832e-05	667067.5	208740.56	-0.00020266646	208743.48	667067.25	-0.00022148395
0	0.62524873	0.62524647	-4.5627588e-10	0.0692966	0.0692966	0	65325.57	65325.34	-4.719783e-05	667278	208067.25	-0.00025479306	208070.17	667277.9	-0.00039451828
0	0.62491614	0.62491393	-3.2508624e-10	0.06894301	0.06894301	0	65290.824	65290.594	-3.473657e-05	667488.8	207390.83	-0.00020071982	207393.77	667488.7	-0.0002837763
0	0.62458223	0.62457997	-3.0280875e-10	0.06858927	0.06858926	0	65255.938	65255.707	-3.0346075e-05	667699.44	206712.72	-0.00024376212	206715.64	667699.3	-0.00017822535
0	0.6242463	0.6242441	-3.5726483e-10	0.06823563	0.06823563	0	65220.844	65220.61	-3.7835744e-05	667910.1	206031.84	-0.00020893896	206034.75	667909.9	-0.00031665282
0	0.62390864	0.62390643	-2.2690029e-10	0.06788235	0.06788235	0	65185.562	65185.336	-2.3372933e-05	668120.9	205348.34	-0.00014188814	205351.27	668120.6	-0.00017649501
0	0.6235677	0.6235655	-4.2574747e-10	0.06752872	0.06752872	0	65149.938	65149.715	-4.4034092e-05	668332.44	204659.42	-0.000351476	204662.39	668332.25	-0.00025782114
0	0.6232236	0.62322146	-2.0379771e-10	0.06717497	0.06717497	0	65113.992	65113.766	-2.1306818e-05	668544.8	203965.34	-0.00010728128	203968.25	668544.6	-0.00019552879
0	0.62288463	0.6228825	-3.7541686e-10	0.06682181	0.06682182	0	65078.58	65078.348	-4.003099e-05	668753	203282.58	-0.00031838316	203285.5	668752.94	-0.00023013566
0	0.62254024	0.62253815	-4.513253e-10	0.06646818	0.06646818	0	65042.598	65042.37	-4.719783e-05	668963.4	202590.03	-0.0002591189	202592.95	668963.3	-0.00041701272
0	0.62219304	0.6221909	-3.8366776e-10	0.066114426	0.066114426	0	65006.32	65006.094	-4.0676652e-05	669174.44	201892.92	-0.0003140573	201895.83	669174.4	-0.00022148395
0	0.6218451	0.62184286	-2.772309e-10	0.06576081	0.06576081	0	64969.957	64969.742	-2.9442148e-05	669384.75	201195.36	-0.00024224806	201198.28	669384.7	-0.0001436185
0	0.6214947	0.62149256	-1.43566e-10	0.06540752	0.065407515	0	64933.35	64933.125	-1.4398243e-05	669595.44	200494.22	-0.00023575927	200497.14	669595.3	5.364064e-05
0	0.62114227	0.62114006	-2.8383165e-10	0.065053925	0.06505392	0	64896.527	64896.305	-2.9506715e-05	669806.06	199790.1	-0.00029199544	199793	669806	-0.00012285437
0	0.6207886	0.62078637	-3.5808992e-10	0.06470017	0.06470018	0	64859.582	64859.355	-3.5511363e-05	670016.44	199084.69	-0.00026993355	199087.58	670016.3	-0.00024051772
0	0.6204319	0.6204298	-1.8399551e-10	0.064346544	0.064346544	0	64822.32	64822.094	-1.9886364e-05	670227.25	198374.48	-0.00019552879	198377.39	670227.25	-6.575305e-05
0	0.62007457	0.62007254	-4.6040133e-10	0.06399326	0.06399326	0	64784.984	64784.766	-4.8295453e-05	670437.4	197664.16	-0.00042350154	197667.06	670437.4	-0.0002630122
0	0.6197151	0.619713	-4.7607807e-10	0.06363963	0.06363963	0	64747.426	64747.203	-4.868285e-05	670647.7	196950.58	-0.0002837763	196953.48	670647.6	-0.00040143964
0	0.61935323	0.6193511	-4.521504e-10	0.063285895	0.063285895	0	64709.625	64709.39	-4.6810434e-05	670858.2	196233.47	-0.0003445546	196236.36	670858.06	-0.0002958887
0	0.6189899	0.6189878	-1.2706416e-10	0.062932715	0.062932715	0	64671.66	64671.43	-1.4204546e-05	671068.3	195514.64	-8.478682e-05	195517.53	671068.25	-0.00010035991
0	0.61862415	0.6186221	-3.9274378e-10	0.062579095	0.062579095	0	64633.45	64633.223	-4.1451447e-05	671278.6	194792.39	-0.00031665282	194795.28	671278.6	-0.000287237
0	0.6182568	0.61825466	-2.817689e-10	0.062225346	0.062225346	0	64595.062	64594.844	-2.827996e-05	671488.75	194067.9	-0.00027058244	194070.8	671488.7	-0.00011420266
0	0.6178874	0.6178853	-2.6402944e-10	0.06187174	0.06187174	0	64556.465	64556.242	-2.6859505e-05	671698.75	193340.72	-0.00014188814	193343.58	671698.7	-0.00021629292
0	0.6175163	0.61751413	-2.314383e-10	0.061518423	0.061518423	0	64517.688	64517.473	-2.8215392e-05	671908.6	192611.27	-0.00023359635	192614.14	671908.56	-0.0001280454
0	0.6171429	0.61714095	-1.43566e-10	0.061164845	0.061164837	0	64478.695	64478.473	-1.3558884e-05	672118.4	191878.94	-9.041044e-05	191881.81	672118.4	-0.000110741974
0	0.61676776	0.61676574	-4.30698e-10	0.060811095	0.060811095	0	64439.49	64439.273	-4.455062e-05	672328.1	191143.92	-0.00027361052	191146.78	672328.1	-0.00036510243
0	0.6163905	0.6163885	-2.87132e-10	0.060457483	0.060457483	0	64400.07	64399.855	-3.176653e-05	672537.8	190406.11	-0.00030281008	190408.97	672537.75	-0.00010901163
0	0.6160111	0.616009	-3.1601022e-10	0.06010417	0.06010417	0	64360.426	64360.21	-3.2928718e-05	672747.4	189665.28	-0.00023835478	189668.14	672747.3	-0.0002197536
0	0.6156298	0.6156278	-2.8548183e-10	0.05975055	0.05975055	0	64320.598	64320.38	-2.7698863e-05	672956.7	188922.12	-0.0002534953	188925.02	672956.7	-0.0001401578
0	0.61524665	0.61524457	-4.872168e-10	0.05939681	0.059396807	0	64280.566	64280.348	-4.8618283e-05	673165.94	188176.56	-0.00036683277	188179.4	673165.9	-0.00032184387
0	0.61486053	0.61485845	-2.5907887e-10	0.05904362	0.05904362	0	64240.227	64240.008	-2.7376032e-05	673375.5	187426.44	-0.00029350948	187429.28	673375.5	-8.3056475e-05
0	0.6144732	0.6144712	-2.06273e-10	0.05869	0.05869	0	64199.75	64199.54	-2.2856406e-05	673584.44	186675.3	-0.00016200339	186678.14	673584.44	-0.0001678433
0	0.6140845	0.6140825	1.8152023e-11	0.058336258	0.05833626	0	64159.145	64158.938	1.5495867e-06	673792.8	185922.61	-7.786545e-05	185925.45	673792.9	9.6899224e-05
0	0.61369234	0.6136905	-2.7558072e-10	0.057982665	0.057982665	0	64118.176	64117.973	-2.9119317e-05	674001.9	185164.73	-0.00028831846	185167.56	674001.9	-0.00010728128
0	0.6132984	0.6132965	-1.9802207e-10	0.05762932	0.057629317	0	64077.01	64076.8	-2.0661157e-05	674210.56	184404.39	-0.00021131817	184407.23	674210.56	-6.921373e-05
0	0.61289793	0.61289597	-3.0363384e-10	0.057275716	0.057275716	0	64035.168	64034.96	-3.1895663e-05	674421.4	183632.83	-0.00027685493	183635.66	674421.5	-0.00019898948
0	0.61250484	0.6125028	-4.6700205e-10	0.05692201	0.05692201	0	63994.1	63993.89	-4.813404e-05	674627.2	182876.67	-0.00037461933	182879.55	674627.25	-0.0002993494
0	0.6121044	0.6121024	-3.3333716e-10	0.056568418	0.05656841	0	63952.258	63952.05	-3.512397e-05	674835.5	182107.75	-0.00024224806	182110.58	674835.56	-0.00024743908
0	0.6117022	0.6117001	-3.3498734e-10	0.056215063	0.056215063	0	63910.24	63910.027	-3.6092457e-05	675043.4	181336.8	-0.00026474253	181339.58	675043.44	-0.000231866
0	0.61129344	0.6112914	-1.2376379e-10	0.055861466	0.055861466	0	63867.53	63867.32	-1.213843e-05	675253.3	180554.61	-8.976156e-05	180557.45	675253.44	-0.00010728128
0	0.61089116	0.6108892	-3.168353e-10	0.05550773	0.05550773	0	63825.5	63825.293	-3.515625e-05	675458.75	179786.11	-0.00020634344	179788.9	675458.75	-0.00027685493
0	0.6104822	0.61048025	5.775644e-11	0.055154506	0.055154506	0	63782.777	63782.574	6.3274792e-06	675666.2	179006.1	1.2112403e-05	179008.89	675666.25	7.6135104e-05
0	0.6100667	0.6100648	-2.0132244e-10	0.05480091	0.05480091	0	63739.367	63739.164	-2.1306818e-05	675875.5	178215.06	-0.00018990517	178217.88	675875.6	-8.824751e-05
0	0.6096579	0.609656	-2.9290764e-10	0.05444718	0.05444718	0	63696.66	63696.45	-3.2347623e-05	676080.3	177437.94	-0.0002744757	177440.73	676080.44	-0.0001678433
0	0.6092423	0.6092403	-6.014921e-10	0.0540936	0.0540936	0	63653.227	63653.023	-6.3403924e-05	676287.2	176649.19	-0.00043777685	176651.98	676287.3	-0.0004395072
0	0.6088242	0.6088223	-3.4241318e-11	0.053740222	0.053740222	0	63609.55	63609.348	-4.390496e-06	676493.9	175857.2	5.407323e-06	175859.98	676494	-4.8449612e-05
0	0.6084038	0.60840183	1.1551288e-11	0.05338663	0.05338663	0	63565.63	63565.42	1.8078513e-06	676700.44	175062.08	0.00016524778	175064.89	676700.56	-0.0001436185
0	0.6079818	0.6079799	-2.4628996e-10	0.05303293	0.05303294	0	63521.53	63521.344	-2.5891013e-05	676906.4	174265.36	-0.000115933	174268.14	676906.44	-0.00021283222
0	0.6075575	0.6075556	-4.3894893e-10	0.052679352	0.052679352	0	63477.207	63477.008	-4.3969525e-05	677112.06	173465.72	-0.0004087936	173468.47	677112.25	-0.00021110188
0	0.6071302	0.60712826	-4.744279e-10	0.052325953	0.052325953	0	63432.56	63432.367	-5.0426137e-05	677317.8	172661.62	-0.00040836103	172664.42	677318	-0.00028550666
0	0.6067004	0.6066986	-6.600736e-12	0.051972385	0.051972385	0	63387.664	63387.47	-1.0007748e-06	677523.5	171854.42	7.786545e-05	171857.19	677523.56	-7.6135104e-05
0	0.60626936	0.6062675	-2.2772538e-10	0.05161865	0.05161865	0	63342.62	63342.43	-2.4018595e-05	677728.25	171046.08	-0.00032703488	171048.83	677728.44	3.4606867e-06
0	0.60583144	0.6058295	-1.336649e-10	0.051265404	0.0512654	0	63296.863	63296.668	-1.25903925e-05	677935	170226.12	-0.00011506783	170228.89	677935.3	-6.921373e-05
0	0.605399	0.60539716	-2.2112465e-10	0.05091182	0.05091182	0	63251.68	63251.492	-2.2565857e-05	678137.75	169418.03	-0.00016438261	169420.75	678137.94	-0.0001799557
0	0.60496	0.6049582	-1.9802207e-11	0.050558098	0.050558094	0	63205.824	63205.63	-1.2913223e-06	678342.25	168599.1	-6.121089e-05	168601.81	678342.4	4.8449612e-05
0	0.604519	0.6045172	-2.0297262e-10	0.050204538	0.050204538	0	63159.746	63159.56	-2.0273761e-05	678546.2	167777.78	-0.0003201135	167780.5	678546.3	3.8067552e-05
0	0.6040753	0.60407346	-3.382877e-10	0.049851112	0.049851112	0	63113.395	63113.203	-3.376808e-05	678749.94	166952.8	-0.0001436185	166955.52	678750.06	-0.00034260796
0	0.6036296	0.6036278	-2.0792318e-10	0.04949754	0.04949754	0	63066.824	63066.63	-2.185563e-05	678953.25	166125.44	-9.14919e-05	166128.14	678953.4	-0.00020937154
0	0.603181	0.6031792	-3.4323827e-10	0.049143855	0.049143855	0	63019.953	63019.77	-3.52531e-05	679156.4	165294.36	-0.00037332156	165297.06	679156.56	-0.00010901163
0	0.6027305	0.6027288	-1.3428372e-10	0.0487903	0.0487903	0	62972.89	62972.707	-1.5237603e-05	679359	164461.14	-0.0001648152	164463.84	679359.25	-3.114618e-05
0	0.60227734	0.6022755	-3.9604414e-10	0.048436858	0.048436854	0	62925.535	62925.35	-4.0547522e-05	679561.4	163624.1	-0.00039797896	163626.78	679561.6	-0.0001799557
0	0.6018213	0.60181946	-3.5478956e-10	0.048083298	0.048083294	0	62877.883	62877.695	-3.7190082e-05	679763.56	162783.42	-0.00020764119	162786.12	679763.8	-0.00028550666
0	0.6013626	0.6013608	-2.6402944e-11	0.04772958	0.04772958	0	62829.96	62829.785	-4.390496e-06	679965.56	161939.4	-1.557309e-05	161942.08	679965.75	-2.2494463e-05
0	0.6009025	0.6009007	-2.9373273e-10	0.04737629	0.04737629	0	62781.883	62781.71	-2.9442148e-05	680166.6	161094.17	-0.00027858527	161096.84	680166.8	-0.00012977574
0	0.6004377	0.600436	-7.033909e-11	0.047022734	0.047022734	0	62733.336	62733.156	-8.006198e-06	680368.25	160242.02	-6.40227e-05	160244.67	680368.4	-3.4606866e-05
0	0.59997237	0.5999707	-3.2983052e-10	0.04666901	0.046669014	0	62684.715	62684.53	-3.4978693e-05	680568.7	159390.02	-0.0005069906	159392.67	680568.8	2.4224806e-05
0	0.5995038	0.59950215	-6.4522193e-10	0.04631547	0.04631547	0	62635.76	62635.58	-6.7213325e-05	680769	158533.75	-0.0006854322	158536.4	680769.2	-0.00024570874
0	0.5990325	0.5990308	-1.9967226e-10	0.045961995	0.045961995	0	62586.52	62586.34	-2.1791064e-05	680969	157673.94	-0.00022321429	157676.61	680969.2	-7.6135104e-05
0	0.5985553	0.59855366	-5.759142e-10	0.04560845	0.04560845	0	62536.664	62536.49	-6.1499224e-05	681169.9	156804.98	-0.0005225637	156807.62	681170.1	-0.00030973146
0	0.59808266	0.598081	-4.835039e-10	0.045254778	0.045254774	0	62487.28	62487.113	-5.2508392e-05	681367.44	155945.61	-0.0003787289	155948.22	681367.7	-0.0003201135
0	0.5976035	0.5976018	-2.1555528e-10	0.044901237	0.04490123	0	62437.207	62437.043	-2.3921746e-05	681566.25	155076.02	-0.0002837763	155078.61	681566.56	-3.633721e-05
0	0.59712183	0.5971202	-6.043799e-11	0.044547744	0.044547744	0	62386.902	62386.723	-5.9723657e-06	681764.56	154203.48	-5.1910298e-05	154206.1	681764.8	-2.9415836e-05
0	0.5966376	0.59663594	-2.7908736e-10	0.044194214	0.04419421	0	62336.3	62336.133	-2.8021694e-05	681962.3	153327.73	-0.00023597557	153330.33	681962.6	-0.00014880953
0	0.5961506	0.59614897	-5.3961013e-10	0.0438405	0.0438405	0	62285.42	62285.254	-5.7899666e-05	682159.75	152448.53	-0.000501367	152451.12	682160	-0.00029761906
0	0.5956611	0.59565943	-3.6304046e-10	0.043486964	0.043486964	0	62234.28	62234.11	-3.830385e-05	682356.7	151566.31	-0.00030627075	151568.88	682356.94	-0.00021283222
0	0.5951687	0.59516704	-3.300368e-10	0.043133643	0.043133643	0	62182.832	62182.664	-3.3832646e-05	682553.1	150680.47	-0.00041917566	150683.05	682553.44	-4.8449612e-05
0	0.59467345	0.5946719	-2.5680988e-10	0.04277993	0.04277993	0	62131.09	62130.92	-2.5681173e-05	682749.25	149791.08	-0.0002682032	149793.66	682749.5	-8.651717e-05
0	0.5941757	0.59417415	-6.538854e-11	0.042426404	0.042426404	0	62079.086	62078.926	-5.3589874e-06	682944.6	148898.86	-3.2876524e-05	148901.42	682945	-4.1528237e-05
0	0.59367496	0.5936734	-3.7624195e-10	0.04207289	0.042072885	0	62026.77	62026.61	-4.0805786e-05	683139.75	148002.67	-0.0004122543	148005.22	683140.1	-0.0001280454
0	0.5931711	0.5931695	-4.2203455e-10	0.04171936	0.04171936	0	61974.13	61973.965	-4.455062e-05	683334.44	147102.62	-0.0003447709	147105.16	683334.75	-0.00028204595
0	0.59266514	0.5926636	-2.06273e-10	0.041365698	0.041365698	0	61921.266	61921.098	-2.3469784e-05	683528.4	146200.31	-0.00016438261	146202.81	683528.75	-0.00015919158
0	0.59215605	0.5921545	-2.557785e-10	0.041012187	0.041012183	0	61868.074	61867.918	-2.6681948e-05	683721.94	145294.06	-0.00030324268	145296.6	683722.2	-5.0179955e-05
0	0.59164405	0.5916425	-6.309891e-10	0.040658634	0.040658634	0	61814.58	61814.41	-6.4953514e-05	683914.94	144384.19	-0.00056625484	144386.69	683915.25	-0.00033049556
0	0.59112906	0.5911276	-2.7516817e-10	0.040305126	0.040305126	0	61760.777	61760.613	-2.713391e-05	684107.5	143470.72	-0.000231866	143473.23	684107.9	-0.00013842747
0	0.590612	0.5906105	-1.4831028e-10	0.03995142	0.039951425	0	61706.746	61706.59	-1.3558884e-05	684299.1	142555.17	-2.682032e-05	142557.67	684299.5	-0.00017476467
0	0.59009075	0.59008926	-2.704239e-10	0.039597914	0.039597917	0	61652.29	61652.137	-2.6730371e-05	684490.75	141633.81	-0.00029502352	141636.3	684491.1	-6.0562015e-05
0	0.5895674	0.589566	-9.571067e-11	0.039244547	0.03924455	0	61597.62	61597.47	-8.361312e-06	684681.44	140710.5	-7.4404765e-05	140712.95	684681.9	-2.5955149e-05
0	0.5890354	0.58903396	-5.9406624e-10	0.038890846	0.038890846	0	61542.035	61541.88	-6.285511e-05	684873.7	139773.47	-0.00041744532	139775.92	684874.1	-0.00041355204
0	0.58851147	0.58851	-6.666743e-10	0.038537342	0.038537342	0	61487.29	61487.133	-7.120029e-05	685061.4	138852.22	-0.00041009136	138854.67	685061.8	-0.00058658636
0	0.5879794	0.58797795	-4.5545076e-10	0.038183767	0.038183764	0	61431.695	61431.547	-4.7795067e-05	685250.25	137918.4	-0.00042739479	137920.86	685250.7	-0.00021802326
0	0.5874439	0.5874424	-2.0689181e-10	0.03783027	0.03783027	0	61375.746	61375.598	-2.006392e-05	685438.7	136980.28	-0.00022494463	136982.69	685439.2	-5.1910298e-05
0	0.5869056	0.5869042	-1.5243574e-10	0.03747657	0.037476566	0	61319.508	61319.363	-1.3688016e-05	685626.4	136038.97	-0.00021629292	136041.38	685626.9	2.4224806e-05
0	0.5863641	0.58636266	-2.7454936e-10	0.037123136	0.037123132	0	61262.93	61262.785	-2.6762655e-05	685813.7	135093.69	-0.00022840532	135096.1	685814.06	-0.00015746124
0	0.5858184	0.5858171	-5.5776217e-10	0.036769517	0.036769517	0	61205.92	61205.773	-5.7157155e-05	686000.5	134142.9	-0.00054376037	134145.3	686000.94	-0.00024570874
0	0.58527195	0.58527064	-2.2442502e-10	0.036416043	0.036416046	0	61148.83	61148.684	-2.2840264e-05	686185.94	133192.42	-0.00024224806	133194.8	686186.44	-4.671927e-05
0	0.58472127	0.58472	-4.092456e-10	0.03606234	0.03606234	0	61091.297	61091.15	-4.243608e-05	686371.1	132236.33	-0.000463732	132238.72	686371.56	-0.00012285437
0	0.5841675	0.58416617	-3.8552422e-10	0.03570888	0.03570888	0	61033.43	61033.29	-4.1047908e-05	686555.6	131276.42	-0.00029329318	131278.78	686556.2	-0.0002508998
0	0.5836105	0.5836091	-5.9138466e-10	0.035355456	0.035355452	0	60975.23	60975.09	-6.0950413e-05	686739.56	130312.734	-0.00044988925	130315.086	686740	-0.0003806755
0	0.5830502	0.5830488	-1.3036454e-10	0.03500176	0.03500176	0	60916.7	60916.56	-1.5560434e-05	686922.6	129345.234	-0.00014707918	129347.586	686923.2	-3.633721e-05
0	0.5824871	0.5824858	-1.8152023e-11	0.0346483	0.034648295	0	60857.867	60857.73	-2.6149278e-06	687105	128374.53	6.791597e-05	128376.87	687105.56	-8.3056475e-05
0	0.58192074	0.5819194	-2.574287e-10	0.03429463	0.034294635	0	60798.688	60798.555	-2.7376032e-05	687286.7	127399.98	-6.748339e-05	127402.3	687287.1	-0.00030107974
0	0.58135086	0.5813496	-1.7203168e-10	0.033941176	0.033941176	0	60739.156	60739.027	-1.911157e-05	687467.6	126421.336	-0.00014448367	126423.64	687468.1	-9.343854e-05
0	0.5807778	0.5807766	-5.643629e-10	0.033587486	0.033587486	0	60679.28	60679.152	-6.049845e-05	687647.75	125438.836	-0.00046805787	125441.13	687648.3	-0.00037202382
0	0.580195	0.58019376	-3.201357e-10	0.033234093	0.03323409	0	60618.4	60618.266	-3.4349174e-05	687829.25	124441.516	-0.00020764119	124443.81	687829.75	-0.00023705703
0	0.5796224	0.5796212	-2.5247815e-10	0.032880407	0.032880407	0	60558.57	60558.438	-2.8538223e-05	688005.7	123463.36	-0.00029415835	123465.61	688006.25	-8.478682e-05
0	0.5790395	0.5790383	-2.8053126e-10	0.03252696	0.03252696	0	60497.668	60497.53	-2.9700414e-05	688183.7	122469.38	-0.00029502352	122471.65	688184.1	-0.00011420266
0	0.5784533	0.5784521	-6.518227e-11	0.032173272	0.032173272	0	60436.414	60436.29	-6.4566116e-06	688360.7	121471.62	-0.00013583194	121473.86	688361.2	5.0179955e-05
0	0.5778637	0.5778625	-3.3993788e-10	0.031819817	0.031819817	0	60374.82	60374.69	-3.2541324e-05	688536.94	120470.04	-0.00034866418	120472.266	688537.56	-0.00012112403
0	0.57727104	0.57726985	-6.2211936e-10	0.031466357	0.031466357	0	60312.895	60312.773	-6.5599175e-05	688712.3	119464.98	-0.00045421513	119467.19	688712.8	-0.00045681064
0	0.5766747	0.57667357	-6.518227e-11	0.031112673	0.031112673	0	60250.594	60250.47	-7.877066e-06	688886.75	118455.61	-0.00022321429	118457.81	688887.4	0.0001315061
0	0.57607484	0.5760737	1.2211361e-10	0.030759212	0.030759212	0	60187.914	60187.8	1.1492769e-05	689060.56	117442.016	7.353959e-05	117444.21	689061.1	0.00010555094
0	0.57547164	0.57547045	-1.4934165e-10	0.030405547	0.030405547	0	60124.89	60124.773	-1.711002e-05	689233.44	116424.72	-0.00013842747	116426.9	689234	-6.921373e-05
0	0.57486504	0.5748639	-4.620515e-11	0.030052084	0.030052084	0	60061.52	60061.4	-6.7148762e-06	689405.3	115403.58	-4.0663068e-05	115405.75	689405.94	-3.8067552e-05
0	0.574255	0.5742539	-4.6535187e-10	0.029698404	0.029698404	0	59997.785	59997.668	-4.6745867e-05	689576.3	114378.555	-0.0004144172	114380.71	689576.94	-0.00022667497
0	0.5736414	0.57364035	5.363098e-10	0.029345	0.029344998	0	59933.68	59933.562	5.5785124e-05	689746.44	113349.414	0.00039624862	113351.555	689747	0.00038413622
0	0.5730246	0.5730235	-3.048715e-10	0.02899133	0.028991332	0	59869.234	59869.125	-3.137913e-05	689915.5	112316.84	-0.00022667497	112318.984	689916.1	-0.00021456256
0	0.57240343	0.57240236	4.9505518e-11	0.02863786	0.028637858	0	59804.332	59804.22	4.1322314e-06	690083.94	111278.766	-3.8932725e-05	111280.88	690084.6	0.00012458472
0	0.5717736	0.57177246	-4.207969e-10	0.028284209	0.028284209	0	59738.52	59738.414	-4.4615186e-05	690252.7	110228.17	-0.0005035299	110230.27	690253.3	-6.748339e-05
0	0.5711511	0.57115006	-4.93405e-10	0.027930733	0.027930733	0	59673.484	59673.383	-5.2621384e-05	690417.56	109191.89	-0.0005225637	109193.984	690418.25	-0.0001678433
0	0.5705196	0.5705185	-3.2384861e-10	0.027577253	0.027577253	0	59607.5	59607.402	-3.5705063e-05	690582.9	108142.4	-0.00021369739	108144.48	690583.56	-0.00024743908
0	0.5698842	0.56988317	-1.3696527e-10	0.02722359	0.02722359	0	59541.117	59541.023	-1.25903925e-05	690747.25	107088.53	-0.000146214	107090.57	690747.94	-4.1528237e-05
0	0.5692455	0.5692445	5.775644e-11	0.026870111	0.026870111	0	59474.387	59474.293	5.4881198e-06	690910.5	106031.09	-0.000103820596	106033.15	690911.25	0.00019033776
0	0.568603	0.5686021	8.415938e-11	0.026516465	0.026516465	0	59407.266	59407.168	7.231405e-06	691072.8	104969.4	-1.1247232e-05	104971.414	691073.5	0.00014188814
0	0.56795645	0.5679555	-1.4851656e-10	0.026162978	0.026162978	0	59339.707	59339.613	-1.446281e-05	691234.1	103902.86	-0.00018514674	103904.875	691234.75	-1.7303433e-05
0	0.5673062	0.56730527	-2.3267593e-10	0.025809325	0.025809325	0	59271.777	59271.684	-2.427686e-05	691394.3	102832.445	-0.00014707918	102834.42	691394.94	-0.00015400055
0	0.56665325	0.5666524	-3.4323827e-10	0.02545591	0.02545591	0	59203.56	59203.465	-3.622159e-05	691553.1	101759.484	-0.00016524778	101761.46	691553.9	-0.00030627075
0	0.56599444	0.56599355	-1.5841765e-10	0.025102269	0.025102269	0	59134.727	59134.63	-1.9369834e-05	691711.44	100678.836	-0.00023532669	100680.805	691712.1	-2.0764119e-05
0	0.5653333	0.5653324	-9.571067e-11	0.02474877	0.02474877	0	59065.65	59065.555	-9.555785e-06	691868.2	99596.48	-0.00019379845	99598.42	691868.94	4.671927e-05
0	0.5646678	0.5646669	-3.300368e-12	0.02439515	0.024395147	0	58996.113	58996.023	1.6787191e-06	692024.06	98508.945	2.5955149e-05	98510.875	692024.75	-2.2494463e-05
0	0.5639975	0.5639966	-9.901103e-12	0.024041649	0.024041647	0	58926.09	58925.996	5.8109504e-07	692178.9	97415.734	6.40227e-05	97417.64	692179.6	-7.094407e-05
0	0.5633253	0.5633245	3.795423e-11	0.023688145	0.023688145	0	58855.855	58855.77	4.907025e-06	692332.06	96321.47	7.353959e-05	96323.35	692332.8	-1.7303433e-06
0	0.56264824	0.5626474	-1.9307152e-10	0.023334505	0.023334507	0	58785.11	58785.03	-2.0209194e-05	692484.3	95221.28	-0.00027079872	95223.17	692485.06	3.4606867e-06
0	0.5619671	0.5619663	-1.9472171e-10	0.022980997	0.022980997	0	58713.953	58713.867	-2.0532025e-05	692635.44	94116.65	-9.343854e-05	94118.52	692636.1	-0.0001799557
0	0.5612817	0.5612809	-3.8614303e-10	0.022627389	0.022627389	0	58642.34	58642.25	-3.92562e-05	692785.4	93007.14	-0.00041787792	93008.99	692786.06	-0.00010555094
0	0.5605924	0.5605917	-6.2129424e-10	0.022273872	0.022273874	0	58570.33	58570.25	-6.618027e-05	692934	91893.625	-0.00066272146	91895.47	692934.75	-0.00020071982
0	0.5598992	0.55989844	-2.0792318e-10	0.02192025	0.02192025	0	58497.895	58497.83	-2.4212293e-05	693081.4	90775.71	-0.00031924833	90777.52	693082.1	1.557309e-05
0	0.5592019	0.5592012	-4.009947e-10	0.021566821	0.021566821	0	58425.04	58424.97	-4.2161675e-05	693227.5	89653.35	-0.00037375416	89655.164	693228.25	-0.00020764119
0	0.5584995	0.5584989	1.1650299e-09	0.021213202	0.021213202	0	58351.668	58351.586	0.00012202996	693372.5	88525.125	0.0013799488	88526.91	693373.25	0.00033049556
0	0.5577946	0.55779386	-5.2310833e-10	0.020859681	0.02085968	0	58278.01	58277.93	-5.4622935e-05	693515.9	87394.695	-0.0004360465	87396.46	693516.75	-0.00031492248
0	0.5570848	0.5570841	-4.0429507e-10	0.020506091	0.020506093	0	58203.848	58203.777	-4.2355372e-05	693658.1	86258.8	-0.0002656077	86260.54	693658.94	-0.00033395627
0	0.55637085	0.55637014	-3.4323827e-10	0.020152563	0.020152563	0	58129.25	58129.18	-3.5188532e-05	693799	85118.43	-0.00040403515	85120.16	693799.8	-7.959579e-05
0	0.55565315	0.5556525	-2.4257704e-10	0.019798957	0.019798959	0	58054.273	58054.203	-2.7505166e-05	693938.4	83974.32	-0.00018774225	83976.04	693939.2	-0.00018514674
0	0.55492955	0.5549289	-5.033061e-10	0.019445423	0.019445423	0	57978.67	57978.61	-5.2944215e-05	694076.75	82822.95	-0.0005511143	82824.66	694077.5	-0.00018341638
0	0.55420303	0.55420244	-3.7459175e-10	0.019091884	0.019091882	0	57902.766	57902.7	-3.873967e-05	694213.3	81669.164	-0.00039797896	81670.84	694214.25	-0.000117663345
0	0.55347157	0.553471	-2.6402944e-11	0.018738283	0.018738285	0	57826.336	57826.28	-2.0015495e-06	694348.8	80509.75	6.9213734e-06	80511.41	694349.56	-4.1528237e-05
0	0.5527358	0.55273527	9.901103e-12	0.018384758	0.018384758	0	57749.48	57749.414	0	694482.7	79345.89	5.666874e-05	79347.52	694483.56	-4.4988927e-05
0	0.55199623	0.55199564	-4.727777e-10	0.01803117	0.01803117	0	57672.195	57672.14	-4.758523e-05	694615.06	78178.02	-0.0005069906	78179.63	694615.94	-0.0001436185
0	0.5512517	0.5512512	4.12546e-11	0.017677728	0.017677726	0	57594.414	57594.363	4.907025e-06	694746.06	77004.76	-0.000102955426	77006.36	694746.9	0.00019898948
0	0.5504988	0.55049825	-4.1089582e-10	0.01732415	0.01732415	0	57515.754	57515.7	-4.4292356e-05	694876.2	75820.555	-0.00038586656	75822.14	694877.06	-0.00022494463
0	0.54974973	0.54974926	-2.557785e-10	0.016970588	0.016970586	0	57437.492	57437.44	-2.7117769e-05	695003.4	74644.734	-0.00024830428	74646.29	695004.25	-0.00012458472
0	0.5489924	0.5489919	-3.9439396e-10	0.016617045	0.016617045	0	57358.355	57358.312	-3.822314e-05	695129.6	73458.125	-0.00047843994	73459.664	695130.56	-7.6135104e-05
0	0.5482279	0.5482274	-8.25092e-11	0.01626348	0.01626348	0	57278.48	57278.434	-9.81405e-06	695254.8	72262.664	-0.00017822535	72264.18	695255.7	6.229236e-05
0	0.54745746	0.54745704	2.368014e-10	0.015909908	0.015909908	0	57197.992	57197.957	2.2985538e-05	695378.6	71060.33	0.00027382682	71061.836	695379.5	7.094407e-05
0	0.5466909	0.54669046	-6.4274663e-10	0.015556336	0.015556336	0	57117.895	57117.848	-6.534091e-05	695499.44	69866.21	-0.0007124689	69867.68	695500.4	-0.00022667497
0	0.5459145	0.5459141	-6.8647654e-10	0.015202774	0.015202774	0	57036.777	57036.742	-7.2572315e-05	695619.5	68659.3	-0.00045248476	68660.766	695620.4	-0.0005640919
0	0.54513365	0.5451333	-3.168353e-10	0.014849202	0.014849203	0	56955.207	56955.164	-3.1637395e-05	695737.9	67447.91	-0.00023921997	67449.336	695738.7	-0.00018514674
0	0.5443479	0.5443476	-1.8812098e-10	0.014495666	0.014495666	0	56873.113	56873.074	-1.846591e-05	695854.56	66231.17	2.5955148e-06	66232.58	695855.5	-0.00026993355
0	0.5435579	0.5435575	-8.580957e-11	0.014142104	0.014142104	0	56790.562	56790.527	-8.135331e-06	695969.5	65010.137	-0.0001280454	65011.53	695970.4	3.2876524e-05
0	0.5427624	0.5427621	-8.333429e-11	0.0137886265	0.0137886265	0	56707.457	56707.418	-9.297521e-06	696082.75	63783.23	-3.8932726e-06	63784.598	696083.7	-0.00012977574
0	0.54196215	0.54196185	-6.9307726e-11	0.0134350555	0.0134350555	0	56623.844	56623.816	-8.006198e-06	696194.3	62551.332	-0.000103820596	62552.7	696195.1	1.7303433e-05
0	0.54115736	0.54115707	-7.920883e-11	0.013081489	0.013081489	0	56539.766	56539.727	-9.943182e-06	696304	61314.957	-0.0002844252	61316.297	696305	0.00018168605
0	0.5403476	0.5403473	-4.12546e-10	0.012727955	0.012727955	0	56455.16	56455.125	-4.338843e-05	696412	60073.293	-0.00037959407	60074.6	696412.9	-0.00019725914
0	0.53953296	0.5395327	-2.1782429e-10	0.012374385	0.012374385	0	56370.05	56370.02	-2.4018595e-05	696518.1	58826.707	-0.00030107974	58828	696519.1	-4.3258584e-05
0	0.5387122	0.538712	-1.0891214e-10	0.0120208245	0.0120208245	0	56284.297	56284.28	-1.1880165e-05	696622.56	57573.355	-0.00014707918	57574.62	696623.5	-1.557309e-05
0	0.53789335	0.53789324	-1.0891215e-09	0.0116672525	0.011667253	0	56198.746	56198.723	-0.000113636364	696724.25	56325.273	-0.00039603232	56326.51	696725.25	-0.00120951
0	0.5370584	0.53705835	-2.2112465e-10	0.0113136945	0.0113136945	0	56111.51	56111.496	-2.2985538e-05	696825.44	55055.188	-0.00044123753	55056.406	696826.44	0.00014188814
0	0.53622365	0.5362235	-2.4092686e-10	0.010960125	0.010960125	0	56024.293	56024.277	-2.5826446e-05	696924.06	53787.83	-0.00027966674	53789.027	696925.06	-4.671927e-05
0	0.5353831	0.53538305	-3.6304047e-11	0.010606601	0.0106066	0	55936.473	55936.457	-3.4865702e-06	697020.9	52514.332	-0.00025673967	52515.5	697021.75	0.00021629292
0	0.5345385	0.5345384	-2.87132e-10	0.010253045	0.010253046	0	55848.223	55848.22	-3.2799588e-05	697115.5	51237.25	-0.00019109479	51238.406	697116.44	-0.0002560908
0	0.5336878	0.5336876	-3.300368e-11	0.009899478	0.009899479	0	55759.336	55759.332	-4.6487603e-06	697208.3	49953.395	4.617854e-05	49954.516	697209.25	-6.748339e-05
0	0.532827	0.53282696	-2.574287e-10	0.009545942	0.009545942	0	55669.418	55669.406	-2.6859505e-05	697299.56	48657.188	-0.00023738148	48658.285	697300.56	-0.0001436185
0	0.5319708	0.5319707	1.1551288e-10	0.009192379	0.009192379	0	55579.957	55579.953	1.1880165e-05	697387.7	47370.297	-0.00023359635	47371.38	697388.7	0.00039105758
0	0.5311046	0.5311046	-1.551173e-10	0.008838863	0.008838863	0	55489.46	55489.465	-1.7303719e-05	697474.3	46071.203	-0.00022667497	46072.26	697475.3	-1.2112403e-05
0	0.5302324	0.53023237	-5.478611e-10	0.008485294	0.008485294	0	55398.332	55398.33	-5.7463843e-05	697558.75	44765.516	-0.0004094425	44766.55	697559.9	-0.0003685631
0	0.52935594	0.52935594	-6.270699e-11	0.00813174	0.00813174	0	55306.754	55306.758	-5.165289e-06	697641.2	43456.117	-2.9415836e-05	43457.117	697642.2	-3.114618e-05
0	0.52847254	0.5284726	-2.5412833e-10	0.007778168	0.007778168	0	55214.465	55214.47	-2.9442148e-05	697721.44	42139.184	-0.00037732298	42140.16	697722.5	-1.0382059e-05
0	0.52758515	0.5275852	8.415938e-11	0.007424601	0.007424601	0	55121.75	55121.75	9.81405e-06	697799.44	40818.848	-9.2897804e-05	40819.8	697800.44	0.00021456256
0	0.52669096	0.52669114	-4.224471e-10	0.007071052	0.007071052	0	55028.33	55028.34	-4.571281e-05	697875.25	39491.24	-0.00068175525	39492.17	697876.3	6.0562015e-05
0	0.52579194	0.525792	-1.3531508e-10	0.0067175278	0.0067175278	0	54934.395	54934.402	-1.5625e-05	697948.8	38158.98	-0.00027339425	38159.883	697949.8	5.1910298e-05