# t (s)	mx ()	my ()	mz ()	B_extx (T)	B_exty (T)	B_extz (T)	m_fullx (A/m)	m_fully (A/m)	m_fullz (A/m)	m_full.region1x (A/m)	m_full.region1y (A/m)	m_full.region1z (A/m)	m_full.region2x (A/m)	m_full.region2y (A/m)	m_full.region2z (A/m)
0	0.6378179	0.63781893	-1.472239e-10	0.07071085	0.07071085	0	131747.5	131747.77	-3.774469e-05	638350.56	254595.48	-0.000108062806	254594.5	638351.2	-0.00016374823
0	0.6375702	0.6375703	5.678636e-11	0.07035725	0.070357256	0	131696.36	131696.38	2.0824657e-05	638516.44	254081.97	8.380381e-05	254081.83	638516.44	3.5285815e-05
0	0.6373178	0.6373178	-3.3651176e-11	0.07000352	0.07000352	0	131644.22	131644.22	-1.8221574e-05	638687	253558.03	6.6160906e-06	253557.97	638686.9	-0.00010310074
0	0.6370616	0.63706166	-4.206397e-11	0.06964993	0.06964993	0	131591.3	131591.3	-1.3666181e-05	638858.2	253028.1	0	253028.05	638858.1	-0.00011523024
0	0.63680834	0.63680834	-1.5143028e-10	0.06929657	0.06929657	0	131538.97	131538.97	-4.2950855e-05	639027.5	252504.11	-0.0001146789	252504.06	639027.44	-0.00014555399
0	0.63655186	0.63655186	-8.202474e-11	0.068943	0.068943	0	131486	131486	-3.1236985e-05	639198	251974.58	-9.0419904e-05	251974.55	639198	-0.0001146789
0	0.6362921	0.63629204	-1.6825588e-10	0.06858927	0.06858926	0	131432.34	131432.34	-3.6117763e-05	639369.3	251439.62	-8.380381e-05	251439.53	639369.25	-0.00015547812
0	0.6360351	0.63603514	-4.206397e-11	0.06823568	0.06823568	0	131379.27	131379.27	-1.854696e-05	639539	250910.17	-6.395554e-05	250910.14	639538.94	-0.00012019231
0	0.6357751	0.6357751	-1.8928786e-10	0.06788231	0.06788231	0	131325.56	131325.55	-3.1236985e-05	639709.5	250375.75	-6.395554e-05	250375.67	639709.44	-0.00017642908
0	0.63551354	0.63551354	-2.1662944e-10	0.06752872	0.06752872	0	131271.53	131271.52	-5.1085484e-05	639880.3	249838.66	-0.00016319689	249838.62	639880.3	-0.00018690455
0	0.6352499	0.63524985	-1.2829511e-10	0.067174986	0.067174986	0	131217.06	131217.06	-2.7332362e-05	640051	249298.94	-0.0001146789	249298.89	640050.9	-0.00010144672
0	0.6349869	0.6349869	-1.5143028e-10	0.066821754	0.066821754	0	131162.73	131162.73	-2.7657747e-05	640221.9	248759.73	-8.380381e-05	248759.7	640221.9	-0.00010475476
0	0.6347208	0.6347208	4.4167166e-11	0.066468164	0.066468164	0	131107.78	131107.77	7.483861e-06	640393.2	248215.97	-5.072336e-05	248215.94	640393.1	0.000119640965
0	0.6344539	0.63445383	-1.7877187e-10	0.066114426	0.06611443	0	131052.65	131052.64	-3.6117763e-05	640564.25	247671.3	-4.631263e-05	247671.23	640564.1	-0.00022494707
0	0.63418674	0.63418674	-1.2408871e-10	0.06576086	0.065760866	0	130997.47	130997.45	-1.3666181e-05	640735.75	247125.75	-1.1026817e-05	247125.7	640735.75	-0.00015217008
0	0.6339173	0.6339173	-2.4607422e-10	0.06540746	0.06540746	0	130941.78	130941.79	-4.4252396e-05	640906.94	246577.25	-0.00020950953	246577.22	640906.9	-0.00017587774
0	0.6336474	0.6336473	-2.2924863e-10	0.06505392	0.06505392	0	130886.055	130886.055	-6.052166e-05	641078.06	246028.36	-0.00016540226	246028.33	641078	-0.00015713215
0	0.6333753	0.6333752	-2.671062e-10	0.064700186	0.064700186	0	130829.85	130829.836	-5.499011e-05	641249.56	245475.78	-0.00010144672	245475.75	641249.44	-0.0002646436
0	0.6331023	0.63310224	-8.623114e-11	0.06434661	0.06434661	0	130773.46	130773.46	-1.0737714e-05	641421	244922.17	4.410727e-06	244922.12	641421	-0.00010916549
0	0.632828	0.63282794	-2.4817742e-10	0.06399321	0.06399321	0	130716.8	130716.8	-5.5966266e-05	641592.56	244366.61	-0.00017642908	244366.58	641592.5	-0.00015547812
0	0.6325514	0.6325514	-2.9865418e-10	0.06363963	0.06363963	0	130659.67	130659.67	-5.7267804e-05	641764.4	243807.64	-0.0002293578	243807.58	641764.4	-0.00017698042
0	0.63227475	0.63227475	-8.833433e-11	0.06328591	0.06328591	0	130602.52	130602.51	-4.2300085e-06	641936	243248.67	-3.749118e-05	243248.64	641935.94	-6.6712244e-05
0	0.63199633	0.6319962	-1.6825588e-10	0.06293265	0.06293265	0	130545	130545	-3.3189295e-05	642107.8	242687.05	-5.9544815e-05	242687	642107.7	-0.00011578158
0	0.6317147	0.6317147	-1.9033947e-10	0.06257908	0.06257908	0	130486.84	130486.83	-4.653009e-05	642280.4	242120.25	-0.00016760762	242120.19	642280.25	-0.00010585745
0	0.6314353	0.6314353	4.5218766e-11	0.06222535	0.062225346	0	130429.125	130429.11	-3.904623e-06	642451.4	241557.97	4.410727e-06	241557.94	642451.4	4.9620676e-06
0	0.6311524	0.63115233	-8.412794e-11	0.061871793	0.061871793	0	130370.68	130370.68	-1.4642336e-05	642623.7	240989.69	-3.5285815e-05	240989.66	642623.56	-0.00012791107
0	0.6308684	0.63086826	-1.0936632e-10	0.061518364	0.061518364	0	130312.03	130312.01	-2.0173886e-05	642795.56	240420.12	-3.087509e-05	240420.08	642795.5	-0.00014114326
0	0.63058317	0.6305831	-1.1146952e-10	0.061164834	0.061164834	0	130253.1	130253.1	-1.854696e-05	642967.56	239848.84	-5.072336e-05	239848.83	642967.44	-0.00016760762
0	0.6302957	0.6302956	-1.9770066e-10	0.06081111	0.060811102	0	130193.734	130193.71	-4.6855475e-05	643139.4	239274.62	-9.4830626e-05	239274.6	643139.25	-0.00019076394
0	0.63000673	0.63000673	-1.346047e-10	0.06045755	0.06045755	0	130134.055	130134.03	-2.538005e-05	643311.56	238697.92	-8.821454e-05	238697.9	643311.56	-0.00012350036
0	0.62971735	0.6297173	-1.7035907e-10	0.060104113	0.060104113	0	130074.27	130074.26	-4.099854e-05	643483.7	238120.66	-7.057163e-05	238120.62	643483.56	-0.00015547812
0	0.6294272	0.62942713	-2.671062e-10	0.05975055	0.059750557	0	130014.305	130014.32	-5.3688567e-05	643656.25	237541.77	-0.00014775935	237541.75	643656.2	-0.00026354092
0	0.6291347	0.6291347	-2.0611345e-10	0.05939683	0.059396826	0	129953.93	129953.914	-3.8070077e-05	643828.3	236960.3	-6.395554e-05	236960.3	643828.25	-0.00019407198
0	0.6288408	0.6288407	-3.5754375e-11	0.059043545	0.05904355	0	129893.2	129893.19	0	644000.9	236376.16	2.8669725e-05	236376.12	644000.8	-0.00012019231
0	0.6285457	0.6285457	-1.430175e-10	0.05868998	0.05868999	0	129832.27	129832.25	-2.2776969e-05	644172.8	235791.16	-0.00015437545	235791.12	644172.75	-4.410727e-05
0	0.6282487	0.62824863	-1.6720428e-10	0.05833626	0.05833626	0	129770.92	129770.91	-2.8633902e-05	644345.44	235202.8	-0.00011026817	235202.77	644345.4	-9.703599e-05
0	0.6279504	0.6279503	-1.335531e-10	0.05798272	0.057982728	0	129709.28	129709.27	-3.8070077e-05	644517.8	234612.7	-8.7111854e-05	234612.69	644517.7	-0.0001753264
0	0.62765014	0.6276501	-5.888956e-11	0.057629257	0.057629257	0	129647.26	129647.24	-3.904623e-06	644689.75	234020.45	-2.4258998e-05	234020.45	644689.56	-2.7567043e-05
0	0.62734956	0.6273495	-1.7772027e-10	0.057275705	0.057275705	0	129585.19	129585.164	-3.2213142e-05	644862.5	233426.89	-6.61609e-05	233426.86	644862.4	-0.00021777964
0	0.6270459	0.62704587	-1.346047e-10	0.056922026	0.056922022	0	129522.46	129522.445	-2.472928e-05	645034.6	232829.64	-8.931722e-05	232829.61	645034.56	-0.000106408785
0	0.6267421	0.6267421	-1.9033947e-10	0.056568485	0.056568485	0	129459.7	129459.68	-3.9371615e-05	645207.56	232231.28	-0.00013673253	232231.28	645207.56	-0.00016044019
0	0.62643653	0.6264365	-8.833433e-11	0.056215007	0.056215007	0	129396.58	129396.55	-2.0824657e-05	645380.06	231631.06	-7.7187724e-05	231631.06	645379.94	-0.0001323218
0	0.6261288	0.62612873	-1.7035907e-10	0.05586147	0.05586147	0	129333.016	129333.016	-3.579238e-05	645552.56	231027.9	-0.00017973712	231027.88	645552.4	-5.4582746e-05
0	0.62582076	0.62582076	-7.781834e-11	0.05550775	0.05550775	0	129269.39	129269.38	-1.6594648e-05	645724.7	230424.36	-9.703599e-05	230424.39	645724.56	-3.4183133e-05
0	0.62550855	0.6255085	-6.519915e-11	0.05515443	0.05515444	0	129204.91	129204.88	-2.0173886e-05	645897.44	229814.58	-9.703599e-05	229814.6	645897.3	-5.072336e-05
0	0.6251976	0.6251975	-1.388111e-10	0.05480089	0.05480089	0	129140.664	129140.65	-2.2126198e-05	646069.6	229207.05	-5.5134085e-05	229207.03	646069.5	-8.380381e-05
0	0.6248845	0.62488437	-7.361195e-11	0.05444718	0.05444718	0	129075.99	129075.97	-2.0173886e-05	646242.44	228595.9	-9.703599e-05	228595.94	646242.2	-4.410727e-05
0	0.62456894	0.6245689	-9.674713e-11	0.054093663	0.054093663	0	129010.8	129010.78	-2.0173886e-05	646414.5	227982	-7.057163e-05	227982.02	646414.4	-0.00010585745
0	0.62425107	0.624251	-6.4147555e-11	0.053740148	0.053740148	0	128945.164	128945.16	-1.301541e-05	646587.94	227363.61	-6.395554e-05	227363.61	646587.9	-6.6712244e-05
0	0.6239351	0.6239351	-9.043753e-11	0.053386614	0.053386614	0	128879.89	128879.87	-1.301541e-05	646759.56	226749.66	-1.3232181e-05	226749.67	646759.44	-8.76632e-05
0	0.62361544	0.6236153	-1.1988231e-10	0.053032953	0.053032953	0	128813.86	128813.84	-1.7245418e-05	646931.94	226129.7	2.2053634e-06	226129.7	646931.8	-0.00010585745
0	0.6232939	0.62329376	-2.4291943e-10	0.052679427	0.052679427	0	128747.445	128747.42	-4.3927008e-05	647104.5	225506.88	-0.00013562985	225506.89	647104.44	-0.00022219037
0	0.6229704	0.6229702	-1.430175e-10	0.052325893	0.052325893	0	128680.61	128680.59	-2.8633902e-05	647276.5	224882.02	-5.733945e-05	224882.03	647276.3	-0.00023873059
0	0.6226462	0.62264603	-1.9559745e-10	0.051972385	0.051972385	0	128613.664	128613.63	-5.1085484e-05	647449.3	224255.39	-0.00015437545	224255.4	647449.2	-0.00017642908
0	0.62231934	0.62231916	-2.776222e-10	0.05161867	0.051618673	0	128546.13	128546.12	-6.572782e-05	647621.25	223625.83	-0.00021392026	223625.83	647621.1	-0.00022108768
0	0.6219905	0.62199044	-1.472239e-10	0.05126532	0.051265318	0	128478.21	128478.2	-3.481622e-05	647794.4	222992.3	-0.00012350036	222992.33	647794.25	-0.00012791107
0	0.621662	0.6216619	-1.1777912e-10	0.050911807	0.0509118	0	128410.37	128410.33	-2.2776969e-05	647966.25	222360.55	-9.9241355e-05	222360.6	647966.1	-7.498236e-05
0	0.62133133	0.62133116	-1.8928786e-10	0.0505581	0.050558098	0	128342.055	128342.03	-2.7657747e-05	648138.44	221725.4	-0.0001146789	221725.4	648138.25	-0.000100344034
0	0.62099814	0.620998	-5.678636e-11	0.0502046	0.050204597	0	128273.23	128273.195	-2.1475427e-05	648310.56	221086.83	-4.410727e-06	221086.84	648310.4	-7.82904e-05
0	0.620664	0.6206638	-1.8928786e-10	0.049851034	0.049851034	0	128204.2	128204.18	-4.099854e-05	648482.5	220447	-0.000116884265	220447.02	648482.4	-0.00017422371
0	0.62032723	0.6203271	-1.8928786e-10	0.04949753	0.049497522	0	128134.664	128134.625	-3.09116e-05	648654.4	219803.77	-8.6009175e-05	219803.8	648654.2	-0.00016209422
0	0.6199896	0.61998945	-1.7456547e-10	0.04914387	0.04914387	0	128064.9	128064.88	-4.522855e-05	648826.75	219158.5	-0.00020289344	219158.52	648826.75	-0.00012350036
0	0.61964935	0.61964923	-1.503787e-10	0.04879038	0.048790377	0	127994.625	127994.59	-2.8308517e-05	648998.3	218510.78	-5.072336e-05	218510.81	648998.06	-0.00017642908
0	0.619309	0.6193088	-1.9770066e-10	0.048436783	0.048436783	0	127924.32	127924.3	-4.1974698e-05	649170.5	217862.02	-0.00012019231	217862.06	649170.3	-0.00020950953
0	0.6189652	0.618965	-1.0726312e-10	0.048083298	0.048083294	0	127853.3	127853.266	-3.2538526e-05	649342.7	217208.5	-0.0001323218	217208.53	649342.56	-7.443102e-05
0	0.61862046	0.6186203	-1.8297827e-10	0.0477296	0.0477296	0	127782.09	127782.055	-3.351468e-05	649514.2	216554.42	-0.00012570572	216554.47	649513.94	-0.00013121913
0	0.61827254	0.6182724	-3.1127337e-10	0.047376204	0.047376204	0	127710.22	127710.2	-6.279936e-05	649686.56	215894.94	-0.00017863444	215895	649686.44	-0.00029331335
0	0.6179256	0.6179254	-2.450226e-10	0.047022715	0.047022715	0	127638.56	127638.53	-4.3927008e-05	649857.9	215237.97	-0.00014114326	215238	649857.6	-0.00017973712
0	0.6175756	0.61757547	-1.2408871e-10	0.046669018	0.04666901	0	127566.26	127566.24	-2.8959288e-05	650029.06	214576.69	-6.61609e-05	214576.75	650029	-0.00016760762
0	0.6172218	0.61722153	-3.4492456e-10	0.04631554	0.04631554	0	127493.17	127493.15	-6.4426284e-05	650201.3	213909.06	-0.00020399613	213909.12	650201.1	-0.0002591302
0	0.6168701	0.61687	-3.890917e-11	0.045961913	0.045961913	0	127420.55	127420.516	-9.110787e-06	650371.8	213246.23	-6.175018e-05	213246.28	650371.7	-3.749118e-05
0	0.61651444	0.6165144	-8.097314e-11	0.04560843	0.04560843	0	127347.1	127347.05	-1.789619e-05	650543.3	212576.94	-8.1598446e-05	212576.98	650543.06	-5.12747e-05
0	0.6161557	0.6161556	-2.9655098e-10	0.045254797	0.045254797	0	127272.98	127272.945	-6.377551e-05	650714.2	211903.72	-0.00022274171	211903.78	650714	-0.00021502294
0	0.6157977	0.6157976	-6.940555e-11	0.04490132	0.04490132	0	127199.03	127199	-1.7245418e-05	650885.56	211231.23	-4.410727e-05	211231.31	650885.3	-7.939308e-05
0	0.6154371	0.61543685	-1.430175e-10	0.044547673	0.044547673	0	127124.54	127124.5	-3.5466994e-05	651056	210555.86	-9.262526e-05	210555.95	651055.7	-0.00017642908
0	0.6150742	0.61507416	-1.8087506e-10	0.04419421	0.04419421	0	127049.59	127049.56	-3.0586216e-05	651227.4	209876.53	-0.00013452717	209876.61	651227.1	-8.6009175e-05
0	0.61470675	0.6147066	-6.835395e-11	0.043840524	0.043840524	0	126973.695	126973.66	-9.436172e-06	651399	209190.4	-1.3232181e-05	209190.48	651398.75	-0.000116884265
0	0.6143433	0.614343	-1.6615267e-10	0.043487057	0.043487057	0	126898.59	126898.54	-1.4967722e-05	651568.3	208512.12	-7.2776995e-05	208512.16	651568.06	-0.00010585745
0	0.61397445	0.6139743	-8.412794e-11	0.04313362	0.04313362	0	126822.42	126822.375	-1.0737714e-05	651739	207825.2	-1.1026817e-05	207825.28	651738.8	-6.395554e-05
0	0.61360335	0.6136032	-1.8508146e-10	0.042779934	0.042779934	0	126745.78	126745.72	-2.9284673e-05	651909.7	207134.98	-0.00013011644	207135.06	651909.4	-0.00013452717
0	0.61323196	0.61323184	-6.099275e-11	0.042426474	0.042426474	0	126669.07	126669	-1.236464e-05	652079.7	206445.03	-5.733945e-05	206445.12	652079.44	-3.5285815e-05
0	0.6128569	0.61285675	-1.8928786e-11	0.042072803	0.042072803	0	126591.586	126591.54	-1.9848501e-05	652249.7	205750	-3.5285815e-05	205750.08	652249.44	-0.000110819514
0	0.61248183	0.61248153	-2.1662944e-10	0.041719344	0.041719344	0	126514.09	126514.05	-4.4903165e-05	652419.44	205054.89	-0.00018083981	205054.97	652419.3	-0.000108062806
0	0.6121038	0.6121036	-2.1557785e-10	0.041365713	0.04136572	0	126436.01	126435.98	-5.206164e-05	652589.2	204356.06	-0.00030434015	204356.14	652588.94	-7.332834e-05
0	0.6117236	0.61172336	-1.6299788e-10	0.041012257	0.041012257	0	126357.484	126357.45	-2.472928e-05	652759.2	203653.78	-8.270113e-05	203653.86	652759	-9.4830626e-05
0	0.61133903	0.61133873	-2.1031984e-10	0.040658575	0.040658575	0	126278.055	126278.01	-2.538005e-05	652929.8	202944.8	-0.00013011644	202944.89	652929.56	-0.00012570572
0	0.6109578	0.6109576	-1.9454587e-10	0.040305134	0.040305134	0	126199.3	126199.26	-4.6855475e-05	653098.2	202242.75	-0.00016319689	202242.84	653097.94	-0.0001146789
0	0.6105721	0.6105718	-2.2714544e-10	0.03995145	0.03995145	0	126119.62	126119.57	-5.1736257e-05	653267.3	201533.5	-0.00017863444	201533.6	653267.06	-0.00021502294
0	0.6101836	0.6101834	-1.7246228e-10	0.039597984	0.039597984	0	126039.4	126039.34	-2.8308517e-05	653436.56	200820.48	-3.5285815e-05	200820.6	653436.3	-0.0001753264
0	0.60979354	0.6097933	-1.5984308e-10	0.039244525	0.039244525	0	125958.81	125958.77	-4.132393e-05	653605.3	200105.5	-8.1598446e-05	200105.61	653605.1	-0.00019407198
0	0.6094009	0.6094007	-2.2083584e-10	0.038890842	0.038890842	0	125877.73	125877.67	-4.4903165e-05	653773.7	199387.48	-0.00013011644	199387.61	653773.5	-0.00021061221
0	0.6090074	0.6090071	-1.5668829e-10	0.038537376	0.038537376	0	125796.41	125796.37	-3.481622e-05	653942.1	198667.95	-7.057163e-05	198668.06	653942	-0.00013562985
0	0.6086107	0.6086105	-1.8718467e-10	0.038183715	0.038183715	0	125714.47	125714.42	-5.206164e-05	654111.1	197943.73	-0.00018083981	197943.83	654110.9	-0.00017367236
0	0.60821366	0.60821337	-3.4702775e-11	0.037830252	0.037830252	0	125632.48	125632.42	-1.236464e-05	654279.06	197220	-5.733945e-05	197220.11	654278.75	-5.4031403e-05
0	0.607814	0.6078137	-1.7456547e-10	0.037476577	0.037476573	0	125549.91	125549.85	-3.2538526e-05	654446.1	196493.34	-3.969654e-05	196493.45	654445.8	-0.00015161873
0	0.60741067	0.60741043	-2.0295865e-10	0.03712317	0.03712317	0	125466.6	125466.56	-3.514161e-05	654614.3	195760.58	-0.00014114326	195760.69	654614.1	-7.939308e-05
0	0.60700685	0.60700655	-1.2724351e-10	0.0367695	0.0367695	0	125383.195	125383.15	-2.8796596e-05	654781.9	195027.6	-5.8442132e-05	195027.73	654781.56	-0.00017422371
0	0.6066004	0.6066001	-2.523838e-10	0.036416046	0.036416046	0	125299.234	125299.17	-5.010933e-05	654948.94	194291.4	-0.00016319689	194291.53	654948.75	-0.00019517467
0	0.60619223	0.606192	-2.1347464e-10	0.03606237	0.03606237	0	125214.91	125214.87	-4.034777e-05	655115.94	193552.97	-0.00017422371	193553.1	655115.75	-0.00016760762
0	0.6057814	0.605781	-1.5143028e-10	0.0357089	0.0357089	0	125130.05	125129.984	-3.026083e-05	655282.8	192810.89	-0.00012350036	192811	655282.6	-0.00011137086
0	0.60536635	0.60536605	-2.3135183e-10	0.035355426	0.035355426	0	125044.33	125044.27	-4.3438933e-05	655450.25	192062.47	-0.00014996472	192062.58	655450	-0.00023321719
0	0.6049534	0.60495305	-9.885033e-11	0.03500176	0.03500176	0	124959.016	124958.96	-1.6594648e-05	655615.75	191318.77	6.6160906e-06	191318.9	655615.5	-0.00012350036
0	0.6045353	0.6045349	-2.3555824e-10	0.034648284	0.034648284	0	124872.664	124872.6	-4.880779e-05	655782.4	190566.81	-0.00022715243	190566.98	655782.1	-0.00012074365
0	0.6041165	0.6041162	-1.388111e-10	0.03429463	0.034294635	0	124786.17	124786.11	-2.8633902e-05	655947.94	189815.02	-9.0419904e-05	189815.14	655947.7	-0.0001268084
0	0.6036947	0.6036944	-1.5984308e-10	0.033941153	0.033941153	0	124699.04	124698.98	-4.5553938e-05	656113.44	189059	-0.0001565808	189059.14	656113.1	-0.00012350036
0	0.6032708	0.60327053	-2.4817742e-10	0.033587493	0.033587493	0	124611.484	124611.414	-5.271241e-05	656278.94	188300.1	-0.00018855858	188300.25	656278.6	-0.00018304517
0	0.6028451	0.6028448	-9.254073e-11	0.033234082	0.033234082	0	124523.54	124523.484	-3.1236985e-05	656443.56	187539.44	-0.00012350036	187539.58	656443.3	-9.262526e-05
0	0.6024165	0.6024163	-1.8402986e-10	0.032880433	0.03288043	0	124435	124434.96	-3.6768535e-05	656608.6	186774.39	-0.00012129499	186774.55	656608.4	-0.00015217008
0	0.601983	0.6019828	-3.0286057e-10	0.03252696	0.032526962	0	124345.48	124345.414	-6.068435e-05	656774.06	186002.08	-0.00016760762	186002.23	656773.8	-0.0002050988
0	0.6015526	0.6015523	-2.0611345e-10	0.032173306	0.032173306	0	124256.555	124256.5	-4.945856e-05	656937.5	185236.02	-0.00019848271	185236.19	656937.2	-0.00013342449
0	0.60111755	0.6011172	-1.409143e-10	0.031819817	0.031819817	0	124166.695	124166.63	-3.156237e-05	657101.3	184463.08	-5.5134085e-05	184463.27	657101	-0.00017863444
0	0.6006803	0.60067993	-2.1873264e-10	0.031466324	0.031466324	0	124076.375	124076.31	-5.2387026e-05	657265	183687.19	-0.00016099153	183687.36	657264.75	-0.00017091566
0	0.60024023	0.6002399	-1.6825588e-10	0.031112675	0.031112675	0	123985.49	123985.414	-3.3189295e-05	657428.3	182907.92	-0.00012791107	182908.08	657427.94	-0.0001444513
0	0.599798	0.5997976	-1.303983e-10	0.03075918	0.030759182	0	123894.125	123894.06	-1.7570805e-05	657591.7	182125.34	-2.6464362e-05	182125.52	657591.3	-0.000100344034
0	0.5993537	0.5993534	-1.7456547e-10	0.030405551	0.030405555	0	123802.37	123802.28	-3.4165452e-05	657754.1	181340.88	-0.00014996472	181341.08	657753.8	-0.00010696013
0	0.598907	0.5989066	-8.517954e-11	0.030052057	0.030052057	0	123710.08	123710.01	-1.6594648e-05	657916.56	180552.98	-6.61609e-05	180553.16	657916.25	-2.8669725e-05
0	0.5984564	0.5984561	-1.9980385e-10	0.029698415	0.029698415	0	123617.01	123616.94	-3.579238e-05	658079.06	179759.69	-0.00013452717	179759.89	658078.75	-0.00017642908
0	0.5980049	0.59800464	-1.9770066e-10	0.02934499	0.029344995	0	123523.766	123523.69	-4.1649313e-05	658240.5	178966.22	-0.00015437545	178966.44	658240.2	-0.00015988885
0	0.5975516	0.59755117	-1.8928786e-11	0.02899136	0.02899136	0	123430.09	123430.03	-8.622709e-06	658401.6	178170.33	-6.175018e-05	178170.52	658401.3	-3.804252e-05
0	0.5970945	0.5970942	-2.0611345e-10	0.028637853	0.028637853	0	123335.7	123335.625	-3.6931226e-05	658563.06	177368.98	-0.00018304517	177369.16	658562.8	-0.00012294902
0	0.5966363	0.5966359	-1.5563668e-10	0.028284242	0.028284246	0	123241.03	123240.96	-3.026083e-05	658723.7	176566.88	-0.00014114326	176567.08	658723.3	-5.2928724e-05
0	0.59617424	0.5961738	-1.419659e-10	0.027930735	0.027930737	0	123145.62	123145.52	-2.603082e-05	658883.94	175759.75	-5.5134085e-05	175759.97	658883.7	-8.931722e-05
0	0.59571034	0.59571004	-1.0095353e-10	0.02757722	0.027577216	0	123049.8	123049.72	-3.2213142e-05	659043.5	174950.83	-0.000112473535	174951.05	659043.1	-0.00012350036
0	0.59524405	0.59524363	-1.409143e-10	0.02722359	0.02722359	0	122953.484	122953.41	-1.8221574e-05	659203.75	174137.83	-6.175018e-05	174138.05	659203.44	-0.00012239767
0	0.5947748	0.59477437	-1.0936632e-10	0.026870074	0.026870074	0	122856.55	122856.46	-1.1713869e-05	659362.6	173321.86	-0.00011908963	173322.08	659362.4	-8.270113e-06
0	0.59430313	0.5943028	-1.9139106e-10	0.026516477	0.026516473	0	122759.11	122759.05	-4.262547e-05	659521.9	172502.34	-0.00019627735	172502.56	659521.56	-7.939308e-05
0	0.5938298	0.59382945	-1.1146952e-10	0.026162947	0.026162947	0	122661.336	122661.25	-3.5792377e-06	659680.1	171681.4	-9.0419904e-05	171681.62	659679.75	-3.087509e-05
0	0.59335184	0.5933514	-1.6825588e-11	0.025809335	0.025809336	0	122562.625	122562.54	2.9284672e-06	659838	170854.45	-5.733945e-05	170854.69	659837.56	3.749118e-05
0	0.59287363	0.5928732	-2.0190706e-10	0.025455903	0.0254559	0	122463.836	122463.75	-5.0922794e-05	659995.94	170026.9	-0.00024479534	170027.14	659995.6	-0.00014114326
0	0.5923929	0.59239244	-1.7035907e-10	0.025102299	0.0251023	0	122364.55	122364.46	-3.2701217e-05	660152.8	169197.06	-9.813868e-05	169197.31	660152.5	-0.00016264555
0	0.59190816	0.59190774	-8.517954e-11	0.024748765	0.024748765	0	122264.414	122264.33	-3.026083e-05	660309.7	168361.6	-0.000112473535	168361.83	660309.25	-4.7966656e-05
0	0.5914211	0.59142065	-1.2408871e-10	0.02439519	0.024395188	0	122163.805	122163.71	-4.506586e-05	660465.94	167523.36	-0.0001146789	167523.62	660465.56	-8.821454e-05
0	0.5909319	0.5909314	-2.1452624e-10	0.024041647	0.024041647	0	122062.74	122062.66	-4.9621252e-05	660621.9	166682.45	-0.0001146789	166682.72	660621.56	-0.00016650493
0	0.5904396	0.5904392	-1.1146952e-10	0.023688102	0.023688102	0	121961.08	121960.98	-3.0098136e-05	660777.1	165838.1	-9.9241355e-05	165838.36	660776.8	-0.00014555399
0	0.5899429	0.58994246	-1.8718467e-10	0.023334509	0.023334505	0	121858.45	121858.36	-4.6204706e-05	660933.06	164986.67	-0.00014114326	164986.92	660932.7	-0.00015878616
0	0.58944696	0.5894465	-1.261919e-10	0.022980956	0.022980956	0	121756.02	121755.92	-2.8145825e-05	661086.9	164138.55	-5.072336e-05	164138.81	661086.6	-8.435515e-05
0	0.5889458	0.5889454	-1.8192667e-10	0.022627395	0.022627398	0	121652.52	121652.43	-2.6681591e-05	661241.1	163282.75	-0.00013452717	163283.02	661240.8	-0.00013507852
0	0.58844286	0.58844244	-4.6270366e-11	0.022273837	0.022273837	0	121548.63	121548.52	-4.2300085e-06	661394.5	162425.28	-1.5437545e-05	162425.56	661394.2	2.6464362e-05
0	0.5879377	0.58793724	-1.545851e-10	0.021920262	0.021920264	0	121444.28	121444.17	-2.8959288e-05	661547.5	161564.88	-9.9241355e-05	161565.16	661547.2	-0.00014610533
0	0.58742934	0.5874289	-2.1452624e-10	0.02156681	0.02156681	0	121339.27	121339.17	-4.4903165e-05	661700.1	160700.73	-0.00019407198	160701.05	661699.7	-0.00018635321
0	0.58691764	0.58691716	2.5238383e-11	0.021213237	0.021213237	0	121233.56	121233.46	-3.2538526e-06	661852.25	159832.14	-1.3232181e-05	159832.44	661851.8	-2.6464362e-05
0	0.5864039	0.58640337	-1.0305672e-10	0.020859672	0.020859672	0	121127.46	121127.35	-1.8221574e-05	662003.56	158961.52	-9.593331e-05	158961.8	662003.2	-2.536168e-05
0	0.5858863	0.5858858	-1.8928786e-10	0.020506129	0.020506129	0	121020.53	121020.43	-2.65189e-05	662155.25	158085.33	-8.1598446e-05	158085.62	662154.8	-0.00016760762
0	0.5853675	0.5853669	-1.346047e-10	0.020152567	0.020152565	0	120913.35	120913.266	-2.7983133e-05	662305.06	157209.02	-0.000103652084	157209.34	662304.7	-7.057163e-05
0	0.58484435	0.5848439	-1.3250151e-10	0.019798992	0.019798992	0	120805.305	120805.195	-2.049927e-05	662455.25	156326.52	-0.000112473535	156326.84	662454.8	-6.946895e-05
0	0.5843175	0.584317	-2.0506186e-10	0.019445421	0.019445421	0	120696.484	120696.375	-4.945856e-05	662604.6	155439.61	-0.00018083981	155439.94	662604.25	-0.00013121913
0	0.5837895	0.583789	-5.257996e-11	0.019091858	0.019091858	0	120587.42	120587.32	-1.9523115e-06	662753.75	154551.28	-0.000108062806	154551.61	662753.3	2.6464362e-05
0	0.5832593	0.5832588	-3.0496376e-11	0.018738288	0.018738288	0	120477.9	120477.79	-4.880779e-07	662901.56	153661.06	-2.8669725e-05	153661.39	662901.2	-6.946895e-05
0	0.58272433	0.5827238	-1.1146952e-10	0.01838475	0.01838475	0	120367.42	120367.3	-1.740811e-05	663049.4	152764.38	-7.057163e-05	152764.72	663049.06	-6.395554e-05
0	0.5821861	0.58218557	-1.2724351e-10	0.018031185	0.018031187	0	120256.22	120256.125	-2.0661964e-05	663197.56	151862.72	-0.00014114326	151863.06	663197.06	-6.175018e-05
0	0.5816449	0.58164436	-1.8718467e-10	0.017677713	0.017677713	0	120144.44	120144.305	-4.1649313e-05	663343.56	150958.9	-0.00018525052	150959.27	663343.1	-3.3631793e-05
0	0.58110327	0.5811028	-1.9139106e-10	0.017324142	0.017324142	0	120032.57	120032.45	-3.579238e-05	663489.6	150054.7	-0.0001565808	150055.06	663489.1	-0.00010144672
0	0.58055586	0.58055526	-1.5931728e-10	0.016970577	0.016970577	0	119919.484	119919.36	-2.6193513e-05	663635.56	149142.19	-0.00015217008	149142.56	663635.1	-7.057163e-05
0	0.58000714	0.5800066	-1.261919e-10	0.016617041	0.016617041	0	119806.15	119806.016	-2.7169668e-05	663780.06	148229.6	-6.61609e-05	148229.97	663779.6	-8.8765875e-05
0	0.5794559	0.5794554	-2.5659022e-10	0.01626348	0.016263481	0	119692.3	119692.164	-5.499011e-05	663923.5	147314.44	-0.00022274171	147314.83	663923.1	-0.00018304517
0	0.5788977	0.57889706	-2.1242305e-10	0.015909908	0.015909908	0	119576.984	119576.85	-4.3927008e-05	664067.25	146389.3	-0.00014996472	146389.67	664066.7	-0.00020840684
0	0.57833904	0.5783385	-1.15675915e-11	0.015556337	0.015556337	0	119461.586	119461.45	3.2538526e-07	664210	145464.38	2.6464362e-05	145464.77	664209.5	2.9221066e-05
0	0.5777782	0.57777756	-1.9191686e-10	0.015202777	0.015202776	0	119345.73	119345.6	-2.7657747e-05	664352.94	144536.16	-0.00016540226	144536.55	664352.5	-8.490649e-05
0	0.5772149	0.5772143	-1.2514031e-10	0.014849207	0.014849206	0	119229.375	119229.24	-2.7169668e-05	664493.7	143606.77	-6.8366266e-05	143607.17	664493.25	-0.00017642908
0	0.5766461	0.5766455	-1.7035907e-10	0.014495679	0.014495682	0	119111.88	119111.766	-3.156237e-05	664634.4	142669.78	-0.0001389379	142670.17	664633.94	-9.427929e-05
0	0.57607555	0.5760749	-2.2241324e-10	0.014142121	0.014142121	0	118994.02	118993.9	-4.701817e-05	664774.56	141730.77	-0.00010144672	141731.17	664774.1	-0.00020620148
0	0.5754983	0.5754977	-1.1146952e-10	0.01378861	0.01378861	0	118874.8	118874.664	-2.4403895e-05	664915.1	140782.16	-0.00010916549	140782.56	664914.6	-0.00015878616
0	0.57492316	0.57492256	-2.660546e-10	0.013435037	0.013435037	0	118755.99	118755.86	-4.3113545e-05	665053.1	139838.88	-0.00015327276	139839.3	665052.7	-0.00017367236
0	0.57434183	0.5743412	-2.5711602e-10	0.013081473	0.013081472	0	118635.9	118635.77	-5.7430498e-05	665191.1	138887.1	-0.00019407198	138887.52	665190.56	-0.00018910991
0	0.573757	0.57375634	-2.944478e-11	0.012727952	0.01272795	0	118515.12	118514.984	-1.0086943e-05	665328.2	137931.14	1.1026817e-05	137931.58	665327.75	-2.9221066e-05
0	0.5731701	0.5731694	-1.0095353e-10	0.0123743825	0.012374381	0	118393.88	118393.74	-2.5705434e-05	665465	136972.61	-0.00012791107	136973.05	665464.56	-7.8841746e-05
0	0.57257926	0.57257855	-1.1462432e-10	0.012020824	0.012020824	0	118271.84	118271.7	-1.9523115e-05	665600.75	136009.77	-7.057163e-05	136010.22	665600.1	-4.0799223e-05
0	0.57198435	0.57198364	-1.9402006e-10	0.011667254	0.0116672525	0	118148.96	118148.81	-3.953431e-05	665736.25	135041.34	-0.0001565808	135041.8	665735.7	-0.00014114326
0	0.57138723	0.5713866	-2.75519e-10	0.011313699	0.011313699	0	118025.61	118025.46	-4.6855475e-05	665870	134071.7	-0.0001687103	134072.17	665869.4	-0.00015051606
0	0.5707862	0.5707854	-7.6240944e-11	0.010960131	0.010960131	0	117901.45	117901.32	-1.3340796e-05	666003.4	133096.78	-0.00010144672	133097.27	666002.8	-8.821454e-06
0	0.5701818	0.570181	-1.6825588e-10	0.010606619	0.010606619	0	117776.61	117776.45	-4.2300082e-05	666135.94	132118.05	-0.000113576214	132118.52	666135.3	-0.00015878616
0	0.569574	0.5695733	-1.6720428e-10	0.010253064	0.010253064	0	117651.06	117650.914	-3.4490837e-05	666267.56	131135.45	-0.000108062806	131135.94	666267.06	-0.00014334862
0	0.5689623	0.56896156	-1.367079e-11	0.009899496	0.009899496	0	117524.72	117524.555	2.9284672e-06	666399.1	130147.57	-8.821454e-05	130148.07	666398.6	3.4183133e-05
0	0.56834674	0.56834596	-1.1988231e-10	0.009545929	0.009545929	0	117397.56	117397.41	-2.7006976e-05	666529.2	129155.77	-6.175018e-05	129156.27	666528.6	-9.703599e-05
0	0.56772804	0.56772727	-1.8297827e-10	0.009192375	0.009192375	0	117269.8	117269.625	-2.4403895e-05	666659.25	128159.56	-0.00013452717	128160.08	666658.7	-5.9544815e-05
0	0.5671062	0.5671054	-2.5659022e-10	0.008838857	0.008838857	0	117141.33	117141.164	-4.945856e-05	666787.7	127160.445	-0.00017201835	127160.96	666787.2	-0.00019407198
0	0.56648135	0.5664805	-3.1127337e-10	0.008485288	0.008485288	0	117012.26	117012.086	-6.8330904e-05	666914.94	126158.414	-0.00015878616	126158.95	666914.44	-0.00028228652
0	0.5658519	0.5658511	-9.043753e-11	0.00813174	0.00813174	0	116882.24	116882.07	-1.1063099e-05	667041.56	125150.586	-0.0001389379	125151.125	667041	3.142643e-05
0	0.56521785	0.565217	-1.503787e-10	0.0077781687	0.0077781687	0	116751.266	116751.11	-3.506026e-05	667167.1	124137.29	-0.00014996472	124137.84	667166.6	-6.61609e-05
0	0.5645811	0.5645803	-5.152836e-11	0.0074246037	0.0074246037	0	116619.74	116619.58	-1.6920034e-05	667292.2	123120.96	-5.733945e-05	123121.52	667291.44	-9.262526e-05