# t (s)	mx ()	my ()	mz ()	B_extx (T)	B_exty (T)	B_extz (T)	m_fullx (A/m)	m_fully (A/m)	m_fullz (A/m)	m_full.region1x (A/m)	m_full.region1y (A/m)	m_full.region1z (A/m)	m_full.region2x (A/m)	m_full.region2y (A/m)	m_full.region2z (A/m)
0	0.6242881	0.6242904	-4.0542558e-10	0.070710704	0.070710704	0	130827.375	130827.875	-8.671425e-05	650531.2	223475.08	-0.00030624928	223472.12	650531.56	-0.00028773746
0	0.6240114	0.62401354	-2.8034045e-10	0.07035722	0.07035722	0	130769.38	130769.84	-6.241152e-05	650691.1	222927.61	-0.00023065365	222924.95	650691.3	-0.00018492526
0	0.6237315	0.6237336	-2.9480315e-10	0.07000352	0.07000352	0	130710.73	130711.18	-5.668578e-05	650852.1	222374.61	-0.0002385136	222371.92	650852.5	-0.00015770015
0	0.6234502	0.6234523	-3.2769365e-10	0.06965005	0.06965005	0	130651.79	130652.23	-6.9632435e-05	651013.4	221819.62	-0.00021011633	221816.94	651013.7	-0.00025204194
0	0.6231674	0.6231695	-2.581677e-10	0.06929643	0.06929643	0	130592.52	130592.97	-5.57878e-05	651174.6	221262.52	-0.0002011764	221259.83	651174.8	-0.00016407033
0	0.6228835	0.6228856	-3.1338804e-10	0.068942994	0.068942994	0	130533.016	130533.45	-6.4215514e-05	651335.75	220703.8	-0.00022667041	220701.11	651336.06	-0.00020425016
0	0.62259823	0.6226004	-2.7108782e-10	0.06858929	0.06858929	0	130473.24	130473.69	-5.5969154e-05	651496.94	220143.38	-0.00023717672	220140.67	651497.2	-0.00014705627
0	0.62231183	0.6223139	-2.98098e-10	0.06823583	0.06823583	0	130413.2	130413.66	-6.2222214e-05	651658.06	219581.16	-0.00022102229	219578.45	651658.25	-0.00020514871
0	0.6220237	0.6220258	-2.8631686e-10	0.067882195	0.067882195	0	130352.86	130353.28	-6.060388e-05	651819.3	219016.66	-0.00020630175	219013.94	651819.5	-0.00019275803
0	0.62173444	0.62173665	-3.1580114e-10	0.06752872	0.06752872	0	130292.234	130292.66	-7.3547e-05	651980.44	218450.55	-0.00020753934	218447.81	651980.56	-0.0002677611
0	0.62144405	0.6214462	-3.2170708e-10	0.06717502	0.06717502	0	130231.37	130231.81	-6.555705e-05	652141.4	217883.05	-0.0002451068	217880.33	652141.6	-0.00019158205
0	0.621152	0.62115407	-3.2507155e-10	0.066821605	0.066821605	0	130170.16	130170.61	-6.872064e-05	652302.5	217312.97	-0.00024136521	217310.22	652302.75	-0.00021118391
0	0.6208576	0.6208597	-2.71942e-10	0.066468135	0.066468135	0	130108.47	130108.92	-5.3957607e-05	652464.25	216739.16	-0.00020792155	216736.4	652464.5	-0.00016006085
0	0.6205641	0.6205661	-2.862113e-10	0.06611443	0.06611443	0	130046.96	130047.39	-6.0242608e-05	652624.6	216167.83	-0.00024002967	216165.08	652624.75	-0.00017285132
0	0.6202679	0.62027	-2.389523e-10	0.065760985	0.065760985	0	129984.914	129985.34	-5.1960415e-05	652785.6	215592.28	-0.00022660635	215589.52	652785.8	-0.00011422857
0	0.6199699	0.61997205	-2.604564e-10	0.06540732	0.06540732	0	129922.445	129922.88	-5.5794775e-05	652947	215013.67	-0.00024135088	215010.92	652947.1	-0.0001295292
0	0.6196718	0.61967385	-2.8521496e-10	0.0650539	0.0650539	0	129859.96	129860.414	-6.104254e-05	653107.5	214435.73	-0.00020464415	214432.97	653107.6	-0.00020703959
0	0.61937153	0.6193737	-2.4826613e-10	0.064700216	0.064700216	0	129797.055	129797.49	-4.8892318e-05	653268.44	213854.58	-0.00017520391	213851.8	653268.5	-0.00013896528
0	0.61907005	0.61907214	-2.7941396e-10	0.06434676	0.06434676	0	129733.87	129734.305	-5.9336544e-05	653429.2	213271.61	-0.00022678266	213268.81	653429.5	-0.00019189535
0	0.618767	0.61876917	-3.046931e-10	0.0639931	0.0639931	0	129670.37	129670.805	-6.244868e-05	653590	212686.61	-0.00025246482	212683.84	653590.1	-0.00019020839
0	0.6184626	0.6184647	-3.2372802e-10	0.06363964	0.06363964	0	129606.58	129607.016	-7.241121e-05	653750.7	212099.73	-0.00024837517	212096.94	653750.9	-0.00021706101
0	0.6181567	0.6181588	-3.667027e-10	0.06328595	0.06328595	0	129542.46	129542.9	-7.960357e-05	653911.5	211510.62	-0.00024642955	211507.83	653911.6	-0.00027043396
0	0.6178495	0.61785173	-3.488392e-10	0.0629325	0.0629325	0	129478.11	129478.55	-7.298128e-05	654072	210920.22	-0.00019018132	210917.4	654072.06	-0.00028862455
0	0.6175409	0.617543	-3.96846e-10	0.06257904	0.06257904	0	129413.41	129413.84	-8.716651e-05	654232.6	210327.33	-0.00030893285	210324.55	654232.75	-0.00026694962
0	0.6172308	0.6172328	-3.636308e-10	0.062225346	0.062225346	0	129348.41	129348.85	-7.86354e-05	654393.06	209732.7	-0.00031074954	209729.89	654393.3	-0.00021496361
0	0.61691916	0.61692125	-2.8607616e-10	0.06187191	0.06187191	0	129283.11	129283.555	-5.733856e-05	654553.5	209136.05	-0.00020995735	209133.22	654553.7	-0.00018395932
0	0.61660624	0.61660826	-3.1184294e-10	0.061518222	0.061518222	0	129217.54	129217.97	-6.157109e-05	654713.9	208537.58	-0.00022380665	208534.75	654714	-0.00018361371
0	0.6162917	0.6162938	-2.3175406e-10	0.061164826	0.061164826	0	129151.64	129152.06	-5.141718e-05	654874.25	207937.06	-0.0002596908	207934.25	654874.25	-6.7012144e-05
0	0.6159758	0.6159778	-2.19544e-10	0.060811136	0.060811136	0	129085.42	129085.86	-4.0097853e-05	655034.4	207334.53	-0.00019824806	207331.73	655034.44	-8.134172e-05
0	0.61565834	0.61566037	-3.8343761e-10	0.060457677	0.060457677	0	129018.91	129019.336	-7.532812e-05	655194.56	206729.98	-0.00031998838	206727.14	655194.56	-0.00020285924
0	0.6153394	0.6153414	-3.374476e-10	0.06010401	0.06010401	0	128952.055	128952.51	-6.9942194e-05	655354.56	206123.4	-0.0002466042	206120.56	655354.6	-0.00023003401
0	0.6150191	0.61502105	-3.685468e-10	0.05975055	0.05975055	0	128884.93	128885.36	-7.918941e-05	655514.5	205515.02	-0.00030094603	205512.17	655514.5	-0.00022511388
0	0.6146972	0.61469924	-1.8278067e-10	0.059396874	0.059396874	0	128817.48	128817.91	-3.6455123e-05	655674.4	204904.5	-0.00017081766	204901.67	655674.4	-7.5218304e-05
0	0.6143738	0.61437595	-3.592413e-10	0.059043404	0.059043404	0	128749.71	128750.14	-7.541301e-05	655834.06	204292.17	-0.00028716165	204289.34	655834.06	-0.00020518669
0	0.6140489	0.614051	-3.267577e-10	0.05868994	0.05868994	0	128681.65	128682.07	-6.58285e-05	655993.6	203677.73	-0.00021934883	203674.89	655993.7	-0.00023974986
0	0.61372256	0.61372465	-1.6667408e-10	0.05833627	0.05833627	0	128613.24	128613.664	-3.4731005e-05	656153.25	203061.25	-0.00014819707	203058.4	656153.25	-8.330213e-05
0	0.6133945	0.6133966	-2.2317231e-10	0.057982814	0.057982814	0	128544.51	128544.914	-4.556359e-05	656312.75	202442.48	-0.00016511942	202439.66	656312.75	-0.00016788908
0	0.61306405	0.613066	-3.725531e-10	0.057629142	0.057629142	0	128475.234	128475.65	-7.7923025e-05	656472.56	201819.84	-0.00026098586	201817	656472.56	-0.0002451178
0	0.6127343	0.61273634	-2.3970403e-10	0.057275668	0.057275668	0	128406.14	128406.55	-4.530481e-05	656631.1	201199.7	-0.00016234901	201196.86	656631.1	-0.00015356754
0	0.6124018	0.61240375	-3.1589062e-10	0.056922063	0.056922063	0	128336.445	128336.87	-6.763706e-05	656790.3	200575.05	-0.00026136593	200572.22	656790.2	-0.00018666402
0	0.6120677	0.6120697	-4.2894807e-10	0.0565686	0.0565686	0	128266.42	128266.85	-9.089816e-05	656949.25	199948.4	-0.0003548103	199945.55	656949.1	-0.00025783855
0	0.61173207	0.6117339	-2.6567723e-10	0.056214936	0.056214936	0	128196.08	128196.51	-5.5639106e-05	657108.06	199319.58	-0.00024513685	199316.73	657108	-0.00013695916
0	0.61139476	0.61139673	-3.797218e-10	0.05586146	0.05586146	0	128125.414	128125.82	-7.699477e-05	657266.8	198688.69	-0.0002677127	198685.86	657266.75	-0.00026726341
0	0.611056	0.611058	-3.0640018e-10	0.055507805	0.055507805	0	128054.42	128054.84	-6.0160735e-05	657425.4	198055.92	-0.00020980064	198053.08	657425.25	-0.00021043677
0	0.6107158	0.6107177	-2.8961297e-10	0.055154327	0.055154327	0	127983.12	127983.53	-6.344939e-05	657583.7	197421.22	-0.00022069312	197418.38	657583.6	-0.00019422952
0	0.6103739	0.6103759	-2.2642929e-10	0.054800846	0.054800846	0	127911.484	127911.89	-4.8604652e-05	657742	196784.36	-0.00016926731	196781.5	657741.8	-0.00015235378
0	0.61003023	0.6100322	-3.4593772e-10	0.05444718	0.05444718	0	127839.45	127839.875	-7.0288006e-05	657900.2	196145	-0.00021766758	196142.17	657900	-0.0002422171
0	0.6096851	0.60968703	-2.440656e-10	0.054093722	0.054093722	0	127767.13	127767.55	-5.3327214e-05	658058.2	195503.81	-0.00017917776	195500.97	658058.1	-0.00017321439
0	0.60933846	0.60934037	-3.1068187e-10	0.053740054	0.053740054	0	127694.484	127694.9	-6.156423e-05	658216	194860.66	-0.0002843073	194857.84	658215.75	-0.00013753664
0	0.6089901	0.608992	-3.4077036e-10	0.053386588	0.053386588	0	127621.484	127621.88	-7.2618575e-05	658373.7	194215.23	-0.00027867276	194212.42	658373.56	-0.00021254891
0	0.60864	0.60864186	-2.875102e-10	0.053032987	0.053032987	0	127548.125	127548.52	-5.9054142e-05	658531.2	193567.6	-0.00021850326	193564.78	658531.06	-0.00018537794
0	0.60828865	0.6082906	-3.3104108e-10	0.05267951	0.05267951	0	127474.48	127474.89	-6.7583e-05	658688.44	192918.45	-0.00028831686	192915.64	658688.3	-0.00018187365
0	0.6079354	0.6079374	-2.5380856e-10	0.05232584	0.05232584	0	127400.47	127400.87	-5.0343762e-05	658845.6	192266.83	-0.00018363718	192264	658845.44	-0.00016187054
0	0.60758036	0.6075822	-2.6796584e-10	0.05197238	0.05197238	0	127326.055	127326.44	-5.4328768e-05	659002.75	191612.53	-0.00021442183	191609.7	659002.5	-0.00016003482
0	0.607224	0.6072258	-1.969168e-10	0.051618718	0.051618718	0	127251.38	127251.77	-4.346904e-05	659159.44	190957	-0.00018743526	190954.19	659159.25	-0.00011118036
0	0.60686564	0.60686755	-3.8911377e-10	0.05126525	0.05126525	0	127176.3	127176.68	-7.76292e-05	659316.06	190298.64	-0.0002941291	190295.84	659315.94	-0.0002478613
0	0.60650563	0.6065074	-1.8670455e-10	0.05091175	0.05091175	0	127100.83	127101.22	-3.9219605e-05	659472.75	189637.95	-0.00020204364	189635.16	659472.44	-6.66137e-05
0	0.6061441	0.60614586	-2.2297367e-10	0.0505581	0.0505581	0	127025.055	127025.43	-5.0776584e-05	659629	188975.45	-0.00017653916	188972.66	659628.75	-0.0001476367
0	0.60578114	0.60578287	-3.3972428e-10	0.050204627	0.050204627	0	126948.99	126949.375	-7.086122e-05	659784.9	188311.34	-0.00027987303	188308.55	659784.56	-0.00019893651
0	0.6054162	0.60541797	-3.668282e-10	0.049850974	0.049850974	0	126872.52	126872.91	-7.9722595e-05	659940.9	187644.6	-0.00031256382	187641.8	659940.5	-0.00021258363
0	0.6050493	0.6050511	-1.9231053e-10	0.049497493	0.049497493	0	126795.65	126796.03	-3.8428956e-05	660096.56	186975.28	-0.00018861091	186972.48	660096.4	-7.704618e-05
0	0.60468084	0.6046827	-1.755419e-10	0.049143914	0.049143914	0	126718.42	126718.805	-3.2839067e-05	660252.1	186303.86	-0.00018542657	186301.1	660251.9	-3.7366735e-05
0	0.6043112	0.60431296	-3.243321e-10	0.04879043	0.04879043	0	126640.98	126641.34	-6.576483e-05	660407.2	185631.27	-0.00027846565	185628.52	660406.9	-0.00015956831
0	0.6039384	0.60394007	-3.4251774e-10	0.04843677	0.04843677	0	126562.83	126563.2	-7.377553e-05	660562.6	184953.83	-0.00028861183	184951.06	660562.3	-0.00021014517
0	0.60356504	0.6035668	-2.2749985e-10	0.04808329	0.04808329	0	126484.6	126484.96	-4.5323985e-05	660717.5	184276.22	-0.00018125019	184273.48	660717.3	-0.00011790522
0	0.6031907	0.6031925	-3.9140277e-10	0.04772965	0.04772965	0	126406.14	126406.516	-7.694391e-05	660871.75	183597.97	-0.00027833384	183595.2	660871.4	-0.0002432079
0	0.602813	0.6028147	-2.083332e-10	0.047376156	0.047376156	0	126327.01	126327.35	-4.3296048e-05	661026.44	182914.52	-0.0001960417	182911.77	661026.1	-8.7514934e-05
0	0.6024354	0.602437	-3.3309933e-10	0.04702266	0.04702266	0	126247.87	126248.22	-6.927062e-05	661180	182232.23	-0.00024107697	182229.52	661179.6	-0.000235209
0	0.6020548	0.6020565	-3.5290162e-10	0.046669014	0.046669014	0	126168.1	126168.445	-7.5951924e-05	661334	181545.44	-0.00029718547	181542.72	661333.56	-0.00020877394
0	0.60167164	0.60167325	-2.762792e-10	0.046315536	0.046315536	0	126087.8	126088.14	-5.6030312e-05	661488.2	180854.72	-0.00021850689	180852	661487.8	-0.00015006046
0	0.6012877	0.6012894	-4.0111295e-10	0.045961887	0.045961887	0	126007.35	126007.71	-8.5533364e-05	661641.56	180164	-0.00030117572	180161.3	661641.2	-0.0002795672
0	0.6009019	0.60090345	-3.6083142e-10	0.045608394	0.045608394	0	125926.51	125926.84	-7.701995e-05	661794.9	179470.55	-0.00024341937	179467.86	661794.4	-0.00026332447
0	0.6005142	0.6005158	-3.2759728e-10	0.04525483	0.04525483	0	125845.25	125845.59	-6.616494e-05	661947.7	178774.83	-0.0002621204	178772.14	661947.25	-0.0001813579
0	0.6001248	0.6001263	-2.8206895e-10	0.044901334	0.044901334	0	125763.66	125763.99	-5.9230148e-05	662100.4	178077.02	-0.00024047968	178074.33	662100	-0.0001682169
0	0.59973353	0.5997352	-2.3751928e-10	0.044547696	0.044547696	0	125681.664	125682	-5.0768802e-05	662252.75	177376.86	-0.00018592548	177374.2	662252.3	-0.00016020022
0	0.59934044	0.5993419	-1.6315854e-10	0.04419421	0.04419421	0	125599.28	125599.61	-3.3056207e-05	662405	176674.28	-0.00014459065	176671.61	662404.56	-6.0497372e-05
0	0.59894556	0.5989471	-3.5541917e-10	0.04384058	0.04384058	0	125516.53	125516.84	-7.408257e-05	662556.9	175969.53	-0.0003074784	175966.86	662556.4	-0.00017482779
0	0.59854895	0.5985505	-2.696295e-10	0.043487065	0.043487065	0	125433.414	125433.734	-5.342059e-05	662708.5	175262.69	-0.00020869859	175260.03	662708.06	-0.00015043523
0	0.59814954	0.5981511	-3.1564912e-10	0.04313356	0.04313356	0	125349.72	125350.04	-6.285417e-05	662860	174551.97	-0.00027978903	174549.34	662859.44	-0.00016410864
0	0.59774965	0.59775114	-4.1111192e-10	0.042779934	0.042779934	0	125265.914	125266.23	-8.75476e-05	663010.94	173841.19	-0.000322382	173838.58	663010.5	-0.0002524189
0	0.5973477	0.5973491	-3.5962525e-10	0.04242642	0.04242642	0	125181.67	125181.984	-7.317126e-05	663161.6	173127.67	-0.00031727404	173125.06	663161.1	-0.00019454167
0	0.596943	0.5969445	-2.5134575e-10	0.04207281	0.04207281	0	125096.88	125097.19	-5.2791238e-05	663312.06	172410.86	-0.00027311375	172408.25	663311.5	-8.197361e-05
0	0.59653753	0.59653896	-3.6874964e-10	0.041719295	0.041719295	0	125011.88	125012.19	-7.6328426e-05	663462	171693.05	-0.00023974785	171690.47	663461.44	-0.00027339556
0	0.59612846	0.5961299	-1.8590379e-10	0.041365758	0.041365758	0	124926.18	124926.46	-4.1174346e-05	663612.2	170970.2	-0.00016733225	170967.66	663611.56	-0.000100629964
0	0.59572047	0.59572184	-2.7668282e-10	0.041012242	0.041012242	0	124840.66	124840.95	-5.4217206e-05	663761.3	170249.86	-0.00023020641	170247.33	663760.7	-0.00014167205
0	0.5953078	0.59530926	-2.6971433e-10	0.040658627	0.040658627	0	124754.195	124754.48	-5.6675948e-05	663911.1	169522.3	-0.0002463177	169519.77	663910.56	-0.000113333204
0	0.5948952	0.59489655	-2.9123826e-10	0.040305126	0.040305126	0	124667.695	124668	-6.456131e-05	664059.6	168796.06	-0.000244821	168793.5	664059.06	-0.0001584132
0	0.5944788	0.59448016	-2.2075594e-10	0.03995151	0.03995151	0	124580.45	124580.734	-4.4370736e-05	664208.75	168063.98	-0.00021414722	168061.47	664208.2	-7.699385e-05
0	0.59406126	0.5940626	-2.7956623e-10	0.039597988	0.039597988	0	124492.96	124493.234	-5.9961712e-05	664357.06	167331.17	-0.0002656107	167328.66	664356.5	-0.00014484553
0	0.593642	0.5936433	-3.7306233e-10	0.03924446	0.03924446	0	124405.1	124405.375	-7.927268e-05	664504.7	166596.56	-0.0002542514	166594.08	664504.06	-0.0002438154
0	0.59322006	0.5932214	-2.7732316e-10	0.03889085	0.03889085	0	124316.68	124316.95	-6.087246e-05	664652.94	165857.66	-0.00024818638	165855.19	664652.2	-0.00015894555
0	0.5927965	0.5927979	-3.2292743e-10	0.03853732	0.03853732	0	124227.92	124228.195	-6.745066e-05	664800.2	165117.36	-0.0003320375	165114.89	664799.6	-0.00014412249
0	0.5923716	0.59237283	-3.7278886e-10	0.03818373	0.03818373	0	124138.875	124139.13	-7.597677e-05	664947.2	164375.4	-0.00029192484	164372.95	664946.56	-0.00023418322
0	0.59194493	0.5919461	-3.0410244e-10	0.0378302	0.0378302	0	124049.445	124049.71	-6.53669e-05	665093.56	163631.69	-0.000269181	163629.27	665092.9	-0.00016341126
0	0.5915151	0.5915163	-1.956737e-10	0.03747659	0.03747659	0	123959.39	123959.64	-3.814954e-05	665239.8	162883.73	-0.00017280129	162881.34	665239.1	-9.095078e-05
0	0.591084	0.59108514	-2.6223046e-10	0.037123155	0.037123155	0	123869.04	123869.3	-5.567446e-05	665385.9	162134.12	-0.00023830732	162131.72	665385.1	-0.00013140187
0	0.5906507	0.5906519	-4.5367485e-10	0.036769558	0.036769558	0	123778.25	123778.484	-9.915599e-05	665531.56	161381.84	-0.0004066399	161379.45	665530.8	-0.000247189
0	0.59021425	0.5902154	-3.1970562e-10	0.036416043	0.036416043	0	123686.78	123687.02	-6.462807e-05	665676.94	160625.36	-0.00024961965	160622.98	665676.25	-0.00018347545
0	0.5897774	0.58977854	-2.656608e-10	0.036062438	0.036062438	0	123595.234	123595.47	-5.9011676e-05	665822.1	159868.55	-0.00020628085	159866.22	665821.5	-0.00017966898
0	0.58933884	0.58934	-3.191177e-10	0.035708897	0.035708897	0	123503.33	123503.56	-6.655744e-05	665966.2	159110.55	-0.00031130423	159108.22	665965.4	-0.0001248458
0	0.5888971	0.58889824	-2.7725303e-10	0.035355352	0.035355352	0	123410.75	123410.99	-5.463824e-05	666110.4	158347.86	-0.0002388125	158345.56	666109.6	-0.00014284675
0	0.58845294	0.588454	-2.6909472e-10	0.03500176	0.03500176	0	123317.664	123317.9	-5.6907866e-05	666254.75	157581.72	-0.00027266197	157579.44	666253.94	-0.000112578615
0	0.5880076	0.58800864	-1.4505531e-10	0.034648214	0.034648214	0	123224.35	123224.57	-3.5453213e-05	666397.8	156815.16	-0.00019786997	156812.86	666397	-3.634354e-05
0	0.5875602	0.58756125	-1.9919204e-10	0.034294646	0.034294646	0	123130.58	123130.8	-4.117468e-05	666540.7	156045.84	-0.00020202952	156043.58	666539.9	-8.7498185e-05
0	0.5871097	0.58711076	-1.5242721e-10	0.033941098	0.033941098	0	123036.18	123036.4	-3.2406373e-05	666683.9	155272.03	-0.00011684178	155269.8	666683.06	-8.34031e-05
0	0.5866571	0.5866581	-3.0121053e-10	0.03358751	0.03358751	0	122941.336	122941.55	-6.515979e-05	666826.2	154496.05	-0.00023838322	154493.83	666825.3	-0.000181024
0	0.5862043	0.58620524	-2.1716859e-10	0.033234067	0.033234067	0	122846.43	122846.64	-4.608081e-05	666967.56	153720.62	-0.0002074045	153718.4	666966.8	-8.753015e-05
0	0.585748	0.5857489	-1.8583547e-10	0.032880493	0.032880493	0	122750.805	122751.01	-3.6591864e-05	667109	152940.31	-0.00016753307	152938.11	667108.1	-7.101918e-05
0	0.5852895	0.58529043	-3.041536e-10	0.03252695	0.03252695	0	122654.734	122654.92	-6.211944e-05	667250.2	152157.3	-0.00025476524	152155.16	667249.3	-0.00016860575
0	0.5848292	0.5848301	-2.5167313e-10	0.03217338	0.03217338	0	122558.28	122558.46	-5.303021e-05	667390.75	151372.27	-0.0003089859	151370.12	667389.94	-5.899063e-05
0	0.5843659	0.5843667	-3.8285605e-10	0.03181982	0.03181982	0	122461.19	122461.36	-7.484329e-05	667530.8	150583.56	-0.00032120635	150581.44	667529.9	-0.00020134043
0	0.5839011	0.583902	-2.388777e-10	0.03146625	0.03146625	0	122363.77	122363.95	-5.179526e-05	667671.06	149792.5	-0.00020974227	149790.4	667670.25	-0.000115049705
0	0.58343494	0.5834358	-2.3315125e-10	0.031112673	0.031112673	0	122266.08	122266.26	-4.686879e-05	667810.1	149000.84	-0.00029834424	148998.78	667809.25	-2.9275201e-05
0	0.5829655	0.58296627	-2.5137364e-10	0.030759111	0.030759111	0	122167.71	122167.89	-5.0286555e-05	667949.1	148204.62	-0.00019033445	148202.56	667948.2	-0.00012632953
0	0.58249384	0.5824947	-3.0538988e-10	0.030405568	0.030405568	0	122068.87	122069.02	-6.234048e-05	668087.94	147405.47	-0.000242713	147403.44	668087	-0.00017135427
0	0.5820196	0.58202034	-1.8334162e-10	0.030052004	0.030052004	0	121969.48	121969.64	-3.719494e-05	668225.6	146603.8	-0.00023986159	146601.78	668224.7	4.7946276e-07
0	0.5815449	0.5815456	-3.5408462e-10	0.029698437	0.029698437	0	121869.99	121870.14	-7.765286e-05	668363.06	145801.7	-0.00035009338	145799.7	668362.1	-0.00017318033
0	0.5810666	0.5810673	-3.9415468e-10	0.02934497	0.02934497	0	121769.77	121769.93	-8.284249e-05	668500.7	144994.58	-0.00034542594	144992.6	668499.7	-0.00022082802
0	0.58058625	0.5805869	-2.7315378e-10	0.028991407	0.028991407	0	121669.09	121669.25	-5.9043512e-05	668637.2	144185.44	-0.00023860762	144183.48	668636.25	-0.00013584681
0	0.5801033	0.580104	-2.849785e-10	0.028637834	0.028637834	0	121567.9	121568.04	-5.7751084e-05	668773.25	143373.33	-0.00027514595	143371.39	668772.2	-0.00013156598
0	0.5796188	0.57961947	-3.7794604e-10	0.0282843	0.0282843	0	121466.37	121466.51	-7.483361e-05	668909	142559.23	-0.00039354723	142557.33	668908	-0.00012956143
0	0.5791316	0.57913214	-2.6257863e-10	0.02793073	0.02793073	0	121364.25	121364.375	-4.9896647e-05	669044.6	141741.42	-0.00026960752	141739.55	669043.56	-8.2157676e-05
0	0.57864195	0.5786424	-3.0319286e-10	0.027577164	0.027577164	0	121261.64	121261.77	-5.9734575e-05	669179.75	140920.8	-0.0002464097	140918.95	669178.7	-0.00016478873
0	0.5781494	0.57814986	-3.1004468e-10	0.02722359	0.02722359	0	121158.42	121158.53	-6.287905e-05	669314.4	140096.42	-0.00023484486	140094.6	669313.4	-0.00018856105
0	0.5776563	0.57765687	-3.680106e-10	0.026870027	0.026870027	0	121055.1	121055.22	-7.8743105e-05	669447.56	139273	-0.00027875925	139271.19	669446.56	-0.0002537956
0	0.5771595	0.57716	-2.3160043e-10	0.026516493	0.026516493	0	120950.99	120951.09	-4.8475642e-05	669581.25	138443.86	-0.0001972123	138442.08	669580.1	-0.0001305967
0	0.57666075	0.57666135	-2.8629055e-10	0.02616292	0.02616292	0	120846.48	120846.57	-5.661708e-05	669713.94	137612.94	-0.00026756275	137611.17	669712.9	-0.00014229876
0	0.5761597	0.5761602	-2.948647e-10	0.025809359	0.025809359	0	120741.48	120741.57	-6.0685772e-05	669846.4	136779	-0.0002949437	136777.25	669845.3	-0.00012409393
0	0.5756558	0.57565624	-4.0195802e-10	0.025455875	0.025455875	0	120635.875	120635.97	-8.471551e-05	669978.5	135941.39	-0.00035303642	135939.7	669977.3	-0.00021911685
0	0.57515025	0.57515067	-2.52165e-10	0.025102314	0.025102314	0	120529.94	120530.016	-5.332314e-05	670109.7	135102.34	-0.00027386425	135100.64	670108.56	-7.900563e-05
0	0.5746409	0.57464135	-2.7470157e-10	0.024748746	0.024748746	0	120423.19	120423.28	-5.609294e-05	670240.6	134258.34	-0.0003247884	134256.67	670239.56	-4.9114078e-05
0	0.5741302	0.5741306	-1.9371375e-10	0.024395214	0.024395214	0	120316.17	120316.25	-4.010723e-05	670370.94	133413.02	-0.0001957417	133411.36	670369.8	-9.482045e-05
0	0.5736173	0.57361764	-3.3959216e-10	0.024041645	0.024041645	0	120208.67	120208.734	-6.8967995e-05	670500.94	132564.86	-0.0002743009	132563.23	670499.7	-0.00017381815
0	0.57310116	0.5731014	-2.4671162e-10	0.023688078	0.023688078	0	120100.51	120100.57	-5.0463077e-05	670630.2	131712.88	-0.0002538957	131711.3	670629.06	-8.815714e-05
0	0.5725831	0.5725833	-2.6381508e-10	0.023334507	0.023334507	0	119991.94	119992	-5.80289e-05	670758.8	130859	-0.00020840816	130857.42	670757.7	-0.00018847559
0	0.57206213	0.57206243	-2.2053244e-10	0.022980943	0.022980943	0	119882.766	119882.82	-4.8860788e-05	670886.94	130001.555	-0.00024380116	130000.01	670885.8	-6.770188e-05
0	0.57153964	0.5715398	-2.0588757e-10	0.022627415	0.022627415	0	119773.266	119773.32	-4.275455e-05	671014.75	129142.164	-0.00016457358	129140.64	671013.56	-0.00012801088
0	0.57101315	0.5710133	-3.3592457e-10	0.022273848	0.022273848	0	119662.94	119662.98	-7.146166e-05	671142.75	128277.164	-0.00028496125	128275.695	671141.5	-0.00018826136
0	0.5704861	0.5704863	-2.309367e-10	0.02192029	0.02192029	0	119552.516	119552.53	-4.6341025e-05	671268.56	127413.52	-0.00023082475	127412.07	671267.25	-9.464275e-05
0	0.5699543	0.56995445	-2.7736194e-10	0.02156678	0.02156678	0	119441.05	119441.08	-5.846203e-05	671395.3	126542.11	-0.00026749616	126540.68	671394.1	-0.000122058766
0	0.5694209	0.56942093	-1.6660068e-10	0.02121321	0.02121321	0	119329.26	119329.27	-3.876608e-05	671520.9	125669.7	-0.00016049022	125668.29	671519.6	-9.462978e-05
0	0.56888545	0.5688855	-2.266334e-10	0.020859648	0.020859648	0	119217.055	119217.07	-4.408759e-05	671644.94	124796.055	-0.00017073535	124794.68	671643.7	-0.00011798722
0	0.5683473	0.5683474	-2.761482e-10	0.020506121	0.020506121	0	119104.29	119104.3	-5.583765e-05	671769.25	123918.375	-0.00023862037	123917.016	671768	-0.00013130803
0	0.56780636	0.56780636	-3.2070016e-10	0.020152563	0.020152563	0	118990.92	118990.93	-6.951384e-05	671892.94	123037.29	-0.00030784743	123035.95	671891.7	-0.00015362122
0	0.5672623	0.5672623	-3.384532e-10	0.019798994	0.019798994	0	118876.9	118876.9	-7.1282746e-05	672016.25	122152.22	-0.0002741376	122150.92	672014.94	-0.00020877545
0	0.5667152	0.5667151	-2.0592014e-10	0.019445425	0.019445425	0	118762.25	118762.24	-4.3988188e-05	672139.6	121262.9	-0.000251463	121261.625	672138.3	-3.6010097e-05
0	0.5661663	0.5661662	-2.8942335e-10	0.019091865	0.019091865	0	118647.23	118647.2	-5.8627284e-05	672261.6	120372.47	-0.0002591937	120371.23	672260.25	-0.00013593891
0	0.5656156	0.5656156	-3.980185e-10	0.018738296	0.018738296	0	118531.84	118531.81	-8.108726e-05	672382.1	119481.06	-0.0003604612	119479.85	672380.75	-0.00017867639
0	0.565061	0.5650609	-2.5987426e-10	0.018384779	0.018384779	0	118415.6	118415.57	-5.1969433e-05	672502.9	118583.73	-0.00021796356	118582.555	672501.56	-0.00011704824
0	0.5645039	0.56450385	-2.3552946e-10	0.018031219	0.018031219	0	118298.87	118298.83	-5.1193598e-05	672622.9	117683.76	-0.00020529033	117682.6	672621.56	-0.00012938304
0	0.56394416	0.5639439	-2.176218e-10	0.017677676	0.017677676	0	118181.555	118181.51	-4.6350233e-05	672742.44	116780.44	-0.00025680478	116779.32	672741.06	-4.8770537e-05
0	0.56338185	0.5633817	-2.6549035e-10	0.017324107	0.017324107	0	118063.695	118063.66	-5.4460932e-05	672861.4	115874.26	-0.00026157458	115873.164	672860.06	-9.505729e-05
0	0.56281567	0.5628154	-1.6878438e-10	0.016970549	0.016970549	0	117945.06	117945.016	-3.267556e-05	672979.4	114963.62	-0.00021441256	114962.53	672978.06	-1.6672726e-05
0	0.5622481	0.5622478	-3.4308026e-10	0.016617034	0.016617034	0	117826.12	117826.06	-6.77533e-05	673097	114051.41	-0.0002571821	114050.37	673095.5	-0.00020602981
0	0.5616774	0.5616771	-2.2100093e-10	0.016263476	0.016263476	0	117706.52	117706.45	-4.534623e-05	673214.06	113135.3	-0.00020893337	113134.3	673212.7	-8.463995e-05
0	0.56110394	0.5611037	-2.4461955e-10	0.01590991	0.01590991	0	117586.34	117586.28	-5.0787992e-05	673330.25	112216.266	-0.00020162454	112215.29	673328.9	-0.00012885466
0	0.56052715	0.5605268	-1.3724899e-10	0.015556336	0.015556336	0	117465.47	117465.41	-2.86384e-05	673446	111293.01	-0.00016955045	111292.055	673444.56	-2.9014147e-05
0	0.55994725	0.55994684	-2.3842872e-10	0.015202784	0.015202784	0	117343.945	117343.86	-5.1672207e-05	673561.1	110365.86	-0.0002461972	110364.95	673559.7	-0.00010282242
0	0.55936575	0.55936533	-2.9236272e-10	0.014849219	0.014849219	0	117222.08	117222	-5.745961e-05	673675.5	109437.48	-0.00028470898	109436.58	673674	-0.00012942204
0	0.5587807	0.5587803	-3.2991895e-10	0.014495703	0.014495703	0	117099.484	117099.4	-6.949872e-05	673789.06	108504.86	-0.00029334036	108504	673787.56	-0.00015836341
0	0.5581914	0.5581909	-3.5488484e-10	0.01414215	0.01414215	0	116975.98	116975.9	-6.9140944e-05	673903.2	107565.6	-0.0003337661	107564.766	673901.7	-0.0001462512
0	0.55760187	0.55760133	-3.1184352e-10	0.013788582	0.013788582	0	116852.43	116852.336	-6.9047164e-05	674014.25	106629.17	-0.00034032864	106628.375	674012.75	-0.000110978115
0	0.5570071	0.55700666	-2.615481e-10	0.013435014	0.013435014	0	116727.8	116727.695	-5.395235e-05	674125.94	105684.82	-0.00026449945	105684.055	674124.44	-0.00011130204
0	0.5564105	0.55640996	-1.2097238e-10	0.01308146	0.01308146	0	116602.77	116602.66	-2.2452643e-05	674236.9	104738.52	-0.00014284455	104737.8	674235.4	-6.524958e-06
0	0.5558105	0.55580986	-2.5095576e-10	0.012727938	0.012727938	0	116477.03	116476.91	-5.3398948e-05	674347.2	103788.195	-0.00027529083	103787.5	674345.6	-8.174819e-05
0	0.5552082	0.5552076	-1.0559467e-10	0.012374373	0.012374373	0	116350.83	116350.695	-2.369262e-05	674456.6	102835.555	-0.0001618535	102834.88	674455.06	1.931759e-05
0	0.5546019	0.5546013	-2.8070665e-10	0.012020823	0.012020823	0	116223.766	116223.64	-6.003844e-05	674565.6	101877.766	-0.00031414558	101877.14	674564.06	-0.00010172288
0	0.55399317	0.5539925	-2.2460613e-10	0.011667253	0.011667253	0	116096.195	116096.04	-4.768735e-05	674673.44	100917.56	-0.0002527504	100916.96	674671.9	-7.761426e-05
0	0.55338097	0.55338025	-2.5075414e-10	0.011313708	0.011313708	0	115967.9	115967.74	-5.6491324e-05	674780.9	99952.984	-0.00026418062	99952.42	674779.3	-0.0001161276
0	0.5527659	0.5527652	-1.8909403e-10	0.010960145	0.010960145	0	115839.01	115838.85	-4.024781e-05	674887.6	98985.24	-0.00020168838	98984.695	674886.06	-5.916917e-05
0	0.55214775	0.552147	-2.6272165e-10	0.010606605	0.010606605	0	115709.47	115709.305	-5.686616e-05	674993.56	98013.875	-0.00023382984	98013.38	674992	-0.0001282314
0	0.55152637	0.5515256	-2.9431954e-10	0.010253061	0.010253061	0	115579.24	115579.06	-5.8016016e-05	675098.6	97038.82	-0.00024068044	97038.35	675097	-0.00017468592
0	0.5509015	0.55090064	-2.7499966e-10	0.009899497	0.009899497	0	115448.305	115448.12	-5.8677386e-05	675203.1	96059.46	-0.00026994644	96059.04	675201.5	-0.0001179288
0	0.5502739	0.55027306	-2.4722885e-10	0.0095459325	0.0095459325	0	115316.766	115316.586	-5.5031058e-05	675306.6	95077.234	-0.0002665407	95076.85	675304.94	-9.689849e-05
0	0.5496421	0.54964125	-1.6953391e-10	0.009192389	0.009192389	0	115184.38	115184.195	-3.6695197e-05	675409.56	94089.79	-0.00022766343	94089.42	675407.94	-1.1076702e-05
0	0.5490088	0.54900783	-1.4916599e-10	0.008838838	0.008838838	0	115051.664	115051.45	-3.273239e-05	675511.8	93100.87	-0.00017888426	93100.53	675510.2	-3.796498e-05
0	0.54837054	0.5483696	-2.8459637e-10	0.008485274	0.008485274	0	114917.9	114917.695	-5.7708676e-05	675612.94	92106.09	-0.0003110497	92105.8	675611.25	-8.812436e-05
0	0.54773074	0.54772973	-3.038755e-10	0.008131738	0.008131738	0	114783.83	114783.625	-6.32764e-05	675713.7	91109.69	-0.00027400555	91109.44	675711.94	-0.00013885507
0	0.54708624	0.5470853	-1.9816503e-10	0.007778168	0.007778168	0	114648.766	114648.555	-4.0736664e-05	675813.4	90107.63	-0.00030045322	90107.41	675811.75	3.5384262e-05
0	0.546439	0.5464379	-2.5820762e-10	0.0074246093	0.0074246093	0	114513.13	114512.91	-5.722992e-05	675912.5	89102.305	-0.00027850608	89102.1	675910.8	-0.0001234435