# t (s)	mx ()	my ()	mz ()	B_extx (T)	B_exty (T)	B_extz (T)	m_fullx (A/m)	m_fully (A/m)	m_fullz (A/m)	m_full.region1x (A/m)	m_full.region1y (A/m)	m_full.region1z (A/m)	m_full.region2x (A/m)	m_full.region2y (A/m)	m_full.region2z (A/m)
0	0.6413125	0.64131093	-3.1880573e-10	0.07071035	0.07071035	0	24477.178	24477.12	-1.1943264e-05	648204.75	249631.53	-0.00025870645	249632.7	648203.75	-0.00016117077
0	0.6410299	0.64102906	-2.2647853e-10	0.07035735	0.07035735	0	24466.393	24466.355	-8.429263e-06	648441.06	249000.12	-0.00015890728	249000.83	648440.44	-0.00015202319
0	0.640742	0.64074105	-2.8629354e-10	0.07000352	0.07000352	0	24455.4	24455.367	-9.8123355e-06	648684.25	248353.88	-0.00020646295	248354.55	648683.56	-0.00012384303
0	0.6404538	0.6404528	-4.499635e-10	0.06964972	0.06964972	0	24444.4	24444.367	-1.5975917e-05	648927.25	247707.36	-0.000283126	247708	648926.7	-0.00029693404
0	0.64016455	0.64016366	-4.1789308e-10	0.06929681	0.06929681	0	24433.363	24433.33	-1.5727323e-05	649168.7	247061.02	-0.00025829324	247061.7	649168.06	-0.0003285054
0	0.6398728	0.6398719	-3.139627e-10	0.068943016	0.068943016	0	24422.229	24422.195	-1.1759262e-05	649411.75	246409.5	-0.00019457804	246410.22	649411.06	-0.00024246804
0	0.63957804	0.6395771	-2.4610697e-10	0.068589196	0.068589196	0	24410.979	24410.945	-9.77965e-06	649656.4	245752.2	-0.00025390083	245752.89	649655.7	-6.1931896e-05
0	0.63928145	0.63928044	-3.8382442e-10	0.06823614	0.06823614	0	24399.656	24399.623	-1.3551112e-05	649902.3	245090.94	-0.00025792653	245091.62	649901.75	-0.00025746
0	0.6389856	0.6389847	-3.138915e-10	0.06788247	0.06788247	0	24388.363	24388.33	-1.1877827e-05	650145.44	244433.73	-0.0002944638	244434.4	650144.75	-0.0001316937
0	0.63868576	0.6386848	-2.434519e-10	0.06752808	0.06752808	0	24376.922	24376.887	-9.152992e-06	650391.2	243768.14	-0.00022088483	243768.86	650390.6	-0.000106081985
0	0.63838553	0.6383846	-2.9243785e-10	0.06717558	0.06717558	0	24365.46	24365.422	-1.0342779e-05	650636.44	243102.6	-0.00017701284	243103.31	650635.9	-0.0001944226
0	0.6380826	0.63808155	-3.6725742e-10	0.06682197	0.06682197	0	24353.902	24353.863	-1.38811765e-05	650882.5	242432.38	-0.00021303091	242433.1	650881.94	-0.00028398485
0	0.6377764	0.63777536	-2.554828e-10	0.06646759	0.06646759	0	24342.21	24342.178	-9.597732e-06	651130.5	241755.66	-0.00022766636	241756.34	651129.8	-8.788892e-05
0	0.6374697	0.63746864	-1.4473535e-10	0.06611506	0.06611506	0	24330.508	24330.473	-5.9750964e-06	651378.56	241078.25	-0.00017161432	241078.97	651377.94	-1.5862308e-05
0	0.637163	0.63716197	-2.7212615e-10	0.065761305	0.065761305	0	24318.805	24318.768	-1.0344617e-05	651624.06	240403.47	-0.00020245995	240404.17	651623.44	-0.00020219262
0	0.6368514	0.6368504	-2.8035288e-10	0.065407045	0.065407045	0	24306.91	24306.873	-1.0259308e-05	651874.25	239717.08	-0.00018887887	239717.81	651873.5	-0.0002024038
0	0.6365391	0.6365381	-1.7137361e-10	0.06505334	0.06505334	0	24294.988	24294.953	-6.449266e-06	652122.8	239031.2	-0.00013333456	239031.97	652122.1	-9.1122776e-05
0	0.6362263	0.6362253	-3.9214793e-10	0.064700775	0.064700775	0	24283.05	24283.012	-1.3916303e-05	652370	238346.03	-0.00026740474	238346.78	652369.4	-0.00026101415
0	0.63591	0.63590896	-2.5035785e-10	0.064346395	0.064346395	0	24270.979	24270.94	-9.510599e-06	652619.75	237653.52	-0.00022299448	237654.25	652619.06	-0.00012163015
0	0.63559055	0.6355896	-1.5323129e-10	0.06399281	0.06399281	0	24258.791	24258.75	-5.557602e-06	652870.3	236955.8	-0.00012402765	236956.56	652869.56	-6.175634e-05
0	0.6352707	0.6352697	-4.023166e-10	0.06363959	0.06363959	0	24246.578	24246.54	-1.5723359e-05	653121.06	236257.17	-0.00031881858	236257.97	653120.4	-0.0002455689
0	0.6349493	0.63494825	-2.9502992e-10	0.06328585	0.06328585	0	24234.314	24234.271	-1.176223e-05	653371.4	235556.86	-0.00024017785	235557.62	653370.8	-0.0001665483
0	0.63462543	0.63462436	-1.8464014e-10	0.06293233	0.06293233	0	24221.95	24221.908	-7.960375e-06	653622.8	234851.92	-0.00016957482	234852.72	653622.1	-0.00013200304
0	0.63429826	0.6342972	-3.1544614e-10	0.06257907	0.06257907	0	24209.46	24209.416	-1.2511085e-05	653876.25	234140.5	-0.00022330316	234141.31	653875.5	-0.00022733783
0	0.63397	0.63396895	-3.2707542e-10	0.062225346	0.062225346	0	24196.936	24196.895	-1.3624512e-05	654128.56	233428.64	-0.00019843588	233429.44	654127.94	-0.00026423385
0	0.63364094	0.6336399	-1.4513887e-10	0.06187167	0.06187167	0	24184.373	24184.334	-4.0557725e-06	654379.8	232716.69	-0.000103526225	232717.5	654379.1	-7.259312e-06
0	0.6333079	0.6333068	-2.0543413e-10	0.061518516	0.061518516	0	24171.664	24171.623	-7.0515475e-06	654633.5	231996.73	-0.0001825068	231997.56	654632.8	-4.8261805e-05
0	0.63297427	0.6329732	-3.7003964e-10	0.061164852	0.061164852	0	24158.93	24158.887	-1.4589373e-05	654886.8	231276.28	-0.00024718547	231277.1	654886.2	-0.00024372319
0	0.63263744	0.6326363	-2.1079562e-10	0.060811155	0.060811155	0	24146.072	24146.031	-8.055756e-06	655141.3	230550.23	-0.00012003664	230551.05	655140.6	-0.00015943893
0	0.6322971	0.632296	-3.8871323e-10	0.06045782	0.06045782	0	24133.084	24133.041	-1.4029143e-05	655397.9	229817.27	-0.0002886458	229818.11	655397.2	-0.00023052671
0	0.63195765	0.63195646	-2.673368e-10	0.060104296	0.060104296	0	24120.127	24120.086	-1.1487211e-05	655651.3	229088.55	-0.00015995721	229089.38	655650.56	-0.00026260928
0	0.6316138	0.6316127	-2.1869784e-10	0.059749953	0.059749953	0	24107.002	24106.96	-9.420396e-06	655908.5	228349.9	-0.00015075557	228350.78	655907.75	-0.00017754303
0	0.63126844	0.63126725	-2.4509147e-10	0.059397247	0.059397247	0	24093.822	24093.781	-9.140076e-06	656164.75	227610.23	-0.00018555726	227611.11	656164	-0.00016958987
0	0.6309224	0.63092124	-2.207989e-10	0.059043795	0.059043795	0	24080.617	24080.572	-9.296717e-06	656419.44	226871.02	-0.0002577766	226871.9	656418.7	-6.655057e-05
0	0.6305721	0.63057095	-3.3253902e-10	0.058689456	0.058689456	0	24067.244	24067.203	-1.5076013e-05	656676.9	226123.12	-0.0002427503	226124.02	656676.25	-0.00024802724
0	0.6302196	0.63021845	-2.895116e-10	0.05833672	0.05833672	0	24053.791	24053.75	-9.902185e-06	656934.75	225371.73	-0.0002263718	225372.62	656934.2	-0.00013742626
0	0.62986535	0.6298642	-3.5093098e-10	0.057983108	0.057983108	0	24040.27	24040.229	-1.4291273e-05	657192.94	224617.56	-0.00036364744	224618.47	657192.2	-0.00014428799
0	0.6295087	0.6295074	-3.9058937e-10	0.05762891	0.05762891	0	24026.656	24026.613	-1.2980817e-05	657452.25	223858.9	-0.0002701489	223859.83	657451.5	-0.00018881893
0	0.62915105	0.6291498	-1.9670304e-10	0.05727533	0.05727533	0	24013.006	24012.96	-8.467768e-06	657709.8	223100.69	-0.00016307988	223101.61	657709.06	-9.554474e-05
0	0.6287887	0.6287876	-3.9215375e-10	0.05692256	0.05692256	0	23999.178	23999.13	-1.3759929e-05	657970.6	222332.61	-0.00030401393	222333.55	657969.94	-0.00022622607
0	0.62842643	0.6284252	-1.8389462e-10	0.056568235	0.056568235	0	23985.35	23985.305	-6.612874e-06	658229	221567.06	-0.0001368124	221567.97	658228.25	-0.00012257799
0	0.6280607	0.6280595	-3.0719244e-10	0.056214813	0.056214813	0	23971.393	23971.344	-1.1198039e-05	658489	220794.95	-0.000268138	220795.9	658488.25	-0.00011868909
0	0.6276913	0.62769014	-3.276892e-10	0.055861287	0.055861287	0	23957.295	23957.25	-1.2650295e-05	658751.3	220015.6	-0.00028187747	220016.53	658750.6	-0.0001791695
0	0.627322	0.6273208	-2.5450894e-10	0.055507686	0.055507686	0	23943.2	23943.152	-1.03962375e-05	659010.9	219239.03	-0.00024102614	219240	659010.2	-0.00012386445
0	0.6269469	0.6269456	-3.2930936e-10	0.055154335	0.055154335	0	23928.883	23928.834	-1.25943825e-05	659274.75	218450.02	-0.0002655304	218450.98	659273.9	-0.00019893242
0	0.6265733	0.62657213	-4.741127e-10	0.05480076	0.05480076	0	23914.625	23914.574	-1.9004814e-05	659534.7	217667.05	-0.00032888373	217667.98	659533.94	-0.00035178327
0	0.6261938	0.6261926	-3.655098e-10	0.054447178	0.054447178	0	23900.139	23900.094	-1.334213e-05	659798.94	216871.4	-0.00029801714	216872.4	659798.25	-0.00019837488
0	0.6258145	0.62581325	-3.7868797e-10	0.054093663	0.054093663	0	23885.66	23885.613	-1.3990571e-05	660060.7	216078.67	-0.0002524621	216079.67	660059.9	-0.00024654067
0	0.62543154	0.62543035	-2.7602856e-10	0.053740177	0.053740177	0	23871.045	23870.998	-1.0118093e-05	660323.8	215279.34	-0.00020628812	215280.33	660323.06	-0.00016449297
0	0.6250448	0.62504363	-3.698831e-10	0.053386666	0.053386666	0	23856.29	23856.238	-1.40388065e-05	660589.3	214472.52	-0.00025743205	214473.52	660588.5	-0.00022231761
0	0.6246577	0.62465644	-3.4519537e-10	0.053033147	0.053033147	0	23841.512	23841.46	-1.35818445e-05	660852.25	213667.5	-0.00018349166	213668.52	660851.56	-0.0003330561
0	0.62426674	0.6242655	-1.6630068e-10	0.05267945	0.05267945	0	23826.59	23826.54	-7.1054906e-06	661117.25	212855.22	-0.00014528022	212856.2	661116.5	-9.947032e-05
0	0.6238722	0.6238709	-3.587801e-10	0.052326117	0.052326117	0	23811.531	23811.482	-1.3906492e-05	661384	212036.16	-0.0002579534	212037.19	661383.2	-0.00026936285
0	0.62347746	0.6234762	-2.2956234e-10	0.051971845	0.051971845	0	23796.46	23796.414	-8.0829495e-06	661648.06	211219.38	-0.00016389842	211220.42	661647.25	-0.00014298027
0	0.62307745	0.62307614	-3.114331e-10	0.051618867	0.051618867	0	23781.195	23781.145	-1.1083492e-05	661915.8	210391.45	-0.00024380686	210392.48	661915.06	-0.00016961028
0	0.62267566	0.6226745	-1.867758e-10	0.051265612	0.051265612	0	23765.863	23765.814	-7.324906e-06	662181.75	209563.2	-0.00016543534	209564.28	662181.06	-0.000103595456
0	0.6222731	0.6222718	-2.7040475e-10	0.050911337	0.050911337	0	23750.494	23750.445	-1.0672572e-05	662447.8	208733.44	-0.0002140978	208734.5	662447.06	-0.00019279584
0	0.62186533	0.6218641	-2.9811073e-10	0.050558325	0.050558325	0	23734.934	23734.883	-1.12191465e-05	662716	207894.52	-0.00025570014	207895.56	662715.25	-6.952655e-05
0	0.6214562	0.62145495	-2.5637387e-10	0.05020489	0.05020489	0	23719.316	23719.268	-9.2368045e-06	662983.56	207054.03	-0.0002037811	207055.12	662982.8	-0.00012563706
0	0.62104315	0.62104183	-3.742533e-10	0.049850788	0.049850788	0	23703.553	23703.502	-1.481577e-05	663252.3	206206.95	-0.00032148676	206208.06	663251.6	-0.00018185771
0	0.6206282	0.6206269	-2.5847668e-10	0.04949739	0.04949739	0	23687.715	23687.664	-8.912109e-06	663520.9	205357.5	-0.00016296587	205358.61	663520.1	-0.00013698066
0	0.6202098	0.6202085	-3.3193026e-10	0.049144328	0.049144328	0	23671.748	23671.695	-1.2044767e-05	663790.3	204502.33	-0.00027442104	204503.44	663789.6	-0.00019066806
0	0.61978745	0.619786	-3.8592785e-10	0.048790082	0.048790082	0	23655.623	23655.572	-1.5048908e-05	664061.7	203639.64	-0.00028909018	203640.78	664060.9	-0.00027795308
0	0.6193645	0.61936325	-2.0348405e-10	0.04843687	0.04843687	0	23639.482	23639.43	-7.666647e-06	664330.4	202778.88	-0.00015501108	202780.02	664329.56	-5.8305748e-05
0	0.6189378	0.61893636	-3.3029215e-10	0.04808294	0.04808294	0	23623.195	23623.143	-1.30121725e-05	664600.7	201910.95	-0.00023605663	201912.1	664599.9	-0.00022234362
0	0.61850727	0.61850584	-3.0995762e-10	0.04772953	0.04772953	0	23606.762	23606.709	-1.159878e-05	664871.94	201037.08	-0.00022403413	201038.22	664871.06	-0.00020767516
0	0.618074	0.6180726	-1.7549917e-10	0.047376405	0.047376405	0	23590.225	23590.176	-7.5894363e-06	665143.56	200158.89	-0.00015750508	200160.02	665142.7	-9.8803124e-05
0	0.61763734	0.61763597	-2.2430822e-10	0.047022395	0.047022395	0	23573.56	23573.508	-1.0136623e-05	665415.9	199275.2	-0.00014259244	199276.36	665415.2	-0.00019757228
0	0.6171995	0.61719805	-4.2718293e-10	0.04666901	0.04666901	0	23556.848	23556.791	-1.5856727e-05	665687.44	198390.56	-0.0003717887	198391.72	665686.7	-0.00017960467
0	0.61675584	0.6167544	-3.8168588e-10	0.046315704	0.046315704	0	23539.914	23539.861	-1.4695225e-05	665961.8	197495.16	-0.00024848408	197496.33	665961	-0.00023221107
0	0.6163117	0.61631036	-2.4790284e-10	0.045961797	0.045961797	0	23522.965	23522.91	-8.853158e-06	666233.44	196601.77	-0.00016117703	196602.94	666232.6	-0.0001348968
0	0.6158631	0.6158616	-2.5966676e-10	0.045608494	0.045608494	0	23505.84	23505.79	-1.0213453e-05	666507.1	195700	-0.00019506467	195701.2	666506.2	-0.00013450443
0	0.6154111	0.61540973	-3.2484918e-10	0.045255188	0.045255188	0	23488.594	23488.54	-1.2089836e-05	666781.1	194793.3	-0.00024406874	194794.5	666780.4	-0.00018271436
0	0.6149559	0.6149545	-2.8639066e-10	0.04490103	0.04490103	0	23471.217	23471.16	-1.0544457e-05	667055.7	193881.4	-0.00024220561	193882.61	667054.9	-9.435246e-05
0	0.6144977	0.6144963	-3.1659605e-10	0.044547945	0.044547945	0	23453.729	23453.678	-1.1373125e-05	667330.44	192965.11	-0.00026725736	192966.34	667329.7	-0.00015501582
0	0.6140359	0.6140344	-3.2233363e-10	0.04419374	0.04419374	0	23436.104	23436.05	-1.1472669e-05	667605.7	192043.23	-0.00024781245	192044.44	667605	-0.00016025486
0	0.6135711	0.6135697	-1.9589977e-10	0.043840446	0.043840446	0	23418.363	23418.309	-7.5246467e-06	667881.25	191117.03	-0.0001631694	191118.28	667880.5	-8.005161e-05
0	0.61310226	0.6131009	-2.717609e-10	0.043487187	0.043487187	0	23400.473	23400.416	-1.00590205e-05	668157.75	190184.31	-0.00017734477	190185.56	668156.94	-0.00017908089
0	0.61263067	0.6126292	-1.9213155e-10	0.043133244	0.043133244	0	23382.467	23382.416	-7.0509777e-06	668434	189247.73	-0.000119716846	189249	668433.2	-0.00010058645
0	0.6121558	0.61215436	-5.187502e-10	0.042779926	0.042779926	0	23364.344	23364.291	-2.0381016e-05	668710.7	188306.19	-0.00036032128	188307.47	668709.9	-0.00035263516
0	0.6116759	0.61167455	-3.8285192e-10	0.042426657	0.042426657	0	23346.031	23345.973	-1.4577246e-05	668988.6	187356.42	-0.00031382163	187357.67	668987.9	-0.00014615672
0	0.61119455	0.61119306	-3.1410882e-10	0.04207268	0.04207268	0	23327.658	23327.604	-1.138365e-05	669265.7	186405.45	-0.00025934138	186406.75	669264.9	-0.00015333574
0	0.6107085	0.610707	-3.0826172e-10	0.041719414	0.041719414	0	23309.104	23309.045	-1.1449426e-05	669544	185446.55	-0.0002643048	185447.83	669543.2	-0.00013141091
0	0.61021924	0.61021775	-2.7112718e-10	0.04136609	0.04136609	0	23290.436	23290.377	-1.081707e-05	669822.1	184483.52	-0.00017268342	184484.83	669821.5	-0.00020958231
0	0.6097258	0.6097243	-1.853974e-10	0.041011933	0.041011933	0	23271.598	23271.543	-7.163916e-06	670101.25	183513.61	-0.00014842539	183514.92	670100.5	-0.00011093026
0	0.609229	0.60922766	-3.2348532e-10	0.040658846	0.040658846	0	23252.64	23252.584	-1.154208e-05	670380.4	182539.06	-0.00023656637	182540.36	670379.56	-0.00014207982
0	0.6087285	0.6087271	-5.109688e-10	0.04030471	0.04030471	0	23233.535	23233.479	-1.9803714e-05	670660	181558.61	-0.00043915206	181559.92	670659.2	-0.00026844034
0	0.6082242	0.6082228	-2.1477731e-10	0.03995136	0.03995136	0	23214.285	23214.229	-7.5517864e-06	670939.8	180572.73	-0.00011667287	180574.03	670939	-0.00015130133
0	0.60771453	0.60771316	-3.3878864e-10	0.039598063	0.039598063	0	23194.836	23194.78	-1.3092984e-05	671221.7	179577.47	-0.00036830603	179578.8	671220.9	-6.650156e-05
0	0.60720384	0.6072023	-3.2573047e-10	0.039244205	0.039244205	0	23175.34	23175.283	-1.0662324e-05	671500.9	178583.11	-0.00027111318	178584.44	671500.2	-0.00012171276
0	0.6066862	0.6066846	-2.3259548e-10	0.038890842	0.038890842	0	23155.584	23155.525	-8.664652e-06	671783.56	177575.7	-0.0001764599	177577.05	671782.75	-0.00012452767
0	0.6061677	0.60616624	-3.4756345e-10	0.038537536	0.038537536	0	23135.795	23135.734	-1.2311873e-05	672063.3	176570.1	-0.00025002082	176571.45	672062.6	-0.00021684637
0	0.6056434	0.6056418	-2.3830748e-10	0.038183637	0.038183637	0	23115.783	23115.723	-8.634864e-06	672345.4	175553.97	-0.00016599639	175555.31	672344.6	-6.950037e-05
0	0.60511506	0.60511357	-2.3595653e-10	0.03783033	0.03783033	0	23095.617	23095.56	-9.18969e-06	672627.44	174532.3	-0.00024632007	174533.62	672626.75	-7.2305214e-05
0	0.60458326	0.6045817	-3.8516657e-10	0.03747694	0.03747694	0	23075.32	23075.264	-1.4561861e-05	672909.75	173505.47	-0.00022875548	173506.84	672909	-0.0002639524
0	0.6040467	0.6040452	-2.876681e-10	0.03712286	0.03712286	0	23054.842	23054.783	-1.0715728e-05	673192.6	172471.3	-0.00020855098	172472.66	673191.94	-0.00015332445
0	0.6035059	0.6035045	-2.9078895e-10	0.036769744	0.036769744	0	23034.203	23034.145	-1.1734726e-05	673476	171430.97	-0.00024495064	171432.36	673475.2	-0.00017435843
0	0.60296065	0.60295904	-3.6134795e-10	0.036415678	0.036415678	0	23013.389	23013.328	-1.4232837e-05	673759.44	170383.97	-0.00028555625	170385.38	673758.7	-0.00023593286
0	0.602412	0.6024104	-3.4818493e-10	0.036062278	0.036062278	0	22992.45	22992.393	-1.4286932e-05	674042.9	169332.42	-0.00029135437	169333.81	674042.1	-0.00020348962
0	0.6018576	0.60185605	-2.8469674e-10	0.035708938	0.035708938	0	22971.29	22971.23	-1.0800331e-05	674327.3	168271.86	-0.00030133646	168273.27	674326.7	-9.0500944e-05
0	0.6013001	0.6012986	-3.4922512e-10	0.035355177	0.035355177	0	22950.014	22949.955	-1.2721301e-05	674611.44	167207.36	-0.0002489693	167208.78	674610.7	-0.00016995861
0	0.6007375	0.6007359	-2.579681e-10	0.03500176	0.03500176	0	22928.54	22928.482	-9.420973e-06	674896.3	166134.83	-0.00024297318	166136.22	674895.5	-8.626879e-05
0	0.6001703	0.6001688	-2.476364e-10	0.034648404	0.034648404	0	22906.893	22906.834	-1.028147e-05	675181.25	165055.86	-0.00026741292	165057.28	675180.44	-9.6336764e-05
0	0.5995971	0.5995955	-2.0241882e-10	0.034294598	0.034294598	0	22885.012	22884.953	-7.5649646e-06	675467.06	163967.34	-0.0002457795	163968.77	675466.4	-3.5016645e-05
0	0.59902084	0.5990192	-9.650065e-11	0.033941235	0.033941235	0	22863.02	22862.959	-4.0935333e-06	675753.3	162874.39	-0.000104276674	162875.83	675752.56	-4.6807665e-05
0	0.59844077	0.5984393	-1.1354245e-10	0.03358779	0.03358779	0	22840.879	22840.82	-5.8321675e-06	676037.94	161777.72	-0.00011121221	161779.16	676037.2	-0.00010654696
0	0.597855	0.59785336	-3.1597694e-10	0.033233795	0.033233795	0	22818.518	22818.459	-1.29084e-05	676323.9	160671.52	-0.00033365353	160672.97	676323.2	-0.00013872603
0	0.5972633	0.5972618	-2.5248426e-10	0.032880653	0.032880653	0	22795.94	22795.88	-9.136361e-06	676610.4	159556.78	-0.00023458616	159558.2	676609.75	-8.7453926e-05
0	0.59666824	0.5966667	-3.1202754e-10	0.03252667	0.03252667	0	22773.225	22773.166	-1.249841e-05	676896.8	158437.28	-0.00023571636	158438.72	676896.06	-0.00021438922
0	0.5960674	0.59606594	-2.9058397e-10	0.032173198	0.032173198	0	22750.295	22750.234	-1.2145847e-05	677183.6	157309.3	-0.0001947748	157310.73	677182.9	-0.00025647975
0	0.59546155	0.59546006	-3.6319744e-10	0.031819794	0.031819794	0	22727.172	22727.113	-1.3533799e-05	677470.6	156174.2	-0.0003600613	156175.67	677469.9	-0.00015606453
0	0.5948505	0.59484893	-4.2846118e-10	0.031466164	0.031466164	0	22703.848	22703.791	-1.5963966e-05	677757.9	155031.39	-0.0003703232	155032.83	677757.2	-0.00017804673
0	0.59423286	0.59423137	-3.8566852e-10	0.031112673	0.031112673	0	22680.277	22680.217	-1.5104421e-05	678046.56	153878.03	-0.00032066018	153879.45	678045.9	-0.00021960842
0	0.59361243	0.59361094	-3.1812183e-10	0.030759258	0.030759258	0	22656.594	22656.535	-1.2017609e-05	678333.06	152722.9	-0.00025952354	152724.38	678332.4	-0.00014243834
0	0.5929858	0.5929843	-2.3588784e-10	0.030405577	0.030405577	0	22632.678	22632.62	-8.073069e-06	678620.56	151558.03	-0.00019522567	151559.48	678620	-8.385881e-05
0	0.59235156	0.59235	-2.6018077e-10	0.030052148	0.030052148	0	22608.47	22608.41	-1.0334286e-05	678910.2	150380.47	-0.000288505	150381.92	678909.56	-7.356003e-05
0	0.59171426	0.5917127	-2.4182234e-10	0.029698623	0.029698623	0	22584.145	22584.088	-8.4569565e-06	679197.4	149201.08	-0.00016104967	149202.55	679196.75	-0.00015389893
0	0.5910699	0.59106845	-2.8080965e-10	0.029344728	0.029344728	0	22559.553	22559.498	-1.0946336e-05	679486.7	148009.81	-0.00022286427	148011.25	679486	-0.00017193903
0	0.5904209	0.5904194	-4.0253625e-10	0.028991554	0.028991554	0	22534.781	22534.725	-1.5452368e-05	679775	146812.8	-0.00042278337	146814.25	679774.4	-0.0001576054
0	0.5897661	0.58976465	-2.4810878e-10	0.028637664	0.028637664	0	22509.791	22509.732	-1.0386567e-05	680063.44	145607.61	-0.00026878403	145609.08	680062.9	-6.124582e-05
0	0.5891054	0.5891038	-5.2140997e-10	0.028284118	0.028284118	0	22484.574	22484.516	-1.9524965e-05	680352	144394.1	-0.00032428096	144395.55	680351.4	-0.00033985727
0	0.58843964	0.58843815	-3.5407322e-10	0.027930643	0.027930643	0	22459.164	22459.105	-1.4193929e-05	680639.7	143174.33	-0.00027708418	143175.8	680639.1	-0.00021899276
0	0.5877672	0.5877657	-4.543142e-10	0.027577167	0.027577167	0	22433.498	22433.441	-1.7699564e-05	680928.2	141944.4	-0.00036028828	141945.86	680927.6	-0.00026924966
0	0.58708787	0.58708644	-2.2734815e-10	0.027223589	0.027223589	0	22407.57	22407.514	-9.2982755e-06	681217.25	140704.28	-0.00018002458	140705.72	681216.7	-0.00013756311
0	0.5864029	0.58640146	-1.9784267e-10	0.026870089	0.026870089	0	22381.426	22381.37	-7.7476825e-06	681505.9	139456.72	-0.0002878153	139458.17	681505.3	1.7777248e-06
0	0.5857096	0.58570814	-2.2501659e-10	0.026516574	0.026516574	0	22354.965	22354.908	-8.60091e-06	681795.5	138196.48	-0.0002129596	138197.94	681794.9	-0.00010159469
0	0.58501303	0.58501154	-2.7244623e-10	0.026163058	0.026163058	0	22328.379	22328.32	-1.1480098e-05	682083.9	136932.89	-0.00029835242	136934.33	682083.3	-0.00015402002
0	0.5843071	0.5843056	-3.742052e-10	0.025809433	0.025809433	0	22301.432	22301.377	-1.421212e-05	682373.94	135654.45	-0.00029377852	135655.88	682373.4	-0.00019888754
0	0.5835975	0.5835961	-1.8414092e-10	0.025455669	0.025455669	0	22274.352	22274.297	-7.4282675e-06	682661.44	134373.67	-0.00019025496	134375.11	682660.75	-6.155189e-05
0	0.5828794	0.582878	-3.473113e-10	0.025102446	0.025102446	0	22246.945	22246.889	-1.2457122e-05	682950.2	133079.56	-0.00028805857	133080.97	682949.6	-0.00016480358
0	0.5821545	0.5821531	-4.168412e-10	0.024748694	0.024748694	0	22219.275	22219.225	-1.6838052e-05	683238.94	131776.02	-0.00041680288	131777.42	683238.4	-0.00018122925
0	0.58142257	0.5814212	-3.1228553e-10	0.024395041	0.024395041	0	22191.342	22191.285	-1.2303616e-05	683527.56	130462.695	-0.00035655068	130464.09	683527	-4.698986e-05
0	0.5806837	0.5806824	-2.9895958e-10	0.02404147	0.02404147	0	22163.14	22163.09	-1.1422292e-05	683815.9	129140	-0.00020381695	129141.39	683815.3	-0.00018960977
0	0.57993615	0.5799348	-4.1248788e-10	0.023688203	0.023688203	0	22134.605	22134.555	-1.562959e-05	684105.2	127803.984	-0.00031639021	127805.37	684104.6	-0.0002471005
0	0.57918406	0.5791827	-3.7191017e-10	0.023334505	0.023334505	0	22105.902	22105.848	-1.3500346e-05	684392.25	126464.08	-0.00031823522	126465.45	684391.6	-0.00014348804
0	0.57842165	0.5784203	-1.194659e-10	0.022980899	0.022980899	0	22076.805	22076.752	-4.5856223e-06	684681.06	125107.86	-0.00016132249	125109.23	684680.56	1.0693369e-05
0	0.57765466	0.57765335	-2.4992314e-10	0.022627594	0.022627594	0	22047.527	22047.479	-8.512823e-06	684967.44	123747.73	-0.00015862903	123749.08	684966.94	-0.00015157746
0	0.5768782	0.5768769	-2.5625824e-10	0.022273973	0.022273973	0	22017.895	22017.846	-9.548244e-06	685254.8	122373.35	-0.00023038774	122374.7	685254.4	-9.206288e-05
0	0.5760941	0.5760928	-3.9036074e-10	0.021920223	0.021920223	0	21987.967	21987.916	-1.5016207e-05	685541.7	120988.68	-0.00040119747	120990.03	685541.2	-0.00014512893
0	0.5753003	0.5752991	-2.3784597e-10	0.021566622	0.021566622	0	21957.67	21957.623	-9.242925e-06	685829.4	119589.734	-0.00022607547	119591.06	685828.94	-0.00011764299
0	0.5745013	0.5745	-2.364577e-10	0.021213328	0.021213328	0	21927.172	21927.125	-8.825505e-06	686114.7	118185.73	-0.00014801639	118187.05	686114.25	-0.00019563096
0	0.5736928	0.5736916	-2.5324629e-10	0.020859707	0.020859707	0	21896.316	21896.27	-8.807202e-06	686400.3	116768.375	-0.00026883234	116769.67	686399.9	-3.9503888e-05
0	0.5728755	0.5728744	-2.5014743e-10	0.020505967	0.020505967	0	21865.123	21865.076	-9.860881e-06	686685.7	115338.766	-0.00023902538	115340.05	686685.3	-0.000104241444
0	0.57205	0.57204884	-4.833601e-10	0.020152355	0.020152355	0	21833.613	21833.57	-1.8492943e-05	686970.4	113898.375	-0.0005124502	113899.63	686969.94	-0.00017457004
0	0.5712153	0.57121414	-2.0751968e-10	0.019799031	0.019799031	0	21801.756	21801.709	-8.353771e-06	687254.7	112445.375	-0.0003666548	112446.625	687254.3	5.444541e-05
0	0.5703721	0.570371	-3.16194e-10	0.019445421	0.019445421	0	21769.574	21769.533	-1.2622458e-05	687538.1	110981.64	-0.00029242883	110982.875	687537.75	-0.00019261299
0	0.5695191	0.56951797	-4.240995e-10	0.019091818	0.019091818	0	21737.018	21736.973	-1.6308277e-05	687821.4	109504.12	-0.00034607662	109505.336	687821	-0.00025588382
0	0.56865567	0.5686546	-2.5940328e-10	0.01873847	0.01873847	0	21704.064	21704.02	-9.616115e-06	688104.6	108012.195	-0.00020385982	108013.38	688104.25	-0.00014357021
0	0.5677858	0.5677848	-3.0460154e-10	0.018384872	0.018384872	0	21670.861	21670.82	-1.1071318e-05	688385.2	106513.766	-0.00040911484	106514.92	688384.94	1.6830596e-05
0	0.5669046	0.5669036	-3.3549885e-10	0.018031139	0.018031139	0	21637.23	21637.19	-1.2970137e-05	688666.06	104999.3	-0.0003854932	105000.45	688665.75	-9.7796124e-05
0	0.5660135	0.5660125	-2.988075e-10	0.017677588	0.017677588	0	21603.217	21603.178	-1.1627813e-05	688946.06	103471.72	-0.00026171413	103472.836	688945.7	-0.00012272298
0	0.5651124	0.56511146	-3.0421546e-10	0.017324202	0.017324202	0	21568.828	21568.787	-1.1183224e-05	689225	101931.34	-0.00041938995	101932.44	689224.6	1.3523576e-05
0	0.56420124	0.5642003	-2.8377245e-10	0.016970618	0.016970618	0	21534.047	21534.012	-1.2235959e-05	689502.9	100377.72	-0.0004045611	100378.81	689502.6	-4.119076e-05
0	0.56327903	0.56327814	-2.2623817e-10	0.016616898	0.016616898	0	21498.85	21498.816	-7.6137767e-06	689780.06	98809.61	-0.00032132838	98810.66	689779.8	3.3667835e-05
0	0.5623467	0.56234574	-4.0801282e-10	0.016263334	0.016263334	0	21463.266	21463.23	-1.5811893e-05	690055.7	97228.555	-0.00039124826	97229.6	690055.5	-0.00016890228
0	0.5614029	0.561402	-2.8785768e-10	0.015909897	0.015909897	0	21427.244	21427.21	-1.09266475e-05	690330.56	95632.53	-0.00027196013	95633.52	690330.25	-0.00012868512
0	0.5604487	0.5604479	-2.9729227e-10	0.015556336	0.015556336	0	21390.824	21390.791	-1.2169019e-05	690603.7	94023.56	-0.00037300325	94024.53	690603.56	-6.633777e-05
0	0.5594827	0.5594819	-3.4894174e-10	0.015202789	0.015202789	0	21353.955	21353.922	-1.2500595e-05	690875.7	92399.2	-0.00032896473	92400.14	690875.5	-0.00013323552
0	0.55850494	0.55850416	-2.493567e-10	0.014849312	0.014849312	0	21316.637	21316.605	-1.057803e-05	691146.3	90759.73	-0.00028985422	90760.65	691146.1	-8.624223e-05
0	0.5575151	0.55751437	-3.2670078e-10	0.014495777	0.014495777	0	21278.855	21278.828	-1.1358128e-05	691415.5	89104.805	-0.00030962616	89105.68	691415.3	-7.398956e-05
0	0.5565136	0.55651295	-2.9228886e-10	0.014142059	0.014142059	0	21240.633	21240.605	-1.1326577e-05	691682.8	87435.484	-0.00024245371	87436.34	691682.6	-0.00015678508
0	0.5554991	0.55549836	-1.9062059e-10	0.013788584	0.013788584	0	21201.908	21201.883	-8.381569e-06	691948.7	85749.14	-0.00021440031	85749.98	691948.5	-8.177897e-05
0	0.5544727	0.5544719	-3.4049208e-10	0.013435044	0.013435044	0	21162.732	21162.709	-1.2517718e-05	692212.3	84048.58	-0.0003663718	84049.37	692212.2	-7.1640774e-05
0	0.5534325	0.55343187	-1.883371e-10	0.013081529	0.013081529	0	21123.033	21123.01	-7.467315e-06	692474.4	82330.3	-0.00023151495	82331.06	692474.3	-4.771522e-05
0	0.5523795	0.55237895	-2.0444071e-10	0.012727834	0.012727834	0	21082.844	21082.82	-7.690512e-06	692734.3	80596.266	-0.000283708	80596.99	692734.1	2.6416305e-05
0	0.55131316	0.5513127	-2.5320843e-10	0.012374347	0.012374347	0	21042.146	21042.125	-8.608871e-06	692991.75	78846.016	-0.00017533089	78846.71	692991.75	-0.00012983332
0	0.5502325	0.55023193	-1.9699363e-10	0.012020735	0.012020735	0	21000.896	21000.877	-6.1774e-06	693247.25	77077.54	-0.00019735457	77078.195	693247.25	-3.9710903e-05
0	0.5491381	0.54913765	-2.9212274e-10	0.0116672525	0.0116672525	0	20959.13	20959.111	-1.0475494e-05	693500.06	75292.71	-0.00031439398	75293.32	693500	-6.0331953e-05
0	0.5480289	0.54802847	-2.4984304e-10	0.011313797	0.011313797	0	20916.791	20916.775	-1.0006336e-05	693750.5	73489.34	-0.00023460727	73489.94	693750.44	-0.00010189626
0	0.5469051	0.5469046	-3.0996095e-10	0.010960111	0.010960111	0	20873.9	20873.883	-1.2738907e-05	693998	71668.55	-0.000312041	71669.1	693998	-0.00014176212
0	0.545766	0.5457656	-2.6946245e-10	0.010606664	0.010606664	0	20830.424	20830.41	-1.0820678e-05	694242.75	69829.12	-0.00033021357	69829.64	694242.7	-5.8127243e-05
0	0.54461133	0.544611	-3.2780226e-10	0.010252983	0.010252983	0	20786.354	20786.34	-1.3214039e-05	694484.44	67971.016	-0.00033495922	67971.5	694484.4	-0.00012059627
0	0.543441	0.5434407	-5.4749535e-11	0.009899516	0.009899516	0	20741.69	20741.676	-2.4281499e-06	694722.9	66094.21	-8.464474e-05	66094.66	694722.8	-1.9625431e-05
0	0.54225403	0.5422537	-3.6204847e-10	0.009545909	0.009545909	0	20696.38	20696.371	-1.4014276e-05	694957.94	64197.312	-0.00031424538	64197.73	694957.94	-0.00019578544
0	0.54105026	0.54105	-1.6505904e-10	0.009192436	0.009192436	0	20650.44	20650.43	-6.418031e-06	695189.44	62280.59	-0.00016383905	62280.96	695189.5	-6.994456e-05
0	0.5398302	0.5398299	4.8148018e-12	0.008838794	0.008838794	0	20603.867	20603.861	-5.9921166e-07	695417.06	60344.867	-9.395841e-05	60345.21	695417.06	9.704604e-05
0	0.5385917	0.53859144	-3.2111314e-10	0.008485309	0.008485309	0	20556.6	20556.59	-1.2271382e-05	695640.8	58387.168	-0.00034774045	58387.48	695640.9	-7.486353e-05
0	0.5373355	0.53733534	-1.5289864e-10	0.008131667	0.008131667	0	20508.656	20508.65	-7.0599026e-06	695860.4	56409.086	-0.00022651866	56409.363	695860.4	-3.2488886e-05
0	0.5360611	0.536061	-2.1900763e-10	0.007778168	0.007778168	0	20460.018	20460.012	-8.48283e-06	696075.44	54409.895	-0.00032907107	54410.137	696075.5	4.0060393e-05
0	0.53476787	0.5347678	-3.3982125e-10	0.007424656	0.007424656	0	20410.656	20410.652	-1.3623466e-05	696285.75	52389.027	-0.0002535964	52389.24	696285.9	-0.00025132403