# t (s)	mx ()	my ()	mz ()	B_extx (T)	B_exty (T)	B_extz (T)	m_fullx (A/m)	m_fully (A/m)	m_fullz (A/m)	m_full.region1x (A/m)	m_full.region1y (A/m)	m_full.region1z (A/m)	m_full.region2x (A/m)	m_full.region2y (A/m)	m_full.region2z (A/m)
0	0.6534675	0.6534656	-5.492832e-10	0.070710756	0.070710756	0	101678.63	101678.34	-8.650519e-05	635509.94	279343.1	-0.00039500312	279344.47	635508.8	-0.00038916562
0	0.6532273	0.6532261	-1.484549e-10	0.07035723	0.07035723	0	101641.27	101641.07	-2.768166e-05	635751	278766.4	-0.00023349938	278767.34	635750	0
0	0.65298164	0.65298027	-2.3752786e-10	0.07000352	0.07000352	0	101603.04	101602.83	-4.49827e-05	635999.94	278173.3	-0.00023349938	278174.22	635999.1	-0.00014204545
0	0.6527357	0.6527344	-1.633004e-10	0.06965001	0.06965	0	101564.78	101564.57	-3.4602075e-05	636248	277581.2	-6.22665e-05	277582.06	636247.1	-0.00017123288
0	0.6524873	0.65248597	-5.047467e-10	0.06929648	0.06929647	0	101526.12	101525.91	-6.920415e-05	636497.5	276983.72	-0.000249066	276984.66	636496.7	-0.0004280822
0	0.6522369	0.65223557	-2.969098e-10	0.068942994	0.068942994	0	101487.164	101486.945	-5.1903113e-05	636748.56	276382.2	-0.00032689914	276383.2	636747.6	-0.0001867995
0	0.65198666	0.65198535	-3.7113726e-10	0.068589285	0.068589285	0	101448.23	101448.02	-5.882353e-05	636997.25	275783.16	-0.00034246576	275784.1	636996.4	-0.000249066
0	0.65173346	0.6517321	-5.938196e-10	0.06823578	0.06823578	0	101408.83	101408.61	-9.16955e-05	637248.56	275177.34	-0.000373599	275178.3	637247.56	-0.0004280822
0	0.65147907	0.6514778	-5.1959215e-10	0.06788223	0.06788223	0	101369.25	101369.04	-7.612457e-05	637500.06	274569.7	-0.00035803238	274570.62	637499.2	-0.00033468244
0	0.65122265	0.65122133	2.9690982e-11	0.067528725	0.067528725	0	101329.34	101329.13	6.920415e-06	637752.56	273958.16	-4.6699875e-05	273959.12	637751.7	0.000124533
0	0.6509649	0.65096354	-1.7814589e-10	0.067175016	0.06717501	0	101289.25	101289.02	-2.768166e-05	638005	273345.06	-0.00021793276	273346.03	638004	-7.783313e-06
0	0.6507052	0.65070385	-6.383561e-10	0.06682165	0.06682165	0	101248.836	101248.62	-9.34256e-05	638258.75	272727.62	-0.0004358655	272728.56	638257.8	-0.0004358655
0	0.6504442	0.6504428	-2.969098e-10	0.06646814	0.06646814	0	101208.22	101208	-4.8442907e-05	638512.8	272108.1	-0.00017123288	272109.06	638511.9	-0.00028798258
0	0.6501814	0.65018004	-1.7814589e-10	0.06611444	0.06611443	0	101167.336	101167.1	-3.4602075e-05	638767.25	271485.8	-0.000124533	271486.8	638766.25	-0.00013231632
0	0.6499164	0.64991504	-4.1567375e-10	0.06576094	0.06576094	0	101126.09	101125.875	-6.228374e-05	639023	270858.97	-0.000249066	270859.97	639022.06	-0.00028019925
0	0.6496499	0.64964855	-3.5629177e-10	0.06540737	0.065407366	0	101084.63	101084.414	-5.1903113e-05	639279.06	270229.84	-0.0001867995	270230.84	639278.1	-0.00031911582
0	0.6493817	0.64938027	1.484549e-10	0.06505391	0.06505391	0	101042.89	101042.67	1.7301038e-05	639535.56	269597.78	0	269598.84	639534.7	0.00019458281
0	0.64911085	0.6491095	-5.6412863e-10	0.06470021	0.06470021	0	101000.76	101000.53	-8.3044986e-05	639794.4	268959.84	-0.0004358655	268960.9	639793.44	-0.00033468244
0	0.64883935	0.64883786	-2.969098e-10	0.06434671	0.06434671	0	100958.51	100958.28	-5.882353e-05	640052	268322.12	-0.00028019925	268323.16	640051	-0.00021793276
0	0.6485673	0.6485658	-5.9381965e-11	0.06399313	0.06399313	0	100916.17	100915.95	-1.0380623e-05	640308.6	267684.53	-9.339975e-05	267685.6	640307.6	2.3349938e-05
0	0.64829206	0.64829063	-8.907294e-11	0.06363964	0.06363964	0	100873.35	100873.13	-2.4221454e-05	640567.56	267040.44	-9.339975e-05	267041.5	640566.44	-0.00011674969
0	0.64801395	0.6480126	-3.1175532e-10	0.06328593	0.06328593	0	100830.086	100829.86	-4.49827e-05	640828.75	266389.8	-0.00026463263	266390.84	640827.8	-0.00020236612
0	0.6477364	0.6477349	-7.1258355e-10	0.06293254	0.06293254	0	100786.88	100786.66	-0.00010726644	641087.5	265742.38	-0.00045143213	265743.47	641086.5	-0.0005526152
0	0.6474557	0.6474542	-1.1876393e-10	0.06257905	0.06257905	0	100743.21	100742.97	-1.7301038e-05	641348.4	265088.5	-0.000124533	265089.62	641347.4	-8.561644e-05
0	0.6471725	0.64717096	-2.6721883e-10	0.062225346	0.062225346	0	100699.15	100698.91	-3.8062284e-05	641610.1	264430.2	-0.00020236612	264431.3	641609.2	-0.00016344957
0	0.6468892	0.6468877	-3.266008e-10	0.06187188	0.06187188	0	100655.07	100654.83	-5.1903113e-05	641871.5	263772.34	-0.00026463263	263773.47	641870.44	-0.000249066
0	0.6466029	0.6466014	-4.1567375e-10	0.061518256	0.061518256	0	100610.52	100610.27	-6.920415e-05	642134.2	263108.72	-0.00032689914	263109.84	642133.1	-0.00023349938
0	0.6463144	0.6463128	-2.969098e-10	0.061164834	0.061164834	0	100565.62	100565.375	-4.1522493e-05	642397.94	262441.03	-0.00017123288	262442.2	642396.8	-0.00020236612
0	0.6460248	0.64602315	1.4845491e-11	0.060811136	0.060811136	0	100520.555	100520.32	0	642661.3	261772.17	3.113325e-05	261773.36	642660.3	7.783313e-06
0	0.6457329	0.64573133	-1.1876393e-10	0.060457654	0.060457654	0	100475.14	100474.89	-1.384083e-05	642925.7	261099.2	-0.00010896638	261100.36	642924.6	-2.3349938e-05
0	0.6454388	0.64543724	-4.1567375e-10	0.060104024	0.060104024	0	100429.38	100429.14	-6.5743945e-05	643190.94	260422.33	-0.0004358655	260423.52	643189.8	-0.00021793276
0	0.6451421	0.64514047	-5.3443766e-10	0.059750553	0.059750553	0	100383.22	100382.96	-8.650519e-05	643457.25	259740.44	-0.00040473224	259741.64	643456.2	-0.00038916562
0	0.6448428	0.64484125	-3.1175532e-10	0.059396863	0.059396863	0	100336.63	100336.4	-5.1903113e-05	643724.75	259054.02	-0.00023349938	259055.2	643723.6	-0.00021014945
0	0.64454454	0.644543	-5.7897415e-10	0.05904343	0.05904343	0	100290.26	100289.99	-9.6885815e-05	643990.7	258370.6	-0.0005136986	258371.78	643989.6	-0.00035803238
0	0.6442413	0.6442396	-1.3360942e-10	0.058689952	0.05868996	0	100243.04	100242.79	-2.0761247e-05	644260.2	257676.33	-9.339975e-05	257677.55	644259.2	-3.113325e-05
0	0.6439378	0.6439362	-4.3051923e-10	0.05833627	0.05833627	0	100195.83	100195.586	-5.882353e-05	644528	256983.83	-0.0003113325	256985.05	644526.9	-0.00026463263
0	0.6436309	0.64362925	-4.453647e-11	0.057982814	0.057982814	0	100148.08	100147.82	-3.4602076e-06	644797.75	256284.31	-1.5566626e-05	256285.55	644796.6	-3.891656e-05
0	0.64332485	0.6433231	-4.4536472e-10	0.05762915	0.05762915	0	100100.46	100100.19	-6.920415e-05	645064.6	255588.81	-0.0004202989	255590.06	645063.6	-0.00022571607
0	0.6430128	0.6430112	-4.0082826e-10	0.057275683	0.057275683	0	100051.91	100051.66	-6.5743945e-05	645337.06	254879.69	-0.0003113325	254880.94	645335.94	-0.00024128269
0	0.6427025	0.64270085	-4.750557e-10	0.056922052	0.056922052	0	100003.62	100003.37	-7.958477e-05	645605.4	254176.88	-0.00032689914	254178.12	645604.3	-0.00038138233
0	0.64238614	0.64238447	-4.750557e-10	0.056568604	0.056568604	0	99954.41	99954.13	-7.266436e-05	645879.2	253460.22	-0.000373599	253461.48	645878.06	-0.00029576587
0	0.6420714	0.64206964	-3.414463e-10	0.05621492	0.05621492	0	99905.414	99905.16	-5.536332e-05	646149.06	252749.6	-0.00023349938	252750.88	646147.94	-0.00021014945
0	0.6417509	0.6417492	1.03918436e-10	0.05586146	0.05586146	0	99855.55	99855.28	1.7301038e-05	646423.75	252026.22	3.113325e-05	252027.52	646422.56	8.561644e-05
0	0.6414319	0.6414302	2.9690982e-11	0.055507787	0.055507787	0	99805.92	99805.65	6.920415e-06	646694.5	251308.88	-4.6699875e-05	251310.17	646693.4	0.000124533
0	0.6411085	0.64110684	-1.484549e-10	0.055154327	0.055154327	0	99755.61	99755.33	-2.0761247e-05	646968.5	250582.19	-0.0001867995	250583.55	646967.4	-3.113325e-05
0	0.64078283	0.64078116	-4.0082826e-10	0.05480086	0.05480086	0	99704.94	99704.65	-5.882353e-05	647243.4	249851.31	-0.00026463263	249852.67	647242.2	-0.00024128269
0	0.64045435	0.6404526	-2.0783687e-10	0.05444718	0.05444718	0	99653.82	99653.54	-4.1522493e-05	647518.8	249115.94	-0.00017123288	249117.3	647517.75	-0.00015566625
0	0.6401246	0.6401229	-3.8598275e-10	0.054093737	0.054093737	0	99602.5	99602.234	-6.228374e-05	647794.6	248378.48	-0.00032689914	248379.88	647793.5	-0.00021793276
0	0.639793	0.63979113	-3.266008e-10	0.05374005	0.05374005	0	99550.9	99550.62	-5.1903113e-05	648070.6	247638.11	-0.00020236612	247639.48	648069.44	-0.0003035492
0	0.6394585	0.6394566	-2.969098e-10	0.0533866	0.0533866	0	99498.86	99498.57	-4.3036332e-05	648347.6	246892.81	-0.00017123288	246894.2	648346.5	-0.00026463263
0	0.6391217	0.63912	-3.7113726e-10	0.053032972	0.053032972	0	99446.47	99446.18	-5.536332e-05	648625.2	246143.92	-0.00029576587	246145.34	648624	-0.00024128269
0	0.6387822	0.6387803	-1.3360942e-10	0.052679513	0.052679513	0	99393.62	99393.336	-2.4221454e-05	648903.6	245389.94	-0.000124533	245391.33	648902.5	-0.00013231632
0	0.63844144	0.63843954	-5.7897415e-10	0.052325826	0.052325826	0	99340.6	99340.305	-9.34256e-05	649182.25	244634.23	-0.00040473224	244635.67	649181.06	-0.00038138233
0	0.6380957	0.6380937	-2.5237334e-10	0.05197238	0.05197238	0	99286.8	99286.51	-3.8062284e-05	649463.9	243868.53	-0.00029576587	243869.98	649462.75	-0.00010896638
0	0.63775074	0.6377489	-6.2351063e-10	0.051618703	0.051618703	0	99233.13	99232.84	-9.6885815e-05	649742.1	243107.5	-0.00054483186	243108.95	649740.94	-0.00036581568
0	0.6374022	0.6374002	-4.602102e-10	0.051265247	0.051265247	0	99178.88	99178.59	-7.266436e-05	650022.5	242339	-0.0003113325	242340.47	650021.4	-0.00029576587
0	0.6370506	0.63704884	-2.6721883e-10	0.05091177	0.05091177	0	99124.2	99123.91	-4.8442907e-05	650304.2	241565.28	-0.00023349938	241566.78	650303	-0.00016344957
0	0.63669485	0.636693	-1.1876393e-10	0.0505581	0.0505581	0	99068.836	99068.55	-1.384083e-05	650588.56	240782.8	-0.00015566625	240784.27	650587.4	8.561644e-05
0	0.63634086	0.63633895	-5.9381965e-11	0.050204646	0.050204646	0	99013.76	99013.45	-3.4602076e-06	650868.6	240006.98	-7.783312e-05	240008.52	650867.5	7.004981e-05
0	0.635981	0.63597906	4.453647e-11	0.04985097	0.04985097	0	98957.77	98957.46	1.0380623e-05	651152.44	239219.47	4.6699875e-05	239221.02	651151.1	3.891656e-05
0	0.63562006	0.63561815	-4.3051923e-10	0.049497508	0.049497508	0	98901.61	98901.3	-6.920415e-05	651436.2	238430.36	-0.0004202989	238431.9	651435	-0.0001867995
0	0.6352546	0.6352527	-5.047467e-10	0.0491439	0.0491439	0	98844.74	98844.43	-7.958477e-05	651721.4	237633.5	-0.00034246576	237635.05	651720.1	-0.000373599
0	0.63488907	0.6348871	-3.8598275e-10	0.048790433	0.048790433	0	98787.86	98787.55	-6.228374e-05	652006.06	236837.1	-0.00034246576	236838.66	652004.9	-0.00023349938
0	0.6345197	0.6345177	-4.0082826e-10	0.048436753	0.048436753	0	98730.4	98730.08	-5.882353e-05	652291.75	236034.36	-0.0004202989	236035.92	652290.56	-0.00011674969
0	0.6341482	0.63414615	-2.0783687e-10	0.04808329	0.04808329	0	98672.58	98672.26	-3.8062284e-05	652578	235227.83	-0.00021793276	235229.42	652576.8	-0.00011674969
0	0.63377386	0.6337718	-2.8206432e-10	0.04772963	0.04772963	0	98614.32	98614.016	-5.1903113e-05	652864.56	234417.12	-0.000249066	234418.72	652863.44	-0.0001867995
0	0.633397	0.63339496	-3.7113726e-10	0.047376156	0.047376156	0	98555.695	98555.38	-6.228374e-05	653152.06	233602.06	-0.00021793276	233603.69	653150.9	-0.00029576587
0	0.63301545	0.6330134	-8.907294e-11	0.047022674	0.047022674	0	98496.32	98496.016	-6.920415e-06	653442.56	232777.45	-0.00015566625	232779.11	653441.3	7.783313e-06
0	0.6326345	0.6326325	-1.7814589e-10	0.046669018	0.046669018	0	98437.055	98436.734	-2.768166e-05	653729	231957.66	-0.00029576587	231959.33	653727.75	3.113325e-05
0	0.6322485	0.6322465	-1.633004e-10	0.046315555	0.046315555	0	98376.99	98376.67	-2.0761247e-05	654018.9	231127.38	-0.00029576587	231129.05	654017.56	4.6699875e-05
0	0.63185996	0.6318578	-3.5629177e-10	0.045961883	0.045961883	0	98316.55	98316.2	-5.536332e-05	654309.25	230293.03	-0.000249066	230294.73	654308	-0.00029576587
0	0.6314676	0.63146544	2.5237334e-10	0.04560841	0.04560841	0	98255.48	98255.16	4.1522493e-05	654600.6	229452.33	0.0001867995	229454.02	654599.25	0.00022571607
0	0.63107353	0.6310714	-2.0783687e-10	0.04525482	0.04525482	0	98194.164	98193.836	-3.114187e-05	654891.75	228609.56	-9.339975e-05	228611.28	654890.4	-0.00014788294
0	0.6306761	0.6306739	-4.0082826e-10	0.044901337	0.044901337	0	98132.31	98131.984	-6.5743945e-05	655183.8	227760.86	-0.0003113325	227762.6	655182.6	-0.00031911582
0	0.6302769	0.6302748	-3.7113726e-10	0.04454768	0.04454768	0	98070.22	98069.88	-6.228374e-05	655476.3	226909.7	-0.00028019925	226911.44	655474.94	-0.00029576587
0	0.62987214	0.62987006	-4.602102e-10	0.04419421	0.04419421	0	98007.24	98006.914	-7.266436e-05	655771.5	226047.78	-0.0003113325	226049.55	655770.3	-0.00035024906
0	0.6294683	0.62946624	-2.0783687e-10	0.04384056	0.04384056	0	97944.414	97944.06	-3.4602075e-05	656063.06	225190.88	-0.0003113325	225192.62	656061.8	-7.783313e-06
0	0.62905866	0.62905645	-3.7113726e-10	0.043487065	0.043487065	0	97880.65	97880.31	-5.536332e-05	656357.75	224322.53	-0.00026463263	224324.31	656356.44	-0.00019458281
0	0.6286471	0.6286448	-1.633004e-10	0.043133583	0.043133583	0	97816.62	97816.28	-2.0761247e-05	656652.8	223451.28	-0.00015566625	223453.08	656651.56	-2.3349938e-05
0	0.6282314	0.62822914	-7.422745e-10	0.042779934	0.042779934	0	97751.93	97751.586	-0.00011072664	656948.7	222573.52	-0.00057596515	222575.3	656947.4	-0.00049034867
0	0.62781394	0.62781173	-3.1175532e-10	0.042426437	0.042426437	0	97686.98	97686.63	-4.49827e-05	657244.3	221693.39	-0.00023349938	221695.2	657243	-0.00017901619
0	0.6273908	0.62738854	-2.8206432e-10	0.042072807	0.042072807	0	97621.14	97620.78	-3.4602075e-05	657542.44	220802.86	-0.00026463263	220804.72	657541	-7.004981e-05
0	0.6269668	0.62696445	1.1876393e-10	0.04171931	0.04171931	0	97555.16	97554.805	1.384083e-05	657839.75	219911.84	-4.6699875e-05	219913.69	657838.3	0.00021014945
0	0.6265391	0.6265368	-8.907294e-11	0.041365743	0.041365743	0	97488.61	97488.26	-1.7301038e-05	658137.56	219015.31	-0.00010896638	219017.2	658136.2	-7.783313e-06
0	0.626107	0.6261048	1.484549e-10	0.041012246	0.041012246	0	97421.38	97421.02	1.7301038e-05	658437.94	218110.02	-1.5566626e-05	218111.95	658436.6	0.00024128269
0	0.62567395	0.6256716	-3.8598275e-10	0.040658608	0.040658608	0	97354.01	97353.65	-6.5743945e-05	658735.6	217206.1	-0.00034246576	217208	658734.3	-0.00028019925
0	0.6252365	0.62523425	-3.5629177e-10	0.040305126	0.040305126	0	97285.93	97285.586	-5.536332e-05	659035.3	216293.92	-0.00020236612	216295.83	659034	-0.00026463263
0	0.62479526	0.6247929	-8.4619295e-10	0.03995149	0.03995149	0	97217.28	97216.914	-0.00013148789	659335.8	215375.61	-0.0005136986	215377.55	659334.5	-0.00064601493
0	0.6243499	0.62434757	-1.9299137e-10	0.039597988	0.039597988	0	97147.98	97147.61	-3.114187e-05	659637.44	214450.39	-7.783312e-05	214452.34	659636.2	-0.00017123288
0	0.6239025	0.62390006	-4.4536472e-10	0.039244484	0.039244484	0	97078.36	97077.984	-6.920415e-05	659939.06	213522.4	-0.0003113325	213524.39	659937.6	-0.00026463263
0	0.6234503	0.62344784	-1.633004e-10	0.03889085	0.03889085	0	97007.99	97007.625	-2.768166e-05	660241.8	212586.53	-9.339975e-05	212588.52	660240.5	-0.00014009963
0	0.62299603	0.62299365	-3.414463e-10	0.03853734	0.03853734	0	96937.33	96936.95	-5.536332e-05	660544.4	211648.03	-0.00038916562	211650.06	660543.06	-0.00014788294
0	0.622537	0.62253463	-2.0783687e-10	0.03818373	0.03818373	0	96865.9	96865.516	-4.49827e-05	660848.1	210701.64	-0.00028019925	210703.67	660846.75	-3.891656e-05
0	0.6220751	0.62207276	-4.602102e-10	0.037830215	0.037830215	0	96794.03	96793.66	-6.228374e-05	661152.2	209750.92	-0.0004358655	209752.95	661150.9	-0.00017123288
0	0.6216095	0.621607	-3.266008e-10	0.037476584	0.037476584	0	96721.57	96721.2	-4.8442907e-05	661456.94	208794.23	-0.00021793276	208796.31	661455.6	-0.00019458281
0	0.62113965	0.6211372	-7.422745e-10	0.03712316	0.037123162	0	96648.48	96648.086	-0.00011418685	661762.4	207831.16	-0.00057596515	207833.23	661760.94	-0.00047478208
0	0.62066686	0.6206645	-2.969098e-10	0.03676954	0.036769543	0	96574.91	96574.52	-4.8442907e-05	662068.3	206863.28	-0.00040473224	206865.38	662066.94	-9.339975e-05
0	0.62018895	0.6201865	7.422745e-11	0.036416043	0.036416043	0	96500.53	96500.15	6.920415e-06	662375.4	205886.97	-6.22665e-05	205889.06	662374	0.0001867995
0	0.6197081	0.6197057	-2.3752786e-10	0.036062416	0.036062416	0	96425.734	96425.35	-3.8062284e-05	662682.3	204906.95	-0.00026463263	204909.08	662681	-3.113325e-05
0	0.619224	0.6192215	-2.9690982e-11	0.035708897	0.0357089	0	96350.4	96350	-6.920415e-06	662990	203921.4	-9.339975e-05	203923.55	662988.7	2.3349938e-05
0	0.61873573	0.6187332	-2.969098e-10	0.035355378	0.035355378	0	96274.42	96274.03	-3.8062284e-05	663298.1	202929.83	-0.00028019925	202932	663296.7	-0.00010118306
0	0.6182431	0.6182406	-1.3360942e-10	0.03500176	0.03500176	0	96197.77	96197.4	-1.0380623e-05	663607.1	201931.2	-0.00021793276	201933.38	663605.75	0.00010118306
0	0.6177463	0.6177438	-2.9690982e-11	0.03464824	0.03464824	0	96120.48	96120.08	-1.0380623e-05	663916.7	200926.03	3.113325e-05	200928.22	663915.3	-7.783313e-06
0	0.61724585	0.61724335	-8.907294e-11	0.034294643	0.034294643	0	96042.6	96042.21	-1.384083e-05	664226.9	199915.1	-0.00014009963	199917.28	664225.5	-1.5566626e-05
0	0.6167412	0.6167386	-4.3051923e-10	0.033941116	0.033941116	0	95964.07	95963.664	-7.266436e-05	664537.5	198897.97	-0.00035803238	198900.19	664536	-0.00024128269
0	0.6162321	0.6162296	-1.4845491e-11	0.033587504	0.033587508	0	95884.87	95884.47	0	664848.75	197874	-0.00017123288	197876.23	664847.4	0.00015566625
0	0.6157189	0.61571634	-5.7897415e-10	0.03323407	0.03323407	0	95805.016	95804.61	-9.34256e-05	665160.8	196843.4	-0.000566236	196845.66	665159.44	-0.00024128269
0	0.6152024	0.61519986	-2.3752786e-10	0.03288047	0.03288047	0	95724.66	95724.24	-3.8062284e-05	665472.75	195808.45	-0.00015566625	195810.72	665471.3	-0.00023349938
0	0.6146807	0.614678	-1.3360942e-10	0.032526955	0.032526955	0	95643.45	95643.06	-2.4221454e-05	665785.75	194764.89	-0.00017123288	194767.19	665784.4	-2.3349938e-05
0	0.61415535	0.6141527	-1.1876393e-10	0.032173354	0.032173358	0	95561.73	95561.32	-1.384083e-05	666098.9	193716.34	-0.00010896638	193718.66	666097.5	-0.00010896638
0	0.6136245	0.61362183	-6.383561e-10	0.03181982	0.03181982	0	95479.125	95478.72	-0.00010034602	666413	192658.98	-0.00054483186	192661.31	666411.6	-0.00035803238
0	0.61309004	0.61308736	-6.6804706e-10	0.03146627	0.03146627	0	95395.95	95395.54	-0.00010034602	666727.7	191596.02	-0.0006537983	191598.34	666726.25	-0.00026463263
0	0.61254984	0.61254716	-2.2268236e-10	0.031112673	0.031112673	0	95311.91	95311.5	-2.768166e-05	667044	190523.4	-0.00014009963	190525.78	667042.6	-0.00010118306
0	0.61200714	0.61200446	-5.3443766e-10	0.030759128	0.030759128	0	95227.46	95227.05	-8.650519e-05	667358.2	189449.36	-0.00045143213	189451.77	667356.94	-0.00033468244
0	0.6114589	0.61145633	-6.9773803e-10	0.030405568	0.030405568	0	95142.164	95141.75	-0.000103806226	667674.1	188365.92	-0.00045143213	188368.33	667672.8	-0.0005136986
0	0.6109059	0.6109032	-5.938196e-10	0.030052012	0.030052012	0	95056.11	95055.7	-9.34256e-05	667990.9	187274.98	-0.00038916562	187277.38	667989.5	-0.0004358655
0	0.6103479	0.6103453	7.422745e-11	0.029698431	0.029698431	0	94969.3	94968.87	6.920415e-06	668308.06	186176.64	-0.00010896638	186179.06	668306.6	0.00017123288
0	0.60978556	0.6097829	0	0.02934498	0.029344976	0	94881.79	94881.36	0	668625.7	185071.61	0	185074.06	668624.4	3.113325e-05
0	0.609218	0.6092153	-7.422745e-11	0.028991407	0.028991407	0	94793.48	94793.06	-1.0380623e-05	668944	183958.77	-6.22665e-05	183961.19	668942.6	-2.3349938e-05
0	0.6086455	0.6086428	-7.86811e-10	0.028637841	0.028637841	0	94704.41	94703.98	-0.00012456748	669262.7	182838.61	-0.0006070984	182841.06	669261.25	-0.0005526152
0	0.60806715	0.6080645	-2.6721883e-10	0.028284302	0.028284302	0	94614.42	94613.984	-4.1522493e-05	669582.25	181709.36	-0.00020236612	181711.81	669581	-0.00016344957
0	0.60748565	0.6074829	8.907294e-11	0.02793073	0.02793073	0	94523.94	94523.51	1.384083e-05	669901.7	180575.86	0	180578.34	669900.4	0.00013231632
0	0.60689646	0.6068937	-7.422745e-11	0.027577164	0.027577164	0	94432.24	94431.82	-6.920415e-06	670223.56	179428.95	-0.0001867995	179431.47	670222.3	8.561644e-05
0	0.60630363	0.60630083	-3.7113726e-10	0.02722359	0.02722359	0	94340	94339.57	-5.536332e-05	670544.2	178278.25	-0.00038916562	178280.8	670542.94	-0.00017123288
0	0.60570663	0.6057039	1.1876393e-10	0.026870025	0.026870025	0	94247.12	94246.69	1.384083e-05	670864.2	177122.64	7.783312e-05	177125.14	670862.8	6.22665e-05
0	0.60510325	0.6051005	-1.3360942e-10	0.026516486	0.026516486	0	94153.23	94152.8	-1.7301038e-05	671185.5	175956.45	-9.339975e-05	175959	671184.2	-6.22665e-05
0	0.6044939	0.6044911	-1.1876393e-10	0.026162913	0.026162913	0	94058.42	94057.98	-1.384083e-05	671508.1	174780.77	-0.00026463263	174783.33	671506.8	0.00010896638
0	0.6038802	0.6038774	-4.0082826e-10	0.025809351	0.025809351	0	93962.92	93962.49	-5.1903113e-05	671830.1	173599.6	-0.00045143213	173602.19	671828.8	-8.561644e-05
0	0.6032599	0.60325706	-4.0082826e-10	0.025455885	0.025455885	0	93866.414	93865.98	-6.920415e-05	672153.2	172408.1	-0.00036581568	172410.67	672152	-0.00023349938
0	0.6026346	0.6026318	-6.383561e-10	0.025102323	0.025102321	0	93769.11	93768.68	-9.6885815e-05	672476.5	171209.36	-0.00059153175	171211.98	672475.1	-0.0003113325
0	0.6020014	0.6019987	-4.0082826e-10	0.024748754	0.024748754	0	93670.586	93670.164	-6.228374e-05	672802.06	169997.3	-0.00040473224	169999.9	672800.75	-0.00021014945
0	0.60136586	0.60136306	-4.602102e-10	0.024395216	0.024395216	0	93571.695	93571.26	-7.266436e-05	673124.8	168784.78	-0.00034246576	168787.44	673123.44	-0.0003113325
0	0.6007218	0.6007189	-3.8598275e-10	0.024041645	0.024041645	0	93471.484	93471.05	-4.8442907e-05	673449.94	167557.89	-0.00034246576	167560.56	673448.56	-0.00014009963
0	0.6000735	0.6000707	-3.5629177e-10	0.023688078	0.023688078	0	93370.61	93370.18	-5.882353e-05	673774.56	166325.69	-0.00059153175	166328.31	673773.3	1.5566626e-05
0	0.59941596	0.5994131	-3.7113726e-10	0.023334509	0.023334509	0	93268.29	93267.84	-4.8442907e-05	674102	165077.64	-0.000249066	165080.31	674100.7	-0.00028019925
0	0.5987567	0.59875387	-5.3443766e-10	0.022980941	0.022980941	0	93165.72	93165.28	-8.3044986e-05	674426.1	163830.6	-0.000373599	163833.3	674424.75	-0.00036581568
0	0.59808856	0.5980857	-5.1959215e-10	0.02262741	0.02262741	0	93061.76	93061.32	-7.612457e-05	674752.6	162568.67	-0.00034246576	162571.33	674751.4	-0.00036581568
0	0.597415	0.5974121	-7.422745e-11	0.02227384	0.02227384	0	92956.94	92956.484	-6.920415e-06	675079	161299.19	-0.00021793276	161301.89	675077.7	8.561644e-05
0	0.59673434	0.5967315	-3.8598275e-10	0.02192028	0.02192028	0	92851.03	92850.59	-5.1903113e-05	675405.8	160019.62	-0.00052926526	160022.33	675404.44	-1.5566626e-05
0	0.59604716	0.5960443	-2.969098e-10	0.021566791	0.021566791	0	92744.1	92743.664	-4.8442907e-05	675733.1	158730.11	-0.0001867995	158732.83	675731.9	-0.00026463263
0	0.5953531	0.5953503	-4.1567375e-10	0.021213219	0.021213219	0	92636.125	92635.69	-5.882353e-05	676061	157430.75	-0.00035803238	157433.47	676059.75	-0.00027241593
0	0.59465325	0.59465045	-5.047467e-10	0.020859655	0.020859655	0	92527.23	92526.77	-7.958477e-05	676388.25	156123.55	-0.0003113325	156126.27	676387.06	-0.00041251557
0	0.5939452	0.59394234	-2.6721883e-10	0.020506123	0.020506123	0	92417.05	92416.61	-4.1522493e-05	676716.9	154803.61	-0.00020236612	154806.36	676715.7	-0.00022571607
0	0.5932311	0.5932282	-5.047467e-10	0.020152563	0.020152563	0	92305.92	92305.484	-7.958477e-05	677045.06	153475.58	-0.00046699875	153478.31	677043.9	-0.00023349938
0	0.5925091	0.5925063	-8.016565e-10	0.019798994	0.019798994	0	92193.59	92193.164	-0.00012802768	677374	152135.94	-0.00076276466	152138.69	677372.8	-0.00041251557
0	0.5917804	0.59177756	-1.1876393e-10	0.019445425	0.019445425	0	92080.195	92079.76	-1.7301038e-05	677703	150786.72	-0.00014009963	150789.48	677701.8	-4.6699875e-05
0	0.59104437	0.5910415	-6.2351063e-10	0.019091865	0.019091865	0	91965.69	91965.25	-9.34256e-05	678032	149427.34	-0.00054483186	149430.1	678030.8	-0.00032689914
0	0.59030074	0.59029794	-3.7113726e-10	0.018738292	0.018738292	0	91849.97	91849.53	-5.1903113e-05	678361.4	148056.84	-0.00021793276	148059.61	678360.25	-0.00028019925
0	0.58954954	0.58954674	-1.7814589e-10	0.01838477	0.018384771	0	91733.09	91732.66	-2.4221454e-05	678690.8	146675.78	-0.00015566625	146678.55	678689.6	-6.22665e-05
0	0.58878887	0.58878607	0	0.018031208	0.018031208	0	91614.734	91614.3	-3.4602076e-06	679022	145279.6	3.113325e-05	145282.39	679020.9	0
0	0.5880236	0.58802086	-7.5712003e-10	0.017677689	0.017677689	0	91495.664	91495.22	-0.00011764706	679350.44	143879.83	-0.00049034867	143882.6	679349.4	-0.00057596515
0	0.5872472	0.5872444	-2.969098e-10	0.017324118	0.017324118	0	91374.836	91374.414	-4.1522493e-05	679681.75	142461.39	-0.00034246576	142464.16	679680.7	-3.113325e-05
0	0.58646387	0.5864612	-8.907294e-11	0.016970558	0.01697056	0	91252.98	91252.55	-8.650519e-06	680011.94	141034.77	-0.00010896638	141037.55	680010.8	0
0	0.5856745	0.5856718	-7.422746e-12	0.016617035	0.016617035	0	91130.13	91129.71	-5.1903116e-06	680340.7	139600.89	-7.004981e-05	139603.67	680339.6	6.22665e-05
0	0.584873	0.5848703	-2.5237334e-10	0.016263478	0.016263476	0	91005.43	91005.016	-3.9792387e-05	680672.1	138147.28	-0.00022571607	138150.05	680671.2	-0.00015566625
0	0.58406633	0.5840637	-3.5629177e-10	0.01590991	0.01590991	0	90879.92	90879.5	-5.7093424e-05	681001.06	136689.08	-0.00038916562	136691.86	681000.06	-0.00015566625
0	0.5832497	0.58324695	-3.1175532e-10	0.015556336	0.015556336	0	90752.836	90752.42	-4.8442907e-05	681331.06	135215.72	-0.00036581568	135218.48	681330.06	-9.339975e-05
0	0.5824232	0.5824205	-5.3443766e-10	0.015202784	0.015202784	0	90624.26	90623.83	-8.4775085e-05	681661.5	133728.3	-0.00041251557	133731.03	681660.5	-0.00035803238
0	0.5815865	0.58158386	-2.0783687e-10	0.014849216	0.014849216	0	90494.055	90493.63	-3.633218e-05	681992.94	132225.45	-9.339975e-05	132228.2	681991.94	-0.00020236612
0	0.5807441	0.5807414	-3.5629177e-10	0.014495703	0.014495703	0	90362.98	90362.555	-5.363322e-05	682321.5	130717.51	-7.783312e-05	130720.26	682320.5	-0.0004202989
0	0.5798903	0.5798877	-1.03918436e-10	0.014142151	0.014142151	0	90230.13	90229.72	-1.5570935e-05	682651.4	129192.336	-0.00027241593	129195.06	682650.44	0.00015566625
0	0.5790275	0.57902485	-1.7814589e-10	0.013788582	0.013788582	0	90095.875	90095.46	-2.4221454e-05	682980.7	127654.984	-0.00027241593	127657.73	682979.8	1.5566626e-05
0	0.5781539	0.5781512	-5.492832e-10	0.013435013	0.013435013	0	89959.94	89959.53	-7.958477e-05	683310.56	126102.15	-0.000498132	126104.875	683309.56	-0.000249066
0	0.57727116	0.57726854	-1.1134118e-10	0.013081457	0.013081457	0	89822.586	89822.19	-1.5570935e-05	683639.56	124537.3	-0.0001867995	124540.01	683638.7	3.113325e-05
0	0.5763776	0.57637495	-2.0783687e-10	0.012727942	0.012727942	0	89683.55	89683.16	-3.2871973e-05	683968.7	122957.23	-0.00014788294	122959.92	683967.8	-0.000124533
0	0.5754721	0.5754696	-2.2268236e-10	0.012374377	0.012374377	0	89542.67	89542.27	-3.4602075e-05	684298.5	121359.766	-0.00033468244	121362.45	684297.56	-3.113325e-05
0	0.5745595	0.57455707	-2.0783687e-10	0.012020823	0.012020823	0	89400.68	89400.28	-3.9792387e-05	684625.5	119755.125	-0.000373599	119757.805	684624.75	1.5566626e-05
0	0.5736345	0.57363194	-1.03918436e-10	0.011667254	0.011667254	0	89256.72	89256.34	-1.0380623e-05	684953.44	118132.16	-0.00021014945	118134.81	684952.56	9.339975e-05
0	0.57269585	0.5726934	-5.9381965e-11	0.011313705	0.011313705	0	89110.68	89110.305	-5.1903116e-06	685281.4	116490.18	-0.00033468244	116492.8	685280.56	0.00026463263
0	0.5717507	0.57174826	-2.0783687e-10	0.01096014	0.01096014	0	88963.62	88963.234	-3.4602075e-05	685607.7	114840.72	-0.00032689914	114843.31	685606.9	1.5566626e-05
0	0.5707919	0.5707895	-3.414463e-10	0.010606609	0.010606609	0	88814.43	88814.06	-5.017301e-05	685933.9	113172.26	-0.00014788294	113174.85	685933	-0.00035803238
0	0.569821	0.5698186	-3.8598275e-10	0.010253062	0.010253062	0	88663.35	88662.984	-5.7093424e-05	686259.44	111487.29	-0.00035024906	111489.87	686258.75	-0.000249066
0	0.56883854	0.5688362	-3.8598275e-10	0.009899497	0.009899497	0	88510.484	88510.14	-6.228374e-05	686584.4	109787.12	-0.00028798258	109789.63	686583.56	-0.000249066
0	0.5678435	0.56784123	-1.484549e-10	0.0095459325	0.0095459325	0	88355.67	88355.31	-2.768166e-05	686908.56	108069.92	-0.00026463263	108072.43	686907.9	3.113325e-05
0	0.5668363	0.56683403	-5.3443766e-10	0.009192386	0.009192386	0	88198.94	88198.59	-8.3044986e-05	687231.7	106336.63	-0.00076276466	106339.11	687231	-4.6699875e-05
0	0.56581503	0.5658128	-4.750557e-10	0.0088388445	0.0088388445	0	88040.04	88039.695	-7.612457e-05	687554.3	104584.27	-0.00028019925	104586.71	687553.6	-0.000373599
0	0.56478256	0.5647804	-7.422745e-11	0.008485279	0.008485279	0	87879.38	87879.05	-1.2110727e-05	687875.56	102817.67	0.00015566625	102820.086	687874.9	-0.00020236612
0	0.5637355	0.56373334	8.16502e-11	0.008131739	0.008131739	0	87716.46	87716.125	1.2110727e-05	688196	101031.38	-0.0002568493	101033.74	688195.3	0.000373599
0	0.56267494	0.5626728	-3.266008e-10	0.007778168	0.007778168	0	87551.43	87551.125	-5.363322e-05	688515	99227.516	-0.0003113325	99229.84	688514.44	-0.00015566625
0	0.5616	0.56159806	-2.3752786e-10	0.007424608	0.007424608	0	87384.195	87383.89	-3.2871973e-05	688833.6	97404.12	-0.00033468244	97406.44	688833.1	4.6699875e-05
0	0.5605112	0.56050915	-4.4536472e-10	0.0070710755	0.0070710755	0	87214.766	87214.45	-6.747405e-05	689149.7	95563.62	-0.000249066	95565.9	689149.2	-0.000373599
0	0.5594071	0.5594052	-1.484549e-10	0.0067175063	0.0067175063	0	87042.98	87042.664	-2.768166e-05	689465.06	93702.64	-0.0004202989	93704.84	689464.56	0.0001867995
0	0.55828804	0.55828613	-2.5237334e-10	0.006363971	0.006363971	0	86868.84	86868.55	-3.4602075e-05	689778.75	91822.25	-0.00026463263	91824.43	689778.4	-3.113325e-05
0	0.5571534	0.5571517	-2.969098e-10	0.0060104113	0.0060104113	0	86692.305	86692.016	-4.3252596e-05	690091	89921.67	-0.00035803238	89923.81	690090.6	-3.113325e-05