//mumax 3.10 [windows_amd64 go1.11.6(gc) CUDA-11.0]
//GPU info: NVIDIA GeForce RTX 3090(24575MB), CUDA Driver 12.0, cc=8.6, using cc=80 PTX
//(c) Arne Vansteenkiste, Dynamat LAB, Ghent University, Belgium
//This is free software without any warranty. See license.txt
//********************************************************************//
//  If you use mumax in any work or publication,                      //
//  we kindly ask you to cite the references in references.bib        //
//********************************************************************//
//output directory: r1;p0.1;a3.2e-07;l2.3000000000000002e-07;s0.out/
randSeed(0)
ThermSeed(0)
resolution := 2e-09
zResolution := 5e-09
a := 3.2e-07
gridSize := 320
gridDepth := 5
SetCellsize(resolution, resolution, zResolution)
SetGridsize(gridSize, gridSize, gridDepth)
SetPBC(16, 16, 0)
//resizing...
Msat = 700e3
Aex = 13e-12
alpha = 0.2
Bmax := 0.1
Bstep := Bmax / 500.0
TableAdd(B_ext)
TableAdd(m_full)
islandWidth := 8e-08
islandLength := 2.3000000000000002e-07
ellipseConstant := 1.1500000000000002e-08
hIsland := rect(islandLength-2*ellipseConstant, islandWidth)
hIsland = hIsland.add(ellipse(ellipseConstant*2, islandWidth).transl(islandLength/2-ellipseConstant, 0, 0))
hIsland = hIsland.add(ellipse(ellipseConstant*2, islandWidth).transl(-islandLength/2+ellipseConstant, 0, 0))
hIsland = hIsland.add(rect(1e-08, 3.949912900751584e-09).transl(7.529844333973847e-09, -4e-08, 0))
hIsland = hIsland.add(rect(1e-08, 1.664449942554988e-10).transl(4.494431381110179e-08, -4e-08, 0))
hIsland = hIsland.sub(rect(1e-08, -4.005643018574195e-09).transl(-2.4163554532916378e-08, -4e-08, 0))
hIsland = hIsland.add(rect(1e-08, 5.477868660517008e-09).transl(2.5302911119484737e-08, -4e-08, 0))
hIsland = hIsland.add(rect(1e-08, 2.0772626482396686e-09).transl(4.596792912814482e-08, -4e-08, 0))
hIsland = hIsland.sub(rect(1e-08, -8.863410792186687e-10).transl(1.8692090070943643e-08, -4e-08, 0))
hIsland = hIsland.add(rect(1e-08, 8.121268869863643e-11).transl(9.766501190962655e-08, -4e-08, 0))
hIsland = hIsland.add(rect(1e-08, 4.226999369292073e-09).transl(-2.684737890364275e-08, -4e-08, 0))
hIsland = hIsland.sub(rect(1e-08, -7.050342067576072e-09).transl(-8.428065251492408e-08, -4e-08, 0))
hIsland = hIsland.add(rect(1e-08, 1.09886793617204e-09).transl(8.570561016584982e-08, -4e-08, 0))
hIsland = hIsland.sub(rect(1e-08, -3.152234122686383e-10).transl(9.103359609447878e-08, -4e-08, 0))
hIsland = hIsland.sub(rect(1e-08, -7.05955913078708e-09).transl(4.7635710953667114e-08, -4e-08, 0))
hIsland = hIsland.add(rect(1e-08, 5.108807039838841e-09).transl(2.114724713421276e-09, -4e-08, 0))
hIsland = hIsland.sub(rect(1e-08, -1.1029573256435625e-09).transl(1.129739706517867e-07, -2.2673853956742393e-08, 0))
hIsland = hIsland.add(rect(1e-08, 2.6120474817874718e-09).transl(-1.0970886115979616e-07, -3.366914176851488e-08, 0))
hIsland = hIsland.sub(rect(1e-08, -1.7622982471369253e-09).transl(6.948786436572678e-08, -4e-08, 0))
hIsland = hIsland.add(rect(1e-08, 1.2045760693029717e-10).transl(7.528615290158708e-08, -4e-08, 0))
hIsland = hIsland.sub(rect(1e-08, -4.2063222234599665e-10).transl(1.782098341455995e-08, -4e-08, 0))
hIsland = hIsland.add(rect(1e-08, 2.212265384516415e-09).transl(-2.320955968622326e-08, -4e-08, 0))
hIsland = hIsland.sub(rect(1e-08, -2.9032158493952505e-09).transl(-4.659127651052946e-08, -4e-08, 0))
hIsland = hIsland.add(rect(1e-08, 2.0974811023558054e-09).transl(8.754916305834947e-08, -4e-08, 0))
hIsland = hIsland.add(rect(1e-08, 2.5612266913781406e-09).transl(-8.233446065766259e-08, -4e-08, 0))
hIsland = hIsland.add(rect(1e-08, 4.627364862287087e-10).transl(-7.690499071890012e-08, -4e-08, 0))
hIsland = hIsland.sub(rect(1e-08, -3.105254729196411e-09).transl(-1.0766043415271351e-08, -4e-08, 0))
hIsland = hIsland.add(rect(1e-08, 3.669103912667596e-09).transl(6.282889784399256e-08, -4e-08, 0))
hIsland = hIsland.sub(rect(1e-08, -5.330823786335249e-09).transl(-8.215792643083067e-08, -4e-08, 0))
hIsland = hIsland.add(rect(1e-08, 4.662136546405767e-09).transl(1.0587063734833964e-07, -3.9140880315996534e-08, 0))
hIsland = hIsland.sub(rect(1e-08, -2.5087733741816086e-09).transl(1.0996060799139578e-07, -3.309114079814496e-08, 0))
hIsland = hIsland.add(rect(1e-08, 4.733818674960178e-09).transl(1.0208220118302507e-07, -4e-08, 0))
hIsland = hIsland.sub(rect(1e-08, -1.2177365180805148e-09).transl(8.768722980664948e-08, -4e-08, 0))
hIsland = hIsland.sub(rect(1e-08, -5.94423757646249e-09).transl(9.559806950936839e-08, -4e-08, 0))
hIsland = hIsland.add(rect(1e-08, 6.115680634316049e-10).transl(7.720557317817473e-08, -4e-08, 0))
hIsland = hIsland.add(rect(1e-08, 2.6544212360273482e-09).transl(9.996676419375537e-08, -4e-08, 0))
hIsland = hIsland.add(rect(1e-08, 1.2916460935867787e-09).transl(3.041424877949252e-08, -4e-08, 0))
hIsland = hIsland.add(rect(1e-08, 1.9382838270521028e-09).transl(-3.2141547574251766e-08, -4e-08, 0))
hIsland = hIsland.sub(rect(1e-08, -2.2252943563735325e-09).transl(-1.0572632826232793e-07, -3.9243271124355885e-08, 0))
hIsland = hIsland.add(rect(1e-08, 2.857359280468371e-09).transl(1.0372221565177138e-08, -4e-08, 0))
hIsland = hIsland.sub(rect(1e-08, -1.557696208539469e-09).transl(-8.087866916507851e-08, -4e-08, 0))
hIsland = hIsland.add(rect(1e-08, 5.68500851923246e-12).transl(1.7157096342346342e-08, -4e-08, 0))
hIsland = hIsland.sub(rect(1e-08, -5.4938907994328595e-09).transl(1.1456777600748415e-07, -1.0863279851272295e-08, 0))
hIsland = hIsland.sub(rect(1e-08, -3.2179241215351047e-09).transl(-8.693322423107393e-08, -4e-08, 0))
hIsland = hIsland.add(rect(1e-08, 1.989842626869984e-09).transl(2.2568527616618333e-08, -4e-08, 0))
hIsland = hIsland.add(rect(1e-08, 8.587052685779491e-09).transl(1.004499499013055e-07, -4e-08, 0))
hIsland = hIsland.add(rect(1e-08, 3.3062852955774862e-09).transl(-8.50270072069961e-08, -4e-08, 0))
hIsland = hIsland.sub(rect(1e-08, -1.892353194895275e-09).transl(-2.5887346244146695e-08, -4e-08, 0))
hIsland = hIsland.add(rect(1e-08, 3.679830278516919e-09).transl(2.439282346416089e-08, -4e-08, 0))
hIsland = hIsland.add(rect(1e-08, 3.0350864547257327e-09).transl(-1.87137641185167e-08, -4e-08, 0))
hIsland = hIsland.add(rect(1e-08, 3.0917675575602393e-09).transl(-6.251217541875059e-08, -4e-08, 0))
hIsland = hIsland.sub(rect(1e-08, -5.230928799730131e-10).transl(-5.7214615366402544e-08, -4e-08, 0))
hIsland = hIsland.add(rect(1e-08, 3.886637180197495e-09).transl(6.134017591494272e-08, -4e-08, 0))
hIsland = hIsland.sub(rect(1e-08, -1.602843674827383e-09).transl(6.626926629326283e-08, -4e-08, 0))
hIsland = hIsland.sub(rect(1e-08, -1.8655597852117377e-10).transl(3.6662727124796704e-08, -4e-08, 0))
hIsland = hIsland.add(rect(1e-08, 7.382133911954872e-10).transl(3.4389242406630536e-08, -4e-08, 0))
hIsland = hIsland.add(rect(1e-08, 5.30704696915547e-09).transl(3.397405539076028e-09, -4e-08, 0))
hIsland = hIsland.add(rect(1e-08, 5.586481336908985e-09).transl(-2.4840303618927018e-08, -4e-08, 0))
hIsland = hIsland.sub(rect(1e-08, -6.542615464600208e-09).transl(-9.214461742111774e-08, -4e-08, 0))
hIsland = hIsland.sub(rect(1e-08, -1.4576428860431158e-09).transl(7.4599470008432e-08, -4e-08, 0))
hIsland = hIsland.add(rect(1e-08, 1.2894245730291076e-08).transl(9.389374097320379e-08, -4e-08, 0))
hIsland = hIsland.add(rect(1e-08, 2.46273676565984e-09).transl(9.178361689179576e-08, -4e-08, 0))
hIsland = hIsland.add(rect(1e-08, 1.4996078510037772e-09).transl(-1.6410896798694346e-08, -4e-08, 0))
hIsland = hIsland.sub(rect(1e-08, -1.0906356765427844e-09).transl(9.00116221535603e-08, -4e-08, 0))
hIsland = hIsland.add(rect(1e-08, 3.3304979714803003e-10).transl(-5.7684667240366305e-08, -4e-08, 0))
hIsland = hIsland.sub(rect(1e-08, -1.8259350403223277e-09).transl(-1.7822023076443257e-09, -4e-08, 0))
hIsland = hIsland.sub(rect(1e-08, -1.5977887340788616e-09).transl(-4.982655834304039e-08, -4e-08, 0))
hIsland = hIsland.sub(rect(1e-08, -3.342060944310971e-09).transl(4.729597237026622e-08, -4e-08, 0))
hIsland = hIsland.add(rect(1e-08, 3.0236218855042278e-09).transl(1.1198663809890046e-07, -2.6993405068024927e-08, 0))
hIsland = hIsland.add(rect(1e-08, 3.798961881902844e-09).transl(-6.696750772126508e-08, -4e-08, 0))
hIsland = hIsland.add(rect(1e-08, 2.6607587210949517e-09).transl(-2.5658193451695634e-08, -4e-08, 0))
hIsland = hIsland.sub(rect(1e-08, -3.034841498363147e-09).transl(9.299479522012437e-08, -4e-08, 0))
hIsland = hIsland.sub(rect(1e-08, -3.1103922944357727e-09).transl(1.7406324011111062e-08, -4e-08, 0))
hIsland = hIsland.sub(rect(1e-08, -5.945656382193124e-09).transl(8.553677748969152e-08, -4e-08, 0))
hIsland = hIsland.sub(rect(1e-08, -3.6168115135081147e-09).transl(4.59403710100416e-08, -4e-08, 0))
hIsland = hIsland.add(rect(1e-08, 3.563866736416909e-09).transl(-1.5531267499176048e-08, -4e-08, 0))
hIsland = hIsland.add(rect(1e-08, 1.7207851195648875e-09).transl(-9.949053718664637e-08, -4e-08, 0))
hIsland = hIsland.sub(rect(1e-08, -7.08381963070624e-09).transl(1.0918756522322878e-07, -3.476549175897454e-08, 0))
hIsland = hIsland.sub(rect(1e-08, -2.2306604943135967e-10).transl(-2.906808639336152e-08, -4e-08, 0))
hIsland = hIsland.add(rect(1e-08, 1.7636166617640094e-09).transl(-1.1927011211751578e-08, -4e-08, 0))
hIsland = hIsland.add(rect(1e-08, 7.172916992820949e-10).transl(1.1077400961737152e-07, -3.098167694827339e-08, 0))
hIsland = hIsland.add(rect(1e-08, 4.974082229660362e-10).transl(-6.47565090676399e-08, -4e-08, 0))
hIsland = hIsland.sub(rect(1e-08, -6.411116040733567e-10).transl(-7.193247024634153e-08, -4e-08, 0))
hIsland = hIsland.sub(rect(1e-08, -3.06882524916862e-09).transl(-1.0759008519531949e-07, -3.738462275509794e-08, 0))
hIsland = hIsland.sub(rect(1e-08, -5.289578114771099e-09).transl(-1.5490866328090886e-08, -4e-08, 0))
hIsland = hIsland.add(rect(1e-08, 9.794988533674196e-09).transl(-8.196838753548402e-08, -4e-08, 0))
hIsland = hIsland.sub(rect(1e-08, -4.001511842814467e-09).transl(-1.1029250275796839e-07, -3.227704388316594e-08, 0))
hIsland = hIsland.sub(rect(1e-08, -7.75684655765471e-10).transl(-2.0360219806828904e-09, -4e-08, 0))
hIsland = hIsland.sub(rect(1e-08, -3.15020759668473e-11).transl(-8.784483546211317e-08, -4e-08, 0))
hIsland = hIsland.sub(rect(1e-08, -3.588106619121914e-09).transl(-1.0475762328689787e-07, -3.976009473362069e-08, 0))
hIsland = hIsland.sub(rect(1e-08, -3.257138366467424e-09).transl(-6.8698527173488e-08, -4e-08, 0))
hIsland = hIsland.sub(rect(1e-08, -6.505485038359401e-09).transl(1.1303586338460189e-07, -2.2357753710383697e-08, 0))
hIsland = hIsland.add(rect(1e-08, 2.4063371945052552e-09).transl(-2.9704238350458217e-08, -4e-08, 0))
hIsland = hIsland.sub(rect(1e-08, -5.2957131626993874e-09).transl(1.0122608351498512e-07, -4e-08, 0))
hIsland = hIsland.add(rect(1e-08, 1.0332263698600853e-10).transl(2.1734968400598666e-08, -4e-08, 0))
hIsland = hIsland.add(rect(1e-08, 5.583114277964571e-09).transl(4.9230871615689755e-08, -4e-08, 0))
hIsland = hIsland.sub(rect(1e-08, -5.334412224949849e-10).transl(-7.584783435173579e-08, -4e-08, 0))
hIsland = hIsland.add(rect(1e-08, 2.8175710930726115e-09).transl(4.3962957318298184e-08, -4e-08, 0))
hIsland = hIsland.add(rect(1e-08, 1.2628203270848733e-09).transl(-7.272603765763097e-08, -4e-08, 0))
hIsland = hIsland.add(rect(1e-08, 3.4191184255670873e-09).transl(-5.194180854694132e-08, -4e-08, 0))
hIsland = hIsland.add(rect(1e-08, 2.903356546956076e-09).transl(-4.1856179944767263e-08, -4e-08, 0))
hIsland = hIsland.sub(rect(1e-08, -3.208920075870759e-09).transl(-4.5393054603826295e-08, -4e-08, 0))
hIsland = hIsland.sub(rect(1e-08, -3.375990597267203e-10).transl(-1.0646525322074594e-07, -3.864741862849667e-08, 0))
hIsland = hIsland.sub(rect(1e-08, -3.047905503633444e-10).transl(-1.0091500575495191e-07, 4e-08, 0))
hIsland = hIsland.add(rect(1e-08, 8.506915074507499e-10).transl(1.1130002221087798e-07, 2.9392776605227562e-08, 0))
hIsland = hIsland.add(rect(1e-08, 6.014360044477896e-09).transl(9.181850251259197e-08, 4e-08, 0))
hIsland = hIsland.sub(rect(1e-08, -9.6973502002028e-10).transl(-4.47278994590875e-09, 4e-08, 0))
hIsland = hIsland.sub(rect(1e-08, -2.919924206163547e-09).transl(1.069679551676661e-07, 3.8137871381118586e-08, 0))
hIsland = hIsland.add(rect(1e-08, 4.483825174628202e-10).transl(1.0967788983207435e-07, 3.373799679364006e-08, 0))
hIsland = hIsland.sub(rect(1e-08, -5.886890021315669e-09).transl(-1.0153478376481069e-07, 4e-08, 0))
hIsland = hIsland.add(rect(1e-08, 4.19914499520451e-09).transl(4.297835398018916e-08, 4e-08, 0))
hIsland = hIsland.sub(rect(1e-08, -1.405477034524645e-09).transl(-8.024345409857681e-08, 4e-08, 0))
hIsland = hIsland.sub(rect(1e-08, -7.920900645332518e-09).transl(-3.433676898333912e-08, 4e-08, 0))
hIsland = hIsland.add(rect(1e-08, 5.487212326958516e-09).transl(9.235832318821233e-09, 4e-08, 0))
hIsland = hIsland.add(rect(1e-08, 4.1237273883490736e-09).transl(-3.435241954355846e-08, 4e-08, 0))
hIsland = hIsland.sub(rect(1e-08, -1.0255687087338475e-09).transl(8.917399589338848e-08, 4e-08, 0))
hIsland = hIsland.add(rect(1e-08, 3.825835421269047e-09).transl(1.5275467539084097e-08, 4e-08, 0))
hIsland = hIsland.sub(rect(1e-08, -5.357795679855542e-09).transl(1.0934828547904974e-07, 3.444137959742022e-08, 0))
hIsland = hIsland.sub(rect(1e-08, -3.914621389925094e-09).transl(-5.890091442412482e-08, 4e-08, 0))
hIsland = hIsland.sub(rect(1e-08, -4.497731791929732e-09).transl(-6.089359229119465e-08, 4e-08, 0))
hIsland = hIsland.sub(rect(1e-08, -2.697403223101357e-09).transl(-2.283194239176783e-08, 4e-08, 0))
hIsland = hIsland.add(rect(1e-08, 2.50130376429832e-09).transl(-8.855305930706417e-08, 4e-08, 0))
hIsland = hIsland.add(rect(1e-08, 4.9912088095455876e-09).transl(-9.338136996405747e-08, 4e-08, 0))
hIsland = hIsland.add(rect(1e-08, 3.5572387334243614e-09).transl(1.1453948840210664e-07, 1.1206099241090622e-08, 0))
hIsland = hIsland.sub(rect(1e-08, -1.8482830794973377e-09).transl(-4.513345267531197e-08, 4e-08, 0))
hIsland = hIsland.add(rect(1e-08, 2.3934050048265906e-09).transl(-2.761504577130139e-08, 4e-08, 0))
hIsland = hIsland.add(rect(1e-08, 1.1239173515028023e-09).transl(-3.0146902883905298e-09, 4e-08, 0))
hIsland = hIsland.add(rect(1e-08, 3.4954465631548622e-09).transl(-3.420711019449262e-08, 4e-08, 0))
hIsland = hIsland.sub(rect(1e-08, -3.5885169462732976e-09).transl(-6.682740143485612e-09, 4e-08, 0))
hIsland = hIsland.sub(rect(1e-08, -4.248260413668735e-09).transl(9.840390817672177e-08, 4e-08, 0))
hIsland = hIsland.add(rect(1e-08, 4.934251204521151e-10).transl(1.1008365086469453e-08, 4e-08, 0))
hIsland = hIsland.add(rect(1e-08, 4.301117427399926e-09).transl(-9.962693635287795e-08, 4e-08, 0))
hIsland = hIsland.add(rect(1e-08, 1.275994321337417e-09).transl(-7.33237194634592e-08, 4e-08, 0))
hIsland = hIsland.add(rect(1e-08, 1.8294530374376416e-09).transl(2.615289897843458e-08, 4e-08, 0))
hIsland = hIsland.add(rect(1e-08, 6.192152801426554e-09).transl(5.725463670573173e-08, 4e-08, 0))
hIsland = hIsland.add(rect(1e-08, 2.61531072935311e-09).transl(3.343060490701058e-08, 4e-08, 0))
hIsland = hIsland.add(rect(1e-08, 1.6111394004366245e-09).transl(-7.09334241565575e-08, 4e-08, 0))
hIsland = hIsland.sub(rect(1e-08, -8.754791403686258e-10).transl(-2.5854124983578074e-08, 4e-08, 0))
hIsland = hIsland.sub(rect(1e-08, -1.6340081255170262e-09).transl(2.998531030286629e-08, 4e-08, 0))
hIsland = hIsland.add(rect(1e-08, 9.050435107911808e-10).transl(4.6363335229212754e-08, 4e-08, 0))
hIsland = hIsland.sub(rect(1e-08, -1.057842730543696e-09).transl(-2.2769999302781623e-08, 4e-08, 0))
hIsland = hIsland.sub(rect(1e-08, -5.268251778065522e-09).transl(-9.863318018647179e-08, 4e-08, 0))
hIsland = hIsland.sub(rect(1e-08, -1.6477803680626275e-09).transl(3.041305116306297e-08, 4e-08, 0))
hIsland = hIsland.add(rect(1e-08, 3.603904168018969e-09).transl(1.0564188467097611e-07, 3.9300089043029154e-08, 0))
hIsland = hIsland.sub(rect(1e-08, -4.231259524293911e-09).transl(-2.6770125283277276e-08, 4e-08, 0))
hIsland = hIsland.sub(rect(1e-08, -7.748033396478647e-09).transl(-1.1398961941277746e-07, 1.6395078638264397e-08, 0))
hIsland = hIsland.add(rect(1e-08, 9.558781076624021e-09).transl(9.212312260010678e-08, 4e-08, 0))
hIsland = hIsland.sub(rect(1e-08, -4.1937659308389e-09).transl(1.864974855020159e-09, 4e-08, 0))
hIsland = hIsland.sub(rect(1e-08, -1.8837424922367932e-09).transl(-1.0269410685935724e-07, 4e-08, 0))
hIsland = hIsland.add(rect(1e-08, 9.790303937084914e-10).transl(-4.539728392326779e-08, 4e-08, 0))
hIsland = hIsland.sub(rect(1e-08, -1.563607820643778e-09).transl(-1.9984695307413306e-08, 4e-08, 0))
hIsland = hIsland.add(rect(1e-08, 4.374524547689593e-09).transl(8.839452535373008e-08, 4e-08, 0))
hIsland = hIsland.sub(rect(1e-08, -4.441219774550886e-09).transl(5.606527850620499e-08, 4e-08, 0))
hIsland = hIsland.sub(rect(1e-08, -3.761165945206422e-09).transl(9.934503519158095e-08, 4e-08, 0))
hIsland = hIsland.sub(rect(1e-08, -3.680954633094248e-09).transl(5.235059130063292e-08, 4e-08, 0))
hIsland = hIsland.sub(rect(1e-08, -1.0631169892442263e-08).transl(-7.881624996365283e-08, 4e-08, 0))
hIsland = hIsland.sub(rect(1e-08, -4.572102495109494e-11).transl(4.6819293729538567e-08, 4e-08, 0))
hIsland = hIsland.sub(rect(1e-08, -2.445151041003978e-09).transl(4.8305860228619147e-08, 4e-08, 0))
hIsland = hIsland.add(rect(1e-08, 3.0924697597388292e-09).transl(-1.9875971076022146e-08, 4e-08, 0))
hIsland = hIsland.add(rect(1e-08, 3.5015041623198225e-09).transl(-6.451608309580501e-08, 4e-08, 0))
hIsland = hIsland.add(rect(1e-08, 1.1040653715118502e-09).transl(-3.1922438722662835e-08, 4e-08, 0))
hIsland = hIsland.add(rect(1e-08, 5.36813320721081e-09).transl(1.0948645455520986e-07, 3.415297278266965e-08, 0))
hIsland = hIsland.sub(rect(1e-08, -8.528821335948066e-09).transl(-5.502511412715401e-08, 4e-08, 0))
hIsland = hIsland.add(rect(1e-08, 5.64556487372094e-10).transl(7.18895316954589e-08, 4e-08, 0))
hIsland = hIsland.sub(rect(1e-08, -4.942739155381653e-09).transl(-8.02042661170868e-08, 4e-08, 0))
hIsland = hIsland.sub(rect(1e-08, -2.3439485646362338e-09).transl(-4.755337786316021e-09, 4e-08, 0))
hIsland = hIsland.add(rect(1e-08, 6.155156118960284e-10).transl(-2.9655026568729894e-08, 4e-08, 0))
hIsland = hIsland.sub(rect(1e-08, -3.330160755886731e-09).transl(-4.438527279593925e-08, 4e-08, 0))
hIsland = hIsland.add(rect(1e-08, 2.760061300789379e-09).transl(6.15859632070225e-08, 4e-08, 0))
hIsland = hIsland.add(rect(1e-08, 5.290098994975684e-10).transl(1.055271831468296e-07, 3.9373625515805294e-08, 0))
hIsland = hIsland.add(rect(1e-08, 3.5468824074551745e-09).transl(-9.728082536598868e-08, 4e-08, 0))
hIsland = hIsland.add(rect(1e-08, 1.197698976565378e-09).transl(5.428485023799556e-08, 4e-08, 0))
hIsland = hIsland.sub(rect(1e-08, -8.607574828051983e-10).transl(-6.909880330639003e-08, 4e-08, 0))
hIsland = hIsland.sub(rect(1e-08, -3.6133451761316652e-09).transl(-8.220747488462315e-08, 4e-08, 0))
hIsland = hIsland.sub(rect(1e-08, -6.017329163532671e-10).transl(-5.3980757460406086e-08, 4e-08, 0))
hIsland = hIsland.add(rect(1e-08, 1.8191889979124008e-09).transl(-9.85575100665162e-09, 4e-08, 0))
hIsland = hIsland.add(rect(1e-08, 7.408504240767109e-10).transl(1.3505444887938799e-08, 4e-08, 0))
hIsland = hIsland.sub(rect(1e-08, -6.018219130136892e-09).transl(2.5007912914886487e-08, 4e-08, 0))
hIsland = hIsland.add(rect(1e-08, 1.2127173570946544e-09).transl(-1.1332192893250329e-07, 2.0805615657478512e-08, 0))
hIsland = hIsland.sub(rect(1e-08, -5.9647445470819e-10).transl(-5.3333929037823264e-08, 4e-08, 0))
hIsland = hIsland.add(rect(1e-08, 9.298971652631964e-10).transl(-5.57997450018585e-08, 4e-08, 0))
hIsland = hIsland.sub(rect(1e-08, -9.211579844962978e-10).transl(1.1438556475466579e-07, 1.2899837473563332e-08, 0))
hIsland = hIsland.sub(rect(1e-08, -3.421454037023256e-09).transl(-4.3348777258709536e-08, 4e-08, 0))
hIsland = hIsland.add(rect(1e-08, 2.4722620620807554e-09).transl(-3.8026120602376134e-08, 4e-08, 0))
hIsland = hIsland.sub(rect(1e-08, -4.077562721996527e-09).transl(3.852753563207035e-09, 4e-08, 0))
hIsland = hIsland.add(rect(1e-08, 1.3773458285248421e-09).transl(-1.0660557465201786e-07, 3.8513852341058924e-08, 0))
hIsland = hIsland.add(rect(1e-08, 1.7107738989848935e-09).transl(-2.320770578546185e-09, 4e-08, 0))
hIsland = hIsland.sub(rect(1e-08, -1.4969713621647425e-09).transl(3.4124177613010187e-08, 4e-08, 0))
hIsland = hIsland.sub(rect(1e-08, -4.041747089916421e-09).transl(7.382864850595685e-08, 4e-08, 0))
hIsland = hIsland.sub(rect(1e-08, -5.512295177030764e-09).transl(-1.0867896880982134e-07, 3.5714182692899834e-08, 0))
hIsland = hIsland.sub(rect(1e-08, -1.932321268765866e-09).transl(-9.753344947264796e-08, 4e-08, 0))
hIsland = hIsland.sub(rect(1e-08, -3.5070453779537933e-09).transl(-1.1163752261832148e-07, 2.8264101623622793e-08, 0))
hIsland = hIsland.add(rect(1e-08, 2.6604016112917674e-09).transl(6.178536678755511e-08, 4e-08, 0))
hIsland = hIsland.sub(rect(1e-08, -1.8025568605758357e-09).transl(8.778069636015904e-08, 4e-08, 0))
hIsland = hIsland.add(rect(1e-08, 3.221717210707424e-09).transl(-4.5301980934014414e-08, 4e-08, 0))
hIsland = hIsland.sub(rect(1e-08, -2.3112819811822264e-09).transl(-4.443645548065095e-08, 4e-08, 0))
hIsland = hIsland.sub(rect(1e-08, -8.03941019429333e-10).transl(-3.3046819500270586e-08, 4e-08, 0))
hIsland = hIsland.sub(rect(1e-08, -7.108301570406997e-09).transl(8.391153635550524e-08, 4e-08, 0))
hIsland = hIsland.add(rect(1e-08, 5.489780861189251e-09).transl(9.971725688088025e-08, 4e-08, 0))
hIsland = hIsland.add(rect(1e-08, 9.922106647274661e-09).transl(2.7840450201666667e-08, 4e-08, 0))
hIsland = hIsland.sub(rect(1e-08, -1.5580619962240687e-09).transl(4.8682667718912805e-08, 4e-08, 0))
hIsland = hIsland.add(rect(1e-08, 1.0030952089327095e-09).transl(1.0290983633551647e-08, 4e-08, 0))
hIsland = hIsland.add(rect(1e-08, 8.255624245072941e-09).transl(-2.885346752751645e-08, 4e-08, 0))
vIsland := hIsland.rotz(pi / 2)
vIslands := Universe().Inverse()
hIslands := Universe().Inverse()
hIslands = hIslands.add(hIsland.transl(-a/2, a, 0))
hIslands = hIslands.add(hIsland.transl(-a/2, -a, 0))
hIslands = hIslands.add(hIsland.transl(a/2, a, 0))
hIslands = hIslands.add(hIsland.transl(a/2, -a, 0))
hIslands = hIslands.add(hIsland.transl(-a/2, 0, 0))
hIslands = hIslands.add(hIsland.transl(a/2, 0, 0))
vIslands = vIslands.add(vIsland.transl(-a, a/2, 0))
vIslands = vIslands.add(vIsland.transl(a, a/2, 0))
vIslands = vIslands.add(vIsland.transl(-a, -a/2, 0))
vIslands = vIslands.add(vIsland.transl(a, -a/2, 0))
vIslands = vIslands.add(vIsland.transl(0, a/2, 0))
vIslands = vIslands.add(vIsland.transl(0, -a/2, 0))
DefRegion(1, hIslands)
DefRegion(2, vIslands)
TableAdd(m_full.Region(1))
TableAdd(m_full.Region(2))
setgeom(hIslands.add(vIslands))
save(m)
r2o2 := sqrt(2) / 2
m = RandomMagSeed(4)
B_ext = vector(Bmax*r2o2, Bmax*r2o2, 0)
relax()
minimize()
for B := Bmax; B >= -Bmax; B -= Bstep {
	B_ext = vector(B*r2o2, B*r2o2, 0)
	minimize()
	tablesave()
}
//********************************************************************//
//Please cite the following references, relevant for your simulation. //
//See bibtex file in output folder for justification.                 //
//********************************************************************//
//   * Vansteenkiste et al., AIP Adv. 4, 107133 (2014).
//   * Exl et al., J. Appl. Phys. 115, 17D118 (2014).
