//mumax 3.10 [windows_amd64 go1.11.6(gc) CUDA-11.0]
//GPU info: NVIDIA GeForce RTX 3090(24575MB), CUDA Driver 12.0, cc=8.6, using cc=80 PTX
//(c) Arne Vansteenkiste, Dynamat LAB, Ghent University, Belgium
//This is free software without any warranty. See license.txt
//********************************************************************//
//  If you use mumax in any work or publication,                      //
//  we kindly ask you to cite the references in references.bib        //
//********************************************************************//
//output directory: r1;p0.5;a4.4e-07;l3.0000000000000004e-07;s2.out/
randSeed(2)
ThermSeed(2)
resolution := 2e-09
zResolution := 5e-09
a := 4.4e-07
gridSize := 440
gridDepth := 5
SetCellsize(resolution, resolution, zResolution)
SetGridsize(gridSize, gridSize, gridDepth)
SetPBC(16, 16, 0)
//resizing...
Msat = 700e3
Aex = 13e-12
alpha = 0.2
Bmax := 0.1
Bstep := Bmax / 500.0
TableAdd(B_ext)
TableAdd(m_full)
islandWidth := 8e-08
islandLength := 3.0000000000000004e-07
ellipseConstant := 7.500000000000001e-08
hIsland := Universe().Inverse()
vIsland := Universe().Inverse()
vIslands := Universe().Inverse()
hIslands := Universe().Inverse()
hIsland = rect(islandLength-2*ellipseConstant, islandWidth)
hIsland = hIsland.add(ellipse(ellipseConstant*2, islandWidth).transl(islandLength/2-ellipseConstant, 0, 0))
hIsland = hIsland.add(ellipse(ellipseConstant*2, islandWidth).transl(-islandLength/2+ellipseConstant, 0, 0))
hIsland = hIsland.add(rect(9.37920482978362e-09, 1.6714813578695203e-10).transl(-1.3692508715963364e-07, -2.256626283611039e-08, 0))
hIsland = hIsland.sub(rect(5.227348391946685e-09, -1.308229354212436e-09).transl(1.1152111979446946e-07, -3.4937232592389503e-08, 0))
hIsland = hIsland.sub(rect(5.546559200393697e-09, -3.255226778118842e-10).transl(1.2786922969189773e-07, -2.8371351067524526e-08, 0))
hIsland = hIsland.add(rect(4.643757128217504e-09, 3.363457180259933e-09).transl(3.9361076829688083e-08, -4e-08, 0))
hIsland = hIsland.sub(rect(7.814552251337695e-09, -5.640326722169964e-10).transl(-8.235418858696405e-08, -3.980723654225875e-08, 0))
hIsland = hIsland.add(rect(5.105465686716551e-09, 2.605540717599004e-09).transl(9.898993691908726e-08, -3.789851403147128e-08, 0))
hIsland = hIsland.add(rect(5.1050491008629446e-09, 2.3166127924654347e-09).transl(3.4756104920290316e-08, -4e-08, 0))
hIsland = hIsland.add(rect(4.450811743679983e-09, 2.8326572708453795e-09).transl(7.924249154732143e-08, -3.99359532245841e-08, 0))
hIsland = hIsland.sub(rect(5.633272120782693e-09, -1.3573780614408791e-09).transl(-7.860005336128458e-08, -3.995389205966397e-08, 0))
hIsland = hIsland.sub(rect(2.158816162075631e-09, -6.788008071324153e-10).transl(1.0999252605503726e-07, -3.5379434057304004e-08, 0))
hIsland = hIsland.add(rect(6.534016231163606e-09, 1.1032450577108875e-09).transl(-1.1293234841231644e-07, -3.45068601495931e-08, 0))
hIsland = hIsland.add(rect(9.914099212052588e-09, 9.92539795785376e-10).transl(-1.298630813109323e-07, -2.727332500451939e-08, 0))
hIsland = hIsland.add(rect(4.258846143206541e-09, 2.3517039178100147e-09).transl(1.190586798022779e-07, -3.237044571011873e-08, 0))
hIsland = hIsland.sub(rect(8.494197196778806e-09, -1.3397648484107381e-09).transl(-1.6174366226782458e-08, -4e-08, 0))
hIsland = hIsland.sub(rect(5.093117040526046e-09, -1.7899929367635169e-09).transl(-9.330638102233871e-08, -3.87901528447825e-08, 0))
hIsland = hIsland.add(rect(7.670324891794161e-09, 4.532520607156117e-10).transl(-9.670869784724514e-08, -3.828773380704055e-08, 0))
hIsland = hIsland.sub(rect(4.959688036029523e-09, -2.8447603874004247e-09).transl(-8.682762297758666e-09, -4e-08, 0))
hIsland = hIsland.sub(rect(5.255977727609062e-09, -1.2012340584759142e-09).transl(2.8106087469383756e-08, -4e-08, 0))
hIsland = hIsland.sub(rect(3.938357168356581e-09, -1.2380007876671965e-09).transl(4.286926932400938e-08, -4e-08, 0))
hIsland = hIsland.sub(rect(8.946779666043227e-09, -1.4580492459428893e-09).transl(8.022572593185433e-10, -4e-08, 0))
hIsland = hIsland.add(rect(5.189180103887414e-09, 2.554555954022954e-09).transl(-1.102987093720136e-07, -3.5292811447273994e-08, 0))
hIsland = hIsland.sub(rect(2.743416790783613e-09, -3.4296690281454955e-10).transl(1.8366219331611567e-08, -4e-08, 0))
hIsland = hIsland.sub(rect(2.3292269076467716e-09, -3.0599730241299713e-09).transl(-3.7423755095855214e-09, -4e-08, 0))
hIsland = hIsland.sub(rect(2.176068502394986e-09, -6.162636792952912e-09).transl(1.8033288144719125e-08, -4e-08, 0))
hIsland = hIsland.sub(rect(3.850909253089158e-09, -3.3251998240986966e-09).transl(-2.7126180137593665e-08, -4e-08, 0))
hIsland = hIsland.sub(rect(5.26801312770645e-09, -1.1516202366649724e-09).transl(1.3506580982237012e-07, -2.3953130473628747e-08, 0))
hIsland = hIsland.sub(rect(6.233422259139861e-09, -1.2611414793024816e-09).transl(-1.462526491404309e-07, -1.2485696596972596e-08, 0))
hIsland = hIsland.sub(rect(2.5370490990624397e-09, -4.453517596538448e-09).transl(-1.0600446049274056e-07, -3.642211169004417e-08, 0))
hIsland = hIsland.sub(rect(8.793290929692237e-09, -2.552122025741874e-09).transl(7.832468243072638e-09, -4e-08, 0))
hIsland = hIsland.add(rect(6.817973493582373e-09, 7.022368401052063e-10).transl(9.525140644762848e-08, -3.851420253829309e-08, 0))
hIsland = hIsland.sub(rect(5.3239360965000984e-09, -2.3146615735049426e-09).transl(-1.8004212652991525e-08, -4e-08, 0))
hIsland = hIsland.add(rect(3.886074091907067e-09, 1.5867808940465822e-09).transl(-1.247026944306171e-07, -2.995530734986144e-08, 0))
hIsland = hIsland.sub(rect(4.670144212507638e-09, -2.1512345702172756e-09).transl(-1.498816878583601e-10, -4e-08, 0))
hIsland = hIsland.add(rect(5.981449391888761e-09, 3.550944206395519e-10).transl(-1.267291842049033e-07, -2.896295381618785e-08, 0))
hIsland = hIsland.sub(rect(6.086083672932181e-09, -1.6876383267464552e-10).transl(6.38201075716175e-08, -4e-08, 0))
hIsland = hIsland.add(rect(8.283652859058186e-09, 1.6497734313419822e-09).transl(1.1615562386296011e-07, -3.3439679421963836e-08, 0))
hIsland = hIsland.sub(rect(4.636408534986933e-09, -3.194372176853831e-09).transl(-2.7439538769048216e-08, -4e-08, 0))
hIsland = hIsland.sub(rect(8.873972415346376e-09, -5.1672540989401975e-11).transl(5.1731655279002405e-08, -4e-08, 0))
hIsland = hIsland.add(rect(7.79681945180387e-09, 1.5251418621233718e-09).transl(2.7604393442057187e-08, -4e-08, 0))
hIsland = hIsland.sub(rect(7.364430601377251e-09, -3.8766780712727233e-10).transl(5.73997084485108e-08, -4e-08, 0))
hIsland = hIsland.sub(rect(2.9046761038033007e-09, -1.5065161530281782e-09).transl(-3.70153168013662e-08, -4e-08, 0))
hIsland = hIsland.add(rect(6.191936122836599e-09, 6.435193057721217e-10).transl(-2.6363932618975734e-08, -4e-08, 0))
hIsland = hIsland.sub(rect(6.554856594111025e-09, -8.208118145024572e-10).transl(-1.0719702818529354e-07, -3.612659765425324e-08, 0))
hIsland = hIsland.add(rect(5.794096660960966e-09, 4.733873053560664e-09).transl(-2.559796698515064e-08, -4e-08, 0))
hIsland = hIsland.sub(rect(7.118146688508364e-09, -1.1600092351062299e-09).transl(1.3841857454291364e-07, -2.1353886119234096e-08, 0))
hIsland = hIsland.sub(rect(8.806178989427813e-09, -4.135811969769359e-09).transl(-3.2235623239077306e-09, -4e-08, 0))
hIsland = hIsland.sub(rect(6.548227646699103e-09, -3.634064083889115e-09).transl(-9.64608458809012e-08, -3.83274577538162e-08, 0))
hIsland = hIsland.add(rect(8.566277787629272e-09, 2.052000177137913e-09).transl(9.310254429057306e-08, -3.881735379230399e-08, 0))
hIsland = hIsland.sub(rect(9.901659302066936e-09, -3.8294127880648905e-09).transl(-4.960436319118345e-10, -4e-08, 0))
hIsland = hIsland.add(rect(8.946043434365854e-09, 1.3887571253119535e-10).transl(-9.837784362756848e-08, -3.8007162561741626e-08, 0))
hIsland = hIsland.sub(rect(4.231650030228342e-09, -1.5396163016821561e-09).transl(-1.0363748826932794e-07, -3.696925046575526e-08, 0))
hIsland = hIsland.sub(rect(6.3396900736313545e-09, -3.4371101444783217e-09).transl(4.86934783454993e-08, -4e-08, 0))
hIsland = hIsland.add(rect(7.301056040529944e-09, 7.449036939543218e-10).transl(3.597674041361666e-08, -4e-08, 0))
hIsland = hIsland.sub(rect(4.1700933680739165e-09, -1.6837045013347964e-09).transl(8.232628663391829e-08, -3.980869997297302e-08, 0))
hIsland = hIsland.add(rect(5.642305500343649e-09, 5.500956380234752e-10).transl(1.0470031634189245e-07, -3.672994765935449e-08, 0))
hIsland = hIsland.sub(rect(9.200230764267808e-09, -2.2935975065268722e-10).transl(1.388645972413977e-07, -2.0972367643419622e-08, 0))
hIsland = hIsland.sub(rect(2.89899225286833e-09, -2.0030417360884002e-09).transl(1.8585513492115937e-08, -4e-08, 0))
hIsland = hIsland.add(rect(9.425701899013245e-09, 2.5436771012954277e-09).transl(-7.872100531662884e-08, -3.9950739870426076e-08, 0))
hIsland = hIsland.add(rect(7.099866562034556e-09, 4.829918135827761e-09).transl(-1.322003149305447e-07, -2.587147156388256e-08, 0))
hIsland = hIsland.sub(rect(4.7897511081061155e-09, -2.0622069159537372e-09).transl(1.2256752970725597e-07, -3.0925654759845276e-08, 0))
hIsland = hIsland.add(rect(3.5565045701762293e-09, 1.4977893590829966e-09).transl(-3.2715212236261365e-08, -4e-08, 0))
hIsland = hIsland.sub(rect(4.398088536323881e-09, -4.3092572694736247e-10).transl(-6.215467708662612e-08, -4e-08, 0))
hIsland = hIsland.sub(rect(3.3764385318405197e-09, -1.6533899545172989e-09).transl(2.222151379168745e-08, -4e-08, 0))
hIsland = hIsland.sub(rect(8.492119299072149e-09, -6.958357161240926e-11).transl(8.060851110919989e-08, -3.988800179395809e-08, 0))
hIsland = hIsland.sub(rect(2.849368519296498e-09, -1.8250256933990546e-09).transl(5.673750181308678e-08, -4e-08, 0))
hIsland = hIsland.add(rect(9.02068675871637e-09, 4.664914734530108e-10).transl(8.513417685035131e-08, -3.963315679311461e-08, 0))
hIsland = hIsland.sub(rect(7.279678929448106e-09, -9.633278897124554e-10).transl(6.210559885501818e-08, -4e-08, 0))
hIsland = hIsland.add(rect(7.136167101827795e-09, 1.244897966874852e-09).transl(6.321650478103323e-08, -4e-08, 0))
hIsland = hIsland.add(rect(7.3614178368519275e-09, 4.171269868486453e-10).transl(6.181379684001899e-08, -4e-08, 0))
hIsland = hIsland.add(rect(7.673382092157282e-09, 1.7405541831706043e-09).transl(-5.601620793934142e-08, -4e-08, 0))
hIsland = hIsland.add(rect(6.074280319170535e-09, 6.616744296367829e-10).transl(-7.444403678814223e-08, -4e-08, 0))
hIsland = hIsland.sub(rect(8.853516723375478e-09, -2.4389130127054164e-09).transl(1.1639124610572564e-07, -3.335685461671683e-08, 0))
hIsland = hIsland.sub(rect(6.9846571944253065e-09, -1.1065438762950869e-09).transl(-7.382546423565788e-08, -4e-08, 0))
hIsland = hIsland.sub(rect(7.531750227338641e-09, -6.371448486331063e-10).transl(1.057639396590255e-07, -3.6480078037561125e-08, 0))
hIsland = hIsland.sub(rect(5.823356087617149e-09, -2.7542462746294045e-10).transl(3.11989610662923e-08, -4e-08, 0))
hIsland = hIsland.sub(rect(2.979736955824181e-09, -1.1765597335219398e-09).transl(-7.488014748245233e-09, -4e-08, 0))
hIsland = hIsland.add(rect(7.151618896589898e-09, 1.1811660052896241e-09).transl(3.222256298319104e-08, -4e-08, 0))
hIsland = hIsland.sub(rect(7.631025872832013e-09, -4.4642823269059463e-10).transl(1.3956709487192229e-08, -4e-08, 0))
hIsland = hIsland.add(rect(5.601639752177823e-09, 2.8850449845912065e-09).transl(9.719365139365985e-08, -3.820856667294908e-08, 0))
hIsland = hIsland.sub(rect(8.116695019507878e-09, -1.3868290076198066e-10).transl(-7.642629142832137e-09, -4e-08, 0))
hIsland = hIsland.sub(rect(4.0058369673552424e-09, -9.530350327788904e-11).transl(-1.1589813084897055e-07, -3.352941959638636e-08, 0))
hIsland = hIsland.sub(rect(9.571175938384266e-09, -3.237851407615413e-10).transl(-2.0811084799798632e-08, -4e-08, 0))
hIsland = hIsland.sub(rect(9.081261980939712e-09, -3.072870689219823e-10).transl(-3.4632359518903733e-09, -4e-08, 0))
hIsland = hIsland.sub(rect(4.282290861241172e-09, -2.9937324169523397e-09).transl(-9.96027770388151e-08, -3.778659463452406e-08, 0))
hIsland = hIsland.sub(rect(9.9710631294795e-09, -7.650096170659822e-10).transl(2.3255622774931238e-08, -4e-08, 0))
hIsland = hIsland.sub(rect(3.2336641035629596e-09, -1.7852196428998506e-09).transl(1.3974496597915091e-07, -2.0189955736339128e-08, 0))
hIsland = hIsland.add(rect(7.852951126086352e-09, 2.0365581169193918e-09).transl(8.462455905558751e-08, -3.966927404489792e-08, 0))
hIsland = hIsland.sub(rect(8.50175689756426e-09, -5.143495640462478e-10).transl(1.3462230468385993e-07, -2.4266261002821597e-08, 0))
hIsland = hIsland.sub(rect(7.1792322909872275e-09, -6.034154777192434e-10).transl(-3.746837874860335e-08, -4e-08, 0))
hIsland = hIsland.add(rect(2.2065921278692064e-09, 4.2694299732121695e-10).transl(-1.2080947311117284e-07, -3.1671613584807806e-08, 0))
hIsland = hIsland.add(rect(3.460147996790886e-09, 2.1464530487908406e-10).transl(-7.609359836689394e-08, -3.9995747481015656e-08, 0))
hIsland = hIsland.sub(rect(4.861300356115232e-09, -7.859447797664437e-10).transl(8.354831538217857e-08, -3.973933307409484e-08, 0))
hIsland = hIsland.add(rect(8.843355341175831e-09, 2.07143413371682e-09).transl(7.3067685412851e-08, -4e-08, 0))
hIsland = hIsland.sub(rect(3.1313017629696315e-09, -1.9150038620029446e-09).transl(1.1561324701488286e-07, -3.3627773354913315e-08, 0))
hIsland = hIsland.sub(rect(8.636314618967266e-09, -1.0091033797906249e-10).transl(-1.936345429185811e-08, -4e-08, 0))
hIsland = hIsland.add(rect(7.458449467435642e-09, 1.810763199060028e-09).transl(6.4723961388249815e-09, -4e-08, 0))
hIsland = hIsland.add(rect(7.366424030294713e-09, 4.3807678162806615e-09).transl(-6.918682437169078e-09, -4e-08, 0))
hIsland = hIsland.sub(rect(4.974429468970404e-09, -4.576327648612027e-10).transl(-1.3212041452148599e-07, -2.5921636408665884e-08, 0))
hIsland = hIsland.sub(rect(6.977237565682719e-09, -4.1777717359599027e-10).transl(1.0239980506314109e-07, -3.723511148724008e-08, 0))
hIsland = hIsland.sub(rect(6.713602649237115e-09, -2.201079056199543e-09).transl(7.070575278534735e-08, -4e-08, 0))
hIsland = hIsland.sub(rect(4.035370897396281e-09, -1.4302495430445987e-10).transl(-7.09505076835754e-08, -4e-08, 0))
hIsland = hIsland.add(rect(8.30444167723628e-09, 3.372780728186483e-10).transl(-1.217441289505313e-07, -3.128074524218733e-08, 0))
hIsland = hIsland.add(rect(4.175305374108113e-09, 1.794065655369532e-09).transl(-8.506727705562639e-08, -3.963800621131506e-08, 0))
hIsland = hIsland.sub(rect(4.30667923531615e-09, -1.6464424013272137e-09).transl(-1.8923092163679435e-08, -4e-08, 0))
hIsland = hIsland.add(rect(8.272608175319164e-09, 6.347527714167099e-10).transl(-2.998897329257148e-09, -4e-08, 0))
hIsland = hIsland.add(rect(6.055151987232654e-09, 2.9084905120383146e-09).transl(-8.479138225083403e-08, -3.965765978143751e-08, 0))
hIsland = hIsland.sub(rect(9.918055428318316e-09, -8.760794273602061e-10).transl(9.178956915648823e-08, -3.898484397942519e-08, 0))
hIsland = hIsland.add(rect(4.129337070122335e-09, 1.038480084789358e-09).transl(1.7761708208427382e-08, -4e-08, 0))
hIsland = hIsland.sub(rect(6.665880987251133e-09, -4.932779519243823e-10).transl(-3.898708509523302e-08, -4e-08, 0))
hIsland = hIsland.add(rect(3.4526088819146106e-09, 1.0711422665015931e-09).transl(-1.8518563099564288e-08, -4e-08, 0))
hIsland = hIsland.add(rect(4.559941657201274e-09, 1.7600628133346115e-09).transl(-7.681017736578983e-08, -3.998834766422619e-08, 0))
hIsland = hIsland.add(rect(3.4246527161697355e-09, 1.4138502178954972e-09).transl(2.0480617808782736e-09, -4e-08, 0))
hIsland = hIsland.sub(rect(3.263352146372266e-09, -1.938936857784556e-09).transl(1.4374643069161447e-07, -1.5990470648126692e-08, 0))
hIsland = hIsland.sub(rect(2.1325256827918413e-09, -3.4869028382731495e-09).transl(7.051018590782537e-08, -4e-08, 0))
hIsland = hIsland.add(rect(9.375232455748197e-09, 1.0038395753245052e-09).transl(1.1205791624567457e-09, -4e-08, 0))
hIsland = hIsland.sub(rect(2.2302246074672534e-09, -6.446712263087085e-10).transl(-5.4458358861560554e-08, -4e-08, 0))
hIsland = hIsland.add(rect(9.79729231545359e-09, 5.804752760416228e-10).transl(1.4018265120143784e-08, -4e-08, 0))
hIsland = hIsland.sub(rect(3.255375833992325e-09, -8.798332025663083e-10).transl(8.424572324099186e-08, -3.969489541837635e-08, 0))
hIsland = hIsland.sub(rect(9.35465551247522e-09, -3.342447833617295e-09).transl(1.2658414441069661e-07, -2.903644200017546e-08, 0))
hIsland = hIsland.sub(rect(8.323022031656091e-09, -2.555901152577398e-09).transl(5.8103245820490286e-08, -4e-08, 0))
hIsland = hIsland.sub(rect(2.3147380227361957e-09, -1.5799188066343995e-09).transl(-1.1511326206848648e-07, -3.379804578166516e-08, 0))
hIsland = hIsland.add(rect(6.552354729103106e-09, 1.489696475460524e-09).transl(-9.936204678540436e-08, -3.7830934037944795e-08, 0))
hIsland = hIsland.sub(rect(6.329304163172072e-09, -1.293346354150138e-11).transl(-1.510880282686425e-08, -4e-08, 0))
hIsland = hIsland.add(rect(2.2454055808225473e-09, 1.6787091568253828e-09).transl(-9.264540057347896e-08, -3.887718266372786e-08, 0))
hIsland = hIsland.add(rect(2.1950915570921616e-09, 1.1760211691414127e-09).transl(6.130091090055962e-08, -4e-08, 0))
hIsland = hIsland.sub(rect(3.05343100165371e-09, -1.9236750422665853e-09).transl(-6.476578347282996e-09, -4e-08, 0))
hIsland = hIsland.sub(rect(4.028252607351029e-09, -4.925489380771736e-09).transl(6.296042322372456e-08, -4e-08, 0))
hIsland = hIsland.add(rect(9.740410531209872e-09, 9.870857509338274e-11).transl(7.160372165926647e-08, -4e-08, 0))
hIsland = hIsland.add(rect(4.401830595821865e-09, 1.906209323947721e-09).transl(1.6174306722365283e-08, -4e-08, 0))
hIsland = hIsland.add(rect(5.613501496937976e-09, 4.017526081706952e-09).transl(-7.544016999193516e-08, -3.999931110652364e-08, 0))
hIsland = hIsland.sub(rect(4.37923935835807e-09, -1.6888495189186098e-09).transl(-1.4282919537330408e-07, -1.7068335376838e-08, 0))
hIsland = hIsland.sub(rect(8.82811114567866e-09, -8.787603983177949e-10).transl(-1.4592005665089478e-07, -1.3013175568812836e-08, 0))
hIsland = hIsland.sub(rect(8.299120021801232e-09, -2.9860169725759e-09).transl(-3.168473366959415e-08, -4e-08, 0))
hIsland = hIsland.sub(rect(2.572738829652696e-09, -1.9433674319140066e-09).transl(-7.669358927569444e-08, -3.998980049648083e-08, 0))
hIsland = hIsland.add(rect(5.47866748174087e-09, 9.869708932707993e-10).transl(-1.1768405644399998e-07, -3.289015825988526e-08, 0))
hIsland = hIsland.sub(rect(7.668317761849739e-09, -2.6986463893614987e-09).transl(2.239381292276353e-08, -4e-08, 0))
hIsland = hIsland.add(rect(6.493661261585402e-09, 9.793460300820998e-10).transl(-6.424871362944831e-08, -4e-08, 0))
hIsland = hIsland.add(rect(3.726610073736802e-09, 3.846805115219066e-10).transl(-4.693376722387718e-08, -4e-08, 0))
hIsland = hIsland.add(rect(6.692790990965808e-09, 2.4285258491088692e-09).transl(9.489725756394232e-08, -3.856667214357697e-08, 0))
hIsland = hIsland.add(rect(5.718335555773206e-09, 7.66102904143617e-10).transl(-3.8902662868234995e-08, -4e-08, 0))
hIsland = hIsland.sub(rect(7.715331916514201e-09, -2.3897299182436923e-09).transl(-9.571103445634785e-08, -3.844461501443749e-08, 0))
hIsland = hIsland.sub(rect(5.543057463947845e-09, -1.7942997275910272e-10).transl(-7.126359741731586e-08, -4e-08, 0))
hIsland = hIsland.sub(rect(8.661318964607287e-09, -1.2988920389493177e-09).transl(-1.1595293619316683e-07, -3.351038638977063e-08, 0))
hIsland = hIsland.sub(rect(9.642028599950418e-09, -3.248859873562825e-09).transl(3.6569252112247485e-09, -4e-08, 0))
hIsland = hIsland.sub(rect(9.93950143879128e-09, -2.193249993643378e-09).transl(-9.465155489216007e-08, -3.860248978616718e-08, 0))
hIsland = hIsland.add(rect(5.343450947714642e-09, 8.731047098507053e-10).transl(1.3816094662568585e-07, -2.156998620163624e-08, 0))
hIsland = hIsland.add(rect(4.888805593101709e-09, 3.815619365441224e-09).transl(1.4323584023142748e-07, -1.6600895144045795e-08, 0))
hIsland = hIsland.sub(rect(5.212003264699477e-09, -3.182403613270672e-10).transl(-7.551433565107362e-08, -3.9999059398142757e-08, 0))
hIsland = hIsland.sub(rect(6.563516137729515e-09, -2.7463619791478904e-09).transl(1.066488231570721e-07, -3.626412537281513e-08, 0))
hIsland = hIsland.sub(rect(5.8731909913114565e-09, -1.829244088620036e-10).transl(1.1583286326956634e-08, -4e-08, 0))
hIsland = hIsland.sub(rect(9.533501721906229e-09, -1.4976732970160786e-09).transl(-3.417198110081277e-08, -4e-08, 0))
hIsland = hIsland.add(rect(6.638538003557864e-09, 3.273051210388655e-09).transl(4.830501641020171e-08, -4e-08, 0))
hIsland = hIsland.sub(rect(5.054728146924229e-09, -9.017418088537355e-11).transl(1.290139840316311e-07, -2.7751222584316682e-08, 0))
hIsland = hIsland.add(rect(6.766499416027542e-09, 7.272915905224804e-10).transl(8.52844166477436e-08, -3.962214698034979e-08, 0))
hIsland = hIsland.sub(rect(3.8591380711458485e-09, -7.670099651818849e-10).transl(7.274628295862287e-08, -4e-08, 0))
hIsland = hIsland.sub(rect(8.32352971198566e-09, -4.2344340579603024e-10).transl(1.3396624972254155e-07, -2.471803742606401e-08, 0))
hIsland = hIsland.sub(rect(6.455152039728936e-09, -2.3513772499595887e-09).transl(1.1888812737872657e-07, -3.243628048357614e-08, 0))
hIsland = hIsland.sub(rect(9.315762761595939e-09, -2.467920743208243e-09).transl(-3.857706501769653e-08, -4e-08, 0))
hIsland = hIsland.add(rect(7.196245817795501e-09, 3.6194190562440576e-10).transl(-1.099509148749622e-09, -4e-08, 0))
hIsland = hIsland.add(rect(8.956147179785658e-09, 1.2069032402273148e-09).transl(-1.3895754179627142e-08, -4e-08, 0))
hIsland = hIsland.add(rect(9.831574384083389e-09, 1.4477020319776544e-09).transl(2.9447067466288505e-08, -4e-08, 0))
hIsland = hIsland.sub(rect(6.650477233994098e-09, -5.904911898442707e-10).transl(-1.5109946523362517e-08, -4e-08, 0))
hIsland = hIsland.sub(rect(8.207966406639262e-09, -2.667164499463359e-09).transl(1.911233508715939e-08, -4e-08, 0))
hIsland = hIsland.add(rect(6.511723913246648e-09, 3.3881474948178e-10).transl(8.515489350198069e-08, -3.9631648454775775e-08, 0))
hIsland = hIsland.add(rect(3.339846711856204e-09, 1.7636109175548889e-09).transl(-8.033725053462265e-08, -3.9898587022085705e-08, 0))
hIsland = hIsland.sub(rect(3.6579262663575653e-09, -3.0589983200906245e-09).transl(2.0113332456552852e-08, -4e-08, 0))
hIsland = hIsland.add(rect(7.233813926332597e-09, 1.5832033489114033e-09).transl(-1.5597922007123375e-08, -4e-08, 0))
hIsland = hIsland.sub(rect(8.538231996768559e-09, -1.987259936343346e-09).transl(8.07262284365019e-09, -4e-08, 0))
hIsland = hIsland.sub(rect(5.891622625877691e-09, -4.338547871318307e-10).transl(6.559104606476843e-08, -4e-08, 0))
hIsland = hIsland.add(rect(9.016647900790656e-09, 1.9098186176692714e-09).transl(7.05615163339562e-08, -4e-08, 0))
hIsland = hIsland.add(rect(5.749582531771748e-09, 1.0711898451020395e-09).transl(1.0348296498262125e-08, -4e-08, 0))
hIsland = hIsland.add(rect(7.302454708316163e-09, 4.696078020421804e-10).transl(-1.1406296639780494e-07, -3.414618364861121e-08, 0))
hIsland = hIsland.add(rect(4.706062081241121e-09, 5.471644673396502e-10).transl(-9.072625719770175e-08, -3.911077313428338e-08, 0))
hIsland = hIsland.sub(rect(5.025766265950657e-09, -2.38637291923041e-09).transl(1.1899297703213146e-07, -3.239585365776324e-08, 0))
hIsland = hIsland.sub(rect(8.107006299712545e-09, -1.5058245577475379e-09).transl(-1.1495551154434893e-07, -3.385115486115859e-08, 0))
hIsland = hIsland.add(rect(3.6079928806268305e-09, 7.828988435545411e-10).transl(-9.730405908835873e-08, -3.8190275241725096e-08, 0))
hIsland = hIsland.add(rect(7.783138218692441e-09, 4.107360235969885e-09).transl(-1.2440305654232046e-07, -3.009596741342102e-08, 0))
hIsland = hIsland.add(rect(2.9271120713573407e-09, 1.1274887147170546e-14).transl(-1.0581026449748267e-07, -3.646895583930653e-08, 0))
hIsland = hIsland.add(rect(5.836990164725068e-09, 1.1854401887077305e-09).transl(-7.516200718398475e-08, -3.999990667961501e-08, 0))
hIsland = hIsland.add(rect(4.035519903875106e-09, 1.6498546198853147e-09).transl(-1.0913979390826031e-07, -3.561562492325816e-08, 0))
hIsland = hIsland.add(rect(6.406723702634319e-09, 2.6961354083631086e-09).transl(-2.380956562192474e-08, -4e-08, 0))
hIsland = hIsland.sub(rect(4.1601030238602335e-09, -7.058086191787166e-10).transl(3.877192983485458e-08, -4e-08, 0))
hIsland = hIsland.add(rect(8.528270910008246e-09, 4.4960808104820115e-09).transl(-8.94950236264199e-08, -3.924584816339458e-08, 0))
hIsland = hIsland.sub(rect(5.172965802281167e-09, -2.8682202695492387e-09).transl(5.838242463410991e-09, -4e-08, 0))
hIsland = hIsland.add(rect(7.3254229428533616e-09, 3.8931495830513025e-11).transl(6.2267093831281394e-09, -4e-08, 0))
hIsland = hIsland.add(rect(8.98221563089049e-09, 5.765666051982555e-11).transl(3.347002977380599e-08, -4e-08, 0))
hIsland = hIsland.add(rect(4.139056441891697e-09, 1.6924641805491375e-09).transl(-9.597200545235022e-08, -3.840435155827597e-08, 0))
hIsland = hIsland.add(rect(5.075693576819965e-09, 1.982359581667403e-09).transl(-3.8278032532433916e-08, -4e-08, 0))
hIsland = hIsland.add(rect(2.8924622699975616e-09, 1.2129280102719186e-09).transl(-8.540568582691316e-08, -3.9613139736887026e-08, 0))
hIsland = hIsland.add(rect(3.158198622490422e-09, 1.4446895549362282e-09).transl(-1.0669185566326846e-07, -3.6253433996157164e-08, 0))
hIsland = hIsland.add(rect(3.663437405705592e-09, 1.8608977633408479e-09).transl(-1.3265238932920631e-07, -2.5584450859114642e-08, 0))
hIsland = hIsland.sub(rect(3.469860776738883e-09, -3.2700391379878636e-09).transl(-2.4291285009702726e-08, -4e-08, 0))
hIsland = hIsland.add(rect(7.769587650546357e-09, 2.1343977404880447e-09).transl(2.5261013974962608e-08, -4e-08, 0))
hIsland = hIsland.sub(rect(2.1774519647095485e-09, -2.3493212717275494e-10).transl(-5.80342665340099e-08, -4e-08, 0))
hIsland = hIsland.add(rect(9.277368558773543e-09, 2.3263517008727757e-09).transl(2.4920605125192275e-08, -4e-08, 0))
hIsland = hIsland.add(rect(5.214327185071568e-09, 5.152881939417253e-10).transl(1.2457652595911588e-07, -3.001471910948634e-08, 0))
hIsland = hIsland.sub(rect(7.843572544798276e-09, -2.755874544148455e-09).transl(-4.3542568949707266e-08, -4e-08, 0))
hIsland = hIsland.sub(rect(9.201088866711588e-09, -3.564054070974933e-09).transl(-6.67197409551843e-09, -4e-08, 0))
hIsland = hIsland.sub(rect(6.252940822534918e-09, -1.7926655582625975e-09).transl(1.2975656240955596e-07, -2.7334146969813574e-08, 0))
hIsland = hIsland.sub(rect(8.69130354954773e-09, -6.998025284197641e-10).transl(1.0494315537904102e-07, -3.66738221224521e-08, 0))
hIsland = hIsland.sub(rect(6.409246268429694e-09, -2.352421586226294e-09).transl(-2.9714884111454476e-08, 4e-08, 0))
hIsland = hIsland.sub(rect(5.980844577610297e-09, -1.891632593729309e-09).transl(1.1574681106410707e-07, 3.358178294775518e-08, 0))
hIsland = hIsland.sub(rect(2.8705589862038104e-09, -2.271669452131543e-09).transl(5.189774117629958e-08, 4e-08, 0))
hIsland = hIsland.sub(rect(4.504748041892666e-09, -1.7970861138740114e-09).transl(8.189835763786786e-08, 3.983044119830429e-08, 0))
hIsland = hIsland.sub(rect(4.407753517906641e-09, -1.1924142829265287e-09).transl(5.969016703124424e-08, 4e-08, 0))
hIsland = hIsland.sub(rect(4.579046990195466e-09, -2.0313261862123222e-09).transl(-1.1619178813449095e-07, 3.342701115220215e-08, 0))
hIsland = hIsland.sub(rect(8.279741606087954e-09, -1.1167978238584073e-09).transl(1.4979582787088667e-07, 2.9494892355996124e-09, 0))
hIsland = hIsland.add(rect(9.70415125263677e-09, 4.174934917944708e-09).transl(-8.658637347868096e-08, 3.951980548620604e-08, 0))
hIsland = hIsland.add(rect(4.541244261406367e-09, 2.1288174892850085e-09).transl(-7.393526837503196e-08, 4e-08, 0))
hIsland = hIsland.sub(rect(7.909375117659236e-09, -1.1349440834205124e-10).transl(-8.392532319498403e-08, 3.97157495082445e-08, 0))
hIsland = hIsland.sub(rect(2.9851836120016613e-09, -1.2402292180497375e-09).transl(-1.1040048523514195e-07, 3.526380336753607e-08, 0))
hIsland = hIsland.add(rect(5.226006643742619e-09, 2.8743465861622877e-09).transl(-8.791320216926031e-08, 3.9402647932627965e-08, 0))
hIsland = hIsland.sub(rect(7.264280800825809e-09, -8.456122822843272e-10).transl(-1.2583673996989724e-07, 2.9408997537104215e-08, 0))
hIsland = hIsland.sub(rect(6.074104495958669e-09, -1.613953144833563e-09).transl(-6.071176507618167e-08, 4e-08, 0))
hIsland = hIsland.sub(rect(9.383991089784986e-09, -3.746984040689029e-09).transl(2.9593454374653444e-08, 4e-08, 0))
hIsland = hIsland.add(rect(6.366176558233279e-09, 1.5564963758192554e-09).transl(-1.479851450941555e-08, 4e-08, 0))
hIsland = hIsland.add(rect(7.94674864077734e-09, 7.613807704863017e-10).transl(1.0946243545871291e-07, 3.5527128582989404e-08, 0))
hIsland = hIsland.sub(rect(9.672077331921262e-09, -1.8973965304362895e-09).transl(-2.8977605707626603e-08, 4e-08, 0))
hIsland = hIsland.sub(rect(3.332370631541653e-09, -1.8142281792611592e-09).transl(8.129931067919356e-08, 3.9858661171577417e-08, 0))
hIsland = hIsland.sub(rect(3.780635992820819e-09, -1.39275125739178e-09).transl(3.298692032767671e-08, 4e-08, 0))
hIsland = hIsland.add(rect(2.82035159975311e-09, 1.5433176159110007e-09).transl(1.035305644144037e-07, 3.6992758524309174e-08, 0))
hIsland = hIsland.sub(rect(2.6110142121513276e-09, -3.2343428121035974e-09).transl(-8.269286692640647e-08, 3.9789025125639105e-08, 0))
hIsland = hIsland.add(rect(7.7673901674784e-09, 5.563890921089787e-10).transl(-1.4611454132215843e-07, 1.2707689501067631e-08, 0))
hIsland = hIsland.add(rect(2.404005805822014e-09, 4.853482268775795e-10).transl(7.396803677692611e-08, 4e-08, 0))
hIsland = hIsland.add(rect(6.076988354843737e-09, 1.3301330148975673e-09).transl(-1.2511959286431014e-07, 2.9757067531104515e-08, 0))
hIsland = hIsland.sub(rect(7.3102520676477485e-09, -3.113855909354857e-09).transl(1.2860455887244448e-07, 2.7976123244875218e-08, 0))
hIsland = hIsland.sub(rect(2.3981344852890863e-09, -5.534492749822374e-11).transl(9.014383965576218e-08, 3.91760983656989e-08, 0))
hIsland = hIsland.add(rect(4.113252625725582e-09, 9.981084493833279e-10).transl(-1.1982579498722402e-08, 4e-08, 0))
hIsland = hIsland.add(rect(2.162275895688641e-09, 2.7226417878235244e-09).transl(1.170277634086503e-07, 3.312969091873512e-08, 0))
hIsland = hIsland.sub(rect(8.297934363243735e-09, -2.4428456010733433e-09).transl(-9.839742101845981e-08, 3.800373573098284e-08, 0))
hIsland = hIsland.add(rect(4.834648717280535e-09, 1.4478333665238573e-09).transl(-2.5145214775965334e-08, 4e-08, 0))
hIsland = hIsland.sub(rect(8.713442009073497e-09, -4.907379613263052e-10).transl(-5.804766542921405e-08, 4e-08, 0))
hIsland = hIsland.add(rect(7.358661779163326e-09, 2.4109455414246505e-09).transl(-4.7645889612357436e-08, 4e-08, 0))
hIsland = hIsland.sub(rect(5.452560021100477e-09, -2.943105355257845e-10).transl(-1.3200116761082356e-07, 2.5996194680861295e-08, 0))
hIsland = hIsland.add(rect(2.615465653869734e-09, 3.594402615542483e-09).transl(-4.2045618448102236e-08, 4e-08, 0))
hIsland = hIsland.add(rect(4.675428871751349e-09, 2.5059960871072803e-09).transl(4.178378987356602e-09, 4e-08, 0))
hIsland = hIsland.sub(rect(4.090128451028794e-09, -4.661795770913292e-10).transl(-2.4389160577589456e-08, 4e-08, 0))
hIsland = hIsland.add(rect(8.31467008052756e-09, 1.7397528068228262e-09).transl(-1.2044779622149488e-07, 3.181948113209241e-08, 0))
hIsland = hIsland.add(rect(7.798612173770844e-09, 3.2743586769384356e-09).transl(1.1786375337667831e-07, 3.2823617064793875e-08, 0))
hIsland = hIsland.add(rect(2.8131754714728558e-09, 3.364778721223152e-10).transl(-4.852042415732998e-09, 4e-08, 0))
hIsland = hIsland.add(rect(5.88033748973809e-09, 4.832809046634477e-10).transl(-3.6726175261960073e-08, 4e-08, 0))
hIsland = hIsland.sub(rect(5.703000551109834e-09, -2.036868356921079e-09).transl(8.803901398614345e-08, 3.9390860943073586e-08, 0))
hIsland = hIsland.add(rect(3.4932267558936306e-09, 2.7463371507936996e-10).transl(-1.1495175738599877e-08, 4e-08, 0))
hIsland = hIsland.sub(rect(4.842288385974499e-09, -1.8324410101859038e-09).transl(2.4983311175552074e-08, 4e-08, 0))
hIsland = hIsland.sub(rect(5.550985670853636e-09, -2.2980876774246072e-10).transl(9.09313753379858e-08, 3.9087152871487013e-08, 0))
hIsland = hIsland.sub(rect(4.534811599475867e-09, -5.464979850843134e-10).transl(4.575797450040927e-08, 4e-08, 0))
hIsland = hIsland.add(rect(7.225267851209381e-09, 3.745760106187432e-09).transl(-7.991799618935023e-08, 3.991391024931413e-08, 0))
hIsland = hIsland.sub(rect(9.725104244640353e-09, -3.741676471020828e-09).transl(-1.4600433102212918e-07, 1.2881793952084977e-08, 0))
hIsland = hIsland.sub(rect(2.7444839929705663e-09, -3.347434116797314e-09).transl(8.727154289738474e-08, 3.946093376350446e-08, 0))
hIsland = hIsland.add(rect(9.50058246189397e-09, 5.858979753799114e-10).transl(7.63443440645687e-08, 3.9993573667017376e-08, 0))
hIsland = hIsland.add(rect(8.683251689627868e-09, 1.6050467040727025e-09).transl(-1.4202498923345204e-07, 1.7949268306765913e-08, 0))
hIsland = hIsland.sub(rect(8.92648452869663e-09, -2.821575379087396e-10).transl(2.464302498535136e-09, 4e-08, 0))
hIsland = hIsland.sub(rect(8.424450659721234e-09, -1.6580666282911854e-09).transl(-7.48260083876618e-08, 4e-08, 0))
hIsland = hIsland.sub(rect(6.18464684538581e-09, -1.8306007395519906e-09).transl(-9.704516723030665e-08, 3.823300950251817e-08, 0))
hIsland = hIsland.sub(rect(5.807873383467266e-09, -3.975418520055588e-09).transl(3.378914061176774e-08, 4e-08, 0))
hIsland = hIsland.add(rect(7.62582284772506e-09, 2.8494081912460673e-09).transl(8.598937488735743e-08, 3.956827870534946e-08, 0))
hIsland = hIsland.add(rect(3.5897124947271934e-09, 2.249526971264871e-10).transl(8.385431714042085e-09, 4e-08, 0))
hIsland = hIsland.sub(rect(3.817784920550603e-09, -2.938139285226817e-09).transl(6.28767013763557e-08, 4e-08, 0))
hIsland = hIsland.add(rect(4.715372309993256e-09, 2.010532192668964e-09).transl(4.0197132568351354e-08, 4e-08, 0))
hIsland = hIsland.add(rect(7.662200394412683e-09, 2.9417730968738475e-09).transl(-1.9863047827985276e-08, 4e-08, 0))
hIsland = hIsland.sub(rect(5.032709257427912e-09, -7.608774410393082e-10).transl(-7.519415922681435e-08, 3.999986596313416e-08, 0))
hIsland = hIsland.add(rect(3.4002335755426014e-09, 5.437131478636189e-10).transl(-9.021743598182479e-08, 3.9167985628679516e-08, 0))
hIsland = hIsland.add(rect(7.77415641441622e-09, 6.769869695449293e-10).transl(-7.568534874599381e-08, 3.999832991036653e-08, 0))
hIsland = hIsland.sub(rect(6.246209285542626e-09, -2.5544605259623953e-09).transl(-7.960822965325983e-08, 3.9924423605141215e-08, 0))
hIsland = hIsland.add(rect(9.312539378038296e-09, 5.45246943286712e-09).transl(-8.376875536093879e-08, 3.9725668806782035e-08, 0))
hIsland = hIsland.add(rect(5.117246702755272e-09, 1.088744826095473e-09).transl(-1.3585075217062332e-07, 2.3382795333059217e-08, 0))
hIsland = hIsland.sub(rect(8.770881916806631e-09, -2.583121752439858e-09).transl(-4.331196580342358e-09, 4e-08, 0))
hIsland = hIsland.sub(rect(4.8227707149778455e-09, -1.509172262000326e-09).transl(5.7130403592605044e-08, 4e-08, 0))
hIsland = hIsland.sub(rect(3.749505149707304e-09, -1.1775362786032648e-09).transl(2.2204368343545568e-08, 4e-08, 0))
hIsland = hIsland.sub(rect(3.952868439031508e-09, -2.8964347620484323e-09).transl(5.171669544153029e-08, 4e-08, 0))
hIsland = hIsland.sub(rect(5.882695149294518e-09, -1.9979826380031545e-09).transl(2.7408750677562642e-09, 4e-08, 0))
hIsland = hIsland.sub(rect(4.633822639936419e-09, -1.541149229101339e-10).transl(1.573944999018601e-08, 4e-08, 0))
hIsland = hIsland.sub(rect(5.1258642772713e-09, -2.311029855038597e-09).transl(-8.768917988646207e-08, 3.94233445609621e-08, 0))
hIsland = hIsland.sub(rect(5.153230077751855e-09, -2.9808008988772585e-10).transl(8.49070092073555e-08, 3.9649490667216724e-08, 0))
hIsland = hIsland.add(rect(4.579822628739658e-09, 2.9994521808580453e-10).transl(5.718042885813999e-09, 4e-08, 0))
hIsland = hIsland.sub(rect(8.621190530076293e-09, -2.5099311091534435e-09).transl(1.192716716654567e-07, 3.2287680597235296e-08, 0))
hIsland = hIsland.sub(rect(7.639717002135711e-09, -2.4623612109323545e-09).transl(8.357487068262733e-08, 3.973770568435408e-08, 0))
hIsland = hIsland.add(rect(3.1654871355121205e-09, 1.2227854384514834e-09).transl(3.03007974288746e-08, 4e-08, 0))
hIsland = hIsland.add(rect(2.725834951724631e-09, 1.730913510592433e-09).transl(8.307341268445506e-08, 3.9767573640849916e-08, 0))
hIsland = hIsland.add(rect(7.3917573913760305e-09, 4.399817069275607e-09).transl(1.4805680058639416e-07, 9.046312652643446e-09, 0))
hIsland = hIsland.sub(rect(4.037825629663913e-09, -1.3988439915384741e-09).transl(-1.0994613348519574e-07, 3.539247479864312e-08, 0))
hIsland = hIsland.add(rect(3.6084833615432246e-09, 1.9851804697363726e-11).transl(-1.2533935911210795e-07, 2.9651361681129744e-08, 0))
hIsland = hIsland.add(rect(6.173964242923899e-09, 8.038520215024903e-10).transl(-7.507958656335948e-08, 3.9999977479029865e-08, 0))
hIsland = hIsland.sub(rect(9.541315775979772e-09, -1.287237035851207e-10).transl(-5.54877830233105e-08, 4e-08, 0))
hIsland = hIsland.add(rect(2.0722691063327927e-09, 2.337461341440258e-09).transl(-1.5380937551982182e-08, 4e-08, 0))
hIsland = hIsland.add(rect(4.206415442206241e-09, 2.01913259890561e-09).transl(-1.472457546846958e-07, 1.0740424060008158e-08, 0))
hIsland = hIsland.add(rect(7.488793269680208e-09, 1.0478326608260687e-10).transl(1.0482340289019993e-08, 4e-08, 0))
hIsland = hIsland.sub(rect(2.6415980829310986e-09, -1.3086333294425318e-09).transl(-1.0892768204324224e-07, 3.56732326065388e-08, 0))
hIsland = hIsland.add(rect(3.728246579892541e-09, 2.4227328454903003e-09).transl(-5.425340785853729e-08, 4e-08, 0))
hIsland = hIsland.sub(rect(9.235413290022237e-09, -3.0315601444158365e-10).transl(4.923120552517742e-08, 4e-08, 0))
hIsland = hIsland.add(rect(7.78491953864776e-09, 2.2679299184380614e-09).transl(7.594590129784968e-08, 3.999681861387492e-08, 0))
hIsland = hIsland.add(rect(5.5375087044425044e-09, 7.16882901549717e-10).transl(1.8138764569834313e-08, 4e-08, 0))
hIsland = hIsland.add(rect(2.2307889805196546e-09, 3.504183997676423e-10).transl(-1.0522406734770372e-07, 3.660821815382346e-08, 0))
hIsland = hIsland.add(rect(6.906121272242338e-09, 7.350896424762524e-11).transl(-2.0328733645769323e-08, 4e-08, 0))
hIsland = hIsland.sub(rect(9.389797415814173e-09, -1.60663985776925e-09).transl(9.743149501646186e-08, 3.8169038878528684e-08, 0))
hIsland = hIsland.add(rect(3.2557362022696924e-09, 4.735474790661787e-12).transl(1.1882851830808267e-07, 3.2459198518670656e-08, 0))
hIsland = hIsland.add(rect(8.144687363931794e-09, 1.4535265997471775e-10).transl(-1.0703115560311359e-07, 3.616851451664458e-08, 0))
hIsland = hIsland.add(rect(4.34857448420111e-09, 9.643439581554413e-10).transl(-9.54085785494833e-08, 3.8490596541766324e-08, 0))
hIsland = hIsland.add(rect(8.953822799626425e-09, 5.150244115722363e-09).transl(-1.4553884157508788e-07, 1.3589766913487678e-08, 0))
hIsland = hIsland.sub(rect(5.9660461773864505e-09, -1.697031918119086e-09).transl(-6.124525142442647e-08, 4e-08, 0))
hIsland = hIsland.add(rect(9.600415757953237e-09, 3.5261693828707495e-09).transl(-1.2934868452056352e-07, 2.7564720722659062e-08, 0))
hIsland = hIsland.add(rect(3.414694240345999e-09, 3.0036713243330214e-09).transl(1.3687231488310118e-07, 2.2607399542274576e-08, 0))
hIsland = hIsland.sub(rect(7.921758912186532e-09, -2.07615358699219e-09).transl(1.0175843307826292e-07, 3.7367551020671045e-08, 0))
hIsland = hIsland.add(rect(7.616318628904803e-09, 1.075128996510771e-10).transl(-1.7014989631490442e-09, 4e-08, 0))
hIsland = hIsland.add(rect(7.268992525639089e-09, 1.3806602347727015e-09).transl(-6.883811998495521e-08, 4e-08, 0))
hIsland = hIsland.sub(rect(2.049195749304126e-09, -3.197120614464009e-10).transl(4.543608761077665e-08, 4e-08, 0))
hIsland = hIsland.add(rect(9.984629709909598e-09, 2.4908453282078148e-09).transl(-6.297652762122529e-09, 4e-08, 0))
hIsland = hIsland.sub(rect(7.126033544922221e-09, -8.621432957046378e-10).transl(7.539987224115289e-09, 4e-08, 0))
hIsland = hIsland.sub(rect(7.6392764369713e-09, -9.710901064615466e-10).transl(-2.8242142558290514e-09, 4e-08, 0))
hIsland = hIsland.sub(rect(5.612167619173867e-09, -1.3198958681408299e-09).transl(1.279859945128899e-07, 2.8309323212658338e-08, 0))
hIsland = hIsland.sub(rect(8.859203719696943e-09, -6.325549344962335e-10).transl(4.875222249618912e-08, 4e-08, 0))
hIsland = hIsland.sub(rect(8.667098420627741e-09, -8.171644644551085e-10).transl(5.033989161254605e-08, 4e-08, 0))
hIsland = hIsland.add(rect(8.41156673997298e-09, 6.648306910179959e-10).transl(-6.121068122728021e-09, 4e-08, 0))
hIsland = hIsland.sub(rect(2.0588426435851047e-09, -1.9280157678998857e-09).transl(2.3337679807783923e-08, 4e-08, 0))
hIsland = hIsland.add(rect(8.682296115041042e-09, 1.3151472210075055e-09).transl(-5.6291644064151024e-08, 4e-08, 0))
hIsland = hIsland.add(rect(9.766051836827386e-09, 2.0449262053978836e-09).transl(6.443888433920556e-08, 4e-08, 0))
hIsland = hIsland.sub(rect(9.326182811153954e-09, -3.061755483495232e-10).transl(4.5146459176103546e-08, 4e-08, 0))
hIsland = hIsland.sub(rect(2.2753604000586165e-09, -5.142432812558735e-10).transl(-5.3996811736239125e-08, 4e-08, 0))
hIsland = hIsland.sub(rect(6.887367141855673e-09, -3.3940323618865925e-09).transl(2.262966375124401e-08, 4e-08, 0))
hIsland = hIsland.add(rect(3.904601458881933e-09, 1.4561704180580063e-09).transl(6.471003906312641e-08, 4e-08, 0))
hIsland = hIsland.add(rect(6.0854178535608814e-09, 2.4479608368298823e-09).transl(-3.821567555622822e-08, 4e-08, 0))
hIsland = hIsland.sub(rect(9.755312406498363e-09, -1.0138466494151226e-09).transl(5.5069630271844515e-08, 4e-08, 0))
hIsland = hIsland.add(rect(7.365593106769751e-09, 2.9907253728318073e-09).transl(9.774078896489967e-09, 4e-08, 0))
hIsland = hIsland.sub(rect(5.033045398411473e-09, -3.365154991365464e-09).transl(9.801228088212563e-08, 3.807056812642882e-08, 0))
hIsland = hIsland.sub(rect(2.052734493848342e-09, -1.4125693060886112e-09).transl(-1.0665178983414206e-08, 4e-08, 0))
hIsland = hIsland.add(rect(9.970646214008603e-09, 1.386315114539404e-09).transl(1.1411207117452717e-08, 4e-08, 0))
hIsland = hIsland.sub(rect(7.409019969827899e-09, -2.888848187125055e-09).transl(-1.0992879393574387e-07, 3.5397343193989255e-08, 0))
hIsland = hIsland.add(rect(7.596325123331721e-09, 9.763265429454284e-10).transl(7.92388681930471e-09, 4e-08, 0))
hIsland = hIsland.sub(rect(2.0447699457186134e-09, -4.143862941178776e-09).transl(1.287479754634359e-07, 2.78977441182171e-08, 0))
hIsland = hIsland.add(rect(9.50092096337711e-09, 3.0060259455856277e-10).transl(1.3441723691268177e-07, 2.4408913243629664e-08, 0))
hIsland = hIsland.sub(rect(4.993312602202223e-09, -1.7958416636814852e-09).transl(1.3012116310295067e-07, 2.7124902228467833e-08, 0))
hIsland = hIsland.sub(rect(7.282571324511468e-09, -3.0923288083897326e-09).transl(2.8150153193187856e-08, 4e-08, 0))
hIsland = hIsland.sub(rect(2.397843082437646e-09, -8.466072305962833e-10).transl(1.4115721829364437e-07, 1.884276907338594e-08, 0))
hIsland = hIsland.add(rect(5.927585061621031e-09, 4.766411885647235e-10).transl(3.631989576667238e-08, 4e-08, 0))
hIsland = hIsland.add(rect(7.296285381705985e-09, 1.628635386718144e-09).transl(-2.4424760365886666e-08, 4e-08, 0))
hIsland = hIsland.sub(rect(7.936955310809923e-09, -2.4662360804834758e-09).transl(3.3677940670778374e-09, 4e-08, 0))
hIsland = hIsland.sub(rect(7.95242606088355e-09, -3.2342114910204474e-10).transl(1.0831655996992445e-07, 3.5836693624353944e-08, 0))
hIsland = hIsland.sub(rect(4.693810958357539e-09, -1.7083219732139332e-09).transl(-9.701897465769926e-08, 3.823730257347661e-08, 0))
hIsland = hIsland.sub(rect(3.0600802831299605e-09, -2.758318775560236e-09).transl(-1.2893616704651967e-07, 2.7794240218442972e-08, 0))
hIsland = hIsland.add(rect(8.746034979664225e-09, 2.4087839702212643e-09).transl(1.0214965616757572e-07, 3.7287194994699944e-08, 0))
hIsland = hIsland.sub(rect(6.925177419811154e-09, -1.0929966024981917e-09).transl(2.825445668002388e-08, 4e-08, 0))
hIsland = hIsland.sub(rect(6.770332655727881e-09, -1.3758802084063978e-09).transl(1.251117697550427e-07, 2.9760814956667483e-08, 0))
hIsland = hIsland.add(rect(4.642130267318798e-09, 5.861910418651708e-10).transl(-5.808887176107548e-08, 4e-08, 0))
hIsland = hIsland.sub(rect(9.79269566446861e-09, -1.244939398021362e-09).transl(1.2672031328358915e-09, 4e-08, 0))
hIsland = hIsland.sub(rect(9.538572814360773e-09, -4.139038067759524e-10).transl(5.3200629525910374e-08, 4e-08, 0))
hIsland = hIsland.sub(rect(4.481765869754228e-09, -2.9191246017220076e-09).transl(-2.250928664283571e-08, 4e-08, 0))
hIsland = hIsland.add(rect(8.758939207944176e-09, 7.951499159194635e-10).transl(-3.9220958447163844e-08, 4e-08, 0))
hIsland = hIsland.add(rect(5.632269962477508e-09, 3.392830965449647e-10).transl(-6.637416370043053e-08, 4e-08, 0))
hIsland = hIsland.sub(rect(5.390849046250603e-09, -3.045014529422926e-10).transl(-6.160809014034662e-08, 4e-08, 0))
hIsland = hIsland.sub(rect(3.0419530686899155e-09, -1.168266732998659e-09).transl(-4.404288194962016e-08, 4e-08, 0))
hIsland = hIsland.sub(rect(3.310320836131854e-09, -2.7555509187461865e-09).transl(-3.410565128380849e-08, 4e-08, 0))
hIsland = hIsland.add(rect(9.910051575465112e-09, 1.1039295387431623e-09).transl(7.857075086950578e-08, 3.995464001682058e-08, 0))
hIsland = hIsland.add(rect(6.112880332846017e-09, 5.197895073530094e-10).transl(-9.937787791034692e-08, 3.78280331318012e-08, 0))
hIsland = hIsland.sub(rect(3.241354405572181e-09, -4.6183827497640136e-10).transl(7.171809825177365e-08, 4e-08, 0))
hIsland = hIsland.sub(rect(4.83156853313572e-09, -1.2318808623039637e-09).transl(-5.9934430475475e-08, 4e-08, 0))
hIsland = hIsland.sub(rect(4.474160628370012e-09, -3.403943472574072e-09).transl(9.651578332943866e-10, 4e-08, 0))
hIsland = hIsland.add(rect(4.535112826985269e-09, 2.8049391310147584e-09).transl(-1.4895389750338868e-07, 6.657509317298146e-09, 0))
hIsland = hIsland.add(rect(2.392883751103007e-09, 2.9298346097290496e-09).transl(1.005759949772242e-07, 3.76023393349817e-08, 0))
hIsland = hIsland.sub(rect(2.78831059255032e-09, -2.1858244178838326e-09).transl(-8.954806874394966e-08, 3.924026483841788e-08, 0))
hIsland = hIsland.sub(rect(6.742990172105637e-09, -2.7228263921892216e-09).transl(-1.1097836610117694e-07, 3.509705014841876e-08, 0))
hIsland = hIsland.sub(rect(8.124482382113269e-09, -2.4904813513629867e-09).transl(1.543961430611976e-08, 4e-08, 0))
hIsland = hIsland.sub(rect(7.455698970308293e-09, -2.516160540967761e-09).transl(1.2913970764254858e-07, 2.768144919201543e-08, 0))
hIsland = hIsland.sub(rect(4.934464748787942e-09, -2.21904452979072e-09).transl(1.495772232010834e-07, 4.241183218243895e-09, 0))
hIsland = hIsland.add(rect(8.575985151889783e-09, 1.9336527053103704e-09).transl(-2.843692063542181e-08, 4e-08, 0))
hIsland = hIsland.add(rect(8.397825655722106e-09, 1.1762111625426953e-10).transl(-8.558724176291375e-09, 4e-08, 0))
hIsland = hIsland.sub(rect(6.320897046614503e-09, -2.0971324604130423e-09).transl(-8.722370025213956e-08, 3.946515727616698e-08, 0))
hIsland = hIsland.sub(rect(3.4141686378470537e-09, -3.0766348558393395e-09).transl(-3.26065838619557e-08, 4e-08, 0))
hIsland = hIsland.add(rect(5.44530013179806e-09, 1.4712709522818302e-09).transl(1.3950911167758884e-08, 4e-08, 0))
hIsland = hIsland.add(rect(2.3972599051181796e-09, 4.081911659913264e-10).transl(8.741409206459027e-08, 3.9448249101579493e-08, 0))
hIsland = hIsland.sub(rect(4.653236796907271e-09, -8.628474071607919e-10).transl(-4.694903330623995e-08, 4e-08, 0))
hIsland = hIsland.add(rect(5.235957303257827e-09, 3.818239262017747e-10).transl(9.664927860960777e-08, 3.8297302433794887e-08, 0))
hIsland = hIsland.add(rect(6.490848829287907e-09, 1.020608137571958e-09).transl(1.3184486650828318e-07, 2.6093363456459352e-08, 0))
hIsland = hIsland.add(rect(2.1281580076993872e-09, 1.1606862289276364e-09).transl(1.034548488675534e-07, 3.7009343016125626e-08, 0))
hIsland = hIsland.add(rect(2.0056924162268086e-09, 7.176700004076411e-10).transl(-9.429010527371356e-08, 3.8654312834884956e-08, 0))
hIsland = hIsland.add(rect(7.142739824956747e-09, 2.8517611771705315e-09).transl(5.521443470938466e-08, 4e-08, 0))
hIsland = hIsland.add(rect(8.057112962090908e-09, 1.0184675339911782e-09).transl(-6.190452240610129e-08, 4e-08, 0))
hIsland = hIsland.add(rect(8.465638442542015e-09, 1.2978067066478933e-09).transl(-3.997679005768699e-10, 4e-08, 0))
hIsland = hIsland.add(rect(9.60250628169294e-09, 2.1996160446302366e-09).transl(-6.805050335609834e-08, 4e-08, 0))
hIsland = hIsland.add(rect(7.471177972790989e-09, 1.0305120750594011e-09).transl(-3.297023629794562e-08, 4e-08, 0))
hIsland = hIsland.sub(rect(2.074362425944256e-09, -2.251452429923851e-09).transl(-1.2957963247613502e-07, 2.7434615441994842e-08, 0))
hIsland = hIsland.sub(rect(7.733902356844598e-09, -3.190305686359723e-09).transl(-1.4325613499179035e-07, 1.6577146558222817e-08, 0))
hIsland = hIsland.sub(rect(6.624803107214219e-09, -1.4074502526256466e-09).transl(-2.983173624944887e-08, 4e-08, 0))
hIsland = hIsland.add(rect(3.6830845182384336e-09, 8.217260757168849e-10).transl(3.888947950118928e-08, 4e-08, 0))
hIsland = hIsland.sub(rect(2.653381819223588e-09, -9.507832536953445e-10).transl(-2.297034151537568e-08, 4e-08, 0))
hIsland = hIsland.add(rect(6.106815396545168e-09, 3.80334308316296e-09).transl(-1.4323066851853547e-07, 1.660694043730968e-08, 0))
hIsland = hIsland.sub(rect(4.784422679874534e-09, -2.6208939634850173e-09).transl(-3.839422473656006e-08, 4e-08, 0))
hIsland = hIsland.add(rect(5.5174584261058495e-09, 5.030140044790143e-10).transl(-2.6576980748716795e-08, 4e-08, 0))
hIsland = hIsland.add(rect(8.25659550166222e-09, 8.165023953267375e-10).transl(8.657017497950475e-08, 3.952115536212603e-08, 0))
hIsland = hIsland.sub(rect(9.845273907308632e-09, -5.443017622910309e-10).transl(1.369234402997407e-07, 2.2567548249884522e-08, 0))
hIsland = hIsland.sub(rect(5.441539847439991e-09, -2.4346818101669744e-09).transl(7.69061942400331e-08, 3.998707852990252e-08, 0))
hIsland = hIsland.sub(rect(7.03806859913381e-09, -4.794092365228115e-09).transl(8.061662557148654e-08, 3.9887677022143757e-08, 0))
hIsland = hIsland.add(rect(7.051984301307046e-09, 1.3756067242069509e-09).transl(-1.2502463061733792e-07, 2.980248499872523e-08, 0))
hIsland = hIsland.sub(rect(8.717018112932665e-09, -2.419461798778043e-10).transl(-1.1158578867623476e-07, 3.491798163213811e-08, 0))
hIsland = hIsland.sub(rect(3.197857438202265e-09, -7.924975340365614e-10).transl(-1.420082415294862e-07, 1.796704592006237e-08, 0))
hIsland = hIsland.sub(rect(4.314787694484053e-09, -1.0466657896461209e-09).transl(-4.730287784612609e-08, 4e-08, 0))
hIsland = hIsland.sub(rect(9.025722823856493e-09, -2.924171373522678e-09).transl(-4.979611086433551e-08, 4e-08, 0))
hIsland = hIsland.sub(rect(2.639733971248055e-09, -4.189509606044448e-09).transl(6.164929804037382e-08, 4e-08, 0))
hIsland = hIsland.sub(rect(7.775885563909436e-09, -1.1373399909814373e-09).transl(-3.728017296236559e-08, 4e-08, 0))
hIsland = hIsland.sub(rect(3.5130465376150053e-09, -1.895733723178955e-09).transl(-1.0173546599707729e-07, 3.7372226818369575e-08, 0))
hIsland = hIsland.add(rect(8.332760006153905e-09, 5.073152544401172e-10).transl(-9.604793065783167e-08, 3.839253488557257e-08, 0))
vIsland = hIsland.rotz(pi / 2)
hIslands = hIslands.add(hIsland.transl(-a/2, a, 0))
hIsland = rect(islandLength-2*ellipseConstant, islandWidth)
hIsland = hIsland.add(ellipse(ellipseConstant*2, islandWidth).transl(islandLength/2-ellipseConstant, 0, 0))
hIsland = hIsland.add(ellipse(ellipseConstant*2, islandWidth).transl(-islandLength/2+ellipseConstant, 0, 0))
hIsland = hIsland.sub(rect(7.2844077952983015e-09, -3.2954271555080404e-10).transl(1.1463919824431395e-07, -3.395676817517439e-08, 0))
hIsland = hIsland.add(rect(2.9993848723387845e-09, 9.918729089010802e-10).transl(1.4305079960484348e-07, -1.681555828274015e-08, 0))
hIsland = hIsland.sub(rect(8.013677346569758e-09, -2.6849457004048025e-09).transl(3.50311804541836e-08, -4e-08, 0))
hIsland = hIsland.add(rect(6.859803956358288e-09, 2.5656609609485385e-09).transl(9.237741452118059e-08, -3.891150242576266e-08, 0))
hIsland = hIsland.add(rect(4.301817118915202e-09, 1.3703486541700664e-09).transl(-8.423399582872709e-08, -3.969567189092776e-08, 0))
hIsland = hIsland.sub(rect(9.116294590898669e-09, -3.550293881358589e-09).transl(-1.308978618695727e-07, -2.6668954773356576e-08, 0))
hIsland = hIsland.sub(rect(6.233162646745307e-09, -1.6240485828434837e-09).transl(6.97103051295193e-08, -4e-08, 0))
hIsland = hIsland.add(rect(9.630970745526124e-09, 7.742842941572076e-10).transl(1.344898478877558e-10, -4e-08, 0))
hIsland = hIsland.add(rect(3.552890414127771e-09, 2.999499423994124e-09).transl(8.502959579543427e-09, -4e-08, 0))
hIsland = hIsland.add(rect(3.221624336240197e-09, 4.688964984300963e-10).transl(8.99636334444529e-09, -4e-08, 0))
hIsland = hIsland.add(rect(8.86825337873149e-09, 1.2753744402756185e-09).transl(-3.862583044503283e-08, -4e-08, 0))
hIsland = hIsland.add(rect(3.5648958071282995e-09, 1.296535630110028e-09).transl(1.3707780113120524e-07, -2.2446596656630776e-08, 0))
hIsland = hIsland.add(rect(6.01463562603437e-09, 4.62236014519912e-10).transl(-5.906231826043119e-08, -4e-08, 0))
hIsland = hIsland.add(rect(8.173966299023985e-09, 1.3924874661850975e-09).transl(9.038994733801702e-08, -3.914880837350486e-08, 0))
hIsland = hIsland.add(rect(7.057440261149222e-09, 5.576597400505592e-10).transl(2.0663881612646408e-08, -4e-08, 0))
hIsland = hIsland.sub(rect(5.8125846730430115e-09, -1.1739702308703506e-09).transl(1.036717487932248e-07, -3.696169624251244e-08, 0))
hIsland = hIsland.add(rect(4.403235378722956e-09, 1.2031368619413078e-10).transl(-7.483391171802119e-08, -4e-08, 0))
hIsland = hIsland.add(rect(5.5336277587905705e-09, 6.274745305612696e-10).transl(1.0419213451933937e-07, -3.6845650071079966e-08, 0))
hIsland = hIsland.sub(rect(5.212096214620747e-09, -5.036988770936878e-10).transl(9.384324559575686e-08, -3.8716958908740715e-08, 0))
hIsland = hIsland.sub(rect(3.0538319819096227e-09, -4.4734703979410007e-10).transl(8.429464463023487e-08, -3.969164553553357e-08, 0))
hIsland = hIsland.sub(rect(2.235637624033936e-09, -2.129154235419099e-09).transl(-2.831919935337702e-08, -4e-08, 0))
hIsland = hIsland.sub(rect(4.864336384137072e-09, -1.3095750507264526e-09).transl(3.1993180307501446e-10, -4e-08, 0))
hIsland = hIsland.add(rect(9.428221173092908e-09, 1.9820007343470683e-09).transl(-2.966379511433848e-08, -4e-08, 0))
hIsland = hIsland.sub(rect(3.623259062045559e-09, -9.196204820336155e-10).transl(-3.748197180571025e-08, -4e-08, 0))
hIsland = hIsland.sub(rect(9.352574618615145e-09, -2.5195940324918745e-09).transl(8.975160365882147e-08, -3.921864477955209e-08, 0))
hIsland = hIsland.add(rect(2.0527875825941504e-09, 1.8158941544849798e-09).transl(-1.9145628544342103e-08, -4e-08, 0))
hIsland = hIsland.sub(rect(9.128742849525928e-09, -5.432137966009741e-09).transl(8.123869823907957e-08, -3.986137273847559e-08, 0))
hIsland = hIsland.add(rect(2.665465808988457e-09, 1.4202675122883618e-09).transl(-9.626975619391042e-09, -4e-08, 0))
hIsland = hIsland.sub(rect(5.070674124977062e-09, -1.2716757896687356e-09).transl(-1.398151612231663e-08, -4e-08, 0))
hIsland = hIsland.sub(rect(9.510906923313103e-09, -1.0098639406054443e-09).transl(-3.231481060627361e-08, -4e-08, 0))
hIsland = hIsland.add(rect(2.546274607395152e-09, 1.8760465129000496e-09).transl(-6.388467596714612e-08, -4e-08, 0))
hIsland = hIsland.sub(rect(2.2980560659440025e-09, -1.8931930955603317e-09).transl(-7.319178549764774e-08, -4e-08, 0))
hIsland = hIsland.add(rect(7.068371414715466e-09, 2.0038511541544793e-09).transl(-1.4120325057689014e-07, -1.8796724919862902e-08, 0))
hIsland = hIsland.add(rect(4.4853375937076555e-09, 3.4845384869950544e-09).transl(2.0445961793334434e-08, -4e-08, 0))
hIsland = hIsland.sub(rect(3.376636278238425e-09, -3.0409978170819222e-09).transl(-2.5938577326446292e-08, -4e-08, 0))
hIsland = hIsland.add(rect(7.166384058049216e-09, 3.647369025109246e-09).transl(1.429255162132235e-08, -4e-08, 0))
hIsland = hIsland.sub(rect(4.1494185816225555e-09, -1.0388257426297282e-09).transl(8.269512551851928e-08, -3.9788900896175166e-08, 0))
hIsland = hIsland.sub(rect(4.918590735792472e-09, -6.581722448705889e-10).transl(-7.450678574988783e-08, -4e-08, 0))
hIsland = hIsland.add(rect(9.36399320343663e-09, 1.4765496068056503e-09).transl(-1.0612503066618697e-07, -3.63928489816857e-08, 0))
hIsland = hIsland.sub(rect(7.51158977400601e-09, -2.745740647716198e-10).transl(-4.3295237979871646e-08, -4e-08, 0))
hIsland = hIsland.add(rect(4.8383077994853205e-09, 2.5490366707110444e-09).transl(-1.222086882871522e-07, -3.1081666193948985e-08, 0))
hIsland = hIsland.sub(rect(8.03743778018005e-09, -4.129440280129127e-10).transl(7.273891808865009e-08, -4e-08, 0))
hIsland = hIsland.sub(rect(2.473928000240596e-09, -2.667381294070182e-09).transl(-9.961832288896681e-08, -3.7783714504803536e-08, 0))
hIsland = hIsland.sub(rect(4.169680102397029e-09, -2.3276530901070171e-10).transl(7.452744692189403e-08, -4e-08, 0))
hIsland = hIsland.sub(rect(4.6625257706222e-09, -1.6777235554273584e-09).transl(8.200908412902021e-08, -3.982494223133305e-08, 0))
hIsland = hIsland.sub(rect(4.092686701493368e-09, -2.028640014273357e-09).transl(1.1020480815928658e-07, -3.531947998094229e-08, 0))
hIsland = hIsland.add(rect(9.697463328539127e-09, 1.448645636461462e-09).transl(1.6310574423292258e-08, -4e-08, 0))
hIsland = hIsland.add(rect(3.826489027933e-09, 8.958860274640054e-10).transl(3.912600955416991e-08, -4e-08, 0))
hIsland = hIsland.add(rect(7.080779777132475e-09, 2.7650875995117274e-09).transl(-2.7804852612711204e-08, -4e-08, 0))
hIsland = hIsland.sub(rect(4.616995294642359e-09, -4.628807746094449e-10).transl(-1.1457969873634509e-07, -3.3976504082031655e-08, 0))
hIsland = hIsland.add(rect(8.595873529042755e-09, 4.333650251502792e-09).transl(4.608737636236342e-09, -4e-08, 0))
hIsland = hIsland.add(rect(5.1342860039857185e-09, 1.093534340066726e-09).transl(6.711575791500556e-08, -4e-08, 0))
hIsland = hIsland.sub(rect(2.8897969252737988e-09, -1.816722951755979e-09).transl(-9.867221677859024e-08, -3.795529966089617e-08, 0))
hIsland = hIsland.sub(rect(5.411143290533423e-09, -2.427407922649013e-10).transl(-1.4494606202624721e-07, -1.4435003452149738e-08, 0))
hIsland = hIsland.sub(rect(3.5151873392122026e-09, -1.604255504125843e-09).transl(-6.360292496808616e-08, -4e-08, 0))
hIsland = hIsland.add(rect(9.886456063234402e-09, 5.8168839166575654e-11).transl(-1.2580162873114283e-07, -2.9426250500669937e-08, 0))
hIsland = hIsland.add(rect(4.17299173081115e-09, 1.0518703932435887e-09).transl(-4.569603506844349e-08, -4e-08, 0))
hIsland = hIsland.add(rect(2.8425094466811807e-09, 1.0382717912165983e-09).transl(-1.1351482822740629e-07, -3.43228406246891e-08, 0))
hIsland = hIsland.sub(rect(3.239779163599928e-09, -2.630997321907016e-09).transl(-1.0076236770701895e-07, -3.7566132870991025e-08, 0))
hIsland = hIsland.sub(rect(3.4665564803319618e-09, -5.755481779619898e-10).transl(9.586141821963056e-08, -3.842148002883588e-08, 0))
hIsland = hIsland.add(rect(6.953378765900866e-09, 2.674435269342858e-10).transl(1.555378283011943e-08, -4e-08, 0))
hIsland = hIsland.add(rect(7.2218505789677885e-09, 2.2401226215278886e-09).transl(1.77698670436713e-08, -4e-08, 0))
hIsland = hIsland.sub(rect(6.1489798991318065e-09, -2.284382741100033e-09).transl(-3.84878861391472e-08, -4e-08, 0))
hIsland = hIsland.sub(rect(4.097278913149821e-09, -4.2918057338187873e-10).transl(-1.219087494479085e-07, -3.121057017635276e-08, 0))
hIsland = hIsland.add(rect(3.963742614247015e-09, 3.852681288492896e-09).transl(4.3186905537257594e-08, -4e-08, 0))
hIsland = hIsland.add(rect(7.603049619313626e-09, 1.333087245692251e-09).transl(4.069970796684373e-08, -4e-08, 0))
hIsland = hIsland.sub(rect(7.404749556357348e-09, -7.685365392418719e-10).transl(3.943429767540128e-08, -4e-08, 0))
hIsland = hIsland.add(rect(3.4442594318453746e-09, 3.823101527772955e-09).transl(-1.4618351639313449e-07, -1.2597362618180543e-08, 0))
hIsland = hIsland.add(rect(5.249171322444918e-09, 4.264580535930873e-11).transl(-1.47764516803541e-07, -9.693252186322647e-09, 0))
hIsland = hIsland.sub(rect(6.700419799764363e-09, -4.046708510459933e-10).transl(3.794415873526203e-08, -4e-08, 0))
hIsland = hIsland.sub(rect(5.781709278154423e-09, -3.1330388253622567e-10).transl(8.744857230899652e-08, -3.944515827423814e-08, 0))
hIsland = hIsland.sub(rect(6.368939313228314e-09, -2.216801354000564e-09).transl(5.2825912950497914e-08, -4e-08, 0))
hIsland = hIsland.sub(rect(8.125860090354228e-09, -3.191356844302474e-09).transl(-9.037130098216771e-08, -3.9150892073923374e-08, 0))
hIsland = hIsland.sub(rect(6.004640584804776e-09, -4.552767240157496e-10).transl(1.0728650451842641e-07, -3.610387631160488e-08, 0))
hIsland = hIsland.add(rect(7.167097875820039e-09, 4.474938376692509e-10).transl(-1.778715413197978e-08, -4e-08, 0))
hIsland = hIsland.sub(rect(9.82408921971834e-09, -1.8503377659616776e-09).transl(-6.956199790533955e-08, -4e-08, 0))
hIsland = hIsland.add(rect(6.0869630324527356e-09, 7.205567288605643e-10).transl(-1.1676791558264846e-07, -3.322303341454327e-08, 0))
hIsland = hIsland.sub(rect(5.892859556714111e-09, -5.383470923062658e-10).transl(-1.3920199049810958e-07, -2.067727497940798e-08, 0))
hIsland = hIsland.sub(rect(4.58276517592688e-09, -4.811437883686229e-09).transl(1.1306193250585033e-07, -3.4466248534593706e-08, 0))
hIsland = hIsland.add(rect(3.778103082031052e-09, 1.8523117780986433e-09).transl(-2.2261357261455104e-08, -4e-08, 0))
hIsland = hIsland.sub(rect(3.6168671820977826e-09, -9.301078051098296e-10).transl(-5.881937049177004e-08, -4e-08, 0))
hIsland = hIsland.sub(rect(7.099282786841918e-09, -1.5274311265536256e-09).transl(-1.1072798631198305e-07, -3.516972837362699e-08, 0))
hIsland = hIsland.add(rect(2.5228325982305073e-09, 6.064139779689794e-10).transl(1.1066816734282612e-07, -3.518699492444242e-08, 0))
hIsland = hIsland.add(rect(3.887485819043327e-09, 2.8294300998137237e-09).transl(-1.1096589617896492e-07, -3.51006853982344e-08, 0))
hIsland = hIsland.add(rect(3.953125032170029e-09, 2.693215588233762e-10).transl(-1.4333093032742152e-07, -1.648926566354951e-08, 0))
hIsland = hIsland.add(rect(6.1858534697021646e-09, 1.5303609004003234e-10).transl(1.2370476497319676e-08, -4e-08, 0))
hIsland = hIsland.sub(rect(2.3943816220147315e-09, -3.2451448751679277e-09).transl(2.240427568296924e-08, -4e-08, 0))
hIsland = hIsland.sub(rect(8.55216767638815e-09, -1.786397318395541e-09).transl(8.863695259900551e-08, -3.933322856053834e-08, 0))
hIsland = hIsland.sub(rect(2.9796378038422163e-09, -1.392953440242356e-10).transl(-1.0447198398896878e-07, -3.67822262769068e-08, 0))
hIsland = hIsland.add(rect(6.898871720812404e-09, 8.282243476547892e-10).transl(-7.554600343120448e-08, -3.999894000463286e-08, 0))
hIsland = hIsland.sub(rect(6.299971082703796e-09, -9.928248687067334e-10).transl(1.3494183255249467e-07, -2.4041307919302958e-08, 0))
hIsland = hIsland.add(rect(8.691716885028527e-09, 1.2856592097667523e-09).transl(-1.340020262407353e-07, -2.4693741678337613e-08, 0))
hIsland = hIsland.sub(rect(7.73264011217435e-09, -1.5023074649366859e-09).transl(-9.961937097234081e-08, -3.778352025639872e-08, 0))
hIsland = hIsland.add(rect(7.713418698732166e-09, 1.8236052159524184e-09).transl(-3.282446648206003e-08, -4e-08, 0))
hIsland = hIsland.sub(rect(2.979002953382513e-09, -1.5941066604035537e-09).transl(6.949597168855237e-08, -4e-08, 0))
hIsland = hIsland.sub(rect(7.399959038851442e-09, -2.105006703997413e-09).transl(1.084161462741791e-07, -3.58103097981381e-08, 0))
hIsland = hIsland.add(rect(5.592931539306109e-09, 2.4127004018279553e-09).transl(-3.465035323638432e-08, -4e-08, 0))
hIsland = hIsland.sub(rect(8.239883658319936e-09, -3.0538693756740117e-09).transl(-9.690653627324288e-08, -3.825566826756713e-08, 0))
hIsland = hIsland.sub(rect(3.478026936549536e-09, -1.6134161680846076e-09).transl(-3.0758709296422165e-08, -4e-08, 0))
hIsland = hIsland.sub(rect(5.343614652284283e-09, -2.5420369197254505e-10).transl(-1.2145718415231294e-07, -3.140210343986795e-08, 0))
hIsland = hIsland.add(rect(3.998483082181715e-09, 6.629663070140019e-10).transl(6.144522077446624e-09, -4e-08, 0))
hIsland = hIsland.add(rect(9.508471264966594e-09, 4.186266750167338e-09).transl(9.600887259789762e-08, -3.839861950172339e-08, 0))
hIsland = hIsland.sub(rect(5.258325181173205e-09, -6.385383392729758e-10).transl(-1.2389937363232952e-07, -3.03290458900678e-08, 0))
hIsland = hIsland.add(rect(5.342216302178338e-09, 4.013973435133592e-09).transl(1.6156001857785825e-08, -4e-08, 0))
hIsland = hIsland.sub(rect(4.971517529434825e-09, -5.737972555349667e-10).transl(2.1165098795544755e-08, -4e-08, 0))
hIsland = hIsland.sub(rect(9.47896878186938e-09, -1.2328698073432864e-09).transl(-1.2259989653334376e-07, -3.091148584810494e-08, 0))
hIsland = hIsland.add(rect(6.564693924102709e-09, 3.8516078599628484e-10).transl(-6.299854095988151e-08, -4e-08, 0))
hIsland = hIsland.add(rect(5.0043635551706206e-09, 5.140940035820287e-10).transl(-8.801817055683862e-08, -3.939282185388015e-08, 0))
hIsland = hIsland.add(rect(5.821384115380134e-09, 2.0480466406333958e-10).transl(5.583244943998119e-08, -4e-08, 0))
hIsland = hIsland.add(rect(3.6056622848969576e-09, 9.280472094280436e-10).transl(-4.484085637502797e-09, -4e-08, 0))
hIsland = hIsland.sub(rect(6.879401611932429e-09, -1.502088917574624e-09).transl(1.3937345804161918e-08, -4e-08, 0))
hIsland = hIsland.add(rect(9.142922839070774e-09, 8.87342121916713e-12).transl(8.931542975535994e-09, -4e-08, 0))
hIsland = hIsland.add(rect(3.427264322264067e-09, 3.275426659161314e-09).transl(-1.7274286225528165e-08, -4e-08, 0))
hIsland = hIsland.sub(rect(4.734147024870304e-09, -5.212456414364249e-10).transl(-1.2555761309442055e-07, -2.9545548754759594e-08, 0))
hIsland = hIsland.add(rect(4.81825135154529e-09, 2.531153129791398e-09).transl(-4.5442905989735875e-08, -4e-08, 0))
hIsland = hIsland.add(rect(2.864295488123814e-09, 2.275788241873801e-09).transl(-9.358904653344826e-08, -3.875189631687128e-08, 0))
hIsland = hIsland.add(rect(6.249478038145006e-09, 1.4328880197066318e-09).transl(7.284630337384376e-08, -4e-08, 0))
hIsland = hIsland.add(rect(8.008284592548993e-09, 3.4295752442061555e-09).transl(-2.6682270277596705e-08, -4e-08, 0))
hIsland = hIsland.sub(rect(2.124059354129451e-09, -4.432321459543603e-10).transl(-8.834308252065884e-08, -3.9361886671482995e-08, 0))
hIsland = hIsland.sub(rect(7.193659359377146e-09, -5.946511256233499e-10).transl(1.3902314690835505e-07, -2.083441023743345e-08, 0))
hIsland = hIsland.sub(rect(9.146612589721925e-09, -3.1826856742910153e-10).transl(-5.879357061067536e-08, -4e-08, 0))
hIsland = hIsland.add(rect(3.534503536711701e-09, 1.5263621519956176e-10).transl(-1.324009297247111e-07, -2.5744775441612053e-08, 0))
hIsland = hIsland.add(rect(4.744004313523658e-09, 1.371486821569916e-09).transl(-7.635564908218199e-08, -3.9993465121537746e-08, 0))
hIsland = hIsland.add(rect(4.895366475195489e-09, 4.374902216421997e-10).transl(1.3020279573622287e-07, -2.7077640299775902e-08, 0))
hIsland = hIsland.sub(rect(8.690863342132052e-09, -3.443996429822442e-09).transl(7.504200854094957e-08, -3.999999372544835e-08, 0))
hIsland = hIsland.sub(rect(9.261593293843531e-09, -4.641344079438247e-09).transl(-4.069620744936934e-08, -4e-08, 0))
hIsland = hIsland.sub(rect(3.017846980016188e-09, -1.0951799770244953e-09).transl(2.439622963443325e-08, -4e-08, 0))
hIsland = hIsland.sub(rect(6.157178331469697e-09, -1.6269557598668897e-11).transl(-3.31525689281773e-08, -4e-08, 0))
hIsland = hIsland.sub(rect(4.467939857976105e-09, -2.220248441010896e-09).transl(1.3600336335182064e-07, -2.32694113209221e-08, 0))
hIsland = hIsland.add(rect(4.81767580455928e-09, 7.501689620361271e-10).transl(7.83585651557155e-08, -3.995987334904121e-08, 0))
hIsland = hIsland.sub(rect(2.1952762150615915e-09, -1.8233879151297111e-10).transl(-9.190671194288043e-08, -3.8970441097036024e-08, 0))
hIsland = hIsland.add(rect(4.557711957699606e-09, 1.987788952983835e-09).transl(1.4214232769151073e-07, -1.7824091219920525e-08, 0))
hIsland = hIsland.sub(rect(4.7332806722901925e-09, -5.851776554312839e-10).transl(-9.904206381411627e-08, -3.788911697887283e-08, 0))
hIsland = hIsland.sub(rect(3.2333195003558945e-09, -1.9827258039430547e-09).transl(-6.114594701591489e-08, -4e-08, 0))
hIsland = hIsland.sub(rect(4.273085269721587e-09, -5.625844633999886e-10).transl(1.4337330130641467e-07, -1.6439230420157634e-08, 0))
hIsland = hIsland.add(rect(3.0809853124808566e-09, 2.7143490363363535e-09).transl(1.3555196511409198e-07, -2.3602392471253567e-08, 0))
hIsland = hIsland.add(rect(9.36084755741777e-09, 1.0848607769204435e-09).transl(-6.024170793147195e-08, -4e-08, 0))
hIsland = hIsland.add(rect(6.8520327784721725e-09, 1.2918161024099338e-09).transl(1.0306147590831888e-08, -4e-08, 0))
hIsland = hIsland.add(rect(6.762354913226788e-09, 7.467331575462508e-10).transl(3.266308866800717e-08, -4e-08, 0))
hIsland = hIsland.sub(rect(3.231721053243505e-09, -4.25459631297211e-10).transl(1.2420278320900503e-07, -3.01891453610738e-08, 0))
hIsland = hIsland.sub(rect(9.376486687871648e-09, -9.374461544638429e-10).transl(-1.4591655345408236e-07, -1.3018604901607206e-08, 0))
hIsland = hIsland.sub(rect(2.5165162495377135e-09, -4.906859975529896e-09).transl(1.4038331490669556e-08, -4e-08, 0))
hIsland = hIsland.sub(rect(7.641876169883772e-09, -3.1413000244491374e-10).transl(1.4642046171301282e-07, -1.2209928476777454e-08, 0))
hIsland = hIsland.add(rect(9.361576898155236e-09, 7.443599817324504e-10).transl(1.4507572645040644e-07, -1.4254998966703236e-08, 0))
hIsland = hIsland.sub(rect(8.162503613761156e-09, -3.7541354899919427e-10).transl(-1.1550402050792773e-07, -3.366522483066833e-08, 0))
hIsland = hIsland.add(rect(2.5577007551830155e-09, 1.6948556587390297e-09).transl(-6.644548065815829e-11, -4e-08, 0))
hIsland = hIsland.add(rect(8.04054580818785e-09, 8.013532407040362e-10).transl(1.3616733301783102e-07, -2.3146650516035913e-08, 0))
hIsland = hIsland.add(rect(9.887539219104066e-09, 5.938203974735797e-10).transl(-8.731255504212186e-08, -3.945729974730332e-08, 0))
hIsland = hIsland.add(rect(6.130514725146081e-09, 1.2682430774968423e-09).transl(1.0801763953332929e-07, -3.5915299785122e-08, 0))
hIsland = hIsland.sub(rect(9.225191453296254e-09, -4.3614158283252694e-10).transl(4.3929089833819737e-10, -4e-08, 0))
hIsland = hIsland.add(rect(3.933597350668419e-09, 4.372726186521237e-09).transl(-4.287180579204678e-08, -4e-08, 0))
hIsland = hIsland.sub(rect(3.781091425544379e-09, -1.7873180887286116e-09).transl(6.41156204476745e-08, -4e-08, 0))
hIsland = hIsland.sub(rect(9.702679598114756e-09, -2.047651413453698e-09).transl(5.080898033743881e-08, -4e-08, 0))
hIsland = hIsland.sub(rect(5.904695994579231e-09, -2.2833819413693814e-10).transl(-6.763857936990009e-08, -4e-08, 0))
hIsland = hIsland.add(rect(9.306224976438951e-09, 1.3249672830732247e-09).transl(3.723060601779158e-08, -4e-08, 0))
hIsland = hIsland.add(rect(3.491108929064419e-09, 3.500294156371041e-09).transl(-6.585510817313083e-08, -4e-08, 0))
hIsland = hIsland.sub(rect(4.785112715473704e-09, -4.224973235599343e-09).transl(-1.383751948259743e-07, -2.139048797628074e-08, 0))
hIsland = hIsland.sub(rect(9.928440577815351e-09, -1.2870000854214178e-09).transl(1.7265571438019236e-08, -4e-08, 0))
hIsland = hIsland.sub(rect(8.50832396056277e-09, -1.023584722682026e-09).transl(-5.9069502259908585e-08, -4e-08, 0))
hIsland = hIsland.add(rect(3.825389441333896e-09, 8.80503664225782e-10).transl(1.3266441944916414e-07, -2.557673792889983e-08, 0))
hIsland = hIsland.add(rect(6.138564630231021e-09, 8.271295245131891e-10).transl(1.0939689051636222e-07, -3.554519195862861e-08, 0))
hIsland = hIsland.add(rect(2.225989396492681e-09, 2.8850871247871965e-09).transl(-3.955657028905933e-08, -4e-08, 0))
hIsland = hIsland.add(rect(4.470598560522813e-09, 1.1167062790569865e-09).transl(3.83274856022983e-08, -4e-08, 0))
hIsland = hIsland.sub(rect(4.846200522909715e-09, -2.2341942895403825e-09).transl(-3.7031278696942625e-08, -4e-08, 0))
hIsland = hIsland.add(rect(5.358072955500879e-09, 4.056966107567886e-09).transl(1.434717275137441e-07, -1.6322287693981725e-08, 0))
hIsland = hIsland.add(rect(4.491923631396775e-09, 1.79743526122084e-09).transl(-3.259911457317788e-08, -4e-08, 0))
hIsland = hIsland.add(rect(3.474282243753802e-09, 1.4069160793179745e-09).transl(5.2228944738386036e-08, -4e-08, 0))
hIsland = hIsland.add(rect(2.773023883628526e-09, 6.114091155387958e-11).transl(-7.27588753569876e-08, -4e-08, 0))
hIsland = hIsland.add(rect(4.623157776217382e-09, 7.516826659341908e-10).transl(1.0006108471881058e-07, -3.770082758265614e-08, 0))
hIsland = hIsland.add(rect(3.0030879068817642e-09, 1.88352486730847e-09).transl(-3.544638902065173e-08, -4e-08, 0))
hIsland = hIsland.add(rect(2.049480695756401e-09, 6.83475443965497e-10).transl(1.2131267167998444e-07, -3.146276333693996e-08, 0))
hIsland = hIsland.add(rect(7.455069341556527e-09, 4.124933464460248e-09).transl(8.365608398054019e-08, -3.973269694388559e-08, 0))
hIsland = hIsland.add(rect(9.122204790279653e-09, 2.2423808786512556e-09).transl(4.4854138329080304e-08, -4e-08, 0))
hIsland = hIsland.sub(rect(9.270763852997344e-09, -1.2557662774559368e-09).transl(1.0798380630846722e-07, -3.5924141395133855e-08, 0))
hIsland = hIsland.sub(rect(9.043299202123184e-09, -1.8996327894312478e-09).transl(-2.5040872677661514e-08, -4e-08, 0))
hIsland = hIsland.sub(rect(8.860622916733647e-09, -1.0146332758198373e-10).transl(-7.338700404808177e-08, -4e-08, 0))
hIsland = hIsland.sub(rect(3.899925248997877e-09, -2.2030017889147443e-09).transl(1.068343332835886e-08, -4e-08, 0))
hIsland = hIsland.add(rect(8.063637666599303e-09, 8.705995671210154e-10).transl(1.3986384138305198e-07, -2.0081130245547395e-08, 0))
hIsland = hIsland.sub(rect(7.003297709881148e-09, -3.261732668169533e-10).transl(-7.488531409154629e-08, -4e-08, 0))
hIsland = hIsland.sub(rect(8.40423208516792e-09, -2.0887845628454762e-10).transl(6.278318038460429e-08, -4e-08, 0))
hIsland = hIsland.add(rect(5.539032576502573e-09, 1.649786728514968e-09).transl(-9.753867235857399e-08, -3.815107558652822e-08, 0))
hIsland = hIsland.add(rect(7.126081115621284e-09, 1.4031938848452662e-09).transl(-6.304596899404663e-08, -4e-08, 0))
hIsland = hIsland.sub(rect(8.038833144584783e-09, -3.5862302693827353e-10).transl(1.278913847625767e-07, -2.835960278247231e-08, 0))
hIsland = hIsland.sub(rect(7.904577896069621e-09, -2.5336321333647304e-10).transl(2.092497948280469e-08, -4e-08, 0))
hIsland = hIsland.sub(rect(2.6263753978215743e-09, -9.765561486936014e-10).transl(-9.909379557777893e-08, -3.7879768680391726e-08, 0))
hIsland = hIsland.add(rect(2.96753124327641e-09, 1.7609472830893902e-09).transl(-5.3560478580351054e-08, -4e-08, 0))
hIsland = hIsland.sub(rect(3.439920682996179e-09, -2.148295569559698e-10).transl(-1.1071403687741306e-07, -3.517375817754556e-08, 0))
hIsland = hIsland.sub(rect(9.817163240891884e-09, -8.149693345812954e-10).transl(-1.2045338600522963e-07, -3.181720993719623e-08, 0))
hIsland = hIsland.add(rect(5.657291404656456e-09, 7.765503675493096e-10).transl(-1.0453883041324011e-07, -3.676697067630988e-08, 0))
hIsland = hIsland.sub(rect(3.197784714440059e-09, -2.087184695192259e-09).transl(-1.1348369809169481e-07, -3.433277143850796e-08, 0))
hIsland = hIsland.sub(rect(6.911573409877945e-09, -1.594487879218484e-09).transl(1.3870531881623249e-07, -2.110971031849449e-08, 0))
hIsland = hIsland.add(rect(9.620348996767699e-09, 7.512799624725789e-10).transl(-5.61477045058353e-08, -4e-08, 0))
hIsland = hIsland.sub(rect(8.160668910739966e-09, -2.136295049657833e-09).transl(1.1913109410030231e-07, -3.234237524051805e-08, 0))
hIsland = hIsland.add(rect(8.964978022946034e-09, 3.114650870902669e-09).transl(-1.035774514171042e-07, -3.698246270942757e-08, 0))
hIsland = hIsland.sub(rect(6.742078941634903e-09, -1.1388404938567284e-09).transl(-1.0609479740533039e-07, -3.640019955724134e-08, 0))
hIsland = hIsland.add(rect(5.4530934763760676e-09, 3.225595178201091e-09).transl(-3.713154846828445e-08, -4e-08, 0))
hIsland = hIsland.sub(rect(6.660878505062567e-09, -3.689792548592339e-09).transl(9.142556226702728e-08, -3.9028927042476735e-08, 0))
hIsland = hIsland.sub(rect(9.303911690725557e-09, -6.257484729495422e-10).transl(2.4519362875659828e-08, -4e-08, 0))
hIsland = hIsland.sub(rect(4.5582052910383445e-09, -9.44850422362553e-10).transl(1.1828855431082097e-07, -3.266465763913739e-08, 0))
hIsland = hIsland.add(rect(6.3148535337608815e-09, 5.316012947013322e-10).transl(-9.237545428676724e-08, -3.8911751418535173e-08, 0))
hIsland = hIsland.add(rect(9.864511954924397e-09, 2.9707900791690753e-09).transl(4.33602567526372e-08, 4e-08, 0))
hIsland = hIsland.sub(rect(6.838337032759876e-09, -1.3672956981078598e-09).transl(-8.54982443339484e-09, 4e-08, 0))
hIsland = hIsland.sub(rect(6.2672377299500755e-09, -7.014482501993064e-10).transl(-9.238457827567356e-08, 3.891059221933315e-08, 0))
hIsland = hIsland.sub(rect(3.515412309396094e-09, -5.957364493563298e-10).transl(-1.3142334945394856e-07, 2.635231052315246e-08, 0))
hIsland = hIsland.sub(rect(7.858857058452076e-09, -1.1274744397786082e-09).transl(-1.160601301060298e-07, 3.3473054224638526e-08, 0))
hIsland = hIsland.sub(rect(3.8957367125977955e-09, -1.6358578738876523e-09).transl(-3.937950946439437e-08, 4e-08, 0))
hIsland = hIsland.add(rect(4.518731462197694e-09, 1.2278998588652036e-09).transl(-7.246963183979864e-08, 4e-08, 0))
hIsland = hIsland.sub(rect(4.0280082053835874e-09, -1.1534159028151587e-09).transl(-5.8003928668141784e-08, 4e-08, 0))
hIsland = hIsland.sub(rect(7.388309362118332e-09, -8.34095194637068e-10).transl(-4.769496465724536e-08, 4e-08, 0))
hIsland = hIsland.add(rect(6.630560688072508e-09, 1.4378176713221263e-09).transl(9.781172283725149e-08, 3.810488561714719e-08, 0))
hIsland = hIsland.sub(rect(8.821070011897515e-09, -2.437847768525497e-09).transl(-1.404605346053731e-07, 1.9522611185487818e-08, 0))
hIsland = hIsland.sub(rect(6.570849498047439e-09, -2.9907718877244108e-09).transl(6.115779717083014e-08, 4e-08, 0))
hIsland = hIsland.sub(rect(5.832726765054661e-09, -1.762693625836949e-09).transl(-2.8138055936245287e-08, 4e-08, 0))
hIsland = hIsland.add(rect(4.146723029774482e-09, 2.032158154854786e-09).transl(9.060511485632249e-08, 3.912457284001353e-08, 0))
hIsland = hIsland.add(rect(8.606151343277201e-09, 2.5490988530904116e-09).transl(1.4354744273981591e-08, 4e-08, 0))
hIsland = hIsland.add(rect(6.9677647237377826e-09, 2.323246092636829e-09).transl(-8.295254534182698e-08, 3.977450045474506e-08, 0))
hIsland = hIsland.sub(rect(6.822841422970393e-09, -1.7357796100863338e-09).transl(4.013070466012977e-10, 4e-08, 0))
hIsland = hIsland.sub(rect(8.878429179720425e-09, -1.924996222948287e-09).transl(-1.0714694451281874e-07, 3.613928200377253e-08, 0))
hIsland = hIsland.sub(rect(9.65917685484932e-09, -1.9707684789711954e-09).transl(9.167718781686449e-09, 4e-08, 0))
hIsland = hIsland.add(rect(6.848101206604916e-09, 8.511768861407857e-10).transl(6.307585595583243e-08, 4e-08, 0))
hIsland = hIsland.sub(rect(2.6896405768709543e-09, -4.053199679792414e-09).transl(-1.0738141737609531e-07, 3.607968980882718e-08, 0))
hIsland = hIsland.sub(rect(2.713107531799537e-09, -5.928202446313192e-11).transl(9.951302095687263e-08, 3.780318360657808e-08, 0))
hIsland = hIsland.sub(rect(9.595775352670515e-09, -4.933238297639249e-09).transl(-9.829653353052934e-08, 3.802136110892864e-08, 0))
hIsland = hIsland.add(rect(5.607747261952817e-09, 4.613634408077951e-09).transl(1.340649731617597e-08, 4e-08, 0))
hIsland = hIsland.sub(rect(2.99055753469151e-09, -3.1811784212556146e-09).transl(-2.538093212592349e-08, 4e-08, 0))
hIsland = hIsland.add(rect(7.847476611542105e-09, 1.6560433779904176e-09).transl(2.1187499880743773e-08, 4e-08, 0))
hIsland = hIsland.add(rect(2.932143089549138e-09, 2.839024237682225e-09).transl(3.6280919379167234e-08, 4e-08, 0))
hIsland = hIsland.sub(rect(3.279442354682451e-09, -2.4447393569361346e-09).transl(-1.304642676777181e-07, 2.6925226560678005e-08, 0))
[...]
hIsland = hIsland.sub(rect(2.392611546918526e-09, -2.8179178811840158e-09).transl(-3.821771437695589e-08, 4e-08, 0))
hIsland = hIsland.sub(rect(2.6595139422112244e-09, -5.009928709554532e-09).transl(-1.4277001700433422e-07, 1.7135069548199058e-08, 0))
hIsland = hIsland.add(rect(9.683509549001648e-09, 5.911581813498501e-10).transl(9.544225360594975e-08, 3.8485513183282774e-08, 0))
hIsland = hIsland.add(rect(3.872990257752957e-09, 4.903590182634644e-09).transl(1.2705707661031814e-07, 2.8795361477262507e-08, 0))
hIsland = hIsland.add(rect(7.438410446602564e-09, 1.322707944901593e-09).transl(-1.1295001001913278e-07, 3.450133596969217e-08, 0))
hIsland = hIsland.add(rect(7.126675329373025e-09, 1.7413160889005424e-09).transl(6.490320102819735e-08, 4e-08, 0))
hIsland = hIsland.sub(rect(6.520938647521395e-09, -1.0172435026285583e-09).transl(-2.4964828277231948e-08, 4e-08, 0))
hIsland = hIsland.sub(rect(4.625823445828024e-09, -3.530684636795777e-11).transl(3.3262326358188967e-08, 4e-08, 0))
hIsland = hIsland.sub(rect(2.413824306983582e-09, -5.70935775509682e-10).transl(1.4262598640502725e-07, 1.729617319470956e-08, 0))
hIsland = hIsland.add(rect(4.062056546788704e-09, 3.071069547936965e-10).transl(4.8699972998504895e-08, 4e-08, 0))
hIsland = hIsland.add(rect(3.202210502072479e-09, 1.3450138291933678e-09).transl(-1.3239812464897893e-07, 2.5746554319963578e-08, 0))
hIsland = hIsland.add(rect(8.922705128787507e-09, 2.2822710485596566e-09).transl(4.923204474268503e-08, 4e-08, 0))
hIsland = hIsland.add(rect(6.52285620315501e-09, 1.9898698211386243e-09).transl(-1.4498312027550398e-07, 1.4383821791053717e-08, 0))
hIsland = hIsland.sub(rect(3.279630819137137e-09, -2.6988756098604614e-09).transl(8.715428651609275e-08, 3.947125493792061e-08, 0))
hIsland = hIsland.add(rect(6.416493339100413e-09, 5.167615393680903e-10).transl(1.1243720063650301e-07, 3.4660331763760784e-08, 0))
hIsland = hIsland.add(rect(9.579304604106117e-09, 4.49489025375248e-10).transl(-1.3621167600815515e-07, 2.3113282962876496e-08, 0))
hIsland = hIsland.sub(rect(6.3684333357772336e-09, -2.1119960029906097e-12).transl(1.0742956013982772e-08, 4e-08, 0))
hIsland = hIsland.sub(rect(2.7954146675457017e-09, -1.0359347795982658e-09).transl(5.1066195943134614e-08, 4e-08, 0))
hIsland = hIsland.sub(rect(3.56578415651512e-09, -8.651606998317595e-10).transl(-4.3983646110002506e-08, 4e-08, 0))
hIsland = hIsland.add(rect(6.803381684266043e-09, 3.199247377386015e-09).transl(1.1940149809037535e-09, 4e-08, 0))
hIsland = hIsland.sub(rect(7.701438564951216e-09, -5.60177311043045e-10).transl(1.4954935963176465e-07, 4.378305417296933e-09, 0))
hIsland = hIsland.add(rect(5.6204404240872445e-09, 1.8230476092960971e-09).transl(8.526385403696051e-08, 3.9623663593010234e-08, 0))
hIsland = hIsland.sub(rect(5.921179346429724e-09, -9.840751974692392e-10).transl(1.0469922579759693e-07, 3.6730198485079135e-08, 0))
hIsland = hIsland.add(rect(6.648850638234753e-09, 3.802128303513603e-09).transl(-1.1484767382361981e-07, 3.3887291948731066e-08, 0))
hIsland = hIsland.sub(rect(2.7732118938321364e-09, -1.1312217371740487e-09).transl(5.514077722919506e-08, 4e-08, 0))
hIsland = hIsland.add(rect(3.80261213720374e-09, 1.1155140699262787e-09).transl(-2.6754937792751066e-10, 4e-08, 0))
hIsland = hIsland.add(rect(7.580107428605914e-09, 1.462432910584442e-10).transl(1.1251638283569222e-07, 3.463597007680182e-08, 0))
hIsland = hIsland.add(rect(9.205025638971664e-09, 1.270977306818347e-09).transl(1.1711826433720253e-08, 4e-08, 0))
hIsland = hIsland.sub(rect(8.660270738713199e-09, -6.912419687157341e-10).transl(9.812192144003789e-08, 3.805166732693419e-08, 0))
hIsland = hIsland.sub(rect(9.742989253250615e-09, -3.9856311388172687e-10).transl(-2.3979078921227896e-08, 4e-08, 0))
hIsland = hIsland.sub(rect(3.9146629430271924e-09, -1.9415575032264884e-09).transl(1.4558771970209468e-07, 1.3517383860059625e-08, 0))
hIsland = hIsland.add(rect(6.650405226126365e-09, 1.0564646992832226e-10).transl(-5.178161786505063e-08, 4e-08, 0))
hIsland = hIsland.sub(rect(2.6536314227836056e-09, -3.075950263006773e-10).transl(5.7572714964396115e-08, 4e-08, 0))
hIsland = hIsland.add(rect(8.473955183587748e-09, 1.508202823695573e-09).transl(-1.330940253451158e-07, 2.5298694742690842e-08, 0))
hIsland = hIsland.add(rect(3.044858072809259e-09, 1.9679293141850602e-09).transl(-3.3535186051394136e-08, 4e-08, 0))
hIsland = hIsland.add(rect(3.891369674847815e-09, 2.275302134210306e-09).transl(-1.2272461033189803e-07, 3.085673997289075e-08, 0))
hIsland = hIsland.sub(rect(5.087865324339325e-09, -2.135339762562388e-09).transl(2.1444314824591568e-08, 4e-08, 0))
hIsland = hIsland.sub(rect(9.892350784021065e-09, -6.442483466677156e-10).transl(-9.41740380960104e-08, 3.867073546626616e-08, 0))
hIsland = hIsland.add(rect(9.086962245375603e-09, 1.5007749495746477e-09).transl(7.457718581669864e-08, 4e-08, 0))
hIsland = hIsland.sub(rect(8.446279137729296e-09, -1.8945387675062887e-09).transl(1.400725055909702e-07, 1.988817817825364e-08, 0))
hIsland = hIsland.add(rect(3.821481100792967e-09, 2.7441710521231356e-09).transl(3.6873265474805825e-08, 4e-08, 0))
hIsland = hIsland.sub(rect(9.992001119395529e-09, -4.024158399824112e-10).transl(9.28437725164618e-08, 3.885141988381256e-08, 0))
hIsland = hIsland.add(rect(5.915237117667263e-09, 2.1118474685009757e-10).transl(-9.742769686308672e-08, 3.8169673736486984e-08, 0))
hIsland = hIsland.add(rect(3.9226383109412225e-09, 1.2081609572362626e-09).transl(1.1108131230836333e-07, 3.506697653442347e-08, 0))
hIsland = hIsland.sub(rect(7.326126188954678e-09, -3.794350141758555e-09).transl(1.204280000421913e-07, 3.1827521003661586e-08, 0))
hIsland = hIsland.add(rect(4.543589267845154e-09, 1.2503873113249778e-09).transl(-8.781188817696052e-08, 3.941205418345046e-08, 0))
hIsland = hIsland.sub(rect(4.68221630810095e-09, -4.546350245284158e-09).transl(7.386919868406668e-09, 4e-08, 0))
hIsland = hIsland.sub(rect(8.8278990158121e-09, -2.6967192423720828e-09).transl(-5.3712504322235804e-08, 4e-08, 0))
hIsland = hIsland.add(rect(4.930697454177914e-09, 2.3675601270122077e-10).transl(-1.3943350911139007e-07, 2.0471407250104245e-08, 0))
hIsland = hIsland.sub(rect(8.900492642300867e-09, -2.918080334297494e-10).transl(9.85005856753248e-09, 4e-08, 0))
hIsland = hIsland.add(rect(5.690971577241405e-09, 1.9362639753012225e-09).transl(1.3357382587864012e-07, 2.4982024026539126e-08, 0))
hIsland = hIsland.sub(rect(9.663545965881689e-09, -4.236040709652252e-10).transl(5.840002014690644e-08, 4e-08, 0))
hIsland = hIsland.add(rect(8.750120627883512e-09, 3.340368979266788e-10).transl(-7.957857346083804e-08, 3.9925394122542415e-08, 0))
hIsland = hIsland.sub(rect(5.512793580166993e-09, -4.829365452387391e-10).transl(-3.961810182627957e-08, 4e-08, 0))
hIsland = hIsland.sub(rect(2.631455539194164e-09, -1.1325972389645764e-09).transl(-1.0459199417899304e-08, 4e-08, 0))
hIsland = hIsland.sub(rect(3.7081955148191366e-09, -2.2720293771160178e-10).transl(-5.969671291438082e-08, 4e-08, 0))
hIsland = hIsland.sub(rect(8.732531487087673e-09, -2.009367138235752e-09).transl(1.2547079814712373e-07, 2.958773816604941e-08, 0))
hIsland = hIsland.add(rect(3.4956799558317553e-09, 1.6121602654712586e-09).transl(-8.141770810254772e-08, 3.985328836026634e-08, 0))
hIsland = hIsland.add(rect(5.664895984009338e-09, 1.5360691687335543e-09).transl(7.246181276283976e-08, 4e-08, 0))
hIsland = hIsland.sub(rect(4.327060641596853e-09, -6.732659055045289e-10).transl(-1.0835303529355171e-07, 3.58270414537681e-08, 0))
hIsland = hIsland.add(rect(4.10140811139803e-09, 2.479954108615988e-09).transl(2.676155653237928e-08, 4e-08, 0))
hIsland = hIsland.add(rect(2.4816301847015145e-09, 3.3082822814397396e-10).transl(-4.4956284260056155e-08, 4e-08, 0))
hIsland = hIsland.sub(rect(9.900610075598032e-09, -3.953347169764379e-09).transl(1.456408457227351e-07, 1.3438210627727268e-08, 0))
hIsland = hIsland.add(rect(4.503510144858298e-09, 8.671696967267465e-10).transl(-9.712246821559621e-08, 3.822030697028862e-08, 0))
hIsland = hIsland.sub(rect(3.125807712225472e-09, -2.4732454294405654e-09).transl(-4.922585187939511e-08, 4e-08, 0))
hIsland = hIsland.add(rect(9.822887544715776e-09, 2.429873213592016e-09).transl(1.1166065733020966e-07, 3.489563850897158e-08, 0))
hIsland = hIsland.sub(rect(3.4052587911419866e-09, -1.002136533544399e-09).transl(3.044977881652735e-08, 4e-08, 0))
hIsland = hIsland.sub(rect(5.2762593688598656e-09, -1.7108436095723042e-09).transl(-1.338569540416552e-08, 4e-08, 0))
hIsland = hIsland.add(rect(8.157963261753338e-09, 7.235668485539904e-10).transl(6.1686599515486745e-09, 4e-08, 0))
hIsland = hIsland.sub(rect(8.68788311762498e-09, -2.386230728175278e-09).transl(-1.7577655736108814e-08, 4e-08, 0))
hIsland = hIsland.add(rect(8.3132834412379e-09, 5.690981286738666e-10).transl(1.2788343009910935e-07, 2.8363822069747583e-08, 0))
hIsland = hIsland.sub(rect(2.587079691886543e-09, -7.929634477421686e-10).transl(3.2360513297197724e-08, 4e-08, 0))
hIsland = hIsland.add(rect(2.9051036665766186e-09, 9.663015438772707e-11).transl(-1.2444097819156028e-07, 3.0078249005592545e-08, 0))
hIsland = hIsland.add(rect(6.71859840172308e-09, 2.1506512249339995e-09).transl(9.740980612569295e-08, 3.817266256962009e-08, 0))
hIsland = hIsland.add(rect(7.600918340732661e-09, 5.786692373844307e-10).transl(-1.201967125059461e-07, 3.192104561319387e-08, 0))
hIsland = hIsland.sub(rect(8.953047283034237e-09, -6.802913797032972e-10).transl(5.77303852047943e-08, 4e-08, 0))
hIsland = hIsland.sub(rect(7.854720188771407e-09, -2.7056625321138595e-09).transl(-5.4548605856940325e-08, 4e-08, 0))
hIsland = hIsland.add(rect(4.879221716710544e-09, 2.4785941506679888e-09).transl(4.3034906265129324e-08, 4e-08, 0))
hIsland = hIsland.sub(rect(4.44638424759393e-09, -8.656106821931755e-10).transl(1.2250678538895323e-08, 4e-08, 0))
hIsland = hIsland.add(rect(2.5330517666573763e-09, 8.25444584390539e-10).transl(9.70411245239587e-08, 3.823367248335705e-08, 0))
hIsland = hIsland.add(rect(7.969050986295306e-09, 1.1196886638621618e-09).transl(-2.91575975483547e-08, 4e-08, 0))
hIsland = hIsland.sub(rect(2.000231751603921e-09, -4.74970383863437e-10).transl(1.0683644702669268e-07, 3.6217380787919545e-08, 0))
hIsland = hIsland.sub(rect(8.95653640978832e-09, -8.219930204254797e-10).transl(-1.2701219777869028e-07, 2.8818420194401594e-08, 0))
hIsland = hIsland.add(rect(5.866266908212833e-09, 2.6728738395508725e-10).transl(2.0087641009147435e-08, 4e-08, 0))
hIsland = hIsland.sub(rect(7.895135227260684e-09, -9.10410374828072e-11).transl(-3.062658337424229e-08, 4e-08, 0))
hIsland = hIsland.add(rect(5.221905717078558e-09, 2.6515332517898905e-10).transl(-4.572356539001037e-08, 4e-08, 0))
hIsland = hIsland.sub(rect(3.670485127520569e-09, -1.1552187492260707e-09).transl(1.1946925357499123e-07, 3.221035521104771e-08, 0))
hIsland = hIsland.add(rect(8.193772262354146e-09, 4.839091012605779e-10).transl(6.774529580942118e-08, 4e-08, 0))
hIsland = hIsland.add(rect(3.805919349914326e-09, 4.260310989339361e-10).transl(6.425700283057989e-08, 4e-08, 0))
hIsland = hIsland.sub(rect(3.996103689909348e-09, -4.144285967398664e-10).transl(7.298561986819676e-08, 4e-08, 0))
hIsland = hIsland.sub(rect(9.009574655970788e-09, -1.0836866516934858e-09).transl(1.8248821872003273e-08, 4e-08, 0))
hIsland = hIsland.add(rect(6.350377817703006e-09, 4.056659923349904e-09).transl(-3.895260322007926e-09, 4e-08, 0))
hIsland = hIsland.sub(rect(8.89764046536489e-09, -7.373678936727651e-10).transl(2.028617411137358e-08, 4e-08, 0))
hIsland = hIsland.add(rect(3.2812476195035264e-09, 1.5246598810371011e-09).transl(-2.970266062911974e-08, 4e-08, 0))
hIsland = hIsland.sub(rect(9.77315497186114e-09, -2.947867548057538e-09).transl(-1.495242289619868e-07, 4.498352808537712e-09, 0))
hIsland = hIsland.add(rect(5.450004536641065e-09, 1.9285857030675306e-10).transl(5.0449600241767036e-08, 4e-08, 0))
hIsland = hIsland.sub(rect(3.30259890421568e-09, -8.458790399173004e-10).transl(1.2895878936691782e-07, 2.7781747741487658e-08, 0))
hIsland = hIsland.sub(rect(8.79707285230156e-09, -2.196510466427149e-09).transl(-4.9888465954569784e-09, 4e-08, 0))
hIsland = hIsland.sub(rect(2.129940563998037e-09, -2.3407149440800104e-09).transl(-1.3218619745393347e-07, 2.5880347286749636e-08, 0))
hIsland = hIsland.add(rect(4.363120862691532e-09, 7.238463451331529e-10).transl(1.4156715161402861e-07, 1.8427529751093787e-08, 0))
hIsland = hIsland.add(rect(9.992232928409517e-09, 9.319687728159293e-10).transl(1.303540183189051e-07, 2.698968444760748e-08, 0))
hIsland = hIsland.sub(rect(2.045224191405129e-09, -2.749348888261889e-10).transl(-4.5203039553810106e-08, 4e-08, 0))
hIsland = hIsland.add(rect(4.095189010855894e-09, 4.537160597532038e-10).transl(1.2531911294267932e-07, 2.9661135053606244e-08, 0))
hIsland = hIsland.add(rect(4.764364713643046e-09, 2.142377184363584e-09).transl(5.147067130780372e-08, 4e-08, 0))
hIsland = hIsland.add(rect(3.859437565140571e-09, 2.9110930183178607e-09).transl(-4.2770845101701406e-08, 4e-08, 0))
hIsland = hIsland.add(rect(6.8770826479675445e-09, 1.8026907543385474e-10).transl(1.0093142903610617e-07, 3.753303157020818e-08, 0))
hIsland = hIsland.add(rect(9.420264013885337e-09, 5.793857974379614e-10).transl(-1.0829559403010849e-07, 3.5842235716704775e-08, 0))
hIsland = hIsland.add(rect(4.122104390516498e-09, 2.7599266934624866e-10).transl(-9.334585502010607e-08, 3.8784847821980975e-08, 0))
hIsland = hIsland.add(rect(3.853024272659068e-09, 1.6939478279503064e-09).transl(5.085486672900219e-08, 4e-08, 0))
hIsland = hIsland.sub(rect(3.27632354638045e-09, -3.3740558635858838e-09).transl(8.269235822955513e-08, 3.978905310043424e-08, 0))
hIsland = hIsland.sub(rect(8.143921627735356e-09, -1.3526754123052487e-09).transl(9.098565862771647e-08, 3.908084827734192e-08, 0))
hIsland = hIsland.add(rect(9.425729771215423e-09, 1.1173700888917563e-09).transl(-2.5562528040954556e-08, 4e-08, 0))
hIsland = hIsland.sub(rect(3.215437767576103e-09, -3.1912244812470147e-09).transl(4.6404946028155786e-08, 4e-08, 0))
hIsland = hIsland.sub(rect(3.0360202395585443e-09, -4.22126298895719e-09).transl(1.4142955689776452e-07, 1.856822783424139e-08, 0))
hIsland = hIsland.add(rect(5.787331982103713e-09, 4.149646093181842e-09).transl(6.678847579838473e-08, 4e-08, 0))
hIsland = hIsland.add(rect(9.86957278032798e-09, 2.0737061783952463e-09).transl(-3.6311431039892064e-09, 4e-08, 0))
hIsland = hIsland.sub(rect(6.6027714646339214e-09, -4.552379417303792e-10).transl(8.425154471296822e-08, 3.96945096067528e-08, 0))
hIsland = hIsland.sub(rect(5.266779730209928e-09, -1.1648968539067647e-10).transl(-9.929496444956224e-08, 3.7843202880261866e-08, 0))
hIsland = hIsland.sub(rect(6.952755223325884e-09, -2.735767449082482e-09).transl(-1.1273540036082335e-07, 3.4568227660988604e-08, 0))
hIsland = hIsland.add(rect(6.420256587180288e-09, 4.964157264414308e-10).transl(-9.68762177645467e-08, 3.826060289728619e-08, 0))
hIsland = hIsland.sub(rect(2.8265613748579316e-09, -2.3482498743403044e-09).transl(-6.4313624753417e-08, 4e-08, 0))
hIsland = hIsland.sub(rect(4.17836742971079e-09, -3.0692392456304976e-09).transl(1.262469422574735e-07, 2.920578772112643e-08, 0))
hIsland = hIsland.sub(rect(5.217786446656228e-09, -6.81791948699775e-10).transl(1.090554673132107e-07, 3.563858142513193e-08, 0))
hIsland = hIsland.sub(rect(9.186163868841329e-09, -1.798797855971306e-09).transl(-8.042459511408132e-08, 3.989523620363103e-08, 0))
hIsland = hIsland.sub(rect(9.243335068987973e-09, -1.5852862083952372e-09).transl(8.524686891319815e-08, 3.96249140122977e-08, 0))
hIsland = hIsland.add(rect(2.505550317091724e-09, 4.295758819710957e-10).transl(-9.943296294430003e-08, 3.7817922887482135e-08, 0))
hIsland = hIsland.add(rect(2.4705209269707667e-09, 1.0039862836383785e-09).transl(3.531576017816417e-10, 4e-08, 0))
hIsland = hIsland.sub(rect(4.841013723732853e-09, -1.4960370504749148e-09).transl(1.1961899171052708e-08, 4e-08, 0))
hIsland = hIsland.sub(rect(5.82183855669998e-09, -1.754287757647282e-09).transl(1.1531910561132831e-07, 3.3728304121346814e-08, 0))
hIsland = hIsland.add(rect(5.873503481377588e-09, 1.8232605989019935e-10).transl(3.0045053494623734e-08, 4e-08, 0))
hIsland = hIsland.add(rect(3.859388507650003e-09, 2.2919669362418893e-09).transl(6.988183867097293e-08, 4e-08, 0))
hIsland = hIsland.sub(rect(6.681270013701702e-09, -9.019135863069406e-10).transl(7.549736396311778e-08, 3.999912044931012e-08, 0))
hIsland = hIsland.sub(rect(8.944325802162556e-09, -1.288047233696151e-09).transl(-1.3885848797592892e-07, 2.097765847111331e-08, 0))
hIsland = hIsland.add(rect(4.956818706946293e-09, 8.29547623864719e-10).transl(-1.4071249538586368e-07, 1.9280335267995757e-08, 0))
hIsland = hIsland.add(rect(8.98591309133698e-09, 6.34015308626385e-10).transl(-1.0888027981135424e-07, 3.568604488865379e-08, 0))
hIsland = hIsland.sub(rect(2.1754891014747626e-09, -9.067694518142601e-10).transl(3.268780888919756e-09, 4e-08, 0))
hIsland = hIsland.add(rect(8.091302855188202e-09, 1.6910171366604147e-09).transl(-1.1409812729565967e-07, 3.4134735146099637e-08, 0))
hIsland = hIsland.sub(rect(3.2004574721420723e-09, -5.369726741934839e-10).transl(1.0195321429792464e-07, 3.732771096334314e-08, 0))
hIsland = hIsland.sub(rect(3.1598056523338375e-09, -9.167825160309264e-10).transl(-6.548999228627613e-08, 4e-08, 0))
hIsland = hIsland.sub(rect(7.850349559392031e-09, -2.386034179689559e-09).transl(-8.042530119653905e-08, 3.9895208893261426e-08, 0))
hIsland = hIsland.sub(rect(7.38243034221767e-09, -5.370671085119468e-10).transl(-7.487990817439411e-08, 4e-08, 0))
hIsland = hIsland.add(rect(2.975707662980109e-09, 3.740943230090312e-09).transl(1.377187454878963e-07, 2.1933938565425392e-08, 0))
hIsland = hIsland.add(rect(7.105831972565008e-09, 2.6336407263438867e-09).transl(2.468926436931139e-08, 4e-08, 0))
hIsland = hIsland.add(rect(3.259354808323077e-09, 6.789795807964404e-10).transl(-3.2240528297436386e-08, 4e-08, 0))
hIsland = hIsland.add(rect(9.818262972574488e-09, 2.7308146097518227e-09).transl(-5.416932059088593e-08, 4e-08, 0))
hIsland = hIsland.sub(rect(6.918869811911629e-09, -4.890272814566551e-10).transl(9.024895564793171e-08, 3.916449857859847e-08, 0))
hIsland = hIsland.sub(rect(2.3056695344628066e-09, -7.287655094158161e-10).transl(1.5499745494859916e-09, 4e-08, 0))
hIsland = hIsland.add(rect(5.438823045534736e-09, 1.9634870660868465e-09).transl(-1.3476228054027982e-07, 2.4168121222984193e-08, 0))
hIsland = hIsland.add(rect(4.567846638867595e-09, 1.2833839093787702e-09).transl(-7.144408467778804e-08, 4e-08, 0))
hIsland = hIsland.sub(rect(6.876556920674585e-09, -1.223394364756956e-09).transl(1.2403465049146714e-07, 3.026685721492871e-08, 0))
hIsland = hIsland.sub(rect(5.610679082856344e-09, -9.558614221293716e-11).transl(-1.1361013344032344e-08, 4e-08, 0))
hIsland = hIsland.add(rect(7.242954921931136e-09, 1.1001029094928348e-09).transl(2.858240935128427e-08, 4e-08, 0))
hIsland = hIsland.add(rect(6.962336432336535e-09, 1.084766698485727e-09).transl(-3.762351749522102e-08, 4e-08, 0))
hIsland = hIsland.add(rect(4.1231125614389535e-09, 5.680939478594815e-10).transl(1.329536587735719e-07, 2.539010304336969e-08, 0))
vIsland = hIsland.rotz(pi / 2)
vIslands = vIslands.add(vIsland.transl(0, -a/2, 0))
DefRegion(1, hIslands)
DefRegion(2, vIslands)
TableAdd(m_full.Region(1))
TableAdd(m_full.Region(2))
setgeom(hIslands.add(vIslands))
save(m)
r2o2 := sqrt(2) / 2
m = RandomMagSeed(4)
B_ext = vector(Bmax*r2o2, Bmax*r2o2, 0)
relax()
minimize()
for B := Bmax; B >= -Bmax; B -= Bstep {
	B_ext = vector(B*r2o2, B*r2o2, 0)
	minimize()
	tablesave()
}
//********************************************************************//
//Please cite the following references, relevant for your simulation. //
//See bibtex file in output folder for justification.                 //
//********************************************************************//
//   * Vansteenkiste et al., AIP Adv. 4, 107133 (2014).
//   * Exl et al., J. Appl. Phys. 115, 17D118 (2014).
