# t (s)	mx ()	my ()	mz ()	B_extx (T)	B_exty (T)	B_extz (T)	m_fullx (A/m)	m_fully (A/m)	m_fullz (A/m)	m_full.region1x (A/m)	m_full.region1y (A/m)	m_full.region1z (A/m)	m_full.region2x (A/m)	m_full.region2y (A/m)	m_full.region2z (A/m)
0	0.6574273	0.65742433	-9.1760716e-10	0.07071067	0.07071067	0	158158.2	158157.48	-0.00021986607	617814.7	302581.03	-0.0006708358	302583.4	617812.9	-0.00062351546
0	0.6572265	0.6572262	-7.0789363e-10	0.070357196	0.070357196	0	158109.92	158109.86	-0.00016948342	617998.6	302118.47	-0.00043794536	302118.5	617998.3	-0.00057526724
0	0.65702105	0.6570209	-4.658825e-10	0.07000352	0.07000352	0	158060.5	158060.47	-0.000112244896	618190.6	301638.94	-0.00032660333	301638.84	618190.3	-0.00033402612
0	0.6568153	0.6568151	-3.300554e-10	0.069650054	0.069650054	0	158011	158010.97	-8.0357146e-05	618382.44	301159.12	-0.00028113867	301159	618382.1	-0.00021897268
0	0.6566084	0.6566083	-4.6013086e-11	0.0692964	0.0692964	0	157961.22	157961.19	-1.4668367e-05	618574.4	300677.4	-3.5258312e-05	300677.28	618574.1	-4.0825416e-05
0	0.6563995	0.65639937	-3.6633496e-10	0.06894299	0.06894299	0	157910.95	157910.94	-8.960459e-05	618767	300192.3	-0.00028856145	300192.22	618766.75	-0.0002560867
0	0.65619004	0.65619	-9.202617e-11	0.06858932	0.06858932	0	157860.58	157860.55	-2.0089286e-05	618960.2	299706	-2.783551e-06	299705.94	618959.8	-0.00012618765
0	0.65597993	0.6559797	-2.0396186e-10	0.068235844	0.068235844	0	157810.03	157810	-4.5121174e-05	619152.94	299219.03	-6.355775e-05	299218.97	619152.75	-0.00023010689
0	0.65576714	0.6557671	-5.862244e-11	0.06788219	0.067882195	0	157758.84	157758.81	-1.171875e-05	619346.9	298727.2	-7.422803e-06	298727.1	619346.56	-9.6496435e-05
0	0.6555549	0.65555483	-1.6016094e-10	0.067528725	0.067528725	0	157707.78	157707.75	-4.049745e-05	619540.3	298236.66	-0.00020041567	298236.56	619540.06	-1.4845606e-05
0	0.65534	0.65533984	6.99045e-11	0.06717506	0.06717506	0	157656.1	157656.05	2.2321428e-05	619734.5	297741.56	0.00011412559	297741.5	619734.3	1.1134204e-05
0	0.6551248	0.6551246	-2.8160893e-10	0.066821575	0.066821575	0	157604.3	157604.27	-6.760204e-05	619929.3	297245.44	-0.00026861267	297245.34	619929.06	-0.00015959026
0	0.65490764	0.6549075	-2.601509e-10	0.06646809	0.06646809	0	157552.06	157552.03	-6.584822e-05	620124.25	296746.6	-0.00016794092	296746.47	620123.94	-0.00020041567
0	0.6546901	0.65468997	2.521871e-11	0.06611443	0.06611443	0	157499.75	157499.69	6.218112e-06	620319.4	296246.8	-2.597981e-05	296246.72	620319	8.165083e-05
0	0.6544703	0.65447015	-1.451182e-10	0.06576097	0.06576097	0	157446.86	157446.81	-3.786671e-05	620515.3	295743.25	-5.9382422e-05	295743.12	620515.06	-0.00015587886
0	0.6542498	0.65424967	-1.6635501e-10	0.06540731	0.06540731	0	157393.81	157393.77	-3.9540817e-05	620711.3	295238.4	-8.165083e-05	295238.38	620711.1	-0.00014474466
0	0.6540285	0.6540284	1.0441431e-10	0.0650539	0.0650539	0	157340.58	157340.53	2.1364796e-05	620907.75	294732.25	0.00012989905	294732.16	620907.44	2.9691211e-05
0	0.65380543	0.6538054	-4.183209e-10	0.064700246	0.064700246	0	157286.92	157286.89	-9.749681e-05	621104.25	294223.53	-0.00019299287	294223.4	621104	-0.00036371735
0	0.65358216	0.65358204	-2.5838118e-10	0.06434676	0.06434676	0	157233.19	157233.16	-6.664541e-05	621300.4	293714.72	-0.00018371436	293714.62	621300.06	-0.00020041567
0	0.6533554	0.6533552	-7.5302187e-10	0.063993126	0.063993126	0	157178.66	157178.6	-0.00017897003	621498.3	293199.3	-0.00026118988	293199.2	621498	-0.0008090855
0	0.6531285	0.6531284	-3.274008e-11	0.06363964	0.06363964	0	157124.05	157124.02	-7.4936224e-06	621696.1	292683.8	-2.597981e-05	292683.75	621695.8	-3.340261e-05
0	0.6529007	0.6529005	-1.9555561e-10	0.063285984	0.063285984	0	157069.23	157069.2	-4.336735e-05	621893.9	292167.16	-9.2785034e-05	292167.06	621893.56	-0.00017072447
0	0.6526715	0.65267146	1.1293116e-10	0.06293249	0.06293249	0	157014.12	157014.1	2.6426977e-05	622092.2	291648.12	0.00011690915	291648.03	622091.94	5.5671022e-05
0	0.65244067	0.6524405	-2.3670194e-11	0.062579	0.062579	0	156958.58	156958.55	-7.653061e-06	622290.56	291126.44	3.154691e-05	291126.38	622290.1	-5.4279244e-05
0	0.65220964	0.65220946	-3.3890407e-10	0.062225346	0.062225346	0	156903	156902.97	-8.195153e-05	622489.06	290604.47	-0.0001623738	290604.38	622488.75	-0.00031175773
0	0.6519751	0.6519749	-2.1789851e-11	0.061871875	0.061871883	0	156846.58	156846.55	-1.5146684e-06	622688.8	290076.3	-1.8557008e-05	290076.28	622688.56	-7.422803e-06
0	0.65174115	0.6517409	-4.9464066e-10	0.061518237	0.06151823	0	156790.28	156790.27	-0.00011997768	622888.5	289549.22	-0.00029691213	289549.1	622888.1	-0.00042495548
0	0.65150416	0.65150404	-4.698644e-10	0.061164815	0.061164815	0	156733.33	156733.27	-0.00011519452	623088.6	289017.47	-0.0003247476	289017.4	623088.25	-0.00035629453
0	0.65126765	0.6512675	-3.891203e-10	0.060811166	0.060811166	0	156676.39	156676.34	-9.215561e-05	623288.5	288486.28	-0.00029969568	288486.22	623288.2	-0.0002412411
0	0.6510279	0.65102774	-3.1589753e-10	0.06045767	0.06045767	0	156618.7	156618.66	-7.6211734e-05	623489.56	287949.53	-0.00030155136	287949.4	623489.3	-0.00015216746
0	0.650788	0.6507879	-2.8315747e-10	0.06010405	0.06010405	0	156561	156560.97	-6.951531e-05	623690.56	287412.8	-0.00023335437	287412.72	623690.1	-0.00014474466
0	0.65054685	0.6505467	-7.985925e-11	0.05975055	0.05975055	0	156502.98	156502.95	-1.9850128e-05	623891.44	286874.28	-0.00010948634	286874.22	623891.06	0
0	0.6503047	0.65030444	4.778282e-11	0.059396908	0.059396908	0	156444.72	156444.67	8.928571e-06	624092.5	286334.06	0	286334	624092.1	6.309382e-05
0	0.6500591	0.65005887	-2.3714436e-10	0.05904341	0.05904341	0	156385.64	156385.58	-5.8992347e-05	624295	285787.8	-0.00015355923	285787.75	624294.6	-0.00018185868
0	0.6498134	0.6498132	-4.9441945e-10	0.0586899	0.0586899	0	156326.52	156326.48	-0.00011324139	624496.8	285241.9	-0.00028160258	285241.84	624496.44	-0.00039711996
0	0.6495657	0.6495655	-4.6411278e-10	0.05833626	0.058336265	0	156266.94	156266.89	-0.000116549745	624699.5	284692.56	-0.0002621177	284692.5	624699.1	-0.00041567697
0	0.6493187	0.64931846	-7.1408773e-10	0.05798278	0.05798278	0	156207.52	156207.45	-0.00016784917	624901.94	284144.28	-0.0005288747	284144.22	624901.6	-0.000489905
0	0.6490676	0.64906746	-4.6156878e-10	0.05762915	0.05762915	0	156147.12	156147.06	-0.000117466516	625105.4	283589.28	-0.00033124257	283589.22	625105.06	-0.00032660333
0	0.64881617	0.648816	-5.6321786e-10	0.057275645	0.057275645	0	156086.64	156086.6	-0.0001402264	625308.9	283033.94	-0.00032289192	283033.84	625308.44	-0.0004936164
0	0.64856416	0.648564	-1.3626952e-10	0.05692209	0.056922093	0	156026.02	156025.95	-3.0612246e-05	625512.25	282477.7	-0.00014381681	282477.62	625511.8	-4.8248217e-05
0	0.6483087	0.6483085	-5.397689e-10	0.056568585	0.056568585	0	155964.56	155964.52	-0.00012691326	625716.7	281915.62	-0.000372068	281915.6	625716.3	-0.00038227436
0	0.64805347	0.6480532	-2.2918056e-10	0.056214973	0.056214973	0	155903.14	155903.08	-5.5325254e-05	625921	281353.84	-0.00018000297	281353.8	625920.6	-0.00016701306
0	0.64779603	0.64779574	-3.5704387e-10	0.05586147	0.05586147	0	155841.2	155841.14	-8.63361e-05	626125.56	280788.78	-0.00037902687	280788.75	626125.25	-0.00012618765
0	0.647536	0.64753574	-4.6013088e-10	0.055507842	0.055507842	0	155778.66	155778.6	-0.00010746173	626330.7	280219.7	-0.00033588184	280219.6	626330.3	-0.00029320072
0	0.64727676	0.6472765	-8.317751e-11	0.055154327	0.055154327	0	155716.3	155716.23	-2.2082271e-05	626536	279651.56	-3.8041864e-05	279651.5	626535.5	-7.422803e-05
0	0.6470122	0.647012	-1.2565113e-10	0.054800812	0.054800812	0	155652.66	155652.6	-2.8061224e-05	626742.75	279074.34	-0.0001345383	279074.25	626742.4	-3.7114016e-05
0	0.64675117	0.646751	-3.9907505e-10	0.054447185	0.054447185	0	155589.86	155589.8	-0.000100765305	626947.44	278504.28	-0.00030619063	278504.2	626947.1	-0.0002597981
0	0.64648545	0.64648527	-1.2388139e-10	0.054093685	0.054093685	0	155525.94	155525.88	-2.8380102e-05	627153.8	277925.94	-6.958878e-05	277925.88	627153.4	-9.2785034e-05
0	0.6462191	0.64621884	-3.0970346e-10	0.05374007	0.05374007	0	155461.84	155461.8	-7.461735e-05	627359.2	277347.47	-0.0002839222	277347.4	627358.8	-0.00013732185
0	0.64595175	0.6459515	-1.8228262e-10	0.05338655	0.05338655	0	155397.52	155397.47	-4.559949e-05	627566.9	276765.66	-0.00011041419	276765.62	627566.4	-0.00014845606
0	0.645681	0.6456808	-2.0816497e-10	0.053033024	0.05303302	0	155332.4	155332.36	-4.815051e-05	627774	276179.47	-0.000118764845	276179.44	627773.7	-0.00014845606
0	0.6454077	0.6454074	-1.5396687e-10	0.0526795	0.052679498	0	155266.66	155266.6	-3.8743623e-05	627982.75	275587.94	-1.39177555e-05	275587.9	627982.5	-0.00021154988
0	0.6451384	0.6451382	-1.3273006e-10	0.052325882	0.052325882	0	155201.86	155201.81	-3.0831474e-05	628188.4	275005.4	-6.123813e-05	275005.34	628188	-0.000100207835
0	0.6448622	0.64486194	-7.078937e-11	0.05197238	0.051972385	0	155135.42	155135.36	-1.5485492e-05	628397.3	274409.78	5.567102e-06	274409.75	628396.94	-0.00010391924
0	0.64458615	0.64458585	-3.008548e-11	0.051618766	0.051618766	0	155069.02	155068.95	-7.971938e-06	628605.56	273815.1	-2.8763361e-05	273815.06	628605.06	7.422803e-06
0	0.64430845	0.64430815	-4.2451498e-10	0.05126524	0.05126524	0	155002.22	155002.12	-0.00010098454	628814.06	273217.8	-0.00024448856	273217.8	628813.6	-0.00036742873
0	0.64402986	0.64402956	-1.3759682e-10	0.050911706	0.050911706	0	154935.19	154935.11	-3.0393017e-05	629022.4	272619.47	-0.00020783849	272619.44	629022.06	3.7114016e-05
0	0.643748	0.6437477	-2.4245358e-10	0.050558105	0.050558105	0	154867.36	154867.3	-5.9390943e-05	629231.7	272015.44	-0.00011737307	272015.38	629231.25	-0.00020783849
0	0.6434656	0.6434653	-6.1940696e-11	0.05020459	0.05020459	0	154799.44	154799.36	-1.4548788e-05	629441.1	271410.66	-5.195962e-05	271410.66	629440.7	-3.7114014e-06
0	0.64318097	0.6431808	7.0789364e-12	0.049850978	0.049850978	0	154730.98	154730.9	8.5698343e-07	629650.8	270802.66	-8.350653e-06	270802.66	629650.3	2.597981e-05
0	0.64289445	0.6428942	-3.521771e-10	0.049497455	0.049497455	0	154662.05	154661.97	-8.362564e-05	629861.06	270191.25	-0.00027696334	270191.22	629860.56	-0.00022268409
0	0.64260757	0.6426072	-1.0264458e-10	0.049143948	0.049143948	0	154593.02	154592.94	-2.742347e-05	630071	269579.6	-0.00010159962	269579.6	630070.56	-5.5671022e-05
0	0.6423177	0.6423174	-1.8327809e-10	0.048790418	0.048790418	0	154523.28	154523.2	-4.1135205e-05	630281.75	268963.16	-4.360897e-05	268963.12	630281.2	-0.00018557007
0	0.64202636	0.64202595	-1.8051288e-10	0.048436802	0.048436802	0	154453.19	154453.12	-4.1155134e-05	630491.56	268345.28	-0.00031454128	268345.28	630491.1	8.165083e-05
0	0.6417307	0.64173037	-3.5306194e-10	0.04808329	0.04808329	0	154382.06	154382	-8.462213e-05	630705.1	267717.9	-0.0003813465	267717.88	630704.6	-0.000111342044
0	0.64143986	0.64143956	-2.5307198e-10	0.047729697	0.047729697	0	154312.1	154312.02	-5.707908e-05	630914.06	267101.72	-0.00016051812	267101.72	630913.6	-0.00015959026
0	0.6411419	0.6411416	-3.2917055e-10	0.047376156	0.047376156	0	154240.42	154240.33	-8.163265e-05	631126.25	266472.4	-0.00026072594	266472.4	631125.8	-0.00021526129
0	0.64084405	0.64084375	-2.5130226e-10	0.047022615	0.047022615	0	154168.77	154168.7	-6.503109e-05	631338.5	265843.16	-0.00031036595	265843.12	631338	-7.793943e-05
0	0.64054394	0.6405436	-4.0925102e-10	0.04666902	0.04666902	0	154096.56	154096.5	-0.00010024713	631549.8	265211.7	-0.00029227286	265211.72	631549.3	-0.00029320072
0	0.64024204	0.6402417	-4.9021637e-10	0.046315495	0.046315495	0	154023.95	154023.86	-0.00012055565	631763	264575.75	-0.00034608817	264575.75	631762.6	-0.00037485154
0	0.63993895	0.63993865	-4.9552557e-11	0.045961898	0.045961898	0	153951.05	153950.97	-1.5306123e-05	631975.1	263939.6	-7.608373e-05	263939.6	631974.56	-2.597981e-05
0	0.63963306	0.6396327	-1.6635501e-10	0.04560836	0.04560836	0	153877.44	153877.38	-4.19324e-05	632188.25	263298.16	-0.00014103325	263298.2	632187.7	-8.9073634e-05
0	0.63932616	0.63932586	-5.751636e-10	0.04525487	0.04525487	0	153803.62	153803.53	-0.00013456633	632401.1	262655.53	-0.000458822	262655.5	632400.6	-0.00034887175
0	0.63901615	0.6390158	-4.4774273e-10	0.04490131	0.04490131	0	153729.03	153728.94	-0.0001120456	632614.44	262008.16	-0.00034052107	262008.19	632613.9	-0.00029691213
0	0.6387052	0.63870484	-2.7784824e-10	0.044547737	0.044547737	0	153654.22	153654.16	-6.6007655e-05	632828.2	261359.16	-0.0001623738	261359.16	632827.75	-0.00022639548
0	0.63839245	0.63839215	4.4243352e-11	0.044194207	0.044194207	0	153578.98	153578.9	1.4668367e-05	633042.6	260706.88	-3.0619063e-05	260706.88	633042.1	0.00010391924
0	0.63807815	0.6380778	-1.4334846e-10	0.04384063	0.04384063	0	153503.38	153503.28	-3.635204e-05	633256.1	260053.31	-0.00018557007	260053.31	633255.56	-2.9691211e-05
0	0.6377602	0.63775986	-5.2561105e-10	0.043487072	0.043487072	0	153426.9	153426.8	-0.0001248007	633470.9	259393.42	-0.00036371735	259393.42	633470.4	-0.00035258313
0	0.6374417	0.6374414	-3.893415e-11	0.043133505	0.043133505	0	153350.27	153350.17	-1.1838329e-05	633685.56	258732.88	3.5954203e-05	258732.9	633685	-0.000100207835
0	0.6371217	0.63712126	-7.6098565e-11	0.04277994	0.04277994	0	153273.27	153273.17	-1.7757493e-05	633900.6	258069.7	9.278504e-06	258069.7	633900.06	-0.000118764845
0	0.63679844	0.6367981	5.928609e-11	0.042426363	0.042426363	0	153195.52	153195.42	1.560507e-05	634115.56	257402.19	-4.4536817e-05	257402.22	634115.06	0.00014845606
0	0.63647157	0.6364711	-3.893415e-11	0.042072818	0.042072818	0	153116.84	153116.78	-9.8652745e-06	634331.44	256728.66	-4.407289e-05	256728.72	634330.9	1.8557007e-06
0	0.6361481	0.63614774	-1.5750634e-10	0.041719254	0.041719254	0	153039.06	153038.97	-4.1135205e-05	634546.7	256060.56	-6.26299e-05	256060.6	634546.2	-0.00018928148
0	0.63581914	0.63581866	-1.9644049e-10	0.041365802	0.041365802	0	152959.9	152959.81	-4.697465e-05	634762.06	255384.62	-8.2578685e-05	255384.69	634761.56	-0.00017072447
0	0.6354885	0.6354882	-2.2652596e-10	0.04101223	0.04101223	0	152880.4	152880.3	-5.2754305e-05	634978.25	254705.69	-9.185718e-05	254705.7	634977.75	-0.00021526129
0	0.63515586	0.63515544	-4.2650591e-10	0.040658668	0.040658668	0	152800.36	152800.25	-0.00010331633	635195.25	254022.97	-0.00039155284	254023.02	635194.6	-0.00020041567
0	0.63482225	0.6348218	-5.3092024e-11	0.040305123	0.040305123	0	152720.1	152719.98	-7.971938e-06	635411.3	253339.77	1.0438316e-05	253339.81	635410.8	-5.9382422e-05
0	0.6344854	0.63448495	-6.6718975e-10	0.03995156	0.03995156	0	152639.08	152638.95	-0.00016280691	635627.7	252651.88	-0.00048341003	252651.94	635627.2	-0.0004824822
0	0.6341469	0.6341465	1.7697341e-12	0.039597988	0.039597984	0	152557.62	152557.53	7.174745e-07	635844.9	251960.72	-0.00012618765	251960.8	635844.3	0.00012618765
0	0.633806	0.6338055	-2.6988445e-10	0.039244413	0.039244417	0	152475.61	152475.52	-6.989398e-05	636062.3	251266.02	-0.00026954053	251266.05	636061.9	-0.000111342044
0	0.63345987	0.63345945	-5.3092024e-11	0.038890854	0.038890854	0	152392.36	152392.25	-7.3341835e-06	636281.5	250562.27	-6.170205e-05	250562.34	636280.9	1.8557008e-05
0	0.6331178	0.63311744	-1.2974363e-10	0.038537282	0.038537282	0	152310.08	152309.95	-2.997449e-05	636497.6	249867.36	-4.0825416e-05	249867.42	636496.94	-0.00015587886
0	0.6327694	0.6327689	-2.0296638e-10	0.038183745	0.038183745	0	152226.23	152226.12	-4.8887916e-05	636714.25	249162.81	-8.55942e-05	249162.9	636713.6	-0.0002560867
0	0.63242126	0.6324207	-4.247362e-10	0.037830174	0.037830174	0	152142.48	152142.38	-0.00010144292	636933.6	248456.06	-0.00037647528	248456.14	636932.94	-0.0002412411
0	0.63207024	0.6320697	-6.980495e-10	0.037476614	0.037476614	0	152058.03	152057.92	-0.00017091837	637151.5	247746.69	-0.00052353955	247746.78	637150.94	-0.0004824822
0	0.6317172	0.6317167	-8.034593e-10	0.03712314	0.03712314	0	151973.11	151973	-0.00019343909	637369.5	247034.45	-0.0005397769	247034.53	637368.94	-0.000601247
0	0.6313608	0.6313603	-2.3537464e-10	0.036769573	0.036769573	0	151887.36	151887.25	-5.6501118e-05	637588.44	246316.58	-0.00021340558	246316.64	637587.8	-0.000118764845
0	0.6310026	0.63100207	-3.59256e-10	0.036416035	0.036416035	0	151801.2	151801.08	-8.80102e-05	637807.2	245596.39	-0.00028670576	245596.48	637806.56	-0.00023010689
0	0.63064295	0.6306425	-3.259629e-10	0.036062464	0.036062464	0	151714.67	151714.56	-7.898198e-05	638026.2	244873.86	-0.00024541642	244873.97	638025.56	-0.0002523753
0	0.63027984	0.63027936	-4.672098e-10	0.0357089	0.0357089	0	151627.33	151627.22	-0.000112882655	638245.94	244145.72	-0.00018928148	244145.83	638245.3	-0.00046021378
0	0.6299156	0.62991506	-3.8757178e-10	0.035355333	0.035355333	0	151539.69	151539.58	-9.235491e-05	638464.2	243417.53	-0.00029320072	243417.62	638463.56	-0.0002597981
0	0.6295472	0.6295467	-2.4068383e-10	0.03500176	0.03500176	0	151451.08	151450.95	-5.8673468e-05	638685.2	242680.78	-0.00016283774	242680.89	638684.7	-0.00019670428
0	0.629179	0.6291784	-2.0351942e-10	0.0346482	0.0346482	0	151362.47	151362.34	-4.846939e-05	638904.75	241945.69	-0.00019183307	241945.81	638904.06	-7.422803e-05
0	0.6288083	0.6288078	-3.5007552e-10	0.03429466	0.03429466	0	151273.31	151273.19	-8.09949e-05	639123.9	241207.58	-0.00026629306	241207.7	639123.25	-0.0002338183
0	0.6284336	0.62843305	-2.8669692e-10	0.033941098	0.033941098	0	151183.16	151183.02	-6.449298e-05	639344.75	240462.05	-0.00028624185	240462.19	639344.1	-8.9073634e-05
0	0.6280579	0.6280573	-3.220916e-10	0.03358753	0.03358753	0	151092.78	151092.64	-7.756696e-05	639564.44	239716.44	-0.00024843193	239716.56	639563.8	-0.00017814727
0	0.62767726	0.6276767	-1.5219713e-10	0.033234045	0.033234045	0	151001.22	151001.1	-3.252551e-05	639786	238962.08	-0.0001469483	238962.22	639785.4	-5.9382422e-05
0	0.62729865	0.62729806	-1.1149325e-10	0.032880485	0.032880485	0	150910.12	150910	-2.8061224e-05	640005.2	238212.72	-2.5515885e-05	238212.83	640004.56	-0.00013361045
0	0.62691504	0.62691444	-2.7607852e-10	0.03252695	0.03252695	0	150817.84	150817.7	-6.664541e-05	640226.1	237454.77	-0.00030839426	237454.89	640225.5	-0.000100207835
0	0.6265279	0.6265273	-1.7697342e-11	0.032173377	0.032173377	0	150724.72	150724.56	-7.653061e-06	640447.94	236690.98	-2.1920465e-05	236691.12	640447.2	-2.2268408e-05
0	0.6261409	0.62614036	-2.7076932e-10	0.03181982	0.03181982	0	150631.62	150631.47	-6.305803e-05	640668.3	235928.78	-0.00022662745	235928.94	640667.7	-0.00012989905
0	0.6257501	0.6257495	-3.4332842e-10	0.03146625	0.03146625	0	150537.61	150537.45	-7.955995e-05	640889.25	235160.78	-0.00032660333	235160.94	640888.56	-0.00015216746
0	0.62535673	0.62535614	-1.3096033e-10	0.031112673	0.031112673	0	150442.95	150442.84	-2.6785714e-05	641110.7	234388.58	-0.00016330167	234388.77	641110	7.422803e-06
0	0.62496054	0.62495995	-3.114732e-10	0.030759115	0.030759115	0	150347.66	150347.5	-7.413903e-05	641331.6	233612.92	-0.00020691063	233613.08	641331	-0.00021526129
0	0.62456304	0.6245624	-2.0528916e-10	0.030405583	0.030405583	0	150252.02	150251.88	-5.197704e-05	641553.8	232834.2	-0.00016562128	232834.39	641553.1	-0.000115053444
0	0.6241621	0.6241615	-1.09723515e-10	0.030052025	0.030052027	0	150155.56	150155.4	-2.9336734e-05	641776.56	232050.2	-9.6496435e-05	232050.38	641775.75	-4.8248217e-05
0	0.62375945	0.62375885	-1.7343395e-10	0.029698454	0.029698454	0	150058.69	150058.55	-4.280931e-05	641997.5	231265.47	-8.93056e-05	231265.67	641996.9	-0.00014103325
0	0.62335205	0.6233514	-1.7520367e-10	0.02934495	0.02934495	0	149960.67	149960.53	-3.890306e-05	642219.75	230472.9	-1.6701306e-05	230473.12	642219	-0.00020041567
0	0.62294465	0.62294406	-1.4157873e-10	0.02899139	0.02899139	0	149862.69	149862.52	-3.3442284e-05	642442.8	229679.58	-0.0002076645	229679.77	642442.06	3.340261e-05
0	0.6225325	0.62253183	-6.2383126e-11	0.028637823	0.028637823	0	149763.52	149763.36	-1.2436224e-05	642665.75	228879.47	-9.98019e-05	228879.69	642665	2.9691211e-05
0	0.62212056	0.62211984	-2.0528916e-10	0.028284293	0.028284293	0	149664.44	149664.25	-4.846939e-05	642887.1	228081.4	-0.00017373997	228081.62	642886.3	-9.2785034e-05
0	0.62170225	0.62170154	-2.097135e-10	0.027930735	0.027930735	0	149563.81	149563.64	-5.628189e-05	643111	227272	-0.00015616881	227272.22	643110.2	-0.00017814727
0	0.62128484	0.6212841	-3.6102576e-10	0.027577164	0.027577164	0	149463.38	149463.2	-8.34662e-05	643333.1	226465.45	-0.00026716292	226465.67	643332.3	-0.00023752969
0	0.62086344	0.6208627	-9.202617e-11	0.027223593	0.027223593	0	149362.02	149361.83	-2.8061224e-05	643554.4	225654.14	-0.000114937466	225654.36	643553.7	-4.4536817e-05
0	0.6204366	0.6204359	-5.096834e-10	0.026870035	0.026870035	0	149259.31	149259.16	-0.00012595663	643778.06	224832.89	-0.00038204237	224833.16	643777.25	-0.00034144893
0	0.62001276	0.620012	-4.318151e-10	0.026516512	0.02651651	0	149157.34	149157.16	-0.000103236605	644000.2	224017.33	-0.00039665602	224017.58	643999.4	-0.00018557007
0	0.619582	0.6195812	1.2034192e-10	0.026162941	0.026162941	0	149053.73	149053.53	3.252551e-05	644224.94	223189.6	3.8157847e-05	223189.81	644224.2	0.00016330167
0	0.6191505	0.6191498	-5.0614396e-10	0.025809383	0.025809383	0	148949.92	148949.73	-0.00011830357	644446.8	222363.62	-0.00050254696	222363.9	644446.06	-0.00019299287
0	0.6187115	0.61871076	-3.1855213e-10	0.025455853	0.025455853	0	148844.31	148844.11	-7.461735e-05	644672.8	221523	-0.00034829183	221523.25	644672.06	-8.536223e-05
0	0.6182753	0.6182745	2.123681e-11	0.025102295	0.025102297	0	148739.38	148739.19	0	644895.06	220690.05	-0.00011574933	220690.31	644894.3	0.00012989905
0	0.6178335	0.6178328	-5.0614396e-10	0.024748728	0.024748728	0	148633.1	148632.9	-0.00012627551	645119.06	219847.61	-0.00035931004	219847.9	645118.25	-0.00036742873
0	0.6173898	0.61738896	-2.849272e-10	0.024395209	0.024395209	0	148526.34	148526.14	-6.672513e-05	645342.75	219002.67	-0.00020986816	219002.97	645341.9	-0.00017072447
0	0.6169443	0.6169435	-1.2034192e-10	0.024041645	0.024041645	0	148419.17	148418.98	-2.4234694e-05	645565.25	218156.53	-2.3776165e-05	218156.78	645564.4	-0.00014845606
0	0.61649454	0.6164937	-2.4510818e-10	0.023688078	0.023688078	0	148310.97	148310.77	-5.5484696e-05	645788.4	217303.56	-0.00012746344	217303.86	645787.56	-0.00019670428
0	0.61604136	0.61604047	-3.6456524e-10	0.02333451	0.02333451	0	148201.95	148201.75	-8.976403e-05	646013.1	216444.42	-0.00030955407	216444.72	646012.25	-0.00021526129
0	0.61558646	0.61558557	-7.78683e-11	0.022980949	0.022980949	0	148092.5	148092.28	-1.9770408e-05	646235.75	215584.94	-0.00012166438	215585.25	646234.94	7.422803e-06
0	0.61512744	0.61512655	-3.893415e-10	0.022627436	0.022627436	0	147982.08	147981.89	-9.2793365e-05	646460	214718.08	-0.00027168618	214718.42	646459.1	-0.00029691213
0	0.6146628	0.614662	-1.6281554e-10	0.022273868	0.022273868	0	147870.33	147870.1	-3.890306e-05	646684.75	213842.81	-0.0001326826	213843.17	646683.94	-8.165083e-05
0	0.6141974	0.6141966	-4.3535459e-10	0.021920316	0.021920316	0	147758.36	147758.14	-0.00010682398	646911	212965	-0.00028972127	212965.36	646910.2	-0.00031175773
0	0.6137336	0.61373264	-9.9989975e-11	0.021566752	0.021566752	0	147646.75	147646.53	-2.6466836e-05	647132.5	212094.11	-4.389892e-05	212094.42	647131.56	-7.793943e-05
0	0.61325985	0.6132589	-6.194069e-10	0.021213181	0.021213181	0	147532.8	147532.58	-0.00015162627	647357.1	211206.31	-0.00048532372	211206.66	647356.2	-0.00040083134
0	0.612786	0.6127851	-4.247362e-11	0.020859627	0.020859627	0	147418.78	147418.58	-1.1320153e-05	647583.2	210316.73	-9.127728e-05	210317.11	647582.25	2.9691211e-05
0	0.61231184	0.6123109	-1.9113128e-10	0.020506116	0.020506116	0	147304.73	147304.5	-4.424426e-05	647804.9	209431.23	-0.00015703867	209431.6	647804.06	-0.000111342044
0	0.6118297	0.61182874	-2.7253905e-10	0.020152561	0.020152561	0	147188.73	147188.52	-6.3137755e-05	648029.75	208531.39	-0.0001686948	208531.81	648028.8	-0.00019299287
0	0.61134535	0.6113444	-2.442233e-10	0.019798994	0.019798992	0	147072.23	147072	-5.8035715e-05	648254.3	207628.77	-0.00026698894	207629.19	648253.5	-7.0516624e-05
0	0.6108583	0.61085737	-2.9731534e-10	0.019445427	0.019445427	0	146955.06	146954.83	-6.664541e-05	648480.6	206720.61	-0.0003365777	206721	648479.75	-6.309382e-05
0	0.6103694	0.6103683	-8.8486704e-11	0.019091872	0.019091872	0	146837.42	146837.2	-2.6466836e-05	648704.75	205811.95	-9.556859e-05	205812.36	648703.8	-6.680522e-05
0	0.6098772	0.6098762	-9.202617e-11	0.018738307	0.018738307	0	146719.02	146718.78	-2.5510204e-05	648927.3	204900.31	-0.00013129083	204900.75	648926.4	3.7114014e-06
0	0.6093804	0.60937935	-3.6810469e-10	0.018384786	0.018384786	0	146599.52	146599.27	-9.16773e-05	649151.7	203980.47	-0.000322428	203980.89	649150.7	-0.00021526129
0	0.60888046	0.60887945	-1.8051288e-10	0.018031232	0.018031232	0	146479.23	146479.02	-4.0656887e-05	649376.3	203055.92	-0.0002393854	203056.39	649375.3	2.597981e-05
0	0.6083765	0.6083755	-1.1680246e-10	0.017677667	0.017677667	0	146358	146357.75	-2.6466836e-05	649602.6	202124	-7.643167e-05	202124.44	649601.7	-5.195962e-05
0	0.60787153	0.6078705	-1.7343395e-10	0.0173241	0.0173241	0	146236.52	146236.27	-3.746811e-05	649825.3	201194.39	-0.00014764418	201194.9	649824.25	-0.00010391924
0	0.6073589	0.60735786	-1.0618405e-10	0.016970547	0.016970549	0	146113.2	146112.95	-3.125e-05	650050.4	200251.53	3.7114014e-06	200252.03	650049.5	-0.00017072447
0	0.6068468	0.6068457	-3.1855213e-11	0.016617022	0.016617022	0	145990.02	145989.73	-5.739796e-06	650274.9	199310.06	-0.00011296578	199310.53	650273.94	0.00010391924
0	0.6063299	0.60632885	-2.1148322e-10	0.016263476	0.016263476	0	145865.66	145865.39	-5.484694e-05	650499.3	198362.06	-0.00011319774	198362.58	650498.25	-0.00016330167
0	0.6058079	0.6058067	-5.2207155e-10	0.01590991	0.01590991	0	145740.06	145739.8	-0.00012276786	650725.94	197404.5	-0.00037856295	197405.03	650724.9	-0.00035629453
0	0.60528374	0.60528266	-1.8759182e-10	0.015556336	0.015556336	0	145613.98	145613.73	-4.7831632e-05	650950.5	196446.31	-0.0001878897	196446.83	650949.44	-8.9073634e-05
0	0.60475844	0.6047573	-3.2518865e-10	0.015202791	0.015202791	0	145487.6	145487.34	-7.8443874e-05	651172.7	195488.62	-0.00018858559	195489.14	651171.6	-0.0002597981
0	0.6042247	0.6042235	3.6633496e-10	0.014849227	0.014849227	0	145359.19	145358.9	9.3431125e-05	651397.75	194516.16	0.00026072594	194516.7	651396.7	0.00032289192
0	0.6036898	0.60368866	-1.8405234e-10	0.014495695	0.014495696	0	145230.52	145230.23	-4.3686225e-05	651624.2	193540.97	-9.3017e-05	193541.52	651623.06	-0.00015216746
0	0.60315156	0.6031505	-2.0174969e-10	0.014142146	0.014142146	0	145101.05	145100.77	-4.336735e-05	651848.6	192563.05	-0.00010763064	192563.61	651847.56	-0.00015216746
0	0.6026094	0.6026082	1.0618405e-11	0.013788582	0.013788582	0	144970.61	144970.33	9.566327e-07	652072.9	191579.67	-5.7526722e-05	191580.25	652071.8	5.9382422e-05
0	0.6020656	0.60206443	-1.1326298e-10	0.013435017	0.013435017	0	144839.78	144839.48	-2.34375e-05	652294.6	190596.66	-9.3248964e-05	190597.27	652293.6	-2.2268408e-05
0	0.601513	0.60151184	-2.6192065e-10	0.0130814705	0.0130814705	0	144706.86	144706.56	-6.648597e-05	652519.94	189597.72	-0.00013778578	189598.31	652518.8	-0.00022268409
0	0.6009602	0.600959	-2.3139274e-10	0.0127279265	0.0127279265	0	144573.84	144573.56	-5.0701532e-05	652744.3	188599.31	-0.0001990239	188599.97	652743.2	-0.000115053444
0	0.6004015	0.6004003	-3.999599e-10	0.012374364	0.012374364	0	144439.45	144439.16	-9.534439e-05	652970.94	187590.53	-0.0003094381	187591.19	652969.75	-0.00023752969
0	0.59984046	0.59983927	-5.070288e-10	0.012020823	0.012020823	0	144304.48	144304.17	-0.00011591199	653195.2	186580.95	-0.00037299586	186581.6	653193.94	-0.00029691213
0	0.59927756	0.59927624	-3.3271003e-10	0.011667255	0.011667255	0	144169.05	144168.73	-8.147321e-05	653416.56	185571.3	-0.0003435366	185571.97	653415.44	-0.000118764845
0	0.59870577	0.59870446	-2.0882862e-10	0.011313718	0.011313718	0	144031.5	144031.17	-4.575893e-05	653641.56	184545.73	-0.00015471905	184546.45	653640.4	-9.6496435e-05
0	0.5981327	0.59813136	-1.451182e-10	0.010960158	0.010960158	0	143893.64	143893.31	-3.348214e-05	653867.7	183517.48	-0.00016747699	183518.17	653866.44	-2.2268408e-05
0	0.5975559	0.59755456	-4.831374e-10	0.010606591	0.010606591	0	143754.88	143754.55	-0.00011415816	654091.6	182485.97	-0.00029876782	182486.67	654090.3	-0.00037114014
0	0.59697425	0.5969729	-3.7164416e-10	0.010253058	0.010253058	0	143614.94	143614.62	-8.737245e-05	654315.8	181447.45	-0.00025330315	181448.17	654314.6	-0.00023752969
0	0.5963892	0.59638774	-1.3449979e-10	0.009899497	0.009899497	0	143474.2	143473.86	-2.9496174e-05	654537.75	180406.39	-0.00018881755	180407.14	654536.5	2.2268408e-05
0	0.5957999	0.5957985	-2.4776278e-10	0.009545936	0.009545936	0	143332.44	143332.1	-5.7876274e-05	654761.5	179357.66	-0.00017165231	179358.42	654760.25	-0.00012247625
0	0.59520674	0.59520525	-2.336049e-10	0.009192393	0.009192394	0	143189.72	143189.39	-5.707908e-05	654985	178303.58	-0.0001834824	178304.38	654983.9	-0.00015216746
0	0.59460837	0.59460694	-9.556564e-11	0.008838833	0.008838833	0	143045.8	143045.44	-2.7742348e-05	655208.9	177242.11	-0.00020551885	177242.88	655207.6	5.195962e-05
0	0.5940048	0.5940033	-1.4157873e-11	0.008485273	0.008485273	0	142900.58	142900.22	-4.942602e-06	655433	176172.84	-0.00012062055	176173.66	655431.8	9.6496435e-05
0	0.5933981	0.5933965	-5.026045e-10	0.008131738	0.008131738	0	142754.62	142754.25	-0.00012276786	655656.7	175099.73	-0.00041382125	175100.56	655655.4	-0.0003154691
0	0.5927894	0.5927879	-1.5219713e-10	0.007778168	0.007778168	0	142608.2	142607.84	-3.9540817e-05	655879.6	174024.78	-0.00019044128	174025.61	655878.25	-7.422803e-06
0	0.5921738	0.59217227	-1.2388139e-10	0.0074246135	0.0074246135	0	142460.1	142459.72	-3.0612246e-05	656103	172939.45	-8.025906e-05	172940.31	656101.75	-7.0516624e-05
0	0.59155107	0.5915495	-3.1855213e-10	0.007071073	0.007071073	0	142310.28	142309.9	-7.589286e-05	656326.94	171843.58	-0.0001382497	171844.47	656325.6	-0.00031175773