//mumax 3.10 [windows_amd64 go1.11.6(gc) CUDA-11.0]
//GPU info: NVIDIA GeForce RTX 3090(24575MB), CUDA Driver 12.0, cc=8.6, using cc=80 PTX
//(c) Arne Vansteenkiste, Dynamat LAB, Ghent University, Belgium
//This is free software without any warranty. See license.txt
//********************************************************************//
//  If you use mumax in any work or publication,                      //
//  we kindly ask you to cite the references in references.bib        //
//********************************************************************//
//output directory: r1;p0.8;a3.2e-07;l2.3000000000000002e-07;s0.out/
randSeed(0)
ThermSeed(0)
resolution := 2e-09
zResolution := 5e-09
a := 3.2e-07
gridSize := 320
gridDepth := 5
SetCellsize(resolution, resolution, zResolution)
SetGridsize(gridSize, gridSize, gridDepth)
SetPBC(16, 16, 0)
//resizing...
Msat = 700e3
Aex = 13e-12
alpha = 0.2
Bmax := 0.1
Bstep := Bmax / 500.0
TableAdd(B_ext)
TableAdd(m_full)
islandWidth := 8e-08
islandLength := 2.3000000000000002e-07
ellipseConstant := 9.200000000000002e-08
hIsland := rect(islandLength-2*ellipseConstant, islandWidth)
hIsland = hIsland.add(ellipse(ellipseConstant*2, islandWidth).transl(islandLength/2-ellipseConstant, 0, 0))
hIsland = hIsland.add(ellipse(ellipseConstant*2, islandWidth).transl(-islandLength/2+ellipseConstant, 0, 0))
hIsland = hIsland.sub(rect(6.000000000000001e-09, -3.2394448060502538e-09).transl(1.0796860093389235e-07, -1.5337025731436913e-08, 0))
hIsland = hIsland.add(rect(6.000000000000001e-09, 3.4004340884258768e-09).transl(1.8530532245927856e-08, -4e-08, 0))
hIsland = hIsland.add(rect(6.000000000000001e-09, 3.932141359082943e-09).transl(-1.0038708416700265e-07, -2.1631206908348114e-08, 0))
hIsland = hIsland.sub(rect(6.000000000000001e-09, -3.535225878045423e-09).transl(-1.012544799590592e-07, -2.1033038941053657e-08, 0))
hIsland = hIsland.sub(rect(6.000000000000001e-09, -9.009375154474948e-10).transl(-2.276474647511167e-08, -4e-08, 0))
hIsland = hIsland.add(rect(6.000000000000001e-09, 1.6380896801426766e-09).transl(7.095186959276177e-08, -3.413699245381508e-08, 0))
hIsland = hIsland.sub(rect(6.000000000000001e-09, -2.8367341270370183e-09).transl(8.608941762918759e-08, -2.9113315486268753e-08, 0))
hIsland = hIsland.sub(rect(6.000000000000001e-09, -1.856752910625104e-10).transl(1.059424457406587e-07, -1.730713706250021e-08, 0))
hIsland = hIsland.sub(rect(6.000000000000001e-09, -3.7016945909778568e-09).transl(-1.1412482214666814e-07, -5.504196521344148e-09, 0))
hIsland = hIsland.add(rect(6.000000000000001e-09, 1.2024442729682248e-09).transl(4.998144595153217e-08, -3.824110550393948e-08, 0))
hIsland = hIsland.add(rect(6.000000000000001e-09, 1.085457817786061e-09).transl(-1.0192136877248276e-07, -2.055660979473243e-08, 0))
hIsland = hIsland.add(rect(6.000000000000001e-09, 1.8251924224524737e-09).transl(1.6919551627379206e-09, -4e-08, 0))
hIsland = hIsland.add(rect(6.000000000000001e-09, 1.7641964254949864e-09).transl(-5.476417579749731e-08, -3.7540242140193556e-08, 0))
hIsland = hIsland.add(rect(6.000000000000001e-09, 1.938234434781056e-09).transl(3.6594026418587064e-09, -4e-08, 0))
hIsland = hIsland.sub(rect(6.000000000000001e-09, -3.3007066829824464e-09).transl(-7.271063330671406e-08, -3.365805177362068e-08, 0))
hIsland = hIsland.add(rect(6.000000000000001e-09, 3.8287126811389106e-10).transl(5.308710016938557e-08, -3.780050710144184e-08, 0))
hIsland = hIsland.sub(rect(6.000000000000001e-09, -1.6285920577717158e-09).transl(9.228928686681338e-09, -4e-08, 0))
hIsland = hIsland.add(rect(6.000000000000001e-09, 9.811035546240117e-10).transl(-4.4147237984067186e-08, -3.892893609308328e-08, 0))
hIsland = hIsland.add(rect(6.000000000000001e-09, 1.0935262372799529e-09).transl(1.918708294013876e-09, -4e-08, 0))
hIsland = hIsland.sub(rect(6.000000000000001e-09, -1.144202009987825e-09).transl(7.68583479659371e-09, -4e-08, 0))
hIsland = hIsland.add(rect(6.000000000000001e-09, 2.3505351400754423e-10).transl(-4.2546210635837865e-08, -3.908680091321605e-08, 0))
hIsland = hIsland.sub(rect(6.000000000000001e-09, -2.1201309555411304e-09).transl(3.291596203691348e-08, -3.976698124251133e-08, 0))
hIsland = hIsland.add(rect(6.000000000000001e-09, 1.8338953970865212e-09).transl(1.7358159477668226e-08, -4e-08, 0))
hIsland = hIsland.add(rect(6.000000000000001e-09, 3.7696073644035626e-09).transl(8.986175301591937e-08, -2.747573593118047e-08, 0))
hIsland = hIsland.add(rect(6.000000000000001e-09, 3.3470343114303547e-10).transl(-7.643725885893982e-08, -3.256071648713388e-08, 0))
hIsland = hIsland.add(rect(6.000000000000001e-09, 5.483407691919219e-10).transl(1.139567634649105e-07, -6.006725593927346e-09, 0))
hIsland = hIsland.add(rect(6.000000000000001e-09, 2.2674702815666236e-10).transl(8.157583351772842e-08, -3.084466763161801e-08, 0))
hIsland = hIsland.sub(rect(6.000000000000001e-09, -1.6385569428763733e-09).transl(9.204642127931049e-08, -2.6434609941226637e-08, 0))
hIsland = hIsland.add(rect(6.000000000000001e-09, 2.871345634502287e-09).transl(-4.7606845802089754e-08, -3.8542695103920244e-08, 0))
hIsland = hIsland.add(rect(6.000000000000001e-09, 5.37922663496873e-10).transl(8.272782407729612e-08, -3.0424181479753264e-08, 0))
hIsland = hIsland.add(rect(6.000000000000001e-09, 9.370334547234109e-10).transl(-5.856977857441553e-08, -3.688942977012572e-08, 0))
hIsland = hIsland.sub(rect(6.000000000000001e-09, -4.5537393334928334e-10).transl(-1.7300860706669502e-08, -4e-08, 0))
hIsland = hIsland.sub(rect(6.000000000000001e-09, -1.6008691562241784e-10).transl(3.929660129958017e-08, -3.9367448352765514e-08, 0))
hIsland = hIsland.add(rect(6.000000000000001e-09, 7.562049146865806e-10).transl(-3.319675976961108e-08, -3.9753555773481695e-08, 0))
hIsland = hIsland.sub(rect(6.000000000000001e-09, -1.4237150643849575e-09).transl(-2.9486369133734795e-08, -3.990045983186318e-08, 0))
hIsland = hIsland.sub(rect(6.000000000000001e-09, -3.840619214165081e-09).transl(2.9907368741252736e-08, -3.988710025725603e-08, 0))
hIsland = hIsland.sub(rect(6.000000000000001e-09, -1.8911840486886682e-09).transl(-2.95641972347211e-08, -3.9898053722740654e-08, 0))
hIsland = hIsland.sub(rect(6.000000000000001e-09, -7.680997883531728e-10).transl(-7.880641268222298e-09, -4e-08, 0))
hIsland = hIsland.sub(rect(6.000000000000001e-09, -1.509550260630958e-09).transl(7.72715006378969e-08, -3.2298829824562684e-08, 0))
hIsland = hIsland.add(rect(6.000000000000001e-09, 3.732475962032376e-11).transl(-8.441929078890028e-08, -2.978077023519087e-08, 0))
hIsland = hIsland.add(rect(6.000000000000001e-09, 3.951185273895456e-09).transl(7.8994520002807e-08, -3.1737980115114156e-08, 0))
hIsland = hIsland.add(rect(6.000000000000001e-09, 7.676475805903107e-10).transl(9.213285248149229e-08, -2.6391872738568858e-08, 0))
hIsland = hIsland.sub(rect(6.000000000000001e-09, -2.594941293439328e-09).transl(4.3462752188561046e-08, -3.899802664017617e-08, 0))
hIsland = hIsland.sub(rect(6.000000000000001e-09, -3.883135226949448e-09).transl(7.052646064179356e-08, -3.424926844765087e-08, 0))
hIsland = hIsland.sub(rect(6.000000000000001e-09, -8.760324506291039e-10).transl(-1.0256991319964172e-07, -2.0078432754840195e-08, 0))
hIsland = hIsland.sub(rect(6.000000000000001e-09, -2.340179073354028e-09).transl(1.284651016529102e-08, -4e-08, 0))
hIsland = hIsland.sub(rect(6.000000000000001e-09, -1.2663015393017761e-09).transl(-2.7000142130916382e-08, -3.996217224306268e-08, 0))
hIsland = hIsland.add(rect(6.000000000000001e-09, 3.4734838115053075e-10).transl(-9.41345109979978e-08, -2.5366431180344828e-08, 0))
hIsland = hIsland.add(rect(6.000000000000001e-09, 8.352995960380655e-10).transl(9.508800520545017e-08, -2.4852378925961642e-08, 0))
hIsland = hIsland.sub(rect(6.000000000000001e-09, -1.2630099553205404e-09).transl(-5.406981336441306e-08, -3.764993139596784e-08, 0))
hIsland = hIsland.add(rect(6.000000000000001e-09, 7.034673793753053e-10).transl(2.2760263959195437e-08, -4e-08, 0))
hIsland = hIsland.add(rect(6.000000000000001e-09, 1.1299112696194876e-09).transl(-7.482052299142847e-08, -3.3051010002312134e-08, 0))
hIsland = hIsland.add(rect(6.000000000000001e-09, 2.0717308549052796e-09).transl(1.0569802598570988e-07, -1.7526844105110593e-08, 0))
hIsland = hIsland.sub(rect(6.000000000000001e-09, -3.099793241780722e-09).transl(1.0013004109523287e-07, -2.1804062855858946e-08, 0))
hIsland = hIsland.add(rect(6.000000000000001e-09, 1.3605477022132195e-09).transl(-3.076082826744956e-08, -3.985742441055767e-08, 0))
hIsland = hIsland.sub(rect(6.000000000000001e-09, -3.199525320170845e-09).transl(5.587579149951989e-08, -3.735888972455972e-08, 0))
hIsland = hIsland.add(rect(6.000000000000001e-09, 4.474732448962759e-09).transl(2.224503767863062e-08, -4e-08, 0))
hIsland = hIsland.add(rect(6.000000000000001e-09, 2.9203460804774433e-09).transl(-1.1093063557573379e-07, -1.1764893848563128e-08, 0))
hIsland = hIsland.sub(rect(6.000000000000001e-09, -1.548251894363268e-09).transl(4.7420770973564077e-08, -3.856506040127041e-08, 0))
hIsland = hIsland.add(rect(6.000000000000001e-09, 3.0378419981971195e-09).transl(1.0623599960958891e-07, -1.7038643774141808e-08, 0))
hIsland = hIsland.sub(rect(6.000000000000001e-09, -1.3800632063533874e-09).transl(-4.576911930214605e-08, -3.875561354840308e-08, 0))
hIsland = hIsland.sub(rect(6.000000000000001e-09, -6.868110440518723e-10).transl(7.471069107912717e-08, -3.308351244178356e-08, 0))
hIsland = hIsland.add(rect(6.000000000000001e-09, 1.2015593825779775e-09).transl(-8.377536662615964e-08, -3.002945879233057e-08, 0))
hIsland = hIsland.sub(rect(6.000000000000001e-09, -2.3028303903586794e-09).transl(4.281451051132949e-09, -4e-08, 0))
hIsland = hIsland.add(rect(6.000000000000001e-09, 9.301131586537931e-10).transl(5.6615917702615364e-08, -3.72341745909453e-08, 0))
hIsland = hIsland.add(rect(6.000000000000001e-09, 9.758292060276406e-10).transl(2.5809083423106006e-08, -3.998134974076052e-08, 0))
hIsland = hIsland.add(rect(6.000000000000001e-09, 1.3038982981935206e-09).transl(-4.66703157417697e-08, -3.865341161192641e-08, 0))
hIsland = hIsland.add(rect(6.000000000000001e-09, 1.1236153671209015e-09).transl(-8.835978424748958e-08, -2.815061638505502e-08, 0))
hIsland = hIsland.sub(rect(6.000000000000001e-09, -1.9399789431897768e-09).transl(-4.811286696988416e-08, -3.8480947861359615e-08, 0))
hIsland = hIsland.add(rect(6.000000000000001e-09, 1.8055023648177528e-09).transl(8.517990136026102e-08, -2.948088954172999e-08, 0))
hIsland = hIsland.add(rect(6.000000000000001e-09, 2.6430710648271905e-09).transl(3.8312958542500264e-08, -3.9442028241586984e-08, 0))
hIsland = hIsland.sub(rect(6.000000000000001e-09, -1.499706705274985e-09).transl(2.5776728336056615e-08, -3.9981776992096003e-08, 0))
hIsland = hIsland.sub(rect(6.000000000000001e-09, -2.954898803938006e-09).transl(7.183250672186097e-08, -3.390018230836716e-08, 0))
hIsland = hIsland.add(rect(6.000000000000001e-09, 2.7224700508133717e-09).transl(7.732472424614763e-08, -3.228191138342201e-08, 0))
hIsland = hIsland.add(rect(6.000000000000001e-09, 1.4941939973060295e-09).transl(-9.829829434043204e-08, -2.298255633999228e-08, 0))
hIsland = hIsland.add(rect(6.000000000000001e-09, 2.9996710154822222e-09).transl(6.097903733895896e-08, -3.643258456274729e-08, 0))
hIsland = hIsland.add(rect(6.000000000000001e-09, 2.5473628970540644e-09).transl(-7.03687401312925e-08, -3.42905478893363e-08, 0))
hIsland = hIsland.add(rect(6.000000000000001e-09, 2.3157032132586e-09).transl(4.914913683250541e-09, -4e-08, 0))
hIsland = hIsland.sub(rect(6.000000000000001e-09, -1.279681081879839e-09).transl(5.473935927185475e-08, -3.754420978872958e-08, 0))
hIsland = hIsland.add(rect(6.000000000000001e-09, 7.900611923409227e-10).transl(-4.886079164011582e-08, -3.8387191309899944e-08, 0))
hIsland = hIsland.add(rect(6.000000000000001e-09, 4.288941339191385e-10).transl(6.79300227915863e-08, -3.490547064967792e-08, 0))
hIsland = hIsland.sub(rect(6.000000000000001e-09, -3.563543163160921e-09).transl(4.958079999731479e-08, -3.829410876204768e-08, 0))
hIsland = hIsland.sub(rect(6.000000000000001e-09, -4.626628531869581e-09).transl(-1.0520473123497982e-07, -1.7960164714073778e-08, 0))
hIsland = hIsland.sub(rect(6.000000000000001e-09, -1.3198709248165574e-09).transl(3.613089702747226e-08, -3.9590482958405015e-08, 0))
hIsland = hIsland.sub(rect(6.000000000000001e-09, -2.143817597313152e-09).transl(-8.511594426241527e-08, -2.950636555713063e-08, 0))
hIsland = hIsland.sub(rect(6.000000000000001e-09, -9.358710913254863e-10).transl(-1.0702927641821947e-07, -1.6285964735874874e-08, 0))
hIsland = hIsland.add(rect(6.000000000000001e-09, 8.796946732895023e-11).transl(-1.0896672835640734e-08, -4e-08, 0))
hIsland = hIsland.add(rect(6.000000000000001e-09, 1.888366666529832e-09).transl(2.71714192034902e-08, -3.9958861789425144e-08, 0))
hIsland = hIsland.add(rect(6.000000000000001e-09, 2.827539392671962e-10).transl(1.7614079541275742e-08, -4e-08, 0))
hIsland = hIsland.add(rect(6.000000000000001e-09, 1.684112773177953e-09).transl(5.200148930712577e-10, -4e-08, 0))
hIsland = hIsland.sub(rect(6.000000000000001e-09, -2.325396965041733e-09).transl(3.854007318128808e-08, -3.942523283419244e-08, 0))
hIsland = hIsland.sub(rect(6.000000000000001e-09, -2.530847445577364e-10).transl(-2.5689672146883178e-08, -3.9982901978382055e-08, 0))
hIsland = hIsland.sub(rect(6.000000000000001e-09, -4.1182938128503345e-10).transl(-1.1455129530233698e-07, -3.94576484362533e-09, 0))
hIsland = hIsland.add(rect(6.000000000000001e-09, 3.673128848203815e-09).transl(-5.174213056686965e-08, -3.799783580166142e-08, 0))
hIsland = hIsland.add(rect(6.000000000000001e-09, 1.1860538465336067e-10).transl(1.2297971849040173e-08, -4e-08, 0))
hIsland = hIsland.sub(rect(6.000000000000001e-09, -6.041682331435529e-10).transl(1.7845904731638005e-08, -4e-08, 0))
hIsland = hIsland.add(rect(6.000000000000001e-09, 1.8635417973190085e-09).transl(-8.241660907784164e-08, -3.053915818339257e-08, 0))
hIsland = hIsland.add(rect(6.000000000000001e-09, 1.9932959958050144e-09).transl(-3.4393786963920054e-10, -4e-08, 0))
hIsland = hIsland.add(rect(6.000000000000001e-09, 1.210752177328128e-10).transl(-3.2071853015562305e-08, -3.980505777360373e-08, 0))
hIsland = hIsland.add(rect(6.000000000000001e-09, 4.9032012190193834e-09).transl(6.91667270636114e-08, -3.459906276316752e-08, 0))
hIsland = hIsland.sub(rect(6.000000000000001e-09, -7.871634233157228e-10).transl(9.494348076272612e-08, 2.493142040082924e-08, 0))
hIsland = hIsland.sub(rect(6.000000000000001e-09, -1.6326058195682938e-09).transl(5.7233570785169205e-08, 3.712764125347388e-08, 0))
hIsland = hIsland.sub(rect(6.000000000000001e-09, -1.7613425604811106e-09).transl(-6.679884153056081e-08, 3.517620103425644e-08, 0))
hIsland = hIsland.add(rect(6.000000000000001e-09, 2.530367200469575e-09).transl(6.565012639014834e-09, 4e-08, 0))
hIsland = hIsland.sub(rect(6.000000000000001e-09, -6.360682794313619e-10).transl(5.107064022963811e-08, 3.8092612139895265e-08, 0))
hIsland = hIsland.add(rect(6.000000000000001e-09, 2.967292986868427e-09).transl(1.0210095537562964e-07, 2.0425709635504038e-08, 0))
hIsland = hIsland.add(rect(6.000000000000001e-09, 2.9738330959335307e-10).transl(-2.8036139780382017e-08, 3.994002426160351e-08, 0))
hIsland = hIsland.sub(rect(6.000000000000001e-09, -2.128787484355411e-09).transl(8.799492263823456e-08, 2.8309857312078213e-08, 0))
hIsland = hIsland.sub(rect(6.000000000000001e-09, -1.7856676610148286e-09).transl(-4.461452738512429e-08, 3.8880390005973204e-08, 0))
hIsland = hIsland.add(rect(6.000000000000001e-09, 2.0985317438605896e-10).transl(3.3934184109112664e-08, 3.971648964462367e-08, 0))
hIsland = hIsland.sub(rect(6.000000000000001e-09, -1.9750923333257168e-09).transl(-4.623446600209294e-08, 3.8703369014606846e-08, 0))
hIsland = hIsland.sub(rect(6.000000000000001e-09, -8.61985275366767e-10).transl(-7.758997041231493e-08, 3.219721579851729e-08, 0))
hIsland = hIsland.sub(rect(6.000000000000001e-09, -1.5925450138180458e-09).transl(-7.89384462651279e-08, 3.175666647617916e-08, 0))
hIsland = hIsland.sub(rect(6.000000000000001e-09, -8.783776568193557e-10).transl(-1.1184569703092517e-07, 1.03843174535998e-08, 0))
hIsland = hIsland.add(rect(6.000000000000001e-09, 1.5515200380957368e-09).transl(9.797862124958544e-08, 2.3179281356798384e-08, 0))
hIsland = hIsland.sub(rect(6.000000000000001e-09, -2.6643429721168004e-09).transl(1.8721421520218537e-08, 4e-08, 0))
hIsland = hIsland.sub(rect(6.000000000000001e-09, -3.3353164066915476e-09).transl(9.302617875134529e-08, 2.5942842107474524e-08, 0))
hIsland = hIsland.sub(rect(6.000000000000001e-09, -1.9520571170723654e-09).transl(-9.993671820291966e-08, 2.1932795584428014e-08, 0))
hIsland = hIsland.sub(rect(6.000000000000001e-09, -1.422568876578324e-09).transl(-9.0568886749129e-08, 2.7146753535212715e-08, 0))
hIsland = hIsland.sub(rect(6.000000000000001e-09, -1.523650722311076e-09).transl(-7.719660940921666e-08, 3.232259280125891e-08, 0))
hIsland = hIsland.sub(rect(6.000000000000001e-09, -1.2723717577375128e-09).transl(-7.544092488954385e-08, 3.2865508711988215e-08, 0))
hIsland = hIsland.add(rect(6.000000000000001e-09, 3.4155827176113105e-09).transl(-3.4371432421023976e-08, 3.969327228613799e-08, 0))
hIsland = hIsland.add(rect(6.000000000000001e-09, 1.7045544501088163e-09).transl(3.209852295393019e-08, 3.980390705727229e-08, 0))
hIsland = hIsland.add(rect(6.000000000000001e-09, 3.824360614037958e-10).transl(4.030646384103659e-08, 3.9285890022763875e-08, 0))
hIsland = hIsland.add(rect(6.000000000000001e-09, 3.700216191328663e-11).transl(7.131137282971371e-08, 3.4041038435833126e-08, 0))
hIsland = hIsland.add(rect(6.000000000000001e-09, 1.3339541648175194e-09).transl(3.148046790106493e-08, 3.982969810896899e-08, 0))
hIsland = hIsland.sub(rect(6.000000000000001e-09, -3.2388770498167495e-09).transl(9.70794315235902e-09, 4e-08, 0))
hIsland = hIsland.sub(rect(6.000000000000001e-09, -2.037603816537762e-09).transl(2.035660586722097e-09, 4e-08, 0))
hIsland = hIsland.sub(rect(6.000000000000001e-09, -8.601392725397636e-10).transl(5.317118123775557e-08, 3.778783628897485e-08, 0))
hIsland = hIsland.sub(rect(6.000000000000001e-09, -2.615313314443684e-09).transl(-1.0905466463976392e-07, 1.4146109658699395e-08, 0))
hIsland = hIsland.sub(rect(6.000000000000001e-09, -4.1522307301325764e-10).transl(-1.2585371581930507e-10, 4e-08, 0))
hIsland = hIsland.add(rect(6.000000000000001e-09, 3.598047314520317e-09).transl(2.1604371279610614e-08, 4e-08, 0))
hIsland = hIsland.add(rect(6.000000000000001e-09, 4.103286496863587e-09).transl(1.0519328831981555e-07, 1.7970062034473114e-08, 0))
hIsland = hIsland.sub(rect(6.000000000000001e-09, -1.4206224463417809e-09).transl(-2.2977854020086416e-08, 4e-08, 0))
hIsland = hIsland.sub(rect(6.000000000000001e-09, -1.4644889486548033e-10).transl(-3.5358966597691185e-08, 3.963743038410839e-08, 0))
hIsland = hIsland.sub(rect(6.000000000000001e-09, -8.228141839269744e-10).transl(2.691465801243458e-08, 3.99637724713391e-08, 0))
hIsland = hIsland.add(rect(6.000000000000001e-09, 1.201999751517194e-09).transl(5.230491439682964e-08, 3.791648865528067e-08, 0))
hIsland = hIsland.add(rect(6.000000000000001e-09, 1.3785475376434863e-09).transl(1.1053285304039741e-07, 1.2312868754964206e-08, 0))
hIsland = hIsland.sub(rect(6.000000000000001e-09, -1.8025948552753177e-09).transl(2.7932787412298565e-09, 4e-08, 0))
hIsland = hIsland.sub(rect(6.000000000000001e-09, -7.0760439632650595e-09).transl(-4.0939439575988225e-08, 3.92321781332289e-08, 0))
hIsland = hIsland.add(rect(6.000000000000001e-09, 1.386952839389417e-09).transl(-1.2674001644122726e-08, 4e-08, 0))
hIsland = hIsland.add(rect(6.000000000000001e-09, 1.4779019397444756e-09).transl(-8.576959196887311e-09, 4e-08, 0))
hIsland = hIsland.add(rect(6.000000000000001e-09, 1.959828241040362e-09).transl(2.5470794470808306e-08, 3.9985572007277245e-08, 0))
hIsland = hIsland.sub(rect(6.000000000000001e-09, -4.1637410585868877e-10).transl(3.7408281659023794e-08, 3.95064097587867e-08, 0))
hIsland = hIsland.sub(rect(6.000000000000001e-09, -1.0750154451638094e-09).transl(6.669326633353596e-08, 3.520101196428014e-08, 0))
hIsland = hIsland.add(rect(6.000000000000001e-09, 1.8836412705794607e-09).transl(6.370082921539191e-08, 3.587270737536364e-08, 0))
hIsland = hIsland.sub(rect(6.000000000000001e-09, -1.241955950885251e-09).transl(2.4186608389001374e-08, 3.9996672736217465e-08, 0))
hIsland = hIsland.sub(rect(6.000000000000001e-09, -1.4482635296952046e-09).transl(7.304544957729937e-08, 3.3564127535263e-08, 0))
hIsland = hIsland.add(rect(6.000000000000001e-09, 1.961099702326909e-09).transl(-9.93290533681097e-08, 2.2330544882941116e-08, 0))
hIsland = hIsland.add(rect(6.000000000000001e-09, 1.1349564907057067e-09).transl(-6.861757463509654e-08, 3.473648268848433e-08, 0))
hIsland = hIsland.add(rect(6.000000000000001e-09, 3.080508831126637e-09).transl(8.365304233596043e-08, 3.007617441696933e-08, 0))
hIsland = hIsland.sub(rect(6.000000000000001e-09, -1.0453595075763346e-09).transl(-5.640940954098135e-09, 4e-08, 0))
hIsland = hIsland.sub(rect(6.000000000000001e-09, -4.3061227183346915e-10).transl(9.629953480908038e-08, 2.4173202197761063e-08, 0))
hIsland = hIsland.sub(rect(6.000000000000001e-09, -2.3896210112232384e-10).transl(6.246814311674043e-08, 3.613215001138823e-08, 0))
hIsland = hIsland.sub(rect(6.000000000000001e-09, -2.11162436781326e-09).transl(1.5146159736552603e-08, 4e-08, 0))
hIsland = hIsland.add(rect(6.000000000000001e-09, 2.3132033787216114e-09).transl(-5.4077230556385e-08, 3.764877417361749e-08, 0))
hIsland = hIsland.sub(rect(6.000000000000001e-09, -7.567268526075107e-10).transl(3.434259724226426e-08, 3.9694831859231514e-08, 0))
hIsland = hIsland.sub(rect(6.000000000000001e-09, -4.952579339950354e-10).transl(-2.999430635657089e-08, 3.9884236261849215e-08, 0))
hIsland = hIsland.sub(rect(6.000000000000001e-09, -2.6119577072373466e-10).transl(-2.9179262745831486e-08, 3.990967285170417e-08, 0))
hIsland = hIsland.sub(rect(6.000000000000001e-09, -8.746145728507788e-10).transl(-3.3236189917734104e-08, 3.9751640158213197e-08, 0))
hIsland = hIsland.sub(rect(6.000000000000001e-09, -4.752461571518678e-10).transl(1.0844406671879191e-08, 4e-08, 0))
hIsland = hIsland.sub(rect(6.000000000000001e-09, -1.3787828717259322e-10).transl(-4.8682315651344914e-08, 3.840983516235618e-08, 0))
hIsland = hIsland.sub(rect(6.000000000000001e-09, -2.2153289986895364e-09).transl(-1.0727297336450696e-07, 1.6046164263814102e-08, 0))
hIsland = hIsland.add(rect(6.000000000000001e-09, 4.738753325979034e-09).transl(5.0576239736868036e-08, 3.81608153275092e-08, 0))
hIsland = hIsland.sub(rect(6.000000000000001e-09, -1.3097315449183463e-09).transl(-2.955140796754618e-08, 3.989845109217148e-08, 0))
hIsland = hIsland.sub(rect(6.000000000000001e-09, -3.6346026699001104e-09).transl(4.574123790587029e-08, 3.875870802456135e-08, 0))
hIsland = hIsland.add(rect(6.000000000000001e-09, 2.1448534442885486e-09).transl(-1.8938188138258846e-08, 4e-08, 0))
hIsland = hIsland.add(rect(6.000000000000001e-09, 7.742629231184133e-10).transl(-7.664903025391205e-08, 3.24948201566963e-08, 0))
hIsland = hIsland.add(rect(6.000000000000001e-09, 3.1674962364173454e-09).transl(3.458247766194976e-08, 3.968173528893016e-08, 0))
hIsland = hIsland.add(rect(6.000000000000001e-09, 7.565935869528001e-10).transl(-8.504348416637265e-08, 2.9535170385440272e-08, 0))
hIsland = hIsland.sub(rect(6.000000000000001e-09, -7.522476174767737e-10).transl(-1.079545277431858e-07, 1.5351755968922668e-08, 0))
hIsland = hIsland.add(rect(6.000000000000001e-09, 4.055142119455204e-09).transl(1.0266733890726002e-07, 2.0005269208701565e-08, 0))
hIsland = hIsland.sub(rect(6.000000000000001e-09, -3.4888902036353637e-09).transl(9.486940547427393e-08, 2.4971774451148198e-08, 0))
hIsland = hIsland.add(rect(6.000000000000001e-09, 1.073630273221946e-09).transl(-7.329914515664472e-08, 3.349236291502181e-08, 0))
hIsland = hIsland.add(rect(6.000000000000001e-09, 2.2876882472027492e-09).transl(-6.081848005707483e-08, 3.646414342090264e-08, 0))
hIsland = hIsland.add(rect(6.000000000000001e-09, 9.075399204333191e-10).transl(2.0455904170527933e-08, 4e-08, 0))
hIsland = hIsland.add(rect(6.000000000000001e-09, 1.75979340490733e-10).transl(-1.0961186698668621e-07, 1.3487966330882516e-08, 0))
hIsland = hIsland.sub(rect(6.000000000000001e-09, -6.618942229924951e-10).transl(5.491075571807572e-08, 3.75167351933169e-08, 0))
hIsland = hIsland.add(rect(6.000000000000001e-09, 1.6450556262926882e-09).transl(-1.4198953749674128e-08, 4e-08, 0))
hIsland = hIsland.add(rect(6.000000000000001e-09, 1.0113751088400573e-09).transl(-1.0059399653628757e-07, 2.1490630576067612e-08, 0))
hIsland = hIsland.add(rect(6.000000000000001e-09, 2.248859426702547e-09).transl(-1.088464437179896e-07, 1.4383277026780792e-08, 0))
hIsland = hIsland.add(rect(6.000000000000001e-09, 1.28316393992463e-10).transl(-1.0863950970401721e-07, 1.4614610459272744e-08, 0))
hIsland = hIsland.sub(rect(6.000000000000001e-09, -2.307603283028538e-09).transl(1.0628406443835138e-07, 1.699418676670723e-08, 0))
hIsland = hIsland.sub(rect(6.000000000000001e-09, -2.689657555935781e-09).transl(-1.0070931271026636e-07, 2.1411720189074145e-08, 0))
hIsland = hIsland.sub(rect(6.000000000000001e-09, -1.0831414937044447e-09).transl(-1.0467341081083102e-07, 1.84126916784073e-08, 0))
hIsland = hIsland.sub(rect(6.000000000000001e-09, -3.4980973827429086e-09).transl(1.0110787671254795e-07, 2.1135799978453362e-08, 0))
hIsland = hIsland.sub(rect(6.000000000000001e-09, -1.4512855466664664e-11).transl(4.699289735869243e-08, 3.86157966353126e-08, 0))
hIsland = hIsland.add(rect(6.000000000000001e-09, 4.6272237546678806e-10).transl(7.091638887705299e-08, 3.414640910298142e-08, 0))
hIsland = hIsland.add(rect(6.000000000000001e-09, 9.736284510226515e-10).transl(8.537709850765826e-08, 2.9402035543404695e-08, 0))
hIsland = hIsland.sub(rect(6.000000000000001e-09, -9.892900402876302e-11).transl(3.888680926555006e-08, 3.9399100129245786e-08, 0))
hIsland = hIsland.sub(rect(6.000000000000001e-09, -2.606489812927756e-09).transl(-1.1030961519559021e-07, 1.2608928741458447e-08, 0))
hIsland = hIsland.add(rect(6.000000000000001e-09, 1.5891284835728523e-09).transl(2.4826375061979992e-08, 3.999211726234717e-08, 0))
hIsland = hIsland.sub(rect(6.000000000000001e-09, -3.3447155388431087e-10).transl(6.43823400763008e-08, 3.5725010248309946e-08, 0))
hIsland = hIsland.add(rect(6.000000000000001e-09, 1.0276116137072213e-09).transl(3.7490983781271605e-08, 3.9500691264920944e-08, 0))
hIsland = hIsland.add(rect(6.000000000000001e-09, 9.914226211998426e-10).transl(1.0451777627989313e-07, 1.8542609951541054e-08, 0))
hIsland = hIsland.sub(rect(6.000000000000001e-09, -1.554737731208067e-09).transl(-4.6146452681303136e-08, 3.871333677052118e-08, 0))
hIsland = hIsland.add(rect(6.000000000000001e-09, 1.936373912807338e-09).transl(-5.387492300540187e-08, 3.7680226344270854e-08, 0))
hIsland = hIsland.sub(rect(6.000000000000001e-09, -3.080717318893402e-09).transl(7.940240533782699e-08, 3.160115534758149e-08, 0))
hIsland = hIsland.add(rect(6.000000000000001e-09, 2.890006130208341e-10).transl(8.012140003317217e-08, 3.135607338369297e-08, 0))
hIsland = hIsland.sub(rect(6.000000000000001e-09, -3.968184365020205e-10).transl(-9.892891387553198e-08, 2.2586946217857832e-08, 0))
vIsland := hIsland.rotz(pi / 2)
vIslands := Universe().Inverse()
hIslands := Universe().Inverse()
hIslands = hIslands.add(hIsland.transl(-a/2, a, 0))
hIslands = hIslands.add(hIsland.transl(-a/2, -a, 0))
hIslands = hIslands.add(hIsland.transl(a/2, a, 0))
hIslands = hIslands.add(hIsland.transl(a/2, -a, 0))
hIslands = hIslands.add(hIsland.transl(-a/2, 0, 0))
hIslands = hIslands.add(hIsland.transl(a/2, 0, 0))
vIslands = vIslands.add(vIsland.transl(-a, a/2, 0))
vIslands = vIslands.add(vIsland.transl(a, a/2, 0))
vIslands = vIslands.add(vIsland.transl(-a, -a/2, 0))
vIslands = vIslands.add(vIsland.transl(a, -a/2, 0))
vIslands = vIslands.add(vIsland.transl(0, a/2, 0))
vIslands = vIslands.add(vIsland.transl(0, -a/2, 0))
DefRegion(1, hIslands)
DefRegion(2, vIslands)
TableAdd(m_full.Region(1))
TableAdd(m_full.Region(2))
setgeom(hIslands.add(vIslands))
save(m)
r2o2 := sqrt(2) / 2
m = RandomMagSeed(4)
B_ext = vector(Bmax*r2o2, Bmax*r2o2, 0)
relax()
minimize()
for B := Bmax; B >= -Bmax; B -= Bstep {
	B_ext = vector(B*r2o2, B*r2o2, 0)
	minimize()
	tablesave()
}
//********************************************************************//
//Please cite the following references, relevant for your simulation. //
//See bibtex file in output folder for justification.                 //
//********************************************************************//
//   * Exl et al., J. Appl. Phys. 115, 17D118 (2014).
//   * Vansteenkiste et al., AIP Adv. 4, 107133 (2014).
