# t (s)	mx ()	my ()	mz ()	B_extx (T)	B_exty (T)	B_extz (T)	m_fullx (A/m)	m_fully (A/m)	m_fullz (A/m)	m_full.region1x (A/m)	m_full.region1y (A/m)	m_full.region1z (A/m)	m_full.region2x (A/m)	m_full.region2y (A/m)	m_full.region2z (A/m)
0	0.63235897	0.6323565	4.714127e-10	0.070710756	0.070710756	0	113098.17	113097.74	8.650519e-05	662094.3	223205.44	0.0009479957	223208.27	662093.7	-0.0002979415
0	0.63224214	0.63223976	-4.3912415e-10	0.07056913	0.070569135	0	113077.27	113076.84	-7.266436e-05	662177.1	222959.03	-0.00023022752	222961.83	662176.56	-0.00035888408
0	0.6321218	0.6321195	-1.9373124e-10	0.07042789	0.07042789	0	113055.75	113055.34	-3.8062284e-05	662262.44	222705.33	-0.00014897075	222708.1	662261.94	-0.00016928495
0	0.6320013	0.631999	-4.5203955e-11	0.07028644	0.07028644	0	113034.21	113033.78	-1.4705883e-05	662347.7	222451.36	2.708559e-05	222454.11	662347.25	-0.00011511376
0	0.63188	0.63187766	-1.7637615e-10	0.07014497	0.07014497	0	113012.5	113012.09	-3.4602075e-05	662433.4	222195.9	-0.00010834236	222198.69	662432.94	-0.00015912784
0	0.63175863	0.6317563	-1.4206958e-10	0.07000352	0.07000352	0	112990.79	112990.37	-2.4221454e-05	662519	221940.22	-6.0942577e-05	221942.97	662518.56	-0.00012527086
0	0.63163733	0.631635	-9.686562e-11	0.06986227	0.06986227	0	112969.09	112968.67	-1.6435986e-05	662604.44	221685.08	-0.00010834236	221687.83	662603.9	-3.3856988e-05
0	0.631516	0.6315136	-3.4871622e-10	0.069720656	0.069720656	0	112947.39	112946.98	-6.5743945e-05	662689.56	221429.95	-0.00036565546	221432.77	662689.1	-0.00016251355
0	0.63139373	0.63139135	-3.228854e-11	0.06957922	0.06957922	0	112925.53	112925.1	-3.4602076e-06	662775.3	221173.1	4.7399782e-05	221175.9	662774.8	-4.0628387e-05
0	0.63127166	0.6312693	-2.9059685e-10	0.06943795	0.06943795	0	112903.695	112903.28	-5.233564e-05	662860.7	220916.81	-0.00021668473	220919.6	662860.25	-0.00020314193
0	0.6311485	0.6311462	-4.778704e-10	0.06929648	0.06929647	0	112881.68	112881.26	-8.3044986e-05	662946.7	220658.47	-0.00036565546	220661.22	662946.1	-0.00032841277
0	0.6310262	0.6310238	-2.0018895e-10	0.069155045	0.069155045	0	112859.79	112859.375	-3.114187e-05	663031.94	220401.84	-0.00016251355	220404.62	663031.44	-9.4799565e-05
0	0.6309033	0.63090086	-1.7435811e-10	0.0690136	0.0690136	0	112837.82	112837.39	-3.4602075e-05	663117.5	220144.36	-6.7713976e-05	220147.14	663117	-0.00016251355
0	0.6307795	0.6307772	-9.040791e-11	0.06887216	0.06887216	0	112815.67	112815.26	-1.7301038e-05	663203.4	219885.19	-6.7713976e-05	219887.97	663202.9	-5.755688e-05
0	0.6306565	0.6306542	-1.4206958e-10	0.068730734	0.068730734	0	112793.695	112793.26	-2.768166e-05	663288.56	219627.77	-5.417118e-05	219630.55	663288.06	-9.4799565e-05
0	0.6305321	0.63052976	-5.3598975e-10	0.068589285	0.068589285	0	112771.43	112771.01	-9.2668684e-05	663374.6	219367.53	-0.00036565546	219370.31	663374.1	-0.000348727
0	0.6304085	0.6304062	-1.9373124e-10	0.06844799	0.06844799	0	112749.336	112748.92	-2.768166e-05	663459.9	219109.33	-9.4799565e-05	219112.1	663459.4	-0.00017267064
0	0.6302838	0.63028145	-4.068356e-10	0.06830654	0.06830654	0	112727.016	112726.59	-7.266436e-05	663545.8	218848.69	-0.0002708559	218851.48	663545.3	-0.0002776273
0	0.6301593	0.63015705	-4.068356e-10	0.06816512	0.06816512	0	112704.77	112704.34	-7.2880626e-05	663631.4	218588.95	-0.0003114843	218591.75	663630.9	-0.0002708559
0	0.63003445	0.6300321	-1.8081582e-10	0.06802368	0.068023674	0	112682.43	112682	-2.4221454e-05	663717.1	218328.36	-0.00014897075	218331.17	663716.56	-9.8185265e-05
0	0.6299094	0.629907	-3.164277e-10	0.06788223	0.06788224	0	112660.055	112659.63	-5.882353e-05	663802.8	218067.58	-0.0002843987	218070.36	663802.25	-0.00016251355
0	0.6297842	0.6297819	-2.2601979e-10	0.06774081	0.06774082	0	112637.67	112637.25	-3.633218e-05	663888.25	217806.89	-0.00020314193	217809.69	663887.75	-6.432828e-05
0	0.6296581	0.6296557	-4.5203957e-10	0.06759932	0.06759933	0	112615.11	112614.695	-8.3044986e-05	663974.25	217544.28	-0.0003385699	217547.08	663973.8	-0.0003013272
0	0.62953234	0.62953	-4.843281e-10	0.06745807	0.06745807	0	112592.63	112592.2	-8.3044986e-05	664059.9	217282.62	-0.0002979415	217285.4	664059.4	-0.00034534128
0	0.6294062	0.6294038	-2.453929e-10	0.06731661	0.067316614	0	112570.06	112569.65	-4.1522493e-05	664145.6	217020.3	-0.00021668473	217023.11	664145.1	-0.00011511376
0	0.6292799	0.6292776	-3.228854e-10	0.06717501	0.06717501	0	112547.46	112547.055	-5.882353e-05	664231.25	216757.81	-0.0002979415	216760.6	664230.75	-0.00014558504
0	0.62915254	0.6291502	-5.101589e-10	0.06703377	0.06703377	0	112524.695	112524.28	-8.99654e-05	664317.44	216493.36	-0.0002911701	216496.19	664316.8	-0.00044014084
0	0.629026	0.6290237	-2.1956208e-10	0.06689231	0.0668923	0	112502.07	112501.64	-3.8062284e-05	664402.9	216230.73	-8.1256774e-05	216233.55	664402.4	-0.00015235644
0	0.62889844	0.6288961	-4.2620873e-10	0.066750854	0.066750854	0	112479.26	112478.83	-7.612457e-05	664488.8	215966.17	-0.00023022752	215968.97	664488.4	-0.0003385699
0	0.6287712	0.62876874	-4.1329332e-10	0.06660941	0.066609405	0	112456.484	112456.05	-7.612457e-05	664574.56	215702.25	-0.00033179848	215705.05	664574	-0.00031486998
0	0.6286431	0.6286407	-2.2601979e-10	0.06646814	0.06646814	0	112433.58	112433.16	-3.8062284e-05	664660.44	215437.06	-8.1256774e-05	215439.86	664660	-0.00023699892
0	0.6285152	0.6285128	-2.3247748e-10	0.06632655	0.06632655	0	112410.7	112410.28	-4.1522493e-05	664746.1	215172.36	-0.00016251355	215175.14	664745.6	-0.00015235644
0	0.62838656	0.62838423	-2.7122374e-10	0.066185094	0.066185094	0	112387.7	112387.28	-4.49827e-05	664832.2	214906.23	-0.00018959913	214909.06	664831.6	-0.00013542795
0	0.6282578	0.6282554	-1.8727353e-10	0.06604383	0.06604383	0	112364.66	112364.25	-3.211505e-05	664918.06	214640.03	-0.00016251355	214642.84	664917.6	-9.4799565e-05
0	0.62812936	0.62812704	-2.9059685e-10	0.06590232	0.06590232	0	112341.69	112341.29	-5.017301e-05	665003.56	214374.67	-0.00013542795	214377.48	665003.2	-0.0002573131
0	0.6279997	0.6279974	-2.2601979e-10	0.06576094	0.06576094	0	112318.516	112318.1	-3.8062284e-05	665089.75	214107.08	-0.00021668473	214109.88	665089.3	-0.000101570964
0	0.6278705	0.6278682	-4.5849727e-10	0.06561947	0.06561947	0	112295.4	112294.98	-8.044983e-05	665175.5	213840.44	-0.0003250271	213843.23	665175.06	-0.00033179848
0	0.6277406	0.62773824	-1.8727353e-10	0.06547822	0.06547822	0	112272.164	112271.75	-3.4602075e-05	665261.5	213572.56	-0.00010834236	213575.36	665261	-0.000101570964
0	0.6276106	0.62760836	-1.8081582e-10	0.06533663	0.06533663	0	112248.914	112248.51	-3.8062284e-05	665347.25	213304.78	-0.00013542795	213307.6	665346.75	-0.00013542795
0	0.62748003	0.62747765	-7.74925e-11	0.06519517	0.06519517	0	112225.56	112225.14	-1.384083e-05	665433.5	213035.77	-6.7713976e-05	213038.58	665433	-8.4642474e-05
0	0.6273497	0.6273474	-1.3561187e-10	0.06505391	0.0650539	0	112202.24	112201.836	-2.249135e-05	665519.25	212767.52	-5.417118e-05	212770.33	665518.7	-0.00013542795
0	0.6272188	0.6272164	-1.1623874e-10	0.06491239	0.06491239	0	112178.836	112178.43	-1.384083e-05	665605.1	212498.39	-0.000121885154	212501.19	665604.7	1.3542795e-05
0	0.62708783	0.62708557	1.0332333e-10	0.06477102	0.06477102	0	112155.414	112155.01	2.0436852e-05	665690.94	212229.23	8.1256774e-05	212232.08	665690.44	8.4642474e-05
0	0.62695587	0.62695354	-3.8746248e-10	0.06462957	0.06462957	0	112131.82	112131.41	-6.5743945e-05	665777.1	211958.31	-0.0002843987	211961.16	665776.75	-0.0002776273
0	0.6268245	0.6268221	-3.293431e-10	0.06448808	0.06448808	0	112108.31	112107.89	-6.228374e-05	665862.94	211688.42	-0.00017605633	211691.22	665862.5	-0.0003114843
0	0.6266923	0.6266899	-3.0997e-10	0.06434671	0.064346716	0	112084.67	112084.26	-5.806661e-05	665949	211417.33	-0.00022007042	211420.1	665948.6	-0.00018959913
0	0.6265602	0.6265579	-3.293431e-10	0.064205244	0.064205244	0	112061.055	112060.63	-5.882353e-05	666034.9	211146.67	-0.0002573131	211149.5	666034.3	-0.00017267064
0	0.62642777	0.6264254	-1.679004e-10	0.064063944	0.064063944	0	112037.35	112036.94	-2.768166e-05	666120.75	210875.23	-8.1256774e-05	210878.06	666120.3	-0.00012865655
0	0.6262949	0.6262926	-1.9373124e-10	0.06392247	0.06392247	0	112013.6	112013.19	-3.8062284e-05	666206.7	210603.34	-0.00017605633	210606.19	666206.3	-7.4485375e-05
0	0.6261617	0.6261593	-3.0351227e-10	0.063781105	0.063781105	0	111989.78	111989.36	-5.363322e-05	666292.75	210330.83	-0.00017605633	210333.62	666292.3	-0.00022345613
0	0.6260282	0.6260259	-2.453929e-10	0.06363964	0.06363964	0	111965.914	111965.484	-4.49827e-05	666378.7	210058	-0.00018959913	210060.81	666378.25	-0.00016928495
0	0.6258945	0.6258922	-1.8081582e-10	0.063498154	0.063498154	0	111942	111941.59	-2.514057e-05	666464.7	209784.9	-9.4799565e-05	209787.73	666464.3	-0.00016251355
0	0.62575996	0.62575763	-2.0664666e-10	0.0633568	0.0633568	0	111917.92	111917.5	-3.8062284e-05	666551.1	209509.92	-9.4799565e-05	209512.73	666550.7	-0.00019637053
0	0.625626	0.62562364	-2.1956208e-10	0.06321528	0.06321528	0	111893.97	111893.56	-3.4602075e-05	666636.94	209236.72	-0.00010834236	209239.5	666636.5	-0.00015574215
0	0.62549174	0.6254894	-1.0978104e-10	0.06307401	0.063074015	0	111869.945	111869.53	-1.4922145e-05	666722.8	208962.83	-2.708559e-05	208965.64	666722.3	-0.00013204226
0	0.62535644	0.6253541	3.228854e-11	0.06293254	0.06293254	0	111845.75	111845.34	3.4602076e-06	666809	208687.17	-5.417118e-05	208689.95	666808.7	6.0942577e-05
0	0.6252213	0.62521905	-2.9705458e-10	0.06279098	0.062790975	0	111821.59	111821.18	-5.1903113e-05	666895.06	208412.05	-0.0002708559	208414.88	666894.56	-0.00014219935
0	0.62508583	0.62508357	1.2915416e-11	0.062649705	0.06264971	0	111797.36	111796.94	3.4061418e-06	666981.1	208136.3	1.3542795e-05	208139.1	666980.7	0
0	0.62495005	0.62494767	-3.0997e-10	0.06250823	0.06250823	0	111773.07	111772.664	-4.8442907e-05	667067.1	207860.12	-0.0002708559	207862.94	667066.7	-0.00015235644
0	0.6248142	0.6248119	-3.358008e-10	0.062366836	0.062366836	0	111748.77	111748.36	-5.882353e-05	667153.06	207584	-0.0002776273	207586.83	667152.6	-0.00016928495
0	0.62467784	0.6246756	-6.1994e-10	0.062225346	0.062225346	0	111724.4	111723.98	-0.00010899654	667239.1	207307.11	-0.00036565546	207309.9	667238.7	-0.00049431203
0	0.6245412	0.62453896	-1.7435811e-10	0.062084086	0.062084086	0	111699.98	111699.54	-2.768166e-05	667325.2	207029.89	-0.00013542795	207032.67	667324.7	-0.00014219935
0	0.624404	0.6244018	-2.389352e-10	0.061942536	0.061942536	0	111675.43	111675.01	-4.49827e-05	667411.4	206751.5	-0.00020314193	206754.33	667410.94	-0.00016251355
0	0.624267	0.62426466	-6.457708e-11	0.061801046	0.061801046	0	111650.91	111650.5	-1.384083e-05	667497.3	206473.69	-0.00013542795	206476.5	667496.9	3.3856988e-05
0	0.6241293	0.6241271	-6.457708e-11	0.061659783	0.061659783	0	111626.3	111625.875	-1.0380623e-05	667583.44	206194.83	-8.1256774e-05	206197.61	667583.1	4.7399782e-05
0	0.6239915	0.6239892	-1.0978104e-10	0.061518256	0.061518256	0	111601.625	111601.22	-2.0761247e-05	667669.5	205915.69	-9.4799565e-05	205918.5	667669.2	-7.4485375e-05
0	0.6238533	0.62385094	-3.0351227e-10	0.061376907	0.061376907	0	111576.914	111576.51	-5.536332e-05	667755.7	205636.08	-0.0002708559	205638.92	667755.3	-0.00016928495
0	0.6237151	0.6237128	-1.9373124e-10	0.061235435	0.061235435	0	111552.2	111551.8	-2.9411765e-05	667841.56	205356.83	-0.00013542795	205359.64	667841.1	-8.4642474e-05
0	0.62357634	0.623574	-2.9059685e-10	0.061093953	0.061093953	0	111527.375	111526.98	-4.8442907e-05	667927.56	205076.53	-0.00013542795	205079.34	667927.2	-0.0002708559
0	0.6234375	0.6234352	-4.3266643e-10	0.06095263	0.06095263	0	111502.56	111502.16	-8.3044986e-05	668013.56	204796.19	-0.0003250271	204799	668013.2	-0.0002877844
0	0.62329787	0.62329555	-1.0332333e-10	0.060811136	0.060811136	0	111477.59	111477.17	-2.249135e-05	668099.9	204514.42	-2.708559e-05	204517.25	668099.44	-0.000121885154
0	0.6231584	0.62315613	-2.1310437e-10	0.060669806	0.060669806	0	111452.625	111452.22	-4.3252596e-05	668185.9	204233.08	-0.00023022752	204235.9	668185.44	-9.1413865e-05
0	0.6230181	0.6230158	-2.9705458e-10	0.060528323	0.060528323	0	111427.54	111427.13	-5.687716e-05	668272.1	203950.45	-0.00024377031	203953.27	668271.75	-0.00020314193
0	0.62287813	0.62287587	-4.5849727e-10	0.06038699	0.06038699	0	111402.516	111402.1	-8.4775085e-05	668358.06	203668.58	-0.00021668473	203671.39	668357.56	-0.00040628386
0	0.622738	0.6227357	5.1661665e-11	0.060245514	0.060245514	0	111377.43	111377.03	6.920415e-06	668443.9	203386.44	-9.4799565e-05	203389.25	668443.44	0.00011511376
0	0.6225967	0.6225944	-6.457708e-12	0.060104024	0.060104024	0	111352.18	111351.766	-1.2975779e-06	668530.2	203102.42	-2.708559e-05	203105.23	668529.8	-6.7713977e-06
0	0.6224557	0.62245345	-1.2915416e-10	0.0599627	0.0599627	0	111326.96	111326.55	-2.0761247e-05	668616.2	202819.05	-0.00021668473	202821.88	668615.75	1.3542795e-05
0	0.622314	0.6223118	-1.0332333e-10	0.05982116	0.05982116	0	111301.62	111301.22	-1.9031142e-05	668702.3	202534.52	-0.00013542795	202537.31	668701.94	-3.3856988e-05
0	0.62217253	0.6221704	7.74925e-11	0.059679892	0.059679892	0	111276.33	111275.92	1.778763e-05	668788.2	202250.67	5.417118e-05	202253.48	668787.8	8.8028166e-05
0	0.6220303	0.62202793	-9.686562e-11	0.059538387	0.059538387	0	111250.87	111250.45	-1.7301038e-05	668874.44	201965.17	-0.00018959913	201968	668874	6.7713976e-05
0	0.62188804	0.6218858	-2.6476601e-10	0.059396863	0.059396863	0	111225.43	111225.03	-5.017301e-05	668960.3	201680.08	-0.00023699892	201682.89	668960	-0.00013542795
0	0.62174493	0.62174267	-1.9373124e-10	0.059255596	0.05925559	0	111199.836	111199.43	-3.114187e-05	669046.7	201393.39	-9.4799565e-05	201396.2	669046.3	-8.294962e-05
0	0.6216022	0.6216	-3.6808936e-10	0.059114084	0.059114084	0	111174.305	111173.89	-6.401384e-05	669132.7	201107.62	-0.0003114843	201110.44	669132.25	-0.00019298484
0	0.6214586	0.6214563	-3.358008e-10	0.05897273	0.05897273	0	111148.63	111148.23	-6.401384e-05	669218.75	200820.48	-0.00020314193	200823.31	669218.4	-0.0002843987
0	0.6213153	0.621313	1.9373125e-11	0.05883124	0.05883124	0	111122.984	111122.586	8.326125e-06	669304.75	200533.89	2.708559e-05	200536.72	669304.25	2.708559e-05
0	0.62117124	0.621169	-3.7454706e-10	0.05868996	0.05868996	0	111097.22	111096.81	-6.920415e-05	669390.8	200246.08	-0.0002573131	200248.9	669390.44	-0.00023699892
0	0.6210271	0.62102485	1.614427e-10	0.058548428	0.058548428	0	111071.45	111071.04	2.768166e-05	669476.75	199958.42	0.00013542795	199961.25	669476.4	7.4485375e-05
0	0.6208825	0.6208801	-3.9392017e-10	0.058406938	0.058406938	0	111045.586	111045.17	-6.758218e-05	669562.8	199669.83	-0.0002573131	199672.64	669562.44	-0.0002742416
0	0.6207379	0.6207355	-7.74925e-11	0.05826566	0.05826566	0	111019.72	111019.31	-1.384083e-05	669648.75	199381.53	-0.00013542795	199384.38	669648.3	6.7713977e-06
0	0.6205924	0.62059015	-3.6808936e-10	0.058124106	0.058124106	0	110993.695	110993.305	-6.5743945e-05	669734.8	199091.75	-0.0002708559	199094.56	669734.4	-0.00024377031
0	0.6204467	0.6204444	-2.0664666e-10	0.057982814	0.057982814	0	110967.64	110967.234	-4.282007e-05	669821.06	198801.56	-6.7713976e-05	198804.39	669820.56	-0.00023699892
0	0.62030107	0.6202988	-5.618206e-10	0.057841305	0.057841312	0	110941.61	110941.2	-9.6885815e-05	669906.9	198511.81	-0.00037919826	198514.62	669906.5	-0.00037919826
0	0.6201548	0.6201526	-4.003779e-10	0.057699807	0.057699807	0	110915.445	110915.03	-6.920415e-05	669992.94	198221.03	-0.0002979415	198223.84	669992.56	-0.0002573131
0	0.6200084	0.62000614	-2.7122374e-10	0.057558525	0.057558525	0	110889.26	110888.85	-4.941609e-05	670078.9	197930.12	-0.00021668473	197932.94	670078.5	-0.00015574215
0	0.61986166	0.61985934	-1.3561187e-10	0.05741701	0.05741701	0	110863	110862.59	-2.9411765e-05	670164.8	197638.6	-2.708559e-05	197641.44	670164.5	-0.00015912784
0	0.61971426	0.619712	-6.457708e-11	0.057275683	0.057275683	0	110836.64	110836.24	-8.650519e-06	670250.94	197346.19	0	197349.02	670250.6	-0.000101570964
0	0.61956716	0.61956495	-8.39502e-11	0.057134178	0.057134178	0	110810.336	110809.94	-1.4705883e-05	670336.75	197054.45	-1.3542795e-05	197057.28	670336.4	-8.8028166e-05
0	0.61941934	0.6194171	1.2915416e-11	0.056992896	0.056992896	0	110783.91	110783.5	3.4602076e-06	670422.8	196761.47	-4.0628387e-05	196764.3	670422.4	4.4014083e-05
0	0.61927116	0.61926895	-3.5517395e-10	0.056851387	0.056851387	0	110757.41	110756.99	-5.7093424e-05	670508.7	196468.1	-0.00021668473	196470.92	670508.44	-0.00025054172
0	0.6191226	0.61912036	-3.0351227e-10	0.056709882	0.056709882	0	110730.83	110730.414	-5.4336073e-05	670594.8	196174	-0.0003385699	196176.83	670594.44	-0.000101570964
0	0.61897415	0.6189719	-2.6476601e-10	0.056568604	0.056568604	0	110704.266	110703.87	-4.49827e-05	670680.7	195880.36	-0.00018959913	195883.17	670680.3	-0.00016251355
0	0.6188247	0.6188226	-1.679004e-10	0.05642703	0.05642703	0	110677.56	110677.164	-3.633218e-05	670766.7	195585.19	-0.00012865655	195588.02	670766.3	-0.00014897075
0	0.61867577	0.6186736	-5.0370125e-10	0.056285758	0.056285758	0	110650.93	110650.516	-8.99654e-05	670852.4	195291	-0.00041982665	195293.78	670852	-0.00031825568
0	0.61852604	0.6185238	-1.679004e-10	0.05614425	0.05614425	0	110624.14	110623.73	-2.9411765e-05	670938.25	194995.36	-0.00010834236	194998.2	670937.94	-0.00011511376
0	0.618376	0.61837375	-3.6808936e-10	0.056002736	0.056002736	0	110597.3	110596.89	-7.093426e-05	671024.25	194699.34	-0.00031825568	194702.17	671023.8	-0.00023022752
0	0.6182255	0.6182233	-3.8100478e-10	0.055861462	0.05586146	0	110570.39	110569.984	-6.747405e-05	671110.1	194402.84	-0.0003250271	194405.69	671109.8	-0.00021668473
0	0.61807424	0.618072	-1.4206958e-10	0.055719953	0.055719953	0	110543.32	110542.92	-3.2871973e-05	671196.4	194104.75	-0.00013542795	194107.55	671196.06	-8.8028166e-05
0	0.61792356	0.6179213	-1.2915416e-11	0.05557868	0.05557868	0	110516.38	110515.98	-1.7301038e-06	671282.06	193808.11	-0.00010834236	193810.94	671281.7	9.4799565e-05
0	0.6177722	0.6177699	-3.228854e-11	0.05543712	0.05543712	0	110489.32	110488.9	-5.8391e-06	671367.9	193510.38	4.0628387e-05	193513.17	671367.56	-6.0942577e-05
0	0.61762047	0.61761826	-6.457708e-11	0.05529583	0.05529583	0	110462.17	110461.77	-1.384083e-05	671453.75	193212.12	-0.00010834236	193214.94	671453.44	0
0	0.61746866	0.61746645	-1.8727353e-10	0.055154327	0.055154327	0	110435.02	110434.64	-3.633218e-05	671539.44	192914	-0.00011511376	192916.81	671539.06	-0.00014897075
0	0.61731595	0.61731374	-3.228854e-10	0.055012815	0.055012815	0	110407.71	110407.3	-5.363322e-05	671625.4	192614.1	-0.00018959913	192616.92	671625.1	-0.00023022752
0	0.61716336	0.61716115	-2.0664666e-10	0.054871533	0.054871533	0	110380.42	110380.01	-3.114187e-05	671711.2	192314.64	-9.4799565e-05	192317.47	671710.94	-0.00015912784
0	0.6170096	0.6170073	4.843281e-10	0.05473003	0.05473003	0	110352.914	110352.51	8.650519e-05	671797.44	192013.23	0.0003114843	192016.05	671797	0.00040628386
0	0.61685675	0.6168545	-1.9373125e-11	0.054588694	0.054588694	0	110325.57	110325.164	-3.4602076e-06	671882.9	191713.77	6.7713976e-05	191716.6	671882.5	-0.00011172806
0	0.61670333	0.61670107	-1.3561187e-10	0.05444718	0.05444718	0	110298.14	110297.75	-2.5951556e-05	671968.44	191413.42	-0.00013542795	191416.25	671968.2	-8.8028166e-05
0	0.61654913	0.6165469	2.5830832e-11	0.054305915	0.054305915	0	110270.555	110270.16	8.650519e-06	672054.3	191111.67	6.7713977e-06	191114.5	672053.94	6.0942577e-05
0	0.61639506	0.61639273	-9.040791e-11	0.054164402	0.054164402	0	110243	110242.59	-1.8220157e-05	672139.9	190810.31	-0.00010834236	190813.12	672139.56	1.3542795e-05
0	0.61623985	0.6162376	-7.74925e-11	0.054022882	0.054022882	0	110215.25	110214.85	-2.0761247e-05	672225.75	190507.25	-6.7713976e-05	190510.06	672225.5	-5.0785482e-05
0	0.6160849	0.6160826	-2.1956208e-10	0.053881615	0.053881615	0	110187.516	110187.12	-4.1522493e-05	672311.5	190204.48	-0.00016928495	190207.3	672311.2	-0.00016928495
0	0.61592954	0.6159273	-1.0332333e-10	0.05374005	0.05374005	0	110159.73	110159.34	-1.5408737e-05	672397.1	189901.36	-1.3542795e-05	189904.19	672396.8	-0.00010495666
0	0.61577344	0.61577123	-2.389352e-10	0.053598765	0.053598765	0	110131.83	110131.44	-4.3252596e-05	672482.94	189597.12	-0.00014897075	189599.94	672482.6	-0.00016589924
0	0.6156179	0.6156156	-1.3561187e-10	0.053457264	0.053457264	0	110104	110103.6	-2.4221454e-05	672568.44	189293.8	-0.00017605633	189296.61	672568.06	0
0	0.6154609	0.6154586	-3.8746248e-10	0.05331577	0.05331577	0	110075.92	110075.52	-6.228374e-05	672654.3	188988.11	-0.00024377031	188990.95	672653.94	-0.0002776273
0	0.6153045	0.61530226	-7.74925e-11	0.053174473	0.053174473	0	110047.95	110047.56	-2.0761247e-05	672739.6	188683.89	-2.708559e-05	188686.67	672739.4	-8.1256774e-05
0	0.615147	0.6151448	-1.4206958e-10	0.053032972	0.053032972	0	110019.78	110019.39	-2.768166e-05	672825.44	188377.61	-0.00010834236	188380.42	672825.06	-6.0942577e-05
0	0.6149895	0.61498725	-5.1661665e-11	0.052891634	0.052891634	0	109991.62	109991.22	-8.650519e-06	672911	188071.5	-0.000101570964	188074.3	672910.7	3.0471288e-05
0	0.61483204	0.6148299	-1.8081582e-10	0.05275012	0.05275012	0	109963.45	109963.06	-3.4602075e-05	672996.3	187765.78	-0.00013542795	187768.6	672996.1	-0.00016251355
0	0.6146734	0.6146711	-5.1661665e-11	0.052608836	0.052608836	0	109935.08	109934.67	-1.0380623e-05	673082.2	187457.7	-3.3856988e-05	187460.52	673081.9	-5.417118e-05
0	0.6145151	0.6145129	-5.1661665e-11	0.052467342	0.052467342	0	109906.78	109906.38	-8.650519e-06	673167.5	187150.9	-4.0628387e-05	187153.7	673167.3	-6.7713977e-06
0	0.61435634	0.61435413	-2.0018895e-10	0.052325826	0.052325826	0	109878.375	109877.98	-3.4602075e-05	673253.06	186843.1	-0.0002708559	186845.9	673252.6	3.0471288e-05
0	0.6141969	0.61419463	-1.4206958e-10	0.05218455	0.05218455	0	109849.84	109849.445	-2.4221454e-05	673338.56	186534.22	-8.1256774e-05	186537.02	673338.25	-8.1256774e-05
0	0.6140376	0.6140353	9.040791e-11	0.05204299	0.05204299	0	109821.36	109820.96	1.7301038e-05	673423.9	186225.88	4.0628387e-05	186228.69	673423.5	9.1413865e-05
0	0.6138775	0.61387515	-1.3561187e-10	0.051901694	0.051901694	0	109792.72	109792.31	-2.768166e-05	673509.3	185916.2	-0.00017605633	185919.02	673509.1	6.7713977e-06
0	0.6137174	0.61371523	-1.2915416e-11	0.051760197	0.051760197	0	109764.1	109763.71	-5.1903116e-06	673594.56	185606.9	5.417118e-05	185609.7	673594.44	-8.1256774e-05
0	0.6135567	0.6135544	-2.5185062e-10	0.051618703	0.051618703	0	109735.35	109734.95	-4.2009084e-05	673680	185296.4	-0.00018959913	185299.2	673679.75	-0.00013542795
0	0.6133954	0.6133932	-1.9373124e-10	0.05147742	0.05147742	0	109706.516	109706.125	-3.633218e-05	673765.5	184985.3	-0.00021668473	184988.11	673765.25	-4.0628387e-05
0	0.6132339	0.6132317	-2.9705458e-10	0.051335912	0.051335912	0	109677.625	109677.234	-5.1903113e-05	673850.94	184673.64	-0.00022345613	184676.44	673850.7	-0.00016251355
0	0.61307186	0.61306965	6.457708e-12	0.051194567	0.051194567	0	109648.64	109648.25	7.028547e-06	673936.44	184361.34	-1.3542795e-05	184364.16	673936.2	4.7399782e-05
0	0.6129104	0.61290807	-6.457708e-11	0.051053073	0.051053073	0	109619.76	109619.36	-1.2110727e-05	674021.44	184050.23	0	184053.05	674021.25	-8.4642474e-05
0	0.61274755	0.6127454	-4.19751e-10	0.05091177	0.05091177	0	109590.65	109590.25	-7.439446e-05	674106.9	183736.9	-0.0002843987	183739.7	674106.6	-0.00030471288
0	0.61258477	0.6125826	1.0978104e-10	0.050770275	0.050770275	0	109561.54	109561.13	1.9031142e-05	674192.06	183423.77	3.3856988e-05	183426.56	674191.8	0.00012865655
0	0.6124213	0.6124191	-2.8413916e-10	0.05062879	0.05062879	0	109532.29	109531.91	-5.1903113e-05	674277.5	183109.56	-0.0002573131	183112.36	674277.25	-0.00014219935
0	0.6122579	0.61225563	-2.9705458e-10	0.05048749	0.05048749	0	109503.06	109502.68	-5.536332e-05	674362.6	182795.6	-0.00025054172	182798.39	674362.44	-0.00017605633
0	0.61209416	0.612092	-1.2915416e-10	0.05034593	0.05034593	0	109473.8	109473.4	-2.5681229e-05	674447.7	182481.44	-0.00021668473	182484.23	674447.44	6.0942577e-05
0	0.61192983	0.61192757	-1.614427e-10	0.050204646	0.050204646	0	109444.38	109443.984	-2.768166e-05	674533	182165.97	-0.00016251355	182168.77	674532.6	-8.8028166e-05
0	0.6117648	0.6117625	-2.389352e-10	0.050063137	0.050063137	0	109414.87	109414.47	-3.9792387e-05	674618.25	181849.61	-0.00014897075	181852.42	674617.94	-0.00020314193
0	0.6116002	0.6115981	-5.1661665e-11	0.04992165	0.04992165	0	109385.44	109385.05	-1.384083e-05	674703.1	181534.38	-0.00014897075	181537.19	674702.8	3.3856988e-05
0	0.61143476	0.6114327	-6.457708e-12	0.04978036	0.04978036	0	109355.84	109355.47	-3.4602076e-06	674788.2	181217.73	2.708559e-05	181220.55	674787.9	-2.708559e-05
0	0.611269	0.6112668	-5.1661664e-10	0.049638852	0.049638852	0	109326.195	109325.81	-9.8615914e-05	674873.25	180900.55	-0.00043336945	180903.36	674873	-0.0002911701
0	0.611103	0.6111008	-1.2915416e-10	0.049497508	0.049497508	0	109296.5	109296.125	-2.1193771e-05	674958.25	180583.12	-0.00018959913	180585.92	674957.9	-1.3542795e-05
0	0.6109362	0.61093414	-1.4206958e-10	0.04935601	0.04935601	0	109266.695	109266.31	-2.4221454e-05	675043.4	180264.69	-0.00018959913	180267.48	675043.06	-1.0157097e-05
0	0.6107691	0.61076695	-1.2269645e-10	0.049214706	0.049214706	0	109236.79	109236.41	-2.4221454e-05	675128.4	179945.56	-0.00031825568	179948.34	675128.06	0.00016928495
0	0.6106022	0.61060005	-3.5517395e-10	0.049073216	0.049073216	0	109206.945	109206.56	-6.7690315e-05	675213.1	179627.16	-0.00021668473	179629.95	675212.8	-0.0002877844
0	0.6104346	0.6104325	-9.686562e-11	0.048931725	0.048931725	0	109176.98	109176.59	-1.9031142e-05	675298.06	179307.67	-0.000121885154	179310.48	675297.8	-2.0314194e-05
0	0.6102668	0.6102645	-4.3912415e-10	0.048790433	0.048790433	0	109146.94	109146.56	-7.7854675e-05	675382.9	178987.83	-0.00033179848	178990.62	675382.56	-0.0002776273
0	0.6100978	0.61009574	-3.6163164e-10	0.048648868	0.048648868	0	109116.74	109116.36	-6.747405e-05	675467.9	178666.38	-0.00016251355	178669.16	675467.7	-0.00037919826
0	0.60992956	0.60992736	-4.19751e-10	0.04850758	0.04850758	0	109086.63	109086.25	-7.958477e-05	675552.5	178346.03	-0.00035211266	178348.83	675552.25	-0.0002674702
0	0.60976034	0.60975814	-2.8413916e-10	0.04836608	0.04836608	0	109056.37	109055.984	-4.67128e-05	675637.25	178024.34	-0.00016928495	178027.14	675637.06	-0.00020991333
0	0.609591	0.6095888	6.457708e-11	0.04822459	0.04822459	0	109026.086	109025.695	9.731834e-06	675721.94	177702.62	-1.3542795e-05	177705.44	675721.75	7.7871075e-05
0	0.60942054	0.6094184	-3.7454706e-10	0.04808329	0.04808329	0	108995.6	108995.21	-7.266436e-05	675806.94	177378.97	-0.0003250271	177381.77	675806.8	-0.00024715601
0	0.6092508	0.6092486	-2.1310437e-10	0.047941796	0.047941796	0	108965.234	108964.85	-3.8062284e-05	675891.4	177056.89	-0.00017605633	177059.7	675891.2	-8.1256774e-05
0	0.6090796	0.60907745	-1.8081582e-10	0.047800433	0.047800433	0	108934.63	108934.24	-3.341263e-05	675976.25	176732.42	-6.7713976e-05	176735.22	675976.06	-0.00018959913
0	0.6089087	0.60890657	-2.0018895e-10	0.047658954	0.047658954	0	108904.055	108903.67	-3.4602075e-05	676060.75	176408.55	-0.00010834236	176411.36	676060.56	-0.00020991333
0	0.6087376	0.6087354	-2.453929e-10	0.047517646	0.047517646	0	108873.445	108873.06	-4.49827e-05	676145.2	176084.58	-0.00020314193	176087.38	676145	-0.00016251355
0	0.6085649	0.60856277	-4.714127e-10	0.047376156	0.047376156	0	108842.58	108842.195	-8.4775085e-05	676230.2	175757.9	-0.0006161972	175760.7	676230	-3.3856988e-05
0	0.6083933	0.6083911	-1.3561187e-10	0.04723467	0.04723467	0	108811.87	108811.484	-1.6868513e-05	676314.4	175433.33	-8.1256774e-05	175436.14	676314.25	-5.0785482e-05
0	0.60822064	0.6082185	-3.4225853e-10	0.04709336	0.04709336	0	108780.984	108780.62	-5.882353e-05	676398.94	175107.22	-0.00031825568	175110	676398.7	-0.00017605633
0	0.60804814	0.608046	1.9373125e-11	0.046951808	0.046951808	0	108750.16	108749.766	7.136678e-06	676483.06	174781.55	2.708559e-05	174784.34	676482.8	-6.7713977e-06
0	0.6078743	0.6078721	-2.7122374e-10	0.04681051	0.04681051	0	108719.055	108718.67	-5.017301e-05	676567.75	174453.47	-0.00010834236	174456.27	676567.56	-0.0002573131
0	0.6077006	0.60769856	-3.4871622e-10	0.046669018	0.046669018	0	108688	108687.625	-6.401384e-05	676652.06	174126.11	-0.00014219935	174128.89	676651.75	-0.00033179848
0	0.6075263	0.6075242	4.5203955e-11	0.04652772	0.04652772	0	108656.82	108656.445	8.650519e-06	676736.3	173797.73	0.00014219935	173800.52	676736.06	-6.432828e-05
0	0.6073521	0.6073501	-3.164277e-10	0.046386234	0.046386234	0	108625.664	108625.27	-5.1903113e-05	676820.5	173469.64	-0.0002979415	173472.45	676820.4	-0.00014219935
0	0.6071772	0.6071752	-3.8746248e-10	0.04624474	0.04624474	0	108594.375	108593.99	-7.266436e-05	676904.75	173140.6	-0.0002979415	173143.38	676904.56	-0.00025054172
0	0.6070016	0.6069995	-4.843281e-10	0.046103436	0.046103436	0	108562.98	108562.59	-8.4775085e-05	676989	172810.45	-0.00040628386	172813.25	676988.9	-0.0002573131
0	0.6068263	0.6068242	-7.7492496e-10	0.045961883	0.045961883	0	108531.625	108531.26	-0.0001366782	677073	172481.1	-0.0005687974	172483.89	677072.8	-0.0005146262
0	0.6066497	0.6066475	-3.8100478e-10	0.045820575	0.045820575	0	108500.02	108499.64	-6.920415e-05	677157.4	172149.36	-0.0002467328	172152.14	677157.25	-0.0002708559
0	0.6064734	0.60647136	-1.4206958e-10	0.045679096	0.0456791	0	108468.5	108468.125	-2.5951556e-05	677241.3	171818.64	-8.8028166e-05	171821.42	677241.2	-0.00011849946
0	0.60629666	0.6062946	-2.5185062e-10	0.045537613	0.045537613	0	108436.9	108436.52	-4.3252596e-05	677325.3	171487.3	-0.00013542795	171490.08	677325.1	-0.00017944204
0	0.6061192	0.6061172	-4.4558185e-10	0.0453963	0.0453963	0	108405.164	108404.79	-7.612457e-05	677409.3	171154.84	-0.00036565546	171157.61	677409.2	-0.0002573131
0	0.6059414	0.6059394	-1.8727353e-10	0.04525482	0.04525482	0	108373.36	108372.984	-3.6656573e-05	677493.4	170821.89	-0.00023022752	170824.67	677493.1	-6.0942577e-05