# t (s)	mx ()	my ()	mz ()	B_extx (T)	B_exty (T)	B_extz (T)	m_fullx (A/m)	m_fully (A/m)	m_fullz (A/m)	m_full.region1x (A/m)	m_full.region1y (A/m)	m_full.region1z (A/m)	m_full.region2x (A/m)	m_full.region2y (A/m)	m_full.region2z (A/m)
0	0.6318284	0.63182604	-2.1040147e-10	0.070709854	0.070709854	0	10905.829	10905.787	-4.2554543e-06	662501.5	222055.23	-0.00032380925	222058.3	662501.25	-2.1346017e-05
0	0.63169926	0.6316962	-3.2010194e-10	0.07056971	0.07056971	0	10903.598	10903.545	-4.3498862e-06	662593.1	221782.02	-0.00017772133	221785.78	662592.6	-0.00017509318
0	0.6315651	0.63156193	-2.437993e-10	0.07042712	0.07042712	0	10901.281	10901.229	-3.7586724e-06	662687.8	221499.47	-0.00020610554	221503.2	662687.2	-9.875628e-05
0	0.6314305	0.6314274	-3.853456e-10	0.070287034	0.070287034	0	10898.959	10898.905	-5.4983057e-06	662782.56	221216.42	-0.00016991113	221220.16	662781.94	-0.00027605047
0	0.63129485	0.6312918	-2.979054e-10	0.0701447	0.0701447	0	10896.618	10896.564	-3.0875585e-06	662877.75	220931.33	-0.0003314535	220935.06	662877.06	8.102502e-05
0	0.63116044	0.6311572	-3.2574807e-10	0.0700046	0.0700046	0	10894.299	10894.244	-4.860033e-06	662971.94	220648.88	-0.00021717354	220652.62	662971.4	-0.00017701848
0	0.6310255	0.63102233	-3.3462658e-10	0.06986236	0.06986236	0	10891.969	10891.914	-4.335297e-06	663066.3	220365.62	-0.00026045053	220369.38	663065.75	-9.118071e-05
0	0.63088965	0.6308866	-3.6221343e-10	0.069720015	0.069720015	0	10889.623	10889.57	-4.963998e-06	663161.2	220080.69	-0.00021066872	220084.47	663160.56	-0.00019195575
0	0.6307537	0.6307505	-2.0456775e-10	0.06957992	0.06957992	0	10887.276	10887.223	-4.3612104e-06	663255.75	219795.52	-0.00025086652	219799.25	663255.3	-0.00010286652
0	0.6306175	0.63061446	-2.2458593e-10	0.069437355	0.069437355	0	10884.926	10884.873	-3.6881356e-06	663350.44	219510.38	-8.513332e-05	219514.11	663349.9	-0.00021400735
0	0.6304807	0.6304776	-3.3812064e-10	0.069297224	0.069297224	0	10882.564	10882.513	-6.064643e-06	663445.3	219223.97	-0.00024914116	219227.73	663444.8	-0.00024275544
0	0.63034374	0.63034064	-7.622466e-11	0.06915493	0.06915493	0	10880.2	10880.146	-4.254946e-06	663540.06	218937.39	-0.00019800551	218941.12	663539.5	-0.00014710851
0	0.63020635	0.63020337	-2.810293e-10	0.06901481	0.06901481	0	10877.829	10877.776	-5.2800474e-06	663634.9	218650.25	-0.00021491158	218654.02	663634.4	-0.00021334733
0	0.6300689	0.63006574	-2.6180613e-10	0.06887121	0.06887121	0	10875.456	10875.403	-4.9885216e-06	663729.6	218363.05	-0.00025140482	218366.77	663729.2	-0.00015320872
0	0.6299306	0.62992746	-2.7881059e-10	0.06873101	0.06873101	0	10873.068	10873.018	-6.4648893e-06	663824.7	218074.36	-0.00023735466	218078.1	663824.2	-0.00028700544
0	0.6297925	0.6297895	-2.713091e-10	0.068588786	0.068588786	0	10870.686	10870.633	-2.804381e-06	663919.44	217786.42	-0.00018969101	217790.17	663918.75	-3.776928e-05
0	0.62965417	0.629651	-2.1635076e-10	0.068448305	0.068448305	0	10868.297	10868.244	-8.612813e-06	664014.06	217497.86	-0.00026373667	217501.6	664013.56	-0.00043483914
0	0.6295152	0.629512	-3.2715067e-10	0.0683061	0.0683061	0	10865.896	10865.845	-3.827796e-06	664109.06	217208.33	-0.00025379556	217212.12	664108.5	-5.6672805e-05
0	0.62937593	0.6293728	-3.213398e-10	0.068165876	0.068165876	0	10863.494	10863.442	-9.479516e-06	664203.94	216918.58	-0.0003126916	216922.34	664203.3	-0.00045618162
0	0.6292362	0.6292331	-3.7642744e-10	0.068023674	0.068023674	0	10861.084	10861.031	-4.381094e-06	664298.8	216628.12	-0.00024765494	216631.86	664298.25	-0.00010769084
0	0.62909627	0.6290932	-1.5415184e-10	0.067881495	0.067881495	0	10858.669	10858.616	-1.4739272e-06	664393.8	216337.23	-0.00012928012	216341	664393.25	9.731491e-06
0	0.6289562	0.6289532	-2.704071e-10	0.06774126	0.06774126	0	10856.252	10856.199	-7.0447277e-06	664488.6	216046.42	-0.00037426336	216050.17	664488.06	-0.00019712684
0	0.6288156	0.62881243	-1.7917082e-10	0.06759908	0.06759908	0	10853.822	10853.77	-2.5601182e-06	664583.6	215754.39	-0.00011382981	215758.14	664583.06	-9.38186e-05
0	0.6286751	0.628672	-3.106325e-10	0.06745857	0.06745857	0	10851.399	10851.346	-7.3153096e-06	664678.3	215463.05	-0.00030295693	215466.81	664677.75	-0.00029037986
0	0.62853384	0.62853086	-1.3272404e-10	0.0673164	0.0673164	0	10848.961	10848.908	-3.1973207e-06	664773.25	215170.34	-0.00021066424	215174.08	664772.7	-4.8666956e-05
0	0.6283923	0.6283892	-2.2916316e-10	0.06717612	0.06717612	0	10846.516	10846.464	-5.550258e-06	664868.3	214877.06	-0.00026466683	214880.83	664867.75	-0.00018550854
0	0.6282506	0.62824756	-4.0386333e-10	0.06703257	0.06703257	0	10844.072	10844.018	-4.9357573e-06	664963.1	214583.89	-0.0002867607	214587.64	664962.6	-0.000113573165
0	0.62810785	0.6281048	-3.5157746e-10	0.06689235	0.06689235	0	10841.607	10841.557	-6.6559396e-06	665058.44	214288.83	-0.00021371196	214292.56	665057.9	-0.0003261441
0	0.6279657	0.6279627	-3.2411035e-10	0.06675015	0.06675015	0	10839.155	10839.102	-5.0795984e-06	665153.25	213995.02	-0.0002155733	213998.77	665152.75	-0.0001964274
0	0.6278232	0.62782	-3.4806094e-10	0.06660991	0.06660991	0	10836.693	10836.641	-5.089819e-06	665248.06	213700.52	-0.00025371384	213704.27	665247.56	-0.00015911584
0	0.62767994	0.6276768	-2.5999453e-10	0.06646746	0.06646746	0	10834.221	10834.167	-6.0524967e-06	665343.1	213404.83	-0.00025894714	213408.56	665342.56	-0.00023196428
0	0.6275362	0.62753314	-2.2817326e-10	0.066327125	0.066327125	0	10831.74	10831.687	-4.878054e-06	665438.3	213108.53	-0.0001866677	213112.31	665437.8	-0.00020898592
0	0.62739235	0.62738925	-2.699915e-10	0.066185005	0.066185005	0	10829.257	10829.205	-3.9648353e-06	665533.25	212812.23	-0.00019293044	212815.98	665532.8	-0.00012865303
0	0.6272485	0.62724555	-4.487934e-10	0.06604292	0.06604292	0	10826.775	10826.725	-6.0696825e-06	665628.06	212516.12	-0.00021135902	212519.86	665627.56	-0.00028094632
0	0.6271034	0.62710035	-1.9196565e-10	0.065902665	0.065902665	0	10824.271	10824.219	-5.4133016e-06	665723.44	212217.56	-0.00020388335	212221.34	665722.94	-0.00023518364
0	0.6269589	0.6269559	-1.4994796e-10	0.06576051	0.06576051	0	10821.777	10821.725	-3.686898e-06	665818.44	211920.4	-0.00026998436	211924.16	665817.9	-2.9055907e-05
0	0.6268138	0.62681067	-3.1823225e-10	0.065620236	0.065620236	0	10819.271	10819.219	-8.609578e-06	665913.3	211622.19	-0.00028755463	211625.95	665912.8	-0.00041075886
0	0.6266684	0.62666523	-2.1286861e-10	0.06547782	0.06547782	0	10816.761	10816.707	-3.5694188e-06	666008.44	211323.5	-0.00025021748	211327.27	666007.8	-3.9294213e-05
0	0.62652224	0.62651914	-2.1252117e-10	0.06533745	0.06533745	0	10814.239	10814.186	-6.1590886e-06	666103.6	211023.78	-0.000240929	211027.55	666103.06	-0.000258628
0	0.62637603	0.62637305	-2.6658784e-10	0.065195374	0.065195374	0	10811.716	10811.663	-2.0947286e-06	666198.7	210724.08	-0.00027101423	210727.83	666198.06	0.00010111308
0	0.6262295	0.6262264	-3.2409983e-10	0.06505365	0.06505365	0	10809.1875	10809.135	-4.533483e-06	666293.75	210423.92	-0.00021327297	210427.69	666293.25	-0.00015443291
0	0.6260824	0.6260794	-3.3734476e-10	0.06491158	0.06491158	0	10806.648	10806.596	-5.5496603e-06	666388.94	210122.73	-0.0002791123	210126.52	666388.4	-0.00017101457
0	0.6259355	0.6259324	-3.507789e-10	0.0647712	0.0647712	0	10804.109	10804.059	-5.869412e-06	666483.9	209821.94	-0.00020065745	209825.7	666483.3	-0.00027540413
0	0.6257878	0.62578475	-3.2354833e-10	0.06462915	0.06462915	0	10801.561	10801.51	-4.6360933e-06	666579.06	209520.05	-0.00023278281	209523.81	666578.56	-0.00014324566
0	0.6256398	0.6256367	-2.5630292e-10	0.06448846	0.06448846	0	10799.006	10798.955	-5.493655e-06	666674.2	209217.67	-0.00027784912	209221.48	666673.7	-0.00016773526
0	0.62549186	0.62548876	-2.6874492e-10	0.06434636	0.06434636	0	10796.452	10796.4	-6.1403853e-06	666769	208915.77	-0.00024611413	208919.53	666768.5	-0.0002519258
0	0.6253425	0.62533945	-2.5410674e-10	0.06420602	0.06420602	0	10793.875	10793.823	-4.819988e-06	666864.6	208611.11	-0.00023864549	208614.86	666864.1	-0.00015229848
0	0.62519395	0.62519103	-3.2037184e-10	0.06406402	0.06406402	0	10791.314	10791.262	-5.9746553e-06	666959.3	208308.56	-0.00019534788	208312.3	666958.8	-0.0002892499
0	0.6250445	0.62504154	-2.3285845e-10	0.063922	0.063922	0	10788.732	10788.681	-5.5186115e-06	667054.56	208003.98	-0.00029534457	208007.75	667054.1	-0.00015226402
0	0.624895	0.62489194	-2.7028235e-10	0.06378159	0.06378159	0	10786.15	10786.099	-4.0086875e-06	667149.7	207699.56	-0.00025742326	207703.31	667149.2	-6.771702e-05
0	0.6247445	0.62474144	-3.5398873e-10	0.06363921	0.06363921	0	10783.553	10783.502	-6.6621883e-06	667245	207393.52	-0.00025281849	207397.28	667244.5	-0.00028754436
0	0.62459445	0.62459147	-2.339154e-10	0.06349885	0.06349885	0	10780.966	10780.912	-6.12375e-06	667339.9	207088.7	-0.00024671757	207092.47	667339.4	-0.00024997315
0	0.6244436	0.62444067	-2.4796268e-10	0.06335679	0.06335679	0	10778.36	10778.31	-4.582134e-06	667435.06	206782.31	-0.00022244753	206786.06	667434.56	-0.00014920435
0	0.6242915	0.62428856	-4.5672296e-11	0.0632164	0.0632164	0	10775.734	10775.682	-2.4838141e-06	667530.8	206473.53	-0.00024383505	206477.31	667530.4	4.23756e-05
0	0.62414175	0.6241387	-3.9682624e-10	0.06307295	0.06307295	0	10773.15	10773.099	-6.2759996e-06	667624.94	206169.75	-0.00033536964	206173.53	667624.44	-0.00017366982
0	0.6239892	0.62398624	-3.1733566e-10	0.06293256	0.06293256	0	10770.518	10770.466	-3.454007e-06	667720.44	205860.8	-0.00018824081	205864.55	667719.94	-9.190992e-05
0	0.6238371	0.6238342	-2.6652439e-10	0.0627905	0.0627905	0	10767.892	10767.841	-3.168358e-06	667815.56	205552.67	-0.00019698404	205556.44	667815.06	-5.9998034e-05
0	0.6236848	0.6236819	-4.6397988e-10	0.062649734	0.062649734	0	10765.264	10765.211	-6.9821035e-06	667910.56	205244.47	-0.00029901092	205248.2	667910.06	-0.0002672999
0	0.62353194	0.6235289	-2.9753255e-10	0.06250778	0.06250778	0	10762.624	10762.57	-3.9118404e-06	668005.6	204935.25	-0.00021472122	204939.03	668005.2	-0.0001025639
0	0.6233787	0.6233756	-3.867001e-10	0.06236728	0.06236728	0	10759.979	10759.926	-6.580606e-06	668100.7	204625.6	-0.00023012845	204629.33	668100.3	-0.00030361733
0	0.6232251	0.62322205	-2.678369e-10	0.06222535	0.06222535	0	10757.328	10757.276	-6.653406e-06	668195.9	204315.48	-0.00022513822	204319.23	668195.5	-0.00031451235
0	0.6230711	0.623068	-2.6083322e-10	0.06208344	0.06208344	0	10754.669	10754.616	-6.951741e-06	668291.06	204004.62	-0.0002562254	204008.38	668290.7	-0.00030762274
0	0.6229168	0.6229138	-3.095593e-10	0.061942905	0.061942905	0	10752.006	10751.953	-6.576335e-06	668386.06	203693.67	-0.00028101372	203697.42	668385.6	-0.00025238565
0	0.6227617	0.6227587	-2.7241234e-10	0.061800998	0.061800998	0	10749.329	10749.278	-4.8862294e-06	668481.4	203381.19	-0.00020969968	203384.97	668480.94	-0.00018661706
0	0.62260693	0.622604	-2.5569932e-10	0.06166019	0.06166019	0	10746.658	10746.606	-6.011308e-06	668576.4	203069.62	-0.00025166137	203073.38	668575.94	-0.00023590928
0	0.62245077	0.62244785	-2.5247557e-10	0.06151828	0.06151828	0	10743.963	10743.911	-4.6365903e-06	668671.8	202755.42	-0.00016133251	202759.2	668671.5	-0.0002147363
0	0.62229556	0.62229246	-4.868767e-10	0.06137774	0.06137774	0	10741.281	10741.229	-8.155825e-06	668766.6	202443.19	-0.0004443093	202446.95	668766.3	-0.00021720074
0	0.6221395	0.6221365	-2.0759693e-10	0.061235856	0.061235856	0	10738.589	10738.537	-3.8913367e-06	668861.75	202129.86	-0.00026488944	202133.61	668861.2	-5.073264e-05
0	0.62198234	0.6219793	-2.839481e-10	0.061093815	0.061093815	0	10735.877	10735.825	-4.7227263e-06	668957.1	201814.38	-0.0002528503	201818.14	668956.7	-0.00013020488
0	0.6218258	0.62182283	-1.4135312e-10	0.06095187	0.06095187	0	10733.175	10733.123	-2.3100918e-06	669051.94	201500.45	-0.00021266997	201504.2	669051.56	2.5300933e-05
0	0.6216667	0.6216638	-2.0398447e-10	0.06081137	0.06081137	0	10730.43	10730.379	-3.8976327e-06	669148.06	201181.64	-0.00013239417	201185.38	669147.6	-0.00018373858
0	0.6215105	0.6215076	-3.0238433e-11	0.060669135	0.060669135	0	10727.731	10727.681	-1.8358296e-06	669242.4	200868.56	-9.612831e-05	200872.33	669241.8	-5.2773834e-05
0	0.62135273	0.6213498	-2.7341815e-10	0.060528617	0.060528617	0	10725.01	10724.959	-4.075511e-06	669337.2	200552.94	-0.00018776704	200556.69	669336.8	-0.0001427932
0	0.6211943	0.6211914	-2.690775e-10	0.0603867	0.0603867	0	10722.275	10722.225	-5.087757e-06	669432.3	200236.1	-0.00026324214	200239.84	669431.9	-0.0001494203
0	0.6210356	0.6210326	-2.821808e-10	0.060244866	0.060244866	0	10719.533	10719.484	-2.6290722e-06	669527.25	199918.7	-0.00014604391	199922.47	669526.94	-6.7197274e-05
0	0.62087643	0.6208734	-2.61694e-10	0.06010433	0.06010433	0	10716.789	10716.736	-6.1923615e-06	669622.44	199600.88	-0.00023930173	199604.62	669622	-0.00026295398
0	0.62071705	0.62071407	-2.44965e-10	0.05996244	0.05996244	0	10714.037	10713.986	-2.9771406e-06	669717.3	199282.81	-0.00025280792	199286.6	669717	1.1335269e-05
0	0.62055683	0.6205539	-1.807049e-10	0.059821885	0.059821885	0	10711.2705	10711.221	-6.553717e-06	669812.44	198963.38	-0.00027688517	198967.11	669812.06	-0.00025467967
0	0.6203965	0.6203936	-1.3881388e-10	0.059679706	0.059679706	0	10708.506	10708.455	-4.6375635e-06	669907.5	198643.9	-0.00023667334	198647.67	669907.1	-0.0001394744
0	0.6202361	0.6202332	-3.1808423e-10	0.059539147	0.059539147	0	10705.736	10705.685	-3.686171e-06	670002.3	198324.52	-0.0002841201	198328.27	670002	-1.4861267e-05
0	0.6200749	0.62007207	-3.7271725e-10	0.05939726	0.05939726	0	10702.953	10702.903	-3.881392e-06	670097.4	198003.83	-0.0002529003	198007.58	670097	-6.191518e-05
0	0.6199118	0.6199088	-2.1476873e-10	0.059255093	0.059255093	0	10700.138	10700.088	-3.972281e-06	670193.25	197679.5	-8.9798166e-05	197683.22	670193	-0.00023238918
0	0.61975163	0.6197486	-1.48996e-10	0.059113316	0.059113316	0	10697.372	10697.322	-5.0402045e-06	670287.4	197361.1	-0.00025567185	197364.84	670286.94	-0.00015313366
0	0.6195897	0.6195866	-1.3946769e-10	0.058972638	0.058972638	0	10694.577	10694.525	-4.061592e-06	670382.2	197039.53	-0.00019490655	197043.27	670381.8	-0.00013452473
0	0.61942655	0.6194236	-2.7107805e-10	0.058830876	0.058830876	0	10691.763	10691.712	-5.5146293e-06	670477.44	196716.08	-0.00026940362	196719.84	670477.06	-0.00017788197
0	0.6192636	0.6192608	-3.3415667e-10	0.058689874	0.058689874	0	10688.95	10688.9	-4.415896e-06	670572.3	196393.11	-0.0002547005	196396.83	670571.9	-0.000103467995
0	0.6191006	0.6190976	-4.562237e-10	0.058548026	0.058548026	0	10686.136	10686.084	-5.782005e-06	670667	196070.02	-0.00028631327	196073.77	670666.6	-0.00018265884
0	0.61893654	0.6189336	-3.5573228e-10	0.058407396	0.058407396	0	10683.303	10683.253	-6.658126e-06	670762.1	195745.3	-0.00027349746	195749.05	670761.8	-0.0002665359
0	0.6187725	0.6187696	-2.1596715e-10	0.05826568	0.05826568	0	10680.473	10680.422	-2.4530002e-06	670856.9	195420.9	-0.00016360154	195424.67	670856.6	-3.5358655e-05
0	0.61860746	0.6186045	-3.7291403e-10	0.058123965	0.058123965	0	10677.624	10677.573	-6.6872335e-06	670952.06	195094.61	-0.00030137904	195098.36	670951.7	-0.00024101522
0	0.618443	0.61844003	-3.7180276e-10	0.05798323	0.05798323	0	10674.784	10674.734	-7.4116206e-06	671046.7	194769.73	-0.00030467482	194773.48	671046.3	-0.00029647374
0	0.6182774	0.6182744	-3.3850647e-10	0.057841532	0.057841532	0	10671.927	10671.875	-6.6957464e-06	671141.7	194442.83	-0.0002342628	194446.58	671141.3	-0.00030882194
0	0.6181121	0.6181091	-2.1585204e-10	0.057700448	0.057700448	0	10669.073	10669.023	-6.5611807e-06	671236.2	194116.9	-0.00033241042	194120.64	671235.9	-0.00019975983
0	0.61794543	0.6179425	-2.2804836e-10	0.057558686	0.057558686	0	10666.197	10666.146	-4.945865e-06	671331.3	193788.58	-0.00019291659	193792.31	671331	-0.00020823715
0	0.61777914	0.6177762	-4.473251e-10	0.057418007	0.057418007	0	10663.326	10663.275	-6.3884945e-06	671426.06	193461.06	-0.00024722662	193464.81	671425.6	-0.00027093722
0	0.61761224	0.6176093	-3.475874e-10	0.05727468	0.05727468	0	10660.446	10660.396	-7.3270685e-06	671520.7	193132.66	-0.00031111442	193136.39	671520.44	-0.0002831761
0	0.61744326	0.61744046	-3.465499e-10	0.05713398	0.05713398	0	10657.53	10657.48	-4.40187e-06	671616.3	192800.53	-0.0003205401	192804.31	671616.06	-3.649079e-05
0	0.61727726	0.6172743	-3.2714387e-10	0.056992244	0.056992244	0	10654.662	10654.613	-5.937899e-06	671710.25	192474.16	-0.0001720928	192477.9	671709.94	-0.00030952375
0	0.6171093	0.6171064	-2.9887184e-10	0.056851108	0.056851108	0	10651.765	10651.714	-3.8493067e-06	671804.8	192144.36	-0.00029646105	192148.1	671804.56	-1.5752032e-05
0	0.61693996	0.6169371	-3.2356773e-10	0.05670946	0.05670946	0	10648.842	10648.792	-7.184576e-06	671900	191812.28	-0.0002965316	191816.03	671899.7	-0.00028620157
0	0.6167717	0.61676884	-4.2274123e-10	0.05656864	0.05656864	0	10645.9375	10645.888	-5.2066107e-06	671994.3	191482.3	-0.00026369988	191486.03	671994.06	-0.00015860265
0	0.6166023	0.6165994	-3.0429914e-10	0.05642701	0.05642701	0	10643.014	10642.963	-6.8736867e-06	672088.94	191150.52	-0.0003218322	191154.25	672088.7	-0.00023568503
0	0.6164328	0.6164299	-2.6379024e-10	0.056285422	0.056285422	0	10640.089	10640.039	-6.0092198e-06	672183.5	190818.69	-0.00027190536	190822.44	672183.25	-0.00021549594
0	0.61626196	0.61625904	-2.61118e-10	0.056144662	0.056144662	0	10637.138	10637.088	-3.7922284e-06	672278.56	190484.47	-0.00022527222	190488.19	672278.25	-8.23113e-05
0	0.6160921	0.6160893	-2.7364708e-10	0.056002956	0.056002956	0	10634.206	10634.156	-5.6503713e-06	672372.8	190152.42	-0.0002156529	190156.14	672372.44	-0.0002426426
0	0.61592036	0.61591756	-2.6011743e-10	0.055861782	0.055861782	0	10631.243	10631.193	-6.3594234e-06	672467.6	189817.17	-0.00023757377	189820.89	672467.4	-0.00027823212
0	0.6157492	0.6157463	-4.5604118e-10	0.055720203	0.055720203	0	10628.287	10628.237	-4.4072935e-06	672562.1	189482.94	-0.00029588985	189486.67	672561.9	-6.1580926e-05
0	0.6155771	0.61557424	-1.4415848e-10	0.055579327	0.055579327	0	10625.318	10625.269	-5.4562624e-06	672656.8	189147.4	-0.00012522534	189151.12	672656.6	-0.00031732616
0	0.61540544	0.6154026	-3.4460584e-10	0.055437762	0.055437762	0	10622.3545	10622.306	-7.1055706e-06	672751.06	188812.84	-0.0003038887	188816.56	672750.75	-0.00027243642
0	0.61523247	0.61522955	-2.8654942e-10	0.05529525	0.05529525	0	10619.367	10619.318	-5.7167344e-06	672845.75	188475.92	-0.00024567003	188479.66	672845.5	-0.00021800806
0	0.61506	0.6150572	-1.602805e-10	0.055153705	0.055153705	0	10616.393	10616.342	-2.0889454e-06	672939.9	188140.44	-0.00022529758	188144.12	672939.6	5.5865487e-05
0	0.61488587	0.614883	-3.438435e-10	0.055012755	0.055012755	0	10613.387	10613.338	-6.748971e-06	673034.7	187801.86	-0.00030851382	187805.56	673034.4	-0.00023888786
0	0.61471206	0.61470926	-2.841029e-10	0.05487082	0.05487082	0	10610.387	10610.338	-7.5281655e-06	673129.06	187464.16	-0.00027259364	187467.86	673128.75	-0.00033800767
0	0.61453784	0.61453503	-2.4390073e-10	0.05472997	0.05472997	0	10607.379	10607.33	-5.7937687e-06	673223.44	187125.89	-0.00016567679	187129.6	673223.2	-0.0003042495
0	0.61436296	0.6143601	-2.8624456e-10	0.054588366	0.054588366	0	10604.361	10604.312	-6.1444507e-06	673317.8	186786.64	-0.0003213149	186790.34	673317.56	-0.00017705483
0	0.6141884	0.6141855	-3.886367e-10	0.05444749	0.05444749	0	10601.347	10601.297	-4.9658292e-06	673411.9	186448.16	-0.00028323891	186451.83	673411.56	-0.0001195341
0	0.6140124	0.61400956	-1.6173296e-10	0.05430601	0.05430601	0	10598.311	10598.261	-2.8189036e-06	673506.4	186107.3	-0.0002456915	186111.02	673506.06	1.7053302e-05
0	0.6138366	0.61383384	-2.6984348e-10	0.05416443	0.05416443	0	10595.275	10595.228	-2.7323852e-06	673600.5	185767.11	-0.0002302638	185770.8	673600.25	8.643027e-06
0	0.6136596	0.6136569	-2.3096372e-10	0.054023527	0.054023527	0	10592.221	10592.173	-3.5758408e-06	673695.1	185424.75	-0.00016221375	185428.47	673694.9	-0.0001278188
0	0.6134827	0.61348	-1.31202e-10	0.053881653	0.053881653	0	10589.168	10589.119	-1.5692615e-06	673789.3	185082.84	-0.00010130385	185086.56	673789.06	-2.5977239e-05
0	0.61330616	0.61330336	-2.4001806e-10	0.053740732	0.053740732	0	10586.119	10586.07	-6.4609276e-06	673883.2	184741.75	-0.00028015688	184745.44	673882.94	-0.0002438819
0	0.6131282	0.6131253	-2.9637712e-10	0.05359921	0.05359921	0	10583.048	10582.998	-4.9407236e-06	673977.5	184398.23	-0.00023236222	184401.95	673977.3	-0.0001683745
0	0.61295056	0.6129478	-2.9404768e-10	0.053458266	0.053458266	0	10579.982	10579.935	-5.9328163e-06	674071.3	184055.92	-0.0002906219	184059.62	674071.06	-0.00019058237
0	0.6127716	0.61276877	-2.7964575e-10	0.053315062	0.053315062	0	10576.893	10576.844	-5.7240195e-06	674165.6	183710.92	-0.00031233605	183714.62	674165.44	-0.00015193295
0	0.6125926	0.6125898	-3.6487177e-10	0.05317402	0.05317402	0	10573.802	10573.753	-6.9513435e-06	674259.7	183366.17	-0.00027469505	183369.89	674259.44	-0.0002891209
0	0.61241317	0.6124103	-7.79e-12	0.053032607	0.053032607	0	10570.706	10570.658	-6.218039e-07	674353.7	183021.03	-9.774339e-05	183024.73	674353.44	4.730955e-05
0	0.61223334	0.6122305	-1.9356715e-10	0.052891202	0.052891202	0	10567.603	10567.553	-2.373839e-06	674447.7	182675.27	-0.000103454215	182678.94	674447.44	-8.908528e-05
0	0.61205316	0.6120505	-1.7370147e-10	0.052749805	0.052749805	0	10564.494	10564.446	-4.6543537e-06	674541.56	182329.31	-0.0002467986	182332.98	674541.4	-0.00013071098
0	0.6118711	0.6118684	-2.6283387e-10	0.05260872	0.05260872	0	10561.35	10561.303	-3.7230834e-06	674636.2	181979.77	-0.00020188194	181983.45	674636	-0.00010009331
0	0.6116914	0.61168855	-2.333377e-10	0.05246734	0.05246734	0	10558.247	10558.197	-4.740263e-06	674729.4	181634.84	-0.00035196886	181638.55	674729.06	-3.2508728e-05
0	0.6115102	0.6115075	-1.795553e-10	0.052325986	0.052325986	0	10555.12	10555.072	-4.9769483e-06	674823.06	181287.61	-0.00022947443	181291.28	674822.7	-0.00017420041
0	0.6113276	0.61132467	-2.7173716e-10	0.052184872	0.052184872	0	10551.967	10551.919	-6.8575523e-06	674917.1	180937.69	-0.00031580383	180941.38	674916.9	-0.00024040477
0	0.61114544	0.6111427	-3.2431596e-10	0.05204354	0.05204354	0	10548.825	10548.776	-6.1282176e-06	675010.75	180589.28	-0.0002719996	180592.97	675010.5	-0.00022505345
0	0.6109623	0.6109595	-2.843364e-10	0.051902063	0.051902063	0	10545.664	10545.615	-6.062637e-06	675104.5	180239.06	-0.00028132737	180242.75	675104.4	-0.00021040652
0	0.6107787	0.6107759	-3.3012415e-10	0.05176075	0.05176075	0	10542.494	10542.445	-5.6659255e-06	675198.4	179888.19	-0.00030118952	179891.88	675198.1	-0.00015836753
0	0.6105953	0.61059254	-2.406873e-10	0.05161957	0.05161957	0	10539.326	10539.28	-3.3301053e-06	675291.8	179537.88	-0.00027741145	179541.55	675291.6	7.310244e-06
0	0.6104108	0.6104081	-3.7713324e-10	0.05147645	0.05147645	0	10536.1455	10536.097	-5.290157e-06	675385.56	179186	-0.00027764103	179189.67	675385.3	-0.00015143781
0	0.61022633	0.6102236	-3.2173766e-10	0.051335365	0.051335365	0	10532.959	10532.912	-4.8658076e-06	675478.94	178834.22	-0.0002765596	178837.92	675478.9	-0.00011810076
0	0.6100409	0.61003816	-3.4453362e-10	0.051193982	0.051193982	0	10529.758	10529.712	-6.156598e-06	675572.75	178480.88	-0.0002804338	178484.56	675572.44	-0.00021892114
0	0.609856	0.60985327	-3.3016037e-10	0.051052876	0.051052876	0	10526.567	10526.5205	-7.753474e-06	675665.9	178128.92	-0.00025973594	178132.6	675665.6	-0.00036913995
0	0.60966915	0.60966647	-3.636727e-10	0.05091117	0.05091117	0	10523.342	10523.295	-5.1878183e-06	675759.6	177773.55	-0.0003665161	177777.22	675759.5	-5.4262182e-05
0	0.6094835	0.6094806	-1.3535775e-10	0.050769925	0.050769925	0	10520.138	10520.089	-4.207696e-06	675852.7	177420.48	-0.00025669447	177424.16	675852.5	-8.458713e-05
0	0.60929585	0.60929304	-1.5691083e-10	0.05062868	0.05062868	0	10516.897	10516.85	-3.579978e-06	675946.4	177064.11	-0.00013210445	177067.75	675946.2	-0.00015826368
0	0.6091086	0.6091059	-4.025962e-10	0.050487477	0.050487477	0	10513.666	10513.621	-6.063573e-06	676039.6	176708.8	-0.00031315352	176712.45	676039.5	-0.00017865625
0	0.6089206	0.60891783	-2.8770913e-10	0.050346322	0.050346322	0	10510.42	10510.375	-2.0421019e-06	676132.94	176352.19	-0.00020474086	176355.84	676132.8	3.91082e-05
0	0.6087323	0.60872954	-3.9151649e-10	0.050205022	0.050205022	0	10507.171	10507.125	-3.9903366e-06	676226.1	175995.34	-0.00024483496	175998.97	676226	-7.8816935e-05
0	0.6085437	0.608541	-2.7975944e-10	0.05006385	0.05006385	0	10503.916	10503.869	-6.1738538e-06	676319.3	175638.2	-0.00021515173	175641.86	676319.06	-0.0002856028
0	0.6083546	0.6083519	-2.4097688e-10	0.04992218	0.04992218	0	10500.652	10500.604	-6.2883473e-06	676412.3	175280.52	-0.00030675164	175284.17	676412.1	-0.00020328937
0	0.6081649	0.6081622	-3.707139e-10	0.049780898	0.049780898	0	10497.377	10497.331	-7.9056235e-06	676505.44	174921.81	-0.0003380784	174925.45	676505.4	-0.00030313813
0	0.60797447	0.60797167	-2.2814109e-10	0.049639706	0.049639706	0	10494.09	10494.043	-4.606563e-06	676598.6	174561.9	-0.00020786488	174565.55	676598.5	-0.00016576842
0	0.60778373	0.60778093	-3.4923883e-10	0.049496647	0.049496647	0	10490.799	10490.75	-3.9622355e-06	676691.7	174201.9	-9.934353e-05	174205.53	676691.5	-0.00022202908
0	0.60759276	0.6075901	-2.2497075e-10	0.049355462	0.049355462	0	10487.501	10487.455	-5.238936e-06	676784.6	173841.66	-0.0002643195	173845.33	676784.5	-0.00016060489
0	0.6074014	0.6073988	-3.5839812e-10	0.049214177	0.049214177	0	10484.199	10484.153	-6.600246e-06	676877.4	173481	-0.00037357106	173484.62	676877.2	-0.00016176772
0	0.6072092	0.6072065	-3.7353945e-10	0.049072508	0.049072508	0	10480.882	10480.834	-4.7466638e-06	676970.25	173118.98	-0.00029456904	173122.62	676970.1	-9.042768e-05
0	0.60701704	0.60701436	-1.6181974e-10	0.048931316	0.048931316	0	10477.563	10477.518	-2.4987917e-06	677063	172757.3	-0.00022466802	172760.95	677062.75	2.199376e-05
0	0.6068237	0.60682106	-3.7034797e-10	0.04879003	0.04879003	0	10474.228	10474.182	-6.677874e-06	677155.8	172393.73	-0.0002957087	172397.38	677155.75	-0.0002459264
0	0.6066307	0.60662794	-4.2682688e-10	0.048648838	0.048648838	0	10470.894	10470.85	-7.407717e-06	677248.44	172030.89	-0.00038028182	172034.5	677248.25	-0.00022055005
0	0.6064364	0.6064337	-2.7082656e-10	0.04850767	0.04850767	0	10467.543	10467.495	-3.6724982e-06	677341.2	171666.19	-0.0002625893	171669.81	677341	-3.5283e-05
0	0.606242	0.6062394	-4.6581106e-10	0.04836648	0.04836648	0	10464.187	10464.141	-7.785763e-06	677433.7	171301.47	-0.00035081574	171305.08	677433.7	-0.000280679
0	0.60604763	0.60604495	-3.2676853e-10	0.04822517	0.04822517	0	10460.83	10460.784	-5.908133e-06	677526.06	170936.9	-0.00029596468	170940.52	677525.94	-0.00018323754
0	0.60585225	0.60584956	-2.1608693e-10	0.048083518	0.048083518	0	10457.459	10457.414	-2.3393516e-06	677618.56	170570.94	-0.00018723107	170574.56	677618.44	-2.511185e-06
0	0.60565585	0.6056532	-4.0034714e-10	0.04794232	0.04794232	0	10454.07	10454.025	-6.2110507e-06	677711.25	170203.39	-0.0002990217	170207	677711.1	-0.00020474986
0	0.6054602	0.6054575	-2.5676714e-10	0.04780102	0.04780102	0	10450.691	10450.6455	-3.6513156e-06	677803.3	169837.3	-0.00017547455	169840.9	677803.25	-0.000120679695
0	0.6052631	0.6052605	-2.5869984e-10	0.04765983	0.04765983	0	10447.29	10447.244	-4.215749e-06	677895.8	169469	-0.000265833	169472.62	677895.6	-7.6101795e-05
0	0.60506606	0.60506344	-3.5702108e-10	0.047516864	0.047516864	0	10443.889	10443.844	-3.643649e-06	677987.9	169101.06	-0.0001826726	169104.69	677987.75	-0.0001128598
0	0.6048682	0.60486555	-2.4940872e-10	0.04737567	0.04737567	0	10440.474	10440.43	-4.9672044e-06	678080.1	168731.72	-0.00021004358	168735.33	678080.06	-0.00019284098
0	0.60467005	0.6046674	-1.6773474e-10	0.04723435	0.04723435	0	10437.055	10437.01	-3.158064e-06	678172.2	168362.27	-0.00013828998	168365.88	678172.1	-0.00011785715
0	0.60447127	0.60446876	-3.5221262e-10	0.047092684	0.047092684	0	10433.623	10433.578	-4.821999e-06	678264.3	167991.95	-0.0003158074	167995.56	678264.2	-7.529967e-05
0	0.6042721	0.60426944	-2.911507e-10	0.046951488	0.046951488	0	10430.185	10430.141	-5.132618e-06	678356.2	167620.98	-0.00027386742	167624.56	678356.25	-0.00014243362
0	0.6040714	0.6040688	-1.4672957e-10	0.046810202	0.046810202	0	10426.721	10426.675	-2.2057145e-06	678448.75	167247.66	-0.00013600806	167251.27	678448.7	-4.2895044e-05
0	0.6038718	0.6038692	-5.138506e-10	0.04666901	0.04666901	0	10423.275	10423.231	-9.056602e-06	678540.44	166876.58	-0.00032914482	166880.19	678540.3	-0.0004054263
0	0.60367155	0.6036689	-3.676186e-10	0.04652784	0.04652784	0	10419.82	10419.772	-6.395908e-06	678632	166504.55	-0.00034162155	166508.16	678631.94	-0.0001771436
0	0.6034707	0.6034681	-1.5858835e-10	0.046386525	0.046386525	0	10416.353	10416.308	-3.1834702e-06	678723.6	166131.77	-0.00022377897	166135.34	678723.56	-3.4428824e-05
0	0.60326886	0.6032663	-2.5397245e-10	0.046245333	0.046245333	0	10412.869	10412.823	-4.657299e-06	678815.4	165757.45	-0.00033149077	165761.02	678815.4	-4.625769e-05
0	0.60306674	0.6030642	-1.9774136e-10	0.04610365	0.04610365	0	10409.38	10409.335	-2.5416273e-06	678907	165382.9	-0.00020644358	165386.47	678906.94	2.9495448e-07
0	0.6028642	0.6028616	-3.3355446e-10	0.04596245	0.04596245	0	10405.884	10405.839	-5.3243502e-06	678998.5	165007.75	-0.00023641174	165011.34	678998.44	-0.00019544049
0	0.6026611	0.60265845	-2.4479602e-10	0.04582115	0.04582115	0	10402.376	10402.332	-6.5313134e-06	679090.06	164631.89	-0.0003108138	164635.47	679089.94	-0.00021893394
0	0.6024572	0.6024548	-7.75983e-11	0.045679953	0.045679953	0	10398.859	10398.815	-2.5519228e-06	679181.5	164255.08	-0.00013711382	164258.66	679181.5	-6.9869864e-05
0	0.60225326	0.60225075	-2.6825822e-10	0.04553704	0.04553704	0	10395.339	10395.295	-4.206716e-06	679272.75	163878.22	-0.00023607016	163881.8	679272.8	-0.00010513197
0	0.60204774	0.60204524	-3.5997597e-10	0.04539575	0.04539575	0	10391.791	10391.747	-5.9605445e-06	679364.44	163498.81	-0.0003725858	163502.4	679364.44	-0.00011086747
0	0.60184336	0.60184085	-3.6610256e-10	0.045254562	0.045254562	0	10388.263	10388.219	-5.134626e-06	679455.4	163121.75	-0.0002340128	163125.31	679455.4	-0.00018245111