# t (s)	mx ()	my ()	mz ()	B_extx (T)	B_exty (T)	B_extz (T)	m_fullx (A/m)	m_fully (A/m)	m_fullz (A/m)	m_full.region1x (A/m)	m_full.region1y (A/m)	m_full.region1z (A/m)	m_full.region2x (A/m)	m_full.region2y (A/m)	m_full.region2z (A/m)
0	0.644385	0.64438504	-3.1581565e-10	0.07071087	0.07071087	0	90664.96	90664.984	-4.3125e-05	644448.9	257690.36	-0.00028606964	257690.14	644448.7	-0.00019123135
0	0.6441245	0.6441237	-3.4991782e-10	0.070357256	0.070357256	0	90628.32	90628.195	-4.90625e-05	644675.06	257098.69	-0.000278296	257099.25	644674.5	-0.00023787313
0	0.6438589	0.643858	-2.4019783e-10	0.07000352	0.07000352	0	90590.945	90590.82	-3.78125e-05	644906.25	256495.56	-0.0001772388	256496.12	644905.6	-0.00016091418
0	0.6435908	0.64358985	-1.6309729e-10	0.06964992	0.06964992	0	90553.22	90553.1	-2e-05	645138.6	255887.89	-0.00013681591	255888.48	645138.06	-8.7064676e-05
0	0.6433211	0.6433202	-2.0906107e-10	0.069296576	0.069296576	0	90515.27	90515.16	-3.46875e-05	645372.56	255276.4	-0.00020677861	255276.98	645371.9	-0.00013370646
0	0.64305294	0.6430521	-2.4168054e-10	0.06894301	0.068943	0	90477.55	90477.42	-2.90625e-05	645602.8	254670.73	-0.00010416667	254671.33	645602.2	-0.00018656717
0	0.64278036	0.6427795	-2.0757836e-11	0.06858927	0.06858927	0	90439.195	90439.06	-9.375e-06	645837.2	254054.78	0	254055.38	645836.44	-7.462686e-05
0	0.64250743	0.64250654	-2.1943998e-10	0.068235666	0.068235666	0	90400.8	90400.664	-3.5e-05	646069.75	253440.03	-0.00022077115	253440.64	646069.1	-0.00014303482
0	0.6422327	0.6422317	-3.6177944e-10	0.067882314	0.06788232	0	90362.13	90362.01	-5.3125e-05	646303.44	252821.73	-0.0002643035	252822.34	646302.75	-0.0002580846
0	0.64195603	0.6419552	-3.2915998e-10	0.06752872	0.06752872	0	90323.22	90323.086	-4.3125e-05	646537.75	252200.12	-0.00021144279	252200.73	646537.1	-0.00021299752
0	0.64167804	0.64167714	-3.884681e-10	0.067174986	0.067174986	0	90284.1	90283.96	-5.5e-05	646772.44	251576.06	-0.00039179105	251576.67	646771.9	-0.00018812189
0	0.6413964	0.64139557	-2.935751e-10	0.06682176	0.06682176	0	90244.48	90244.34	-3.96875e-05	647010.1	250944.23	-0.00030472636	250944.9	647009.44	-0.00012981966
0	0.6411158	0.64111483	-2.2537079e-10	0.06646816	0.066468164	0	90204.98	90204.87	-3.40625e-05	647244.2	250317.27	-0.00016169154	250317.92	647243.56	-0.00020211443
0	0.6408327	0.6408318	-4.4184537e-10	0.066114426	0.066114426	0	90165.18	90165.05	-6.5e-05	647480.2	249684.98	-0.0003824627	249685.67	647479.56	-0.00026585822
0	0.6405461	0.6405451	1.4827026e-12	0.06576085	0.06576085	0	90124.84	90124.695	3.125e-07	647718.94	249044.98	1.5547264e-06	249045.64	647718.2	3.1094528e-06
0	0.6402612	0.6402602	-2.3426702e-10	0.06540746	0.06540746	0	90084.75	90084.62	-3.09375e-05	647953.94	248411.02	-0.00014614427	248411.67	647953.3	-0.0001414801
0	0.63997334	0.6399724	-2.876443e-10	0.065053925	0.065053925	0	90044.25	90044.12	-4e-05	648191.4	247770.73	-0.00021455224	247771.38	648190.7	-0.00020833334
0	0.63968194	0.639681	-2.5502483e-10	0.064700186	0.064700186	0	90003.25	90003.11	-3.6875e-05	648430.06	247124.02	-0.00022854477	247124.67	648429.4	-0.00013059702
0	0.63939065	0.63938963	-2.283362e-10	0.0643466	0.0643466	0	89962.27	89962.125	-3.1875e-05	648668.2	246478.02	-0.00018501244	246478.73	648667.5	-9.328358e-05
0	0.63909674	0.6390957	-1.9126864e-10	0.063993216	0.063993216	0	89920.914	89920.766	-3.03125e-05	648908.56	245826.23	-0.00014925373	245826.89	648907.8	-0.00013992537
0	0.63880295	0.638802	-3.0247133e-10	0.06363963	0.06363963	0	89879.57	89879.44	-4.28125e-05	649145.9	245177.56	-0.00020211443	245178.28	649145.2	-0.00019822762
0	0.6385052	0.63850427	-1.5568377e-10	0.0632859	0.0632859	0	89837.69	89837.55	-2e-05	649386.2	244520.4	-3.731343e-05	244521.11	649385.56	-0.00014070273
0	0.6382055	0.6382045	-1.9868215e-10	0.06293266	0.062932655	0	89795.516	89795.37	-2.25e-05	649628	243858.95	-7.618159e-05	243859.67	649627.3	-0.00015702736
0	0.63790613	0.6379051	-3.3360809e-10	0.06257908	0.06257908	0	89753.38	89753.25	-4.65625e-05	649867	243200.84	-0.0002363184	243201.53	649866.25	-0.00023165422
0	0.6376036	0.6376026	-1.0082378e-10	0.062225346	0.062225346	0	89710.83	89710.69	-1.53125e-05	650107.9	242536.39	-9.950249e-05	242537.12	650107.25	-2.3320896e-05
0	0.637298	0.637297	-9.192756e-11	0.061871782	0.061871782	0	89667.82	89667.68	-5e-06	650351.44	241864.98	-8.86194e-05	241865.75	650350.75	-3.109453e-05
0	0.63699335	0.6369922	-1.719935e-10	0.061518367	0.061518367	0	89624.95	89624.82	-2.375e-05	650591.7	241198.23	-0.0002005597	241198.97	650591	-7.773632e-05
0	0.6366842	0.6366831	-2.9950592e-10	0.061164834	0.061164834	0	89581.47	89581.32	-4.375e-05	650835.6	240521.45	-0.00014925373	240522.19	650835	-0.00026274877
0	0.63637584	0.63637483	-3.3212538e-10	0.060811102	0.060811102	0	89538.086	89537.94	-4.375e-05	651076.5	239848.92	-0.00020211443	239849.64	651075.8	-0.00026741292
0	0.63606364	0.63606256	-3.7957187e-10	0.06045754	0.06045754	0	89494.16	89494.016	-5.59375e-05	651320.3	239168.03	-0.00018034826	239168.8	651319.6	-0.00036924751
0	0.6357488	0.63574773	-3.8401998e-10	0.060104124	0.060104124	0	89449.86	89449.71	-5.5e-05	651564.6	238482.92	-0.00028606964	238483.72	651563.94	-0.00025186568
0	0.635433	0.63543195	-1.4530485e-10	0.059750553	0.059750553	0	89405.42	89405.27	-2e-05	651810.06	237795.3	-6.685323e-05	237796.08	651809.3	-0.0001181592
0	0.635117	0.6351159	-3.943989e-10	0.05939683	0.059396826	0	89360.96	89360.81	-5.78125e-05	652053.06	237109.92	-0.0003358209	237110.72	652052.4	-0.00024253731
0	0.6347978	0.6347967	-4.655686e-10	0.05904356	0.05904356	0	89316.055	89315.914	-6.65625e-05	652297.9	236418.19	-0.00032338308	236418.98	652297.2	-0.00038557214
0	0.6344753	0.63447416	-3.929162e-10	0.05868999	0.05868999	0	89270.67	89270.516	-5.5e-05	652544	235720.55	-0.00040267414	235721.36	652543.3	-0.00016169154
0	0.63415176	0.6341506	-3.3212538e-10	0.058336265	0.058336265	0	89225.16	89225	-5.03125e-05	652791.1	235020.45	-0.00023165422	235021.3	652790.44	-0.00028762437
0	0.63382757	0.63382643	-4.0626053e-10	0.057982713	0.057982713	0	89179.52	89179.375	-5.75e-05	653036.1	234321.56	-0.00028606964	234322.38	653035.4	-0.00029695273
0	0.6335001	0.633499	-2.6985186e-10	0.05762927	0.05762927	0	89133.48	89133.31	-3.75e-05	653282.8	233616.56	-0.00022699004	233617.39	653282.06	-0.00015780472
0	0.6331695	0.63316834	8.896216e-11	0.05727571	0.0572757	0	89086.945	89086.79	1.25e-05	653530.8	232905.67	7.151741e-05	232906.5	653530	5.5970148e-05
0	0.63283825	0.6328371	-3.4843511e-10	0.056922022	0.056922022	0	89040.34	89040.18	-5.03125e-05	653779.4	232193.28	-0.00028606964	232194.11	653778.7	-0.00020677861
0	0.63250595	0.6325048	-6.1087346e-10	0.05656847	0.05656847	0	88993.586	88993.42	-8.625e-05	654025.94	231481.56	-0.00044309703	231482.4	654025.1	-0.00045864427
0	0.6321701	0.6321689	-3.6771025e-10	0.056215018	0.056215018	0	88946.33	88946.164	-5.1875e-05	654274.5	230762.78	-0.00024409204	230763.62	654273.75	-0.00030472636
0	0.6318324	0.6318313	-3.350908e-10	0.05586147	0.055861466	0	88898.83	88898.65	-4.34375e-05	654523.9	230040.73	-0.00024875623	230041.55	654523.06	-0.0002091107
0	0.6314925	0.6314913	-2.3723243e-10	0.05550775	0.05550775	0	88850.99	88850.83	-3.25e-05	654773.2	229315.42	-0.00018656717	229316.3	654772.4	-0.00016791045
0	0.6311493	0.63114804	-4.7743026e-10	0.055154454	0.055154454	0	88802.695	88802.54	-6.46875e-05	655024.94	228583.19	-0.00035603234	228584.06	655024.2	-0.0003187189
0	0.6308068	0.6308056	-1.6309729e-10	0.054800894	0.054800898	0	88754.516	88754.336	-2.3125e-05	655273.4	227855.2	-0.00013681591	227856.1	655272.7	-0.000101057216
0	0.6304603	0.6304592	-3.2322917e-10	0.05444719	0.05444718	0	88705.77	88705.61	-4.46875e-05	655524.25	227119.36	-0.00018967662	227120.25	655523.5	-0.00026585822
0	0.63011074	0.6301095	-3.6771025e-10	0.05409365	0.05409365	0	88656.57	88656.41	-5.09375e-05	655777.1	226376.95	-0.00035603234	226377.81	655776.4	-0.00017568408
0	0.62976104	0.6297599	-1.4827026e-10	0.053740162	0.053740162	0	88607.38	88607.22	-1.8125e-05	656027.25	225637.45	-0.000116604475	225638.34	656026.44	-3.653607e-05
0	0.6294079	0.62940675	-1.8830323e-10	0.05338662	0.05338662	0	88557.69	88557.51	-2.875e-05	656279.75	224890.38	-0.00016169154	224891.28	656278.94	-0.00011349502
0	0.6290529	0.6290516	-2.4019783e-10	0.053032946	0.053032946	0	88507.74	88507.58	-3.3125e-05	656532.1	224140.97	-0.00016946517	224141.88	656531.4	-0.00011971393
0	0.6286957	0.6286946	-5.693578e-10	0.05267941	0.05267941	0	88457.49	88457.32	-8.21875e-05	656784.75	223388.38	-0.00039800996	223389.31	656784	-0.00039878732
0	0.628335	0.62833375	-2.935751e-10	0.052325904	0.052325908	0	88406.734	88406.56	-4.5e-05	657039.75	222628.2	-0.00015547263	222629.11	657039.06	-0.0002580846
0	0.6279741	0.62797284	-2.9654051e-10	0.05197238	0.05197238	0	88355.96	88355.78	-3.96875e-05	657292.1	221870.61	-0.0001710199	221871.56	657291.44	-0.00019123135
0	0.6276087	0.6276075	-2.4316324e-10	0.051618665	0.051618665	0	88304.555	88304.375	-3.5625e-05	657546.94	221104.45	-0.0003482587	221105.39	657546.06	-3.653607e-05
0	0.6272428	0.62724155	-4.0626053e-10	0.051265337	0.051265337	0	88253.06	88252.9	-5.75e-05	657801.2	220337.83	-0.0002845149	220338.77	657800.3	-0.00030939054
0	0.62687385	0.6268726	-3.1729835e-10	0.050911807	0.050911807	0	88201.16	88200.97	-4.53125e-05	658056.3	219566.12	-0.00023165422	219567.12	658055.5	-0.00023787313
0	0.6265025	0.6265012	-1.3937404e-10	0.0505581	0.050558094	0	88148.91	88148.73	-1.75e-05	658311.94	218790.6	-0.00012437812	218791.56	658311.1	-5.130597e-05
0	0.62612754	0.6261262	-4.0626053e-10	0.050204586	0.050204586	0	88096.14	88095.96	-6e-05	658569.5	218008.08	-0.0003824627	218009.06	658568.7	-0.00019278607
0	0.62575257	0.6257513	-2.0461297e-10	0.04985105	0.04985105	0	88043.4	88043.21	-2.5625e-05	658824.2	217228.48	-9.1728856e-05	217229.47	658823.44	-0.00016791045
0	0.6253729	0.6253716	-7.413513e-11	0.04949753	0.04949753	0	87989.96	87989.78	-5.3125e-06	659081.6	216439.44	-7.929104e-05	216440.48	659080.8	2.8762437e-05
0	0.624992	0.62499064	-1.3047782e-10	0.049143866	0.049143866	0	87936.37	87936.17	-2e-05	659338.56	215649.16	-6.0634327e-05	215650.17	659337.8	-0.00012282339
0	0.6246088	0.6246075	-2.9802322e-10	0.04879036	0.04879036	0	87882.47	87882.28	-4.1875e-05	659596.1	214855.3	-0.00023320895	214856.31	659595.25	-0.00022310323
0	0.6242225	0.6242212	-4.3591455e-10	0.0484368	0.0484368	0	87828.11	87827.93	-6e-05	659854.56	214055.98	-0.00030939054	214057.06	659853.7	-0.00027907337
0	0.6238327	0.62383145	-2.7281727e-10	0.048083294	0.048083294	0	87773.27	87773.07	-3.8125e-05	660114.44	213250.36	-0.0002472015	213251.4	660113.6	-0.00016557836
0	0.62344265	0.6234413	-1.6309728e-11	0.047729596	0.047729596	0	87718.38	87718.195	-5.9375e-06	660371.8	212446.92	-4.0422885e-05	212447.95	660370.94	1.0105721e-05
0	0.6230486	0.62304723	2.2092268e-10	0.04737623	0.047376227	0	87662.93	87662.76	2.9375e-05	660631.4	211635.66	0.00013681591	211636.73	660630.5	0.000118936565
0	0.6226509	0.62264955	-2.5502483e-10	0.047022715	0.047022715	0	87606.99	87606.78	-3.125e-05	660892.7	210817.5	-0.00019278607	210818.58	660891.8	-0.00015236318
0	0.62225324	0.6222518	-4.3146645e-10	0.046669014	0.046669014	0	87551.016	87550.836	-6.125e-05	661151.1	210002.17	-0.0003016169	210003.25	661150.4	-0.0003397077
0	0.62185055	0.6218492	-2.1647457e-10	0.046315532	0.04631553	0	87494.37	87494.17	-3e-05	661412.2	209177.53	-0.0002363184	209178.6	661411.25	-4.5087065e-05
0	0.62144655	0.62144524	-2.3723243e-10	0.045961928	0.045961928	0	87437.52	87437.336	-3e-05	661673.25	208350.9	-0.00017568408	208352.02	661672.4	-0.00017412935
0	0.6210397	0.6210383	-1.3492593e-10	0.04560844	0.04560844	0	87380.3	87380.09	-2.5625e-05	661934.4	207520.1	-0.0001772388	207521.23	661933.44	-7.695895e-05
0	0.62062776	0.6206264	1.705108e-10	0.04525479	0.04525479	0	87322.33	87322.13	2.28125e-05	662198.3	206679.4	0.00019278607	206680.55	662197.44	7.851368e-05
0	0.6202168	0.62021536	8.896215e-12	0.044901304	0.044901304	0	87264.5	87264.3	0	662458.9	205843.42	-7.618159e-05	205844.55	662458	9.095149e-05
0	0.6198009	0.6197995	-2.6540375e-10	0.044547684	0.044547684	0	87205.99	87205.8	-3.5625e-05	662721.8	204998.44	-0.0001772388	204999.61	662720.9	-0.00019589553
0	0.6193817	0.61938024	-4.0329512e-10	0.04419421	0.04419421	0	87147.01	87146.805	-5.6875e-05	662986.2	204147.05	-0.00036225124	204148.2	662985.4	-0.00018268035
0	0.6189619	0.61896044	-2.5799024e-10	0.043840524	0.043840524	0	87087.93	87087.74	-3.5e-05	663248.1	203297.34	-0.0001772388	203298.52	663247.3	-0.00017801617
0	0.6185376	0.61853623	-2.6540375e-10	0.043487042	0.043487042	0	87028.24	87028.03	-4e-05	663512.4	202439.12	-0.00031405472	202440.31	663511.5	-4.9751245e-05
0	0.61810976	0.6181082	-4.7149945e-10	0.043133624	0.043133624	0	86968.03	86967.83	-6.5e-05	663777.06	201575.33	-0.00041977613	201576.52	663776.25	-0.00026119404
0	0.61768013	0.6176786	-1.4233945e-10	0.04277993	0.04277993	0	86907.59	86907.38	-2.5e-05	664041.7	200709.27	-0.000147699	200710.45	664040.9	-0.00010494403
0	0.61724764	0.6172462	-4.7446486e-10	0.04242646	0.04242646	0	86846.75	86846.55	-6.90625e-05	664306.75	199838.77	-0.000329602	199839.97	664305.9	-0.00032416044
0	0.61681217	0.6168107	-4.2553563e-10	0.042072807	0.042072807	0	86785.484	86785.27	-5.75e-05	664572.2	198963.69	-0.00025497514	198964.9	664571.25	-0.00032182835
0	0.6163734	0.6163719	-3.4843511e-10	0.041719347	0.041719347	0	86723.734	86723.53	-5.25e-05	664838.06	198083.48	-0.00030472636	198084.69	664837.25	-0.00019200871
0	0.6159317	0.61593014	-3.2026376e-10	0.041365713	0.041365713	0	86661.58	86661.37	-4.5e-05	665104.3	197198.7	-0.00021610697	197199.94	665103.5	-0.00021921642
0	0.61548495	0.6154835	-2.9654054e-11	0.041012257	0.041012257	0	86598.734	86598.53	9.375e-07	665373	196304.78	5.90796e-05	196306.02	665372.06	-4.9751245e-05
0	0.6150385	0.615037	-1.8978594e-10	0.04065857	0.04065857	0	86535.914	86535.7	-2.46875e-05	665638.44	195414.23	-0.00015236318	195415.48	665637.6	-0.00011116293
0	0.61458725	0.61458576	-9.044486e-11	0.04030513	0.04030513	0	86472.43	86472.21	-1.375e-05	665905.9	194515.05	-9.6393036e-05	194516.31	665905	-4.0422885e-05
0	0.61413276	0.6141312	-1.7495891e-10	0.039951444	0.039951444	0	86408.48	86408.266	-2.375e-05	666174.1	193610.42	-0.0001943408	193611.69	666173.25	-7.307214e-05
0	0.613674	0.61367244	-2.9654053e-12	0.039597984	0.039597984	0	86343.92	86343.71	-9.375e-07	666443.9	192698.42	-4.9751245e-05	192699.7	666442.94	1.2437811e-05
0	0.61321384	0.61321235	-5.0856697e-10	0.039244533	0.039244533	0	86279.195	86278.984	-7.09375e-05	666711.4	191786.81	-0.0002829602	191788.1	666710.5	-0.00041938745
0	0.6127489	0.6127474	2.2537079e-10	0.038890842	0.038890842	0	86213.77	86213.55	3.15625e-05	666981.8	190865.39	0.0001943408	190866.69	666981	0.00012748757
0	0.6122826	0.6122809	-5.6342698e-11	0.03853738	0.03853738	0	86148.16	86147.93	-7.5e-06	667249.75	189944.42	-5.2860698e-05	189945.73	667248.9	-2.9928482e-05
0	0.6118117	0.6118101	-1.3640863e-10	0.038183715	0.038183715	0	86081.89	86081.67	-2e-05	667519.7	189015.31	-0.00016169154	189016.62	667518.75	-5.9856964e-05
0	0.61133635	0.61133474	-2.9802322e-10	0.037830252	0.037830252	0	86015.02	86014.805	-4.375e-05	667791.6	188077.92	-0.0002472015	188079.25	667790.7	-0.0001772388
0	0.6108599	0.61085826	-2.3426702e-10	0.03747657	0.037476573	0	85947.984	85947.76	-3.3125e-05	668060.9	187141.58	-0.00025031096	187142.9	668059.94	-7.151741e-05
0	0.6103778	0.6103762	5.352556e-10	0.03712317	0.03712317	0	85880.16	85879.92	7.25e-05	668333.2	186194.34	0.00026741292	186195.67	668332.4	0.00046175372
0	0.6098934	0.6098918	-5.5304805e-10	0.0367695	0.0367695	0	85812	85811.766	-7.75e-05	668604.56	185244.83	-0.000528607	185246.2	668603.7	-0.0002534204
0	0.60940623	0.6094046	-2.2092268e-10	0.03641604	0.03641604	0	85743.46	85743.234	-2.625e-05	668875	184292.38	-0.00016324627	184293.75	668874.1	-0.00013331778
0	0.60891473	0.6089131	-2.6836916e-10	0.036062367	0.036062367	0	85674.305	85674.08	-3.875e-05	669147	183332.34	-0.00026896765	183333.7	669146.1	-0.00010883085
0	0.60841936	0.60841775	-4.1812215e-10	0.0357089	0.0357089	0	85604.6	85604.37	-5.90625e-05	669419.7	182366	-0.00033426617	182367.38	669418.75	-0.00027518655
0	0.6079203	0.6079187	-5.6046157e-10	0.035355434	0.035355434	0	85534.4	85534.16	-7.65625e-05	669692.6	181394.47	-0.00033893035	181395.88	669691.75	-0.00042288558
0	0.6074166	0.6074149	-4.0626053e-10	0.03500176	0.03500176	0	85463.52	85463.28	-5.8125e-05	669966.25	180415.62	-0.00034514925	180417.03	669965.4	-0.00024331467
0	0.6069103	0.6069086	-3.5881403e-10	0.034648288	0.034648288	0	85392.28	85392.05	-5e-05	670240.75	179432.25	-0.00029228855	179433.66	670239.8	-0.00022465795
0	0.6064015	0.6063998	-2.0461297e-10	0.034294635	0.034294635	0	85320.695	85320.46	-2.875e-05	670513.2	178447.42	-0.00027363183	178448.86	670512.4	-8.550995e-06
0	0.60588735	0.60588574	-1.1861621e-11	0.033941157	0.03394116	0	85248.36	85248.12	0	670787.6	177453.33	2.1766169e-05	177454.77	670786.6	-2.7985074e-05
0	0.6053698	0.60536814	-1.4975296e-10	0.033587493	0.033587493	0	85175.54	85175.305	-2.15625e-05	671062	176454.39	-0.00013681591	176455.86	671061	-8.395522e-05
0	0.60484797	0.6048463	-8.658983e-10	0.03323408	0.03323408	0	85102.11	85101.875	-0.0001225	671336.94	175448.73	-0.0006187811	175450.19	671336.06	-0.0006483209
0	0.60432243	0.6043207	-5.4415183e-10	0.032880425	0.032880425	0	85028.164	85027.92	-7.90625e-05	671612.25	174437.58	-0.00036380597	174439.05	671611.4	-0.00041511195
0	0.60379267	0.60379094	-1.3344323e-11	0.032526962	0.03252696	0	84953.63	84953.4	-4.0625e-06	671888.06	173420.22	3.420398e-05	173421.7	671887.1	-8.86194e-05
0	0.60325897	0.6032573	2.0757837e-10	0.0321733	0.0321733	0	84878.54	84878.3	2.78125e-05	672164.06	172397.02	6.0634327e-05	172398.53	672163.06	0.0001943408
0	0.6027208	0.60271907	-4.3294915e-10	0.03181982	0.031819817	0	84802.81	84802.58	-6.46875e-05	672440.44	171367.2	-0.00026741292	171368.72	672439.44	-0.00034903607
0	0.60217893	0.60217726	-4.1219134e-10	0.031466328	0.03146633	0	84726.58	84726.34	-5.59375e-05	672717.06	170331.94	-0.0002891791	170333.4	672716.25	-0.0003062811
0	0.60163295	0.6016313	-1.3640863e-10	0.031112673	0.031112673	0	84649.76	84649.516	-1.9375e-05	672993.9	169290.72	-0.00019278607	169292.23	672993	-1.1660448e-05
0	0.6010815	0.6010798	-7.7100534e-11	0.030759184	0.030759184	0	84572.17	84571.92	-1.09375e-05	673271.6	168241	-4.3532338e-05	168242.5	673270.75	-8.86194e-05
0	0.60052776	0.600526	-3.929162e-10	0.030405551	0.030405551	0	84494.24	84494	-5.6875e-05	673548.9	167188.44	-0.0002845149	167189.98	673548	-0.0003062811
0	0.59996873	0.59996706	-4.5222429e-10	0.030052062	0.030052062	0	84415.6	84415.35	-6.625e-05	673826.56	166128.11	-0.00033737562	166129.64	673825.7	-0.00030006218
0	0.59940493	0.5994032	-4.7298215e-10	0.029698413	0.029698413	0	84336.27	84336.02	-6.5e-05	674105.06	165060.23	-0.00038401742	165061.8	674104.25	-0.00030939054
0	0.5988372	0.5988354	-5.011535e-10	0.029344995	0.029344993	0	84256.39	84256.15	-6.875e-05	674383.25	163987.31	-0.00034048507	163988.84	674382.4	-0.0003715796
0	0.5982645	0.59826267	-3.5733133e-10	0.028991356	0.028991356	0	84175.82	84175.56	-4.84375e-05	674662.1	162906.61	-0.00033893035	162908.19	674661.25	-0.00015625
0	0.5976875	0.5976857	-1.9423405e-10	0.028637854	0.028637854	0	84094.625	84094.375	-3.0625e-05	674941.25	161819.56	-0.0001414801	161821.14	674940.44	-0.00016402363
0	0.5971058	0.597104	-1.4975296e-10	0.028284235	0.028284235	0	84012.78	84012.53	-2.25e-05	675220.44	160726.08	-8.395522e-05	160727.66	675219.56	-0.00014692164
0	0.5965195	0.5965176	-3.6771025e-10	0.027930735	0.027930735	0	83930.27	83930.04	-5.5625e-05	675500.06	159625.53	-0.00028606964	159627.11	675499.1	-0.00026819028
0	0.5959268	0.59592503	-4.2701834e-10	0.027577227	0.027577227	0	83846.91	83846.66	-5.625e-05	675780.4	158515.55	-0.00037002488	158517.14	675779.56	-0.00019978234
0	0.5953309	0.5953292	-2.1350917e-10	0.027223594	0.02722359	0	83763.07	83762.81	-2.640625e-05	676061.3	157400.36	-0.00018034826	157401.97	676060.5	-8.395522e-05
0	0.5947314	0.59472966	-2.89127e-10	0.026870081	0.026870081	0	83678.7	83678.45	-4.375e-05	676340.3	156282.11	-0.0003715796	156283.7	676339.44	-7.229477e-05
0	0.5941256	0.59412384	-3.1729835e-10	0.026516473	0.026516473	0	83593.47	83593.22	-3.796875e-05	676620.8	155153.39	-0.00027363183	155155	676619.94	-0.00014225746
0	0.5935147	0.5935129	-2.8023078e-10	0.026162952	0.026162954	0	83507.516	83507.266	-3.875e-05	676901.5	154017.36	-0.00015547263	154018.98	676900.75	-0.00023320895
0	0.5928986	0.5928968	-7.561783e-11	0.025809333	0.025809333	0	83420.83	83420.58	-1.046875e-05	677182.8	152873.52	-0.00020833334	152875.16	677182	8.317786e-05
0	0.59227747	0.59227574	-5.5008265e-10	0.025455903	0.025455905	0	83333.43	83333.195	-7.96875e-05	677463.94	151722.89	-0.00048662935	151724.52	677463.1	-0.0003163868
0	0.5916496	0.5916478	0	0.025102295	0.025102293	0	83245.09	83244.85	-6.25e-07	677746.9	150560.89	-6.0634327e-05	150562.53	677746	8.395522e-05
0	0.5910188	0.591017	-6.820432e-11	0.024748765	0.024748765	0	83156.34	83156.1	-7.1875e-06	678027.4	149397.36	-0.00016791045	149399	678026.5	8.473259e-05
0	0.5903822	0.59038043	-4.4481077e-12	0.02439518	0.02439518	0	83066.78	83066.53	-5.9375e-06	678308.94	148224.45	-3.731343e-05	148226.11	678308.1	1.1660448e-05
0	0.5897398	0.589738	-5.797367e-10	0.024041647	0.024041647	0	82976.38	82976.14	-8.296875e-05	678591	147043.1	-0.00029073382	147044.73	678590.2	-0.0005488184
0	0.5890901	0.58908844	-4.4332807e-10	0.023688115	0.02368811	0	82884.98	82884.734	-5.921875e-05	678874.7	145849.9	-0.00037313433	145851.58	678873.8	-0.0002643035
0	0.588438	0.58843625	-3.1729835e-10	0.023334507	0.023334507	0	82793.234	82792.97	-4.53125e-05	679155.4	144656.16	-0.000329602	144657.81	679154.56	-0.00011971393
0	0.58777684	0.5877751	-3.395389e-10	0.022980964	0.022980964	0	82700.2	82699.96	-4.5625e-05	679439.5	143446.47	-0.0002643035	143448.14	679438.7	-0.00021066543
0	0.58711207	0.5871103	-3.8253728e-10	0.022627395	0.022627395	0	82606.664	82606.414	-5.5e-05	679721.2	142234	-0.00046330845	142235.67	679720.4	-0.00010883085
0	0.5864418	0.5864401	-9.637567e-11	0.022273842	0.022273842	0	82512.37	82512.12	-1.34375e-05	680003.75	141013.17	-0.00026119404	141014.83	680002.94	0.00010183458
0	0.5857647	0.585763	-3.869854e-10	0.021920258	0.021920262	0	82417.1	82416.85	-5.25e-05	680286.56	139782.38	-0.00031094527	139784.05	680285.8	-0.00020211443
0	0.58508146	0.5850798	-3.43987e-10	0.021566812	0.021566812	0	82320.98	82320.73	-4.9375e-05	680569.6	138542.88	-0.0003016169	138544.55	680568.8	-0.00019123135
0	0.58439213	0.58439034	-1.5271837e-10	0.02121323	0.02121323	0	82223.97	82223.73	-2.28125e-05	680852.8	137294.48	-0.00024875623	137296.16	680852	3.420398e-05
0	0.5836967	0.583695	-5.337729e-10	0.02085967	0.02085967	0	82126.13	82125.89	-7.3125e-05	681135.7	136038.12	-0.00047419153	136039.78	681134.94	-0.00027129974
0	0.58299476	0.58299303	-4.4925888e-10	0.020506129	0.020506129	0	82027.375	82027.125	-6.4375e-05	681418.94	134772.08	-0.0004539801	134773.77	681418.1	-0.00021999379
0	0.58228654	0.58228487	-5.886329e-10	0.020152565	0.020152565	0	81927.72	81927.48	-8.390625e-05	681702	133497.5	-0.0005130597	133499.19	681701.25	-0.00032182835
0	0.5815715	0.58156973	-2.0757836e-11	0.019798992	0.019798992	0	81827.11	81826.875	-2.1875e-06	681985.44	132213.03	0.000111940295	132214.72	681984.7	-0.00010883085
0	0.58084834	0.5808466	-6.18287e-10	0.019445421	0.019445421	0	81725.37	81725.125	-8.203125e-05	682270	130916.03	-0.00041044777	130917.71	682269.25	-0.00043454603
0	0.5801199	0.5801182	-1.1713351e-10	0.019091858	0.019091858	0	81622.87	81622.63	-1.484375e-05	682552.5	129613.6	-0.00012282339	129615.28	682551.8	-4.5864428e-05
0	0.57938635	0.57938474	-2.268535e-10	0.018738287	0.018738288	0	81519.664	81519.43	-2.984375e-05	682835.06	128304.27	-0.00015702736	128305.94	682834.3	-0.00014614427
0	0.57864374	0.5786421	-1.5716647e-10	0.01838475	0.01838475	0	81415.18	81414.94	-1.859375e-05	683118.56	126981.07	-0.00018034826	126982.73	683117.8	-2.0211442e-05
0	0.5778945	0.5778928	-1.8237242e-10	0.018031184	0.018031184	0	81309.75	81309.51	-2.4375e-05	683401.5	125649.055	-0.000164801	125650.71	683400.8	-7.307214e-05
0	0.57713807	0.5771364	1.4827027e-11	0.017677717	0.017677717	0	81203.32	81203.086	1.25e-06	683684.4	124307.195	3.2649255e-05	124308.85	683683.75	-5.130597e-05
0	0.57637405	0.5763723	-2.3723242e-11	0.017324144	0.017324144	0	81095.82	81095.586	-2.03125e-06	683967.4	122954.61	-4.664179e-05	122956.266	683966.7	-1.1466107e-05
0	0.5756009	0.5755993	-5.4711724e-10	0.01697058	0.01697058	0	80987.05	80986.82	-7.46875e-05	684251.4	121588.32	-0.00031094527	121589.96	684250.7	-0.0003972326
0	0.5748231	0.5748215	-3.5584863e-10	0.01661704	0.016617041	0	80877.6	80877.375	-4.828125e-05	684532.9	120217.74	-0.00036069652	120219.38	684532.3	-0.00014303482
0	0.5740365	0.5740348	-5.337729e-10	0.016263481	0.016263481	0	80766.92	80766.7	-7.4375e-05	684815.2	118834.2	-0.00031716417	118835.836	684814.56	-0.00041511195
0	0.57324183	0.5732402	-6.4645833e-10	0.015909908	0.015909908	0	80655.13	80654.91	-8.53125e-05	685097.2	117439.734	-0.0005550373	117441.36	685096.6	-0.00035758707
0	0.57243913	0.57243747	-1.4530485e-10	0.015556336	0.015556336	0	80542.18	80541.95	-1.78125e-05	685379.2	116033.94	-0.00013526119	116035.53	685378.56	-7.618159e-05
0	0.57162637	0.5716248	-1.3047782e-10	0.015202776	0.015202776	0	80427.836	80427.61	-1.6875e-05	685662.1	114613.234	-0.00021299752	114614.83	685661.5	0
0	0.5708083	0.5708068	3.350908e-10	0.014849206	0.014849206	0	80312.73	80312.516	4.734375e-05	685942.5	113187.61	0.00022854477	113189.19	685941.9	0.00024875623
0	0.56998044	0.56997895	9.044486e-11	0.014495678	0.014495678	0	80196.26	80196.05	1.4375e-05	686223.44	111747.64	-6.840796e-05	111749.22	686222.9	0.0002176617
0	0.5691439	0.5691424	-2.3871513e-10	0.014142117	0.014142117	0	80078.55	80078.33	-3.734375e-05	686504.2	110295.74	-0.00032338308	110297.3	686503.6	-5.7524874e-05
0	0.568299	0.5682975	-4.2108755e-10	0.013788612	0.0137886135	0	79959.66	79959.45	-6.171875e-05	686784.1	108832.836	-0.00034514925	108834.39	686783.6	-0.00026741292
0	0.56744444	0.567443	-4.3739726e-10	0.013435041	0.013435041	0	79839.43	79839.22	-6.25e-05	687064	107356.64	-0.00035603234	107358.17	687063.5	-0.0002472015
0	0.56658083	0.56657934	4.7446484e-11	0.013081476	0.013081476	0	79717.92	79717.71	6.71875e-06	687343.4	105868.195	5.2860698e-05	105869.71	687342.9	1.710199e-05
0	0.5657074	0.565706	-2.6836916e-10	0.012727952	0.012727952	0	79595.03	79594.83	-3.703125e-05	687622.4	104366.53	-0.00026119404	104368.03	687621.9	-0.00010727612
0	0.56482595	0.5648246	-2.6095565e-10	0.0123743825	0.0123743825	0	79471.016	79470.82	-3.703125e-05	687900.25	102854.71	-0.00027674128	102856.19	687899.75	-9.017413e-05
0	0.5639318	0.5639304	-1.675454e-10	0.012020824	0.012020824	0	79345.2	79345.01	-2.375e-05	688178.8	101324.11	-0.000164801	101325.555	688178.5	-7.151741e-05
0	0.56303126	0.56302994	-2.7429997e-10	0.011667253	0.011667253	0	79218.5	79218.31	-4e-05	688454.8	99787.55	-0.0003482587	99788.98	688454.4	-4.9751245e-05
0	0.56211895	0.5621177	3.558486e-11	0.011313697	0.011313697	0	79090.14	79089.95	3.4375e-06	688730.94	98234.18	-0.00015702736	98235.59	688730.5	0.00020522389
0	0.5611966	0.56119543	-4.3146645e-10	0.010960129	0.010960129	0	78960.375	78960.195	-6.125e-05	689006.1	96667.8	-0.00027363183	96669.18	689005.75	-0.00036283425
0	0.56026286	0.56026167	-4.581551e-10	0.010606614	0.010606615	0	78828.984	78828.81	-6.46875e-05	689281.06	95085.664	-0.0003949005	95087.03	689280.7	-0.0002643035
0	0.55931723	0.55931604	-9.489297e-11	0.010253064	0.010253064	0	78695.94	78695.766	-1.5625e-05	689555.56	93487.31	-0.000105721396	93488.66	689555.06	-2.2543532e-05
0	0.55836415	0.55836296	-1.5864918e-10	0.009899496	0.009899496	0	78561.836	78561.664	-2.390625e-05	689827.25	91881.18	-0.00011971393	91882.49	689827	-0.000110385576
0	0.5573981	0.5573969	-4.8929187e-11	0.009545929	0.009545929	0	78425.914	78425.75	-5e-06	690098.94	90257.12	-3.109453e-05	90258.41	690098.56	-4.664179e-05
0	0.55642027	0.5564192	2.9950592e-10	0.009192374	0.009192375	0	78288.336	78288.18	4.375e-05	690369.4	88617.8	0.00018345771	88619.05	690369.06	0.00022854477
0	0.5554306	0.5554295	-2.6540375e-10	0.008838858	0.008838858	0	78149.086	78148.94	-3.71875e-05	690638.94	86962.72	-0.00034359453	86963.93	690638.56	-3.653607e-05
0	0.55442905	0.554428	-5.901156e-10	0.00848529	0.00848529	0	78008.164	78008.016	-8.4375e-05	690907	85292.44	-0.00046952735	85293.625	690906.7	-0.00035136816
0	0.5534145	0.55341357	-4.003297e-10	0.008131741	0.00813174	0	77865.43	77865.29	-5.6875e-05	691174.1	83605.18	-0.00042133086	83606.336	691173.75	-0.00017179726
0	0.55238795	0.55238706	-2.5205945e-11	0.007778168	0.007778168	0	77720.99	77720.86	-1.25e-06	691439.44	81902.62	-0.00013059702	81903.74	691439.3	0.000103194965
0	0.55134875	0.55134785	-3.8105458e-10	0.007424603	0.007424603	0	77574.766	77574.65	-5.34375e-05	691703.25	80183.95	-0.00026741292	80185.03	691703.06	-0.0002534204
0	0.5502961	0.5502952	-2.4168054e-10	0.0070710587	0.0070710587	0	77426.66	77426.53	-3.578125e-05	691965.56	78447.97	-0.0002300995	78449.02	691965.4	-0.000105721396
0	0.54922915	0.5492283	1.0082378e-10	0.0067175203	0.0067175203	0	77276.55	77276.42	1.453125e-05	692226.44	76693.414	0.000105721396	76694.44	692226.2	5.9468282e-05
0	0.5481497	0.5481488	-3.2767727e-10	0.006363976	0.006363976	0	77124.66	77124.54	-4.28125e-05	692485.56	74922.91	-0.0004120025	74923.88	692485.44	-4.5087065e-05
0	0.54705507	0.5470543	-4.7743026e-10	0.006010412	0.006010412	0	76970.64	76970.54	-6.875e-05	692741.94	73134.11	-0.0004182214	73135.04	692741.94	-0.00026663556
0	0.5459458	0.5459451	1.6309729e-10	0.0056568487	0.0056568487	0	76814.58	76814.48	2.15625e-05	692997	71326.195	-2.4875622e-05	71327.086	692996.8	0.00026274877
0	0.5448223	0.5448216	-6.716643e-10	0.0053033074	0.0053033074	0	76656.5	76656.4	-9.328125e-05	693249.56	69500.766	-0.00064676616	69501.625	693249.44	-0.00028762437