//mumax 3.10 [windows_amd64 go1.11.6(gc) CUDA-11.0]
//GPU info: NVIDIA GeForce RTX 3090(24575MB), CUDA Driver 12.1, cc=8.6, using cc=80 PTX
//(c) Arne Vansteenkiste, Dynamat LAB, Ghent University, Belgium
//This is free software without any warranty. See license.txt
//********************************************************************//
//  If you use mumax in any work or publication,                      //
//  we kindly ask you to cite the references in references.bib        //
//********************************************************************//
//output directory: r1;p0.8;a5.12e-07;l1.8000000000000002e-07;s5.out/
randSeed(5)
ThermSeed(5)
resolution := 2e-09
zResolution := 5e-09
a := 5.12e-07
gridSize := 512
gridDepth := 5
SetCellsize(resolution, resolution, zResolution)
SetGridsize(gridSize, gridSize, gridDepth)
SetPBC(16, 16, 0)
//resizing...
Msat = 700e3
Aex = 13e-12
alpha = 0.2
Bmax := 0.1
Bstep := Bmax / 500.0
TableAdd(B_ext)
TableAdd(m_full)
islandWidth := 8e-08
islandLength := 1.8000000000000002e-07
ellipseConstant := 7.200000000000001e-08
hIsland := Universe().Inverse()
vIsland := Universe().Inverse()
vIslands := Universe().Inverse()
hIslands := Universe().Inverse()
hIsland = rect(islandLength-2*ellipseConstant, islandWidth)
hIsland = hIsland.add(ellipse(ellipseConstant*2, islandWidth).transl(islandLength/2-ellipseConstant, 0, 0))
hIsland = hIsland.add(ellipse(ellipseConstant*2, islandWidth).transl(-islandLength/2+ellipseConstant, 0, 0))
hIsland = hIsland.sub(rect(2.4831378148302762e-09, -9.075458670389655e-10).transl(2.612800124535107e-08, -3.9744304645778004e-08, 0))
hIsland = hIsland.sub(rect(5.991166870719055e-09, -3.3032365909396827e-09).transl(8.171243756196518e-08, -1.8631624680758716e-08, 0))
hIsland = hIsland.sub(rect(4.4498249424847115e-09, -1.8385315694563232e-09).transl(9.546773862413964e-09, -4e-08, 0))
hIsland = hIsland.add(rect(5.851044998664327e-09, 2.6380737981264878e-09).transl(-7.627092840750223e-08, -2.3494804406793932e-08, 0))
hIsland = hIsland.add(rect(5.1066563548983406e-09, 4.929128166579648e-10).transl(2.632287723706911e-09, -4e-08, 0))
hIsland = hIsland.sub(rect(4.0171290291998556e-09, -3.0077758663740415e-09).transl(1.1746617489728198e-08, -4e-08, 0))
hIsland = hIsland.add(rect(8.322286288529366e-09, 2.8314634899293014e-09).transl(-2.880933622665096e-09, -4e-08, 0))
hIsland = hIsland.add(rect(8.197504374456453e-09, 2.4324572943676425e-09).transl(-2.5054610354015802e-08, -3.980753260482573e-08, 0))
hIsland = hIsland.sub(rect(2.195899110259565e-09, -2.57063343862598e-09).transl(-7.702011721175555e-08, -2.291035781382745e-08, 0))
hIsland = hIsland.sub(rect(8.715455104684048e-09, -1.5464546529859045e-09).transl(-4.1518323700194805e-08, -3.7805906400253234e-08, 0))
hIsland = hIsland.add(rect(6.35094006844281e-09, 5.025221247105088e-10).transl(-5.981691589982215e-08, -3.2562122700485636e-08, 0))
hIsland = hIsland.sub(rect(7.294422141992158e-09, -1.964815271749028e-09).transl(5.793380714759341e-08, -3.328371792048999e-08, 0))
hIsland = hIsland.add(rect(8.752254115533985e-09, 6.947215114116109e-10).transl(3.200528205577346e-08, -3.923595948658306e-08, 0))
hIsland = hIsland.add(rect(5.878108769853158e-09, 2.4164091742005565e-09).transl(8.608471370907556e-08, -1.30108188499439e-08, 0))
hIsland = hIsland.sub(rect(7.871112659725426e-09, -9.412046911335371e-10).transl(-1.6658216133977457e-08, -4e-08, 0))
hIsland = hIsland.add(rect(2.5808585567743897e-09, 3.018655397337901e-10).transl(-8.108040449255112e-08, -1.9283961296604273e-08, 0))
hIsland = hIsland.add(rect(7.817699743115386e-09, 1.175134966466582e-09).transl(3.007607142202509e-08, -3.9433365028517006e-08, 0))
hIsland = hIsland.add(rect(6.044356800365519e-09, 1.291881657471184e-09).transl(6.527881242311518e-08, -3.016781200946197e-08, 0))
hIsland = hIsland.add(rect(2.0331056922451012e-09, 3.1459050992120753e-09).transl(-1.5434204561264628e-08, -4e-08, 0))
hIsland = hIsland.add(rect(2.900743396449786e-09, 2.5148252778821527e-09).transl(-3.740851934014166e-08, -3.851931284491252e-08, 0))
hIsland = hIsland.add(rect(2.1311806674640545e-09, 1.3878778424346428e-10).transl(-3.3828752942925e-08, -3.902140351374702e-08, 0))
hIsland = hIsland.sub(rect(3.0811700405959404e-09, -2.20638733749435e-10).transl(3.629917993814242e-08, -3.868653709422764e-08, 0))
hIsland = hIsland.sub(rect(8.042986773972365e-09, -1.0089476571454295e-09).transl(-8.942832851739878e-08, -5.030581943932177e-09, 0))
hIsland = hIsland.sub(rect(6.3526448632388255e-09, -2.1399113817589895e-09).transl(-4.84197186424148e-08, -3.6254589823162785e-08, 0))
hIsland = hIsland.add(rect(6.7419486738278295e-09, 1.2897173934634254e-09).transl(3.667852846004825e-08, -3.8630540972837334e-08, 0))
hIsland = hIsland.add(rect(2.57061687192548e-09, 3.883414706151972e-10).transl(6.630049339078187e-08, -2.9664077801143516e-08, 0))
hIsland = hIsland.sub(rect(3.941633112650469e-09, -1.3969521782605089e-09).transl(8.74091782070211e-08, -1.0633716187029504e-08, 0))
hIsland = hIsland.add(rect(8.738567558640902e-09, 1.963302936728002e-09).transl(-2.525205532876142e-08, -3.979658033849707e-08, 0))
hIsland = hIsland.add(rect(3.0686139639333895e-09, 1.3783438733636475e-09).transl(7.153055409720116e-08, -2.675033043551894e-08, 0))
hIsland = hIsland.add(rect(3.742256287102989e-09, 3.632008258242898e-10).transl(-8.650819642535623e-08, -1.2305612271562419e-08, 0))
hIsland = hIsland.sub(rect(5.0922449197476075e-09, -1.3573681295966123e-09).transl(7.937941847104478e-08, -2.0909615811429796e-08, 0))
hIsland = hIsland.add(rect(7.237878637112976e-09, 7.450386690189442e-10).transl(1.3818297379927077e-08, -4e-08, 0))
hIsland = hIsland.sub(rect(8.40596190802018e-09, -6.909895051157679e-10).transl(5.775412222405376e-08, -3.3350041026660475e-08, 0))
hIsland = hIsland.sub(rect(3.8806868343095365e-09, -4.0486412329625694e-11).transl(-3.128932123982941e-08, -3.9312745478966715e-08, 0))
hIsland = hIsland.sub(rect(2.3778105241122084e-09, -4.909367785834028e-10).transl(-3.5173986285430803e-09, -4e-08, 0))
hIsland = hIsland.sub(rect(9.61386667944359e-09, -1.186061929634828e-10).transl(-6.811394331069804e-08, -2.8720624745238995e-08, 0))
hIsland = hIsland.sub(rect(4.864331668668483e-09, -4.243265786819598e-12).transl(6.38472263899547e-08, -3.0842250123816754e-08, 0))
hIsland = hIsland.add(rect(3.169354486120882e-09, 5.084070564989571e-10).transl(-8.029919001520461e-09, -4e-08, 0))
hIsland = hIsland.add(rect(9.931306638647478e-09, 3.0208358931805163e-09).transl(-4.545780916968675e-09, -4e-08, 0))
hIsland = hIsland.sub(rect(2.6638424227097376e-09, -1.1962030285211648e-09).transl(-1.1467177750160436e-08, -4e-08, 0))
hIsland = hIsland.add(rect(7.492030521972036e-09, 8.752254606867376e-10).transl(-5.559517737148302e-09, -4e-08, 0))
hIsland = hIsland.add(rect(2.7090088370141015e-09, 3.5469715530628003e-09).transl(3.375831390809203e-08, -3.9030201754594244e-08, 0))
hIsland = hIsland.add(rect(5.689865192432052e-09, 1.7274081499691376e-09).transl(2.454590403708732e-08, -3.9834345021776925e-08, 0))
hIsland = hIsland.add(rect(2.84944424763584e-09, 7.383608364176097e-10).transl(8.099112718430007e-08, -1.9373823309958037e-08, 0))
hIsland = hIsland.sub(rect(3.47809891784594e-09, -1.244915658252116e-09).transl(-2.3674380474101102e-08, -3.987558353702492e-08, 0))
hIsland = hIsland.sub(rect(7.536488154458114e-09, -4.4375658876161926e-09).transl(-8.569939038810375e-08, -1.3617260981172397e-08, 0))
hIsland = hIsland.add(rect(7.665188950712951e-09, 4.421121844713295e-09).transl(7.531565523184057e-08, -2.420919416041227e-08, 0))
hIsland = hIsland.sub(rect(2.9013799800345804e-09, -1.158114745901142e-09).transl(-4.345489185439896e-08, -3.741677382101646e-08, 0))
hIsland = hIsland.add(rect(7.665101988730348e-09, 1.0387189681366666e-09).transl(6.971404127055564e-09, -4e-08, 0))
hIsland = hIsland.add(rect(4.455654214136904e-09, 4.225964955116406e-10).transl(5.456814710293186e-08, -3.4456855369165445e-08, 0))
hIsland = hIsland.add(rect(8.905950187332461e-09, 1.708193327232574e-09).transl(2.0251772804821227e-08, -3.9980433174255006e-08, 0))
hIsland = hIsland.sub(rect(2.17990054853777e-09, -4.44580035727527e-09).transl(2.2235816985479247e-08, -3.9930718760885896e-08, 0))
hIsland = hIsland.sub(rect(9.168653340765723e-09, -1.876790478733957e-09).transl(-8.50113398314971e-08, -1.463000820641032e-08, 0))
hIsland = hIsland.sub(rect(3.931304528869395e-09, -1.885035944288881e-09).transl(1.6882700277430875e-08, -4e-08, 0))
hIsland = hIsland.add(rect(7.84644727764766e-09, 1.9308753398601033e-09).transl(-5.68287050656061e-08, -3.36848670226833e-08, 0))
hIsland = hIsland.sub(rect(7.486785710928675e-09, -7.241757638563553e-11).transl(-2.5830609844993238e-08, -3.976272817980525e-08, 0))
hIsland = hIsland.add(rect(5.242752704738395e-09, 2.3892233808051986e-10).transl(-1.1129213368533552e-08, -4e-08, 0))
hIsland = hIsland.add(rect(5.8700189289579455e-09, 1.7292879827494568e-09).transl(6.634688041024433e-08, -2.9640745826436063e-08, 0))
hIsland = hIsland.sub(rect(6.987065366338044e-09, -1.27926659716976e-09).transl(8.800396992419007e-08, -9.35322277021277e-09, 0))
hIsland = hIsland.sub(rect(2.926816824490248e-09, -7.98257558868124e-10).transl(7.540575165236768e-08, -2.4143217724798036e-08, 0))
hIsland = hIsland.sub(rect(8.616649160164786e-09, -6.772198938387251e-10).transl(1.859261621223588e-08, -3.9998645062024764e-08, 0))
hIsland = hIsland.add(rect(5.839795303038239e-09, 1.5039617274489106e-09).transl(-7.650802391235773e-09, -4e-08, 0))
hIsland = hIsland.sub(rect(4.268258225494556e-09, -2.821046486559055e-09).transl(1.631662524319719e-08, -4e-08, 0))
hIsland = hIsland.sub(rect(2.7990319973971387e-09, -3.4642629387988552e-09).transl(-8.919642974518657e-08, -5.959440884856299e-09, 0))
hIsland = hIsland.add(rect(9.572126162788422e-09, 5.720522501337773e-10).transl(6.89332023336671e-08, -2.8272313923334013e-08, 0))
hIsland = hIsland.add(rect(3.616512194658585e-09, 2.2832120041547713e-09).transl(-4.0655978104950754e-08, -3.796809355799146e-08, 0))
hIsland = hIsland.sub(rect(6.28328852219237e-09, -1.6443538026992136e-09).transl(-3.497657248474965e-08, -3.8872202716516635e-08, 0))
hIsland = hIsland.add(rect(7.211330733716339e-09, 7.749220350168093e-11).transl(-1.5961710999762253e-08, -4e-08, 0))
hIsland = hIsland.sub(rect(7.930067741905004e-09, -1.6081725739772512e-09).transl(-2.443590820226177e-08, -3.983987659574532e-08, 0))
hIsland = hIsland.sub(rect(2.665956385352388e-09, -1.3122700932080182e-09).transl(2.880445557473178e-08, -3.9547064240487553e-08, 0))
hIsland = hIsland.add(rect(3.869454712362039e-09, 2.0089759483873247e-09).transl(-8.936210232391369e-08, -5.312759853086371e-09, 0))
hIsland = hIsland.sub(rect(6.075040519704907e-09, -2.5336619697742045e-09).transl(2.9801459797798536e-08, -3.9459017443484705e-08, 0))
hIsland = hIsland.add(rect(6.296324764554101e-09, 5.896778480669487e-10).transl(8.398726421596815e-08, -1.6002323917767044e-08, 0))
hIsland = hIsland.add(rect(9.702021736005136e-09, 4.310855276274458e-09).transl(7.392214423664842e-08, -2.5195003570761944e-08, 0))
hIsland = hIsland.sub(rect(4.206069917244225e-09, -4.078098839999459e-09).transl(1.5560553310561172e-08, -4e-08, 0))
hIsland = hIsland.add(rect(2.9780384012251162e-09, 2.330532934388519e-10).transl(5.817293518451239e-08, -3.3194782790748756e-08, 0))
hIsland = hIsland.sub(rect(4.807703401520883e-09, -7.784324267944213e-10).transl(4.5324480329115324e-08, -3.700756001653869e-08, 0))
hIsland = hIsland.add(rect(4.6362389885168366e-09, 1.308949480232013e-09).transl(-8.862085402111649e-08, -7.791554808627798e-09, 0))
hIsland = hIsland.sub(rect(6.892818608962809e-09, -3.251188267592971e-10).transl(-7.555005008326998e-08, -2.403695544322029e-08, 0))
hIsland = hIsland.add(rect(8.687679523836555e-09, 1.1238362188991449e-09).transl(5.2121162081653684e-08, -3.5223038450924186e-08, 0))
hIsland = hIsland.sub(rect(5.528065953200818e-09, -2.92938042847874e-09).transl(6.621009849372449e-08, -2.9709428208100523e-08, 0))
hIsland = hIsland.sub(rect(7.73582918469525e-09, -8.415476228860762e-10).transl(-1.8326828404193257e-09, -4e-08, 0))
hIsland = hIsland.add(rect(3.714444659888792e-09, 3.210357321452555e-11).transl(-8.781062022501632e-08, -9.789092314044444e-09, 0))
hIsland = hIsland.add(rect(5.752173731858456e-09, 3.199542107933649e-09).transl(-3.140058734003291e-08, -3.930108635346346e-08, 0))
hIsland = hIsland.sub(rect(2.7793302858686096e-09, -4.4173914628253954e-10).transl(-4.047745220630042e-08, -3.8000829028941944e-08, 0))
hIsland = hIsland.sub(rect(8.166066159258026e-09, -3.317938815674687e-09).transl(8.874372839235247e-08, -7.439569157117787e-09, 0))
hIsland = hIsland.sub(rect(5.196320139381215e-09, -7.33734136071448e-10).transl(-8.199792114662934e-08, -1.8327154589366443e-08, 0))
hIsland = hIsland.sub(rect(8.023244924270193e-09, -1.0302277989649164e-09).transl(-6.303797622637341e-08, -3.1208086447288425e-08, 0))
hIsland = hIsland.sub(rect(6.734947805383114e-09, -3.1254983207480086e-09).transl(7.537379921882674e-08, -2.416664855170303e-08, 0))
hIsland = hIsland.sub(rect(5.073828763799132e-09, -1.4351891018380412e-09).transl(6.223651383296141e-08, -3.155991188585068e-08, 0))
hIsland = hIsland.sub(rect(2.141334946024763e-09, -4.770686531468625e-10).transl(-2.5722533383594883e-08, -3.976925140671357e-08, 0))
hIsland = hIsland.add(rect(5.031294728992606e-09, 4.1724250690576575e-10).transl(4.659120386114747e-08, -3.671101300502388e-08, 0))
hIsland = hIsland.sub(rect(6.0251310725163184e-09, -2.7957187196806525e-09).transl(-7.48815008652961e-08, -2.4523199266339218e-08, 0))
hIsland = hIsland.add(rect(8.989985931199149e-09, 1.691601240179439e-09).transl(-2.7925364230805868e-08, -3.9618111991919445e-08, 0))
hIsland = hIsland.add(rect(4.002571012248491e-09, 1.298571016443723e-09).transl(8.577114278738192e-08, -1.3506653656307645e-08, 0))
hIsland = hIsland.sub(rect(9.820242488601976e-09, -1.3962942789328168e-09).transl(3.7021809721437305e-08, -3.857880644958468e-08, 0))
hIsland = hIsland.add(rect(7.289144849054127e-09, 1.508968135935995e-09).transl(2.2931720097885854e-08, -3.9906055331519e-08, 0))
hIsland = hIsland.add(rect(4.422375658366172e-09, 8.211051982691254e-10).transl(-1.5420173280889473e-08, -4e-08, 0))
hIsland = hIsland.add(rect(8.762502833208988e-09, 1.056821800101296e-09).transl(1.161623260552564e-08, -4e-08, 0))
hIsland = hIsland.sub(rect(3.2147360252676942e-09, -1.1048419906562349e-10).transl(8.707774566394244e-08, -1.12801728982087e-08, 0))
hIsland = hIsland.sub(rect(4.353953475005287e-09, -2.6193642602219606e-09).transl(-6.852278518066961e-08, -2.849869055681435e-08, 0))
hIsland = hIsland.add(rect(6.968853435455197e-09, 5.715719238496196e-10).transl(4.858893181371496e-08, -3.6210620374840756e-08, 0))
hIsland = hIsland.sub(rect(9.710627201739636e-09, -2.585638482491901e-09).transl(-5.629842462082906e-08, -3.387172002052706e-08, 0))
hIsland = hIsland.sub(rect(4.617087733057202e-09, -2.3458480726008167e-09).transl(8.979918335101016e-08, -2.9854208570712e-09, 0))
hIsland = hIsland.sub(rect(7.45614282768496e-09, -8.915194295116353e-10).transl(8.370566593308649e-08, -1.635604490785184e-08, 0))
hIsland = hIsland.sub(rect(7.688768190692717e-09, -8.919264189899497e-10).transl(-6.075444599640522e-08, -3.218416021887121e-08, 0))
hIsland = hIsland.add(rect(2.59355557742376e-09, 3.4790567557702676e-09).transl(4.7079946510923985e-08, -3.659233505602515e-08, 0))
hIsland = hIsland.sub(rect(7.845667544529967e-09, -4.5961898333769266e-10).transl(1.522872109482104e-08, -4e-08, 0))
hIsland = hIsland.add(rect(7.5563992773215e-09, 1.9710349500946434e-09).transl(-3.8684887911700696e-08, -3.8313744641053685e-08, 0))
hIsland = hIsland.add(rect(9.820970509733674e-09, 2.1804721329415405e-09).transl(-7.553068624418737e-08, -2.4051257893446217e-08, 0))
hIsland = hIsland.add(rect(9.615915425658206e-09, 5.1472233747116045e-09).transl(-6.209930498224301e-09, -4e-08, 0))
hIsland = hIsland.sub(rect(7.324364995542583e-09, -1.714784717996651e-09).transl(-7.922511685594225e-08, -2.1048775410673088e-08, 0))
hIsland = hIsland.sub(rect(9.915154931779438e-09, -1.8682525269328676e-09).transl(-7.573794221280825e-08, -2.389747926315335e-08, 0))
hIsland = hIsland.add(rect(7.9087776654838e-09, 9.184756091808653e-11).transl(1.1765579487245733e-08, -4e-08, 0))
hIsland = hIsland.sub(rect(9.27891126575101e-09, -2.6711423831979986e-10).transl(6.570336991951629e-08, -2.996082060102781e-08, 0))
hIsland = hIsland.sub(rect(8.737949062733176e-09, -2.5474502324954475e-09).transl(2.1953463963295614e-08, -3.993965402696291e-08, 0))
hIsland = hIsland.add(rect(9.795598572625935e-09, 1.9307735224529982e-09).transl(-3.9863885176055896e-08, -3.8111153729358434e-08, 0))
hIsland = hIsland.add(rect(2.156938166921206e-09, 3.5266682397978335e-09).transl(-3.9092844157049055e-08, -3.824503488054801e-08, 0))
hIsland = hIsland.add(rect(4.835399733024095e-09, 2.4310998416127178e-09).transl(6.858412020785017e-09, -4e-08, 0))
hIsland = hIsland.add(rect(9.45463802513815e-09, 6.543024482371917e-10).transl(2.6020907238595045e-08, -3.975101927053256e-08, 0))
hIsland = hIsland.sub(rect(8.464645755214425e-09, -2.908238190647247e-10).transl(4.045497180170869e-08, -3.800493080982261e-08, 0))
hIsland = hIsland.sub(rect(9.125646588836086e-09, -2.8347971940519234e-09).transl(-7.754336859114396e-11, -4e-08, 0))
hIsland = hIsland.add(rect(9.69430080427596e-09, 1.4001566628546142e-09).transl(-1.7323643249247484e-08, -4e-08, 0))
hIsland = hIsland.sub(rect(5.66049436471233e-09, -1.97505649222667e-09).transl(-1.0954951526900592e-08, -4e-08, 0))
hIsland = hIsland.add(rect(6.261892202641297e-09, 6.171958708425239e-10).transl(-7.2778692213540434e-09, -4e-08, 0))
hIsland = hIsland.add(rect(8.597768033442286e-09, 6.335614806756766e-10).transl(3.120363334502774e-08, -3.9321655777881726e-08, 0))
hIsland = hIsland.sub(rect(9.443649343417533e-09, -6.581295679297681e-10).transl(-5.981866252031855e-08, -3.256143038105671e-08, 0))
hIsland = hIsland.sub(rect(4.745304984936159e-09, -1.1733645502695912e-09).transl(3.4261430026001492e-09, -4e-08, 0))
hIsland = hIsland.sub(rect(3.937405758036128e-09, -1.1746072745891438e-09).transl(-8.048317992759442e-08, -1.98750124321404e-08, 0))
hIsland = hIsland.add(rect(4.855037206952336e-09, 2.9620034872700785e-09).transl(8.561363469264352e-08, -1.3748135717047913e-08, 0))
hIsland = hIsland.add(rect(9.33570529947642e-09, 2.4173568077281845e-09).transl(4.7680710971088065e-09, -4e-08, 0))
hIsland = hIsland.sub(rect(6.775981337759706e-09, -2.2490387421305494e-10).transl(4.612133487937297e-08, -3.682285976700371e-08, 0))
hIsland = hIsland.sub(rect(2.4718691858020733e-09, -1.4559867965377676e-10).transl(-2.4108172251467692e-08, -3.98557980653744e-08, 0))
hIsland = hIsland.add(rect(7.09982481771188e-09, 4.876400315898093e-09).transl(1.4362710722052231e-08, -4e-08, 0))
hIsland = hIsland.add(rect(8.123346044780157e-09, 3.991740255474342e-10).transl(4.427008962792399e-08, -3.7242458806377216e-08, 0))
hIsland = hIsland.add(rect(3.9366252231658205e-09, 3.2595760634038333e-10).transl(6.13595120711398e-08, -3.193334451090368e-08, 0))
hIsland = hIsland.sub(rect(9.490582624299198e-09, -3.074343240216071e-09).transl(-1.8234000452153033e-08, -3.999978874862577e-08, 0))
hIsland = hIsland.add(rect(2.3687437636053383e-09, 2.1838854757620284e-09).transl(1.9520096904362e-08, -3.999108428956056e-08, 0))
hIsland = hIsland.sub(rect(2.9774229857263475e-09, -1.7948368930268189e-09).transl(8.140879401612794e-08, -1.894863786612541e-08, 0))
hIsland = hIsland.add(rect(5.4793372486765646e-09, 3.0340578069865117e-09).transl(-8.435422367276766e-08, -1.5526928030658057e-08, 0))
hIsland = hIsland.add(rect(5.690598019717369e-09, 1.9776261239763904e-09).transl(1.4149485946860044e-08, -4e-08, 0))
hIsland = hIsland.add(rect(6.3781584255228325e-09, 1.2813346037942445e-10).transl(-6.055182013980104e-08, -3.226693546523916e-08, 0))
hIsland = hIsland.add(rect(2.096600274580914e-09, 4.869478762285561e-09).transl(-5.2778028094769514e-08, -3.5024192528823816e-08, 0))
hIsland = hIsland.add(rect(3.755221652085412e-09, 5.920774025905977e-10).transl(-8.168422344550527e-08, -1.8661372299311364e-08, 0))
hIsland = hIsland.sub(rect(6.301554963549204e-09, -1.176425759522963e-09).transl(4.9655089049271836e-08, -3.592668863047973e-08, 0))
hIsland = hIsland.sub(rect(9.379147600503867e-09, -4.5754079889190205e-09).transl(4.349021375413165e-08, -3.7409351354384176e-08, 0))
hIsland = hIsland.add(rect(7.83214744489094e-09, 3.364121575079868e-10).transl(-1.4222861152138188e-08, -4e-08, 0))
hIsland = hIsland.sub(rect(2.5461271018145117e-09, -2.30806761792856e-09).transl(-7.631546141337839e-08, -2.346067737216328e-08, 0))
hIsland = hIsland.sub(rect(2.856245976685057e-09, -2.3436357320220085e-09).transl(-6.155598482997972e-08, -3.1850713625988764e-08, 0))
hIsland = hIsland.sub(rect(9.411342046205795e-09, -1.3598095188172804e-09).transl(-8.086473007548637e-08, -1.950012434699385e-08, 0))
hIsland = hIsland.sub(rect(5.767130084038197e-09, -1.0541917408782538e-09).transl(-7.052620270955964e-08, -2.7357927219796046e-08, 0))
hIsland = hIsland.sub(rect(9.500005986871773e-09, -2.3465346697251466e-09).transl(-4.73179162408375e-08, -3.6533680500239665e-08, 0))
hIsland = hIsland.add(rect(2.4063879956376353e-09, 1.9009227230355466e-10).transl(4.866241769367813e-08, -3.6191432641717906e-08, 0))
hIsland = hIsland.sub(rect(4.9758024496189486e-09, -1.2627737207490811e-09).transl(3.244745338354232e-08, -3.9186445324104145e-08, 0))
hIsland = hIsland.sub(rect(6.421028705907904e-09, -1.4404996362862543e-09).transl(5.3854146036565566e-08, -3.468767264216243e-08, 0))
hIsland = hIsland.sub(rect(5.408593238538949e-09, -5.303279861711331e-09).transl(2.3913196213893878e-08, -3.9864872492049994e-08, 0))
hIsland = hIsland.add(rect(6.18341063611606e-09, 2.481524400670728e-09).transl(8.652837432555235e-08, -1.2270886858299656e-08, 0))
hIsland = hIsland.add(rect(5.560242949010101e-09, 2.0925129848101325e-09).transl(-6.539190609981832e-08, -3.011299315677334e-08, 0))
hIsland = hIsland.sub(rect(9.797661695171862e-09, -3.957207480076339e-09).transl(3.6661818062757984e-08, -3.863303353106647e-08, 0))
hIsland = hIsland.sub(rect(6.763946408465851e-09, -2.1023541777435992e-09).transl(8.869383066996532e-09, -4e-08, 0))
hIsland = hIsland.sub(rect(3.787662257929564e-09, -9.867501027629402e-10).transl(-7.323823641886742e-08, -2.5656426753249352e-08, 0))
hIsland = hIsland.add(rect(6.708305877868152e-09, 2.5990771085283752e-09).transl(-7.284558273645447e-08, -2.591511579436623e-08, 0))
hIsland = hIsland.sub(rect(7.101201108912263e-09, -5.670838322253539e-10).transl(5.5286282119230396e-08, -3.4218493509553e-08, 0))
hIsland = hIsland.sub(rect(5.76831551826578e-09, -2.961437572093842e-09).transl(-1.8342348969797944e-08, -3.9999547826081884e-08, 0))
hIsland = hIsland.sub(rect(2.9554310604356654e-09, -9.037095783088825e-10).transl(-7.114899100533924e-08, -2.698413317000444e-08, 0))
hIsland = hIsland.add(rect(4.1252349076606836e-09, 1.4134696359122214e-10).transl(-8.333292732211244e-08, -1.6810569569044098e-08, 0))
hIsland = hIsland.add(rect(9.86287312490255e-09, 6.274527393411969e-10).transl(-7.80709333637051e-08, -2.2051307769043843e-08, 0))
hIsland = hIsland.sub(rect(3.0579292037071507e-09, -2.843594627500938e-09).transl(3.4683857520096896e-09, -4e-08, 0))
hIsland = hIsland.sub(rect(9.674597206340145e-09, -3.3436656437504463e-09).transl(1.775162612159046e-08, -4e-08, 0))
hIsland = hIsland.sub(rect(8.963031574708568e-09, -7.614272409422271e-10).transl(-3.0098262762011095e-08, -3.943126555323887e-08, 0))
hIsland = hIsland.add(rect(5.3304787922626866e-09, 2.7202084003222236e-09).transl(1.997977852165134e-08, -3.998487552413562e-08, 0))
hIsland = hIsland.add(rect(6.071060512600863e-09, 2.2546036342931355e-09).transl(6.497665755662719e-08, -3.0313147764784935e-08, 0))
hIsland = hIsland.sub(rect(8.433696974295208e-09, -1.4368711311146442e-09).transl(-6.134495502005008e-08, -3.1939443445784915e-08, 0))
hIsland = hIsland.sub(rect(7.694745346246413e-09, -7.560824153197938e-11).transl(-1.474980103054532e-08, -4e-08, 0))
hIsland = hIsland.sub(rect(9.548605329448492e-09, -1.5516083202009968e-09).transl(5.670107954115272e-08, -3.3730167663408634e-08, 0))
hIsland = hIsland.sub(rect(7.521787282607705e-09, -1.4144986556627689e-09).transl(3.615072749550332e-08, -3.870811592006869e-08, 0))
hIsland = hIsland.add(rect(9.160957297988561e-09, 7.489241670304656e-10).transl(-6.859906164093465e-08, -2.8456892681157995e-08, 0))
hIsland = hIsland.add(rect(2.2095163415145924e-09, 2.9896468253397588e-09).transl(-9.770494762436782e-09, -4e-08, 0))
hIsland = hIsland.add(rect(7.274271057442375e-09, 4.101990131865684e-09).transl(8.098833261306757e-08, -1.937662740776243e-08, 0))
hIsland = hIsland.add(rect(8.17322321651999e-09, 1.9961080963315887e-09).transl(-2.6396545307939925e-08, -3.972707051566603e-08, 0))
hIsland = hIsland.add(rect(2.7903014117955598e-09, 8.221383383093886e-10).transl(-4.933231140581432e-08, -3.601391304352397e-08, 0))
hIsland = hIsland.sub(rect(4.9158657724986495e-09, -1.9965259720834934e-09).transl(7.158211471953625e-08, -2.67184507744126e-08, 0))
hIsland = hIsland.sub(rect(7.123709930572329e-09, -1.4685341722040706e-09).transl(-1.1240521826273888e-08, -4e-08, 0))
hIsland = hIsland.add(rect(4.864556203876788e-09, 8.339440345667597e-10).transl(7.598742322953738e-08, -2.3710306317687092e-08, 0))
hIsland = hIsland.add(rect(3.765353465654328e-09, 1.2154349214397188e-09).transl(2.7319245637736436e-08, -3.966352174252317e-08, 0))
hIsland = hIsland.sub(rect(7.819751566820947e-09, -3.6294813929817697e-09).transl(-4.6943834513437677e-08, -3.662562704834956e-08, 0))
hIsland = hIsland.sub(rect(4.329232445734504e-09, -3.2240545642380163e-09).transl(3.177044902924274e-08, -3.9261605713332794e-08, 0))
hIsland = hIsland.sub(rect(9.004548822375183e-09, -3.3333815304931443e-09).transl(7.371398389318424e-08, -2.5336939306896575e-08, 0))
hIsland = hIsland.add(rect(2.432109770807271e-09, 3.5529025044273308e-09).transl(8.689457687452283e-08, -1.1620773189896097e-08, 0))
hIsland = hIsland.sub(rect(7.35517367773888e-09, -1.4095034283574258e-09).transl(5.57083648454278e-08, -3.407543927727915e-08, 0))
hIsland = hIsland.sub(rect(7.291836461537059e-09, -2.4737130363943963e-09).transl(1.7458602817847007e-08, -4e-08, 0))
hIsland = hIsland.add(rect(5.980712572290023e-09, 1.5648228815687925e-09).transl(-8.295255805267355e-08, -1.7259504470645878e-08, 0))
hIsland = hIsland.add(rect(3.811539613739612e-09, 2.3960831096599265e-09).transl(-4.4020271793468294e-08, -3.7296548742270775e-08, 0))
hIsland = hIsland.add(rect(8.315595617894127e-09, 1.2175398454042071e-09).transl(-5.688906049810099e-09, -4e-08, 0))
hIsland = hIsland.sub(rect(4.879066348399623e-09, -1.4557781291984314e-09).transl(1.8570478841395096e-08, -3.999874440117117e-08, 0))
hIsland = hIsland.sub(rect(6.731453568660211e-09, -1.7066435487483975e-09).transl(-3.061654067500964e-08, -3.938110290307916e-08, 0))
hIsland = hIsland.add(rect(4.763169371394378e-09, 1.8855880304485796e-10).transl(-9.665393299712626e-09, -4e-08, 0))
hIsland = hIsland.add(rect(2.4126991410246365e-09, 9.941150106050101e-11).transl(-2.250146513529962e-08, -3.9921747575941436e-08, 0))
hIsland = hIsland.add(rect(2.8892686587600576e-09, 6.558955468100251e-10).transl(-4.3847170577398475e-08, -3.733367961621343e-08, 0))
hIsland = hIsland.add(rect(4.40352898476036e-09, 2.0400532779709573e-09).transl(8.541215547989091e-08, -1.4050188847584305e-08, 0))
hIsland = hIsland.add(rect(6.2963431592084285e-09, 9.801625192558664e-10).transl(3.0763886277821467e-08, 3.9366445600591546e-08, 0))
hIsland = hIsland.sub(rect(7.210274553282879e-09, -1.85393236321212e-09).transl(-4.11052567665598e-08, 3.7884437298571915e-08, 0))
hIsland = hIsland.add(rect(5.135767568756783e-09, 2.0529026875216676e-09).transl(-7.802278636409861e-08, 2.20917357675951e-08, 0))
hIsland = hIsland.sub(rect(3.4451919507585825e-09, -5.456821210691233e-10).transl(-3.648610423402226e-08, 3.865909867768049e-08, 0))
hIsland = hIsland.sub(rect(7.333730624812794e-09, -4.866979371388474e-09).transl(8.217653738111434e-08, 1.81333541817217e-08, 0))
hIsland = hIsland.add(rect(8.290830852999805e-09, 4.841519022888289e-10).transl(-2.0492711404271588e-08, 3.997602055096347e-08, 0))
hIsland = hIsland.sub(rect(8.584578026055458e-09, -5.905459383098281e-09).transl(3.850702565104154e-08, 3.834324307878272e-08, 0))
hIsland = hIsland.add(rect(3.1933675003434666e-09, 4.884700890573598e-10).transl(-8.615259545302535e-08, 1.2900661924546421e-08, 0))
hIsland = hIsland.add(rect(4.333284841350539e-09, 1.0438460214787619e-09).transl(-2.1072351060887476e-08, 3.9963566196416836e-08, 0))
hIsland = hIsland.sub(rect(6.345242437216696e-09, -1.6255486538942554e-11).transl(-7.581304209688663e-08, 2.3841374993384714e-08, 0))
hIsland = hIsland.add(rect(2.4271153657989697e-09, 9.859182253757076e-10).transl(2.914123392870223e-08, 3.951821312619052e-08, 0))
hIsland = hIsland.sub(rect(3.859770565773057e-09, -6.194193715092246e-10).transl(6.88297828986033e-08, 2.832970113145911e-08, 0))
hIsland = hIsland.sub(rect(4.4553184606088e-09, -3.4066018976810127e-10).transl(-3.963871967645109e-09, 4e-08, 0))
hIsland = hIsland.sub(rect(3.443149230845971e-09, -2.3083927486202093e-10).transl(-5.6833963065465426e-08, 3.3682996189371735e-08, 0))
hIsland = hIsland.sub(rect(8.840136553485517e-09, -1.0980997003812766e-09).transl(1.717430731458578e-08, 4e-08, 0))
hIsland = hIsland.add(rect(2.9994497881522275e-09, 3.6898496776462462e-09).transl(-6.352215556696141e-09, 4e-08, 0))
hIsland = hIsland.sub(rect(8.526663074486546e-09, -2.2366810945139334e-10).transl(2.044002661362188e-08, 3.997702376429328e-08, 0))
hIsland = hIsland.sub(rect(5.834894110872978e-09, -6.197607361710462e-10).transl(7.178469024648319e-08, 2.6592530599206034e-08, 0))
hIsland = hIsland.sub(rect(9.517684793959519e-09, -2.1844027285950077e-09).transl(-2.703564117988956e-08, 3.9683769999574134e-08, 0))
hIsland = hIsland.sub(rect(7.252471214710421e-09, -1.911024139819998e-09).transl(4.411823553820021e-08, 3.727540881846464e-08, 0))
hIsland = hIsland.sub(rect(5.641527192230238e-09, -2.2633371714363356e-09).transl(2.3823725536857354e-08, 3.9868937369029585e-08, 0))
hIsland = hIsland.sub(rect(6.336915379309119e-09, -1.48497449556387e-09).transl(-5.2457533168590155e-08, 3.512182681038408e-08, 0))
hIsland = hIsland.sub(rect(4.6261458213573655e-09, -2.1953874897214428e-09).transl(8.382632034971518e-08, 1.6205618874068542e-08, 0))
hIsland = hIsland.sub(rect(7.83707855473865e-09, -1.445548716868584e-09).transl(1.061292967151999e-09, 4e-08, 0))
hIsland = hIsland.sub(rect(9.691443714156205e-09, -7.515829189107734e-10).transl(-5.3035810448654835e-08, 3.494480650848435e-08, 0))
hIsland = hIsland.sub(rect(5.4843928067005e-09, -4.971850158739401e-10).transl(-2.23549137397066e-08, 3.992676446281426e-08, 0))
hIsland = hIsland.add(rect(6.693232107436833e-09, 6.1526811820809474e-12).transl(8.667943955572835e-09, 4e-08, 0))
hIsland = hIsland.add(rect(3.735179834509051e-09, 9.566646080833691e-10).transl(7.591748372810458e-08, 2.3763008644030713e-08, 0))
hIsland = hIsland.sub(rect(4.481402995282534e-09, -1.9048165811989475e-09).transl(-4.4826285827872277e-08, 3.711988580845178e-08, 0))
hIsland = hIsland.add(rect(7.025659577473822e-09, 2.889736119245041e-10).transl(5.4112309990357736e-08, 3.46049177050093e-08, 0))
hIsland = hIsland.sub(rect(6.2195742952530756e-09, -3.1777141568604018e-09).transl(8.680594219291262e-08, 1.1781738313986168e-08, 0))
hIsland = hIsland.sub(rect(4.9285695267643915e-09, -1.4025231078496036e-09).transl(3.875482329337849e-08, 3.830206981989158e-08, 0))
hIsland = hIsland.add(rect(6.774260002149191e-09, 4.15325941771551e-10).transl(-9.94314754472165e-09, 4e-08, 0))
hIsland = hIsland.add(rect(2.803923712040069e-09, 5.490381777533965e-10).transl(1.1481919332878436e-08, 4e-08, 0))
hIsland = hIsland.sub(rect(7.672822867728766e-09, -5.572115540262986e-10).transl(8.219439658520308e-08, 1.8113832848161432e-08, 0))
hIsland = hIsland.add(rect(9.817934673356957e-09, 9.37846542964386e-10).transl(-6.269125273056609e-08, 3.136155116989095e-08, 0))
hIsland = hIsland.add(rect(2.255917455797483e-09, 2.87575275248198e-09).transl(-2.046451765672308e-08, 3.9976560079347565e-08, 0))
hIsland = hIsland.sub(rect(4.8426505066218705e-09, -2.0576445016286687e-09).transl(7.983315067814256e-09, 4e-08, 0))
hIsland = hIsland.sub(rect(6.928041206071656e-09, -8.837521093275975e-10).transl(-8.703368049328265e-08, 1.1363127470503712e-08, 0))
hIsland = hIsland.sub(rect(9.022134527286253e-09, -1.076952566087828e-09).transl(-1.7109499629707462e-08, 4e-08, 0))
hIsland = hIsland.sub(rect(6.900304617959081e-09, -2.361635915411674e-09).transl(1.3007749347979368e-08, 4e-08, 0))
hIsland = hIsland.sub(rect(5.4573062889140805e-09, -1.339365039250976e-09).transl(-1.6399425931009825e-08, 4e-08, 0))
hIsland = hIsland.add(rect(2.8002007843852265e-09, 7.230803547988556e-10).transl(4.63842780217129e-08, 3.676053960391524e-08, 0))
hIsland = hIsland.sub(rect(8.800612445050499e-09, -1.284721967760624e-09).transl(-1.3608411340978864e-08, 4e-08, 0))
hIsland = hIsland.sub(rect(3.5568049497638655e-09, -2.5001619979740184e-09).transl(-7.712448586359794e-08, 2.2827149550353415e-08, 0))
hIsland = hIsland.add(rect(8.010697364392539e-09, 4.272453104938525e-10).transl(8.2730731619374e-08, 1.7514829554618516e-08, 0))
hIsland = hIsland.sub(rect(8.403544841873228e-09, -7.096707267350465e-10).transl(1.2168535643853886e-08, 4e-08, 0))
hIsland = hIsland.sub(rect(8.335196509349697e-09, -2.876055614310339e-09).transl(-8.217250674066261e-08, 1.813775629116397e-08, 0))
hIsland = hIsland.sub(rect(8.030003778702668e-09, -2.3078019335057084e-09).transl(-2.255457129529515e-09, 4e-08, 0))
hIsland = hIsland.sub(rect(3.4861879592662705e-09, -2.08187604487032e-09).transl(-6.524815598673042e-08, 3.018263213622797e-08, 0))
hIsland = hIsland.sub(rect(9.542738922107063e-09, -3.5229326126552086e-10).transl(-1.412029175396591e-08, 4e-08, 0))
hIsland = hIsland.sub(rect(4.983285143513288e-09, -9.539171266081304e-10).transl(1.3702103881279775e-08, 4e-08, 0))
hIsland = hIsland.sub(rect(6.3147884973335546e-09, -6.2227888474226394e-09).transl(5.7092923370598864e-08, 3.3590413013259964e-08, 0))
hIsland = hIsland.sub(rect(2.405382335310412e-09, -5.172599012213591e-10).transl(8.614492961727996e-09, 4e-08, 0))
hIsland = hIsland.sub(rect(4.12568475412156e-09, -3.0013339340059864e-09).transl(3.717303217256549e-08, 3.855569499378312e-08, 0))
hIsland = hIsland.add(rect(7.383629514280859e-09, 1.6056589591845638e-09).transl(5.027354774982521e-08, 3.5756455497788864e-08, 0))
hIsland = hIsland.sub(rect(9.337765897996645e-09, -1.323670168591795e-09).transl(-6.86712881344381e-08, 2.8417199184739702e-08, 0))
hIsland = hIsland.add(rect(7.727572424572236e-09, 3.223532620844731e-10).transl(6.890313865376077e-08, 2.8289020223117537e-08, 0))
hIsland = hIsland.sub(rect(9.512810089075458e-09, -2.4524841490192743e-10).transl(4.913323359123987e-08, 3.606716028857666e-08, 0))
hIsland = hIsland.sub(rect(7.447007493435811e-09, -7.074753247802654e-10).transl(2.079316256871101e-08, 3.996988929515441e-08, 0))
hIsland = hIsland.add(rect(6.371946329380587e-09, 2.2271605786721326e-10).transl(-9.098424094236157e-09, 4e-08, 0))
hIsland = hIsland.sub(rect(5.9313111903186e-09, -1.910462116448484e-09).transl(-4.413591436933904e-08, 3.727158410244638e-08, 0))
hIsland = hIsland.add(rect(4.4720955899003184e-09, 1.4962174205742843e-09).transl(-7.759260324379073e-08, 2.2448305764029338e-08, 0))
hIsland = hIsland.add(rect(5.3359753162213586e-09, 2.1576351446909283e-09).transl(5.756275942283117e-08, 3.3420201932009495e-08, 0))
hIsland = hIsland.sub(rect(8.119721695423999e-09, -1.9047237999340698e-10).transl(-4.87564861951369e-08, 3.6166788517154154e-08, 0))
hIsland = hIsland.sub(rect(9.179682193308621e-09, -5.228241639320252e-10).transl(7.090182943730855e-08, 2.7133622497014064e-08, 0))
hIsland = hIsland.sub(rect(8.840857082995002e-09, -1.1019222445818108e-09).transl(7.555878487570383e-08, 2.4030499419606213e-08, 0))
hIsland = hIsland.add(rect(4.444572308938838e-09, 2.2581532515286219e-10).transl(3.21649187523319e-09, 4e-08, 0))
hIsland = hIsland.sub(rect(6.738870824387012e-09, -2.0482486260072994e-09).transl(8.610852414017007e-08, 1.2972298827371628e-08, 0))
hIsland = hIsland.add(rect(2.4045966611853037e-09, 8.408754691007273e-10).transl(-7.450249477663233e-08, 2.4792148822056787e-08, 0))
hIsland = hIsland.add(rect(6.139788197401688e-09, 1.8454213803478753e-09).transl(-6.235183494858691e-08, 3.150991778365189e-08, 0))
hIsland = hIsland.add(rect(4.740000703279757e-09, 5.157207105309315e-10).transl(5.311277278353978e-08, 3.4920956544796303e-08, 0))
hIsland = hIsland.sub(rect(7.840088823273335e-09, -1.8003755737500552e-09).transl(1.3342856809622145e-08, 4e-08, 0))
hIsland = hIsland.add(rect(7.227432755438211e-09, 1.3698408417519426e-09).transl(-7.652772405029572e-09, 4e-08, 0))
hIsland = hIsland.add(rect(6.3510016087420415e-09, 1.5730635927277136e-10).transl(2.5035052975314117e-08, 3.9808600835805354e-08, 0))
hIsland = hIsland.sub(rect(4.948116166941003e-09, -1.5304109151941667e-09).transl(-1.6710257034401768e-09, 4e-08, 0))
hIsland = hIsland.sub(rect(2.5387799756987093e-09, -9.667781377981613e-10).transl(-7.686635093803533e-08, 2.303213487287903e-08, 0))
hIsland = hIsland.add(rect(7.9491017502289e-09, 8.62857587119891e-10).transl(-8.605906826245852e-08, 1.3052165366518405e-08, 0))
hIsland = hIsland.sub(rect(6.116643346811992e-09, -9.047092248144807e-11).transl(-2.618506240855367e-08, 3.9740690164404984e-08, 0))
hIsland = hIsland.add(rect(9.728760974011053e-09, 5.686483575505767e-10).transl(3.39385898616374e-08, 3.9007601954668543e-08, 0))
hIsland = hIsland.add(rect(3.594096898130081e-09, 1.23265118933052e-09).transl(-7.238936526613528e-08, 2.6210195841179808e-08, 0))
hIsland = hIsland.sub(rect(8.296726032262825e-09, -7.412903828568944e-10).transl(3.818360497808063e-08, 3.8396172689317626e-08, 0))
hIsland = hIsland.add(rect(8.15641309416938e-09, 9.55419281306964e-10).transl(-5.093461802243432e-08, 3.556992303342545e-08, 0))
hIsland = hIsland.sub(rect(5.8933441677904885e-09, -1.4498971660682076e-09).transl(5.5889288183624875e-08, 3.401344070272403e-08, 0))
hIsland = hIsland.add(rect(2.1796093421111833e-09, 3.8057709954442326e-09).transl(-8.757586984511831e-08, 1.0292007196273002e-08, 0))
hIsland = hIsland.add(rect(3.07950687733464e-09, 1.5367856318566189e-09).transl(4.482019062475501e-08, 3.712124518506973e-08, 0))
hIsland = hIsland.sub(rect(8.456784240517867e-09, -1.6466053269808874e-09).transl(6.652684423851274e-08, 2.9549839611496403e-08, 0))
hIsland = hIsland.add(rect(6.464532850910928e-09, 1.6346382138454141e-09).transl(-8.160256584052217e-08, 1.8747128327435174e-08, 0))
hIsland = hIsland.add(rect(4.024006045037833e-09, 4.4487882334987555e-10).transl(5.099525734480699e-08, 3.5552573628212825e-08, 0))
hIsland = hIsland.sub(rect(5.716551675930001e-09, -1.352087258220884e-09).transl(-8.841894584251739e-08, 8.336519139716104e-09, 0))
hIsland = hIsland.add(rect(5.16690958528967e-09, 1.6938370276373497e-09).transl(1.798660442309434e-09, 4e-08, 0))
hIsland = hIsland.add(rect(9.588162878581692e-09, 1.7356425816397856e-10).transl(-4.5151056247386345e-09, 4e-08, 0))
hIsland = hIsland.sub(rect(7.077392026932591e-09, -3.295100474237032e-09).transl(6.948403480114653e-08, 2.7962685456894408e-08, 0))
hIsland = hIsland.sub(rect(2.8032497809856073e-09, -1.6037410592819163e-09).transl(6.206941123583563e-08, 3.1631983898386443e-08, 0))
hIsland = hIsland.add(rect(9.310165757433337e-09, 7.721137151793138e-10).transl(-5.0242495011748906e-08, 3.5765100908987314e-08, 0))
hIsland = hIsland.sub(rect(7.385668068129431e-09, -5.74041276898134e-10).transl(-1.4331007098024526e-08, 4e-08, 0))
hIsland = hIsland.add(rect(9.179796540638993e-09, 2.889429404548187e-09).transl(3.5301199870948115e-08, 3.882800187144401e-08, 0))
hIsland = hIsland.sub(rect(2.353258075193116e-09, -2.246602723673013e-10).transl(1.2455931648211395e-08, 4e-08, 0))
hIsland = hIsland.sub(rect(7.906364156992288e-09, -1.3573150493536887e-09).transl(-4.620493880869047e-08, 3.680311910928516e-08, 0))
hIsland = hIsland.add(rect(6.9302391450261745e-09, 2.6267373934585887e-09).transl(-4.335166393195749e-08, 3.7438398522291456e-08, 0))
hIsland = hIsland.sub(rect(2.1307046011487722e-09, -5.074112704743485e-09).transl(-4.229435817246099e-08, 3.765414475975977e-08, 0))
hIsland = hIsland.add(rect(7.362781547945237e-09, 3.0720716593269695e-09).transl(-8.986464309060049e-08, 2.4515725276264263e-09, 0))
hIsland = hIsland.add(rect(5.805430078016673e-09, 6.45116009787978e-09).transl(-8.250814232587838e-08, 1.7766485768520204e-08, 0))
hIsland = hIsland.sub(rect(3.218461346605711e-09, -2.1278365232231214e-10).transl(-8.290620781595213e-08, 1.731323787884627e-08, 0))
hIsland = hIsland.sub(rect(7.215188514921063e-09, -3.341404699311604e-09).transl(7.197819788900609e-08, 2.6471240815755312e-08, 0))
hIsland = hIsland.sub(rect(3.035333546584407e-09, -7.661219076314249e-10).transl(4.2119783223882974e-08, 3.7688767922831023e-08, 0))
hIsland = hIsland.add(rect(8.669613715951647e-09, 9.515703531818523e-10).transl(-6.404977704358594e-08, 3.07489738573944e-08, 0))
hIsland = hIsland.sub(rect(3.3318238669500274e-09, -2.8637306012431547e-10).transl(-2.2392933558949395e-08, 3.992547894201105e-08, 0))
hIsland = hIsland.add(rect(8.393800331969801e-09, 7.612057586865737e-10).transl(4.4057953909019346e-08, 3.72884280119654e-08, 0))
hIsland = hIsland.sub(rect(6.863615849867871e-09, -2.29112576499151e-09).transl(1.6340340949547295e-08, 4e-08, 0))
hIsland = hIsland.sub(rect(2.6959767033888467e-09, -2.461634290956791e-09).transl(-6.159638422556934e-08, 3.1833649806728846e-08, 0))
hIsland = hIsland.add(rect(6.308872625614818e-09, 1.467852379079506e-09).transl(6.90321331177287e-08, 2.8217198751597696e-08, 0))
hIsland = hIsland.add(rect(3.6899465466683553e-09, 3.1790361823687956e-09).transl(-3.3867708617230284e-08, 3.9016520018229774e-08, 0))
hIsland = hIsland.sub(rect(8.744917961532156e-09, -2.6743045177264085e-09).transl(2.516049152733094e-08, 3.98016973437894e-08, 0))
hIsland = hIsland.sub(rect(9.539329858419743e-09, -4.850068456512165e-09).transl(-6.602531662249311e-09, 4e-08, 0))
hIsland = hIsland.add(rect(3.6312249529300637e-09, 9.608472578633476e-10).transl(-2.8300814460736382e-08, 3.9588520991233025e-08, 0))
hIsland = hIsland.sub(rect(3.865886572794961e-09, -1.1638746511449582e-09).transl(4.61304276838783e-08, 3.6820716115857886e-08, 0))
hIsland = hIsland.add(rect(5.5495445035968274e-09, 9.54472380262932e-10).transl(-3.9813038802068335e-08, 3.8120145261516165e-08, 0))
hIsland = hIsland.add(rect(3.328149516312802e-09, 8.47503390526045e-10).transl(1.3273366862325657e-08, 4e-08, 0))
hIsland = hIsland.sub(rect(3.347794111443297e-09, -3.921467751373564e-10).transl(-1.0472278310332522e-08, 4e-08, 0))
hIsland = hIsland.add(rect(4.483968123876462e-09, 2.7312453265604173e-09).transl(2.22608759723754e-08, 3.99298958822728e-08, 0))
hIsland = hIsland.add(rect(4.335309879593585e-09, 4.687316172767883e-10).transl(8.886999219116461e-08, 7.058927602432184e-09, 0))
hIsland = hIsland.sub(rect(8.442321710612314e-09, -4.978789084519061e-10).transl(-4.4805898602319145e-08, 3.71244312427738e-08, 0))
hIsland = hIsland.sub(rect(5.284241375388236e-09, -1.8635692724076227e-10).transl(7.781959326010836e-08, 2.2261189877264086e-08, 0))
hIsland = hIsland.add(rect(5.694942111229118e-09, 1.5274222356698835e-09).transl(-5.455168907173332e-08, 3.4462244621063436e-08, 0))
hIsland = hIsland.add(rect(3.1690495409895177e-09, 1.4290501305873974e-09).transl(3.0121824830092216e-08, 3.9429032054590194e-08, 0))
hIsland = hIsland.add(rect(3.392357902380982e-09, 1.893116002310459e-10).transl(4.970422125152314e-08, 3.591331450729002e-08, 0))
hIsland = hIsland.add(rect(3.3930722018151354e-09, 2.265614458417505e-09).transl(-3.435634708368131e-08, 3.895419084760999e-08, 0))
hIsland = hIsland.sub(rect(7.185126926849945e-09, -3.0352148845088024e-09).transl(6.678406312835796e-09, 4e-08, 0))
hIsland = hIsland.sub(rect(7.877648765031123e-09, -5.645551154652407e-10).transl(1.6035217606260064e-08, 4e-08, 0))
hIsland = hIsland.sub(rect(2.271694231567314e-09, -8.592657117547993e-10).transl(1.472282057615385e-08, 4e-08, 0))
hIsland = hIsland.sub(rect(8.46118962405785e-09, -1.8430136310970986e-09).transl(9.422863107153702e-09, 4e-08, 0))
hIsland = hIsland.sub(rect(6.605504063649327e-09, -6.405695552324269e-10).transl(3.376340892737157e-08, 3.902956674028948e-08, 0))
hIsland = hIsland.add(rect(8.445955261107275e-09, 2.924878263590494e-09).transl(-6.528720033649572e-08, 3.016375412754029e-08, 0))
hIsland = hIsland.add(rect(4.016808139256067e-09, 6.986962476872234e-11).transl(3.15197412210316e-08, 3.928848902085801e-08, 0))
hIsland = hIsland.add(rect(2.3702143106187743e-09, 2.609265412736172e-09).transl(4.19349907586944e-08, 3.772511123522701e-08, 0))
hIsland = hIsland.add(rect(3.9821429302320904e-09, 1.7830188764098931e-09).transl(-5.2939096855936547e-08, 3.497468004288689e-08, 0))
hIsland = hIsland.sub(rect(2.1031571758231985e-09, -1.7198673682031179e-09).transl(2.893340270153692e-08, 3.953612469599377e-08, 0))
hIsland = hIsland.sub(rect(7.386157365940431e-09, -1.647076172050907e-10).transl(1.728457120286233e-08, 4e-08, 0))
hIsland = hIsland.sub(rect(3.1913969959170727e-09, -3.178644579662407e-09).transl(5.043505714588378e-08, 3.5711321422768214e-08, 0))
hIsland = hIsland.add(rect(2.610466399564188e-09, 1.7351845512863624e-09).transl(-5.7431003741359794e-08, 3.346822679680671e-08, 0))
hIsland = hIsland.sub(rect(5.347279444921514e-09, -2.8290554687589595e-09).transl(8.316445130952353e-08, 1.701120079017601e-08, 0))
hIsland = hIsland.add(rect(2.835025337390441e-09, 8.323537066885746e-10).transl(1.1431210765862692e-08, 4e-08, 0))
hIsland = hIsland.sub(rect(8.666286392738471e-09, -1.7992922194388573e-09).transl(6.989366301159802e-08, 2.772799839200011e-08, 0))
hIsland = hIsland.add(rect(3.998622496549401e-09, 1.4776276095907593e-09).transl(-7.980137741444322e-08, 2.0522418859052746e-08, 0))
hIsland = hIsland.sub(rect(9.479303792145754e-09, -2.50558162230405e-09).transl(-6.671246028887528e-08, 2.9455428834783116e-08, 0))
hIsland = hIsland.add(rect(3.5965834924255753e-09, 3.023177832024022e-09).transl(-4.678089039498466e-08, 3.6665237127317645e-08, 0))
hIsland = hIsland.sub(rect(9.188229570198499e-09, -1.1571592924862755e-09).transl(7.932634396315299e-08, 2.0957625797003768e-08, 0))
hIsland = hIsland.add(rect(6.129972974506598e-09, 4.626897829725298e-09).transl(-8.643041668725258e-08, 1.2438466719164405e-08, 0))
hIsland = hIsland.sub(rect(9.51881808571229e-09, -1.8016154554908342e-09).transl(-1.7826188375936447e-08, 4e-08, 0))
hIsland = hIsland.sub(rect(3.093057389980696e-09, -1.723447297269123e-09).transl(-2.3307718876686507e-10, 4e-08, 0))
hIsland = hIsland.sub(rect(4.194163857467522e-09, -3.191003929577324e-09).transl(7.053800704157062e-08, 2.735093051489887e-08, 0))
hIsland = hIsland.add(rect(2.5522528175566655e-09, 2.7879679205710082e-09).transl(-2.3964350050271817e-08, 3.986252041054115e-08, 0))
hIsland = hIsland.add(rect(4.408788716075562e-09, 5.987258499084437e-10).transl(-1.8086071140242835e-08, 3.999997141881239e-08, 0))
hIsland = hIsland.add(rect(3.5242731026658927e-09, 5.426332442688859e-10).transl(8.90541432667751e-08, 6.462348802457929e-09, 0))
hIsland = hIsland.sub(rect(5.129248471094674e-09, -1.2603574877707583e-09).transl(6.787856650074813e-08, 2.8846810187130922e-08, 0))
hIsland = hIsland.sub(rect(5.073970135212168e-09, -4.277632268660581e-09).transl(5.710292764321631e-08, 3.3586818814300156e-08, 0))
hIsland = hIsland.sub(rect(6.282485077160302e-09, -3.010829774178686e-09).transl(-6.990257019096211e-08, 2.7722852406399157e-08, 0))
hIsland = hIsland.sub(rect(4.8284838737223784e-09, -3.342234423345739e-09).transl(3.3817760341491386e-08, 3.9022779267803135e-08, 0))
hIsland = hIsland.add(rect(7.460093618870228e-09, 3.233256001201881e-09).transl(3.9314027694606744e-08, 3.8207168480299034e-08, 0))
hIsland = hIsland.add(rect(6.872377327632425e-09, 2.0401136597718943e-09).transl(-5.142589447098274e-08, 3.5428198901608764e-08, 0))
hIsland = hIsland.add(rect(3.8499637756890135e-09, 3.259077694948527e-10).transl(8.35048818659514e-09, 4e-08, 0))
hIsland = hIsland.sub(rect(3.737244357402318e-09, -1.5492689539511809e-09).transl(-5.4809010519178324e-08, 3.4377608743205686e-08, 0))
hIsland = hIsland.sub(rect(4.866507254628115e-09, -2.755211974847956e-09).transl(-1.194955729012663e-08, 4e-08, 0))
hIsland = hIsland.sub(rect(7.163822077285234e-09, -2.723217773004837e-09).transl(4.25242738994766e-08, 3.760811570914479e-08, 0))
hIsland = hIsland.add(rect(5.9135172506385926e-09, 2.6094565108725636e-09).transl(-5.4217282557484567e-08, 3.4571041743158374e-08, 0))
hIsland = hIsland.sub(rect(7.525460132119086e-09, -9.823599936393609e-10).transl(3.1135392577376316e-08, 3.9328709167284895e-08, 0))
hIsland = hIsland.sub(rect(3.897037316265001e-09, -5.788983079962793e-10).transl(6.273482729805416e-08, 3.1342370774158675e-08, 0))
hIsland = hIsland.add(rect(7.4163069052813764e-09, 3.288750040043268e-09).transl(-6.988369972987009e-08, 2.773375234693189e-08, 0))
hIsland = hIsland.add(rect(5.558997476571343e-09, 1.0940202404861148e-10).transl(8.544952400405687e-08, 1.3994726868772044e-08, 0))
hIsland = hIsland.sub(rect(5.0958415905113175e-09, -3.3815374213736347e-09).transl(8.383721807995312e-08, 1.6191949641002407e-08, 0))
hIsland = hIsland.add(rect(9.932597196430255e-09, 1.0786459834292192e-09).transl(6.826168651059096e-08, 2.8640830676228774e-08, 0))
hIsland = hIsland.sub(rect(5.1940998894093755e-09, -9.292331078418e-10).transl(2.3746584824309734e-09, 4e-08, 0))
hIsland = hIsland.add(rect(7.964096287248904e-09, 4.592587441374831e-09).transl(-6.243758608546824e-08, 3.1472606857003346e-08, 0))
hIsland = hIsland.add(rect(4.976896644559669e-09, 1.8724231421778352e-10).transl(-4.873906064671057e-08, 3.617136063820505e-08, 0))
hIsland = hIsland.sub(rect(6.835780592238563e-09, -8.93797598729102e-10).transl(-2.4152781786560728e-08, 3.985368020665715e-08, 0))
hIsland = hIsland.add(rect(8.29489246299976e-09, 2.922110902945317e-10).transl(7.535585785069699e-08, 2.4179789350363993e-08, 0))
hIsland = hIsland.add(rect(6.143738470437096e-09, 8.964005145598801e-11).transl(8.927009268445908e-09, 4e-08, 0))
hIsland = hIsland.sub(rect(2.2744906719761808e-09, -3.902029013653105e-09).transl(8.589254369583245e-09, 4e-08, 0))
hIsland = hIsland.add(rect(2.7741518844929445e-09, 2.808716350128927e-10).transl(3.583021733674895e-08, 3.875406529740333e-08, 0))
hIsland = hIsland.add(rect(6.205386258912449e-09, 3.2211523811650264e-09).transl(3.339667748740074e-08, 3.9074723928745883e-08, 0))
hIsland = hIsland.sub(rect(5.308515921138989e-09, -3.3505836159989355e-09).transl(5.124835076928703e-08, 3.5479724566077276e-08, 0))
hIsland = hIsland.add(rect(7.394621774936576e-09, 8.779372627980149e-11).transl(-6.943829089663478e-08, 2.79886563752041e-08, 0))
hIsland = hIsland.sub(rect(6.4073666983843154e-09, -3.078114317983751e-10).transl(-1.4168808006307038e-08, 4e-08, 0))
hIsland = hIsland.add(rect(9.001603477172756e-09, 1.181742390183784e-09).transl(-5.6283740961739426e-08, 3.3876842931848694e-08, 0))
hIsland = hIsland.add(rect(8.431421716343092e-09, 9.681854656150362e-10).transl(-4.5056389250316995e-08, 3.706830448992533e-08, 0))
hIsland = hIsland.sub(rect(5.254628653758204e-09, -3.9923550026314396e-10).transl(-1.4093628478299846e-08, 4e-08, 0))
hIsland = hIsland.sub(rect(7.715239549269721e-09, -2.910568374138167e-09).transl(3.906739640670167e-09, 4e-08, 0))
hIsland = hIsland.sub(rect(9.042026774818163e-09, -7.569182621331119e-10).transl(6.207787926929551e-08, 3.162834210672744e-08, 0))
hIsland = hIsland.sub(rect(6.98259679753317e-09, -1.1240379675205144e-09).transl(2.9629852490882434e-08, 3.947474005199954e-08, 0))
hIsland = hIsland.sub(rect(9.773709264380134e-09, -7.021799229129253e-10).transl(-1.1379903812341554e-08, 4e-08, 0))
hIsland = hIsland.add(rect(9.203963247500558e-09, 6.213556971961383e-11).transl(1.2819048624820278e-08, 4e-08, 0))
hIsland = hIsland.add(rect(8.258846690546029e-09, 8.059739870201238e-10).transl(1.9481497070414342e-08, 3.999153138142613e-08, 0))
hIsland = hIsland.sub(rect(6.824281457018662e-09, -6.733435589360097e-10).transl(5.959710720466189e-08, 3.264890235144636e-08, 0))
hIsland = hIsland.sub(rect(5.421406484804391e-09, -5.887659152401421e-10).transl(3.04727174831488e-08, 3.939524051039776e-08, 0))
hIsland = hIsland.sub(rect(8.399651998556423e-09, -6.804682356342725e-10).transl(-8.34423745478894e-08, 1.667865877395643e-08, 0))
hIsland = hIsland.sub(rect(3.9843142694166136e-09, -5.407261442720631e-09).transl(6.252203252941687e-08, 3.1435749776769096e-08, 0))
hIsland = hIsland.add(rect(5.693741463960153e-09, 2.770703430093392e-09).transl(6.999833310072099e-08, 2.7667410491710465e-08, 0))
hIsland = hIsland.sub(rect(4.904858872662044e-09, -2.0264192544017434e-10).transl(-1.799796523949595e-08, 4e-08, 0))
hIsland = hIsland.add(rect(6.3827822593958015e-09, 8.518626415719228e-10).transl(5.758573286484166e-08, 3.3411804640999745e-08, 0))
vIsland = hIsland.rotz(pi / 2)
hIslands = hIslands.add(hIsland.transl(-a/2, a, 0))
hIsland = rect(islandLength-2*ellipseConstant, islandWidth)
hIsland = hIsland.add(ellipse(ellipseConstant*2, islandWidth).transl(islandLength/2-ellipseConstant, 0, 0))
hIsland = hIsland.add(ellipse(ellipseConstant*2, islandWidth).transl(-islandLength/2+ellipseConstant, 0, 0))
hIsland = hIsland.add(rect(4.135945707383396e-09, 7.247456058152495e-10).transl(1.6576024039180392e-08, -4e-08, 0))
hIsland = hIsland.sub(rect(7.876060332444938e-09, -2.794521622314106e-09).transl(-8.631444592991052e-08, -1.2633686075517816e-08, 0))
hIsland = hIsland.add(rect(7.034559467397689e-09, 5.73790260279074e-10).transl(2.5787765223809213e-08, -3.976532514897045e-08, 0))
hIsland = hIsland.sub(rect(2.9159049683176187e-09, -5.125244225807041e-10).transl(-6.390446428964283e-08, -3.081596186462878e-08, 0))
hIsland = hIsland.add(rect(4.597777333430871e-09, 1.228144879424832e-09).transl(-2.7416468457534974e-08, -3.965643395009628e-08, 0))
hIsland = hIsland.add(rect(8.30954551446177e-09, 2.160861286107109e-09).transl(-7.371190249513505e-08, -2.5338351844369506e-08, 0))
hIsland = hIsland.sub(rect(6.773365655143966e-09, -2.7008153478770872e-09).transl(3.7865698403606983e-08, -3.844731053436914e-08, 0))
hIsland = hIsland.add(rect(5.284020788379317e-09, 1.040796269576671e-09).transl(-4.184748550206982e-08, -3.774221134281688e-08, 0))
hIsland = hIsland.add(rect(9.716416933431533e-09, 3.899097626146751e-09).transl(-2.0805494484498914e-08, -3.996962272721625e-08, 0))
hIsland = hIsland.add(rect(8.512281597209381e-09, 3.6713583971843177e-10).transl(1.8277136267381053e-08, -3.999970368520379e-08, 0))
hIsland = hIsland.add(rect(4.257912719546452e-09, 3.9260336643245557e-10).transl(1.86235706132343e-08, -3.999849981635234e-08, 0))
hIsland = hIsland.sub(rect(2.100633165695288e-09, -1.2537125011532355e-09).transl(2.6893213614826772e-08, -3.969369897286565e-08, 0))
hIsland = hIsland.add(rect(2.3202215772775762e-09, 2.7091402011502547e-09).transl(-1.7937145640807616e-08, -4e-08, 0))
hIsland = hIsland.add(rect(5.0904014310935324e-09, 5.768005195411432e-10).transl(6.80842284898477e-08, -2.873661823072605e-08, 0))
hIsland = hIsland.sub(rect(3.4666700344568916e-09, -1.567808137163756e-09).transl(-7.335041538801657e-08, -2.558169868329399e-08, 0))
hIsland = hIsland.add(rect(9.536894247686242e-09, 2.5957090116993407e-09).transl(-2.236500135890339e-08, -3.992642447475744e-08, 0))
hIsland = hIsland.add(rect(4.138036709491784e-09, 4.2589640517461125e-09).transl(1.6962410930068045e-08, -4e-08, 0))
hIsland = hIsland.sub(rect(9.186156051408766e-09, -1.0493977660395826e-09).transl(4.1068752630234556e-08, -3.7891302676798636e-08, 0))
hIsland = hIsland.sub(rect(7.941447502637401e-09, -2.2349113045400777e-09).transl(-4.722754977406898e-09, -4e-08, 0))
hIsland = hIsland.add(rect(6.331997834255666e-09, 6.579122177422463e-10).transl(-9.110454143045057e-09, -4e-08, 0))
hIsland = hIsland.sub(rect(7.3755572834403335e-09, -1.8572299164823241e-09).transl(5.5621820192952625e-08, -3.410495169403124e-08, 0))
hIsland = hIsland.add(rect(7.127208214109333e-09, 4.613045717680625e-10).transl(-4.811008742967477e-09, -4e-08, 0))
hIsland = hIsland.add(rect(3.808872117848235e-09, 1.833083711827423e-09).transl(2.181882329661819e-08, -3.9943697213800575e-08, 0))
hIsland = hIsland.sub(rect(9.098000852205815e-09, -3.902420455740084e-09).transl(-4.170712821107583e-08, -3.776949284963195e-08, 0))
hIsland = hIsland.sub(rect(3.6045654550879576e-09, -2.630208344114365e-09).transl(5.137790500681292e-08, -3.54421605732154e-08, 0))
hIsland = hIsland.add(rect(7.890681032427816e-09, 2.4795487416624316e-10).transl(5.757478955800332e-09, -4e-08, 0))
hIsland = hIsland.add(rect(3.2877537101183027e-09, 3.2457910896656378e-09).transl(-1.2547356635763548e-08, -4e-08, 0))
hIsland = hIsland.sub(rect(9.076010296335846e-09, -1.8587241044314109e-09).transl(5.16847072404802e-09, -4e-08, 0))
hIsland = hIsland.sub(rect(8.462393309775855e-09, -3.4737866515232626e-09).transl(-8.940495971523472e-08, -5.131954121648003e-09, 0))
hIsland = hIsland.sub(rect(9.273236898533592e-09, -3.439574448544819e-10).transl(-3.796266913153888e-08, -3.843180524870373e-08, 0))
hIsland = hIsland.add(rect(4.681284478678068e-09, 1.2347166195876528e-09).transl(8.102300665411772e-08, -1.934179757463666e-08, 0))
hIsland = hIsland.sub(rect(7.293656158616461e-09, -1.3381363898992148e-09).transl(-8.733161822933046e-08, -1.0788750338141921e-08, 0))
hIsland = hIsland.add(rect(2.0608428363326364e-09, 4.1391760150647866e-10).transl(-3.7728704863346575e-08, -3.8469076102467795e-08, 0))
hIsland = hIsland.sub(rect(7.210956695824651e-09, -1.3898661507518124e-09).transl(4.223603871158906e-08, -3.766574248116606e-08, 0))
hIsland = hIsland.sub(rect(7.946391505669548e-09, -2.6819586418765025e-09).transl(2.327648718954642e-08, -3.9892442904727716e-08, 0))
hIsland = hIsland.add(rect(3.837214076264105e-09, 2.6001367581643685e-09).transl(3.50580645570488e-08, -3.8861190269030476e-08, 0))
hIsland = hIsland.sub(rect(7.47778881564629e-09, -8.980799248937152e-10).transl(-8.47919837375245e-08, -1.4936397135341885e-08, 0))
hIsland = hIsland.sub(rect(2.932005751080454e-09, -2.8276267368089883e-09).transl(-4.253676965639499e-08, -3.7605600018148956e-08, 0))
hIsland = hIsland.sub(rect(2.113983208811768e-09, -2.2977424598559e-09).transl(7.033049406310069e-08, -2.747344054770587e-08, 0))
hIsland = hIsland.sub(rect(8.902786785703616e-09, -1.552411504084796e-13).transl(-7.346178509424296e-08, -2.550714251313126e-08, 0))
hIsland = hIsland.add(rect(8.477658943444759e-09, 1.0949530686303612e-09).transl(7.65587251038627e-08, -2.327290929074001e-08, 0))
hIsland = hIsland.sub(rect(4.4194676199621015e-09, -1.569499341253072e-09).transl(1.0912665070580148e-08, -4e-08, 0))
hIsland = hIsland.add(rect(8.068767978546377e-09, 4.253593442135165e-10).transl(-2.0458812200412142e-08, -3.997666851405254e-08, 0))
hIsland = hIsland.add(rect(9.109412802196246e-09, 4.336836470902031e-09).transl(-4.833955362878935e-08, -3.627531676868531e-08, 0))
hIsland = hIsland.add(rect(2.6452048682056714e-09, 3.372011108008843e-09).transl(-3.8448392842098e-08, -3.835290655754932e-08, 0))
hIsland = hIsland.add(rect(4.818174577388527e-09, 2.6147357839081677e-09).transl(6.922155724237836e-08, -2.8111067598043606e-08, 0))
hIsland = hIsland.sub(rect(4.751293093589486e-09, -2.4498142813953274e-09).transl(-3.8644146162412544e-08, -3.832052615856714e-08, 0))
hIsland = hIsland.add(rect(6.609128701915254e-09, 1.995489744923543e-09).transl(-6.202156512486667e-08, -3.1652539753174193e-08, 0))
hIsland = hIsland.sub(rect(8.512717866336126e-09, -2.7899643180454967e-09).transl(-5.8763132325880737e-08, -3.2971962663879324e-08, 0))
hIsland = hIsland.add(rect(6.876006397082381e-09, 2.623917723859358e-10).transl(-8.405029758030804e-08, -1.59218596294369e-08, 0))
hIsland = hIsland.add(rect(2.2652003631264374e-09, 1.1244383316172172e-09).transl(-2.0482950496139665e-09, -4e-08, 0))
hIsland = hIsland.sub(rect(6.44599089564255e-09, -6.78095229823034e-10).transl(5.651884266294856e-09, -4e-08, 0))
hIsland = hIsland.sub(rect(9.719268559397415e-09, -9.088500651223102e-10).transl(-6.965342105097345e-08, -2.7866104536079234e-08, 0))
hIsland = hIsland.add(rect(6.33334593854776e-09, 2.994150701570844e-10).transl(-2.5433296017449503e-08, -3.9786258059093015e-08, 0))
hIsland = hIsland.sub(rect(3.4214359940004723e-09, -3.7597773738394964e-10).transl(2.3217366015825626e-08, -3.9894842838906146e-08, 0))
hIsland = hIsland.add(rect(9.511997578087926e-09, 8.281353844028337e-10).transl(3.906983867196766e-08, -3.824894857885694e-08, 0))
hIsland = hIsland.sub(rect(6.6819679709643595e-09, -3.737079207278499e-10).transl(2.9776483627004936e-08, -3.946132046412658e-08, 0))
hIsland = hIsland.sub(rect(3.799451916835504e-09, -3.831133048433882e-11).transl(2.530936501494213e-08, -3.979334418832936e-08, 0))
hIsland = hIsland.sub(rect(7.65490092816008e-09, -1.4973117836933721e-09).transl(-5.464819720629718e-08, -3.443059596845978e-08, 0))
hIsland = hIsland.add(rect(2.191271005790866e-09, 1.041305252986757e-09).transl(-1.2511978370075206e-09, -4e-08, 0))
hIsland = hIsland.add(rect(5.547374301190258e-09, 2.855565914488684e-09).transl(-6.809852247812422e-08, -2.8728927035548214e-08, 0))
hIsland = hIsland.sub(rect(6.770502619330812e-09, -1.5647370590448635e-09).transl(-2.8549797601954928e-08, -3.956827889378815e-08, 0))
hIsland = hIsland.sub(rect(9.612603797405003e-09, -5.569192775211434e-10).transl(-8.176621896167338e-08, -1.857475154222886e-08, 0))
hIsland = hIsland.add(rect(2.8419947901325467e-09, 2.331637689661982e-09).transl(3.0897744653120174e-08, -3.935297760732505e-08, 0))
hIsland = hIsland.sub(rect(2.299488982708077e-09, -2.9818307505427604e-09).transl(3.04676046304597e-08, -3.9395740019978954e-08, 0))
hIsland = hIsland.add(rect(5.141687367080219e-09, 1.528428533616164e-09).transl(-1.5152040384106918e-08, -4e-08, 0))
hIsland = hIsland.sub(rect(6.481185948552644e-09, -3.822118265066467e-10).transl(8.92368986244298e-08, -5.8082602517511265e-09, 0))
hIsland = hIsland.add(rect(6.241288947636497e-09, 1.2298901732074095e-09).transl(-8.028020004187485e-08, -2.007068283564128e-08, 0))
hIsland = hIsland.sub(rect(8.347281999261274e-09, -8.101751333857112e-10).transl(6.349434139754011e-08, -3.100311066036019e-08, 0))
hIsland = hIsland.sub(rect(5.199037382672349e-09, -9.694994248154625e-10).transl(-3.9895890887033416e-08, -3.810548210075021e-08, 0))
hIsland = hIsland.add(rect(5.666918092974049e-09, 1.098042844999629e-09).transl(7.054142156126239e-08, -2.7348906021870806e-08, 0))
hIsland = hIsland.sub(rect(2.122466802209714e-09, -5.209400325685484e-09).transl(-2.573912805757842e-08, -3.976825575396122e-08, 0))
hIsland = hIsland.sub(rect(2.554748460773932e-09, -9.231511205809333e-10).transl(-8.591657390793991e-09, -4e-08, 0))
hIsland = hIsland.sub(rect(2.0642728999274116e-09, -4.484346667826553e-09).transl(-2.3018028758270787e-08, -3.990273431710967e-08, 0))
hIsland = hIsland.sub(rect(6.255088361654222e-09, -1.2237882930556697e-09).transl(-2.9305475311362984e-08, -3.9503813802383476e-08, 0))
hIsland = hIsland.sub(rect(3.38158850345699e-09, -6.699656081613297e-10).transl(2.638825157072812e-08, -3.9727611272302056e-08, 0))
hIsland = hIsland.sub(rect(3.2673153288796045e-09, -7.55383014931938e-10).transl(4.9721200965892644e-08, -3.590868652981817e-08, 0))
hIsland = hIsland.sub(rect(5.57737767871434e-09, -3.176678918306789e-10).transl(4.118181174535676e-08, -3.787000019642751e-08, 0))
hIsland = hIsland.add(rect(4.713590460819691e-09, 8.263799142348343e-10).transl(-8.93457919861046e-08, -5.379945783020428e-09, 0))
hIsland = hIsland.add(rect(7.3885053268226444e-09, 3.588786492713133e-10).transl(6.103371268512543e-08, -3.206907847120024e-08, 0))
hIsland = hIsland.add(rect(6.241076222502655e-09, 1.2096752525655206e-09).transl(8.085597896426593e-09, -4e-08, 0))
hIsland = hIsland.add(rect(3.0984078282334366e-09, 1.4874848758250875e-09).transl(2.0971549875145735e-08, -3.996591870357593e-08, 0))
hIsland = hIsland.add(rect(7.1243698904803285e-09, 2.114781322024856e-09).transl(7.434577546002545e-08, -2.4901990523643445e-08, 0))
hIsland = hIsland.add(rect(6.724535059644332e-09, 2.1027595277335335e-09).transl(1.8691997177219603e-08, -3.999815250327087e-08, 0))
hIsland = hIsland.add(rect(9.414228673073532e-09, 2.2089664007008893e-10).transl(-2.730221610638046e-08, -3.9664755538734775e-08, 0))
hIsland = hIsland.add(rect(9.230853152180182e-09, 1.3015207317954123e-09).transl(-2.6898373943967567e-08, -3.96933420310073e-08, 0))
hIsland = hIsland.sub(rect(9.1664990269149e-09, -2.190190884352853e-09).transl(6.740207611241789e-08, -2.909878277853292e-08, 0))
hIsland = hIsland.sub(rect(8.151357033961134e-09, -1.0590142547487496e-09).transl(8.595378799673106e-08, -1.3220386157479665e-08, 0))
hIsland = hIsland.sub(rect(6.536391473343658e-09, -1.8423647743766486e-09).transl(-8.120563982532337e-08, -1.9156978987067776e-08, 0))
hIsland = hIsland.sub(rect(5.149221969191164e-09, -2.5497908417641244e-10).transl(3.108679919791026e-08, -3.933370875038033e-08, 0))
hIsland = hIsland.add(rect(6.449809182661205e-09, 2.9500594425936017e-09).transl(-3.933118687097297e-08, -3.820421275763643e-08, 0))
hIsland = hIsland.add(rect(5.365024237048317e-09, 1.5240260366264174e-09).transl(6.495491039143884e-08, -3.032354537915567e-08, 0))
hIsland = hIsland.sub(rect(9.435937323058716e-09, -3.508172243406353e-09).transl(-5.951810734870196e-08, -3.2679923435269556e-08, 0))
hIsland = hIsland.sub(rect(6.115344788855939e-09, -9.0501554183414e-10).transl(-8.275593232459857e-08, -1.7486054662092378e-08, 0))
hIsland = hIsland.add(rect(8.918887728038049e-09, 8.366079472458796e-10).transl(6.279948655449074e-08, -3.131385330460146e-08, 0))
hIsland = hIsland.sub(rect(9.08900573023215e-09, -2.1502821256781136e-09).transl(8.477535484342848e-09, -4e-08, 0))
hIsland = hIsland.sub(rect(5.3137820650436985e-09, -1.441744166608888e-09).transl(2.6946600273972557e-08, -3.9689996032281443e-08, 0))
hIsland = hIsland.add(rect(3.544581652224693e-09, 7.083905986567836e-11).transl(-3.265836316171315e-08, -3.916226291010945e-08, 0))
hIsland = hIsland.sub(rect(6.920789255301219e-09, -4.2075659316088965e-09).transl(-5.320939246834355e-08, -3.489091767814207e-08, 0))
hIsland = hIsland.sub(rect(9.258522635083667e-09, -2.456528026358164e-09).transl(-3.34661700493078e-08, -3.906625262075927e-08, 0))
hIsland = hIsland.add(rect(4.5697460668804955e-09, 9.107146374965945e-10).transl(-4.416893188070254e-08, -3.7264432965851024e-08, 0))
hIsland = hIsland.add(rect(6.17729936589635e-09, 1.3155937697912923e-10).transl(-3.878694581791757e-08, -3.829669297025141e-08, 0))
hIsland = hIsland.sub(rect(8.827293838963894e-09, -1.0290868973459747e-09).transl(-8.066709147790361e-08, -1.969548771488483e-08, 0))
hIsland = hIsland.add(rect(9.308056960010764e-09, 1.1917456480520842e-09).transl(-8.058183436885578e-08, -1.977897941909123e-08, 0))
hIsland = hIsland.sub(rect(4.465388869406929e-09, -1.9823856005829316e-09).transl(-1.9544045202489616e-08, -3.9990801119775544e-08, 0))
hIsland = hIsland.add(rect(9.458851553759134e-09, 7.544063654914834e-10).transl(-4.8377388057497386e-08, -3.626554283561457e-08, 0))
hIsland = hIsland.sub(rect(8.207449452198347e-09, -8.977758423006303e-10).transl(-7.623162367878903e-08, -2.3524862102768843e-08, 0))
hIsland = hIsland.add(rect(4.264155156317228e-09, 5.560916241233922e-10).transl(-7.576404042110235e-08, -2.387800549390702e-08, 0))
hIsland = hIsland.sub(rect(4.4934981372306574e-09, -8.051359082931741e-10).transl(8.687752183924189e-08, -1.165193494879075e-08, 0))
hIsland = hIsland.sub(rect(5.979847862539519e-09, -2.5025717985708583e-09).transl(1.4870722893496144e-08, -4e-08, 0))
hIsland = hIsland.sub(rect(8.369057257725043e-09, -7.026151269939162e-10).transl(-6.979533978824437e-08, -2.7784681232274524e-08, 0))
hIsland = hIsland.add(rect(6.416965649792382e-09, 1.015439075953618e-09).transl(7.02477641411281e-08, -2.7521995368985278e-08, 0))
hIsland = hIsland.add(rect(4.377470287175276e-09, 5.227712906148347e-09).transl(1.851504193219967e-08, -3.9998976575673256e-08, 0))
hIsland = hIsland.sub(rect(6.474851978005268e-09, -4.00560836016843e-09).transl(8.707307313609766e-08, -1.1289000539902072e-08, 0))
hIsland = hIsland.add(rect(5.7820676575365966e-09, 4.980016921223703e-09).transl(4.515504731885131e-08, -3.704603161429813e-08, 0))
hIsland = hIsland.sub(rect(9.811020397678628e-09, -2.1075396987736703e-09).transl(-2.3759878980283277e-09, -4e-08, 0))
hIsland = hIsland.sub(rect(6.464537675355862e-09, -9.568623868364228e-10).transl(4.9048038732435116e-08, -3.608981975259017e-08, 0))
hIsland = hIsland.add(rect(3.848528089635175e-09, 1.5806942001646074e-09).transl(8.925377193015666e-08, -5.7440249611833625e-09, 0))
hIsland = hIsland.add(rect(9.487069061726388e-09, 6.257780557649784e-10).transl(1.6549278708025048e-08, -4e-08, 0))
hIsland = hIsland.add(rect(2.6449952934291084e-09, 8.651211444685256e-10).transl(7.536108889801505e-08, -2.4175959135760374e-08, 0))
hIsland = hIsland.add(rect(2.0895365103419546e-09, 1.349724533742256e-09).transl(-8.718844935478706e-08, -1.1068787111112579e-08, 0))
hIsland = hIsland.sub(rect(5.9501027604589345e-09, -2.266690147827837e-09).transl(-4.489240976468744e-08, -3.710511552137206e-08, 0))
hIsland = hIsland.add(rect(3.1828573149850082e-09, 1.5912689237731792e-09).transl(-7.100653978170969e-08, -2.7070476950663957e-08, 0))
hIsland = hIsland.add(rect(6.043006496910837e-09, 2.422628425851496e-10).transl(-3.333684623126647e-08, -3.9081985476555014e-08, 0))
hIsland = hIsland.add(rect(5.41546668604618e-09, 1.354187640316881e-09).transl(-2.4346934805657663e-08, -3.984428184640528e-08, 0))
hIsland = hIsland.add(rect(3.653707208714117e-09, 2.8127893752834963e-09).transl(-3.6865632526417334e-08, -3.860246869455702e-08, 0))
hIsland = hIsland.sub(rect(3.6586552761647183e-09, -9.281294894037616e-10).transl(-2.2125687983321976e-08, -3.993427740592557e-08, 0))
hIsland = hIsland.sub(rect(9.892068949624382e-09, -2.0017250698439503e-09).transl(-5.188129090688412e-08, -3.52944323175517e-08, 0))
hIsland = hIsland.sub(rect(9.065459744259332e-09, -2.4853862148962666e-09).transl(5.931383323738678e-08, -3.275972753109436e-08, 0))
hIsland = hIsland.add(rect(3.596265041693186e-09, 1.1134378783730271e-10).transl(-9.560122257251867e-09, -4e-08, 0))
hIsland = hIsland.sub(rect(2.186158692271933e-09, -1.1558841602318875e-09).transl(-2.06708107699703e-08, -3.997247034835741e-08, 0))
hIsland = hIsland.add(rect(2.2528964828662135e-09, 4.638358099144495e-10).transl(-7.475706094382167e-09, -4e-08, 0))
hIsland = hIsland.add(rect(3.2374236980362837e-09, 2.2513656075135104e-10).transl(3.562348067393263e-08, -3.878324113430096e-08, 0))
hIsland = hIsland.add(rect(3.6096908114086496e-09, 2.210556926484647e-09).transl(-1.8165700561026346e-08, -3.999989407132608e-08, 0))
hIsland = hIsland.sub(rect(7.74988047922864e-09, -1.158093824630168e-09).transl(-5.4004552600024523e-08, -3.4639555781124e-08, 0))
hIsland = hIsland.add(rect(9.404512673733714e-09, 1.3380379727876003e-10).transl(3.7991457063464926e-08, -3.8427186414094804e-08, 0))
hIsland = hIsland.sub(rect(2.046807363169582e-09, -1.891666568280039e-09).transl(2.1814550584148155e-08, -3.9943823221258694e-08, 0))
hIsland = hIsland.sub(rect(3.4503562676202384e-09, -3.244645842516319e-09).transl(-8.618482086728468e-08, -1.2847997914075674e-08, 0))
hIsland = hIsland.add(rect(8.711287587813204e-09, 1.9264634898605193e-10).transl(-6.002702353955066e-08, -3.2478527058325975e-08, 0))
hIsland = hIsland.sub(rect(4.395530272164603e-09, -1.3771757019665184e-09).transl(-7.710056469004973e-08, -2.2846260556034383e-08, 0))
hIsland = hIsland.sub(rect(9.260486955165222e-09, -2.673382192858622e-10).transl(-7.008229847791556e-08, -2.761862286181413e-08, 0))
hIsland = hIsland.sub(rect(5.6432010993429225e-09, -4.5585004975767505e-09).transl(4.056010821112162e-08, -3.79857084784775e-08, 0))
hIsland = hIsland.sub(rect(4.85622321919222e-09, -1.4380456574518955e-09).transl(7.637946230333982e-09, -4e-08, 0))
hIsland = hIsland.sub(rect(5.7472120274077196e-09, -2.8916732468327713e-09).transl(3.078903353629871e-08, -3.93639265095494e-08, 0))
hIsland = hIsland.add(rect(2.4974896827105956e-09, 3.3087789811808456e-09).transl(-6.949228463035895e-08, -2.7957996622944022e-08, 0))
hIsland = hIsland.add(rect(8.457937421088197e-09, 1.1957891244261232e-09).transl(-8.362783676051147e-08, -1.6452203895066272e-08, 0))
hIsland = hIsland.sub(rect(4.81861348665488e-09, -5.402206688633603e-10).transl(8.746816269024215e-08, -1.051416405690188e-08, 0))
hIsland = hIsland.add(rect(6.94926176182413e-09, 1.4896099309046987e-09).transl(1.358495634386512e-08, -4e-08, 0))
hIsland = hIsland.sub(rect(6.004098099953737e-09, -2.377144663998714e-09).transl(-3.019852793558263e-08, -3.942173022133174e-08, 0))
hIsland = hIsland.add(rect(6.781684283655251e-09, 3.3205016781363533e-09).transl(-3.1350239044872106e-08, -3.930637461826138e-08, 0))
hIsland = hIsland.sub(rect(8.9605972797637e-09, -1.6767290630288738e-09).transl(-1.3570703908506897e-08, -4e-08, 0))
hIsland = hIsland.add(rect(5.774869517042224e-09, 2.7596496542077627e-10).transl(8.298984660367866e-08, -1.7216126505727398e-08, 0))
hIsland = hIsland.add(rect(3.3760519629860585e-09, 1.2937574347799914e-09).transl(6.738162672206288e-08, -2.910949392392543e-08, 0))
hIsland = hIsland.sub(rect(6.986061602563812e-09, -2.9320848250057414e-09).transl(-5.1753992462596965e-08, -3.5332057947085654e-08, 0))
hIsland = hIsland.add(rect(2.2229115511916213e-09, 2.0615149901107594e-09).transl(4.468334024714041e-08, -3.7151671751991144e-08, 0))
hIsland = hIsland.sub(rect(9.835363293827147e-09, -3.95650420602349e-09).transl(6.060348672429022e-08, -3.224588651598237e-08, 0))
hIsland = hIsland.add(rect(9.952595191296819e-09, 2.6429378798785437e-10).transl(-3.943006136491723e-08, -3.818713049121458e-08, 0))
hIsland = hIsland.add(rect(9.547376332857517e-09, 5.051107702931657e-10).transl(-3.495266155474311e-08, -3.8875423328290675e-08, 0))
hIsland = hIsland.sub(rect(2.136703522073039e-09, -1.580040694623002e-09).transl(3.64864430845284e-08, -3.86590486671959e-08, 0))
hIsland = hIsland.sub(rect(3.6728182138108192e-09, -9.204909672526616e-10).transl(-7.498086528716401e-08, -2.4451899059817474e-08, 0))
hIsland = hIsland.sub(rect(2.332714094538403e-09, -1.4201285558535015e-09).transl(7.062419015767101e-08, -2.7299745681498024e-08, 0))
hIsland = hIsland.sub(rect(6.100274962724425e-09, -8.050463664799277e-10).transl(4.6734188817071056e-08, -3.667654072867973e-08, 0))
hIsland = hIsland.sub(rect(2.0710102322352553e-09, -5.43132766326053e-10).transl(-6.866642421242442e-08, -2.8419875769306146e-08, 0))
hIsland = hIsland.add(rect(5.027671042058555e-09, 2.121293660574784e-09).transl(5.887023573470947e-09, -4e-08, 0))
hIsland = hIsland.add(rect(3.0238441931637525e-09, 2.6594422409039332e-11).transl(8.845590454203955e-08, -8.23957469167526e-09, 0))
hIsland = hIsland.add(rect(3.858492575982877e-09, 6.516564971582201e-10).transl(-6.194895786394872e-08, -3.168366552845147e-08, 0))
hIsland = hIsland.sub(rect(3.5201887021941475e-09, -1.8554125630977049e-09).transl(-4.23823823699318e-08, -3.7636580207860654e-08, 0))
hIsland = hIsland.add(rect(2.9437445067413803e-09, 3.7804192289670885e-09).transl(3.087340697516487e-08, -3.9355437107120585e-08, 0))
hIsland = hIsland.add(rect(7.738419887252182e-09, 2.405259076924885e-09).transl(-1.7163705223407556e-08, -4e-08, 0))
hIsland = hIsland.sub(rect(4.891041161871275e-09, -1.0372098502541433e-10).transl(-2.2374879395919675e-08, -3.992609078525385e-08, 0))
hIsland = hIsland.add(rect(5.1745923444505875e-09, 8.00770926191874e-11).transl(-5.145552664748373e-08, -3.5419565183089235e-08, 0))
hIsland = hIsland.sub(rect(2.730101390640318e-09, -1.9986897634345805e-09).transl(2.74351216656273e-08, -3.9655065527134885e-08, 0))
hIsland = hIsland.add(rect(4.4998807623785955e-09, 1.4721380596722308e-09).transl(-6.770601428001801e-08, -2.893859049564942e-08, 0))
hIsland = hIsland.add(rect(8.472158329548368e-09, 6.142676999125532e-11).transl(8.599087146325492e-09, -4e-08, 0))
hIsland = hIsland.sub(rect(5.35185894772922e-09, -1.1949549985376576e-09).transl(4.176866611565458e-08, -3.77575538639741e-08, 0))
hIsland = hIsland.add(rect(2.6235131738200582e-09, 2.1074873511350122e-10).transl(3.15878150652367e-08, -3.928124014973968e-08, 0))
hIsland = hIsland.sub(rect(5.065228010536629e-09, -2.2027377767120756e-09).transl(-2.286013171808275e-08, -3.9908766015004734e-08, 0))
hIsland = hIsland.sub(rect(7.89573783718627e-09, -1.5798867593836167e-09).transl(-3.369118510028368e-08, -3.903854817834592e-08, 0))
hIsland = hIsland.sub(rect(3.9367594152358366e-09, -1.772394107696311e-09).transl(-4.736717041244256e-08, -3.652146883399061e-08, 0))
hIsland = hIsland.add(rect(4.058764269240312e-09, 3.195909011889107e-09).transl(7.13465522082256e-08, -2.686354043648056e-08, 0))
hIsland = hIsland.sub(rect(7.69708016902062e-09, -3.3312453181177558e-09).transl(3.063613904368944e-08, -3.937916346817509e-08, 0))
hIsland = hIsland.add(rect(4.740360224135644e-09, 7.46126885873529e-11).transl(-2.0789297352171187e-08, -3.996997260398516e-08, 0))
hIsland = hIsland.add(rect(9.417834284438508e-09, 4.1127995470592194e-10).transl(-8.241334749891416e-08, -1.787232380021673e-08, 0))
hIsland = hIsland.add(rect(6.872808308780505e-09, 4.4064900007568446e-10).transl(3.29721557282722e-08, -3.912560713388579e-08, 0))
hIsland = hIsland.sub(rect(8.805043262675226e-09, -1.119072359377443e-09).transl(-2.2646890318833593e-08, -3.99166044628168e-08, 0))
hIsland = hIsland.sub(rect(4.76317685451202e-09, -3.3991866220229243e-09).transl(-1.2966423653904787e-08, -4e-08, 0))
hIsland = hIsland.sub(rect(8.241401639716222e-09, -1.7170586381834491e-09).transl(5.0391102579887746e-08, -3.5723632569615394e-08, 0))
hIsland = hIsland.add(rect(4.554766914625788e-09, 1.856903888969709e-10).transl(5.597863672626252e-08, -3.398267147564749e-08, 0))
hIsland = hIsland.add(rect(7.36500415931423e-09, 3.0371118111380137e-09).transl(-5.319081841651232e-08, -3.489670073184454e-08, 0))
hIsland = hIsland.sub(rect(8.469578959299371e-09, -2.1758074960734007e-09).transl(2.4106514604570205e-08, -3.9855876463814195e-08, 0))
hIsland = hIsland.sub(rect(8.202057901737501e-09, -1.1702535026757207e-09).transl(7.0063571306560246e-09, -4e-08, 0))
hIsland = hIsland.add(rect(6.552995419432643e-09, 1.1529834964847732e-10).transl(2.516544203053157e-08, -3.980142236627646e-08, 0))
hIsland = hIsland.sub(rect(4.351280574866607e-09, -2.988737416490594e-11).transl(-2.9937120134758625e-08, -3.944642077556054e-08, 0))
hIsland = hIsland.add(rect(4.47155697808352e-09, 2.3399743032858532e-09).transl(-4.71572196758972e-08, -3.657335154792333e-08, 0))
hIsland = hIsland.add(rect(4.4865996576915154e-09, 1.9719165234070483e-09).transl(1.0663309745958415e-08, -4e-08, 0))
hIsland = hIsland.add(rect(6.6947199350395475e-09, 9.705094717694143e-10).transl(-7.19605323812025e-08, -2.6482354625747058e-08, 0))
hIsland = hIsland.add(rect(5.362179057245501e-09, 3.622511021912412e-10).transl(2.013357093891125e-08, -3.998243393245537e-08, 0))
hIsland = hIsland.add(rect(2.929828654576439e-09, 8.581895284932557e-10).transl(-8.177014657525381e-08, -1.8570589433416498e-08, 0))
hIsland = hIsland.add(rect(8.252473740313333e-09, 1.0927096611423573e-10).transl(-4.990747504418163e-08, -3.585771365395701e-08, 0))
hIsland = hIsland.add(rect(8.450031567434701e-09, 5.1811845228638556e-09).transl(8.664326808047984e-08, -1.2071056946769574e-08, 0))
hIsland = hIsland.sub(rect(5.749917658080417e-09, -1.1347376488976144e-09).transl(-2.7387962123944453e-08, 3.9658519888424364e-08, 0))
hIsland = hIsland.add(rect(8.942074090213198e-09, 1.4981829462152368e-09).transl(5.151635488623441e-09, 4e-08, 0))
hIsland = hIsland.sub(rect(7.190011241133392e-09, -4.653417632343741e-09).transl(5.8048175170152816e-08, 3.324127874828556e-08, 0))
hIsland = hIsland.add(rect(9.474129335727654e-09, 2.5354557909824307e-09).transl(7.0956417866117785e-09, 4e-08, 0))
[...]
hIsland = hIsland.sub(rect(3.869924075793639e-09, -2.442529490028366e-09).transl(6.973354766914018e-08, 2.7820190096873412e-08, 0))
hIsland = hIsland.add(rect(8.026516451092003e-09, 3.416828515729709e-09).transl(-4.108099455111165e-08, 3.788900167192221e-08, 0))
hIsland = hIsland.add(rect(3.6659583878091903e-09, 9.327959082638988e-10).transl(-3.0598902948553204e-08, 3.93828456596385e-08, 0))
hIsland = hIsland.add(rect(3.971275674772193e-09, 1.9585869756671946e-09).transl(4.9072172351401564e-08, 3.6083408627775336e-08, 0))
hIsland = hIsland.add(rect(4.3287874104379815e-09, 2.9596080498144713e-09).transl(-8.688434285486294e-08, 1.163948300596731e-08, 0))
hIsland = hIsland.add(rect(3.6201974005957996e-09, 3.3234727675427347e-09).transl(-1.994648785533189e-08, 3.998537998648113e-08, 0))
hIsland = hIsland.sub(rect(3.3127051448070734e-09, -2.328257349255944e-09).transl(-8.931149900742628e-08, 5.5184905039824216e-09, 0))
hIsland = hIsland.sub(rect(5.790475186209764e-09, -2.4725031756249123e-09).transl(-3.952124050861267e-08, 3.817130089514787e-08, 0))
hIsland = hIsland.add(rect(3.484086792011164e-09, 4.176961412423825e-09).transl(3.7867319545518755e-08, 3.8447051991195076e-08, 0))
hIsland = hIsland.add(rect(3.0271160013247407e-09, 2.165588323433576e-09).transl(-7.01546568393844e-09, 4e-08, 0))
hIsland = hIsland.add(rect(9.385130819528776e-09, 6.269571805793927e-10).transl(-8.771918951588856e-09, 4e-08, 0))
hIsland = hIsland.add(rect(7.447244290890506e-09, 2.959314501157558e-09).transl(-7.461661037429945e-08, 2.471166709584347e-08, 0))
hIsland = hIsland.sub(rect(4.829863562137835e-09, -3.2130866935675556e-09).transl(-7.808348019449247e-08, 2.2040754953615328e-08, 0))
hIsland = hIsland.sub(rect(4.127040465170045e-09, -9.961789882913189e-10).transl(-1.323276348793109e-08, 4e-08, 0))
hIsland = hIsland.add(rect(9.070933394928275e-09, 1.6050304354598814e-09).transl(2.0731031053937002e-08, 3.997121444711549e-08, 0))
hIsland = hIsland.sub(rect(2.2361093603096676e-09, -4.41775656959737e-09).transl(3.147539209666658e-08, 3.929319125450745e-08, 0))
hIsland = hIsland.sub(rect(8.696886195295996e-09, -1.2275105560370563e-09).transl(-3.101199219282349e-08, 3.9341367898690214e-08, 0))
hIsland = hIsland.add(rect(5.721717807631136e-09, 7.458755684152227e-10).transl(-4.9072870513557066e-08, 3.608322306906306e-08, 0))
hIsland = hIsland.add(rect(5.997106248344049e-09, 2.4686400094341443e-10).transl(6.949569326539925e-08, 2.7956058858280222e-08, 0))
hIsland = hIsland.add(rect(4.6914527000659734e-09, 2.238369943316848e-09).transl(-1.5084424344413093e-08, 4e-08, 0))
hIsland = hIsland.sub(rect(6.702018275325567e-09, -4.283257623183148e-10).transl(-4.627942532804166e-08, 3.678547294082488e-08, 0))
hIsland = hIsland.sub(rect(5.429130377286156e-09, -2.6391809020111398e-09).transl(5.131845608736525e-08, 3.54594207473696e-08, 0))
hIsland = hIsland.add(rect(4.2764668222302304e-09, 8.791467711321752e-10).transl(4.985729072870497e-08, 3.587148282507974e-08, 0))
hIsland = hIsland.add(rect(3.828434331842782e-09, 6.888466248975606e-09).transl(-3.329666987761155e-09, 4e-08, 0))
hIsland = hIsland.sub(rect(7.3406051452209574e-09, -1.005495473507755e-09).transl(-5.454654795207863e-08, 3.446392743246019e-08, 0))
hIsland = hIsland.add(rect(3.5457339447524617e-09, 3.059426361543797e-10).transl(-7.006445529554064e-08, 2.7629004345153697e-08, 0))
hIsland = hIsland.add(rect(9.34299399319362e-09, 2.4288983520188555e-09).transl(6.106867515227383e-08, 3.205458895436512e-08, 0))
hIsland = hIsland.add(rect(7.146021827433607e-09, 1.1006896313962985e-09).transl(-6.871624812193454e-08, 2.8392433875394227e-08, 0))
hIsland = hIsland.add(rect(7.693228347230406e-09, 6.91449154001473e-10).transl(4.2463877550056346e-08, 3.76202544901829e-08, 0))
hIsland = hIsland.add(rect(4.764325130181561e-09, 2.4354280022168907e-09).transl(-7.726844986228378e-08, 2.2711630585776996e-08, 0))
hIsland = hIsland.add(rect(5.559983131422442e-09, 1.408876218522513e-09).transl(-1.8380137215007605e-08, 3.999944249494883e-08, 0))
hIsland = hIsland.add(rect(5.2926162557222526e-09, 6.416115330727285e-09).transl(3.3668221129094295e-08, 3.904139480378804e-08, 0))
hIsland = hIsland.sub(rect(9.03891184141229e-09, -1.072244527244517e-09).transl(2.7625626416118268e-08, 3.964093203524145e-08, 0))
hIsland = hIsland.add(rect(5.909964133201174e-09, 2.2823338959597364e-10).transl(-4.8607511919943294e-08, 3.620577427376066e-08, 0))
hIsland = hIsland.sub(rect(6.686403228510871e-09, -1.358274957600261e-10).transl(-1.127500170268378e-08, 4e-08, 0))
hIsland = hIsland.add(rect(3.056140472767717e-09, 1.4305836816373228e-09).transl(3.522690457255909e-08, 3.883819616210192e-08, 0))
hIsland = hIsland.sub(rect(3.395902656504669e-09, -7.867572611793428e-10).transl(-8.914481820458614e-08, 6.1467356245727745e-09, 0))
hIsland = hIsland.add(rect(8.62659936786065e-09, 9.984261886132096e-10).transl(3.854482830324207e-09, 4e-08, 0))
hIsland = hIsland.add(rect(2.9500153627756402e-09, 1.888531503664019e-09).transl(3.029124573491464e-08, 3.9412840540493304e-08, 0))
hIsland = hIsland.add(rect(8.013154203427828e-09, 1.4370515846258782e-09).transl(6.407524994266821e-08, 3.0737194175428234e-08, 0))
hIsland = hIsland.sub(rect(6.7732719160307416e-09, -3.203073288912074e-10).transl(3.670582195503425e-08, 3.8626464673122743e-08, 0))
hIsland = hIsland.add(rect(5.178469997303428e-09, 1.6750228145372542e-09).transl(4.7682393009702325e-08, 3.6442731773856184e-08, 0))
hIsland = hIsland.sub(rect(2.684460930055863e-09, -6.853509772328222e-10).transl(-4.022720198997018e-08, 3.8046233617785274e-08, 0))
hIsland = hIsland.add(rect(2.438247539982553e-09, 2.816595686127536e-09).transl(2.5377170832813816e-08, 3.9789482102156906e-08, 0))
hIsland = hIsland.add(rect(3.7045178911101478e-09, 1.250163831389524e-09).transl(4.9967663350805296e-08, 3.584116408790033e-08, 0))
hIsland = hIsland.sub(rect(7.697800121473881e-09, -3.3149034583634615e-09).transl(4.224719892160022e-08, 3.766352553461245e-08, 0))
hIsland = hIsland.sub(rect(6.875729149237021e-09, -4.001399801327054e-10).transl(6.247432763900788e-08, 3.145658472480478e-08, 0))
hIsland = hIsland.add(rect(8.48869173832226e-09, 1.7432313490692887e-10).transl(1.836504645615845e-08, 3.999948588051101e-08, 0))
hIsland = hIsland.sub(rect(6.008112713683148e-09, -6.37840766398482e-10).transl(-6.650181655143416e-08, 2.9562518975073015e-08, 0))
hIsland = hIsland.add(rect(6.296204020743621e-09, 6.156961024561581e-10).transl(1.0169434542677376e-08, 4e-08, 0))
hIsland = hIsland.sub(rect(5.315245496299374e-09, -1.03444162451739e-09).transl(2.8634005661750084e-08, 3.9561321066965636e-08, 0))
hIsland = hIsland.add(rect(8.090450507760224e-09, 8.063159804629811e-10).transl(-2.1763457459711566e-09, 4e-08, 0))
hIsland = hIsland.sub(rect(6.983957307849915e-09, -1.2136690778568818e-09).transl(-6.673326919491238e-08, 2.9444803318442996e-08, 0))
hIsland = hIsland.add(rect(3.638247463891851e-09, 2.28125213598709e-09).transl(8.26337888260342e-08, 1.762498001042223e-08, 0))
hIsland = hIsland.add(rect(7.221046906329119e-09, 3.2317908110934764e-10).transl(8.282583477328736e-08, 1.7405930112174173e-08, 0))
hIsland = hIsland.sub(rect(4.829345252839587e-09, -1.4652722921439222e-09).transl(6.016051777546046e-08, 3.2425083363710016e-08, 0))
hIsland = hIsland.sub(rect(9.600628359655321e-09, -2.0699005459276267e-09).transl(2.6419461808656476e-08, 3.972557352938343e-08, 0))
hIsland = hIsland.sub(rect(9.925406024004705e-09, -2.2074214255101043e-09).transl(-4.7930997874157884e-08, 3.637991987116596e-08, 0))
hIsland = hIsland.sub(rect(4.207346826292731e-09, -2.4309968315575126e-09).transl(-2.102207049694244e-08, 3.996474947488064e-08, 0))
hIsland = hIsland.add(rect(8.605448583056678e-09, 1.808824014138163e-09).transl(7.115672935327497e-08, 2.69794281738373e-08, 0))
hIsland = hIsland.sub(rect(2.1037893368073883e-09, -1.8076850601538803e-10).transl(1.1876741366216529e-08, 4e-08, 0))
hIsland = hIsland.sub(rect(3.6378283543753817e-09, -1.0965951074999825e-09).transl(8.234217061344105e-08, 1.7951280781972737e-08, 0))
hIsland = hIsland.sub(rect(9.668236273960115e-09, -1.3575191015345017e-09).transl(5.658280281314228e-08, 3.377196279936452e-08, 0))
hIsland = hIsland.add(rect(8.47132051282297e-09, 1.0627900297838349e-09).transl(-8.612235312709457e-08, 1.2949867776952966e-08, 0))
hIsland = hIsland.add(rect(2.5175666677354747e-09, 8.982343301640695e-09).transl(5.201414117372941e-08, 3.525497163177537e-08, 0))
hIsland = hIsland.sub(rect(3.155002415783581e-09, -4.429959387452092e-10).transl(4.379342175878767e-08, 3.734515104778507e-08, 0))
hIsland = hIsland.add(rect(2.4609576014764283e-09, 1.794598481360552e-09).transl(3.184297229632376e-08, 3.9253733478183966e-08, 0))
hIsland = hIsland.add(rect(5.722165761624905e-09, 6.701280128775102e-10).transl(-3.044707839021047e-08, 3.9397743243744134e-08, 0))
hIsland = hIsland.sub(rect(6.835865273534379e-09, -5.3165560478748014e-09).transl(3.876280092219029e-10, 4e-08, 0))
hIsland = hIsland.add(rect(5.589681612754216e-09, 9.968138635652132e-10).transl(-4.5310464684110305e-09, 4e-08, 0))
hIsland = hIsland.sub(rect(7.763631703062985e-09, -1.380751581328523e-09).transl(9.200492515920702e-09, 4e-08, 0))
hIsland = hIsland.add(rect(4.568285706936889e-09, 1.2894613591464665e-09).transl(-1.681194377630237e-08, 4e-08, 0))
hIsland = hIsland.add(rect(9.475337400583606e-09, 4.129270872638247e-12).transl(3.135962256233333e-09, 4e-08, 0))
hIsland = hIsland.add(rect(2.137444942410876e-09, 2.278609516062177e-09).transl(-4.2669633437878635e-08, 3.7578761674979494e-08, 0))
hIsland = hIsland.add(rect(7.622021090039197e-09, 4.2673034667730815e-09).transl(7.097631774938799e-08, 2.708873027546695e-08, 0))
hIsland = hIsland.sub(rect(4.7439718788206164e-09, -1.928498029703095e-09).transl(-8.60303909084628e-08, 1.3098227106987301e-08, 0))
hIsland = hIsland.sub(rect(9.23818842776365e-09, -1.7805058559970288e-09).transl(7.281366727629248e-08, 2.593594840502024e-08, 0))
hIsland = hIsland.add(rect(3.3801084390268827e-09, 1.3788810864911644e-10).transl(-8.344164932858119e-08, 1.6679537004289788e-08, 0))
hIsland = hIsland.add(rect(6.382242741523766e-09, 1.7518955498064041e-09).transl(-7.944845971861759e-08, 2.0846934805994396e-08, 0))
hIsland = hIsland.add(rect(7.258692139599517e-09, 1.1736528721755668e-09).transl(-7.91389672905424e-08, 2.1125920818896688e-08, 0))
hIsland = hIsland.add(rect(7.772437757540416e-09, 4.918204115318702e-09).transl(-6.68964112513601e-08, 2.936120817148819e-08, 0))
hIsland = hIsland.add(rect(7.072081992274477e-09, 1.2071860322510937e-10).transl(8.482826052394365e-08, 1.4886231057797901e-08, 0))
hIsland = hIsland.add(rect(8.658851520259384e-09, 1.7245748428224507e-09).transl(6.610604150471569e-08, 2.976144229974898e-08, 0))
hIsland = hIsland.sub(rect(3.3410126029160216e-09, -1.338075752488206e-09).transl(-8.836301309219317e-08, 8.481031641982028e-09, 0))
hIsland = hIsland.sub(rect(2.183365027557436e-09, -4.680914665882403e-09).transl(-5.4839576319259354e-08, 3.436750195044779e-08, 0))
hIsland = hIsland.add(rect(5.849098365093773e-09, 3.6110230357877028e-09).transl(-6.96399291439851e-08, 2.7873821283854476e-08, 0))
hIsland = hIsland.add(rect(7.135222002480307e-09, 3.059004789645971e-09).transl(4.7612893238823666e-08, 3.646017848886828e-08, 0))
hIsland = hIsland.add(rect(8.891059812100737e-09, 3.1141234880186436e-09).transl(-1.285741631945675e-08, 4e-08, 0))
hIsland = hIsland.sub(rect(2.2093680732156544e-09, -4.764547276148882e-09).transl(-8.90765256633228e-08, 6.3859292572584105e-09, 0))
hIsland = hIsland.sub(rect(2.1097526791790253e-09, -2.483675354270741e-10).transl(-7.892036685588965e-08, 2.1319938663427033e-08, 0))
hIsland = hIsland.sub(rect(5.9655879329592245e-09, -3.102249608967628e-09).transl(6.565251910682686e-08, 2.998578584442754e-08, 0))
hIsland = hIsland.add(rect(7.820453678168008e-09, 2.380406436072577e-10).transl(3.408138969182105e-08, 3.898950834495631e-08, 0))
hIsland = hIsland.add(rect(2.721473285957909e-09, 7.846411501726686e-10).transl(-4.453339642245043e-09, 4e-08, 0))
hIsland = hIsland.add(rect(4.587431072791779e-09, 3.0893928328644684e-09).transl(6.043291732048655e-08, 3.231522749872047e-08, 0))
hIsland = hIsland.add(rect(6.038294991252439e-09, 9.030802390996419e-10).transl(3.603944716385135e-08, 3.8724168395308566e-08, 0))
hIsland = hIsland.add(rect(3.2965978244803607e-09, 4.22877032839781e-10).transl(-5.060642304427737e-08, 3.566312363960612e-08, 0))
hIsland = hIsland.add(rect(9.528919768188769e-09, 3.1178339932656036e-09).transl(3.79510324515012e-08, 3.843367023124621e-08, 0))
hIsland = hIsland.sub(rect(6.499794549167682e-09, -3.105147599497477e-09).transl(-6.769180406361465e-08, 2.8946121773234234e-08, 0))
hIsland = hIsland.sub(rect(6.456578145263959e-09, -6.180862813522429e-10).transl(7.968638383658281e-08, 2.0628923488888714e-08, 0))
hIsland = hIsland.add(rect(8.472794264032364e-09, 8.743143108382571e-10).transl(-8.598275510249062e-08, 1.3174341512285972e-08, 0))
hIsland = hIsland.add(rect(5.768737239325208e-09, 2.6277211144203017e-09).transl(2.838811908872499e-08, 3.958147941778783e-08, 0))
hIsland = hIsland.add(rect(3.076184396573141e-09, 9.121769077273284e-10).transl(6.39638668452029e-08, 3.078862095715479e-08, 0))
hIsland = hIsland.sub(rect(2.9572706567636696e-09, -6.849183194078352e-10).transl(1.1813392145747325e-08, 4e-08, 0))
hIsland = hIsland.add(rect(8.882878437244567e-09, 7.689629983239914e-10).transl(5.397340442858497e-08, 3.464954248454237e-08, 0))
hIsland = hIsland.add(rect(2.145835545610691e-09, 3.165694251424769e-09).transl(-4.166650012498417e-08, 3.777735609174016e-08, 0))
hIsland = hIsland.add(rect(6.905162535877431e-09, 2.4211526268121208e-09).transl(-8.858020214495024e-08, 7.90442650596868e-09, 0))
hIsland = hIsland.add(rect(4.687723340903263e-09, 3.0402657912953685e-09).transl(-6.385249418774313e-08, 3.083983303246074e-08, 0))
hIsland = hIsland.sub(rect(2.861578467677733e-09, -2.0827850357260577e-10).transl(1.2115020589287961e-08, 4e-08, 0))
hIsland = hIsland.sub(rect(2.1834324808196827e-09, -2.5960290038940494e-09).transl(8.120238733561178e-08, 1.9160290687304468e-08, 0))
hIsland = hIsland.sub(rect(5.0463578401481135e-09, -2.5025266721939013e-09).transl(7.478684484870593e-09, 4e-08, 0))
hIsland = hIsland.add(rect(2.898393026560638e-09, 8.812153715639634e-10).transl(6.40134263760079e-08, 3.076576476919177e-08, 0))
hIsland = hIsland.sub(rect(7.279555080757781e-09, -2.315274012322212e-09).transl(4.045632563083233e-08, 3.800468391845096e-08, 0))
hIsland = hIsland.add(rect(4.504719410396378e-09, 9.644516507081555e-10).transl(-2.0974747182370796e-08, 3.996584529165929e-08, 0))
hIsland = hIsland.sub(rect(4.228950654768343e-09, -1.0918898363696885e-10).transl(-7.038755736223342e-08, 2.7439854731031176e-08, 0))
hIsland = hIsland.sub(rect(3.424113185614929e-09, -5.239014451064459e-10).transl(5.353025609777238e-09, 4e-08, 0))
hIsland = hIsland.add(rect(4.8442847626833365e-09, 3.245845506342136e-09).transl(-7.06435616993237e-08, 2.7288215991124096e-08, 0))
hIsland = hIsland.sub(rect(7.2379962267530365e-09, -3.93749204361755e-09).transl(5.5124340936278615e-09, 4e-08, 0))
hIsland = hIsland.add(rect(7.208253684134187e-09, 1.3359955639640983e-09).transl(-1.1364394053497167e-09, 4e-08, 0))
hIsland = hIsland.sub(rect(9.533267993147859e-09, -1.0073245611711366e-09).transl(8.562736193923043e-08, 1.3727281086616014e-08, 0))
hIsland = hIsland.add(rect(9.825925410303791e-09, 1.1873615137588426e-10).transl(-8.756553909656278e-08, 1.0313537941849165e-08, 0))
hIsland = hIsland.add(rect(7.168983086142895e-09, 1.676873002014447e-09).transl(2.962855685483048e-08, 3.947485785818698e-08, 0))
hIsland = hIsland.add(rect(6.809152071787175e-09, 2.856510799350534e-09).transl(7.528762183502756e-08, 2.4229664914700432e-08, 0))
hIsland = hIsland.sub(rect(7.956768025927166e-09, -6.732258655329956e-10).transl(7.696167857479147e-08, 2.2956752547869856e-08, 0))
hIsland = hIsland.sub(rect(8.121929012393161e-09, -8.18147026142359e-10).transl(-8.089194896281624e-08, 1.9473016750778138e-08, 0))
hIsland = hIsland.add(rect(7.293987065318524e-09, 1.4247062185474527e-09).transl(1.6512492038200624e-08, 4e-08, 0))
hIsland = hIsland.sub(rect(5.213553928444232e-09, -3.115798200672622e-09).transl(-7.07525049118302e-08, 2.7223204208633837e-08, 0))
hIsland = hIsland.sub(rect(8.338456594906205e-09, -1.846094351200172e-09).transl(-6.239548225965807e-08, 3.149094105939504e-08, 0))
hIsland = hIsland.sub(rect(7.063576363504434e-09, -7.280776863038594e-11).transl(-4.999993011925997e-08, 3.5832275920498554e-08, 0))
hIsland = hIsland.sub(rect(3.05196819041352e-09, -6.65294911230671e-10).transl(4.015051293589851e-08, 3.8060035327068656e-08, 0))
hIsland = hIsland.add(rect(8.955552522185964e-09, 3.5652930486969363e-10).transl(-3.010660539321383e-08, 3.9430475248843926e-08, 0))
hIsland = hIsland.sub(rect(3.3194844579913315e-09, -1.2867135659061195e-09).transl(2.92122540310692e-08, 3.951201317376863e-08, 0))
hIsland = hIsland.add(rect(3.791199902401494e-09, 1.3226496994335617e-09).transl(8.611815832650991e-08, 1.2956676459568675e-08, 0))
hIsland = hIsland.sub(rect(6.9976708016448546e-09, -1.1525118208244015e-09).transl(5.073825055735887e-08, 3.562582877720654e-08, 0))
hIsland = hIsland.sub(rect(3.6750693266608265e-09, -1.0662244225242656e-09).transl(5.3683918064605254e-08, 3.474180777206555e-08, 0))
hIsland = hIsland.sub(rect(9.574379246518176e-09, -6.606209089555932e-10).transl(-7.485697543843321e-08, 2.454074681665071e-08, 0))
hIsland = hIsland.sub(rect(9.981698234618582e-09, -2.1702283019167563e-09).transl(-4.610585798402734e-08, 3.6826506602915713e-08, 0))
hIsland = hIsland.sub(rect(3.5891611861804656e-09, -1.5865576982053955e-09).transl(-8.607980889265349e-09, 4e-08, 0))
hIsland = hIsland.sub(rect(6.354610309112697e-09, -1.8149983773424714e-09).transl(-2.092385849923587e-08, 3.996700433658843e-08, 0))
hIsland = hIsland.sub(rect(7.4348344088789205e-09, -2.6343307521371077e-09).transl(5.209780208502664e-08, 3.5230019698459055e-08, 0))
hIsland = hIsland.add(rect(2.637110343988015e-09, 3.6242630851144603e-09).transl(-2.7538065447625575e-08, 3.964746386856153e-08, 0))
hIsland = hIsland.sub(rect(7.736671506706757e-09, -5.183247147158909e-09).transl(-2.986870057892333e-08, 3.9452792334824325e-08, 0))
hIsland = hIsland.add(rect(8.179979504193618e-09, 2.4641325571042777e-09).transl(3.385824253890461e-09, 4e-08, 0))
hIsland = hIsland.sub(rect(4.9017032105790795e-09, -1.6582382856588621e-09).transl(-2.8219027942694084e-08, 3.9595062464606126e-08, 0))
hIsland = hIsland.add(rect(7.453044694433445e-09, 2.6881134063562117e-09).transl(3.7752377486170095e-08, 3.84653266329105e-08, 0))
hIsland = hIsland.sub(rect(9.88226476233204e-09, -3.8928973982806765e-10).transl(5.994144097925379e-08, 3.251265436729732e-08, 0))
hIsland = hIsland.sub(rect(7.573866010030522e-09, -5.705767100830243e-10).transl(4.7698081739437486e-08, 3.643878657385006e-08, 0))
hIsland = hIsland.add(rect(8.253796633756103e-09, 1.3660509060438259e-09).transl(-4.62987583709417e-08, 3.6780883867926315e-08, 0))
hIsland = hIsland.sub(rect(2.9279806124879733e-09, -2.066316950977989e-09).transl(-1.2339198176345489e-08, 4e-08, 0))
vIsland = hIsland.rotz(pi / 2)
vIslands = vIslands.add(vIsland.transl(0, -a/2, 0))
DefRegion(1, hIslands)
DefRegion(2, vIslands)
TableAdd(m_full.Region(1))
TableAdd(m_full.Region(2))
setgeom(hIslands.add(vIslands))
save(geom)
r2o2 := sqrt(2) / 2
m = RandomMagSeed(4)
B_ext = vector(Bmax*r2o2, Bmax*r2o2, 0)
relax()
minimize()
for B := Bmax; B >= -Bmax; B -= Bstep {
	B_ext = vector(B*r2o2, B*r2o2, 0)
	minimize()
	tablesave()
}
//********************************************************************//
//Please cite the following references, relevant for your simulation. //
//See bibtex file in output folder for justification.                 //
//********************************************************************//
//   * Vansteenkiste et al., AIP Adv. 4, 107133 (2014).
//   * Exl et al., J. Appl. Phys. 115, 17D118 (2014).
