# t (s)	mx ()	my ()	mz ()	B_extx (T)	B_exty (T)	B_extz (T)	m_fullx (A/m)	m_fully (A/m)	m_fullz (A/m)	m_full.region1x (A/m)	m_full.region1y (A/m)	m_full.region1z (A/m)	m_full.region2x (A/m)	m_full.region2y (A/m)	m_full.region2z (A/m)
0	0.6475644	0.6475612	-2.2588129e-10	0.07071067	0.07071067	0	157450.66	157449.89	-5.3890308e-05	645916.8	260670.33	-0.00019554202	260673.31	645915.25	-0.0001413778
0	0.6474669	0.64746463	-2.8366487e-10	0.07056918	0.07056919	0	157426.95	157426.39	-7.302296e-05	646003.9	260447.72	-0.00022032902	260449.8	646002.75	-0.0002001322
0	0.64736706	0.64736485	-2.6265268e-10	0.070427895	0.07042789	0	157402.66	157402.14	-6.377551e-05	646094.7	260217.14	-0.00021298473	260219.16	646093.56	-0.00018360752
0	0.64726555	0.64726335	-1.7335076e-10	0.070286386	0.070286386	0	157378	157377.45	-4.40051e-05	646186.3	259983.52	-4.957403e-05	259985.53	646185.2	-0.00019278789
0	0.64716494	0.6471628	-2.0311806e-10	0.07014502	0.07014502	0	157353.56	157353	-5.835459e-05	646277.3	259751.67	-0.00016983696	259753.69	646276.25	-0.00013219741
0	0.64706326	0.647061	-1.286998e-10	0.07000352	0.07000352	0	157328.8	157328.27	-2.997449e-05	646369	259517.42	-5.6918332e-05	259519.44	646367.94	-0.00015423032
0	0.646962	0.6469597	-1.4183243e-10	0.06986222	0.06986222	0	157304.19	157303.66	-3.1568878e-05	646460.4	259284.47	-0.00011291863	259286.48	646459.2	-7.160693e-05
0	0.64685965	0.6468574	-1.9086094e-10	0.069720745	0.069720745	0	157279.3	157278.75	-4.432398e-05	646552.1	259049.31	-0.00012668919	259051.33	646551	-0.00012668919
0	0.6467582	0.646756	-1.2782429e-10	0.06957926	0.06957926	0	157254.64	157254.11	-3.507653e-05	646643.4	258816.19	-6.793478e-05	258818.17	646642.25	-0.000121180965
0	0.64665556	0.6466533	1.0506106e-11	0.06943794	0.06943794	0	157229.67	157229.14	3.507653e-06	646735.2	258580.58	6.793478e-05	258582.62	646734.06	-6.242656e-05
0	0.6465534	0.6465511	-4.1674222e-10	0.0692964	0.0692964	0	157204.83	157204.28	-0.00010746173	646826.75	258345.94	-0.00029744417	258347.98	646825.6	-0.0003121328
0	0.6464506	0.64644825	-3.361954e-10	0.0691551	0.0691551	0	157179.83	157179.28	-7.780612e-05	646918.5	258110.2	-0.00018268949	258112.22	646917.44	-0.0002882638
0	0.6463477	0.64634544	-3.554566e-10	0.0690136	0.0690136	0	157154.84	157154.3	-8.896684e-05	647010.1	257874.67	-0.0002148208	257876.72	647009.1	-0.00029377203
0	0.6462445	0.6462424	-2.670302e-10	0.068872124	0.068872124	0	157129.75	157129.2	-6.983418e-05	647101.94	257638.45	-0.0001735091	257640.5	647100.8	-0.0002148208
0	0.64614123	0.646139	-1.6634669e-10	0.06873082	0.06873082	0	157104.62	157104.1	-3.762755e-05	647193.75	257401.95	-0.00013219741	257404	647192.7	-0.00010465629
0	0.6460372	0.64603496	-4.6752174e-10	0.06858932	0.06858932	0	157079.33	157078.8	-0.000109375	647285.9	257164.16	-0.00035987073	257166.2	647284.8	-0.00030111632
0	0.64593333	0.6459311	-3.1956074e-10	0.068447955	0.068447955	0	157054.1	157053.53	-7.653061e-05	647377.8	256926.89	-0.00022032902	256928.97	647376.6	-0.00022032902
0	0.64582926	0.6458269	-1.1031412e-10	0.06830648	0.06830648	0	157028.77	157028.19	-2.1683674e-05	647469.9	256688.86	-0.00020747649	256690.88	647468.8	4.222973e-05
0	0.645725	0.6457227	-9.9808016e-11	0.06816515	0.06816515	0	157003.42	157002.86	-2.2321428e-05	647561.9	256451	-8.9049645e-05	256453.06	647560.75	-5.1410105e-05
0	0.64561975	0.64561754	-2.9767303e-10	0.068023674	0.068023674	0	156977.83	156977.28	-7.7487246e-05	647654.6	256211	-0.00021298473	256213.08	647653.5	-0.00020564042
0	0.6455152	0.6455131	-2.6790573e-10	0.067882195	0.06788219	0	156952.44	156951.89	-6.760204e-05	647746.56	255972.83	-0.00013586956	255974.88	647745.3	-0.0002662309
0	0.64540994	0.6454076	-2.1012213e-11	0.06774088	0.06774088	0	156926.81	156926.27	-1.0204081e-05	647838.94	255732.88	2.1114865e-05	255734.94	647837.9	-7.160693e-05
0	0.64530486	0.6453026	-1.5934262e-10	0.067599334	0.067599334	0	156901.27	156900.7	-3.6670917e-05	647931	255493.66	-1.7442715e-05	255495.73	647929.9	-0.00020747649
0	0.64519876	0.64519656	-1.7860381e-10	0.06745803	0.06745803	0	156875.5	156874.92	-4.432398e-05	648023.75	255252.52	-0.00022583726	255254.6	648022.7	-4.0393654e-05
0	0.6450926	0.64509034	-4.0623613e-10	0.06731653	0.06731653	0	156849.66	156849.1	-9.693878e-05	648116.4	255011.14	-0.0003442641	255013.19	648115.3	-0.00021298473
0	0.64498705	0.64498484	-3.265648e-10	0.06717506	0.06717506	0	156824	156823.45	-8.6415814e-05	648208.56	254771.34	-0.0002469521	254773.42	648207.4	-0.000244198
0	0.64488065	0.64487845	-2.94171e-10	0.06703376	0.06703376	0	156798.14	156797.6	-6.6007655e-05	648301	254529.94	-0.00015790247	254532.05	648299.8	-0.0002001322
0	0.64477384	0.6447715	-2.3813843e-10	0.066892266	0.066892266	0	156772.12	156771.6	-5.9630103e-05	648393.9	254287.39	-0.00018452556	254289.47	648392.75	-0.00015423032
0	0.64466685	0.6446645	-3.4057296e-10	0.066750884	0.066750884	0	156746.14	156745.58	-8.5459185e-05	648486.7	254044.78	-0.00025521446	254046.88	648485.56	-0.00025521446
0	0.64455944	0.6445571	-2.6790573e-10	0.06660941	0.06660941	0	156720.02	156719.45	-7.142857e-05	648579.44	253801.66	-0.00015147621	253803.78	648578.25	-0.0002460341
0	0.6444524	0.64445007	-2.1362417e-10	0.06646809	0.06646809	0	156694	156693.44	-4.8788264e-05	648672.06	253559.22	-3.0295241e-05	253561.3	648670.94	-0.000244198
0	0.6443447	0.6443423	-2.2062824e-10	0.06632662	0.06632662	0	156667.78	156667.22	-5.229592e-05	648764.8	253315.52	-0.00014872209	253317.62	648763.75	-0.00013219741
0	0.6442372	0.64423484	-2.573996e-10	0.06618514	0.06618514	0	156641.67	156641.11	-5.9311224e-05	648857.56	253072.45	-0.00023868978	253074.56	648856.4	-0.00012668919
0	0.64412826	0.6441261	-2.749098e-10	0.066043824	0.066043824	0	156615.2	156614.66	-6.441327e-05	648950.75	252826.86	-0.0002221651	252828.97	648949.56	-0.00013403349
0	0.6440199	0.64401764	1.9523848e-10	0.06590227	0.06590227	0	156588.84	156588.3	4.559949e-05	649043.75	252582.11	0.00021298473	252584.19	649042.6	5.8754405e-05
0	0.6439111	0.64390874	-1.085631e-10	0.06576097	0.06576097	0	156562.38	156561.83	-2.5829082e-05	649137.06	252336.31	2.0196827e-05	252338.44	649136	-0.00016891892
0	0.6438022	0.6437998	-5.9534606e-11	0.065619476	0.065619476	0	156535.89	156535.34	-1.434949e-05	649230.44	252090.5	-3.121328e-05	252092.61	649229.3	-5.5082255e-05
0	0.64369357	0.6436911	-3.1693423e-10	0.06547817	0.06547816	0	156509.48	156508.9	-7.716837e-05	649323.25	251845.52	-0.00019829613	251847.61	649322.1	-0.0002460341
0	0.6435841	0.64358175	5.428155e-11	0.0653367	0.0653367	0	156482.89	156482.31	1.5306123e-05	649416.4	251599.36	5.9672446e-05	251601.48	649415.1	4.4065804e-05
0	0.6434741	0.6434717	-3.8172188e-10	0.06519521	0.06519521	0	156456.11	156455.56	-9.8533164e-05	649509.75	251351.89	-0.00018819771	251354.05	649508.56	-0.00037272327
0	0.6433637	0.64336145	-1.1118963e-10	0.0650539	0.0650539	0	156429.3	156428.75	-3.0293368e-05	649603.3	251103.8	-0.00011567274	251105.94	649602.1	-4.7737954e-05
0	0.64325416	0.6432518	-2.6265268e-10	0.06491235	0.06491236	0	156402.64	156402.08	-6.345663e-05	649696.4	250857.25	-0.00013311545	250859.39	649695.2	-0.0002148208
0	0.6431431	0.64314085	-2.9942404e-10	0.06477103	0.06477103	0	156375.66	156375.11	-7.461735e-05	649790.25	250608	-0.00030570652	250610.12	649789.2	-0.00011200059
0	0.6430321	0.6430298	-4.8765847e-10	0.06462956	0.06462956	0	156348.67	156348.11	-0.000115114795	649883.94	250358.89	-0.00033875587	250361.02	649882.9	-0.0003488543
0	0.64292186	0.6429195	-1.2607328e-10	0.06448809	0.06448809	0	156321.86	156321.3	-2.9655612e-05	649977	250111.4	-0.00010649236	250113.53	649976	-6.426263e-05
0	0.6428105	0.64280814	-1.3307735e-10	0.06434676	0.06434676	0	156294.78	156294.23	-3.1887754e-05	650070.6	249861.95	-8.445946e-05	249864.1	650069.5	-7.711516e-05
0	0.642699	0.6426966	-3.642117e-10	0.06420529	0.06420529	0	156267.67	156267.11	-8.227041e-05	650164.4	249612.12	-0.0002809195	249614.27	650163.4	-0.0002368537
0	0.6425872	0.6425848	-2.6090163e-10	0.06406391	0.06406391	0	156240.48	156239.9	-6.345663e-05	650258.1	249361.78	-0.00021114865	249363.92	650256.94	-0.00017626322
0	0.6424751	0.64247274	-3.0993014e-10	0.06392241	0.06392241	0	156213.23	156212.66	-8.163265e-05	650351.8	249111.19	-0.0002827556	249113.36	650350.7	-0.00017626322
0	0.64236253	0.6423602	-2.6878122e-10	0.063781105	0.063781105	0	156185.86	156185.28	-5.8992347e-05	650445.6	248859.73	-0.00012026293	248861.9	650444.5	-0.0002460341
0	0.6422494	0.642247	-1.6984872e-10	0.06363964	0.06363964	0	156158.36	156157.78	-4.7193877e-05	650540.06	248606.95	-0.00011934489	248609.16	650538.9	-0.00013770565
0	0.6421378	0.64213544	-2.2938333e-10	0.06349814	0.06349814	0	156131.22	156130.66	-5.3252552e-05	650633.1	248357.67	-0.00020196827	248359.86	650631.94	-0.00012485312
0	0.64202386	0.64202154	-3.4670153e-10	0.06335684	0.06335683	0	156103.52	156102.94	-8.7691325e-05	650727.6	248103.56	-0.0002588866	248105.72	650726.56	-0.00026439482
0	0.6419106	0.64190817	-1.6634669e-10	0.06321529	0.06321529	0	156075.97	156075.4	-3.4757653e-05	650821.75	247850.89	-0.00019278789	247853.06	650820.6	-1.8360752e-05
0	0.64179707	0.6417947	2.8016284e-11	0.06307396	0.06307396	0	156048.38	156047.78	2.2321428e-06	650915.7	247597.98	0.00011750881	247600.16	650914.56	-0.000113836664
0	0.6416832	0.64168084	-2.171262e-10	0.06293249	0.06293249	0	156020.69	156020.12	-4.7512756e-05	651009.75	247344.62	-0.00011567274	247346.81	651008.6	-0.00018177145
0	0.64156884	0.6415666	1.2432226e-10	0.06279103	0.06279103	0	155992.9	155992.31	2.0089286e-05	651104	247090.27	8.53775e-05	247092.47	651102.9	2.0196827e-05
0	0.6414547	0.6414523	1.15567174e-10	0.06264969	0.06264969	0	155965.11	155964.53	2.5191326e-05	651197.94	246836.39	5.2328145e-05	246838.58	651196.8	0.00011750881
0	0.6413392	0.64133674	-4.3775444e-10	0.062508225	0.062508225	0	155937.02	155936.44	-0.00010395408	651292.9	246579.72	-0.00029744417	246581.9	651291.75	-0.00033967392
0	0.6412247	0.64122236	-4.8678295e-10	0.06236684	0.06236684	0	155909.22	155908.62	-0.000117984695	651386.7	246325.73	-0.00042688748	246327.92	651385.56	-0.0002588866
0	0.64110947	0.641107	-2.871669e-10	0.062225346	0.062225346	0	155881.17	155880.58	-7.079082e-05	651481.1	246069.86	-0.00017626322	246072.05	651479.94	-0.00023134548
0	0.6409936	0.6409912	-3.1255667e-10	0.062084038	0.062084038	0	155853.02	155852.42	-7.8443874e-05	651575.75	245813	-0.0002460341	245815.2	651574.7	-0.00022032902
0	0.64087766	0.64087534	-4.4650953e-11	0.061942574	0.061942577	0	155824.84	155824.27	-7.015306e-06	651670.1	245556.47	-7.3443007e-06	245558.66	651669	-9.180376e-06
0	0.640762	0.64075947	-1.5584058e-10	0.061801083	0.061801083	0	155796.67	155796.11	-3.539541e-05	651764.56	245299.9	-6.885282e-05	245302.1	651763.4	-0.00014321387
0	0.640645	0.64064264	-3.0117506e-10	0.061659772	0.061659772	0	155768.25	155767.67	-7.03125e-05	651859.44	245041.36	-0.00017993536	245043.6	651858.25	-0.00023318155
0	0.6405284	0.64052594	-2.8103836e-10	0.061518237	0.061518237	0	155739.88	155739.31	-5.835459e-05	651954.25	244783.27	-0.00015147621	244785.47	651953.06	-0.00023318155
0	0.64041156	0.64040923	-3.5720762e-10	0.061376892	0.061376892	0	155711.48	155710.92	-8.4821426e-05	652048.8	244525.22	-0.00023868978	244527.44	652047.6	-0.00025337838
0	0.6402944	0.6402919	-2.3901392e-10	0.06123543	0.06123543	0	155682.98	155682.39	-5.1020408e-05	652143.56	244266.31	-0.0002956081	244268.55	652142.4	-5.324618e-05
0	0.64017683	0.6401744	-3.8697492e-10	0.061093967	0.061093967	0	155654.44	155653.84	-9.215561e-05	652238.3	244007.08	-0.00021114865	244009.31	652237.2	-0.00029377203
0	0.64005935	0.64005697	-4.254973e-10	0.060952656	0.060952656	0	155625.86	155625.28	-9.805485e-05	652332.7	243748.2	-0.00034334607	243750.44	652331.5	-0.0002460341
0	0.63994056	0.6399381	-2.9241998e-10	0.060811166	0.060811166	0	155596.98	155596.38	-6.760204e-05	652428.06	243486.45	-0.00017809929	243488.69	652426.94	-0.00022583726
0	0.6398225	0.63982	-3.1868524e-10	0.060669772	0.060669772	0	155568.25	155567.67	-7.461735e-05	652522.94	243226.28	-0.00023318155	243228.53	652521.8	-0.00018360752
0	0.63970447	0.6397021	2.6265266e-11	0.060528316	0.060528316	0	155539.6	155539	3.8265307e-06	652617.3	242966.69	6.426263e-06	242968.92	652616.2	6.242656e-05
0	0.6395846	0.6395821	-3.7121578e-10	0.060386974	0.060386974	0	155510.42	155509.83	-8.418367e-05	652713	242703.1	-0.00025337838	242705.33	652711.9	-0.00028642773
0	0.639466	0.6394635	-2.4339147e-10	0.06024551	0.06024551	0	155481.6	155481	-5.8992347e-05	652807.8	242442.28	-0.00018177145	242444.55	652806.7	-0.00018360752
0	0.63934654	0.63934404	-4.1148918e-10	0.06010405	0.06010405	0	155452.55	155451.95	-9.693878e-05	652902.94	242179.88	-0.00024970624	242182.16	652901.8	-0.00036905112
0	0.639226	0.6392235	-7.704478e-11	0.059962712	0.059962712	0	155423.23	155422.64	-2.2640306e-05	652998.4	241915.75	-6.426263e-05	241918.02	652997.25	-5.8754405e-05
0	0.63910645	0.63910407	2.9767303e-11	0.05982117	0.059821166	0	155394.17	155393.6	7.971938e-06	653093.2	241653.66	-2.2032902e-05	241655.9	653092.06	9.3639836e-05
0	0.6389855	0.63898295	-1.2432226e-10	0.05967986	0.05967986	0	155364.75	155364.16	-3.284439e-05	653188.9	241388.42	-0.00010465629	241390.69	653187.75	-6.6098706e-05
0	0.63886565	0.63886315	-1.7159973e-10	0.059538368	0.059538368	0	155335.61	155335.02	-4.6875e-05	653283.8	241125.83	-0.0001560664	241128.08	653282.6	-8.262338e-05
0	0.6387442	0.63874173	1.5408956e-10	0.059396908	0.059396908	0	155306.1	155305.5	3.125e-05	653379.5	240860.02	8.1705344e-05	240862.33	653378.4	0.00010649236
0	0.6386236	0.63862115	-2.5915062e-10	0.059255596	0.059255596	0	155276.77	155276.17	-6.8877554e-05	653474.5	240596.27	-0.00020196827	240598.53	653473.4	-0.00015423032
0	0.6385008	0.6384984	-3.4319947e-10	0.059114102	0.059114102	0	155246.92	155246.33	-8.609694e-05	653570.56	240328.31	-0.00020931258	240330.62	653569.44	-0.00025705053
0	0.63837916	0.6383766	-8.1247226e-10	0.058972713	0.058972713	0	155217.3	155216.7	-0.00019419643	653665.94	240062.42	-0.00072157755	240064.72	653664.9	-0.0004002644
0	0.63825804	0.63825566	-4.027341e-11	0.05883125	0.05883125	0	155187.88	155187.27	-1.2755102e-05	653761.06	239797.95	8.262338e-05	239800.23	653759.94	-0.00014872209
0	0.63813454	0.63813204	-3.563321e-10	0.0586899	0.0586899	0	155157.84	155157.25	-8.0516584e-05	653857.25	239528.75	-0.0002148208	239531.03	653856.06	-0.00025521446
0	0.6380124	0.6380099	-2.0311806e-10	0.05854845	0.05854845	0	155128.16	155127.55	-4.9904338e-05	653952.75	239262.3	-7.344301e-05	239264.61	653951.56	-0.00017626322
0	0.63788956	0.6378871	-2.171262e-10	0.058406986	0.058406986	0	155098.31	155097.72	-5.0063776e-05	654048.3	238994.92	-0.000121180965	238997.22	654047.1	-0.00016891892
0	0.63776535	0.6377629	-2.0136705e-10	0.05826565	0.05826565	0	155068.11	155067.5	-5.6122448e-05	654144.44	238724.78	-9.914806e-05	238727.08	654143.3	-0.00022767333
0	0.6376427	0.6376402	-3.0730363e-10	0.058124106	0.058124106	0	155038.27	155037.67	-7.461735e-05	654239.75	238457.61	-0.00023868978	238459.9	654238.6	-0.00017993536
0	0.6375182	0.6375158	-2.2062824e-10	0.05798278	0.05798278	0	155008	155007.39	-5.580357e-05	654335.9	238187.22	-0.00018452556	238189.53	654334.8	-0.00010649236
0	0.63739425	0.63739187	-3.4319947e-10	0.05784131	0.05784131	0	154977.86	154977.27	-8.067602e-05	654431.56	237918.2	-0.00022767333	237920.53	654430.3	-0.00025521446
0	0.63726896	0.63726646	-3.3094236e-10	0.057699848	0.057699848	0	154947.39	154946.8	-8.0516584e-05	654528.06	237646.17	-0.00019095182	237648.5	654526.8	-0.00027173912
0	0.63714486	0.6371423	-3.1518319e-10	0.05755853	0.05755853	0	154917.2	154916.61	-7.684949e-05	654623.7	237376.69	-0.00026072268	237379.03	654622.6	-0.000170755
0	0.63702	0.6370174	-3.8872594e-10	0.05741706	0.05741706	0	154886.86	154886.25	-8.960459e-05	654719.44	237106.16	-0.00023501762	237108.48	654718.3	-0.00030846064
0	0.63689417	0.6368916	-3.1255667e-10	0.057275645	0.057275645	0	154856.27	154855.66	-7.8443874e-05	654815.75	236833.72	-0.00019554202	236836.08	654814.6	-0.00022400118
0	0.63676864	0.63676614	-2.7841182e-10	0.05713419	0.05713419	0	154825.73	154825.14	-6.377551e-05	654911.75	236562.02	-0.00019095182	236564.34	654910.56	-0.00017993536
0	0.6366426	0.63664	2.2850782e-10	0.056992844	0.056992844	0	154795.08	154794.47	6.122449e-05	655007.8	236289.44	0.00016800089	236291.78	655006.56	0.00018727967
0	0.63651615	0.63651365	-3.1956074e-10	0.056851387	0.056851387	0	154764.38	154763.75	-7.589286e-05	655104.1	236016.16	-0.00021757491	236018.52	655103	-0.00021298473
0	0.63638955	0.636387	-2.1362417e-10	0.056709927	0.056709927	0	154733.56	154732.97	-5.3571428e-05	655200.3	235742.7	-0.00011842685	235745.05	655199.25	-0.00017993536
0	0.63626283	0.63626033	-3.0292607e-10	0.056568585	0.056568585	0	154702.77	154702.14	-7.7487246e-05	655296.4	235469.16	-0.00021023062	235471.53	655295.25	-0.0002295094
0	0.6361353	0.63613284	-2.9767303e-10	0.056427047	0.056427047	0	154671.75	154671.14	-6.792092e-05	655393.06	235193.98	-0.00024052586	235196.33	655391.9	-0.00016524676
0	0.6360076	0.6360051	7.004071e-12	0.05628571	0.05628571	0	154640.7	154640.1	-9.566327e-07	655489.44	234918.86	4.957403e-05	234921.22	655488.3	-4.957403e-05
0	0.63587993	0.63587743	-1.5058753e-10	0.05614425	0.05614425	0	154609.67	154609.06	-3.507653e-05	655585.5	234644.16	-7.8951234e-05	234646.48	655584.3	-0.00010465629
0	0.6357521	0.6357496	-4.325014e-10	0.056002792	0.056002792	0	154578.56	154577.97	-0.00010554847	655681.75	234368.78	-0.00034518214	234371.14	655680.56	-0.0002588866
0	0.6356226	0.63562006	-8.755089e-11	0.05586147	0.05586147	0	154547.1	154546.47	-2.4872448e-05	655778.8	234090.44	-0.00011016451	234092.81	655777.6	-3.855758e-05
0	0.6354943	0.6354918	-4.7802784e-10	0.055719994	0.055719994	0	154515.89	154515.28	-0.00011256378	655874.9	233814.72	-0.00032865745	233817.08	655873.8	-0.00033600177
0	0.63536465	0.63536215	-8.492436e-11	0.055578664	0.055578664	0	154484.38	154483.77	-2.1683674e-05	655971.94	233536.2	-0.00014872209	233538.6	655970.8	3.6721503e-06
0	0.6352358	0.6352332	-3.4845254e-10	0.055437125	0.055437125	0	154453.06	154452.44	-8.290816e-05	656068.25	233259.44	-0.00026255875	233261.81	656067.1	-0.00022583726
0	0.6351054	0.63510275	8.7550887e-13	0.05529578	0.05529578	0	154421.33	154420.72	-4.145408e-06	656165.1	232979.95	-7.436104e-05	232982.34	656164	5.8754405e-05
0	0.6349759	0.6349734	-3.256893e-10	0.055154327	0.055154327	0	154389.86	154389.25	-8.38648e-05	656261.44	232702.5	-0.0002469521	232704.88	656260.25	-0.00023868978
0	0.634845	0.6348425	-3.326934e-11	0.05501287	0.05501287	0	154358.03	154357.42	-1.0522959e-05	656358.3	232422.34	-1.4688601e-05	232424.75	656357.2	-4.0393654e-05
0	0.63471437	0.63471186	-1.8560789e-10	0.054871522	0.054871522	0	154326.27	154325.66	-4.432398e-05	656455.1	232142.56	-0.00010465629	232144.95	656454.06	-0.00015790247
0	0.63458383	0.63458127	-3.6070966e-10	0.05473008	0.05473008	0	154294.52	154293.9	-8.960459e-05	656551.8	231863.19	-0.00022308313	231865.58	656550.6	-0.00030111632
0	0.6344515	0.63444895	-2.1537519e-10	0.05458865	0.05458865	0	154262.34	154261.73	-4.7831632e-05	656649.1	231580.56	-0.00018727967	231582.97	656647.94	-0.00012852527
0	0.63432086	0.63431823	-1.8910992e-10	0.054447185	0.054447185	0	154230.58	154229.94	-4.942602e-05	656745.56	231301.08	-0.00020747649	231303.5	656744.44	-8.078731e-05
0	0.63418823	0.6341857	-1.4883651e-10	0.054305855	0.054305855	0	154198.34	154197.72	-3.4757653e-05	656842.75	231018.31	-0.00011567274	231020.7	656841.56	-0.00011016451
0	0.63405615	0.6340536	-3.6771372e-10	0.054164406	0.054164406	0	154166.23	154165.61	-8.80102e-05	656939.56	230736.61	-0.0002487882	230739.02	656938.44	-0.00023501762
0	0.63392353	0.6339209	-4.2637283e-10	0.054022938	0.054022938	0	154133.97	154133.34	-0.00010969388	657036.6	230453.88	-0.0003442641	230456.31	657035.4	-0.0002827556
0	0.63378966	0.63378704	-1.5408956e-10	0.0538816	0.0538816	0	154101.42	154100.8	-3.9700255e-05	657134.06	230169	-4.4065804e-05	230171.42	657132.94	-0.00017259107
0	0.6336574	0.63365483	-3.1518319e-10	0.05374007	0.05374007	0	154069.28	154068.64	-7.780612e-05	657230.6	229887.27	-0.00019554202	229889.67	657229.5	-0.00022767333
0	0.6335229	0.6335203	-1.4445897e-10	0.05359871	0.05359871	0	154036.56	154035.94	-3.6989797e-05	657328.25	229601.39	-0.000103738246	229603.83	657327	-0.00010282021
0	0.6333893	0.63338673	-1.2432226e-10	0.053457264	0.053457264	0	154004.11	154003.47	-3.2684948e-05	657425.2	229317.36	-5.5082255e-05	229319.8	657424.1	-0.00011016451
0	0.6332551	0.63325244	-4.552646e-11	0.053315822	0.053315822	0	153971.44	153970.83	-1.4030612e-05	657522.56	229032.11	4.590188e-06	229034.55	657521.4	-3.6721503e-05
0	0.6331205	0.63311785	-4.815299e-11	0.053174462	0.053174462	0	153938.72	153938.1	-1.4508929e-05	657619.75	228746.5	-4.6819918e-05	228748.94	657618.56	-1.8360752e-05
0	0.6329856	0.63298315	-3.8697492e-10	0.053033024	0.053033024	0	153905.94	153905.3	-9.215561e-05	657716.8	228460.61	-0.00033232963	228463.06	657715.7	-0.00023134548
0	0.6328503	0.6328477	1.4008142e-10	0.052891586	0.052891586	0	153873.05	153872.42	3.539541e-05	657814.2	228173.75	7.06889e-05	228176.22	657813	0.00013954172
0	0.6327129	0.6327103	-3.1080566e-10	0.052750126	0.052750126	0	153839.61	153839	-6.760204e-05	657912.44	227883.12	-0.00024052586	227885.58	657911.2	-0.00016524676
0	0.63257897	0.63257635	-3.326934e-11	0.052608773	0.052608777	0	153807.06	153806.44	-7.3341835e-06	658008.7	227599.39	-5.324618e-05	227601.86	658007.56	5.1410105e-05
0	0.63244206	0.63243943	-4.9028497e-11	0.05246734	0.05246734	0	153773.75	153773.12	-9.247449e-06	658106.5	227309.83	-1.1934489e-05	227312.27	658105.3	-4.7737954e-05
0	0.63230556	0.63230294	-1.4971202e-10	0.052325882	0.052325882	0	153740.58	153739.94	-3.9540817e-05	658204.06	227021.3	-0.00018911574	227023.75	658202.75	-3.3049353e-05
0	0.63216865	0.6321661	-2.670302e-10	0.05218454	0.05218454	0	153707.3	153706.66	-5.9630103e-05	658301.5	226732.14	-0.00015239425	226734.61	658300.25	-0.00024970624
0	0.63203144	0.6320288	-4.2724835e-10	0.052043002	0.052043002	0	153673.92	153673.3	-0.00010969388	658398.94	226442.58	-0.00037455934	226445.05	658397.75	-0.00025337838
0	0.6318934	0.63189065	-4.3775445e-11	0.051901635	0.051901635	0	153640.36	153639.72	-7.971938e-06	658496.7	226151.52	-7.160693e-05	226153.98	658495.6	1.8360752e-05
0	0.63175476	0.63175213	-2.4164046e-10	0.0517602	0.0517602	0	153606.67	153606.03	-5.9151786e-05	658594.6	225859.55	-0.00016157462	225862.03	658593.5	-0.00016524676
0	0.6316172	0.6316147	-1.4183243e-10	0.051618766	0.051618766	0	153573.23	153572.6	-3.603316e-05	658691.9	225569.89	-0.0002368537	225572.4	658690.6	5.1410105e-05
0	0.631478	0.6314754	-3.1956074e-10	0.05147742	0.05147742	0	153539.36	153538.73	-8.195153e-05	658789.6	225277.11	-0.00031580494	225279.6	658788.5	-0.00013586956
0	0.63133967	0.63133705	-2.0136705e-10	0.05133596	0.05133596	0	153505.73	153505.1	-4.815051e-05	658886.9	224986.14	-0.00014596798	224988.62	658885.7	-0.00013586956
0	0.6311993	0.6311967	-7.5293764e-11	0.051194515	0.051194515	0	153471.61	153470.97	-1.8494899e-05	658985.2	224691.33	-0.00010649236	224693.83	658984	-7.3443007e-06
0	0.6310605	0.63105786	-4.718993e-10	0.05105309	0.05105309	0	153437.86	153437.22	-0.00011415816	659082.5	224399.66	-0.00037455934	224402.19	659081.3	-0.00029009988
0	0.63091975	0.63091713	-3.93979e-10	0.05091171	0.050911706	0	153403.64	153403	-9.375e-05	659180.75	224104.4	-0.00029469008	224106.92	659179.56	-0.00026806697
0	0.6307797	0.6307771	-3.239383e-10	0.05077028	0.05077028	0	153369.6	153368.94	-7.079082e-05	659278.5	223810.55	-0.00027724737	223813.06	659277.44	-0.00015423032
0	0.6306384	0.63063574	-8.142233e-11	0.050628845	0.050628845	0	153335.22	153334.58	-2.9655612e-05	659376.5	223514.77	-5.2328145e-05	223517.25	659375.4	-9.547591e-05
0	0.63049793	0.6304953	-4.718993e-10	0.050487474	0.050487474	0	153301.08	153300.44	-0.00011639031	659474.25	223220.45	-0.00031396886	223222.95	659473	-0.00035987073
0	0.6303565	0.6303538	-2.5127106e-10	0.050345946	0.050345946	0	153266.67	153266.03	-6.122449e-05	659572.1	222924.39	-0.00010190217	222926.92	659571	-0.00026072268
0	0.630214	0.63021123	-1.7335076e-10	0.05020459	0.05020459	0	153232.02	153231.38	-3.794643e-05	659670.3	222626.67	-0.00022767333	222629.22	659669.1	2.2032902e-05
0	0.63007253	0.63006985	-4.4826054e-10	0.050063137	0.050063137	0	153197.62	153197	-0.00011639031	659768	222331.08	-0.00026806697	222333.61	659766.8	-0.0004002644
0	0.6299294	0.62992674	-4.1674222e-10	0.04992171	0.04992171	0	153162.86	153162.2	-0.000102040816	659866.4	222032.31	-0.00030387045	222034.86	659865.25	-0.00026806697
0	0.6297864	0.6297837	-5.261808e-10	0.049780354	0.049780354	0	153128.05	153127.4	-0.00013265306	659964.56	221733.81	-0.00048655993	221736.36	659963.4	-0.00028642773
0	0.6296433	0.6296407	-4.4125648e-10	0.049638905	0.0496389	0	153093.28	153092.62	-0.00010538903	660062.56	221435.6	-0.0004076087	221438.16	660061.3	-0.00020931258
0	0.62949944	0.62949675	-3.738423e-10	0.049497455	0.049497455	0	153058.28	153057.64	-9.119898e-05	660160.6	221136.02	-0.00036537898	221138.58	660159.44	-0.00016157462
0	0.6293554	0.6293526	-3.8872594e-10	0.04935602	0.04935602	0	153023.23	153022.6	-9.247449e-05	660258.9	220835.95	-0.0002781654	220838.5	660257.7	-0.00026072268
0	0.62921166	0.629209	-1.2344675e-10	0.04921464	0.04921464	0	152988.31	152987.67	-3.3163265e-05	660356.8	220536.9	-0.0001294433	220539.45	660355.56	-5.5082255e-05
0	0.629066	0.6290633	-1.8210584e-10	0.04907321	0.04907321	0	152952.89	152952.25	-3.762755e-05	660455.44	220234.36	-0.00012577116	220236.92	660454.25	-9.914806e-05
0	0.6289213	0.62891865	-2.0049154e-10	0.04893179	0.04893179	0	152917.72	152917.06	-5.994898e-05	660553.7	219933.56	-0.0002414439	219936.12	660552.44	-5.8754405e-05
0	0.62877554	0.62877285	6.0410114e-11	0.048790418	0.048790418	0	152882.28	152881.62	1.2755102e-05	660652.2	219631.03	-9.547591e-05	219633.61	660650.94	0.00015423032
0	0.62863064	0.6286279	-1.8473237e-10	0.048648883	0.048648883	0	152847.03	152846.4	-4.4642857e-05	660750.06	219330.27	-0.00020655846	219332.86	660748.8	-6.242656e-05
0	0.6284838	0.6284811	-1.0243454e-10	0.04850753	0.04850753	0	152811.33	152810.69	-2.5191326e-05	660848.5	219026.25	-5.1410105e-05	219028.81	660847.3	-7.344301e-05
0	0.6283375	0.6283349	-1.8385686e-10	0.048366077	0.048366077	0	152775.78	152775.14	-4.846939e-05	660946.94	218723.08	-8.078731e-05	218725.64	660945.75	-0.00017259107
0	0.6281905	0.62818784	-5.988481e-10	0.048224654	0.048224654	0	152740.03	152739.38	-0.00014030612	661045.3	218418.81	-0.00035069036	218421.39	661044.2	-0.0004443302
0	0.6280438	0.628041	-4.430075e-10	0.04808329	0.04808329	0	152704.34	152703.69	-0.00011415816	661143.5	218115.23	-0.00030203437	218117.83	661142.25	-0.0003341657
0	0.627895	0.6278923	-2.0837111e-10	0.04794185	0.04794185	0	152668.19	152667.52	-5.086097e-05	661242.4	217808.06	-0.0001854436	217810.67	661241.1	-8.445946e-05
0	0.6277473	0.6277446	-2.2413027e-10	0.047800384	0.047800384	0	152632.27	152631.62	-5.452806e-05	661340.6	217502.95	-0.00017442714	217505.55	661339.56	-0.00015423032
0	0.62759876	0.6275961	-1.9611399e-10	0.047658965	0.047658965	0	152596.17	152595.52	-4.7512756e-05	661439.25	217196.44	-0.00011567274	217199.06	661438.06	-0.00018360752
0	0.6274508	0.62744814	-2.7140776e-11	0.04751758	0.04751758	0	152560.19	152559.55	-1.7538265e-05	661537.4	216891.14	-0.00012393508	216893.73	661536.3	4.4065804e-05
0	0.62730074	0.62729806	-3.8259737e-10	0.047376156	0.047376156	0	152523.7	152523.03	-9.183674e-05	661636.5	216581.95	-0.00031396886	216584.58	661635.3	-0.00023501762
0	0.6271518	0.627149	-2.0486908e-10	0.047234733	0.047234733	0	152487.45	152486.81	-4.7193877e-05	661735.06	216274.61	-0.00013954172	216277.22	661733.94	-0.00016157462
0	0.6270021	0.62699944	-2.7928734e-10	0.047093347	0.047093347	0	152451.1	152450.42	-6.792092e-05	661833.5	215966.83	-0.00016983696	215969.44	661832.3	-0.00023134548
0	0.6268514	0.6268487	-4.5876666e-10	0.046951823	0.04695183	0	152414.44	152413.8	-0.00011256378	661932.2	215657.1	-0.0004030185	215659.7	661931.06	-0.00026806697
0	0.6267013	0.6266986	-2.7928734e-10	0.046810463	0.046810463	0	152377.95	152377.3	-7.3341835e-05	662030.56	215348.69	-0.00030846064	215351.3	662029.4	-9.547591e-05
0	0.62654984	0.62654704	-8.142233e-11	0.046669025	0.04666902	0	152341.12	152340.44	-2.2640306e-05	662129.3	215037.78	2.7541128e-05	215040.42	662128.06	-0.00012485312
0	0.62639767	0.6263949	-4.990401e-10	0.046527658	0.046527658	0	152304.12	152303.45	-0.00012531888	662228.56	214725.55	-0.00039659225	214728.16	662227.44	-0.0003635429
0	0.62624687	0.6262442	-3.2043626e-10	0.046386234	0.046386234	0	152267.47	152266.8	-7.206632e-05	662326.94	214416.17	-0.00026806697	214418.8	662325.7	-0.00016524676
0	0.62609464	0.62609184	-3.5983416e-10	0.0462448	0.0462448	0	152230.44	152229.77	-8.003826e-05	662425.75	214104.11	-0.0003148869	214106.73	662424.5	-0.00017626322
0	0.62594134	0.62593853	-5.7608485e-10	0.04610342	0.04610342	0	152193.16	152192.5	-0.00013743622	662524.8	213790.44	-0.00048472386	213793.1	662523.56	-0.00033049352
0	0.6257893	0.6257866	-2.565241e-10	0.045961898	0.045961898	0	152156.19	152155.53	-5.8673468e-05	662623.1	213479.23	-0.00015055816	213481.88	662621.94	-0.00020196827
0	0.6256352	0.62563246	-2.5302208e-10	0.045820512	0.045820512	0	152118.73	152118.06	-6.696428e-05	662722.2	213164.44	-0.00029744417	213167.05	662721.1	-6.6098706e-05
0	0.6254821	0.6254793	-5.638277e-10	0.0456791	0.0456791	0	152081.48	152080.83	-0.00013329081	662820.9	212851.36	-0.00053613394	212854.02	662819.6	-0.00023868978
0	0.62532806	0.62532526	-3.93979e-10	0.045537677	0.045537677	0	152044.05	152043.38	-9.821429e-05	662919.56	212536.98	-0.00033600177	212539.66	662918.4	-0.00024236193
0	0.62517273	0.62517	-2.8366487e-10	0.045396283	0.045396283	0	152006.3	152005.62	-6.6007655e-05	663018.94	212220.28	-0.00019095182	212222.95	663017.7	-0.00020564042
0	0.6250185	0.62501574	4.1148918e-11	0.04525487	0.04525487	0	151968.78	151968.11	1.0841837e-05	663117.6	211905.61	3.121328e-05	211908.27	663116.44	1.1016451e-05