# t (s)	mx ()	my ()	mz ()	B_extx (T)	B_exty (T)	B_extz (T)	m_fullx (A/m)	m_fully (A/m)	m_fullz (A/m)	m_full.region1x (A/m)	m_full.region1y (A/m)	m_full.region1z (A/m)	m_full.region2x (A/m)	m_full.region2y (A/m)	m_full.region2z (A/m)
0	0.6197302	0.6197289	-2.0169191e-10	0.070709854	0.070709854	0	14417.123	14417.097	-5.4397406e-06	670894.3	196726.17	-0.00015211618	196727.98	670894.44	-0.00017524733
0	0.61939365	0.6193919	-1.7249896e-10	0.070357755	0.070357755	0	14409.294	14409.255	-4.9521377e-06	671090.25	196058.56	-0.00012778456	196060.89	671090.1	-0.00017023498
0	0.61905205	0.6190504	-3.1076444e-10	0.0700046	0.0700046	0	14401.347	14401.31	-6.320319e-06	671287.75	195382.7	-0.00024958194	195385.05	671287.8	-0.00013077476
0	0.6187093	0.61870766	-3.4677275e-10	0.069649294	0.069649294	0	14393.375	14393.338	-2.1849453e-06	671485.06	194705.75	-0.00015883421	194708.1	671484.9	2.7344247e-05
0	0.6183642	0.6183626	-4.05076e-10	0.069297224	0.069297224	0	14385.347	14385.308	-8.291988e-06	671682.6	194025.02	-0.00023698395	194027.34	671682.6	-0.00026202775
0	0.6180179	0.6180162	-3.8754985e-10	0.06894197	0.06894197	0	14377.289	14377.25	-7.0526485e-06	671879.75	193342.86	-0.00018149197	193345.2	671879.75	-0.00024293631
0	0.6176694	0.6176678	-2.1081613e-10	0.068588786	0.068588786	0	14369.185	14369.144	-5.687139e-06	672077.1	192657.77	-0.00014371463	192660.1	672077.06	-0.00019853731
0	0.6173197	0.61731803	-2.57941e-10	0.06823664	0.06823664	0	14361.047	14361.01	-2.3650116e-06	672274.25	191971.11	-0.0001639111	191973.4	672274.1	2.1584741e-05
0	0.61696774	0.61696607	-2.689094e-10	0.067881495	0.067881495	0	14352.859	14352.822	-4.550203e-06	672471.3	191281.23	-0.00014339545	191283.55	672471.4	-0.00013043567
0	0.6166142	0.6166126	-2.0009777e-10	0.06752796	0.06752796	0	14344.633	14344.597	-7.0252327e-06	672668.3	190589.17	-0.00024297718	190591.5	672668.44	-0.00017980115
0	0.61625916	0.6162574	-3.7828193e-10	0.06717612	0.06717612	0	14336.375	14336.336	-5.183513e-06	672865.1	189895.39	-0.00020537987	189897.7	672865.06	-0.000106563864
0	0.6159018	0.6159002	-3.4195513e-10	0.066821046	0.066821046	0	14328.0625	14328.025	-4.220987e-06	673061.94	189198.3	-0.00017431418	189200.6	673062.06	-7.9704754e-05
0	0.6155432	0.6155416	-2.3563534e-10	0.06646746	0.06646746	0	14319.721	14319.683	-2.0591015e-06	673258.44	188499.69	-0.00018587262	188501.98	673258.56	6.195592e-05
0	0.61518306	0.61518127	-3.8761036e-10	0.06611561	0.06611561	0	14311.338	14311.3	-1.0428021e-05	673454.9	187798.88	-0.00024700584	187801.17	673455	-0.00038055223
0	0.61482	0.61481833	-3.1010217e-10	0.06576051	0.06576051	0	14302.896	14302.859	-9.8474975e-06	673651.6	187094.06	-0.00019232629	187096.36	673651.7	-0.00040029592
0	0.6144558	0.6144542	-3.5309458e-10	0.06540694	0.06540694	0	14294.425	14294.386	-7.78043e-06	673847.9	186387.95	-0.00022334179	186390.28	673847.94	-0.0002448843
0	0.61408985	0.6140883	-2.5885685e-10	0.06505365	0.06505365	0	14285.909	14285.872	-6.409762e-06	674044	185679.48	-0.00025182005	185681.78	674044	-0.00013391934
0	0.6137217	0.6137201	-3.4236106e-10	0.06470004	0.06470004	0	14277.347	14277.307	-6.7797346e-06	674240.25	184967.86	-0.00023308588	184970.17	674240.3	-0.0001749184
0	0.6133525	0.6133508	-2.5255203e-10	0.06434636	0.06434636	0	14268.755	14268.717	-4.639661e-06	674435.8	184255.17	-0.00012302928	184257.5	674435.94	-0.0001561854
0	0.6129805	0.61297894	-3.9684628e-10	0.06399309	0.06399309	0	14260.102	14260.065	-5.4542056e-06	674631.8	183538.58	-0.00023164683	183540.84	674631.9	-9.658715e-05
0	0.6126069	0.6126053	-2.2518241e-10	0.06363921	0.06363921	0	14251.409	14251.373	-5.4336574e-06	674827.5	182819.8	-0.00022632653	182822.08	674827.6	-0.00010067088
0	0.6122312	0.61222965	-2.0431395e-10	0.063285835	0.063285835	0	14242.672	14242.638	-3.5439687e-06	675023.2	182098.36	-0.00015995848	182100.66	675023.3	-5.3317486e-05
0	0.6118542	0.61185265	-2.438391e-10	0.06293256	0.06293256	0	14233.9	14233.864	-3.4510626e-06	675218.44	181375.17	-0.00013894678	181377.48	675218.5	-6.873811e-05
0	0.611475	0.6114735	-4.4028947e-10	0.06257875	0.06257875	0	14225.08	14225.044	-6.2712993e-06	675413.5	180649.25	-0.0002041718	180651.53	675413.6	-0.00017323489
0	0.61109424	0.6110927	-1.7034875e-10	0.06222535	0.06222535	0	14216.221	14216.1875	-5.6764516e-06	675608.4	179921.34	-0.00022123105	179923.58	675608.5	-0.00012037769
0	0.6107112	0.6107097	-4.007526e-10	0.061871916	0.061871916	0	14207.3125	14207.275	-8.250903e-06	675803.25	179190.27	-0.00021987731	179192.55	675803.3	-0.00027666189
0	0.61032665	0.61032504	-1.6969984e-10	0.06151828	0.06151828	0	14198.364	14198.328	-5.341318e-06	675997.7	178457.34	-0.00020767169	178459.64	675997.9	-0.00011376871
0	0.6099393	0.6099378	-3.228375e-10	0.06116485	0.06116485	0	14189.3545	14189.318	-6.444745e-06	676192.44	177720.38	-0.000267179	177722.66	676192.5	-0.00012066564
0	0.6095506	0.6095491	-2.1094665e-10	0.06081137	0.06081137	0	14180.31	14180.275	-5.315279e-06	676386.7	176981.94	-0.00013675637	176984.19	676386.75	-0.00018311702
0	0.6091601	0.60915864	-8.701409e-11	0.060457736	0.060457736	0	14171.227	14171.19	-3.8534554e-06	676580.5	176241.39	-0.00022808292	176243.62	676580.7	-3.8179373e-06
0	0.6087671	0.60876554	-2.2761272e-10	0.06010433	0.06010433	0	14162.083	14162.047	-4.7278286e-06	676774.6	175497.05	-0.00021002028	175499.31	676774.75	-7.4500356e-05
0	0.608372	0.60837036	-1.2910609e-10	0.05975042	0.05975042	0	14152.891	14152.856	-5.556366e-06	676968.44	174750	-0.00015733817	174752.27	676968.56	-0.00017704381
0	0.6079754	0.6079738	-2.537714e-10	0.05939726	0.05939726	0	14143.664	14143.631	-5.761764e-06	677161.9	174001.44	-0.00016566347	174003.69	677162.06	-0.00018107938
0	0.60757655	0.60757506	-2.1590228e-10	0.059043832	0.059043832	0	14134.388	14134.354	-3.5585829e-06	677355.1	173249.83	-5.7456513e-05	173252.08	677355.1	-0.00015669894
0	0.60717565	0.60717416	-2.332305e-10	0.058689874	0.058689874	0	14125.06	14125.025	-5.146706e-06	677548.25	172495.39	-0.00024996928	172497.64	677548.4	-5.9759386e-05
0	0.60677326	0.60677165	-2.753521e-10	0.058336806	0.058336806	0	14115.698	14115.662	-4.5571983e-06	677740.75	171739.47	-0.00016080531	171741.67	677740.9	-0.00011344678
0	0.60636866	0.6063672	-3.305027e-10	0.05798323	0.05798323	0	14106.287	14106.253	-9.32791e-06	677933.1	170980.77	-0.00025147846	170982.97	677933.3	-0.00030987497
0	0.60596114	0.60595965	-3.053482e-10	0.057629295	0.057629295	0	14096.807	14096.773	-1.0015173e-05	678125.75	170217.64	-0.00031291015	170219.86	678125.9	-0.0002898028
0	0.6055525	0.60555106	-2.4919383e-10	0.05727468	0.05727468	0	14087.303	14087.268	-2.6640387e-06	678317.56	169453.66	-0.00016542469	169455.88	678317.8	5.102902e-06
0	0.6051413	0.6051399	-2.0388696e-10	0.056922715	0.056922715	0	14077.734	14077.7	-9.261313e-06	678509.56	168686.1	-0.00028057682	168688.27	678509.75	-0.00027676875
0	0.6047281	0.6047266	-2.4952473e-10	0.05656864	0.05656864	0	14068.122	14068.088	-6.1754554e-06	678701.06	167916.08	-0.00019111672	167918.25	678701.25	-0.00018052205
0	0.60431284	0.60431147	-1.6513753e-10	0.05621419	0.05621419	0	14058.463	14058.43	-2.9857767e-06	678892.4	167143.48	-0.0001558684	167145.69	678892.5	-2.3815586e-05
0	0.60389507	0.60389364	-1.7664878e-10	0.055861782	0.055861782	0	14048.744	14048.709	-8.583628e-06	679083.5	166367.39	-0.00026680608	166369.56	679083.7	-0.00024975653
0	0.60347587	0.60347444	-2.486571e-10	0.055508047	0.055508047	0	14038.992	14038.958	-4.6172763e-06	679274.06	165589.94	-0.00021286606	165592.16	679274.25	-6.500153e-05
0	0.60305417	0.60305274	-3.6634631e-10	0.055153705	0.055153705	0	14029.182	14029.148	-5.659798e-06	679464.5	164809.11	-0.00018092521	164811.27	679464.75	-0.00015968134
0	0.6026301	0.6026287	-4.4874013e-10	0.054801274	0.054801274	0	14019.314	14019.281	-7.682773e-06	679654.9	164025.05	-0.0002704352	164027.23	679655.06	-0.00019191395
0	0.6022042	0.6022029	-3.096043e-10	0.05444749	0.05444749	0	14009.409	14009.375	-6.6013927e-06	679844.6	163239.17	-0.00021152553	163241.33	679844.9	-0.00018574616
0	0.601776	0.6017747	-3.594593e-10	0.054093115	0.054093115	0	13999.445	13999.416	-6.167975e-06	680034.2	162450.14	-0.00019941488	162452.31	680034.4	-0.00017177376
0	0.6013453	0.601344	-7.4595705e-11	0.053740732	0.053740732	0	13989.427	13989.394	-1.2621385e-06	680223.6	161657.67	1.250627e-05	161659.83	680223.8	-8.846174e-05
0	0.60091305	0.6009116	-1.5295337e-10	0.05338643	0.05338643	0	13979.37	13979.339	-1.7991246e-06	680412.3	160863.88	-0.00012976758	160866.03	680412.56	2.1496291e-05
0	0.6004779	0.60047656	-8.0372854e-11	0.053032607	0.053032607	0	13969.248	13969.216	-1.9943393e-06	680601.1	160065.83	-8.926177e-05	160067.97	680601.3	-3.075753e-05
0	0.6000413	0.60003984	-1.749953e-10	0.052680116	0.052680116	0	13959.088	13959.058	-5.2613113e-06	680789.25	159266.39	-0.00018775523	159268.53	680789.44	-0.0001288704
0	0.59960175	0.59960043	-1.7383973e-10	0.052325986	0.052325986	0	13948.864	13948.834	-3.992901e-06	680977.2	158463.19	-0.00013010103	158465.31	680977.44	-0.00011019168
0	0.5991601	0.59915876	-1.4200154e-10	0.051971667	0.051971667	0	13938.592	13938.56	-4.5319466e-06	681164.8	157657.27	-9.699572e-05	157659.39	681165	-0.00017573676
0	0.59871644	0.5987152	-2.9872282e-10	0.05161957	0.05161957	0	13928.271	13928.239	-6.437851e-06	681352	156849.08	-0.00018379238	156851.2	681352.2	-0.0002036374
0	0.5982702	0.59826887	-2.7292965e-10	0.051265568	0.051265568	0	13917.888	13917.856	-6.797446e-06	681538.9	156037.22	-0.00034479657	156039.34	681539.2	-6.427362e-05
0	0.59782195	0.5978207	-3.1354716e-10	0.05091117	0.05091117	0	13907.463	13907.43	-7.0138426e-06	681725.3	155223.44	-0.0003025437	155225.53	681725.5	-0.00011954925
0	0.59737134	0.59737	1.887022e-11	0.05055905	0.05055905	0	13896.977	13896.945	2.3874819e-07	681911.3	154406.36	-2.8459033e-05	154408.44	681911.7	4.2826894e-05
0	0.596918	0.5969166	-7.472631e-11	0.050205022	0.050205022	0	13886.432	13886.4	-2.571835e-06	682097.25	153585.8	-0.00015815752	153587.9	682097.56	3.3845367e-06
0	0.5964627	0.5964614	-1.4555929e-10	0.04985065	0.04985065	0	13875.839	13875.811	-3.203324e-06	682282.56	152763.17	-0.000106938634	152765.27	682282.8	-8.5837346e-05
0	0.5960051	0.5960038	-3.28255e-10	0.049496647	0.049496647	0	13865.192	13865.162	-7.944314e-06	682467.44	151937.53	-0.00021754805	151939.62	682467.7	-0.00026054066
0	0.595545	0.59554374	-2.793076e-10	0.04914451	0.04914451	0	13854.492	13854.463	-6.4069354e-06	682651.94	151109	-0.00021287451	151111.08	682652.2	-0.00017269474
0	0.5950825	0.59508127	-2.0884729e-10	0.04879003	0.04879003	0	13843.732	13843.701	-5.592598e-06	682836.06	150277.4	-0.00022406704	150279.5	682836.3	-0.000112495385
0	0.59461737	0.5946161	-3.0777217e-10	0.048436143	0.048436143	0	13832.911	13832.881	-5.1983616e-06	683019.9	149442.39	-0.00025032708	149444.47	683020.2	-6.251024e-05
0	0.5941501	0.5941489	-1.44509e-10	0.048083518	0.048083518	0	13822.042	13822.013	-3.9758056e-06	683203.2	148605.02	-0.0001433761	148607.08	683203.4	-9.588779e-05
0	0.593681	0.59367967	-1.3076332e-10	0.047729515	0.047729515	0	13811.127	13811.099	-3.7397926e-06	683385.7	147765.6	-2.8443128e-05	147767.66	683386.06	-0.00019661752
0	0.59320843	0.5932072	-1.240967e-10	0.04737567	0.04737567	0	13800.133	13800.1045	-1.0297634e-06	683568.3	146921.45	-0.00014210238	146923.5	683568.5	8.0131234e-05
0	0.5927338	0.59273255	-2.8027267e-10	0.047023006	0.047023006	0	13789.094	13789.064	-3.32272e-06	683750.1	146075.1	-0.00023392079	146077.14	683750.5	3.3959564e-05
0	0.59225667	0.5922555	-2.6025063e-10	0.04666901	0.04666901	0	13777.99	13777.963	-5.978604e-06	683931.7	145225.53	-0.00023303293	145227.58	683932	-0.00012675935
0	0.5917746	0.5917733	-3.2624647e-10	0.046315055	0.046315055	0	13766.776	13766.747	-5.9346075e-06	684113.6	144368.64	-0.0002705534	144370.69	684114	-8.659118e-05
0	0.5912954	0.59129417	-2.3517208e-10	0.04596245	0.04596245	0	13755.628	13755.6	-6.9923262e-06	684293.06	143518.4	-0.00017466077	143520.42	684293.44	-0.0002461373
0	0.59081066	0.5908094	-2.75046e-10	0.045608502	0.045608502	0	13744.3545	13744.325	-6.025905e-06	684473.2	142659.67	-0.00024847814	142661.67	684473.5	-0.000114160684
0	0.59032387	0.59032273	-1.7328292e-10	0.045254562	0.045254562	0	13733.028	13733	-3.0746182e-06	684652.6	141798.78	-0.0001370476	141800.75	684652.94	-4.7982867e-05
0	0.5898341	0.58983284	-2.0578887e-10	0.044901803	0.044901803	0	13721.635	13721.606	-4.6780215e-06	684831.75	140933.95	-0.0002016076	140935.95	684832.06	-7.991563e-05
0	0.58934164	0.5893405	-1.6279084e-10	0.044547983	0.044547983	0	13710.18	13710.151	-5.739131e-06	685010.3	140066.05	-0.0002484771	140068.02	685010.7	-9.690373e-05
0	0.58884686	0.5888458	-2.793894e-10	0.044193532	0.044193532	0	13698.669	13698.643	-5.726671e-06	685188.4	139195.3	-0.00019078955	139197.27	685188.75	-0.00015384142
0	0.5883495	0.5883482	-1.4235521e-10	0.043841247	0.043841247	0	13687.096	13687.072	-4.890635e-06	685365.9	138321.4	-0.00017240459	138323.38	685366.2	-0.000121913734
0	0.5878496	0.5878486	-3.410596e-10	0.04348734	0.04348734	0	13675.471	13675.443	-4.488279e-06	685542.7	137444.88	-0.00021352441	137446.83	685543.2	-5.6580124e-05
0	0.5873472	0.5873462	-2.2440688e-10	0.043133043	0.043133043	0	13663.784	13663.756	-7.76731e-06	685719.06	136565.25	-0.00027409833	136567.2	685719.4	-0.00019333824
0	0.5868418	0.5868407	-1.6768262e-10	0.042780712	0.042780712	0	13652.025	13651.998	-5.806059e-06	685894.9	135681.72	-0.00019132244	135683.64	685895.25	-0.0001580861
0	0.58633435	0.58633316	-1.6066198e-10	0.042426832	0.042426832	0	13640.216	13640.19	-6.2541235e-06	686070.06	134795.95	-0.00019053054	134797.89	686070.44	-0.0001858425
0	0.58582336	0.5858223	-1.7879524e-10	0.042072512	0.042072512	0	13628.33	13628.305	-2.296776e-06	686244.94	133905.77	-0.00014958241	133907.7	686245.3	1.1362474e-05
0	0.58531034	0.5853093	-3.7561998e-10	0.041718654	0.041718654	0	13616.396	13616.372	-9.4712705e-06	686418.9	133013.61	-0.00034009237	133015.53	686419.4	-0.0002298885
0	0.5847945	0.58479345	-2.7592e-10	0.041366298	0.041366298	0	13604.396	13604.373	-3.316653e-06	686592.44	132117.98	-0.00017907277	132119.9	686592.9	-2.0523352e-05
0	0.58427626	0.58427525	-1.4432158e-10	0.041011877	0.041011877	0	13592.338	13592.3125	-4.186605e-06	686765.25	131219.53	-0.0002119158	131221.45	686765.7	-4.0034003e-05
0	0.58375436	0.58375335	-3.093597e-10	0.04065816	0.04065816	0	13580.2	13580.177	-6.350504e-06	686937.7	130316.58	-0.00025347376	130318.484	686938.25	-0.00012869944
0	0.5832304	0.5832293	-2.0087619e-10	0.040305205	0.040305205	0	13568.008	13567.984	-5.9533686e-06	687109.4	129411.29	-0.00028036913	129413.17	687109.8	-7.7904486e-05
0	0.5827036	0.5827026	-2.3922866e-10	0.039951347	0.039951347	0	13555.755	13555.731	-3.449514e-06	687280.3	128502.78	-0.00021617301	128504.664	687280.7	8.581317e-06
0	0.5821739	0.5821729	-3.2109393e-10	0.039597534	0.039597534	0	13543.432	13543.408	-5.989392e-06	687450.75	127590.81	-0.00023125885	127592.68	687451.2	-0.00012918268
0	0.5816419	0.58164096	-1.3762429e-10	0.039244674	0.039244674	0	13531.057	13531.031	-2.6931298e-06	687620.25	126676.5	-0.00014366282	126678.36	687620.8	-1.840968e-05
0	0.5811064	0.5811055	-1.5852142e-10	0.038890842	0.038890842	0	13518.6	13518.575	-2.7376468e-06	687789.5	125757.71	-0.00015833556	125759.54	687790	-6.4159776e-06
0	0.58056813	0.5805671	-2.4637062e-10	0.038537055	0.038537055	0	13506.075	13506.053	-6.248794e-06	687958	124835.59	-0.00024469782	124837.445	687958.44	-0.00013135449
0	0.5800275	0.5800266	-1.3012229e-10	0.038184114	0.038184114	0	13493.5	13493.479	-3.0748433e-06	688125.56	123911.17	-0.00018590924	123913	688126	8.6522516e-07
0	0.5794835	0.5794825	-2.6274283e-10	0.037830334	0.037830334	0	13480.842	13480.818	-6.6881744e-06	688292.6	122982.305	-0.00013648791	122984.125	688293.1	-0.0002660063
0	0.57893693	0.5789359	-1.6014162e-10	0.037476543	0.037476543	0	13468.128	13468.106	-2.605325e-06	688458.9	122051.02	-0.00016826228	122052.82	688459.4	1.1473867e-05
0	0.5783871	0.5783861	-2.361023e-10	0.03712342	0.03712342	0	13455.338	13455.315	-6.798061e-06	688624.6	121115.555	-0.0003127519	121117.336	688625.1	-9.635535e-05
0	0.5778346	0.57783365	-2.2370787e-10	0.0367698	0.0367698	0	13442.484	13442.463	-5.5427463e-06	688789.44	120177.16	-9.015957e-05	120178.95	688790	-0.00024340281
0	0.57727957	0.5772787	-1.7720753e-10	0.03641543	0.03641543	0	13429.573	13429.55	-4.180649e-06	688953.5	119236.12	-0.00016765649	119237.9	688954	-8.39349e-05
0	0.5767206	0.5767197	-1.5686494e-10	0.036062844	0.036062844	0	13416.568	13416.549	-3.1678326e-06	689116.94	118290.125	-0.00017148886	118291.87	689117.5	-1.9151252e-05
0	0.57615966	0.57615876	-6.539891e-11	0.03570913	0.03570913	0	13403.5205	13403.498	-1.5149316e-06	689279.6	117342.266	-0.0001288076	117344.03	689280.06	3.7639045e-05
0	0.57559526	0.57559437	-3.186073e-10	0.035354927	0.035354927	0	13390.389	13390.369	-7.019435e-06	689441.44	116390.234	-0.0003072228	116391.984	689441.9	-0.00011520666
0	0.5750279	0.5750269	-2.709872e-10	0.0350023	0.0350023	0	13377.1875	13377.169	-7.036335e-06	689602.56	115434.75	-0.00025857662	115436.49	689603	-0.00016486988
0	0.57445717	0.5744563	-2.4487587e-10	0.034648612	0.034648612	0	13363.912	13363.894	-5.76087e-06	689762.8	114475.445	-0.0001670648	114477.16	689763.4	-0.00017962426
0	0.5738842	0.5738833	-9.414207e-11	0.034294393	0.034294393	0	13350.581	13350.5625	-2.0683497e-06	689922.2	113513.91	-8.964382e-05	113515.61	689922.75	-3.482943e-05
0	0.5733078	0.57330686	-2.3194097e-10	0.033940747	0.033940747	0	13337.175	13337.153	-5.7195502e-06	690080.8	112548.34	-0.00018320339	112550.04	690081.4	-0.00016099906
0	0.5727278	0.572727	-2.2631605e-10	0.03358806	0.03358806	0	13323.685	13323.664	-4.6082655e-06	690238.75	111578.586	-0.00016398627	111580.28	690239.25	-0.00011333907
0	0.5721449	0.5721442	-2.1635918e-10	0.03323373	0.03323373	0	13310.122	13310.1045	-6.7928804e-06	690395.8	110605.47	-0.00019420066	110607.15	690396.44	-0.00021459477
0	0.5715593	0.57155854	-2.8145772e-10	0.032880254	0.032880254	0	13296.498	13296.4795	-6.335369e-06	690551.8	109629.484	-0.00019184184	109631.13	690552.4	-0.00018942056
0	0.57097006	0.5709694	-2.9957198e-10	0.032526825	0.032526825	0	13282.792	13282.773	-7.602606e-06	690707.1	108649.336	-0.0003409855	108650.984	690707.7	-0.00011653917
0	0.5703781	0.5703774	-1.5843761e-10	0.03217318	0.03217318	0	13269.0205	13269.005	-2.4045598e-06	690861.56	107666.266	-0.00015527684	107667.9	690862.1	1.0570459e-05
0	0.5697827	0.5697819	-2.550685e-10	0.031819604	0.031819604	0	13255.167	13255.15	-6.428459e-06	691015.06	106679.03	-0.0002735057	106680.66	691015.7	-0.00011335886
0	0.5691843	0.5691836	-1.9539145e-10	0.03146628	0.03146628	0	13241.248	13241.2295	-5.576444e-06	691167.6	105688.766	-0.00015648518	105690.39	691168.2	-0.00017910513
0	0.5685823	0.5685816	-1.6287947e-10	0.031112675	0.031112675	0	13227.244	13227.229	-5.7719963e-06	691319.44	104694.26	-0.0002051883	104695.85	691320.06	-0.00014217033
0	0.56797725	0.5679765	-2.172318e-10	0.03075914	0.03075914	0	13213.167	13213.15	-5.1625907e-06	691470.1	103696.31	-0.00018533658	103697.914	691470.8	-0.00012534801
0	0.56736916	0.56736845	-3.5093592e-10	0.030405685	0.030405685	0	13199.021	13199.005	-6.809696e-06	691619.94	102695.305	-0.00039938264	102696.89	691620.6	-1.0424737e-05
0	0.56675744	0.5667567	-5.0173667e-11	0.030052165	0.030052165	0	13184.791	13184.773	-2.4496208e-06	691768.9	101689.914	-0.00015321934	101691.484	691769.56	5.8012124e-06
0	0.5661431	0.56614244	-8.5424015e-11	0.02969863	0.02969863	0	13170.5	13170.482	1.2501802e-06	691916.7	100682.13	-0.00016302918	100683.695	691917.25	0.000238265
0	0.5655243	0.5655236	-2.036981e-10	0.029344937	0.029344937	0	13156.104	13156.088	-4.6334017e-06	692063.75	99668.72	-0.00022486776	99670.25	692064.4	-5.397026e-05
0	0.5649028	0.56490207	-1.5963943e-10	0.028991615	0.028991615	0	13141.644	13141.628	-4.8914926e-06	692209.7	98652.64	-0.00024272579	98654.19	692210.3	-5.1644136e-05
0	0.56427765	0.56427705	-4.6095183e-11	0.02863734	0.02863734	0	13127.104	13127.086	-1.6254114e-06	692354.7	97632.48	-5.5480054e-05	97633.984	692355.4	-4.2337186e-05
0	0.5636497	0.5636491	-2.10877e-10	0.02828432	0.02828432	0	13112.495	13112.4795	-3.786104e-06	692498.5	96609.664	-0.00013132356	96611.164	692499.1	-9.65241e-05
0	0.56301785	0.56301713	-3.0690678e-10	0.027930891	0.027930891	0	13097.794	13097.779	-6.3122557e-06	692641.44	95582	-0.00024527533	95583.49	692642.06	-0.0001345961
0	0.5623826	0.562382	-1.3120578e-10	0.027576853	0.027576853	0	13083.015	13083.001	-2.061131e-06	692783.3	94550.766	-9.229102e-05	94552.25	692783.94	-3.1747808e-05
0	0.5617442	0.5617437	-1.9273684e-10	0.027223745	0.027223745	0	13068.166	13068.151	-4.1246553e-06	692924	93516.445	-0.00016083375	93517.914	692924.75	-8.738792e-05
0	0.5611021	0.56110144	-1.2417206e-10	0.026870366	0.026870366	0	13053.225	13053.211	-4.1899607e-06	693063.75	92477.58	-0.00013797762	92479.04	693064.44	-0.00011417412
0	0.56045663	0.56045604	-2.8776379e-10	0.026516303	0.026516303	0	13038.21	13038.198	-6.885556e-06	693202.3	91435.41	-0.00021192765	91436.85	693203.06	-0.00020244501
0	0.559808	0.55980754	-4.2720147e-10	0.026162993	0.026162993	0	13023.123	13023.11	-8.356974e-06	693339.75	90390.09	-0.00033723022	90391.53	693340.44	-0.00016569237
0	0.5591547	0.55915415	-2.9570407e-10	0.025809785	0.025809785	0	13007.922	13007.909	-6.077515e-06	693476.3	89338.77	-0.00019531569	89340.17	693477	-0.00017042905
0	0.55849826	0.5584978	-2.6356534e-10	0.025455585	0.025455585	0	12992.653	12992.643	-7.1053846e-06	693611.56	88284.66	-0.00022586012	88286.05	693612.25	-0.00020174179
0	0.55783874	0.55783826	-2.0028533e-10	0.025102511	0.025102511	0	12977.311	12977.299	-4.8542206e-06	693745.7	87227.18	-0.00014530485	87228.58	693746.44	-0.00014682206
0	0.55717534	0.55717486	-2.3158285e-10	0.024748323	0.024748323	0	12961.877	12961.865	-5.4801685e-06	693878.7	86165.52	-0.0002825026	86166.9	693879.25	-4.7293837e-05
0	0.55650806	0.5565076	-1.3834216e-10	0.024395015	0.024395015	0	12946.354	12946.342	-2.405436e-06	694010.4	85099.516	-0.00018108278	85100.87	694011.1	3.6323694e-05
0	0.5558381	0.5558377	-3.0410735e-10	0.024041759	0.024041759	0	12930.769	12930.758	-6.7782776e-06	694140.9	84031.21	-0.00030413008	84032.555	694141.56	-0.000103786566
0	0.5551628	0.5551623	-1.7242409e-10	0.023687836	0.023687836	0	12915.057	12915.047	-3.348899e-06	694270.4	82956.13	-9.871555e-05	82957.47	694271.1	-0.000102821155
0	0.5544845	0.5544841	-1.0400731e-10	0.023334505	0.023334505	0	12899.279	12899.268	-2.996705e-06	694398.56	81878.39	-0.00012063236	81879.695	694399.3	-5.9709295e-05
0	0.5538035	0.55380315	-3.2596964e-10	0.022981225	0.022981225	0	12883.436	12883.426	-6.7925603e-06	694525.25	80798.33	-0.00023995846	80799.63	694526	-0.0001688177
0	0.5531172	0.55311686	-1.04989094e-10	0.022627281	0.022627281	0	12867.471	12867.462	-1.9084957e-06	694651.06	79711.82	-0.00019287482	79713.11	694651.8	7.802159e-05
0	0.55242777	0.55242735	-2.2908812e-10	0.022273991	0.022273991	0	12851.432	12851.422	-8.650657e-06	694775.5	78622.125	-0.00028191958	78623.4	694776.1	-0.00023867674
0	0.55173486	0.55173457	-2.7668742e-10	0.021920623	0.021920623	0	12835.3125	12835.306	-7.8711455e-06	694898.5	77529.09	-0.00036550564	77530.34	694899.3	-0.00010817977
0	0.5510376	0.55103725	-2.5904748e-10	0.021566521	0.021566521	0	12819.092	12819.082	-6.753333e-06	695020.3	76431.08	-0.00016785185	76432.31	695021.06	-0.0002385636
0	0.5503363	0.55033594	-2.3573093e-10	0.021213416	0.021213416	0	12802.775	12802.768	-7.285621e-06	695140.9	75328.74	-0.0002458564	75329.95	695141.6	-0.00019259212
0	0.5496315	0.5496311	-2.2882807e-10	0.020859327	0.020859327	0	12786.379	12786.37	-7.242943e-06	695260	74222.875	-0.0002766212	74224.08	695260.7	-0.00015925897
0	0.5489235	0.5489231	-9.8993244e-11	0.020505939	0.020505939	0	12769.908	12769.902	-1.9182035e-06	695377.6	73114.016	-0.00014327808	73115.21	695378.44	2.7840635e-05
0	0.5482104	0.5482101	-1.7686415e-10	0.020152602	0.020152602	0	12753.319	12753.3125	-4.673181e-06	695494.06	71999.28	-0.00018440658	72000.46	695494.8	-9.682535e-05
0	0.5474943	0.54749405	-6.488664e-11	0.019798767	0.019798767	0	12736.662	12736.654	-7.2004616e-07	695609	70881.86	-0.00017554087	70883.016	695609.8	0.00013220852
0	0.5467732	0.54677296	-1.4048357e-10	0.019445421	0.019445421	0	12719.887	12719.881	-3.133552e-06	695722.7	69758.71	3.3216915e-05	69759.836	695723.5	-0.00022179399
0	0.54604876	0.5460484	-2.196722e-10	0.019092057	0.019092057	0	12703.031	12703.025	-7.738039e-06	695834.9	68632.234	-0.00032341853	68633.37	695835.56	-0.00014225651
0	0.5453197	0.54531944	-1.5173138e-10	0.018738272	0.018738272	0	12686.071	12686.065	-4.0692885e-06	695945.7	67500.84	-0.00019108204	67501.945	695946.44	-5.3807635e-05
0	0.5445874	0.54458714	-1.123692e-10	0.0183849	0.0183849	0	12669.037	12669.029	2.7295036e-07	696054.8	66366.44	-4.304712e-05	66367.516	696055.5	5.9473266e-05
0	0.5438504	0.54385024	-1.9861021e-10	0.018031422	0.018031422	0	12651.893	12651.888	-4.5493025e-06	696162.56	65226.99	-0.00019685195	65228.06	696163.4	-7.6925e-05
0	0.54310966	0.54310954	-1.8948546e-10	0.017677464	0.017677464	0	12634.659	12634.654	-4.0158134e-06	696268.9	64083.66	-0.00016749621	64084.71	696269.6	-7.417537e-05
0	0.5423646	0.5423645	-1.1592009e-10	0.017324306	0.017324306	0	12617.327	12617.322	-4.405175e-06	696373.6	62935.87	-0.00029099706	62936.918	696374.4	2.5893703e-05
0	0.5416152	0.541615	-1.8954158e-10	0.016970374	0.016970374	0	12599.892	12599.888	-4.2422607e-06	696476.9	61783.37	-0.0001640207	61784.395	696477.6	-9.127845e-05
0	0.5408622	0.5408621	-1.8290876e-10	0.016616864	0.016616864	0	12582.375	12582.373	-3.6019221e-06	696578.4	60627.664	-0.00019342512	60628.668	696579.3	-2.3338485e-05
0	0.54010373	0.5401035	-6.811408e-11	0.016263412	0.016263412	0	12564.7295	12564.725	-1.3129545e-06	696678.75	59465.543	-0.000115504496	59466.54	696679.4	3.6490917e-05
0	0.53934175	0.5393417	-1.8603902e-10	0.015909802	0.015909802	0	12547.003	12547	-4.504304e-06	696777.06	58300.32	-0.00018323804	58301.29	696777.94	-8.7830864e-05
0	0.53857595	0.5385758	-3.10481e-10	0.015556337	0.015556337	0	12529.1875	12529.1875	-7.3342135e-06	696873.9	57131.438	-0.0003131384	57132.387	696874.8	-0.00012823443
0	0.5378048	0.5378047	-3.2945902e-10	0.015202843	0.015202843	0	12511.248	12511.247	-7.3179726e-06	696969.3	55956.523	-0.00030265097	55957.46	696970.06	-0.00013774454
0	0.5370301	0.53703004	-6.090885e-11	0.014849315	0.014849315	0	12493.226	12493.225	-1.375989e-07	697062.8	54778.383	-0.00017271833	54779.31	697063.6	0.00016443762
0	0.536251	0.53625095	-1.0692143e-10	0.014495808	0.014495808	0	12475.104	12475.102	-1.700332e-06	697154.6	53595.88	-0.00016796676	53596.78	697155.56	6.5640816e-05
0	0.53546655	0.53546655	-3.3730876e-10	0.01414216	0.01414216	0	12456.852	12456.853	-7.5867138e-06	697245	52407.29	-0.0003206225	52408.17	697245.75	-0.0001359458
0	0.5346786	0.5346786	-2.3645583e-10	0.013788426	0.013788426	0	12438.521	12438.521	-6.106183e-06	697333.44	51215.703	-0.00029876077	51216.562	697334.25	-6.870921e-05
0	0.533886	0.53388596	-9.6465044e-11	0.013435183	0.013435183	0	12420.083	12420.084	-2.6955809e-06	697420.2	50019.332	-0.0001736306	50020.17	697421.06	1.1410595e-05
0	0.5330887	0.5330886	-1.7413539e-10	0.013081497	0.013081497	0	12401.536	12401.534	-4.283862e-06	697505.2	48818.06	-0.00021721561	48818.875	697506	-4.0587118e-05
0	0.53228706	0.5322871	-2.1039746e-10	0.012727792	0.012727792	0	12382.885	12382.885	-5.6414738e-06	697588.4	47612.586	-0.0002922856	47613.39	697589.25	-4.7218175e-05
0	0.5314807	0.53148085	-1.2208613e-10	0.012374162	0.012374162	0	12364.129	12364.131	-3.2412522e-06	697669.9	46402.496	-0.0001308728	46403.27	697670.7	-6.41857e-05
0	0.53066945	0.5306695	-1.3829211e-10	0.012020879	0.012020879	0	12345.255	12345.255	-3.1336572e-06	697749.5	45186.95	-0.00013955212	45187.715	697750.25	-4.9031296e-05
0	0.5298541	0.5298542	-1.3651077e-10	0.0116672525	0.0116672525	0	12326.287	12326.289	-5.820691e-06	697827.25	43967.81	-0.00040034114	43968.555	697828.06	5.005205e-05
0	0.52903396	0.529034	-1.6145082e-10	0.0113136405	0.0113136405	0	12307.206	12307.211	-4.6343807e-06	697903	42743.684	-0.0002885316	42744.41	697903.94	9.63465e-06
0	0.5282087	0.5282088	-1.1343674e-10	0.010960312	0.010960312	0	12288.01	12288.011	-2.0936282e-06	697977.06	41514.38	-0.00015387771	41515.09	697977.94	2.7883207e-05
0	0.52737886	0.527379	-1.3163964e-10	0.010606708	0.010606708	0	12268.705	12268.707	-4.034341e-06	698049.1	40280.59	-0.0001967198	40281.277	698050	-4.606676e-05
0	0.5265446	0.52654475	-2.0973077e-10	0.010252969	0.010252969	0	12249.297	12249.3	-5.1710804e-06	698119.3	39042.473	-0.00025963195	39043.137	698120.1	-5.156357e-05
0	0.5257053	0.5257054	-2.2487417e-10	0.009899383	0.009899383	0	12229.769	12229.772	-4.781451e-06	698187.44	37799.223	-0.0001818861	37799.87	698188.4	-0.00010586153
0	0.5248608	0.52486104	-1.10197886e-10	0.009546028	0.009546028	0	12210.125	12210.13	-3.0199517e-06	698253.7	36550.887	-0.00016271479	36551.508	698254.5	-1.9025847e-05
0	0.5240121	0.52401227	-1.443652e-10	0.00919245	0.00919245	0	12190.381	12190.385	-3.90989e-06	698317.9	35298.48	-0.00020488042	35299.086	698318.6	-3.0416693e-05
0	0.5231579	0.52315813	-2.3770055e-10	0.008838732	0.008838732	0	12170.51	12170.516	-6.1759943e-06	698380.06	34040.52	-0.0003191132	34041.1	698380.8	-5.255805e-05
0	0.52229875	0.522299	-1.0129305e-10	0.008485187	0.008485187	0	12150.523	12150.528	-3.4334832e-06	698440	32777.637	-0.00018038857	32778.195	698440.9	-2.6238391e-05
0	0.5214351	0.5214353	-1.0461039e-10	0.008131706	0.008131706	0	12130.431	12130.436	-3.513779e-06	698498.06	31510.5	-0.00017834098	31511.037	698498.9	-3.3118158e-05
0	0.5205662	0.5205665	-2.2391254e-10	0.0077781687	0.0077781687	0	12110.218	12110.224	-3.927254e-06	698553.9	30238.29	-0.00026699697	30238.805	698554.9	3.0654894e-05
0	0.5196925	0.51969284	-2.2037579e-10	0.0074246577	0.0074246577	0	12089.893	12089.898	-5.1253674e-06	698607.7	28961.352	-0.00027065206	28961.846	698608.56	-3.7792477e-05
0	0.5188134	0.5188137	-1.3152879e-10	0.00707108	0.00707108	0	12069.441	12069.449	-3.0066183e-06	698659.2	27679.05	-0.00023157948	27679.523	698660.1	5.0641243e-05