//mumax 3.10 [windows_amd64 go1.11.6(gc) CUDA-11.0]
//GPU info: NVIDIA GeForce RTX 3090(24575MB), CUDA Driver 11.7, cc=8.6, using cc=80 PTX
//(c) Arne Vansteenkiste, Dynamat LAB, Ghent University, Belgium
//This is free software without any warranty. See license.txt
//********************************************************************//
//  If you use mumax in any work or publication,                      //
//  we kindly ask you to cite the references in references.bib        //
//********************************************************************//
//output directory: r1;p0.5;a3.2e-07;l2.3000000000000002e-07;s2.out/
randSeed(2)
ThermSeed(2)
resolution := 2e-09
zResolution := 5e-09
a := 3.2e-07
gridSize := 320
gridDepth := 5
SetCellsize(resolution, resolution, zResolution)
SetGridsize(gridSize, gridSize, gridDepth)
SetPBC(16, 16, 0)
//resizing...
Msat = 700e3
Aex = 13e-12
alpha = 0.2
Bmax := 0.1
Bstep := Bmax / 500.0
TableAdd(B_ext)
TableAdd(m_full)
islandWidth := 8e-08
islandLength := 2.3000000000000002e-07
ellipseConstant := 5.7500000000000005e-08
hIsland := rect(islandLength-2*ellipseConstant, islandWidth)
hIsland = hIsland.add(ellipse(ellipseConstant*2, islandWidth).transl(islandLength/2-ellipseConstant, 0, 0))
hIsland = hIsland.add(ellipse(ellipseConstant*2, islandWidth).transl(-islandLength/2+ellipseConstant, 0, 0))
hIsland = hIsland.add(rect(7.998771475345021e-09, 7.998771475345021e-09).transl(7.495857010113648e-08, 3.8111635157497515e-08, 0))
hIsland = hIsland.add(rect(7.143688551882529e-09, 7.143688551882529e-09).transl(1.0524466511040945e-07, 2.22901650006352e-08, 0))
hIsland = hIsland.sub(rect(3.773450842536253e-09, 3.773450842536253e-09).transl(-7.170782031526003e-08, 3.875967560217372e-08, 0))
hIsland = hIsland.add(rect(8.600535412004493e-09, 8.600535412004493e-09).transl(-9.355472900802633e-08, -3.115952212058702e-08, 0))
hIsland = hIsland.add(rect(4.373653943110281e-09, 4.373653943110281e-09).transl(1.0681781890979725e-07, -2.0565938994739304e-08, 0))
hIsland = hIsland.sub(rect(5.897278765770023e-09, 5.897278765770023e-09).transl(8.419992814047851e-08, -3.5426143047784905e-08, 0))
hIsland = hIsland.sub(rect(5.783037897283833e-09, 5.783037897283833e-09).transl(1.1427525429180591e-07, -6.330836111531779e-09, 0))
hIsland = hIsland.add(rect(4.560847256573294e-09, 4.560847256573294e-09).transl(-3.343904707987966e-08, 4e-08, 0))
hIsland = hIsland.add(rect(4.638664647180809e-09, 4.638664647180809e-09).transl(-1.0642684025510837e-07, -2.1013006210830838e-08, 0))
hIsland = hIsland.sub(rect(7.401402255678514e-09, 7.401402255678514e-09).transl(7.049712138712704e-08, -3.896474966307578e-08, 0))
hIsland = hIsland.add(rect(6.363418333975064e-09, 6.363418333975064e-09).transl(3.454317658965629e-08, -4e-08, 0))
hIsland = hIsland.sub(rect(8.649489082745521e-09, 8.649489082745521e-09).transl(5.1105265087680624e-08, -4e-08, 0))
hIsland = hIsland.add(rect(7.3185990936930155e-09, 7.3185990936930155e-09).transl(-9.829516520272517e-08, 2.8188977152190868e-08, 0))
hIsland = hIsland.sub(rect(6.606358856020186e-09, 6.606358856020186e-09).transl(-1.124187040425204e-08, 4e-08, 0))
hIsland = hIsland.sub(rect(1.1732503573730047e-09, 1.1732503573730047e-09).transl(1.5352367903490855e-08, 4e-08, 0))
hIsland = hIsland.add(rect(4.168414145829596e-09, 4.168414145829596e-09).transl(-8.544397951231673e-08, 3.495874712546255e-08, 0))
hIsland = hIsland.add(rect(2.86968528250776e-09, 2.86968528250776e-09).transl(-8.696622431725867e-08, 3.4348537578436106e-08, 0))
hIsland = hIsland.sub(rect(1.0697358371337306e-09, 1.0697358371337306e-09).transl(-1.2878011427571268e-08, -4e-08, 0))
hIsland = hIsland.sub(rect(8.992147696701498e-09, 8.992147696701498e-09).transl(8.626559564628291e-08, -3.463475012882923e-08, 0))
hIsland = hIsland.add(rect(9.864228060844926e-09, 9.864228060844926e-09).transl(-9.143831756653178e-08, -3.228935791819116e-08, 0))
hIsland = hIsland.add(rect(1.5846541446043606e-09, 1.5846541446043606e-09).transl(1.1201943881158243e-07, 1.2711238397661162e-08, 0))
hIsland = hIsland.add(rect(7.2157174817607e-09, 7.2157174817607e-09).transl(-8.140515560790328e-08, -3.6379306760877033e-08, 0))
hIsland = hIsland.sub(rect(6.237749664248924e-09, 6.237749664248924e-09).transl(4.7976434215680573e-08, 4e-08, 0))
hIsland = hIsland.add(rect(6.836615168350946e-09, 6.836615168350946e-09).transl(2.8976006143493244e-08, 4e-08, 0))
hIsland = hIsland.add(rect(9.1133637967216e-09, 9.1133637967216e-09).transl(6.437882183489909e-08, -3.971273367901915e-08, 0))
hIsland = hIsland.add(rect(7.035101497408758e-10, 7.035101497408758e-10).transl(-2.2015872792316223e-08, 4e-08, 0))
hIsland = hIsland.sub(rect(2.453308811007813e-09, 2.453308811007813e-09).transl(9.220608873882057e-08, 3.189197194227293e-08, 0))
hIsland = hIsland.sub(rect(5.686514668861795e-09, 5.686514668861795e-09).transl(-5.805798999833015e-08, 3.9998116535841614e-08, 0))
hIsland = hIsland.sub(rect(3.588008794956843e-10, 3.588008794956843e-10).transl(-6.448203816372236e-08, -3.970401580134467e-08, 0))
hIsland = hIsland.add(rect(3.4374642072626263e-09, 3.4374642072626263e-09).transl(7.511674568183632e-08, 3.80763949403539e-08, 0))
hIsland = hIsland.sub(rect(8.076321254351241e-09, 8.076321254351241e-09).transl(8.127352493773535e-08, -3.64210256035315e-08, 0))
hIsland = hIsland.sub(rect(7.509085554299013e-09, 7.509085554299013e-09).transl(6.801665381575617e-08, 3.932527333705427e-08, 0))
hIsland = hIsland.add(rect(8.443369389079805e-09, 8.443369389079805e-09).transl(3.2385101141174575e-08, 4e-08, 0))
hIsland = hIsland.sub(rect(7.1267765118193065e-09, 7.1267765118193065e-09).transl(3.357601401799038e-08, 4e-08, 0))
hIsland = hIsland.sub(rect(2.9182795553064565e-09, 2.9182795553064565e-09).transl(5.563731022982714e-08, 4e-08, 0))
hIsland = hIsland.sub(rect(4.5943630503866106e-09, 4.5943630503866106e-09).transl(-2.6557291035108974e-08, 4e-08, 0))
hIsland = hIsland.sub(rect(7.2813365335026236e-09, 7.2813365335026236e-09).transl(-4.1979810531172914e-08, -4e-08, 0))
hIsland = hIsland.add(rect(6.397966338733815e-09, 6.397966338733815e-09).transl(1.1036354205295086e-07, 1.573613687203216e-08, 0))
hIsland = hIsland.sub(rect(1.5371813947525948e-09, 1.5371813947525948e-09).transl(-7.296114163609258e-08, -3.852684217409229e-08, 0))
hIsland = hIsland.add(rect(9.912738774125308e-10, 9.912738774125308e-10).transl(7.207447788031169e-08, -3.869373850168298e-08, 0))
hIsland = hIsland.sub(rect(1.8237319651337158e-09, 1.8237319651337158e-09).transl(7.922357526908913e-08, 3.7035467776648996e-08, 0))
hIsland = hIsland.add(rect(8.702496041590023e-09, 8.702496041590023e-09).transl(3.818407926772049e-08, 4e-08, 0))
hIsland = hIsland.add(rect(1.9088873081285595e-09, 1.9088873081285595e-09).transl(-8.407601002682854e-08, 3.5471206057685286e-08, 0))
hIsland = hIsland.add(rect(9.775616754278579e-09, 9.775616754278579e-09).transl(9.439597873659596e-08, 3.06792605817091e-08, 0))
hIsland = hIsland.sub(rect(1.5050884326265634e-09, 1.5050884326265634e-09).transl(-6.825266302114087e-08, 3.92943749591874e-08, 0))
hIsland = hIsland.add(rect(5.282585387542827e-09, 5.282585387542827e-09).transl(-8.843389707580042e-08, 3.371828319948875e-08, 0))
hIsland = hIsland.add(rect(3.5242766817025373e-09, 3.5242766817025373e-09).transl(9.188357403980206e-08, -3.206058413334633e-08, 0))
hIsland = hIsland.sub(rect(5.672058910573029e-09, 5.672058910573029e-09).transl(-2.906172806775277e-08, -4e-08, 0))
hIsland = hIsland.sub(rect(9.485182376323972e-09, 9.485182376323972e-09).transl(-1.0629822259814427e-08, -4e-08, 0))
hIsland = hIsland.add(rect(7.70949277624673e-09, 7.70949277624673e-09).transl(-4.456197654526357e-08, -4e-08, 0))
vIsland := hIsland.rotz(pi / 2)
vIslands := Universe().Inverse()
hIslands := Universe().Inverse()
hIslands = hIslands.add(hIsland.transl(-a/2, a, 0))
hIslands = hIslands.add(hIsland.transl(-a/2, -a, 0))
hIslands = hIslands.add(hIsland.transl(a/2, a, 0))
hIslands = hIslands.add(hIsland.transl(a/2, -a, 0))
hIslands = hIslands.add(hIsland.transl(-a/2, 0, 0))
hIslands = hIslands.add(hIsland.transl(a/2, 0, 0))
vIslands = vIslands.add(vIsland.transl(-a, a/2, 0))
vIslands = vIslands.add(vIsland.transl(a, a/2, 0))
vIslands = vIslands.add(vIsland.transl(-a, -a/2, 0))
vIslands = vIslands.add(vIsland.transl(a, -a/2, 0))
vIslands = vIslands.add(vIsland.transl(0, a/2, 0))
vIslands = vIslands.add(vIsland.transl(0, -a/2, 0))
DefRegion(1, hIslands)
DefRegion(2, vIslands)
TableAdd(m_full.Region(1))
TableAdd(m_full.Region(2))
setgeom(hIslands.add(vIslands))
save(m)
r2o2 := sqrt(2) / 2
m = RandomMagSeed(4)
B_ext = vector(Bmax*r2o2, Bmax*r2o2, 0)
relax()
minimize()
for B := Bmax; B >= -Bmax; B -= Bstep {
	B_ext = vector(B*r2o2, B*r2o2, 0)
	minimize()
	tablesave()
}
//********************************************************************//
//Please cite the following references, relevant for your simulation. //
//See bibtex file in output folder for justification.                 //
//********************************************************************//
//   * Vansteenkiste et al., AIP Adv. 4, 107133 (2014).
//   * Exl et al., J. Appl. Phys. 115, 17D118 (2014).
