# t (s)	mx ()	my ()	mz ()	B_extx (T)	B_exty (T)	B_extz (T)	m_fullx (A/m)	m_fully (A/m)	m_fullz (A/m)	m_full.region1x (A/m)	m_full.region1y (A/m)	m_full.region1z (A/m)	m_full.region2x (A/m)	m_full.region2y (A/m)	m_full.region2z (A/m)
0	0.64795494	0.64472926	5.157681e-10	0.07071089	0.07071089	0	64183.53	63864.016	5.0453516e-05	650516.75	253657.05	-0.00021617294	256335.94	649249.2	0.0009300834
0	0.6478409	0.64461315	-3.514864e-10	0.0705691	0.0705691	0	64172.242	63852.51	-3.628118e-05	650620.2	253391.28	-0.00027922337	256072.58	649352.7	-0.00025056125
0	0.64772254	0.644493	-4.7374255e-10	0.070427895	0.070427895	0	64160.51	63840.6	-4.393424e-05	650727.6	253115.58	-0.000336269	255799.17	649460.3	-0.0003046825
0	0.64760363	0.6443722	-4.5081952e-10	0.07028655	0.07028655	0	64148.742	63828.645	-4.3650794e-05	650835.25	252838.94	-0.00036729383	255524.81	649568.1	-0.00029265555
0	0.6474845	0.6442511	-2.1776875e-10	0.07014486	0.07014486	0	64136.94	63816.656	-2.3809524e-05	650942.94	252561.84	-0.00017814251	255250.06	649676.1	-0.00015234125
0	0.6473648	0.64412946	-5.119476e-10	0.07000352	0.07000352	0	64125.08	63804.598	-5.0453516e-05	651050.94	252283.61	-0.0003282626	254974.17	649784.25	-0.0004249519
0	0.64724547	0.6440081	-5.7307564e-10	0.0698623	0.0698623	0	64113.258	63792.582	-5.442177e-05	651158.4	252006.39	-0.00040232186	254699.22	649891.9	-0.00041292494
0	0.6471254	0.64388627	-3.1328137e-10	0.06972052	0.06972053	0	64101.363	63780.5	-2.9478459e-05	651266.3	251727.89	-0.00033827062	254423.06	650000	-8.8197565e-05
0	0.64700496	0.6437638	-4.6992205e-10	0.06957919	0.06957919	0	64089.43	63768.375	-4.648526e-05	651374.25	251448.62	-0.00036829463	254146.12	650108.25	-0.00029666454
0	0.646884	0.643641	-3.9733247e-10	0.06943796	0.069437966	0	64077.46	63756.22	-4.0249433e-05	651482.5	251168.64	-0.000316253	253868.5	650216.6	-0.00024855675
0	0.64676285	0.64351785	-3.362044e-10	0.06929659	0.0692966	0	64065.45	63744.016	-3.287982e-05	651590.75	250888.02	-0.00032125702	253590.22	650325	-0.00016035921
0	0.64664173	0.6433949	-4.6610155e-10	0.06915495	0.06915495	0	64053.46	63731.832	-4.4217686e-05	651698.56	250608.19	-0.00038430744	253312.69	650433	-0.00030869147
0	0.6465202	0.6432714	-2.0630724e-10	0.069013596	0.069013596	0	64041.426	63719.61	-1.8707484e-05	651806.7	250327.27	-0.00021617294	253034.14	650541.3	-6.8152665e-05
0	0.6463977	0.643147	-3.7440945e-10	0.06887225	0.06887225	0	64029.285	63707.285	-3.628118e-05	651915.3	250044.44	-0.00035028023	252753.61	650650.25	-0.00019644003
0	0.6462757	0.643023	-3.362044e-10	0.06873061	0.06873061	0	64017.195	63695.008	-3.2312924e-05	652023.4	249762.86	-0.00036028822	252474.4	650758.56	-0.000108242464
0	0.6461524	0.6428979	-1.3753816e-10	0.068589255	0.06858926	0	64004.99	63682.605	-1.3038549e-05	652132.4	249478.73	-9.607686e-05	252192.64	650867.8	-8.6193075e-05
0	0.6460299	0.64277333	-5.5397315e-10	0.06844802	0.06844802	0	63992.848	63670.277	-5.6122448e-05	652240.44	249196.56	-0.00048638912	251912.78	650975.94	-0.0003046825
0	0.6459063	0.6426479	-3.2092237e-10	0.06830668	0.06830668	0	63980.617	63657.848	-3.2312924e-05	652349	248912.36	-0.00026421138	251630.95	651084.75	-0.00020044901
0	0.6457825	0.64252216	-2.0248674e-10	0.06816502	0.06816503	0	63968.348	63645.395	-1.7006803e-05	652457.94	248627.38	-6.805445e-05	251348.28	651194	-0.00021448043
0	0.6456584	0.64239615	-3.9733247e-10	0.06802368	0.06802368	0	63956.05	63632.91	-3.9682538e-05	652566.6	248342.3	-0.00028622898	251065.6	651302.94	-0.00024855675
0	0.64553416	0.64227	-3.9733247e-10	0.06788234	0.06788234	0	63943.74	63620.41	-4.0249433e-05	652675.3	248056.98	-0.00023218575	250782.62	651411.8	-0.00036882618
0	0.64540875	0.64214265	-2.4069177e-10	0.067740686	0.06774069	0	63931.324	63607.805	-2.3809524e-05	652784.7	247769.52	-0.00020516413	250497.52	651521.44	-0.00014031431
0	0.64528364	0.64201564	-3.6676842e-10	0.06759931	0.06759931	0	63918.926	63595.21	-3.45805e-05	652893.7	247482.67	-0.00039731787	250212.95	651630.6	-0.000108242464
0	0.64515835	0.64188856	-3.400249e-10	0.0674581	0.0674581	0	63906.52	63582.62	-3.344671e-05	653002.5	247195.88	-0.0003202562	249928.56	651739.75	-0.00014031431
0	0.645033	0.64176124	-2.4069177e-10	0.06731675	0.06731675	0	63894.11	63570.016	-2.3526078e-05	653111.25	246909.1	-0.00027722178	249644.16	651848.6	-9.6215525e-05
0	0.64490676	0.6416331	-3.1328137e-10	0.06717498	0.06717498	0	63881.598	63557.324	-2.8911565e-05	653220.44	246620.38	-0.00020416333	249357.77	651958.1	-0.00022049391
0	0.6447805	0.6415049	-4.7374255e-10	0.06703377	0.06703377	0	63869.09	63544.62	-4.4217686e-05	653329.44	246331.94	-0.00041633306	249071.67	652067.5	-0.00023252085
0	0.6446535	0.641376	-2.7889682e-10	0.06689241	0.06689241	0	63856.516	63531.85	-2.8061224e-05	653438.8	246042.16	-0.00019015212	248784.3	652177.1	-0.00022851187
0	0.644526	0.6412466	-2.1012775e-10	0.06675074	0.06675074	0	63843.88	63519.03	-1.5873016e-05	653548.56	245751.31	-0.0001591273	248495.81	652287.06	-7.2161645e-05
0	0.64439934	0.641118	-3.7822995e-10	0.0666094	0.0666094	0	63831.332	63506.305	-3.798186e-05	653657.1	245462.72	-0.00028072458	248209.56	652396	-0.00028864658
0	0.6442716	0.6409884	-2.1012775e-10	0.06646817	0.06646817	0	63818.684	63493.47	-1.9841269e-05	653766.44	245171.97	-0.00020016012	247921.17	652505.6	-8.6193075e-05
0	0.64414275	0.6408575	-6.876908e-11	0.06632641	0.06632641	0	63805.91	63480.5	-7.3696147e-06	653876.56	244878.61	-2.7021617e-05	247630.2	652615.94	-8.0179605e-05
0	0.6440146	0.6407276	-3.9733247e-10	0.066185065	0.066185065	0	63793.23	63467.62	-4.0816325e-05	653985.8	244587.44	-0.000336269	247341.38	652725.5	-0.00020846697
0	0.6438858	0.6405968	-3.5912742e-10	0.06604384	0.06604384	0	63780.46	63454.68	-3.9682538e-05	654095.4	244294.81	-0.00035228182	247051.14	652835.3	-0.00018040411
0	0.6437559	0.6404651	-2.521533e-10	0.06590246	0.06590246	0	63767.598	63441.617	-2.7210885e-05	654205.5	244000.1	-0.00028823057	246758.84	652945.9	-0.000104233484
0	0.6436266	0.6403338	-3.8969145e-10	0.065760836	0.065760836	0	63754.785	63428.62	-3.798186e-05	654315.2	243706.78	-0.0002722178	246467.83	653055.75	-0.00028864658
0	0.64349663	0.64020205	-3.323839e-10	0.06561947	0.065619476	0	63741.914	63415.562	-3.1746033e-05	654424.9	243412.44	-0.00019415532	246175.89	653165.9	-0.0002645927
0	0.6433664	0.64006996	-1.1079463e-10	0.06547826	0.06547826	0	63729.02	63402.484	-1.2471655e-05	654534.7	243117.77	-0.00017313851	245883.6	653275.9	2.8062861e-05
0	0.64323574	0.6399374	-4.5081952e-10	0.065336496	0.065336496	0	63716.074	63389.355	-4.5351473e-05	654644.7	242822.25	-0.00035228182	245590.44	653386.25	-0.00027661963
0	0.64310503	0.63980466	-3.9733247e-10	0.06519514	0.06519514	0	63703.117	63376.207	-3.9399092e-05	654754.5	242526.66	-0.0003122498	245297.23	653496.3	-0.00028864658
0	0.6429732	0.63967097	-2.8271732e-10	0.065053925	0.065053925	0	63690.07	63362.97	-2.8344672e-05	654864.8	242229.05	-0.00022017614	245002.02	653607.06	-0.00023252085
0	0.6428417	0.63953775	-5.6543464e-10	0.064912535	0.064912535	0	63677.04	63349.758	-6.0090704e-05	654974.75	241932.42	-0.00042433947	244707.77	653717.2	-0.00041292494
0	0.6427094	0.6394034	-4.4699902e-10	0.06477091	0.06477091	0	63663.934	63336.457	-4.5351473e-05	655085.1	241634.08	-0.00034227382	244411.78	653828	-0.00032873638
0	0.64257693	0.63926905	-3.2856337e-10	0.064629555	0.064629555	0	63650.81	63323.152	-3.2312924e-05	655195.4	241335.73	-0.00026421138	244115.86	653938.5	-0.00022450289
0	0.6424443	0.63913465	-2.8653782e-10	0.064488195	0.0644882	0	63637.68	63309.84	-2.6077098e-05	655305.44	241037.42	-0.0002722178	243819.92	654048.94	-0.000112251444
0	0.6423108	0.63899916	-4.1261447e-10	0.064346574	0.064346574	0	63624.45	63296.418	-4.336735e-05	655416.06	240737.08	-0.00028823057	243522.02	654159.8	-0.00034878126
0	0.6421775	0.6388641	-3.1328137e-10	0.06420522	0.06420522	0	63611.25	63283.03	-3.1746033e-05	655526.2	240437.7	-0.0002722178	243225.02	654270.4	-0.00018842207
0	0.64204323	0.6387278	-2.8653782e-10	0.06406397	0.06406397	0	63597.945	63269.54	-2.8911565e-05	655637.06	240136.17	-0.000336269	242925.88	654381.44	-7.6170625e-05
0	0.641909	0.63859177	-2.9799935e-10	0.063922614	0.063922614	0	63584.656	63256.06	-2.9478459e-05	655747.4	239835.23	-0.0002722178	242627.33	654492.3	-0.00015635023
0	0.6417748	0.6384557	-3.7440945e-10	0.06378099	0.06378099	0	63571.355	63242.582	-3.2312924e-05	655857.7	239534.38	-0.00024019215	242328.81	654602.9	-0.00024053881
0	0.6416395	0.6383185	-9.1692105e-11	0.06363964	0.06363963	0	63557.95	63228.992	-1.0204081e-05	655968.6	239231.33	-0.00012810249	242028.14	654714.2	4.0089803e-06
0	0.6415046	0.63818175	-4.7374255e-10	0.06349827	0.06349827	0	63544.59	63215.445	-4.7902493e-05	656078.8	238929.66	-0.000336269	241728.9	654824.75	-0.00036080822
0	0.64136875	0.63804406	-4.0497347e-10	0.06335665	0.06335665	0	63531.145	63201.805	-4.0249433e-05	656189.6	238625.94	-0.00039231384	241427.6	654935.94	-0.00021247595
0	0.6412327	0.6379061	-3.362044e-10	0.06321528	0.06321527	0	63517.67	63188.15	-3.45805e-05	656300.44	238322.08	-0.00021617294	241126.12	655047	-0.00026860167
0	0.6410964	0.6377679	-4.966656e-11	0.063074045	0.063074045	0	63504.156	63174.457	-1.984127e-06	656411.06	238017.84	-7.005604e-05	240824.3	655158.06	-1.8040411e-05
0	0.640956	0.6376256	-4.5846052e-10	0.062932685	0.062932685	0	63490.246	63160.355	-4.478458e-05	656524.8	237704.67	-0.00036829463	240513.56	655272.25	-0.0002826331
0	0.6408203	0.6374881	-2.7889682e-10	0.062790945	0.062790945	0	63476.81	63146.73	-2.7210885e-05	656634.44	237402.38	-0.00025620498	240213.64	655382.3	-0.00013229635
0	0.64068234	0.63734823	-3.0181985e-10	0.06264972	0.06264972	0	63463.137	63132.883	-3.0612246e-05	656745.75	237095.17	-0.00028322657	239908.83	655494.06	-0.00018040411
0	0.64054424	0.63720834	-3.2856337e-10	0.06250835	0.06250835	0	63449.465	63119.027	-3.5147394e-05	656856.8	236788.25	-0.00020016012	239604.33	655605.5	-0.00029666454
0	0.6404057	0.637068	-2.6743532e-10	0.062366717	0.062366717	0	63435.742	63105.113	-2.494331e-05	656968.1	236480.25	-0.00015212169	239298.72	655717.2	-0.00022049391
0	0.64026684	0.6369272	-3.6676842e-10	0.062225346	0.062225346	0	63421.992	63091.176	-3.628118e-05	657079.25	236171.9	-0.00027321858	238992.8	655828.75	-0.0002645927
0	0.64012897	0.63678753	-3.2856337e-10	0.062084123	0.062084123	0	63408.336	63077.34	-3.344671e-05	657189.25	235866.23	-0.0003282626	238689.58	655939.2	-0.00016837717
0	0.6399898	0.6366465	-2.8653782e-10	0.06194238	0.061942384	0	63394.543	63063.363	-2.8344672e-05	657300.5	235557.52	-0.00017614091	238383.19	656050.75	-0.00023652983
0	0.6398495	0.6365043	-4.278965e-10	0.061801013	0.061801016	0	63380.65	63049.285	-4.2517007e-05	657412.1	235246.7	-0.00028022417	238074.81	656162.75	-0.00033274535
0	0.6397095	0.6363625	-3.2092237e-10	0.0616598	0.061659798	0	63366.78	63035.24	-2.9478459e-05	657523.2	234936.94	-0.00028823057	237767.45	656274.25	-0.00014031431
0	0.6395666	0.63621765	-3.1328137e-10	0.061518397	0.061518397	0	63352.63	63020.895	-3.344671e-05	657636.4	234620.9	-0.00030424338	237453.88	656387.9	-0.00018842207
0	0.6394258	0.636075	-5.195886e-10	0.0613768	0.0613768	0	63338.684	63006.766	-4.988662e-05	657747.56	234309.89	-0.0004643715	237145.25	656499.6	-0.0002625882
0	0.63928425	0.6359316	-3.7440945e-10	0.061235435	0.061235435	0	63324.656	62992.555	-3.798186e-05	657859.2	233997.39	-0.00024819857	236835.17	656611.7	-0.00028062862
0	0.6391424	0.6357879	-2.2158926e-10	0.061094068	0.061094064	0	63310.594	62978.32	-2.0975056e-05	657970.7	233684.42	-0.00020816653	236524.6	656723.6	-0.000106237974
0	0.63900006	0.63564366	-2.483328e-10	0.060952473	0.060952473	0	63296.496	62964.035	-2.3526078e-05	658082.44	233370.73	-0.0001681345	236213.34	656835.75	-0.00016436819
0	0.63885874	0.63550055	-3.8205045e-10	0.060811106	0.060811106	0	63282.5	62949.86	-3.6848072e-05	658192.9	233059.69	-0.00023218575	235904.75	656946.6	-0.00031270046
0	0.6387167	0.6353567	-4.5846052e-10	0.06066984	0.06066984	0	63268.438	62935.61	-4.591837e-05	658303.94	232747.25	-0.00042433947	235594.66	657058.2	-0.0002645927
0	0.63857293	0.6352112	-2.8271732e-10	0.060528476	0.060528483	0	63254.207	62921.195	-2.6077098e-05	658415.9	232431.33	-0.00021216973	235281.12	657170.7	-0.00016637267
0	0.63842875	0.63506514	-3.7440945e-10	0.060386874	0.060386874	0	63239.914	62906.727	-3.628118e-05	658528.06	232114.5	-0.00036028822	234966.77	657283.25	-0.00015434573
0	0.63828415	0.6349187	-3.8969145e-10	0.06024551	0.060245506	0	63225.59	62892.223	-3.854875e-05	658640.2	231797.12	-0.00037630103	234651.8	657395.9	-0.00019443553
0	0.6381394	0.6347721	-4.355375e-10	0.06010415	0.06010415	0	63211.254	62877.707	-4.2517007e-05	658752.2	231479.88	-0.0002722178	234336.97	657508.3	-0.0003427678
0	0.637995	0.634626	-5.7307565e-11	0.059962556	0.05996255	0	63196.94	62863.22	-7.3696147e-06	658863.6	231163.58	-4.803843e-05	234023.08	657620.25	-4.0089802e-05
0	0.6378496	0.6344788	-1.7956371e-10	0.059821155	0.05982115	0	63182.55	62848.645	-2.154195e-05	658975.5	230845.42	-8.8070454e-05	233707.38	657732.6	-0.00021648493
0	0.6377036	0.63433087	-3.400249e-10	0.05967992	0.05967992	0	63168.086	62833.992	-3.287982e-05	659087.6	230526.1	-0.0002682146	233390.47	657845.25	-0.00024053881
0	0.63755727	0.63418275	-4.8138354e-10	0.059538547	0.059538547	0	63153.59	62819.332	-4.4217686e-05	659199.8	230206.45	-0.00044835868	233073.2	657957.9	-0.00018040411
0	0.63740987	0.6340335	-4.8138354e-10	0.059396822	0.059396822	0	63138.99	62804.543	-4.8752834e-05	659312.56	229884.5	-0.00042433947	232753.72	658071.1	-0.0002846376
0	0.63726324	0.633885	-2.1776875e-10	0.059255593	0.059255593	0	63124.465	62789.832	-2.494331e-05	659424.4	229564.58	-0.0003222578	232436.2	658183.5	-8.017961e-06
0	0.6371152	0.6337352	-4.4317852e-10	0.05911421	0.05911421	0	63109.793	62774.99	-4.1950112e-05	659537.06	229241.88	-0.0003442754	232115.94	658296.75	-0.00027661963
0	0.636966	0.6335843	-1.7956371e-10	0.058972597	0.058972597	0	63095.03	62760.04	-1.7573697e-05	659650.2	228917.27	-9.607686e-05	231793.78	658410.44	-0.00013630533
0	0.6368188	0.63343513	-4.0879397e-10	0.058831234	0.058831234	0	63080.44	62745.27	-4.1099775e-05	659761.6	228596.89	-0.00033426742	231475.84	658522.3	-0.0002846376
0	0.6366705	0.6332851	-3.8205045e-10	0.058689993	0.058689993	0	63065.75	62730.406	-3.45805e-05	659873.8	228274.44	-0.00030424338	231155.77	658635	-0.00023252085
0	0.6365206	0.6331335	-1.9102522e-10	0.058548275	0.058548275	0	63050.914	62715.395	-1.7573697e-05	659986.75	227949.12	-0.000120096076	230832.9	658748.44	-0.00015234125
0	0.6363716	0.63298255	-3.8969145e-10	0.058406897	0.058406897	0	63036.137	62700.445	-3.599773e-05	660098.75	227625.47	-0.00026421138	230511.69	658861.06	-0.00024053881
0	0.63621944	0.63282853	-4.0497347e-10	0.05826567	0.05826567	0	63021.066	62685.188	-4.1950112e-05	660212.9	227295.52	-0.00036829463	230184.2	658975.75	-0.00022249839
0	0.63606864	0.632676	-3.9351195e-10	0.058124255	0.058124255	0	63006.13	62670.074	-4.0816325e-05	660325.7	226968.88	-0.0003202562	229859.98	659089.1	-0.00022851187
0	0.6359176	0.6325231	-2.4451227e-10	0.05798269	0.05798269	0	62991.168	62654.93	-2.579365e-05	660438.44	226641.84	-0.00024819857	229535.36	659202.44	-0.00012427838
0	0.6357675	0.63237125	-4.8902454e-10	0.05784131	0.057841305	0	62976.305	62639.883	-4.648526e-05	660549.94	226317.45	-0.00036228984	229213.47	659314.44	-0.00032873638
0	0.63561493	0.632217	-3.438454e-10	0.057699926	0.057699926	0	62961.188	62624.61	-3.4013607e-05	660663.44	225987.77	-0.0002722178	228886.14	659428.56	-0.00023051635
0	0.63546425	0.6320644	-6.036397e-10	0.057558365	0.057558354	0	62946.27	62609.5	-6.0090704e-05	660774.94	225662.52	-0.00056845474	228563.33	659540.6	-0.00033474984
0	0.6353123	0.63191074	-3.2474287e-10	0.057416975	0.057416983	0	62931.203	62594.27	-3.0612246e-05	660887.44	225334.52	-0.0003442754	228237.77	659653.6	-0.00013229635
0	0.635159	0.63175565	-1.1079463e-10	0.057275712	0.05727571	0	62916.027	62578.906	-1.0204081e-05	661000.4	225004.23	-0.00023218575	227909.92	659767.1	6.4143685e-05
0	0.63500553	0.6316005	-3.0946085e-10	0.057134338	0.057134338	0	62900.824	62563.54	-3.0612246e-05	661113.3	224673.77	-0.00026421138	227581.86	659880.7	-0.00019243105
0	0.63484955	0.6314427	-3.2856337e-10	0.056992773	0.056992773	0	62885.38	62547.906	-3.4013607e-05	661227.75	224338.22	-0.0003442754	227248.75	659995.7	-0.00016436819
0	0.63469696	0.6312884	-3.9733247e-10	0.056851387	0.056851387	0	62870.266	62532.62	-4.0249433e-05	661339.2	224010.47	-0.00029623698	226923.45	660107.7	-0.00027661963
0	0.63454235	0.63113195	-1.6428169e-10	0.056710005	0.056710005	0	62854.94	62517.117	-1.5873016e-05	661452.25	223677.92	-0.00025420336	226593.3	660221.56	5.4121232e-05
0	0.6343874	0.6309752	-4.5846052e-10	0.056568444	0.056568444	0	62839.586	62501.6	-4.7619047e-05	661565.06	223345.47	-0.0003122498	226263.3	660335	-0.0003387588
0	0.63423145	0.6308176	-5.883577e-10	0.056427024	0.056427024	0	62824.152	62485.992	-5.8956917e-05	661678.3	223011.33	-0.000336269	225931.58	660448.8	-0.0004830821
0	0.634076	0.63066036	-3.362044e-10	0.05628579	0.05628579	0	62808.75	62470.41	-3.4013607e-05	661790.94	222678.19	-0.000316253	225600.88	660562.06	-0.00018040411
0	0.63391924	0.6305018	-1.2989715e-10	0.056144398	0.056144398	0	62793.22	62454.71	-1.1904762e-05	661904.3	222342.64	-0.00015212169	225267.78	660676	-1.2026941e-05
0	0.633762	0.63034296	-4.355375e-10	0.0560027	0.0560027	0	62777.656	62438.965	-4.0816325e-05	662017.56	222006.62	-0.00028823057	224934.19	660789.94	-0.0003006735
0	0.6336043	0.6301834	-3.6294792e-10	0.05586147	0.05586147	0	62762.02	62423.164	-3.599773e-05	662131	221669.39	-0.0002722178	224599.4	660904.06	-0.00025457024
0	0.6334471	0.6300245	-2.3687127e-10	0.05572008	0.05572008	0	62746.465	62407.438	-2.4376417e-05	662243.6	221334.08	-0.00021617294	224266.53	661017.4	-0.00016436819
0	0.6332882	0.6298639	-5.5779364e-10	0.05557853	0.05557853	0	62730.715	62391.516	-5.442177e-05	662357.44	220995	-0.00039431546	223929.89	661131.8	-0.0004229474
0	0.63312984	0.62970376	-4.8902454e-10	0.055437103	0.055437103	0	62715.03	62375.66	-4.931973e-05	662470.44	220657.62	-0.000336269	223594.94	661245.4	-0.0003407633
0	0.6329688	0.62954104	-3.0946085e-10	0.05529587	0.05529587	0	62699.074	62359.535	-3.2312924e-05	662585.1	220314.69	-0.000336269	223254.47	661360.75	-0.00013229635
0	0.6328108	0.6293813	-3.8205045e-10	0.055154487	0.055154484	0	62683.43	62343.707	-3.854875e-05	662697.2	219978.61	-0.00023218575	222920.81	661473.5	-0.00031570718
0	0.63264906	0.6292178	-3.8969145e-10	0.055012777	0.055012777	0	62667.406	62327.51	-4.138322e-05	662811.9	219634.73	-0.00036829463	222579.39	661588.9	-0.00023452533
0	0.6324888	0.62905574	-4.0497347e-10	0.054871537	0.054871537	0	62651.523	62311.473	-3.7414968e-05	662925	219294.39	-0.00036829463	222241.48	661702.7	-0.00020846697
0	0.6323289	0.62889415	-4.3935802e-10	0.05473016	0.054730155	0	62635.69	62295.47	-4.1950112e-05	663037.6	218955.22	-0.00036028822	221904.7	661816.06	-0.00025056125
0	0.6321676	0.62873113	-3.8969145e-10	0.05458858	0.05458858	0	62619.707	62279.312	-3.798186e-05	663151.1	218613.1	-0.00028022417	221565.02	661930.1	-0.0003006735
0	0.63200575	0.6285676	-2.1776875e-10	0.054447185	0.05444718	0	62603.684	62263.11	-1.9274376e-05	663264.5	218270.33	-0.00025620498	221224.72	662044.25	-5.2116742e-05
0	0.6318418	0.62840194	-4.8520404e-10	0.054305956	0.054305956	0	62587.434	62246.695	-4.8185942e-05	663379.2	217923.38	-0.00039231384	220880.17	662159.6	-0.000298669
0	0.6316799	0.6282384	-3.2856337e-10	0.054164257	0.05416426	0	62571.4	62230.5	-3.45805e-05	663492.06	217581.11	-0.00028022417	220540.34	662273.25	-0.00020245349
0	0.63151693	0.62807375	-6.876908e-11	0.054022856	0.054022856	0	62555.266	62214.19	-7.936508e-06	663605.4	217236.86	-1.6012811e-05	220198.52	662387.3	-8.4188585e-05
0	0.6313524	0.62790745	-2.7125582e-10	0.053881623	0.053881627	0	62538.965	62197.727	-2.6643991e-05	663719.6	216889.6	-0.00024819857	219853.69	662502.25	-0.000108242464
0	0.6311888	0.6277422	-3.8969145e-10	0.053740185	0.05374019	0	62522.75	62181.348	-3.6848072e-05	663832.8	216544.58	-0.00025620498	219511.11	662616.1	-0.0002645927
0	0.6310206	0.6275723	-2.1012775e-10	0.053598657	0.053598657	0	62506.09	62164.52	-2.0408163e-05	663948.9	216190.19	-0.00020016012	219159.22	662732.94	-7.0157155e-05
0	0.6308567	0.6274067	-4.0115297e-10	0.05345726	0.05345726	0	62489.863	62148.125	-3.9682538e-05	664061.6	215845.25	-0.00035228182	218816.69	662846.5	-0.0002515635
0	0.63069254	0.6272409	-1.719227e-10	0.053315867	0.053315867	0	62473.605	62131.7	-1.8707484e-05	664174.44	215500.02	-0.00012810249	218473.84	662959.94	-0.00015234125
0	0.63052666	0.6270734	-5.883577e-10	0.05317434	0.05317434	0	62457.17	62115.098	-5.6122448e-05	664287.94	215151.38	-0.00050440355	218127.67	663074.3	-0.00035880372
0	0.63035965	0.6269048	-3.476659e-10	0.053032946	0.053032942	0	62440.633	62098.39	-3.344671e-05	664402	214800.83	-0.00025620498	217779.55	663189.1	-0.00024053881
0	0.63019305	0.62673646	-4.966656e-11	0.05289166	0.052891664	0	62424.125	62081.727	-5.1020406e-06	664515.5	214451.39	-8.406725e-05	217432.56	663303.3	-4.0089803e-06
0	0.63002354	0.62656516	-1.9866624e-10	0.05275026	0.05275026	0	62407.336	62064.758	-1.814059e-05	664630.7	214095.94	-9.207366e-05	217079.53	663419.3	-0.00017439063
0	0.6298571	0.62639713	-2.8653782e-10	0.052608743	0.052608747	0	62390.848	62048.117	-2.7210885e-05	664743.4	213747.52	-0.00017614091	216733.52	663532.8	-0.00023652983
0	0.6296886	0.6262269	-3.362044e-10	0.052467342	0.052467342	0	62374.152	62031.254	-3.4297052e-05	664857.25	213394.92	-0.00039431546	216383.34	663647.44	-7.8175115e-05
0	0.6295192	0.62605596	-4.6228105e-10	0.052325934	0.052325934	0	62357.375	62014.324	-4.6201814e-05	664971.4	213040.88	-0.00042433947	216031.77	663762.44	-0.00022149616
0	0.6293504	0.6258854	-1.9102522e-10	0.05218442	0.05218442	0	62340.645	61997.426	-2.2675737e-05	665084.94	212688.27	-0.0002722178	215681.55	663876.6	-2.0044901e-05
0	0.62917995	0.6257134	-3.6294792e-10	0.052042983	0.052042983	0	62323.773	61980.39	-3.5147394e-05	665199.1	212332.72	-0.00043234587	215328.47	663991.75	-0.000104233484
0	0.62900925	0.62554103	-6.647678e-10	0.051901743	0.051901743	0	62306.86	61963.316	-6.689342e-05	665313.25	211976.78	-0.00052041636	214974.95	664106.7	-0.0004610327
0	0.6288383	0.6253684	-4.1261447e-10	0.051760327	0.05176033	0	62289.92	61946.22	-4.2517007e-05	665427.25	211620.67	-0.0002722178	214621.27	664221.56	-0.00031871392
0	0.6286674	0.6251959	-4.0879397e-10	0.05161866	0.051618658	0	62272.992	61929.125	-3.9399092e-05	665541	211264.97	-0.0003242594	214268	664335.94	-0.0002645927
0	0.62849474	0.6250217	-6.3038325e-10	0.05147742	0.05147742	0	62255.902	61911.87	-6.2358275e-05	665655.4	210906.17	-0.00051240996	213911.6	664451.2	-0.00036882618
0	0.6283228	0.6248482	-4.966656e-10	0.05133601	0.05133601	0	62238.867	61894.68	-5.2721087e-05	665768.94	210549.1	-0.00040832665	213556.94	664565.7	-0.00032773413
0	0.62814826	0.624672	-1.9102522e-10	0.05119447	0.051194474	0	62221.574	61877.23	-1.9274376e-05	665884.1	210186.72	-0.00011609287	213196.97	664681.8	-0.0001423188
0	0.6279758	0.6244979	-3.0564035e-10	0.051053066	0.051053066	0	62204.5	61859.992	-3.1746033e-05	665997.56	209829.19	-0.000104083265	212841.9	664796.06	-0.0003317431
0	0.6278021	0.62432253	-2.9035835e-10	0.050911814	0.050911814	0	62187.28	61842.617	-3.0612246e-05	666111.5	209469.16	-0.00028022417	212484.28	664910.9	-0.00013630533
0	0.62762773	0.6241466	-2.8653782e-10	0.05077015	0.05077015	0	62170.004	61825.184	-2.8061224e-05	666225.56	209108.19	-0.0001601281	212125.77	665025.7	-0.00023652983
0	0.6274518	0.62396914	-5.5779364e-10	0.050628744	0.050628744	0	62152.594	61807.613	-5.442177e-05	666340.3	208744.56	-0.00044835868	211764.53	665141.4	-0.00036481718
0	0.62727696	0.6237926	-3.400249e-10	0.050487496	0.050487492	0	62135.27	61790.133	-3.4013607e-05	666454	208383.16	-0.00039231384	211405.5	665255.94	-0.000110246954
0	0.627101	0.62361515	-5.043066e-10	0.05034605	0.050346054	0	62117.836	61772.543	-4.8752834e-05	666568.1	208019.98	-0.00042433947	211044.78	665371	-0.00025958146
0	0.6269243	0.62343687	-2.636148e-10	0.05020456	0.05020456	0	62100.33	61754.883	-2.494331e-05	666682.56	207655.5	-0.00037630103	210682.7	665486.25	0
0	0.6267475	0.6232584	-2.7507632e-10	0.050063133	0.050063133	0	62082.82	61737.21	-2.7210885e-05	666796.5	207291.1	-0.00028022417	210320.72	665601.2	-0.000112251444
0	0.6265672	0.62307656	-3.5530692e-10	0.049921725	0.049921725	0	62064.96	61719.19	-3.543084e-05	666912.56	206919.81	-0.0003282626	209951.89	665718.2	-0.00019644003
0	0.62639153	0.6228993	-2.7507632e-10	0.04978024	0.04978024	0	62047.55	61701.633	-2.8344672e-05	667025.3	206558.47	-0.00028022417	209592.97	665831.7	-0.000104233484
0	0.6262127	0.62271905	-4.0497347e-10	0.049638823	0.04963882	0	62029.85	61683.777	-4.0816325e-05	667139.7	206191.12	-0.00025620498	209228.03	665947	-0.00031270046
0	0.62603384	0.6225386	-1.0315362e-10	0.049497537	0.049497537	0	62012.125	61665.9	-1.1904762e-05	667253.75	205823.73	8.006406e-06	208863	666062.1	-0.00013530308
0	0.62585443	0.6223576	-4.928451e-10	0.049356114	0.04935612	0	61994.363	61647.98	-4.8752834e-05	667367.9	205455.86	-0.0003122498	208497.53	666177.06	-0.00039688902
0	0.62567127	0.6221729	-1.4135866e-10	0.049214635	0.049214635	0	61976.215	61629.68	-1.4739229e-05	667484	205080.38	-0.00023218575	208124.52	666294.25	-1.6035921e-05
0	0.6254932	0.6219933	-2.1776875e-10	0.04907322	0.04907322	0	61958.586	61611.902	-2.239229e-05	667596.6	204715.83	-0.00026220977	207762.36	666407.75	-5.7127967e-05
0	0.62531227	0.6218109	-2.7507632e-10	0.048931796	0.048931796	0	61940.65	61593.816	-2.9478459e-05	667710.75	204345.5	-0.0003202562	207394.42	666522.94	-0.000117262665
0	0.62512726	0.6216243	-6.2656275e-10	0.04879033	0.04879033	0	61922.336	61575.34	-6.2358275e-05	667827.1	203967.47	-0.00052842277	207018.81	666640.3	-0.00038887106
0	0.6249471	0.6214426	-3.9351195e-10	0.048648857	0.048648857	0	61904.473	61557.336	-4.0816325e-05	667940.25	203599.23	-0.00024819857	206652.97	666754.25	-0.00033474984
0	0.6247653	0.6212592	-2.597943e-10	0.048507616	0.048507616	0	61886.465	61539.184	-2.6643991e-05	668054	203228.27	-0.00022417934	206284.36	666869	-0.00016837717
0	0.624582	0.6210745	-3.9733247e-10	0.04836618	0.04836618	0	61868.312	61520.88	-3.9682538e-05	668168.1	202854.78	-0.00025620498	205913.28	666984.2	-0.0003357521
0	0.6243984	0.62088937	-4.278965e-10	0.048224546	0.048224546	0	61850.13	61502.547	-4.6201814e-05	668282.4	202480.86	-0.00043234587	205541.77	667099.4	-0.00020044901
0	0.62421095	0.6207004	-5.3487065e-10	0.048083298	0.048083298	0	61831.56	61483.824	-5.3287982e-05	668398.5	202099.39	-0.0004803843	205162.75	667216.56	-0.0002846376
0	0.6240286	0.62051666	-1.1843564e-10	0.04794187	0.047941864	0	61813.504	61465.625	-1.2471655e-05	668511.1	201728.88	-0.00019215372	204794.55	667330.25	1.40314305e-05
0	0.62384105	0.62032753	-2.9799935e-10	0.047800362	0.047800362	0	61794.918	61446.887	-3.0045352e-05	668626.94	201347.72	-0.00019215372	204415.81	667446.94	-0.0002585792
0	0.62365705	0.62014204	-5.3869115e-10	0.047658946	0.047658943	0	61776.688	61428.516	-5.3287982e-05	668740	200974.3	-0.00040032025	204044.72	667561.1	-0.00038887106
0	0.6234712	0.61995476	-4.4699902e-10	0.047517687	0.047517683	0	61758.285	61409.97	-4.30839e-05	668853.9	200597.58	-0.00036028822	203670.45	667675.94	-0.00026659717
0	0.62328315	0.6197652	-1.757432e-10	0.047376268	0.047376268	0	61739.668	61391.19	-1.7573697e-05	668968.6	200216.77	-0.00013811048	203292.02	667791.75	-0.000115258175
0	0.6230961	0.61957675	-3.0564035e-10	0.047234625	0.047234625	0	61721.133	61372.52	-3.0045352e-05	669082.7	199838.14	-0.0003202562	202915.77	667906.8	-0.000109244706
0	0.6229081	0.6193874	-6.074602e-10	0.04709337	0.047093373	0	61702.51	61353.758	-5.952381e-05	669196.9	199458.05	-0.00049639714	202538.03	668022.1	-0.0003738374
0	0.6227189	0.61919653	-2.1394825e-10	0.046951894	0.046951894	0	61683.76	61334.86	-2.3809524e-05	669311.44	199075.73	-0.00026020818	202158.14	668137.75	-4.9110007e-05
0	0.6225267	0.619003	-1.8720472e-10	0.046810456	0.04681045	0	61664.73	61315.69	-1.814059e-05	669427.5	198687.94	-0.0001681345	201772.73	668254.94	-0.00012528063
0	0.62234014	0.61881506	-1.3753816e-10	0.04666901	0.04666901	0	61646.25	61297.066	-1.1904762e-05	669539.8	198311.69	-0.00011208967	201398.81	668368.25	-5.0112252e-05
0	0.6221485	0.61862206	-3.514864e-10	0.04652777	0.04652777	0	61627.27	61277.94	-3.4297052e-05	669654.94	197925.61	-0.0003282626	201015.1	668484.56	-0.00018441309
0	0.62195843	0.61843044	-2.9417885e-10	0.04638615	0.04638614	0	61608.438	61258.977	-2.8344672e-05	669768.7	197542.89	-0.00022417934	200634.75	668599.4	-0.00016837717
0	0.6217654	0.618236	2.2923026e-11	0.0462447	0.046244703	0	61589.324	61239.703	3.4013606e-06	669883.9	197154.81	-8.8070454e-05	200249.05	668715.6	0.00016436819
0	0.6215744	0.6180436	-4.202555e-10	0.046103448	0.046103448	0	61570.402	61220.656	-4.0816325e-05	669997.44	196771.17	-0.0003442754	199867.72	668830.4	-0.00023252085
0	0.6213809	0.6178487	-2.9035835e-10	0.045961965	0.045961965	0	61551.234	61201.35	-2.9478459e-05	670112.3	196382.7	-0.00024019215	199481.64	668946.25	-0.00018441309
0	0.6211888	0.6176552	-2.2540976e-10	0.04582053	0.045820534	0	61532.207	61182.184	-2.154195e-05	670225.9	195997.45	-0.0001681345	199098.77	669061.06	-0.00013830981
0	0.62099504	0.61746	-3.1328137e-10	0.0456791	0.0456791	0	61513.008	61162.848	-3.1746033e-05	670340.06	195609.17	-0.000316253	198712.83	669176.4	-0.00012828737
0	0.6208009	0.6172646	-3.8205045e-10	0.045537654	0.04553765	0	61493.777	61143.484	-3.6848072e-05	670454.1	195220.61	-0.00028823057	198326.6	669291.56	-0.00026860167
0	0.62060535	0.61706764	-3.7058892e-10	0.045396224	0.045396224	0	61474.402	61123.977	-3.5714285e-05	670568.8	194829.52	-0.000336269	197937.89	669407.4	-0.00019644003
0	0.6204102	0.616871	-2.521533e-10	0.04525478	0.045254778	0	61455.07	61104.508	-2.7210885e-05	670682.9	194439.53	-0.00029623698	197550.22	669522.6	-0.000104233484