//mumax 3.10 [windows_amd64 go1.11.6(gc) CUDA-11.0]
//GPU info: NVIDIA GeForce RTX 3090(24575MB), CUDA Driver 12.0, cc=8.6, using cc=80 PTX
//(c) Arne Vansteenkiste, Dynamat LAB, Ghent University, Belgium
//This is free software without any warranty. See license.txt
//********************************************************************//
//  If you use mumax in any work or publication,                      //
//  we kindly ask you to cite the references in references.bib        //
//********************************************************************//
//output directory: r1;p0.8;a5.12e-07;l3.0000000000000004e-07;s0.out/
randSeed(0)
ThermSeed(0)
resolution := 2e-09
zResolution := 5e-09
a := 5.12e-07
gridSize := 512
gridDepth := 5
SetCellsize(resolution, resolution, zResolution)
SetGridsize(gridSize, gridSize, gridDepth)
SetPBC(16, 16, 0)
//resizing...
Msat = 700e3
Aex = 13e-12
alpha = 0.2
Bmax := 0.1
Bstep := Bmax / 500.0
TableAdd(B_ext)
TableAdd(m_full)
islandWidth := 8e-08
islandLength := 3.0000000000000004e-07
ellipseConstant := 1.2000000000000002e-07
hIsland := Universe().Inverse()
vIsland := Universe().Inverse()
vIslands := Universe().Inverse()
hIslands := Universe().Inverse()
hIsland = rect(islandLength-2*ellipseConstant, islandWidth)
hIsland = hIsland.add(ellipse(ellipseConstant*2, islandWidth).transl(islandLength/2-ellipseConstant, 0, 0))
hIsland = hIsland.add(ellipse(ellipseConstant*2, islandWidth).transl(-islandLength/2+ellipseConstant, 0, 0))
hIsland = hIsland.add(rect(7.4267611924091985e-09, 3.0380317217968645e-09).transl(-9.400982054158206e-08, -3.383414264095181e-08, 0))
hIsland = hIsland.sub(rect(4.232723519603245e-09, -1.927195188516708e-09).transl(-4.389786231100005e-08, -3.973082965152221e-08, 0))
hIsland = hIsland.sub(rect(9.611237144024321e-09, -2.244587686789299e-09).transl(-5.8287657634178344e-08, -3.88727388418092e-08, 0))
hIsland = hIsland.sub(rect(6.715329951952878e-09, -2.097689241350563e-09).transl(-1.0098616748363575e-07, -3.225069168247958e-08, 0))
hIsland = hIsland.sub(rect(9.676018834459306e-09, -1.6426179138306334e-09).transl(-3.891344650255606e-08, -3.98895008066674e-08, 0))
hIsland = hIsland.add(rect(8.422646841115415e-09, 4.086421613001182e-11).transl(-9.274302382676317e-08, -3.409677886557978e-08, 0))
hIsland = hIsland.sub(rect(7.610979518578733e-09, -3.2831001295307544e-10).transl(-4.3320874301586465e-08, -3.975278370104879e-08, 0))
hIsland = hIsland.add(rect(3.748422551310692e-09, 3.9361150780863906e-11).transl(-9.856906822183766e-08, -3.2826620097430036e-08, 0))
hIsland = hIsland.add(rect(3.437169147543595e-09, 6.209781170764677e-10).transl(-9.876992767438863e-08, -3.2779900765322234e-08, 0))
hIsland = hIsland.sub(rect(3.238636366159984e-09, -1.8500274251683795e-09).transl(9.482040740285109e-09, -4e-08, 0))
hIsland = hIsland.add(rect(2.1962176663043298e-09, 1.9934312592997868e-10).transl(-1.3402629382707046e-07, -1.9940272461651302e-08, 0))
hIsland = hIsland.add(rect(8.381655362656793e-09, 7.684026778667366e-10).transl(3.7949999264885244e-08, -3.991212223496394e-08, 0))
hIsland = hIsland.add(rect(3.2877651835319278e-09, 2.497599884552052e-09).transl(-1.0969058900338549e-07, -2.9906168119439286e-08, 0))
hIsland = hIsland.sub(rect(6.774559174093051e-09, -9.008357325203365e-11).transl(-1.2802052547061873e-07, -2.307470136189027e-08, 0))
hIsland = hIsland.add(rect(3.322482055167881e-09, 9.525219426807707e-10).transl(-3.705197744715231e-08, -3.9930870283090296e-08, 0))
hIsland = hIsland.add(rect(7.350168545001567e-09, 5.731827163537152e-10).transl(6.148187545352952e-08, -3.8598922722342705e-08, 0))
hIsland = hIsland.sub(rect(3.379348443079836e-09, -3.881242882841117e-09).transl(1.3544998113830134e-07, -1.9091305403047555e-08, 0))
hIsland = hIsland.sub(rect(6.056321068920561e-09, -1.8582471627908355e-09).transl(1.1638648933108373e-07, -2.7763634210260966e-08, 0))
hIsland = hIsland.add(rect(8.96093790328789e-09, 2.6887574788343078e-09).transl(4.5453589317521175e-09, -4e-08, 0))
hIsland = hIsland.sub(rect(5.72633584062504e-09, -1.4379594002590613e-09).transl(-8.7026140924443e-08, -3.519472695868195e-08, 0))
hIsland = hIsland.add(rect(7.675274059671377e-09, 2.1536187963300286e-09).transl(3.2964404799955187e-08, -3.9987793004285144e-08, 0))
hIsland = hIsland.add(rect(2.097275037885756e-09, 2.8560766135184106e-09).transl(-5.177824471984697e-09, -4e-08, 0))
hIsland = hIsland.sub(rect(3.011506192854914e-09, -2.3197027977435545e-09).transl(1.2573231009000984e-07, -2.411851479864058e-08, 0))
hIsland = hIsland.add(rect(8.801677768568884e-09, 4.441055874158052e-10).transl(-1.872793867936028e-08, -4e-08, 0))
hIsland = hIsland.add(rect(4.120706507262332e-09, 1.3952747560382821e-09).transl(-4.057769552104271e-08, -3.984429745544819e-08, 0))
hIsland = hIsland.sub(rect(3.637242421947501e-09, -1.1368449371442111e-09).transl(-8.942042538966681e-08, -3.4751839354215875e-08, 0))
hIsland = hIsland.add(rect(2.9990476818296754e-09, 6.502223953247482e-10).transl(8.360238876864342e-08, -3.578762032741864e-08, 0))
hIsland = hIsland.add(rect(3.2367658922553934e-09, 5.646022550425525e-11).transl(-2.181490890984822e-08, -4e-08, 0))
hIsland = hIsland.sub(rect(2.3009221313512803e-09, -4.064538503003897e-09).transl(-5.3841984889742434e-08, -3.9202550592357714e-08, 0))
hIsland = hIsland.sub(rect(3.906296391725565e-09, -3.0639284864056098e-09).transl(4.558984275027665e-08, -3.966100352154164e-08, 0))
hIsland = hIsland.add(rect(7.48978399468666e-09, 1.2223159248751608e-09).transl(-1.4465555241499515e-07, -1.1804445021602408e-08, 0))
hIsland = hIsland.add(rect(6.555304915663106e-09, 6.808332994774024e-10).transl(-3.886904005214471e-08, -3.989060057562078e-08, 0))
hIsland = hIsland.sub(rect(6.7305229225980666e-09, -1.3982972493450772e-09).transl(2.0034921022654622e-08, -4e-08, 0))
hIsland = hIsland.add(rect(8.140822514845145e-09, 4.4921511409358193e-10).transl(5.773671996964202e-08, -3.891682635988029e-08, 0))
hIsland = hIsland.add(rect(6.6662072839663345e-09, 1.0883197370635641e-09).transl(1.1654830848420765e-07, -2.7707580788823104e-08, 0))
hIsland = hIsland.add(rect(2.4151695054907094e-09, 2.1086184292049102e-09).transl(1.0066207059800676e-07, -3.232967638907756e-08, 0))
hIsland = hIsland.sub(rect(5.2846486597756605e-09, -9.107245118683663e-11).transl(1.353311663697282e-07, -1.9164044432775794e-08, 0))
hIsland = hIsland.sub(rect(4.890955971023298e-09, -5.102410214633038e-10).transl(1.2575467198474616e-07, -2.4108649423192664e-08, 0))
hIsland = hIsland.add(rect(3.561285628336571e-09, 1.6423745423471117e-09).transl(3.603362884601269e-08, -3.9949405951567966e-08, 0))
hIsland = hIsland.sub(rect(4.718728758169142e-09, -5.196508698173308e-09).transl(-3.844176050873819e-08, -3.9900900406873456e-08, 0))
hIsland = hIsland.sub(rect(3.743568510059361e-09, -2.8244459001147813e-09).transl(5.257935100961577e-08, -3.928552590117152e-08, 0))
hIsland = hIsland.add(rect(3.4667540493346857e-09, 9.785503260502694e-10).transl(-1.246675294292993e-07, -2.4581065142261107e-08, 0))
hIsland = hIsland.add(rect(5.378636097951723e-09, 9.719532019570513e-10).transl(-1.1964221513113178e-07, -2.6592131807033722e-08, 0))
hIsland = hIsland.add(rect(9.065492864682406e-09, 3.010913464017217e-10).transl(-1.1877986696736159e-07, -2.6911656337104147e-08, 0))
hIsland = hIsland.add(rect(5.718716392957761e-09, 4.795546181912771e-10).transl(-9.284924824404762e-09, -4e-08, 0))
hIsland = hIsland.add(rect(3.882271480213938e-09, 4.799366712814907e-10).transl(2.7065170038419475e-08, -4e-08, 0))
hIsland = hIsland.sub(rect(7.001209794262422e-09, -4.321098046395188e-10).transl(-4.127503077922732e-08, -3.9823044251242095e-08, 0))
hIsland = hIsland.add(rect(5.9602724309928115e-09, 2.6337379553708827e-09).transl(-1.472181029431537e-07, -8.562945640686886e-09, 0))
hIsland = hIsland.sub(rect(5.069268713270065e-09, -1.427066515280308e-09).transl(7.042076995168212e-09, -4e-08, 0))
hIsland = hIsland.add(rect(7.677101920867043e-09, 7.388465558576991e-10).transl(-5.961984486297367e-08, -3.876233107067475e-08, 0))
hIsland = hIsland.add(rect(7.754311886298223e-09, 1.0357223583781292e-09).transl(1.4689808922868519e-07, -9.0359573967465e-09, 0))
hIsland = hIsland.add(rect(3.774691720564202e-09, 1.8307745435965522e-09).transl(8.4452255540378e-08, -3.564477812241441e-08, 0))
hIsland = hIsland.sub(rect(6.136022626845926e-09, -1.6317756313007387e-09).transl(-1.436242319333023e-07, -1.2864826800954986e-08, 0))
hIsland = hIsland.sub(rect(8.77580943573137e-09, -2.009023306925245e-09).transl(-7.639893798965619e-08, -3.688893021766232e-08, 0))
hIsland = hIsland.sub(rect(6.3387641019375265e-09, -7.003498684760534e-10).transl(5.212895152974625e-08, -3.931399171936704e-08, 0))
hIsland = hIsland.add(rect(8.275868614027713e-09, 1.575249642812936e-10).transl(8.818679435079048e-08, -3.4983006927457447e-08, 0))
hIsland = hIsland.sub(rect(3.941049610464886e-09, -3.133385682713978e-09).transl(-5.275245263923702e-09, -4e-08, 0))
hIsland = hIsland.sub(rect(6.580944061225628e-09, -3.766809641390485e-09).transl(-9.771113484633161e-08, -3.302390080233456e-08, 0))
hIsland = hIsland.sub(rect(2.658688722785133e-09, -5.258156950753018e-09).transl(8.789312305470594e-08, -3.503710145129125e-08, 0))
hIsland = hIsland.add(rect(4.454731467731934e-09, 5.375491602550519e-10).transl(5.852143307839095e-08, -3.885375408024711e-08, 0))
hIsland = hIsland.sub(rect(7.196607983405746e-09, -2.484574656419355e-10).transl(-6.185617290256616e-08, -3.856478567582638e-08, 0))
hIsland = hIsland.add(rect(9.472321323307894e-09, 6.992517364241452e-10).transl(1.487675350257642e-07, -5.718125410616846e-09, 0))
hIsland = hIsland.sub(rect(9.477363626736512e-09, -1.6701923304952052e-09).transl(4.314045720784626e-08, -3.975945503813983e-08, 0))
hIsland = hIsland.sub(rect(3.2189502417522235e-09, -8.445640380011007e-10).transl(-1.23760337433352e-07, -2.496441717588361e-08, 0))
hIsland = hIsland.add(rect(8.591151243372899e-09, 7.617612559070216e-10).transl(-1.0078140530667087e-07, -3.2300658168066943e-08, 0))
hIsland = hIsland.sub(rect(5.528207504382221e-09, -8.510790850708512e-11).transl(-1.0469618157784321e-07, -3.130580432104827e-08, 0))
hIsland = hIsland.sub(rect(7.471841112972677e-09, -6.217116630289857e-10).transl(-2.070294839025359e-08, -4e-08, 0))
hIsland = hIsland.sub(rect(4.8789026608707975e-09, -2.3276979590352846e-09).transl(5.6059013737932305e-08, -3.9045454712006647e-08, 0))
hIsland = hIsland.sub(rect(4.722343390332339e-09, -2.6238665307854378e-09).transl(1.0868015320595568e-07, -3.020197471742414e-08, 0))
hIsland = hIsland.add(rect(4.439940142666756e-09, 9.874482125857265e-10).transl(-7.523972328955119e-08, -3.704856787858164e-08, 0))
hIsland = hIsland.sub(rect(7.25945275623633e-09, -3.143360897973991e-09).transl(1.2080515403064147e-07, -2.6150045679738048e-08, 0))
hIsland = hIsland.add(rect(6.611741760942684e-09, 4.503175238506079e-10).transl(7.908830101885213e-08, -3.650013501205253e-08, 0))
hIsland = hIsland.sub(rect(5.589452517851715e-09, -5.719755121202591e-10).transl(1.048036590930886e-07, -3.127727713760864e-08, 0))
hIsland = hIsland.sub(rect(8.866003752991414e-09, -2.44324820935291e-09).transl(1.2047407082468053e-07, -2.6277245138058763e-08, 0))
hIsland = hIsland.add(rect(5.824828196059777e-09, 2.884311703816037e-09).transl(-1.0609862479502489e-07, -3.0928231088379836e-08, 0))
hIsland = hIsland.add(rect(6.444845899156664e-09, 4.078002553966738e-09).transl(-4.6154980781421086e-08, -3.963586562691242e-08, 0))
hIsland = hIsland.sub(rect(7.0969652355085685e-09, -7.769103781191472e-10).transl(-7.380905729496487e-08, -3.723911697683035e-08, 0))
hIsland = hIsland.sub(rect(6.412459217405146e-09, -1.7800980430077026e-09).transl(1.4533920273325995e-07, -1.1039667430860236e-08, 0))
hIsland = hIsland.add(rect(2.4663558229805614e-09, 2.8638153040671874e-09).transl(9.430055158216141e-08, -3.377283435976614e-08, 0))
hIsland = hIsland.sub(rect(8.920446641179633e-09, -5.090671660819876e-10).transl(-1.4773002993159313e-07, -7.743384648317486e-09, 0))
hIsland = hIsland.add(rect(3.4239710338717313e-09, 1.7575680990919206e-10).transl(-4.282055025161776e-08, -3.977105800180403e-08, 0))
hIsland = hIsland.sub(rect(4.890953005235289e-09, -8.685381950247034e-10).transl(8.139120026950738e-08, -3.614622238577849e-08, 0))
hIsland = hIsland.add(rect(7.248629170770445e-09, 3.837176657318436e-09).transl(1.425736142275904e-07, -1.3853123914593186e-08, 0))
hIsland = hIsland.sub(rect(3.197504997433283e-09, -1.8378434412242333e-09).transl(3.939650768297863e-08, -3.987718039091157e-08, 0))
hIsland = hIsland.add(rect(3.981253518549288e-09, 2.3685810562765946e-10).transl(2.1623583066937234e-08, -4e-08, 0))
hIsland = hIsland.add(rect(4.619714379745898e-09, 1.8689508995287396e-09).transl(-9.675433436903194e-08, -3.323963304207709e-08, 0))
hIsland = hIsland.add(rect(9.057924150937734e-09, 1.1445111701033379e-09).transl(-3.2100406487066e-08, -3.999387215921555e-08, 0))
hIsland = hIsland.add(rect(8.573912391925301e-09, 5.9928796453183645e-12).transl(-5.500575963509381e-08, -3.912190631726526e-08, 0))
hIsland = hIsland.add(rect(6.951961806422094e-09, 2.2668781487508875e-09).transl(-1.2360980123146594e-07, -2.502710777760218e-08, 0))
hIsland = hIsland.add(rect(3.934663719682442e-09, 1.6944412491309214e-09).transl(4.1431846211093945e-08, -3.9818076425727796e-08, 0))
hIsland = hIsland.sub(rect(5.866471527958109e-09, -1.4202494784284818e-09).transl(4.723520534658567e-09, -4e-08, 0))
hIsland = hIsland.add(rect(5.9498826057543234e-09, 7.635438254127899e-10).transl(-8.806307147379511e-08, -3.500584035562092e-08, 0))
hIsland = hIsland.sub(rect(3.599395531307158e-09, -1.0727166885317392e-09).transl(7.795136906256947e-08, -3.6667676054326493e-08, 0))
hIsland = hIsland.sub(rect(8.727263755885263e-09, -3.939822483457655e-10).transl(3.808087773881717e-08, -3.990920168884794e-08, 0))
hIsland = hIsland.sub(rect(8.147557991155965e-09, -2.35511937202432e-10).transl(5.155312511140073e-08, -3.934952039511806e-08, 0))
hIsland = hIsland.sub(rect(5.098954517807463e-09, -4.099593587914692e-09).transl(8.12311790783747e-08, -3.617145327808704e-08, 0))
hIsland = hIsland.add(rect(6.111667094765645e-09, 2.6508047560193886e-09).transl(-2.7352372103771692e-08, -4e-08, 0))
hIsland = hIsland.add(rect(9.167098796719812e-09, 1.944022052898884e-09).transl(3.323624400520616e-08, -3.998545113849226e-08, 0))
hIsland = hIsland.sub(rect(4.694497433970644e-09, -2.4960654286827274e-09).transl(-7.409331152912886e-08, -3.7201821757057955e-08, 0))
hIsland = hIsland.sub(rect(7.749301122937585e-09, -4.0717878136743e-10).transl(7.857746876277284e-09, -4e-08, 0))
hIsland = hIsland.sub(rect(7.799770585638682e-09, -1.9678975299846717e-09).transl(-1.7233531734568624e-08, -4e-08, 0))
hIsland = hIsland.sub(rect(5.753791293069711e-09, -1.1600884316467639e-09).transl(1.2098741884814267e-07, -2.6079556939302e-08, 0))
hIsland = hIsland.sub(rect(4.922664126580701e-09, -1.2150263107723358e-09).transl(-1.0373851374647154e-07, -3.1557058711098454e-08, 0))
hIsland = hIsland.add(rect(4.6791557607247665e-09, 2.708132822425717e-09).transl(-5.429634805601703e-08, -3.917154220879812e-08, 0))
hIsland = hIsland.add(rect(6.0823180357528925e-09, 1.978542800717998e-10).transl(-9.935684929524547e-08, -3.264221441262255e-08, 0))
hIsland = hIsland.add(rect(4.865998614416004e-09, 1.7074786934836865e-10).transl(4.5470431453409455e-08, -3.966619852755318e-08, 0))
hIsland = hIsland.add(rect(3.3068541575429865e-09, 2.1602184036065866e-09).transl(-1.1546273576595483e-07, -2.8079491914124773e-08, 0))
hIsland = hIsland.add(rect(6.591133401330555e-09, 4.078477646883991e-09).transl(3.402376303364378e-08, -3.9977506635397256e-08, 0))
hIsland = hIsland.add(rect(8.64804288819998e-09, 3.3455665239404972e-09).transl(8.606352321103245e-08, -3.536615042847551e-08, 0))
hIsland = hIsland.sub(rect(2.193535427875313e-09, -1.6693693498068873e-10).transl(-1.0724252982090483e-07, -3.061152939456097e-08, 0))
hIsland = hIsland.add(rect(6.124977025288214e-09, 2.91540375910792e-10).transl(-2.0831532089645527e-08, -4e-08, 0))
hIsland = hIsland.add(rect(2.558807913712718e-09, 8.209369129186952e-10).transl(5.666202319394067e-08, -3.900019447131823e-08, 0))
hIsland = hIsland.add(rect(2.4501602978179966e-09, 1.252424000839825e-09).transl(9.156802635718641e-08, -3.4333945189500786e-08, 0))
hIsland = hIsland.sub(rect(8.949960885557261e-09, -1.626184407723535e-09).transl(-4.6690007095981e-08, -3.961122689218313e-08, 0))
hIsland = hIsland.sub(rect(6.58192334252427e-09, -1.7836926175089995e-09).transl(-8.301329479991858e-09, -4e-08, 0))
hIsland = hIsland.add(rect(2.075266075361846e-09, 2.818163991261986e-09).transl(1.2489152469910182e-07, -2.448491267944349e-08, 0))
hIsland = hIsland.sub(rect(8.717057042328769e-09, -7.56483133086913e-11).transl(-1.3917652999375426e-07, -1.6601490222677396e-08, 0))
hIsland = hIsland.sub(rect(5.584144878404232e-09, -1.8004033837562824e-09).transl(-1.3406978950555996e-07, -1.991503874035467e-08, 0))
hIsland = hIsland.add(rect(2.891444745041368e-09, 2.1001483203934526e-09).transl(-8.042641601034619e-08, -3.6296887788764576e-08, 0))
hIsland = hIsland.sub(rect(8.4127740252537e-09, -9.057153540791701e-11).transl(-1.4310533688332917e-07, -1.3363228021987235e-08, 0))
hIsland = hIsland.sub(rect(2.9440972127114116e-09, -1.3668083497523567e-09).transl(1.1482305219084409e-07, -2.8294188286307806e-08, 0))
hIsland = hIsland.sub(rect(3.132293893292296e-09, -4.505452424667071e-09).transl(1.208586755829641e-07, -2.6129381230309573e-08, 0))
hIsland = hIsland.add(rect(8.219656921746598e-09, 3.89103786546111e-10).transl(-1.4745414504370345e-07, -8.195688650156107e-09, 0))
hIsland = hIsland.sub(rect(8.250086631664192e-09, -1.8015369292962227e-09).transl(-1.640044610149656e-08, -4e-08, 0))
hIsland = hIsland.add(rect(6.69921259053581e-09, 3.193386903073331e-09).transl(3.2921827016139594e-09, -4e-08, 0))
hIsland = hIsland.sub(rect(4.859509059575051e-09, -1.636160844628949e-09).transl(1.154325006402761e-08, -4e-08, 0))
hIsland = hIsland.sub(rect(3.882516245649553e-09, -5.887274552375387e-10).transl(1.4046432954907384e-07, -1.5626302247150173e-08, 0))
hIsland = hIsland.add(rect(4.542947933213504e-09, 1.2493216447821005e-09).transl(-1.2879744786661033e-07, -2.270355893551204e-08, 0))
hIsland = hIsland.sub(rect(7.950753405772545e-09, -8.073387355551359e-10).transl(9.959604729728358e-08, -3.258559702382884e-08, 0))
hIsland = hIsland.add(rect(5.198650642150124e-09, 2.3725066164157838e-09).transl(1.4529817643588282e-07, -1.108718234198611e-08, 0))
hIsland = hIsland.sub(rect(2.229146700391074e-09, -1.9461769386090474e-09).transl(6.281763537132524e-08, -3.847510422862894e-08, 0))
hIsland = hIsland.sub(rect(9.325252598610426e-09, -1.0048908390341604e-09).transl(7.90436224103021e-08, -3.6506807737850935e-08, 0))
hIsland = hIsland.add(rect(3.812318735686084e-09, 1.0521601079401076e-09).transl(1.3450450722404187e-07, -1.9660473516000422e-08, 0))
hIsland = hIsland.add(rect(5.113407767580662e-09, 1.313672695250086e-09).transl(-1.3881936948123855e-07, -1.6860027763604694e-08, 0))
hIsland = hIsland.add(rect(4.563289480428792e-09, 2.582019901026111e-10).transl(-1.032779666752545e-08, -4e-08, 0))
hIsland = hIsland.sub(rect(9.685340322247495e-09, -1.072390602014825e-09).transl(7.080383598325981e-08, -3.7616555115845876e-08, 0))
hIsland = hIsland.sub(rect(3.617332748438223e-09, -5.636624026811712e-09).transl(8.072598278842088e-08, -3.625047841852701e-08, 0))
hIsland = hIsland.sub(rect(6.454425585930258e-09, -6.797614356549346e-10).transl(-2.0343640194761308e-08, -4e-08, 0))
hIsland = hIsland.add(rect(3.5034617032974095e-09, 1.3084917132470403e-09).transl(1.443481334966814e-07, -1.2131246916881549e-08, 0))
hIsland = hIsland.sub(rect(8.505704250329965e-09, -1.7437462399434979e-09).transl(-8.47714671936178e-08, -3.559039567926289e-08, 0))
hIsland = hIsland.add(rect(7.770606213265045e-09, 7.183019786698291e-09).transl(-1.1849584782577883e-07, -2.701539667505797e-08, 0))
hIsland = hIsland.sub(rect(4.210969922536992e-09, -4.536331506682724e-09).transl(-5.5553306852735656e-08, -3.9082574276765365e-08, 0))
hIsland = hIsland.sub(rect(5.489826619390656e-09, -1.086582537705749e-09).transl(-1.089955241637933e-07, -3.011036580848594e-08, 0))
hIsland = hIsland.sub(rect(3.608375656139127e-09, -2.347131071687955e-09).transl(2.4728188432120663e-08, -4e-08, 0))
hIsland = hIsland.sub(rect(6.313909037252218e-09, -1.3137356482961456e-09).transl(-2.9720808275716262e-08, -4e-08, 0))
hIsland = hIsland.add(rect(8.498156068123973e-09, 2.977075617494785e-09).transl(9.30660631580841e-08, -3.403049560115252e-08, 0))
hIsland = hIsland.add(rect(6.0285107618896105e-09, 1.6275989160814843e-09).transl(-1.0954003284406507e-07, -2.9950669024553346e-08, 0))
hIsland = hIsland.add(rect(4.254558414457618e-09, 5.245929276118627e-10).transl(-1.0285212706385385e-07, -3.178498524333654e-08, 0))
hIsland = hIsland.add(rect(8.271610901833338e-09, 6.502740020684691e-10).transl(-4.439466664484114e-08, -3.971117051379862e-08, 0))
hIsland = hIsland.sub(rect(6.133814607599674e-09, -2.948425953367e-10).transl(-1.485418398437045e-07, -6.216753408416416e-09, 0))
hIsland = hIsland.sub(rect(2.145776205951928e-09, -1.2624156658595382e-10).transl(2.2198510476391495e-08, -4e-08, 0))
hIsland = hIsland.sub(rect(6.523532597158324e-09, -5.1458344294630654e-11).transl(2.5312097784782262e-08, -4e-08, 0))
hIsland = hIsland.add(rect(9.205189673261813e-09, 3.0581634714448327e-09).transl(-8.977380465396146e-08, -3.468443819670599e-08, 0))
hIsland = hIsland.sub(rect(6.966052531778827e-09, -2.667107791900234e-10).transl(-2.3450716840972603e-08, -4e-08, 0))
hIsland = hIsland.sub(rect(2.5447949040123332e-09, -1.0111523982655924e-09).transl(9.915740370081227e-08, -3.268919888444785e-08, 0))
hIsland = hIsland.sub(rect(8.927146728921369e-09, -6.278680390291427e-10).transl(-1.0367947781025993e-07, -3.15723763748689e-08, 0))
hIsland = hIsland.sub(rect(2.0601888803860593e-09, -1.1451783244880108e-09).transl(7.846177729432967e-08, -3.659304144760433e-08, 0))
hIsland = hIsland.sub(rect(8.755948486630686e-09, -1.8543899470768902e-09).transl(-8.664828898377532e-08, -3.5262462501789005e-08, 0))
hIsland = hIsland.sub(rect(3.137289681594836e-09, -2.1798654712271885e-10).transl(1.6804071307702177e-08, -4e-08, 0))
hIsland = hIsland.sub(rect(9.842365120751121e-09, -1.0898414202426069e-09).transl(-9.603572089634119e-08, -3.3398741768882604e-08, 0))
hIsland = hIsland.sub(rect(7.576721477685755e-09, -1.9703427706206185e-09).transl(-1.0261321730604564e-07, -3.1845670685118245e-08, 0))
hIsland = hIsland.sub(rect(6.033849953799843e-09, -1.1911211651766332e-10).transl(-1.2427677477645302e-07, -2.4747367397024848e-08, 0))
hIsland = hIsland.sub(rect(6.56440930717102e-09, -9.061234241998247e-10).transl(-1.3082884892483355e-07, -2.1688561307987766e-08, 0))
hIsland = hIsland.add(rect(5.974878295136252e-09, 2.9234189030274524e-09).transl(-6.112689188426848e-08, -3.8630898113679045e-08, 0))
hIsland = hIsland.sub(rect(9.901360109887221e-09, -2.4634725196824487e-10).transl(1.2263230678161337e-07, -2.54280154779397e-08, 0))
hIsland = hIsland.add(rect(9.718194596403406e-09, 1.0473518834520884e-09).transl(-4.761441406749697e-08, -3.956672622441286e-08, 0))
hIsland = hIsland.add(rect(7.117924886616707e-09, 6.175714595962387e-10).transl(-1.283255876104639e-07, -2.2930035666631647e-08, 0))
hIsland = hIsland.add(rect(2.7360826604368082e-09, 2.868165404561761e-09).transl(8.955882497223893e-08, -3.47255051445959e-08, 0))
hIsland = hIsland.add(rect(3.815603685505596e-09, 7.546524531504749e-11).transl(-2.8380630353242917e-08, -4e-08, 0))
hIsland = hIsland.add(rect(9.871466641400718e-09, 1.0720135834940263e-09).transl(-6.09636325857412e-08, -3.8645473296932384e-08, 0))
hIsland = hIsland.sub(rect(7.858974252315866e-09, -1.1959756358743544e-09).transl(-1.3949452246968205e-07, -1.6367140350023463e-08, 0))
hIsland = hIsland.sub(rect(4.425413226228988e-09, -6.781869589649475e-10).transl(1.224449276509023e-07, -2.5503671525704867e-08, 0))
hIsland = hIsland.add(rect(4.96852282094749e-09, 5.384784628404989e-10).transl(3.416144424630046e-08, -3.997594051674489e-08, 0))
hIsland = hIsland.sub(rect(8.743231617043779e-09, -1.9774233017949284e-09).transl(-1.2289383992093952e-07, -2.5321783561771617e-08, 0))
hIsland = hIsland.sub(rect(3.3994537591244732e-09, -9.941750453336513e-10).transl(-1.1816279482041355e-07, -2.713612108826672e-08, 0))
hIsland = hIsland.sub(rect(2.976395077557201e-09, -3.384144867511612e-10).transl(1.422363553227037e-07, -1.4153917965142315e-08, 0))
hIsland = hIsland.sub(rect(2.56463651026513e-09, -8.716068798156719e-10).transl(6.624228866613565e-08, -3.813207531759479e-08, 0))
hIsland = hIsland.add(rect(9.434343128417713e-09, 2.07676537099247e-09).transl(1.37278714761813e-07, -1.7923533130910347e-08, 0))
hIsland = hIsland.add(rect(4.1235532163584645e-09, 2.5353495907603808e-09).transl(-4.100207473995099e-08, -3.983152625108315e-08, 0))
hIsland = hIsland.sub(rect(9.575338624811288e-09, -1.402175849734438e-09).transl(-1.249975317259461e-07, -2.4439196581579688e-08, 0))
hIsland = hIsland.sub(rect(4.251669998730356e-09, -1.4231993059703254e-09).transl(1.1313379079668215e-07, -2.8845898664326785e-08, 0))
hIsland = hIsland.add(rect(5.568324379719197e-09, 1.0352731725564304e-09).transl(-6.694141081932992e-08, -3.805745972528834e-08, 0))
hIsland = hIsland.add(rect(8.087059046659846e-09, 1.6635483351785827e-09).transl(3.75187093667378e-08, -3.992140752564626e-08, 0))
hIsland = hIsland.add(rect(4.986948282727004e-09, 1.5640847909694016e-09).transl(-5.161058740407014e-08, -3.93460184517528e-08, 0))
hIsland = hIsland.add(rect(7.644092228150836e-09, 2.292043208825019e-09).transl(-1.2331756604477128e-07, -2.5148076726726157e-08, 0))
hIsland = hIsland.add(rect(5.072479057018043e-09, 1.167986109446194e-09).transl(-2.9188186199134292e-08, -4e-08, 0))
hIsland = hIsland.add(rect(5.873447865000958e-09, 3.7237342698164434e-09).transl(-6.623238317705473e-08, -3.813312122509641e-08, 0))
hIsland = hIsland.sub(rect(9.455125176087146e-09, -7.210004366175918e-10).transl(1.1816536374704345e-07, -2.7135193702298862e-08, 0))
hIsland = hIsland.add(rect(8.771877296833623e-09, 8.435237879799412e-10).transl(5.605141282196158e-08, -3.904601827755401e-08, 0))
hIsland = hIsland.sub(rect(7.35367904984353e-09, -4.345201388460507e-09).transl(-1.390111506815891e-07, -1.6721805548032444e-08, 0))
hIsland = hIsland.sub(rect(9.223213509297956e-09, -7.998279940043233e-10).transl(6.13092167018154e-08, -3.861452367743798e-08, 0))
hIsland = hIsland.sub(rect(2.1366852720297054e-09, -4.208861742083503e-10).transl(-3.3367077503513546e-08, -3.998425077325284e-08, 0))
hIsland = hIsland.add(rect(6.326112047080251e-09, 1.207961555749151e-09).transl(-2.7677695163215887e-08, -4e-08, 0))
hIsland = hIsland.add(rect(5.553539883779806e-09, 7.851174725212633e-10).transl(5.471859165898658e-08, -3.914217848135504e-08, 0))
hIsland = hIsland.sub(rect(2.5151071223625705e-09, -4.4501621285211285e-09).transl(2.7060279410767025e-09, -4e-08, 0))
hIsland = hIsland.sub(rect(8.81619807939559e-09, -1.4540959512220933e-09).transl(-1.3410182500144013e-07, -1.989642634402675e-08, 0))
hIsland = hIsland.sub(rect(4.372740301943347e-09, -5.289799716777958e-09).transl(3.3538159651964184e-08, -3.9982609311601146e-08, 0))
hIsland = hIsland.sub(rect(6.567530877862419e-09, -3.764427961321479e-09).transl(-6.580112379883875e-08, -3.817835270112025e-08, 0))
hIsland = hIsland.add(rect(5.148963370425858e-09, 1.239540686862999e-09).transl(-1.406440135081885e-08, -4e-08, 0))
hIsland = hIsland.add(rect(6.85641222445108e-09, 7.293715085412171e-10).transl(1.7704050936169302e-08, -4e-08, 0))
hIsland = hIsland.sub(rect(2.868079290646538e-09, -2.833871879894901e-09).transl(-5.465191634164488e-08, 3.914685033546341e-08, 0))
hIsland = hIsland.add(rect(3.5847553008018115e-09, 4.499758608716141e-09).transl(6.435665854234977e-08, 3.832553545875761e-08, 0))
hIsland = hIsland.sub(rect(6.423108871781193e-09, -8.893319522701231e-10).transl(3.2942715897375375e-08, 3.9987971001216704e-08, 0))
hIsland = hIsland.add(rect(5.970247111666097e-09, 1.7446383305886996e-09).transl(2.6091071972843715e-08, 4e-08, 0))
hIsland = hIsland.sub(rect(2.077852899854248e-09, -2.0905958840343853e-09).transl(-1.1595013828989478e-07, 2.791370377898435e-08, 0))
hIsland = hIsland.add(rect(3.731965279276502e-09, 2.3068557799116714e-09).transl(-7.69206379637694e-09, 4e-08, 0))
hIsland = hIsland.sub(rect(7.287068773116831e-09, -2.9109812778342775e-09).transl(4.997540110756262e-08, 3.944191700123668e-08, 0))
hIsland = hIsland.sub(rect(8.922394281428479e-09, -3.771898519956248e-09).transl(7.576176580125683e-11, 4e-08, 0))
hIsland = hIsland.sub(rect(9.552586960149386e-09, -3.9389861331730505e-09).transl(7.518541583206293e-08, 3.7055930993392434e-08, 0))
hIsland = hIsland.add(rect(4.980680081062088e-09, 3.141358403472356e-09).transl(5.1769344376218494e-08, 3.933629317314088e-08, 0))
hIsland = hIsland.sub(rect(7.74534439033659e-09, -8.95858684075861e-11).transl(6.500317107242518e-08, 3.8260478615340776e-08, 0))
hIsland = hIsland.add(rect(8.158008402891612e-09, 1.953297256113764e-09).transl(1.2910841718445987e-07, 2.2552461415777174e-08, 0))
hIsland = hIsland.sub(rect(8.574065760150906e-09, -1.183016595493125e-10).transl(-1.8490472614551567e-08, 4e-08, 0))
hIsland = hIsland.sub(rect(8.479886141669472e-09, -7.480804846921582e-10).transl(-6.206262672216218e-08, 3.8545770725889117e-08, 0))
hIsland = hIsland.sub(rect(8.327387802624466e-09, -1.948727216034344e-09).transl(1.1767666465882077e-07, 2.731056465160342e-08, 0))
hIsland = hIsland.add(rect(9.237087052638263e-09, 2.856910907287427e-09).transl(1.0034030573369563e-07, 3.2407546085047384e-08, 0))
hIsland = hIsland.add(rect(9.952131599232482e-09, 3.3585298450658335e-11).transl(1.5336147792403137e-08, 4e-08, 0))
hIsland = hIsland.add(rect(5.672360884869947e-09, 1.6754405060077174e-10).transl(1.2823816796727545e-07, 2.297163070309255e-08, 0))
hIsland = hIsland.sub(rect(2.143338239125825e-09, -2.4377491506183733e-09).transl(-9.378931761178956e-08, 3.388038265332616e-08, 0))
hIsland = hIsland.sub(rect(5.174989675783823e-09, -1.2723830276444729e-09).transl(4.971137774380354e-08, 3.945667326665075e-08, 0))
hIsland = hIsland.add(rect(7.3988515937145875e-09, 1.330358237747493e-10).transl(-3.2274426882473704e-08, 3.9992814607899366e-08, 0))
hIsland = hIsland.sub(rect(3.2866067588353174e-09, -6.465372936395489e-10).transl(-3.847482547741718e-08, 3.9900121599824895e-08, 0))
hIsland = hIsland.sub(rect(3.02161446774526e-09, -4.493575302229489e-09).transl(-1.302519454364778e-07, 2.198369960827411e-08, 0))
hIsland = hIsland.add(rect(3.3267899149337358e-09, 2.9194648389778237e-10).transl(-9.489674279864245e-08, 3.364588925547774e-08, 0))
hIsland = hIsland.sub(rect(3.2458422877097955e-09, -2.1123439424063837e-09).transl(-4.017053306575968e-08, 3.9856074759562184e-08, 0))
hIsland = hIsland.add(rect(4.0890219756582805e-09, 1.327736129316345e-09).transl(5.902814006815031e-08, 3.8812035768107706e-08, 0))
hIsland = hIsland.add(rect(3.798484477768017e-09, 2.1195261866143826e-09).transl(1.449378839675641e-07, 1.1495326727069852e-08, 0))
hIsland = hIsland.sub(rect(6.524595631053839e-09, -2.01841181500549e-09).transl(4.83380223281053e-08, 3.9530181067542016e-08, 0))
hIsland = hIsland.add(rect(9.027477361312454e-09, 6.190072354838401e-10).transl(-3.2502769592466095e-08, 3.999129925422255e-08, 0))
hIsland = hIsland.add(rect(5.252470507369171e-09, 6.190591266530193e-10).transl(-1.3806324679937292e-07, 1.7391999090187745e-08, 0))
hIsland = hIsland.sub(rect(5.416849701237748e-09, -1.3118543490328583e-09).transl(-7.480970223109017e-08, 3.710658909136853e-08, 0))
hIsland = hIsland.add(rect(2.5096970137586453e-09, 4.283273879894158e-09).transl(1.049202199718938e-07, 3.124626313544113e-08, 0))
hIsland = hIsland.add(rect(2.7284529624951833e-09, 2.865971730571493e-10).transl(-1.0203641100277575e-07, 3.1990893651925334e-08, 0))
hIsland = hIsland.sub(rect(8.278738350797277e-09, -3.890889081656517e-09).transl(1.4494134246060704e-07, 1.1491483771101764e-08, 0))
hIsland = hIsland.sub(rect(4.895780104415975e-09, -6.869222259920798e-10).transl(-9.662670274930354e-08, 3.326807358540609e-08, 0))
hIsland = hIsland.add(rect(8.749579467020027e-09, 1.7425179054051063e-09).transl(-1.3489211549070414e-08, 4e-08, 0))
hIsland = hIsland.sub(rect(7.413895214585631e-09, -1.2400630308568915e-09).transl(6.535537020271768e-08, 3.822447993662465e-08, 0))
hIsland = hIsland.add(rect(8.820751104119748e-09, 1.0412357018598377e-09).transl(-1.4228102737049464e-08, 4e-08, 0))
hIsland = hIsland.sub(rect(4.564057878701444e-09, -1.5971958568919006e-10).transl(-2.491998439436497e-08, 4e-08, 0))
hIsland = hIsland.add(rect(3.708669823754971e-09, 8.802153761602148e-10).transl(8.916641093931366e-08, 3.479996139295475e-08, 0))
hIsland = hIsland.add(rect(3.565873596261976e-09, 4.2456347863066187e-10).transl(-6.67646891738055e-08, 3.807646930112185e-08, 0))
hIsland = hIsland.sub(rect(8.936228267321902e-09, -1.2633598939225078e-09).transl(-1.1337179767552819e-07, 2.876947331296915e-08, 0))
hIsland = hIsland.add(rect(8.164924310936947e-09, 1.6982523585178946e-09).transl(6.299994517605819e-08, 3.8457774273115524e-08, 0))
hIsland = hIsland.sub(rect(2.9799393120701696e-09, -2.376203617207384e-09).transl(8.195335655650018e-08, 3.6056820502141955e-08, 0))
hIsland = hIsland.sub(rect(3.6777679638464848e-09, -1.3214038711365018e-09).transl(-6.661262479309344e-08, 3.809274603700838e-08, 0))
hIsland = hIsland.add(rect(8.676547879177773e-09, 1.3738484303486045e-09).transl(1.0017340920583238e-07, 3.244772315318357e-08, 0))
hIsland = hIsland.sub(rect(7.831938523421505e-09, -2.83217397141059e-10).transl(4.6619647171790583e-08, 3.961451379353727e-08, 0))
hIsland = hIsland.add(rect(9.610145267472252e-09, 2.1277719508010555e-09).transl(-1.2649027977753487e-07, 2.3780538047489936e-08, 0))
hIsland = hIsland.sub(rect(7.068460032311382e-09, -1.1942021184315599e-09).transl(-1.5038437001358326e-08, 4e-08, 0))
hIsland = hIsland.add(rect(4.527429343612764e-09, 5.246343275513128e-09).transl(1.4620465953321292e-07, 9.980409158669417e-09, 0))
hIsland = hIsland.add(rect(5.936388732750212e-09, 3.200275551747222e-09).transl(-1.08439955965847e-07, 3.027131628763805e-08, 0))
hIsland = hIsland.sub(rect(4.081091805717485e-09, -5.609183793087565e-11).transl(-7.13836981509191e-08, 3.754610429170695e-08, 0))
hIsland = hIsland.sub(rect(2.276125589333457e-09, -2.0061852583952953e-09).transl(-7.726111847324485e-08, 3.676711495746334e-08, 0))
hIsland = hIsland.sub(rect(6.543438658435431e-09, -2.655944686403542e-09).transl(6.604305903151824e-08, 3.81530512769155e-08, 0))
hIsland = hIsland.sub(rect(2.17051545207465e-09, -1.211309246872003e-09).transl(-1.357315009590607e-07, 1.8917510127874626e-08, 0))
hIsland = hIsland.sub(rect(5.976029350273681e-09, -4.2024431718006075e-10).transl(-4.060217634756546e-08, 3.984357449478749e-08, 0))
hIsland = hIsland.sub(rect(8.993969523579478e-09, -3.309076010524351e-09).transl(-1.0465460263630037e-07, 3.131682243214073e-08, 0))
hIsland = hIsland.sub(rect(5.746793739579907e-09, -1.8170311037561647e-09).transl(-1.2738097046064912e-07, 2.337364753578075e-08, 0))
hIsland = hIsland.add(rect(8.221395050618131e-09, 1.9848008597833361e-10).transl(-7.465142279200807e-09, 4e-08, 0))
hIsland = hIsland.sub(rect(3.881945222066333e-09, -8.820041965239052e-10).transl(9.895476549377624e-08, 3.273672812623347e-08, 0))
hIsland = hIsland.sub(rect(2.8309682290454782e-09, -3.761031724219656e-10).transl(5.990813059206672e-08, 3.873772741066644e-08, 0))
hIsland = hIsland.sub(rect(3.256064069257299e-09, -1.4596739200404763e-09).transl(-1.3801476041726075e-07, 1.7425433302445417e-08, 0))
hIsland = hIsland.add(rect(2.2415590894102907e-09, 1.7402506994428526e-09).transl(6.845382600109684e-08, 3.789063687608409e-08, 0))
hIsland = hIsland.add(rect(2.5921982515696282e-09, 1.1548922206692533e-09).transl(1.3706721138052163e-07, 1.8063506018731383e-08, 0))
hIsland = hIsland.add(rect(4.470551845159107e-09, 1.529749793359568e-09).transl(-2.921585692850118e-08, 4e-08, 0))
hIsland = hIsland.sub(rect(3.1734905534617924e-09, -1.206428187413078e-09).transl(-3.338849134894974e-08, 3.998404977318121e-08, 0))
hIsland = hIsland.sub(rect(3.5574134982294893e-09, -1.5726988248330323e-09).transl(1.4942701776256294e-07, 3.904234572023887e-09, 0))
hIsland = hIsland.sub(rect(9.771422335868114e-09, -8.32540585518218e-10).transl(-4.82589513869896e-08, 3.9534247732887037e-08, 0))
hIsland = hIsland.sub(rect(7.208627587952861e-09, -7.777919711968158e-11).transl(9.419354464337297e-08, 3.379544483789245e-08, 0))
hIsland = hIsland.add(rect(5.499274261252051e-09, 2.1108895385383573e-09).transl(1.1584416858551887e-08, 4e-08, 0))
hIsland = hIsland.sub(rect(9.506835919793566e-09, -3.657611340788693e-11).transl(1.7259334837753043e-08, 4e-08, 0))
hIsland = hIsland.add(rect(7.908490863162198e-09, 1.1075397261628937e-09).transl(7.280338286480735e-09, 4e-08, 0))
hIsland = hIsland.sub(rect(5.911212464297584e-09, -1.817159090785582e-10).transl(1.458889272721062e-07, 1.0380304725352e-08, 0))
hIsland = hIsland.sub(rect(2.6186330120755683e-09, -4.508803637475243e-09).transl(1.4029366018857824e-07, 1.575968316872179e-08, 0))
hIsland = hIsland.sub(rect(2.204215419902189e-09, -1.0617643231803271e-09).transl(-1.1034156727635552e-07, 2.9712011352647793e-08, 0))
hIsland = hIsland.add(rect(6.302228134438461e-09, 2.6236898209975327e-10).transl(1.0759372565314352e-07, 3.0512681770162203e-08, 0))
hIsland = hIsland.sub(rect(5.28936184906492e-09, -1.790820068471053e-09).transl(-2.3291111838090396e-08, 4e-08, 0))
hIsland = hIsland.add(rect(6.51583559482402e-09, 2.8489571430988803e-10).transl(5.5616228835446774e-08, 3.907799724802526e-08, 0))
hIsland = hIsland.sub(rect(8.175081209000643e-09, -1.2320248287234902e-09).transl(-1.0791402857996792e-08, 4e-08, 0))
hIsland = hIsland.add(rect(4.611521191675928e-09, 3.4760971646925983e-09).transl(-7.038227925864387e-08, 3.7667067139282446e-08, 0))
hIsland = hIsland.sub(rect(8.183696700571119e-09, -1.5158508708913672e-09).transl(-1.0378600339792436e-07, 3.1544722577744014e-08, 0))
hIsland = hIsland.sub(rect(9.81022007269304e-09, -8.51276630047723e-10).transl(5.415178192862294e-08, 3.9181474406028285e-08, 0))
hIsland = hIsland.add(rect(3.6979327051510132e-09, 7.651846203952276e-10).transl(-1.1531014086181772e-07, 2.813100279868542e-08, 0))
hIsland = hIsland.add(rect(5.542763433897129e-09, 1.5236525206377321e-09).transl(1.4094247705778332e-07, 1.5245278993413834e-08, 0))
hIsland = hIsland.add(rect(4.676806038550575e-09, 1.2224795977899657e-09).transl(-1.3774894925272962e-07, 1.7607334125088966e-08, 0))
hIsland = hIsland.sub(rect(8.614578505361711e-09, -9.360959986466945e-10).transl(-1.0447014085438621e-07, 3.136558290924037e-08, 0))
hIsland = hIsland.add(rect(9.900710627122181e-09, 1.5200154650630074e-09).transl(6.150174390797248e-08, 3.8597121554673994e-08, 0))
hIsland = hIsland.add(rect(7.007410234896178e-09, 2.2337059311754145e-09).transl(1.4209472104837058e-07, 1.427808543455471e-08, 0))
hIsland = hIsland.sub(rect(4.5203015166860026e-09, -1.0137944137896943e-09).transl(3.055604510250105e-08, 3.999957057247821e-08, 0))
hIsland = hIsland.sub(rect(6.635524250129902e-09, -2.3345057142040664e-10).transl(-1.381761058392793e-07, 1.731386767706115e-08, 0))
hIsland = hIsland.add(rect(8.629635081530304e-09, 2.895950725732187e-09).transl(1.0275225558575165e-07, 3.181039192043567e-08, 0))
hIsland = hIsland.add(rect(7.786644963214206e-09, 2.026788040414042e-09).transl(-3.021827129639778e-08, 3.9999933830002446e-08, 0))
hIsland = hIsland.sub(rect(7.316377357675649e-09, -8.582945814935673e-10).transl(9.505107271369153e-08, 3.3612758719797687e-08, 0))
hIsland = hIsland.add(rect(8.648946737001307e-09, 1.4316812776958664e-09).transl(-9.787171700498e-08, 3.298725348237796e-08, 0))
hIsland = hIsland.sub(rect(7.981848404094492e-09, -9.090868439829219e-10).transl(8.262344059871843e-08, 3.594868796794978e-08, 0))
hIsland = hIsland.add(rect(3.512944842893334e-09, 9.222789720248755e-10).transl(6.985659504144736e-08, 3.772922803301039e-08, 0))
hIsland = hIsland.sub(rect(6.361913416493014e-09, -1.5639755238757967e-10).transl(-1.499889854468538e-07, 5.419482790731884e-10, 0))
hIsland = hIsland.sub(rect(6.4874102849689145e-09, -3.8359523750519343e-10).transl(-5.606383604430631e-09, 4e-08, 0))
hIsland = hIsland.sub(rect(9.870416535073767e-09, -2.7769952105424185e-09).transl(3.042864829808644e-08, 3.99997448056256e-08, 0))
hIsland = hIsland.add(rect(3.597623562512795e-09, 3.7144528689003556e-10).transl(-6.743186547383121e-08, 3.800417440105028e-08, 0))
hIsland = hIsland.sub(rect(9.389807292607738e-09, -6.346394140106301e-10).transl(6.68629629099306e-08, 3.8065910625155713e-08, 0))
hIsland = hIsland.add(rect(9.306691229063855e-09, 4.0119012554916775e-09).transl(-2.073179386363799e-08, 4e-08, 0))
hIsland = hIsland.add(rect(6.264753518814367e-09, 3.6854592792303646e-09).transl(4.4879549703420226e-08, 3.9691307473528267e-08, 0))
hIsland = hIsland.sub(rect(5.121353444720261e-09, -6.35496545067113e-10).transl(-3.477516759543257e-08, 3.996831769516608e-08, 0))
hIsland = hIsland.add(rect(7.070273444263002e-09, 1.4285091814753136e-09).transl(-5.800839811570764e-08, 3.889520055367018e-08, 0))
hIsland = hIsland.add(rect(4.749619652367464e-09, 2.4554482533204284e-09).transl(-1.1957548928679266e-07, 2.6617103354864178e-08, 0))
hIsland = hIsland.add(rect(3.2491069455794046e-09, 6.810955629420299e-10).transl(1.4619740930285136e-07, 9.989784066766723e-09, 0))
hIsland = hIsland.add(rect(4.540748420648032e-09, 1.940625666277744e-09).transl(-5.215350715565266e-08, 3.931245508134434e-08, 0))
hIsland = hIsland.sub(rect(9.213674416880196e-09, -1.1873638145289292e-09).transl(1.1680143921465556e-07, 2.761945801677679e-08, 0))
hIsland = hIsland.add(rect(2.444751073251099e-09, 9.369194837302095e-10).transl(3.91475568518761e-08, 3.988361150988335e-08, 0))
hIsland = hIsland.add(rect(2.981411561529969e-09, 5.525852423224714e-09).transl(-4.697736347647422e-08, 3.9597655836043404e-08, 0))
hIsland = hIsland.add(rect(2.6898135980960024e-09, 6.385943714494906e-10).transl(-3.335292851838805e-08, 3.9984382882362935e-08, 0))
hIsland = hIsland.add(rect(3.917097628049631e-09, 2.147187635324815e-09).transl(-3.8829104818129155e-08, 3.989158489387969e-08, 0))
hIsland = hIsland.add(rect(5.815628976787692e-09, 4.0446385037200536e-10).transl(-1.1236430885176882e-07, 2.909012934421884e-08, 0))
hIsland = hIsland.add(rect(8.331512434777158e-09, 1.6279509120312353e-09).transl(1.445227027799416e-07, 1.1946875686309333e-08, 0))
hIsland = hIsland.sub(rect(7.897678754776197e-09, -1.9790239766352133e-09).transl(-5.617078379931463e-08, 3.903714765782506e-08, 0))
hIsland = hIsland.add(rect(7.944927495259821e-09, 8.565363008195756e-10).transl(1.391127582896228e-07, 1.664800948538878e-08, 0))
hIsland = hIsland.sub(rect(3.511514140275047e-09, -2.93125819968155e-09).transl(9.081347189205129e-08, 3.448304194565898e-08, 0))
hIsland = hIsland.sub(rect(5.682297615588584e-09, -5.578673366510578e-10).transl(-3.565117876239506e-08, 3.995562007276943e-08, 0))
hIsland = hIsland.sub(rect(7.374163238219202e-09, -5.830755140272731e-10).transl(-2.791038721772007e-08, 4e-08, 0))
hIsland = hIsland.add(rect(4.376593796478742e-09, 2.083554528750917e-10).transl(1.09746264663612e-07, 2.988967356462977e-08, 0))
hIsland = hIsland.add(rect(6.191241738083971e-09, 2.119306483929751e-09).transl(1.1408525800506035e-07, 2.8537829447599386e-08, 0))
hIsland = hIsland.add(rect(4.58255786162544e-09, 3.6665304613576877e-09).transl(8.238485505028574e-08, 3.5987385075823686e-08, 0))
hIsland = hIsland.sub(rect(7.887198758546828e-09, -2.49826471710095e-09).transl(5.499221188274451e-08, 3.912286819922873e-08, 0))
hIsland = hIsland.sub(rect(6.545250723910593e-09, -1.477896376608033e-10).transl(-4.085325260724421e-08, 3.983606253947873e-08, 0))
hIsland = hIsland.add(rect(5.316203984048038e-09, 3.3353699725455738e-09).transl(1.17929160461588e-07, 2.7220218671095517e-08, 0))
hIsland = hIsland.sub(rect(7.587069526858858e-09, -1.0588253223585878e-09).transl(3.179519799277317e-08, 3.9995523727546674e-08, 0))
hIsland = hIsland.add(rect(5.945637463473496e-09, 3.9703177661529397e-10).transl(5.6547275835217845e-08, 3.900889093203819e-08, 0))
hIsland = hIsland.add(rect(8.438535111123127e-09, 1.7033648863258263e-09).transl(1.3772820508938784e-07, 1.7621432115525922e-08, 0))
hIsland = hIsland.add(rect(4.027989716493448e-09, 2.396093235484926e-09).transl(-1.3617822177828418e-07, 1.8637433120832402e-08, 0))
hIsland = hIsland.add(rect(6.811901204663665e-09, 1.9618029769664537e-09).transl(-2.1483381015990434e-09, 4e-08, 0))
hIsland = hIsland.add(rect(8.605438633414883e-09, 3.2603533134169163e-09).transl(-7.823262011293421e-08, 3.6626666601506756e-08, 0))
hIsland = hIsland.add(rect(2.7661806626464557e-09, 1.896755903055738e-09).transl(-9.090512190528933e-08, 3.4465064639915285e-08, 0))
hIsland = hIsland.sub(rect(7.467762130851054e-09, -1.650154460809589e-09).transl(7.600100131792256e-08, 3.6944264143208556e-08, 0))
hIsland = hIsland.sub(rect(3.994734979282834e-09, -1.3768333573900388e-09).transl(8.408328524128782e-08, 3.57071394316311e-08, 0))
hIsland = hIsland.add(rect(8.935024758838981e-09, 4.663508967529873e-10).transl(1.274611659556305e-08, 4e-08, 0))
hIsland = hIsland.sub(rect(8.112876032307784e-09, -2.3145349208412397e-10).transl(-6.363035160461468e-08, 3.8397047703277614e-08, 0))
hIsland = hIsland.sub(rect(6.775465138814704e-09, -2.4238662632090144e-10).transl(-6.436605946229197e-08, 3.832459894264926e-08, 0))
hIsland = hIsland.sub(rect(9.174538818061301e-09, -1.5669741867996937e-09).transl(4.034022861845431e-09, 4e-08, 0))
hIsland = hIsland.add(rect(8.690404178525458e-09, 8.15568256575347e-10).transl(6.441510773567866e-08, 3.831970824457136e-08, 0))
hIsland = hIsland.add(rect(3.891245801812916e-09, 9.899804609075657e-10).transl(5.1472441889011434e-08, 3.935442123873621e-08, 0))
hIsland = hIsland.sub(rect(4.996825054525567e-09, -3.2599132022916414e-09).transl(-6.203539110211549e-09, 4e-08, 0))
hIsland = hIsland.add(rect(5.190764048624925e-09, 1.2354848790863656e-09).transl(-1.2181315935798945e-07, 2.5755999880727765e-08, 0))
hIsland = hIsland.sub(rect(4.55600326637984e-09, -1.0412049332314695e-09).transl(-1.0565107943037415e-08, 4e-08, 0))
hIsland = hIsland.sub(rect(4.2828604625544365e-09, -2.1691518924748314e-09).transl(1.3007913361125e-07, 2.207101421327069e-08, 0))
hIsland = hIsland.sub(rect(4.101994319102341e-09, -2.939212378251198e-09).transl(1.2955425505028188e-07, 2.2333209704591717e-08, 0))
hIsland = hIsland.sub(rect(7.61215644557068e-09, -2.6032427152316255e-09).transl(1.3537699866683122e-07, 1.9136028126055416e-08, 0))
hIsland = hIsland.add(rect(8.040937509508367e-09, 4.4537287464319696e-10).transl(1.1460271530152457e-07, 2.8367392398881703e-08, 0))
hIsland = hIsland.sub(rect(2.1471231240087366e-09, -1.5067750665341798e-09).transl(-9.367725466397798e-09, 4e-08, 0))
hIsland = hIsland.sub(rect(8.3372196496244e-09, -3.6841523459491897e-09).transl(-1.4294161348994907e-07, 1.3516212250014418e-08, 0))
hIsland = hIsland.add(rect(6.2587876686464106e-09, 1.6606475131612474e-09).transl(4.4669145501327816e-08, 3.9700008634565076e-08, 0))
hIsland = hIsland.add(rect(9.662832843481899e-09, 3.029192497452941e-09).transl(1.3490348085843483e-07, 1.9422952355350676e-08, 0))
hIsland = hIsland.add(rect(2.2891472189116993e-09, 2.995699972128114e-10).transl(3.715856656733447e-08, 3.992876285016304e-08, 0))
hIsland = hIsland.sub(rect(9.220496318199133e-09, -1.2118835364690038e-09).transl(1.4154318018818854e-07, 1.4750212629372528e-08, 0))
hIsland = hIsland.sub(rect(8.440676560755808e-09, -3.832824558168835e-09).transl(-6.482991631098322e-08, 3.8278042632195965e-08, 0))
hIsland = hIsland.sub(rect(8.332445137725879e-09, -4.5685141363373283e-10).transl(1.869517930538575e-08, 4e-08, 0))
hIsland = hIsland.add(rect(5.5037652702076465e-09, 8.165086948401205e-10).transl(-2.6389995829660455e-08, 4e-08, 0))
hIsland = hIsland.sub(rect(9.700111567687443e-09, -3.120356752238615e-09).transl(9.810756472753513e-08, 3.2933197750875796e-08, 0))
hIsland = hIsland.sub(rect(3.792235798913608e-09, -4.023167262504944e-09).transl(6.117064020141851e-08, 3.8626978467033055e-08, 0))
hIsland = hIsland.add(rect(5.637671650255984e-09, 3.242941062564415e-10).transl(5.061734094625227e-08, 3.940519600862865e-08, 0))
hIsland = hIsland.add(rect(7.739501957228089e-09, 2.314593107002528e-09).transl(-1.401034728430579e-07, 1.5906760505094863e-08, 0))
hIsland = hIsland.sub(rect(2.7177275652911784e-09, -8.051530281753688e-10).transl(4.996404208528103e-08, 3.944255601309767e-08, 0))
hIsland = hIsland.sub(rect(4.47104414150363e-09, -1.0730688285976245e-09).transl(2.0516441450943647e-08, 4e-08, 0))
hIsland = hIsland.add(rect(9.69745769525272e-09, 2.720960559587769e-09).transl(-1.4376815210870306e-07, 1.272271619222443e-08, 0))
hIsland = hIsland.sub(rect(5.519065682054081e-09, -9.249657814351607e-10).transl(-8.1460889926816e-08, 3.6135204145818996e-08, 0))
hIsland = hIsland.add(rect(7.785397289611678e-09, 2.2920562350142746e-09).transl(-9.98881038848121e-08, 3.251606942110951e-08, 0))
hIsland = hIsland.add(rect(4.074291751778308e-09, 8.046272483310178e-12).transl(-1.4309180499157025e-07, 1.3375947084842875e-08, 0))
hIsland = hIsland.sub(rect(7.976202157459692e-09, -3.802698170427875e-09).transl(-4.6766588818738155e-08, 3.960763324212387e-08, 0))
hIsland = hIsland.add(rect(8.48144117325889e-09, 7.130233528807813e-10).transl(1.231419244781133e-07, 2.5220322282973488e-08, 0))
hIsland = hIsland.add(rect(4.4855273893228125e-09, 1.7134365644838175e-09).transl(8.925608442505834e-08, 3.4783004244746315e-08, 0))
hIsland = hIsland.add(rect(9.342062627105506e-09, 2.3286486663840766e-09).transl(-7.570885400133706e-08, 3.698453230125693e-08, 0))
hIsland = hIsland.add(rect(2.1859787198710053e-09, 2.975039182738723e-10).transl(1.0092021512602267e-07, 3.2266809721581414e-08, 0))
hIsland = hIsland.add(rect(2.4443098389261284e-09, 2.4567965823805076e-10).transl(-1.3308709743301437e-07, 2.0475053501045843e-08, 0))
hIsland = hIsland.sub(rect(5.338166292681931e-09, -1.7461266567470951e-09).transl(2.837620506878158e-08, 4e-08, 0))
hIsland = hIsland.add(rect(2.005477830004815e-09, 9.937049831095494e-10).transl(1.3263542247952085e-07, 2.0725641800678448e-08, 0))
hIsland = hIsland.add(rect(7.996466776073926e-09, 3.3541049814185445e-09).transl(-2.9914858106901144e-08, 4e-08, 0))
hIsland = hIsland.sub(rect(7.055139812647153e-09, -1.2204629000650441e-09).transl(-6.027006088561672e-08, 3.870647866239371e-08, 0))
hIsland = hIsland.add(rect(6.415217782745632e-09, 2.5901694796596236e-09).transl(4.940337122447234e-08, 3.9473632810220884e-08, 0))
hIsland = hIsland.add(rect(6.1215920685281815e-09, 2.4868065663615078e-09).transl(-3.291935012663499e-08, 3.998816129645e-08, 0))
hIsland = hIsland.sub(rect(3.946328429599107e-09, -4.7287980663871814e-11).transl(6.670544676329179e-08, 3.808281936619941e-08, 0))
hIsland = hIsland.add(rect(7.849033755680262e-09, 3.192524789240601e-09).transl(7.347997067102396e-08, 3.728194700216014e-08, 0))
hIsland = hIsland.sub(rect(2.628748102669292e-09, -1.3361814477174262e-09).transl(5.349550684755128e-08, 3.922578681028969e-08, 0))
hIsland = hIsland.add(rect(9.216030928491122e-09, 2.1180027362330945e-09).transl(1.4757584635293205e-07, 7.999446886377144e-09, 0))
hIsland = hIsland.sub(rect(3.940841478510939e-09, -2.81563450135317e-09).transl(9.68406477491306e-08, 3.3220354885516006e-08, 0))
hIsland = hIsland.sub(rect(9.424162010521905e-09, -7.394752664848727e-10).transl(3.911547624973273e-08, 3.988442761103714e-08, 0))
hIsland = hIsland.sub(rect(5.671923044056466e-09, -2.184894119326519e-09).transl(5.77453564820476e-08, 3.891614231436059e-08, 0))
hIsland = hIsland.sub(rect(6.104600571907604e-09, -8.547880265557951e-10).transl(-1.2895925444237487e-07, 2.2625123597475324e-08, 0))
hIsland = hIsland.sub(rect(4.6372462169290175e-09, -2.966173145821576e-09).transl(1.2244528227317093e-07, 2.550352870014865e-08, 0))
hIsland = hIsland.add(rect(8.416989234198856e-09, 2.0372189039207644e-10).transl(3.780259844689639e-08, 3.9915354129396946e-08, 0))
hIsland = hIsland.add(rect(4.5982694041325595e-09, 1.6604207718323067e-10).transl(-5.330643556633984e-08, 3.923831752706367e-08, 0))
hIsland = hIsland.add(rect(2.595034974528183e-09, 1.8281172148209088e-10).transl(1.2195194826914006e-07, 2.5700927803203687e-08, 0))
hIsland = hIsland.add(rect(5.915878681240242e-09, 4.076080933482841e-09).transl(-8.968088731594781e-08, 3.470221204793906e-08, 0))
hIsland = hIsland.add(rect(2.363604341719717e-09, 1.0842474270006158e-09).transl(-3.618383352893964e-08, 3.9946853864278726e-08, 0))
hIsland = hIsland.add(rect(6.320732391120667e-09, 1.0998765748189038e-09).transl(3.736487108063518e-08, 3.9924593748668005e-08, 0))
hIsland = hIsland.add(rect(9.979466330562417e-09, 1.8207738367076142e-09).transl(6.641658127233406e-08, 3.8113620499815326e-08, 0))
hIsland = hIsland.add(rect(5.358607718775806e-09, 4.913283124352156e-10).transl(1.4803652618048823e-07, 7.206312720593743e-09, 0))
hIsland = hIsland.add(rect(2.838557928305062e-09, 3.029753397174899e-11).transl(-4.909918426893487e-08, 3.949011291205443e-08, 0))
hIsland = hIsland.sub(rect(6.425606990920311e-09, -1.2139991024131936e-09).transl(1.2036501202199707e-07, 2.6318908712314563e-08, 0))
hIsland = hIsland.add(rect(3.2722469195421395e-09, 2.7719176769293526e-11).transl(1.4015174080311167e-07, 1.586958655921623e-08, 0))
hIsland = hIsland.add(rect(2.8911928941132603e-09, 5.1369726220183e-10).transl(-1.1095004657932385e-07, 2.9527933966190392e-08, 0))
vIsland = hIsland.rotz(pi / 2)
hIslands = hIslands.add(hIsland.transl(-a/2, a, 0))
hIsland = rect(islandLength-2*ellipseConstant, islandWidth)
hIsland = hIsland.add(ellipse(ellipseConstant*2, islandWidth).transl(islandLength/2-ellipseConstant, 0, 0))
hIsland = hIsland.add(ellipse(ellipseConstant*2, islandWidth).transl(-islandLength/2+ellipseConstant, 0, 0))
hIsland = hIsland.sub(rect(3.6788203517371186e-09, -1.2862468751014895e-09).transl(-5.849148613965716e-08, -3.8856195298324375e-08, 0))
hIsland = hIsland.sub(rect(6.357673130605062e-09, -2.26041429950127e-09).transl(6.970551339053294e-08, -3.774692365153632e-08, 0))
hIsland = hIsland.sub(rect(4.75640253771551e-09, -2.7234306388365915e-09).transl(-3.877882501443353e-08, -3.989281783223914e-08, 0))
hIsland = hIsland.add(rect(5.439361320826991e-09, 1.984251890991627e-09).transl(-6.085467936022004e-08, -3.865515455290106e-08, 0))
hIsland = hIsland.sub(rect(4.783757139908596e-09, -4.1730289688458086e-10).transl(-1.0020999052263374e-07, -3.2438929340483075e-08, 0))
hIsland = hIsland.sub(rect(6.076851706741273e-09, -3.4874581753101244e-10).transl(1.1448141029533636e-07, -2.8407532871310028e-08, 0))
hIsland = hIsland.sub(rect(7.61076919414568e-09, -8.756369471604571e-10).transl(6.305589538590244e-08, -3.845243494708217e-08, 0))
hIsland = hIsland.sub(rect(2.5170575725914635e-09, -3.854163438823023e-09).transl(5.635041832320515e-09, -4e-08, 0))
hIsland = hIsland.add(rect(4.510388255498771e-09, 2.111766762321436e-09).transl(5.675698753377244e-08, -3.899296748292148e-08, 0))
hIsland = hIsland.add(rect(2.182034944599681e-09, 1.0182869638187975e-09).transl(-7.30810089397921e-08, -3.7333373018921694e-08, 0))
hIsland = hIsland.sub(rect(4.602602204639805e-09, -1.7056380383533422e-09).transl(-1.1376745285430368e-07, -2.864148863741007e-08, 0))
hIsland = hIsland.add(rect(8.85616866044577e-09, 7.983464598097434e-10).transl(-2.2290047022770662e-08, -4e-08, 0))
hIsland = hIsland.add(rect(9.107175107254754e-09, 5.417049553328535e-10).transl(-3.0875405761976946e-08, -3.999893563132774e-08, 0))
hIsland = hIsland.add(rect(3.2572867723596757e-09, 9.958507685946451e-10).transl(8.125800604305412e-08, -3.6167230128468246e-08, 0))
hIsland = hIsland.add(rect(6.821398741462326e-09, 7.456901221847173e-10).transl(3.7947281796516964e-08, -3.9912182367524425e-08, 0))
hIsland = hIsland.add(rect(5.7697590699772355e-09, 1.3145594271686499e-09).transl(7.319704016909094e-08, -3.731847281713612e-08, 0))
hIsland = hIsland.sub(rect(4.114110431855416e-09, -2.039227848159294e-09).transl(-7.936706074745238e-08, -3.645833742957287e-08, 0))
hIsland = hIsland.sub(rect(6.793193919303461e-09, -1.139965928700272e-09).transl(1.2935729799941418e-07, -2.2430453837622962e-08, 0))
hIsland = hIsland.add(rect(8.629083979699043e-09, 4.02946996223448e-09).transl(7.548315249554406e-08, -3.701543647823325e-08, 0))
hIsland = hIsland.sub(rect(7.78781094374783e-09, -3.654746091119111e-10).transl(-4.043504498517283e-08, -3.9848476669834945e-08, 0))
hIsland = hIsland.sub(rect(4.232667842949195e-09, -1.8600178935511718e-09).transl(-6.640366992652538e-09, -4e-08, 0))
hIsland = hIsland.add(rect(6.5318247316182036e-09, 1.5668041375309162e-09).transl(7.285965612285048e-08, -3.7361670610148346e-08, 0))
hIsland = hIsland.add(rect(9.592514029892215e-09, 7.687973793116262e-10).transl(-4.9224635308055035e-08, -3.9483348666483985e-08, 0))
hIsland = hIsland.add(rect(4.010946709432777e-09, 5.334616924690659e-10).transl(1.1031401948653772e-07, -2.9720285391773228e-08, 0))
hIsland = hIsland.add(rect(3.707320837989223e-09, 3.644023018552747e-09).transl(-1.421322401544469e-07, -1.424531391934224e-08, 0))
hIsland = hIsland.add(rect(8.148957309272131e-09, 2.6961477851810674e-09).transl(-6.228821905317806e-08, -3.852484178404889e-08, 0))
hIsland = hIsland.sub(rect(8.871400590619872e-09, -1.3063620585899258e-10).transl(-1.392046121653168e-07, -1.6580955212474423e-08, 0))
hIsland = hIsland.sub(rect(6.776290892894362e-09, -3.69967782920785e-10).transl(-2.8805996304545547e-08, -4e-08, 0))
hIsland = hIsland.sub(rect(9.760552467561156e-09, -3.872111769130227e-09).transl(4.2274249736349963e-10, -4e-08, 0))
hIsland = hIsland.sub(rect(6.013851852372371e-09, -6.378088289248425e-10).transl(-1.4929369997196258e-07, -4.333501881329515e-09, 0))
hIsland = hIsland.add(rect(7.208365580611667e-09, 1.544382540916431e-09).transl(-1.6537113206710897e-08, -4e-08, 0))
hIsland = hIsland.add(rect(2.1712688244402234e-09, 5.975298666620914e-10).transl(-4.634568839348418e-08, -3.9627177081368336e-08, 0))
hIsland = hIsland.add(rect(8.457485991921218e-09, 3.0744141009189216e-09).transl(-5.1258124542531427e-08, -3.93673470741852e-08, 0))
hIsland = hIsland.sub(rect(7.081854114405466e-09, -1.5117477331463468e-09).transl(6.903684619765771e-08, -3.782433760739009e-08, 0))
hIsland = hIsland.add(rect(6.0998259241777034e-09, 3.2145617851191977e-09).transl(-8.201888964219753e-08, -3.604632069434006e-08, 0))
hIsland = hIsland.sub(rect(3.0561906850152508e-09, -4.001447478712588e-09).transl(-7.289111455764354e-09, -4e-08, 0))
hIsland = hIsland.sub(rect(9.880028352128471e-09, -1.6449532242509817e-09).transl(-1.0511957534544554e-07, -3.119303590354733e-08, 0))
hIsland = hIsland.sub(rect(5.5817017509100195e-09, -1.6828599296439178e-09).transl(-2.837749938581067e-09, -4e-08, 0))
hIsland = hIsland.sub(rect(2.1389841958224534e-09, -8.321799746262391e-10).transl(4.643362284290613e-08, -3.962313583453361e-08, 0))
hIsland = hIsland.sub(rect(9.39587121407049e-09, -1.724281454453508e-09).transl(1.4503252248992972e-07, -1.1389657928742094e-08, 0))
hIsland = hIsland.add(rect(6.8572009253740334e-09, 2.321086727838098e-09).transl(-2.372694977891351e-09, -4e-08, 0))
hIsland = hIsland.sub(rect(6.128434877486813e-09, -2.1191758978460933e-09).transl(-9.082659397370554e-08, -3.448047026225775e-08, 0))
hIsland = hIsland.sub(rect(5.412950627856864e-09, -1.5569001176701019e-09).transl(5.519013515092141e-08, -3.91087615802653e-08, 0))
hIsland = hIsland.add(rect(7.4430120791403866e-09, 2.3560336815621927e-09).transl(-7.217575989431393e-08, -3.7448045902641616e-08, 0))
hIsland = hIsland.add(rect(4.801630098481506e-09, 4.494089555096172e-09).transl(-1.096849447475608e-07, -2.990783914438596e-08, 0))
hIsland = hIsland.sub(rect(3.799671450492497e-09, -7.860214438965587e-10).transl(5.675846016570234e-08, -3.8992855199611064e-08, 0))
hIsland = hIsland.add(rect(7.450050786691226e-09, 3.1723160414449218e-09).transl(-2.3278825781129423e-08, -4e-08, 0))
hIsland = hIsland.sub(rect(5.572156825667436e-09, -1.1618525712319142e-09).transl(1.157128171156602e-08, -4e-08, 0))
hIsland = hIsland.add(rect(6.472278583640392e-09, 1.2311906588662077e-09).transl(-3.348797342457734e-08, -3.9983099264827495e-08, 0))
hIsland = hIsland.add(rect(5.593965097232984e-09, 1.683836218159192e-09).transl(1.3304376014414588e-07, -2.0499277752468733e-08, 0))
hIsland = hIsland.add(rect(4.879357740440465e-09, 8.927461661436354e-10).transl(-7.105210845565155e-08, -3.7586528897916816e-08, 0))
hIsland = hIsland.add(rect(6.628287185981989e-09, 1.1976719796517576e-09).transl(8.332980637304578e-09, -4e-08, 0))
hIsland = hIsland.sub(rect(7.920371613270715e-09, -4.802176732951537e-10).transl(-9.596609416950963e-08, -3.341402636289036e-08, 0))
hIsland = hIsland.add(rect(7.476213349917076e-09, 5.024891495496157e-10).transl(6.273928783846878e-08, -3.848251988721617e-08, 0))
hIsland = hIsland.sub(rect(7.216199817583123e-09, -1.4464825594336888e-10).transl(-2.846453672259221e-08, -4e-08, 0))
hIsland = hIsland.add(rect(5.350313322000195e-09, 2.927483668149082e-10).transl(1.3095131318502518e-08, -4e-08, 0))
hIsland = hIsland.sub(rect(8.647673250247377e-09, -1.2403946258870096e-10).transl(2.949937140614212e-08, -4e-08, 0))
hIsland = hIsland.add(rect(2.667115768383745e-09, 2.598099970794635e-09).transl(1.2143716837022013e-07, -2.5904191510761806e-08, 0))
hIsland = hIsland.sub(rect(8.003851329673097e-09, -5.076549866425181e-09).transl(1.6072950100042524e-08, -4e-08, 0))
hIsland = hIsland.sub(rect(2.480544745103749e-09, -7.418062764021209e-10).transl(8.608509732072511e-09, -4e-08, 0))
hIsland = hIsland.add(rect(4.049741851584916e-09, 6.205556289313592e-10).transl(9.234197155059907e-08, -3.417841843942574e-08, 0))
hIsland = hIsland.add(rect(2.5449835928230157e-09, 2.6305348029174514e-09).transl(3.8115625828717354e-08, -3.990841823949798e-08, 0))
hIsland = hIsland.sub(rect(2.7886008104439927e-09, -3.0886248047960725e-09).transl(-9.489365123029373e-08, -3.36465517962523e-08, 0))
hIsland = hIsland.sub(rect(2.0673816054407636e-09, -1.3920714309913244e-09).transl(9.424531146649678e-08, -3.378451314264968e-08, 0))
hIsland = hIsland.sub(rect(9.149711729738829e-09, -1.1588776936329033e-09).transl(-4.163421125520904e-08, -3.981156326784854e-08, 0))
hIsland = hIsland.sub(rect(7.575320911532424e-09, -7.232694570251491e-12).transl(-7.062150928217889e-08, -3.763847467631707e-08, 0))
hIsland = hIsland.sub(rect(2.727030478191796e-09, -9.885392998593846e-10).transl(-7.779985276503189e-08, -3.668965048687478e-08, 0))
hIsland = hIsland.add(rect(4.362667843826857e-09, 8.278228140413114e-10).transl(-5.264151951970174e-08, -3.928155008516363e-08, 0))
hIsland = hIsland.sub(rect(8.74109908959164e-09, -1.4266201312639383e-09).transl(5.140380048535334e-08, -3.935857569236297e-08, 0))
hIsland = hIsland.add(rect(9.995422811509873e-09, 9.660168752480453e-11).transl(-6.209913748108107e-08, -3.8542394224441935e-08, 0))
hIsland = hIsland.sub(rect(2.0524022163216565e-09, -2.5303364823095034e-09).transl(-1.4729461204943628e-07, -8.445735177342744e-09, 0))
hIsland = hIsland.add(rect(6.420580440689415e-09, 1.4729145743743237e-09).transl(1.1836138795158729e-07, -2.706425506347828e-08, 0))
hIsland = hIsland.sub(rect(5.719781444952328e-09, -2.29258201669299e-09).transl(1.3931610743595186e-07, -1.649912002721301e-08, 0))
hIsland = hIsland.sub(rect(5.790930768481233e-09, -1.7524588909141242e-10).transl(-1.1819359271851558e-07, -2.7124999136509146e-08, 0))
hIsland = hIsland.sub(rect(5.687612569632369e-09, -2.593592515398114e-11).transl(1.4365501094333316e-07, -1.2834582136083325e-08, 0))
hIsland = hIsland.sub(rect(8.69201902642435e-09, -1.6803081277958768e-10).transl(2.297774646994636e-08, -4e-08, 0))
hIsland = hIsland.sub(rect(6.678353569688357e-09, -1.9838376904823636e-09).transl(-2.937103807542782e-08, -4e-08, 0))
hIsland = hIsland.sub(rect(6.111842988922448e-09, -1.673774511353654e-09).transl(9.025883190594262e-09, -4e-08, 0))
hIsland = hIsland.sub(rect(6.164153937008889e-09, -3.382878620708034e-09).transl(-1.0843502322268464e-07, -3.027273641791483e-08, 0))
hIsland = hIsland.add(rect(2.487628067268518e-09, 1.7526494854927447e-09).transl(-8.595075429976622e-08, -3.538598764308204e-08, 0))
hIsland = hIsland.add(rect(4.854835916476372e-09, 3.8933732362121685e-09).transl(-9.087606232269482e-08, -3.4470768672864746e-08, 0))
hIsland = hIsland.sub(rect(3.9287802204018715e-09, -1.560555332466084e-09).transl(-5.392584154597717e-08, -3.919687360876969e-08, 0))
hIsland = hIsland.sub(rect(2.9459151819784755e-09, -1.7979102410610575e-09).transl(1.0788352808138965e-07, -3.043053301025759e-08, 0))
hIsland = hIsland.add(rect(8.725184073275518e-09, 1.77970183169278e-09).transl(2.2548599144007883e-08, -4e-08, 0))
hIsland = hIsland.sub(rect(8.106441395170539e-09, -4.913265857825821e-10).transl(-1.1618684200246867e-07, -2.7832491535456875e-08, 0))
hIsland = hIsland.add(rect(2.6077404731683943e-09, 5.697662548527147e-10).transl(1.1871636396463496e-07, -2.6934914897653282e-08, 0))
hIsland = hIsland.sub(rect(4.258704156889925e-09, -1.4425054401537133e-09).transl(-1.2121764705327187e-07, -2.59900426789114e-08, 0))
hIsland = hIsland.sub(rect(6.866807526604871e-09, -7.360015854908334e-10).transl(6.116657137977266e-08, -3.862734326359091e-08, 0))
hIsland = hIsland.add(rect(4.473519827212138e-09, 4.1837203497255355e-09).transl(9.811929534734803e-08, -3.2930501904905344e-08, 0))
hIsland = hIsland.add(rect(6.792312827116684e-09, 5.831212033009177e-10).transl(9.13274516043146e-08, -3.438175174859874e-08, 0))
hIsland = hIsland.add(rect(4.641566822004522e-09, 1.9030715762783732e-10).transl(-1.329775580867812e-07, -2.0536207944029025e-08, 0))
hIsland = hIsland.sub(rect(8.800829485283424e-09, -2.0789855994333167e-09).transl(1.1593158740605459e-07, -2.7920049120212286e-08, 0))
hIsland = hIsland.add(rect(7.333386490171112e-09, 3.5199428745970624e-09).transl(3.113626777611552e-08, -3.9998206759166035e-08, 0))
hIsland = hIsland.add(rect(3.5833920937759e-09, 7.834165676166824e-10).transl(5.93475949294304e-08, -3.878533324145736e-08, 0))
hIsland = hIsland.sub(rect(8.232067770242332e-09, -1.3105684902937224e-09).transl(-1.1666548613399313e-09, -4e-08, 0))
hIsland = hIsland.add(rect(3.089596367449306e-09, 1.2837748319728326e-09).transl(7.576774005080795e-08, -3.697643990230907e-08, 0))
hIsland = hIsland.add(rect(4.706675318824274e-09, 2.7909773218857516e-10).transl(-1.2609822408516642e-07, -2.3956282701058108e-08, 0))
hIsland = hIsland.sub(rect(4.64961865217418e-09, -3.785505054552532e-10).transl(-2.4575961925151234e-08, -4e-08, 0))
hIsland = hIsland.sub(rect(2.199009421143219e-09, -8.242381760712184e-10).transl(7.691421401936651e-08, -3.681644638978177e-08, 0))
hIsland = hIsland.sub(rect(6.5510476533013826e-09, -2.7657925528635497e-10).transl(-6.107692229537622e-08, -3.863536793700121e-08, 0))
hIsland = hIsland.add(rect(5.867767651060021e-09, 2.5182415098001032e-09).transl(1.1395167664635766e-07, -2.858149360117372e-08, 0))
hIsland = hIsland.add(rect(2.344058942964991e-09, 4.8463217895996026e-09).transl(1.0535445131037617e-07, -3.113002599797635e-08, 0))
hIsland = hIsland.add(rect(8.342757494724557e-09, 4.034042664843464e-10).transl(-4.91962613385838e-08, -3.9484882551034354e-08, 0))
hIsland = hIsland.sub(rect(4.981915548032909e-09, -6.894189484530468e-10).transl(-1.436710323399441e-07, -1.2818807392834892e-08, 0))
hIsland = hIsland.sub(rect(5.9099317710650446e-09, -2.0454000620391767e-09).transl(-1.9787485668247482e-08, -4e-08, 0))
hIsland = hIsland.sub(rect(3.583236203185348e-09, -3.0063568385939285e-09).transl(4.5026828832203394e-08, -3.968514193729277e-08, 0))
hIsland = hIsland.sub(rect(3.1319350667122834e-09, -2.7042451381508856e-09).transl(-4.413842237877994e-08, -3.972139783352043e-08, 0))
hIsland = hIsland.sub(rect(5.035776907761467e-09, -2.0257057829227983e-09).transl(-3.896703952931162e-08, -3.9888166167813294e-08, 0))
hIsland = hIsland.sub(rect(8.301122274468131e-09, -3.0756776227564723e-09).transl(4.607263635310169e-08, -3.963958509798136e-08, 0))
hIsland = hIsland.sub(rect(4.6307231120755115e-09, -6.061564032745213e-10).transl(-6.105460846478067e-08, -3.863736144243343e-08, 0))
hIsland = hIsland.sub(rect(4.688869003708399e-09, -9.49544606518776e-10).transl(-1.0906199541418999e-08, -4e-08, 0))
hIsland = hIsland.add(rect(4.797416748048193e-09, 2.7135544062938537e-09).transl(-1.7801401093506813e-08, -4e-08, 0))
hIsland = hIsland.add(rect(6.719299922826139e-09, 2.134892261087026e-09).transl(1.3345261089383944e-07, -2.026918103714179e-08, 0))
hIsland = hIsland.sub(rect(9.87246901077355e-09, -9.744957878626581e-10).transl(1.4267547137483004e-07, -1.3760806462396746e-08, 0))
hIsland = hIsland.sub(rect(3.5734855482544124e-09, -1.9127685773763313e-09).transl(-6.319405665628644e-10, -4e-08, 0))
hIsland = hIsland.sub(rect(5.298296058066421e-09, -1.159342708732982e-10).transl(9.779842360967209e-08, -3.300399598035813e-08, 0))
hIsland = hIsland.add(rect(5.411476832079214e-09, 1.319398503976413e-09).transl(9.721674084541011e-08, -3.31359317393621e-08, 0))
hIsland = hIsland.add(rect(8.485034155190639e-09, 1.2342148202681606e-09).transl(-4.331786229736306e-08, -3.975289583278246e-08, 0))
hIsland = hIsland.add(rect(8.694151501982148e-09, 5.869351824104105e-09).transl(-6.781360700752817e-08, -3.796216116825369e-08, 0))
hIsland = hIsland.sub(rect(6.953832848804951e-09, -7.80757210766283e-10).transl(-8.01850389458358e-08, -3.633403954360298e-08, 0))
hIsland = hIsland.add(rect(9.200976364617692e-09, 3.1096754672517604e-10).transl(-9.774531343205135e-08, -3.301611140033356e-08, 0))
hIsland = hIsland.add(rect(9.71516555328948e-09, 4.846942240534712e-10).transl(7.198262289896967e-08, -3.7472151695956394e-08, 0))
hIsland = hIsland.sub(rect(3.633182523244223e-09, -3.614421505653392e-10).transl(1.6940736839940305e-08, -4e-08, 0))
hIsland = hIsland.add(rect(3.224522794071466e-09, 5.244488893728102e-10).transl(1.1439569634834473e-07, -2.8435827240917973e-08, 0))
hIsland = hIsland.sub(rect(2.9380614114753254e-09, -7.381046018271248e-12).transl(6.739636808630944e-08, -3.800805711944253e-08, 0))
hIsland = hIsland.sub(rect(8.130737244536814e-09, -9.033359732873605e-10).transl(-4.667117618797907e-09, -4e-08, 0))
hIsland = hIsland.add(rect(9.962550829778206e-09, 3.1641801044561363e-10).transl(1.3579155803505757e-07, -1.8880166690986868e-08, 0))
hIsland = hIsland.add(rect(3.028321639435869e-09, 7.624090544658937e-10).transl(1.0927615490649861e-07, -3.002830380239587e-08, 0))
hIsland = hIsland.sub(rect(9.195079437863995e-09, -2.8562350696899063e-10).transl(-1.0616685834878237e-07, -3.090956286630855e-08, 0))
hIsland = hIsland.add(rect(7.1472118340312e-09, 4.594863189440507e-09).transl(-8.119373928319121e-08, -3.617734259973076e-08, 0))
hIsland = hIsland.add(rect(9.605657060578661e-09, 1.108659005791198e-09).transl(1.6855049155848682e-08, -4e-08, 0))
hIsland = hIsland.sub(rect(6.906250492767786e-09, -2.7383984987950455e-09).transl(-1.2704673173041146e-07, -2.3527600483133646e-08, 0))
hIsland = hIsland.add(rect(2.4003292875401068e-09, 2.019549586928974e-09).transl(-6.949097582465567e-09, -4e-08, 0))
hIsland = hIsland.sub(rect(6.088146358285264e-09, -2.7007144779380194e-09).transl(-9.92185695519577e-08, -3.267481127919792e-08, 0))
hIsland = hIsland.add(rect(5.254609376983521e-09, 1.674076442031406e-09).transl(1.609859940486742e-08, -4e-08, 0))
hIsland = hIsland.sub(rect(6.499759915356643e-09, -1.1565718405097354e-09).transl(3.0337912665074456e-08, -3.9999841409450585e-08, 0))
hIsland = hIsland.add(rect(4.588240651590314e-09, 1.3096301122811627e-09).transl(2.877172716901754e-08, -4e-08, 0))
hIsland = hIsland.sub(rect(7.0206690930472475e-09, -4.141512535621541e-09).transl(-1.73075374179687e-08, -4e-08, 0))
hIsland = hIsland.add(rect(6.009095211199401e-09, 2.3866329979611137e-09).transl(-1.487900485947805e-07, -5.665924999010362e-09, 0))
hIsland = hIsland.sub(rect(9.660077511497402e-09, -3.179081284552833e-09).transl(7.95575091190564e-08, -3.6429617513950624e-08, 0))
hIsland = hIsland.sub(rect(4.75304124139622e-09, -3.468987270092551e-10).transl(5.190504590852819e-08, -3.932792189292667e-08, 0))
hIsland = hIsland.add(rect(6.934677013214122e-09, 4.2853419597036727e-10).transl(9.091607267238178e-08, -3.4462914189947404e-08, 0))
hIsland = hIsland.add(rect(9.364236746358177e-09, 2.582248085298565e-09).transl(1.2270321593151193e-07, -2.539928642032527e-08, 0))
hIsland = hIsland.sub(rect(9.220520242912576e-09, -2.0776941432948336e-09).transl(-1.3373711794201176e-07, -2.0106964965418617e-08, 0))
hIsland = hIsland.sub(rect(5.406699419482371e-09, -4.929718271336076e-09).transl(-1.0465569304840478e-07, -3.131653360883986e-08, 0))
hIsland = hIsland.add(rect(2.384399710246238e-09, 6.939882710375113e-10).transl(-1.7313982682640614e-10, -4e-08, 0))
hIsland = hIsland.add(rect(5.4090207011776875e-09, 1.7230535932957384e-10).transl(-1.4438888203232037e-07, -1.2088487026900597e-08, 0))
hIsland = hIsland.sub(rect(3.371965162389441e-09, -3.468108874964266e-09).transl(5.4362242098024316e-08, -3.91669945517584e-08, 0))
hIsland = hIsland.sub(rect(5.409350790875635e-09, -1.5932649296014962e-09).transl(-6.914024294822203e-08, -3.7812463233339935e-08, 0))
hIsland = hIsland.sub(rect(9.36896404888783e-09, -2.9230676411075094e-09).transl(5.785052118672057e-08, -3.8907794805480006e-08, 0))
hIsland = hIsland.sub(rect(8.788628908471004e-09, -1.1296844249254761e-09).transl(-6.243304603621555e-08, -3.8511322324758126e-08, 0))
hIsland = hIsland.sub(rect(5.107297264005078e-09, -1.3013127558963018e-09).transl(1.2893192345897813e-07, -2.2638400318207838e-08, 0))
hIsland = hIsland.sub(rect(6.204793727433982e-09, -5.627106393756374e-10).transl(-6.235369601401294e-08, -3.8518737654164056e-08, 0))
hIsland = hIsland.add(rect(5.491797134411233e-09, 7.414082089934537e-10).transl(-7.797011907096104e-08, -3.666495098458445e-08, 0))
hIsland = hIsland.sub(rect(2.0993048423352347e-09, -5.320933402970347e-10).transl(-7.696259263788058e-08, -3.6809592488807235e-08, 0))
hIsland = hIsland.add(rect(8.910836275151268e-09, 1.102114065778664e-09).transl(3.262233379316925e-08, -3.9990447978204333e-08, 0))
hIsland = hIsland.add(rect(9.860393779452e-09, 9.757851903482892e-10).transl(2.663166730564528e-08, -4e-08, 0))
hIsland = hIsland.add(rect(2.52829909249881e-09, 2.848795502696184e-09).transl(1.2622672385444415e-07, -2.3898901918615777e-08, 0))
hIsland = hIsland.add(rect(4.67427414820622e-09, 3.706838161578137e-09).transl(1.273442030039208e-07, -2.3390658490401816e-08, 0))
hIsland = hIsland.sub(rect(5.61557283759062e-09, -2.2798330258872456e-09).transl(-9.96838825202844e-08, -3.2564732997692806e-08, 0))
hIsland = hIsland.sub(rect(4.203575357052685e-09, -1.3350841639309068e-09).transl(-1.397447455931353e-07, -1.617985995921408e-08, 0))
hIsland = hIsland.sub(rect(5.3455651322523104e-09, -8.423252505314996e-10).transl(1.0586705876482525e-07, -3.099137764385183e-08, 0))
hIsland = hIsland.add(rect(7.567176271088197e-09, 6.151287638688104e-10).transl(-7.448668132587412e-08, -3.714974978921291e-08, 0))
hIsland = hIsland.add(rect(8.307249881647132e-09, 3.528307485444165e-10).transl(1.412830735897197e-07, -1.4966917341720455e-08, 0))
hIsland = hIsland.add(rect(7.834137946817905e-09, 1.4286931955932951e-09).transl(-6.065409928002585e-08, -3.867288196790315e-08, 0))
hIsland = hIsland.sub(rect(4.692671461055254e-09, -3.0652283170405183e-09).transl(-1.665829524437999e-08, -4e-08, 0))
hIsland = hIsland.sub(rect(5.360197509967507e-09, -1.8522741265461527e-09).transl(4.1183055795287407e-08, -3.9825925759037766e-08, 0))
hIsland = hIsland.add(rect(8.320547125188925e-09, 2.2663841102817275e-09).transl(7.209370617767596e-08, -3.7458302595801235e-08, 0))
hIsland = hIsland.sub(rect(7.124666671221496e-09, -1.2334394557483307e-10).transl(-2.9299386184162513e-08, -4e-08, 0))
hIsland = hIsland.sub(rect(4.020837477029162e-09, -6.453554957774214e-10).transl(-1.399245828178408e-07, -1.6043642189435335e-08, 0))
hIsland = hIsland.add(rect(6.904225804559654e-09, 2.9574133125103328e-09).transl(-8.326755602909748e-08, -3.5843126529498823e-08, 0))
hIsland = hIsland.sub(rect(6.448337891116529e-09, -1.798248238303493e-09).transl(-3.924863216595162e-08, -3.988102138870753e-08, 0))
hIsland = hIsland.add(rect(7.91839949476988e-09, 2.685945543799403e-10).transl(-2.1089994993566514e-08, -4e-08, 0))
hIsland = hIsland.add(rect(7.657043408946293e-09, 2.037434322709773e-09).transl(5.795459992229195e-08, -3.8899500629734735e-08, 0))
hIsland = hIsland.add(rect(3.777821993398383e-09, 4.36251173520208e-10).transl(8.567439776035055e-08, -3.54343860521297e-08, 0))
hIsland = hIsland.sub(rect(8.111474919844944e-09, -8.479117549458371e-10).transl(-1.326400690790135e-07, -2.0723084871856052e-08, 0))
hIsland = hIsland.add(rect(6.522132453690139e-09, 5.502587292319046e-10).transl(1.3189988826622177e-07, -2.112505824142273e-08, 0))
hIsland = hIsland.add(rect(2.8680346180220635e-09, 5.993673503434109e-10).transl(1.2613471245403253e-07, -2.3940010817273356e-08, 0))
hIsland = hIsland.sub(rect(9.837299556625033e-09, -4.710504243913868e-10).transl(-8.139291466469363e-08, -3.614595155180286e-08, 0))
hIsland = hIsland.add(rect(9.089861277159938e-09, 3.857641682415708e-10).transl(5.3716776735898187e-08, -3.9210988399313045e-08, 0))
hIsland = hIsland.add(rect(9.150870406632457e-09, 1.5681869919195648e-09).transl(-4.484316379096021e-08, -3.969282119347517e-08, 0))
hIsland = hIsland.sub(rect(6.387372764391964e-09, -2.2903004489963445e-11).transl(-6.121282626550475e-08, -3.862319319976796e-08, 0))
hIsland = hIsland.sub(rect(9.342388498803288e-09, -7.073118252734099e-11).transl(-1.097894236578911e-07, -2.9876873018629066e-08, 0))
hIsland = hIsland.sub(rect(5.657008713029939e-09, -1.446137114229413e-10).transl(6.996086832893889e-10, -4e-08, 0))
hIsland = hIsland.sub(rect(3.859213758297957e-09, -1.9944268477980104e-09).transl(-1.43123816128865e-08, -4e-08, 0))
hIsland = hIsland.sub(rect(9.378579896355074e-09, -4.685884809969618e-10).transl(-1.4676902967904538e-07, -9.219506541472095e-09, 0))
hIsland = hIsland.add(rect(3.5094888623210373e-09, 3.3673628623075226e-09).transl(-1.1102893655225464e-07, -2.9503881931424047e-08, 0))
hIsland = hIsland.sub(rect(3.6102810591132403e-09, -6.045109900039241e-10).transl(-1.5919158862535492e-08, -4e-08, 0))
hIsland = hIsland.sub(rect(5.723210139876627e-09, -1.4612177713775097e-09).transl(-6.325649151570501e-08, -3.843321158128423e-08, 0))
hIsland = hIsland.add(rect(8.16900621648604e-09, 2.659239195293895e-10).transl(1.2235825024272052e-08, -4e-08, 0))
hIsland = hIsland.sub(rect(2.6193421615640925e-09, -1.2219378313204725e-09).transl(5.1727388515148076e-08, -3.9338870497697896e-08, 0))
hIsland = hIsland.add(rect(8.26801637012553e-09, 9.535268759201449e-11).transl(1.2927186579915728e-07, -2.247244401670166e-08, 0))
hIsland = hIsland.sub(rect(4.561000445905247e-09, -4.0332710207504367e-10).transl(-4.8891641491056426e-09, -4e-08, 0))
hIsland = hIsland.sub(rect(4.500154496004034e-09, -1.5561269964178253e-10).transl(1.1738517622865667e-07, -2.741417106268342e-08, 0))
hIsland = hIsland.add(rect(3.937883723271104e-09, 2.2348715515927952e-09).transl(-1.372960232991876e-07, -1.7912017642354583e-08, 0))
hIsland = hIsland.add(rect(4.7299262996133846e-09, 1.1183828497992392e-09).transl(4.772494686808693e-08, -3.956124121539427e-08, 0))
hIsland = hIsland.add(rect(4.384614147144146e-09, 1.4668198881350213e-09).transl(6.9118718860707e-08, -3.781493801645789e-08, 0))
hIsland = hIsland.add(rect(8.15793971063195e-09, 1.6198466305856838e-09).transl(5.526598628968939e-09, -4e-08, 0))
hIsland = hIsland.add(rect(6.081589981713342e-09, 1.5763729059393304e-10).transl(-9.465292188638452e-08, -3.369800470775197e-08, 0))
hIsland = hIsland.sub(rect(7.082551213070809e-09, -2.206200334922503e-09).transl(-1.3877052276157305e-07, -1.6895013656809856e-08, 0))
hIsland = hIsland.sub(rect(2.9859909060169703e-09, -3.2380390938993567e-09).transl(-2.1114132030609086e-08, 4e-08, 0))
[...]
hIsland = hIsland.add(rect(6.211144517663112e-09, 1.8740327143215318e-09).transl(-5.7092143883814885e-08, 3.8967245133685565e-08, 0))
hIsland = hIsland.sub(rect(2.5701667358558417e-09, -3.3881096105915817e-09).transl(2.1460904093229613e-09, 4e-08, 0))
hIsland = hIsland.sub(rect(6.04680519096204e-09, -1.032834163896368e-09).transl(1.489321074655214e-07, 5.324511597943076e-09, 0))
hIsland = hIsland.add(rect(4.542503401264325e-09, 3.6071760678038483e-09).transl(1.3631288515640436e-07, 1.8551940448736473e-08, 0))
hIsland = hIsland.add(rect(8.927651597011188e-09, 1.8780666106428778e-10).transl(9.671436808709464e-08, 3.324854732121499e-08, 0))
hIsland = hIsland.sub(rect(6.8385558940428305e-09, -2.926275658910148e-09).transl(3.336569723459562e-08, 3.998426368533423e-08, 0))
hIsland = hIsland.add(rect(3.100683662280589e-09, 1.4188753494684175e-09).transl(-8.245196159722011e-08, 3.597652278393006e-08, 0))
hIsland = hIsland.add(rect(4.03175993374342e-09, 1.29785502811925e-09).transl(-1.14804037179922e-07, 2.8300520760788538e-08, 0))
hIsland = hIsland.sub(rect(2.5154676069049186e-09, -4.510016342681828e-09).transl(3.6584080895231376e-08, 3.993974611665406e-08, 0))
hIsland = hIsland.sub(rect(2.8110427193446243e-09, -1.5807947195840884e-09).transl(1.1008158981318923e-07, 2.978989197136824e-08, 0))
hIsland = hIsland.sub(rect(4.719378026614733e-09, -6.919395303361133e-10).transl(1.0523189276241759e-07, 3.1162945074388344e-08, 0))
hIsland = hIsland.add(rect(2.057290343251216e-09, 2.141008650413471e-09).transl(1.2751833895937133e-07, 2.330992532188134e-08, 0))
hIsland = hIsland.add(rect(2.8351804272969663e-09, 3.4722281574317607e-09).transl(-9.37525731678637e-08, 3.388806642540866e-08, 0))
hIsland = hIsland.sub(rect(5.7980643259425966e-09, -3.6883789077029752e-09).transl(-1.1006063535786244e-07, 2.979614938972892e-08, 0))
hIsland = hIsland.sub(rect(5.625041654241479e-09, -1.3624208374234568e-09).transl(8.21463743098161e-08, 3.602584819934548e-08, 0))
hIsland = hIsland.sub(rect(3.6470362835133854e-09, -6.99022772724371e-10).transl(1.262716882359328e-07, 2.3878772637831752e-08, 0))
hIsland = hIsland.add(rect(2.829412999119246e-09, 1.1265684236767274e-09).transl(2.9973961368703375e-08, 4e-08, 0))
hIsland = hIsland.add(rect(2.3467706039338617e-09, 2.6500526463844973e-09).transl(-1.5688684416037167e-08, 4e-08, 0))
hIsland = hIsland.sub(rect(7.972716538532818e-09, -3.1296061696004486e-09).transl(7.763529281679363e-08, 3.671342303460129e-08, 0))
hIsland = hIsland.add(rect(2.7961470069553655e-09, 4.445151159776236e-10).transl(-3.089572255324604e-08, 3.9998885652682885e-08, 0))
hIsland = hIsland.sub(rect(5.860019330595893e-09, -1.095791916201119e-09).transl(-1.2292404385863502e-08, 4e-08, 0))
hIsland = hIsland.sub(rect(8.883931318794137e-09, -2.781743618453673e-09).transl(9.935514435303888e-08, 3.264261691539849e-08, 0))
hIsland = hIsland.sub(rect(3.816978036048939e-09, -2.5219824947462057e-09).transl(3.140062185004892e-08, 3.999727526613277e-08, 0))
hIsland = hIsland.add(rect(4.578915843635423e-09, 6.195676516157071e-10).transl(-5.151534174655251e-09, 4e-08, 0))
hIsland = hIsland.add(rect(8.288106765726654e-09, 1.3017026453646457e-09).transl(-7.166427774522066e-08, 3.751160999532028e-08, 0))
hIsland = hIsland.add(rect(7.856650447275681e-09, 2.163150130485506e-09).transl(-1.49784256480791e-07, 2.3974963641284257e-09, 0))
hIsland = hIsland.add(rect(7.156278525461802e-09, 4.842366852829604e-10).transl(2.374806507897238e-09, 4e-08, 0))
hIsland = hIsland.add(rect(6.560070804943508e-09, 4.2323002465269184e-09).transl(-7.78407290739592e-08, 3.668373033508033e-08, 0))
hIsland = hIsland.sub(rect(3.203248342979749e-09, -1.0002031579357525e-10).transl(5.334475627257485e-08, 3.92357863217498e-08, 0))
hIsland = hIsland.add(rect(9.955582591828037e-09, 4.6551286672897346e-10).transl(1.4546466030954033e-07, 1.0892975410289104e-08, 0))
hIsland = hIsland.sub(rect(3.5208204989240477e-09, -4.1767452946815205e-09).transl(-6.460602859435857e-08, 3.830059875500416e-08, 0))
hIsland = hIsland.add(rect(8.534850122924863e-09, 8.814878124146827e-10).transl(-4.297232045518883e-08, 3.97655893986635e-08, 0))
hIsland = hIsland.add(rect(7.4252409385531e-09, 1.8407768362024352e-09).transl(-1.4499729884975415e-07, 1.1429111257662933e-08, 0))
hIsland = hIsland.add(rect(7.248634649063923e-09, 4.409697584418632e-09).transl(-1.2804607559292535e-07, 2.3062637077765148e-08, 0))
hIsland = hIsland.add(rect(5.676152147127186e-09, 2.053614090451474e-09).transl(-2.9759709879478226e-08, 4e-08, 0))
hIsland = hIsland.sub(rect(2.156907859767439e-09, -5.594192227942671e-10).transl(2.194246308949804e-08, 4e-08, 0))
hIsland = hIsland.sub(rect(2.6593877995911647e-09, -6.132225684686301e-10).transl(2.442858697207094e-08, 4e-08, 0))
hIsland = hIsland.sub(rect(4.6362681033548605e-09, -1.6485690258970717e-09).transl(-6.178826921405917e-08, 3.8571010905391544e-08, 0))
hIsland = hIsland.sub(rect(4.3497429182582e-09, -1.1006133030579196e-09).transl(-8.029000432477856e-08, 3.631791028161932e-08, 0))
hIsland = hIsland.add(rect(2.3620572340687086e-09, 1.3167863771806754e-09).transl(1.889047944165719e-09, 4e-08, 0))
hIsland = hIsland.sub(rect(4.292397242034017e-09, -1.296403610511612e-09).transl(1.0609799560419086e-07, 3.092840310032287e-08, 0))
hIsland = hIsland.sub(rect(3.3847574339002746e-09, -2.0510607277156765e-09).transl(5.287407307322965e-08, 3.926657722264933e-08, 0))
hIsland = hIsland.sub(rect(2.1375915873819474e-09, -1.2280915267831174e-10).transl(-4.3651162518686505e-08, 3.9740331824774146e-08, 0))
hIsland = hIsland.add(rect(3.3404395888314644e-09, 2.135015991404278e-09).transl(7.82534534473278e-08, 3.6623617502017235e-08, 0))
hIsland = hIsland.sub(rect(4.929901508011703e-09, -1.1131959322863559e-09).transl(8.508267900646201e-08, 3.553698929514784e-08, 0))
hIsland = hIsland.sub(rect(2.4952886675093063e-09, -5.937368040028868e-10).transl(-3.0916550570404765e-08, 3.999883322611061e-08, 0))
hIsland = hIsland.sub(rect(6.707264652642866e-09, -3.0135311204745255e-09).transl(1.1367012193651565e-07, 2.867308202464582e-08, 0))
hIsland = hIsland.add(rect(4.269639989389021e-09, 1.7214082276547522e-09).transl(-5.491867263554444e-08, 3.912807993426853e-08, 0))
hIsland = hIsland.add(rect(6.275940232096642e-09, 1.6582005198014094e-09).transl(1.2089307083214943e-07, 2.6116086304340537e-08, 0))
hIsland = hIsland.add(rect(6.986824232180188e-09, 1.4966252109914457e-11).transl(-1.2842982735945206e-07, 2.2880290125366435e-08, 0))
hIsland = hIsland.sub(rect(7.894845471030111e-09, -2.1967994782840483e-10).transl(6.368922887491189e-09, 4e-08, 0))
hIsland = hIsland.add(rect(3.460601975342722e-09, 6.974119794216103e-10).transl(-1.7236744577005125e-08, 4e-08, 0))
hIsland = hIsland.sub(rect(6.3420227635860086e-09, -1.0823701046486904e-09).transl(-6.667229566567835e-08, 3.808636783039463e-08, 0))
hIsland = hIsland.sub(rect(4.5316573860748044e-09, -7.656668500826834e-10).transl(-8.220696633655336e-08, 3.601609619467074e-08, 0))
hIsland = hIsland.sub(rect(2.4845226329733147e-09, -1.7603896433468278e-09).transl(-4.3764270408151674e-08, 3.9735996639111443e-08, 0))
hIsland = hIsland.add(rect(4.666434862567023e-09, 3.456311995467661e-09).transl(-6.575730355907699e-08, 3.8182915379909584e-08, 0))
hIsland = hIsland.add(rect(7.813045469258317e-09, 1.4116846939638272e-09).transl(-9.103680806717155e-08, 3.443917030387099e-08, 0))
hIsland = hIsland.add(rect(6.13722733530191e-09, 1.5926802138875616e-09).transl(2.6186957463952474e-08, 4e-08, 0))
hIsland = hIsland.add(rect(2.108704271004723e-09, 2.426425494951845e-10).transl(-1.0703804984886283e-07, 3.066872977749328e-08, 0))
hIsland = hIsland.sub(rect(4.559232987311926e-09, -2.7381427542126537e-09).transl(1.242199607777382e-07, 2.477139701582694e-08, 0))
hIsland = hIsland.add(rect(7.692687678688603e-09, 5.901910321094624e-10).transl(2.21752218253879e-09, 4e-08, 0))
hIsland = hIsland.add(rect(9.041592217991074e-09, 9.792353595718538e-10).transl(-1.017735542716298e-07, 3.2056472577862775e-08, 0))
hIsland = hIsland.sub(rect(3.985465088357897e-09, -8.444422305269429e-10).transl(1.4961769460646433e-07, 3.1903872463427915e-09, 0))
hIsland = hIsland.add(rect(7.355423824088589e-09, 3.1019981951379044e-09).transl(1.1741583421115245e-07, 2.7403308659049654e-08, 0))
hIsland = hIsland.add(rect(6.200258662271976e-09, 2.8894437375730277e-09).transl(-1.2414732067431205e-07, 2.4802065348246608e-08, 0))
hIsland = hIsland.sub(rect(3.1677356785730045e-09, -5.852576911369967e-10).transl(7.54831255664757e-08, 3.7015440154832996e-08, 0))
hIsland = hIsland.add(rect(2.9082155469199727e-09, 6.835714636911907e-09).transl(-7.61113660374576e-08, 3.69289737531681e-08, 0))
hIsland = hIsland.sub(rect(5.758862078784277e-09, -3.9170738702377395e-10).transl(8.136886568368164e-08, 3.6149749712322236e-08, 0))
hIsland = hIsland.add(rect(3.928116608042028e-09, 1.8751814966106826e-09).transl(-6.631388252290344e-08, 3.81245064610864e-08, 0))
hIsland = hIsland.add(rect(2.8497779183966083e-09, 2.3371509564529015e-09).transl(4.309520236966145e-08, 3.97611139947026e-08, 0))
hIsland = hIsland.add(rect(2.7391986031079113e-09, 2.5199604263285366e-09).transl(1.0516556875930471e-07, 3.118072280733409e-08, 0))
hIsland = hIsland.add(rect(8.05178884426295e-09, 3.6930450021397535e-09).transl(1.1136444929501978e-09, 4e-08, 0))
hIsland = hIsland.sub(rect(8.54919396092998e-09, -1.239142337007503e-09).transl(1.1786478766944084e-07, 2.7243305167007096e-08, 0))
hIsland = hIsland.add(rect(9.546122628674298e-09, 9.33311806299435e-10).transl(2.0663838024482614e-08, 4e-08, 0))
hIsland = hIsland.sub(rect(5.548312431515156e-09, -1.247855832719821e-09).transl(-8.426550150778782e-09, 4e-08, 0))
hIsland = hIsland.add(rect(5.087666536178917e-09, 1.6327389662358402e-09).transl(-1.4835049310685545e-07, 6.6094274534701745e-09, 0))
hIsland = hIsland.sub(rect(7.1367164331269865e-09, -3.427659378173987e-09).transl(1.129659292060682e-07, 2.8899547460843054e-08, 0))
hIsland = hIsland.add(rect(5.202868980171032e-09, 3.002144401403628e-09).transl(6.839254777716731e-08, 3.789754063433247e-08, 0))
hIsland = hIsland.sub(rect(6.544509846818791e-09, -6.427040424412062e-10).transl(2.5734611869169283e-08, 4e-08, 0))
hIsland = hIsland.sub(rect(9.552888622651132e-09, -1.1546162776799663e-09).transl(1.3412495403721562e-08, 4e-08, 0))
hIsland = hIsland.sub(rect(3.388208521542253e-09, -3.101252755775798e-09).transl(-1.3188598195347506e-07, 2.11325096615937e-08, 0))
hIsland = hIsland.sub(rect(7.002404825067025e-09, -3.0432728909369022e-09).transl(1.015768652176984e-07, 3.210529960684483e-08, 0))
hIsland = hIsland.add(rect(5.492176501392416e-09, 3.783310655620731e-10).transl(-8.412670444628395e-08, 3.569982861114264e-08, 0))
hIsland = hIsland.sub(rect(7.02494205342402e-09, -1.4379475135630224e-09).transl(7.21054323020956e-09, 4e-08, 0))
hIsland = hIsland.add(rect(4.474801962794985e-09, 9.633942538726036e-10).transl(-8.818647977989685e-08, 3.498306506300768e-08, 0))
hIsland = hIsland.sub(rect(4.83069698245346e-09, -8.04453922510908e-10).transl(1.1071967762485466e-07, 2.9597923433427897e-08, 0))
hIsland = hIsland.sub(rect(3.4214640057770248e-09, -1.4280616434760197e-09).transl(-9.787494777047538e-08, 3.298651486281973e-08, 0))
hIsland = hIsland.add(rect(3.837166473688209e-09, 6.888746329819662e-10).transl(-5.448312394844121e-09, 4e-08, 0))
hIsland = hIsland.sub(rect(9.907288118038314e-09, -3.5771537003973355e-10).transl(-3.071023033949118e-08, 3.9999299400621265e-08, 0))
hIsland = hIsland.sub(rect(8.451010384009643e-09, -5.979786738322216e-10).transl(-1.3151086672401873e-07, 2.1332145636049185e-08, 0))
hIsland = hIsland.sub(rect(6.641026917516579e-09, -1.8909073424828008e-10).transl(1.174155570293213e-08, 4e-08, 0))
hIsland = hIsland.add(rect(6.343434988180713e-09, 2.2281755688386272e-09).transl(-1.403805730665813e-07, 1.569192676184906e-08, 0))
hIsland = hIsland.add(rect(8.538897251366449e-09, 3.2586705361778356e-09).transl(8.829115477500318e-09, 4e-08, 0))
hIsland = hIsland.add(rect(4.928798410346e-09, 3.0168452976547295e-10).transl(-8.842420134268179e-08, 3.493901464213479e-08, 0))
hIsland = hIsland.add(rect(4.3563292119057075e-09, 1.461409382438084e-09).transl(-1.1294591745353491e-07, 2.8905929375959016e-08, 0))
hIsland = hIsland.add(rect(5.954983434665209e-09, 2.6781120473614367e-11).transl(1.1445924470427885e-07, 2.8414855238418963e-08, 0))
hIsland = hIsland.sub(rect(9.974485688797901e-09, -1.0390410868592941e-09).transl(-1.3459803614725967e-07, 1.960513207792673e-08, 0))
hIsland = hIsland.add(rect(3.32722561143334e-09, 1.0167407782255114e-09).transl(-9.350130231806563e-08, 3.394044556099475e-08, 0))
hIsland = hIsland.sub(rect(4.596173322831347e-09, -9.115177433305227e-10).transl(-1.4443560377313475e-07, 1.2039253340995823e-08, 0))
hIsland = hIsland.add(rect(2.7449949333033974e-09, 9.983620863162422e-10).transl(2.1698112223432517e-08, 4e-08, 0))
hIsland = hIsland.sub(rect(8.336970032035801e-09, -1.876267942786987e-10).transl(1.4416606866769628e-07, 1.2320302868584505e-08, 0))
hIsland = hIsland.sub(rect(9.195151639415986e-09, -4.435206496689844e-10).transl(-7.880679312946178e-08, 3.6542056355836114e-08, 0))
hIsland = hIsland.sub(rect(2.312420959855746e-09, -2.5807176437549694e-09).transl(2.3605397678508585e-08, 4e-08, 0))
hIsland = hIsland.sub(rect(3.1889440033966985e-09, -2.4642403538651113e-09).transl(-4.5862149947644595e-08, 3.964900475006829e-08, 0))
hIsland = hIsland.add(rect(6.978728761343084e-09, 2.705919676635934e-10).transl(-5.797928704090755e-08, 3.889752848001543e-08, 0))
hIsland = hIsland.sub(rect(9.238646840886933e-09, -2.882637655772215e-10).transl(-2.9034842472252504e-08, 4e-08, 0))
hIsland = hIsland.sub(rect(9.757826535233627e-09, -3.5909422000041213e-09).transl(-1.275160743493097e-07, 2.3310977965804253e-08, 0))
hIsland = hIsland.sub(rect(3.6196689911746635e-09, -2.2241856967353367e-09).transl(-3.0138204143729236e-08, 3.9999973471678227e-08, 0))
hIsland = hIsland.add(rect(8.69351869617568e-09, 3.5085326101469225e-09).transl(-4.664873425824041e-09, 4e-08, 0))
hIsland = hIsland.sub(rect(7.345134898575251e-09, -3.495118306536656e-10).transl(5.274378326152438e-08, 3.927498542747138e-08, 0))
hIsland = hIsland.add(rect(8.734467305954795e-09, 1.6676259712409845e-09).transl(-1.2120302635843599e-07, 2.5995743205084842e-08, 0))
hIsland = hIsland.sub(rect(9.00807028188782e-09, -2.042975896155826e-09).transl(1.1870232579646467e-07, 2.6940051551336146e-08, 0))
hIsland = hIsland.sub(rect(4.154281391367744e-09, -3.118909117987045e-09).transl(5.005447853174324e-09, 4e-08, 0))
hIsland = hIsland.add(rect(4.009344294637401e-09, 1.0915610467266439e-09).transl(4.907181253778978e-08, 3.949158274102837e-08, 0))
hIsland = hIsland.add(rect(6.842074497218403e-09, 2.3339054256532664e-09).transl(-1.0933647375487747e-07, 3.0010598002375465e-08, 0))
hIsland = hIsland.add(rect(8.00240312121812e-09, 2.204276797611006e-09).transl(7.193115113510631e-08, 3.747855470426443e-08, 0))
hIsland = hIsland.add(rect(8.544203010617363e-09, 2.973412861683482e-09).transl(2.618396234120463e-08, 4e-08, 0))
hIsland = hIsland.add(rect(4.009439668561035e-09, 2.4238913409949917e-09).transl(7.12074807030671e-08, 3.756763313472317e-08, 0))
hIsland = hIsland.add(rect(3.155918347861758e-09, 2.3269519858640252e-10).transl(5.849487625573465e-08, 3.885591907886589e-08, 0))
hIsland = hIsland.sub(rect(7.35360320010392e-09, -6.661140420982987e-10).transl(-5.94826547727554e-09, 4e-08, 0))
hIsland = hIsland.add(rect(8.737180126889907e-09, 2.2324930603757373e-09).transl(1.1247857452121532e-07, 2.9054134807952954e-08, 0))
hIsland = hIsland.add(rect(5.422409400041899e-09, 4.107385070228327e-09).transl(1.3489033600050275e-07, 1.9430838644054798e-08, 0))
hIsland = hIsland.add(rect(6.6095403966128294e-09, 1.9949920467802145e-09).transl(4.744003629148665e-08, 3.9575308146693395e-08, 0))
hIsland = hIsland.sub(rect(3.1094412769200615e-09, -6.665595746626989e-10).transl(1.2513216705053087e-07, 2.4380936980148815e-08, 0))
hIsland = hIsland.add(rect(3.769532036748674e-09, 1.348267555600818e-09).transl(-1.1588920106566655e-07, 2.7934536848181133e-08, 0))
hIsland = hIsland.sub(rect(6.31820969828258e-09, -8.508734658492588e-10).transl(1.4542611096892633e-07, 1.0938275847221123e-08, 0))
hIsland = hIsland.add(rect(7.047541098593673e-09, 2.297895284629471e-09).transl(7.700528227291069e-08, 3.680353762954496e-08, 0))
hIsland = hIsland.add(rect(5.791714423770367e-09, 2.1608094334507914e-09).transl(2.8282673988287094e-08, 4e-08, 0))
hIsland = hIsland.sub(rect(6.575786799127785e-09, -2.372966793760841e-09).transl(-6.536228673914537e-08, 3.8223769039955095e-08, 0))
hIsland = hIsland.add(rect(6.327368470573776e-09, 4.4730979930317345e-10).transl(-1.282644394730865e-07, 2.2959142296794494e-08, 0))
hIsland = hIsland.add(rect(3.680189769345491e-09, 3.399322915671317e-09).transl(7.519602652796765e-08, 3.7054493183963e-08, 0))
hIsland = hIsland.sub(rect(4.599172305021126e-09, -2.8375290162709333e-09).transl(-9.648072581857959e-09, 4e-08, 0))
hIsland = hIsland.sub(rect(7.609179504925922e-09, -8.572647783576354e-10).transl(6.555533758678328e-08, 3.820386537902775e-08, 0))
hIsland = hIsland.sub(rect(4.242183235899548e-09, -5.326591224044732e-10).transl(2.9696711100535705e-08, 4e-08, 0))
hIsland = hIsland.sub(rect(2.265043232799032e-09, -2.707649738098151e-09).transl(-2.5644763296953555e-08, 4e-08, 0))
hIsland = hIsland.add(rect(6.1104296226715865e-09, 1.6480424430058256e-09).transl(8.316050218020934e-08, 3.5860781747610767e-08, 0))
hIsland = hIsland.add(rect(5.8078343306080376e-09, 2.932217919794708e-09).transl(-4.7607887630636397e-08, 3.956704899167555e-08, 0))
hIsland = hIsland.sub(rect(6.113858829679726e-09, -4.042105986671268e-10).transl(2.3115359882185646e-08, 4e-08, 0))
hIsland = hIsland.add(rect(6.801216288181893e-09, 3.065954523356399e-10).transl(5.059432910591984e-08, 3.940653302954426e-08, 0))
hIsland = hIsland.add(rect(3.104193846587973e-09, 1.2018892882712877e-09).transl(-7.459495233959999e-08, 3.7135323444320663e-08, 0))
hIsland = hIsland.add(rect(7.822918257165658e-09, 1.6407047630445371e-09).transl(-1.0699903609795204e-07, 3.067961400594915e-08, 0))
hIsland = hIsland.sub(rect(8.89131271187007e-09, -1.4705885214435588e-10).transl(1.8795412581407984e-09, 4e-08, 0))
hIsland = hIsland.add(rect(3.798237783918655e-09, 1.5465019949894157e-09).transl(-9.572516233385232e-09, 4e-08, 0))
hIsland = hIsland.sub(rect(4.026730090852413e-09, -1.6380106650372944e-09).transl(-8.126470916143758e-08, 3.616617448911378e-08, 0))
hIsland = hIsland.sub(rect(2.4316864118734556e-09, -3.9885887535417414e-10).transl(-5.1891616230078364e-08, 3.9328752754236764e-08, 0))
hIsland = hIsland.add(rect(4.739411364576162e-09, 5.505873929587143e-10).transl(-7.301756352833098e-08, 3.734150093407543e-08, 0))
hIsland = hIsland.sub(rect(9.539722461700193e-09, -1.8158393003814754e-09).transl(-2.478243657194977e-08, 4e-08, 0))
hIsland = hIsland.sub(rect(9.796957803622619e-09, -3.0900407949957785e-10).transl(5.757322292817616e-09, 4e-08, 0))
hIsland = hIsland.sub(rect(5.445159189485884e-09, -1.4380456582938561e-09).transl(5.8377901606793816e-08, 3.886542979792243e-08, 0))
vIsland = hIsland.rotz(pi / 2)
vIslands = vIslands.add(vIsland.transl(0, -a/2, 0))
DefRegion(1, hIslands)
DefRegion(2, vIslands)
TableAdd(m_full.Region(1))
TableAdd(m_full.Region(2))
setgeom(hIslands.add(vIslands))
save(m)
r2o2 := sqrt(2) / 2
m = RandomMagSeed(4)
B_ext = vector(Bmax*r2o2, Bmax*r2o2, 0)
relax()
minimize()
for B := Bmax; B >= -Bmax; B -= Bstep {
	B_ext = vector(B*r2o2, B*r2o2, 0)
	minimize()
	tablesave()
}
//********************************************************************//
//Please cite the following references, relevant for your simulation. //
//See bibtex file in output folder for justification.                 //
//********************************************************************//
//   * Vansteenkiste et al., AIP Adv. 4, 107133 (2014).
//   * Exl et al., J. Appl. Phys. 115, 17D118 (2014).
