# t (s)	mx ()	my ()	mz ()	B_extx (T)	B_exty (T)	B_extz (T)	m_fullx (A/m)	m_fully (A/m)	m_fullz (A/m)	m_full.region1x (A/m)	m_full.region1y (A/m)	m_full.region1z (A/m)	m_full.region2x (A/m)	m_full.region2y (A/m)	m_full.region2z (A/m)
0	0.65258193	0.65258	-2.7332517e-10	0.07071067	0.07071067	0	168739.06	168738.56	-6.377551e-05	631852.7	281760.66	-0.00013812154	281762.1	631851.4	-0.00024516575
0	0.65249723	0.6524969	-2.2722213e-10	0.07056918	0.07056918	0	168717.17	168717.06	-5.994898e-05	631928.9	281567.22	-0.00014502762	281567.3	631928.44	-0.00016574586
0	0.6524094	0.6524092	-2.2063598e-10	0.07042789	0.07042789	0	168694.42	168694.39	-6.186224e-05	632011.44	281361.75	-0.00010877072	281361.7	632011.2	-0.00017610498
0	0.65231997	0.6523198	-1.1031799e-09	0.070286386	0.070286386	0	168671.3	168671.25	-0.00028061224	632094.56	281153.44	-0.0006992403	281153.34	632094.2	-0.00085290056
0	0.6522322	0.6522321	-4.478581e-10	0.07014501	0.07014502	0	168648.62	168648.6	-0.00011479592	632176.9	280948.34	-0.0002676105	280948.22	632176.56	-0.0003660221
0	0.65214425	0.6521441	-1.4818834e-10	0.07000352	0.07000352	0	168625.88	168625.83	-3.252551e-05	632258.7	280743.44	-5.179558e-05	280743.28	632258.25	-0.00012430939
0	0.6520549	0.65205467	1.31722975e-11	0.06986222	0.06986222	0	168602.77	168602.73	6.377551e-07	632341.9	280535.1	3.6256904e-05	280534.97	632341.6	0
0	0.65196615	0.65196604	-4.6432347e-10	0.069720745	0.069720745	0	168579.81	168579.78	-0.00011989796	632424.1	280328.62	-0.000378971	280328.5	632423.75	-0.00026588398
0	0.6518768	0.6518767	-2.3380828e-10	0.06957926	0.06957926	0	168556.72	168556.67	-6.505102e-05	632507.06	280120.6	-0.00013121546	280120.5	632506.7	-0.00020372929
0	0.6517873	0.6517871	-6.5861487e-12	0.06943794	0.06943794	0	168533.56	168533.52	-2.5510203e-06	632590	279912.22	-6.8197514e-05	279912.12	632589.7	5.870166e-05
0	0.65169775	0.65169764	-1.2513682e-10	0.0692964	0.0692964	0	168510.44	168510.38	-3.125e-05	632672.7	279704.3	-0.00010618094	279704.25	632672.4	-2.0718233e-05
0	0.65160817	0.65160793	-2.7332517e-10	0.0691551	0.0691551	0	168487.23	168487.19	-6.6007655e-05	632755.4	279496.06	-0.00013639503	279495.94	632755.06	-0.00024516575
0	0.6515175	0.65151733	-3.2601435e-10	0.0690136	0.0690136	0	168463.81	168463.78	-8.1313774e-05	632839	279285.7	-0.00015366022	279285.6	632838.6	-0.0003211326
0	0.6514274	0.6514272	-3.7541048e-10	0.068872124	0.068872124	0	168440.52	168440.48	-9.534439e-05	632921.8	279076.62	-0.00024516575	279076.5	632921.5	-0.00024861877
0	0.65133685	0.65133667	-4.8408194e-10	0.06873082	0.06873082	0	168417.11	168417.06	-0.00012755101	633005.1	278866.53	-0.00029264504	278866.47	633004.75	-0.0003763812
0	0.6512464	0.65124625	-3.9352238e-10	0.06858932	0.06858932	0	168393.73	168393.67	-9.9808676e-05	633088	278657.1	-0.0002313536	278657.03	633087.6	-0.0002969613
0	0.65115356	0.6511534	-1.1031799e-10	0.068447955	0.068447955	0	168369.72	168369.66	-2.9336734e-05	633172.6	278442.47	-9.150553e-05	278442.34	633172.3	-7.596685e-05
0	0.6510646	0.65106446	-4.9396115e-10	0.06830648	0.06830648	0	168346.7	168346.66	-0.00012053571	633254.2	278236.25	-0.000402279	278236.16	633253.94	-0.00027624308
0	0.6509733	0.6509731	-3.852897e-10	0.06816515	0.06816515	0	168323.1	168323.05	-9.757653e-05	633337.75	278025	-0.00024343922	278024.9	633337.44	-0.00028314916
0	0.65088224	0.65088207	-4.2151352e-10	0.068023674	0.068023674	0	168299.55	168299.52	-0.00010331633	633420.94	277814.3	-0.0003660221	277814.2	633420.56	-0.00019337017
0	0.6507897	0.6507895	-3.1284204e-11	0.06788219	0.06788219	0	168275.61	168275.58	-5.1020406e-06	633504.75	277600.97	5.870166e-05	277600.84	633504.3	-0.000100138124
0	0.65069824	0.650698	-1.3501604e-10	0.06774088	0.06774088	0	168251.97	168251.92	-3.762755e-05	633588.4	277389.28	-0.00011049724	277389.16	633588.06	-8.7189226e-05
0	0.6506066	0.65060633	-2.4698057e-10	0.067599334	0.067599334	0	168228.27	168228.22	-7.174745e-05	633671.56	277177.72	-0.00017437845	277177.7	633671.2	-0.00019682321
0	0.6505136	0.65051335	-3.1613515e-10	0.06745803	0.06745803	0	168204.22	168204.17	-8.163265e-05	633755.8	276963.34	-0.0002313536	276963.25	633755.44	-0.00020718233
0	0.6504214	0.65042114	-2.4039443e-10	0.06731653	0.06731653	0	168180.38	168180.34	-6.8239795e-05	633839.25	276750.78	-0.00015711326	276750.66	633838.94	-0.00019337017
0	0.65032935	0.6503292	-3.358936e-10	0.06717506	0.06717506	0	168156.6	168156.55	-8.4821426e-05	633922.4	276538.84	-0.00020718233	276538.72	633922	-0.00025552485
0	0.6502357	0.65023565	-5.4006416e-10	0.06703376	0.06703376	0	168132.39	168132.36	-0.00013775511	634006.94	276323.25	-0.0003919199	276323.16	634006.56	-0.00036947514
0	0.65014243	0.6501423	-1.152576e-10	0.066892266	0.066892266	0	168108.27	168108.22	-3.380102e-05	634090.8	276108.7	-0.0001691989	276108.66	634090.44	0
0	0.65004975	0.6500495	-1.3830911e-10	0.066750884	0.066750884	0	168084.3	168084.23	-3.3163265e-05	634174.2	275895.6	-0.00016142956	275895.47	634173.75	-3.1077347e-05
0	0.649956	0.64995575	-2.8320438e-10	0.06660941	0.06660941	0	168060.03	168059.98	-6.8239795e-05	634258.5	275679.88	-0.00012603591	275679.78	634258.1	-0.00025552485
0	0.64986223	0.649862	-3.194282e-10	0.06646809	0.06646809	0	168035.78	168035.75	-7.653061e-05	634342.7	275464.44	-0.00024775552	275464.38	634342.4	-0.00018991713
0	0.64976853	0.64976835	-2.9637667e-11	0.06632662	0.06632662	0	168011.58	168011.53	-1.1160714e-05	634426.6	275249.4	-4.0141575e-05	275249.34	634426.3	-2.0718233e-05
0	0.6496744	0.6496743	-5.3347804e-10	0.06618514	0.06618514	0	167987.27	167987.22	-0.00013711734	634510.5	275033.78	-0.00041350137	275033.7	634510.2	-0.0003487569
0	0.6495798	0.6495796	1.3501604e-10	0.066043824	0.066043824	0	167962.77	167962.72	3.3163265e-05	634595.1	274816.72	9.582182e-05	274816.6	634594.7	0.0001070442
0	0.64948505	0.6494849	-1.2678336e-10	0.06590227	0.06590227	0	167938.25	167938.22	-3.635204e-05	634679.4	274599.78	-0.000109202345	274599.66	634679.06	-4.8342543e-05
0	0.64939064	0.64939046	-2.6015287e-10	0.06576097	0.06576097	0	167913.88	167913.83	-6.568878e-05	634763.56	274383.47	-0.0001864641	274383.34	634763.25	-0.0001864641
0	0.64929503	0.64929485	-1.5148141e-10	0.065619476	0.065619476	0	167889.14	167889.11	-4.2091837e-05	634848.06	274165.2	-0.00015107045	274165.1	634847.7	-6.215469e-05
0	0.6492	0.6491998	-8.5619935e-11	0.06547816	0.06547816	0	167864.58	167864.52	-3.0612246e-05	634932.8	273947.22	-2.4171271e-05	273947.12	634932.56	-0.00017610498
0	0.6491048	0.6491046	-2.88144e-10	0.0653367	0.0653367	0	167839.97	167839.9	-6.760204e-05	635017.5	273729.34	-0.00017049379	273729.28	635016.94	-0.00018991713
0	0.6490094	0.6490093	-1.4983488e-10	0.06519521	0.06519521	0	167815.3	167815.27	-4.177296e-05	635101.7	273511.7	-0.00012948895	273511.6	635101.3	-6.215469e-05
0	0.6489131	0.6489129	-3.8693623e-10	0.0650539	0.0650539	0	167790.39	167790.34	-0.000101403064	635186.8	273291.66	-0.0002602728	273291.53	635186.44	-0.00027279006
0	0.6488179	0.6488178	-2.3874788e-10	0.06491236	0.06491236	0	167765.77	167765.72	-6.345663e-05	635270.6	273074.53	-0.00023351175	273074.4	635270.3	-0.000100138124
0	0.64872044	0.64872026	-2.6509248e-10	0.06477103	0.06477103	0	167740.58	167740.52	-7.3979594e-05	635355.9	272852.84	-0.00016574586	272852.75	635355.5	-0.00021754144
0	0.64862436	0.6486242	-5.0713345e-10	0.06462956	0.06462956	0	167715.73	167715.69	-0.00013265306	635441	272633.28	-0.00033321822	272633.12	635440.6	-0.0004109116
0	0.6485277	0.6485275	-3.062559e-10	0.06448809	0.06448809	0	167690.75	167690.69	-7.461735e-05	635525.9	272413.1	-0.00012905733	272413.03	635525.4	-0.0002969613
0	0.6484304	0.6484302	-3.589451e-10	0.06434676	0.06434676	0	167665.6	167665.52	-8.992347e-05	635610.75	272192	-0.0002909185	272191.88	635610.25	-0.00018301106
0	0.6483331	0.6483329	-8.5619935e-11	0.06420529	0.06420529	0	167640.4	167640.34	-2.614796e-05	635696.25	271970.16	-1.1654006e-05	271970.03	635695.9	-0.0001070442
0	0.64823604	0.64823586	-1.547745e-10	0.06406391	0.06406391	0	167615.33	167615.27	-3.4438777e-05	635781.1	271749.47	-0.00010315953	271749.4	635780.75	-6.906077e-05
0	0.64813846	0.6481382	-5.5982264e-11	0.06392241	0.06392241	0	167590.1	167590.05	-1.0841837e-05	635866.3	271527.66	-2.935083e-05	271527.6	635865.9	-2.762431e-05
0	0.64804053	0.6480403	-2.9637667e-11	0.063781105	0.063781105	0	167564.75	167564.69	-6.377551e-06	635951.56	271305.2	-6.2586325e-05	271305.12	635951.2	2.0718233e-05
0	0.64794266	0.64794236	-3.490659e-10	0.06363964	0.06363964	0	167539.44	167539.4	-9.375e-05	636036.8	271082.88	-0.0002270373	271082.78	636036.4	-0.000269337
0	0.64784455	0.64784425	-3.671778e-10	0.06349814	0.06349814	0	167514.1	167514.03	-0.000100765305	636121.94	270860.44	-0.0003198377	270860.38	636121.5	-0.00022444752
0	0.6477457	0.6477455	-3.2930744e-10	0.06335683	0.06335683	0	167488.53	167488.48	-8.5459185e-05	636207.5	270636.53	-0.00017696823	270636.4	636207.1	-0.00028314916
0	0.6476471	0.64764684	-5.2195226e-10	0.06321529	0.06321529	0	167463.03	167462.97	-0.00013329081	636292.94	270413	-0.00034185083	270412.94	636292.56	-0.00039364642
0	0.6475481	0.6475478	-5.4335727e-11	0.06307396	0.06307396	0	167437.44	167437.36	-1.4030612e-05	636377.75	270189.5	-7.855663e-05	270189.44	636377.44	-1.3812155e-05
0	0.64744866	0.6474484	-2.7991132e-10	0.06293249	0.06293249	0	167411.73	167411.66	-7.142857e-05	636463.44	269964.78	-0.0001433011	269964.7	636463	-0.00025207183
0	0.6473494	0.6473492	-3.5235895e-10	0.06279103	0.06279103	0	167386.06	167386	-9.311224e-05	636549.2	269740	-0.00025120858	269739.94	636548.8	-0.00024171271
0	0.6472499	0.64724964	-8.232686e-11	0.06264969	0.06264969	0	167360.33	167360.27	-3.0612246e-05	636635.25	269514.7	-2.762431e-05	269514.62	636634.8	-0.000120856355
0	0.64714986	0.6471497	-8.232686e-11	0.062508225	0.062508225	0	167334.47	167334.4	-2.1364796e-05	636721.25	269288.7	-5.870166e-05	269288.6	636720.75	-4.8342543e-05
0	0.6470499	0.6470496	-2.1075676e-10	0.06236684	0.06236684	0	167308.61	167308.53	-5.2614796e-05	636807	269062.9	-0.00019207527	269062.84	636806.56	-5.524862e-05
0	0.64695	0.6469497	-2.4204097e-10	0.062225346	0.062225346	0	167282.78	167282.72	-5.484694e-05	636892.4	268837.66	-9.40953e-05	268837.6	636891.9	-0.00022099448
0	0.6468492	0.646849	-2.930836e-10	0.062084038	0.062084038	0	167256.72	167256.66	-7.589286e-05	636978.5	268610.44	-0.00020027625	268610.38	636978.1	-0.00019337017
0	0.64674836	0.6467481	-2.5356672e-10	0.061942577	0.061942577	0	167230.66	167230.6	-6.505102e-05	637064.7	268383.06	-0.00019164364	268383.03	637064.4	-0.00013812154
0	0.6466473	0.64664704	-1.4983488e-10	0.061801083	0.061801083	0	167204.52	167204.44	-4.5280613e-05	637150.9	268155.38	-5.697514e-05	268155.3	637150.5	-0.00018991713
0	0.646546	0.6465457	-3.4741934e-10	0.061659772	0.061659772	0	167178.31	167178.27	-9.885204e-05	637236.8	267927.56	-0.00026415745	267927.5	637236.44	-0.00026588398
0	0.6464452	0.646445	-3.2107475e-10	0.06151823	0.061518237	0	167152.27	167152.2	-8.4821426e-05	637322.3	267700.97	-0.00023221684	267700.97	637322	-0.0002140884
0	0.6463412	0.64634097	-3.540055e-10	0.061376892	0.061376892	0	167125.36	167125.31	-9.534439e-05	637410.4	267467.34	-0.00024689228	267467.28	637410	-0.00023825967
0	0.64624107	0.6462408	-2.4039443e-10	0.06123543	0.06123543	0	167099.47	167099.4	-6.122449e-05	637495.3	267242.2	-0.00016445096	267242.12	637494.94	-0.00017955802
0	0.6461387	0.6461385	-5.1042653e-11	0.061093967	0.061093967	0	167073.02	167072.95	-1.1798469e-05	637582	267012.3	-7.0355665e-05	267012.25	637581.56	6.9060775e-06
0	0.6460366	0.6460363	-4.3962542e-10	0.060952656	0.060952656	0	167046.6	167046.53	-0.00010522959	637668.1	266783.16	-0.00020459254	266783.06	637667.75	-0.00039709944
0	0.6459341	0.6459338	-1.4160219e-10	0.060811166	0.060811166	0	167020.11	167020.05	-3.9221937e-05	637754.44	266553.3	-9.366367e-05	266553.25	637754.1	-0.00010359116
0	0.6458308	0.6458305	-3.540055e-10	0.060669776	0.060669772	0	166993.39	166993.33	-8.737245e-05	637841.3	266321.9	-0.00020200276	266321.88	637840.9	-0.0002589779
0	0.64572763	0.64572734	-1.9429139e-10	0.060528316	0.060528316	0	166966.7	166966.64	-5.0382652e-05	637927.56	266091.1	-0.00012387776	266091.03	637927.25	-0.0001070442
0	0.64562434	0.64562416	-4.2480658e-10	0.060386974	0.060386974	0	166940.03	166939.97	-0.00010841837	638014.4	265859.9	-0.00032199585	265859.8	638013.94	-0.0002866022
0	0.64552045	0.64552015	-3.507124e-10	0.06024551	0.06024551	0	166913.16	166913.1	-9.183674e-05	638101.4	265627.34	-0.00031206838	265627.3	638100.9	-0.00015883977
0	0.645417	0.6454167	-3.9846199e-10	0.06010405	0.06010405	0	166886.38	166886.31	-0.00010905612	638188.1	265395.6	-0.0002866022	265395.56	638187.7	-0.00029005524
0	0.6453129	0.6453127	-1.5642103e-10	0.059962712	0.059962712	0	166859.48	166859.44	-3.4438777e-05	638274.75	265163.44	-4.6616024e-05	265163.38	638274.4	-0.00015883977
0	0.6452089	0.6452087	-2.0417061e-10	0.05982117	0.059821166	0	166832.61	166832.53	-5.0382652e-05	638361.5	264931.16	-0.00010186464	264931.1	638361.06	-0.00018991713
0	0.6451041	0.6451039	-1.9429139e-10	0.05967986	0.05967986	0	166805.5	166805.42	-4.655612e-05	638448.75	264697.16	-0.000115245166	264697.16	638448.2	-0.0001519337
0	0.6449986	0.6449983	-2.3874788e-10	0.059538368	0.059538368	0	166778.22	166778.16	-6.441327e-05	638535.3	264462.72	-0.00020286602	264462.7	638535	-0.00014848066
0	0.6448939	0.64489365	-2.2722213e-10	0.059396908	0.059396908	0	166751.14	166751.06	-5.6760204e-05	638622.5	264229	-9.884323e-05	264228.97	638622.06	-0.00021063536
0	0.6447896	0.6447893	-3.2930744e-10	0.059255596	0.059255596	0	166724.14	166724.08	-8.290816e-05	638709.4	263995.97	-0.00033926105	263995.88	638708.94	-0.00013121546
0	0.64468384	0.6446835	-1.9758447e-11	0.059114102	0.059114102	0	166696.8	166696.73	-5.739796e-06	638796.75	263760.56	3.6688536e-05	263760.5	638796.3	-7.9419886e-05
0	0.6445779	0.6445776	-3.3095396e-10	0.058972705	0.058972713	0	166669.45	166669.36	-9.375e-05	638884.1	263525.03	-0.00029911948	263525.03	638883.6	-0.0002140884
0	0.6444718	0.64447165	-3.721174e-10	0.05883125	0.05883125	0	166642.02	166641.95	-9.757653e-05	638971.4	263289.28	-0.00033667128	263289.28	638971	-0.00019682321
0	0.6443659	0.64436555	-1.3501604e-10	0.0586899	0.0586899	0	166614.6	166614.53	-3.6989797e-05	639058.7	263053.6	-2.2444752e-05	263053.56	639058.2	-0.00016574586
0	0.6442592	0.64425886	-2.9637667e-10	0.05854845	0.05854845	0	166587.02	166586.94	-7.9081634e-05	639146.1	262816.78	-0.00031034186	262816.75	639145.6	-0.0001346685
0	0.6441525	0.6441523	-1.8441217e-10	0.058406986	0.058406986	0	166559.47	166559.38	-4.432398e-05	639233.3	262580.3	-0.00010186464	262580.28	639232.9	-0.0001691989
0	0.64404374	0.64404345	-1.4818834e-11	0.05826565	0.05826565	0	166531.31	166531.23	-7.653061e-06	639322.4	262338.8	-1.6833563e-05	262338.78	639322	-1.03591165e-05
0	0.6439381	0.6439379	-1.2842989e-10	0.058124106	0.058124106	0	166504.02	166503.94	-3.252551e-05	639408.8	262104.62	-0.000113087015	262104.62	639408.3	-5.870166e-05
0	0.6438307	0.6438304	-8.232685e-12	0.05798278	0.05798278	0	166476.22	166476.16	-6.377551e-07	639496.6	261866.47	1.5538673e-05	261866.44	639496.06	-1.7265193e-05
0	0.643723	0.6437228	-1.9758446e-10	0.05784131	0.05784131	0	166448.38	166448.31	-5.0063776e-05	639584.25	261628.06	-0.000120424724	261628.05	639583.75	-0.00016229282
0	0.6436155	0.6436152	-4.5938386e-10	0.05769985	0.057699848	0	166420.56	166420.48	-0.00012117347	639671.5	261390.1	-0.0003586844	261390.1	639671.06	-0.00028314916
0	0.64350706	0.64350677	-1.6136065e-10	0.05755853	0.05755853	0	166392.55	166392.45	-3.6989797e-05	639759.44	261150.33	-2.676105e-05	261150.36	639759.1	-0.00021063536
0	0.64339674	0.6433964	-2.0417061e-10	0.05741706	0.05741706	0	166364	166363.92	-5.994898e-05	639848.75	260906.58	-0.00016358771	260906.55	639848.3	-0.00018991713
0	0.64328986	0.6432895	-3.1778166e-10	0.057275645	0.057275645	0	166336.39	166336.3	-8.290816e-05	639935.1	260670.66	-0.00021149861	260670.66	639934.7	-0.00023825967
0	0.64318055	0.64318025	-3.1613515e-10	0.05713419	0.05713419	0	166308.12	166308.05	-7.780612e-05	640023.4	260429.48	-0.00035997928	260429.48	640022.9	-8.977901e-05
0	0.6430707	0.64307034	-2.0087754e-10	0.056992844	0.056992844	0	166279.72	166279.64	-5.0382652e-05	640111.4	260187.56	-0.000115245166	260187.56	640111	-0.00013812154
0	0.642962	0.6429616	-1.08671454e-10	0.056851387	0.056851387	0	166251.61	166251.52	-2.6785714e-05	640199.2	259947.61	-5.438536e-05	259947.61	640198.6	-7.9419886e-05
0	0.6428519	0.6428516	-2.8649746e-10	0.056709927	0.056709927	0	166223.12	166223.05	-7.780612e-05	640287.1	259705.55	-0.00023049033	259705.55	640286.7	-0.00021063536
0	0.64274174	0.6427414	-5.5982264e-11	0.056568585	0.056568585	0	166194.64	166194.55	-2.0089286e-05	640375.4	259462.98	-7.2082184e-05	259462.98	640375	-1.03591165e-05
0	0.6426302	0.64263	-1.3995566e-10	0.056427047	0.056427047	0	166165.81	166165.72	-3.4438777e-05	640465.5	259216.8	-6.301796e-05	259216.78	640465.06	-0.00011740332
0	0.6425218	0.6425215	-7.409417e-11	0.05628571	0.05628571	0	166137.77	166137.67	-1.7857143e-05	640552.25	258978.23	-1.1222376e-05	258978.2	640551.75	-5.179558e-05
0	0.6424098	0.64240944	-2.4698057e-10	0.05614424	0.05614425	0	166108.81	166108.73	-6.760204e-05	640641	258732.78	-0.00013725829	258732.78	640640.56	-0.0002140884
0	0.64229995	0.64229953	-2.7167862e-10	0.056002792	0.056002792	0	166080.4	166080.33	-6.8239795e-05	640729.2	258490.64	-0.00022099448	258490.64	640728.8	-0.00017265194
0	0.64218795	0.6421876	-3.2601435e-10	0.05586147	0.05586147	0	166051.44	166051.38	-8.864796e-05	640817.5	258245.64	-0.00030775208	258245.64	640816.94	-0.0001691989
0	0.6420762	0.6420759	-3.1613515e-10	0.05572	0.055719994	0	166022.58	166022.48	-8.163265e-05	640906.2	258000.48	-0.00021840469	258000.48	640905.7	-0.00022099448
0	0.64196527	0.641965	3.6223816e-11	0.055578664	0.055578664	0	165993.88	165993.8	1.3711735e-05	640994.75	257756.61	1.8991712e-05	257756.64	640994.3	4.8342543e-05
0	0.6418528	0.64185244	-3.8858278e-10	0.055437125	0.055437125	0	165964.78	165964.7	-9.534439e-05	641083.94	257509.97	-0.00036990677	257510	641083.5	-0.0001691989
0	0.6417402	0.64173985	-2.9637667e-11	0.05529578	0.05529578	0	165935.67	165935.6	-1.0204081e-05	641172.8	257263.48	-7.510359e-05	257263.48	641172.3	3.7983424e-05
0	0.64162827	0.64162797	-4.0834122e-10	0.055154327	0.055154327	0	165906.75	165906.64	-0.000109375	641261.2	257018.48	-0.0003198377	257018.45	641260.6	-0.00027969613
0	0.64151555	0.64151525	-2.7661823e-10	0.05501287	0.05501287	0	165877.6	165877.52	-7.302296e-05	641349.56	256772.27	-0.00015409185	256772.27	641349	-0.00025552485
0	0.64140105	0.64140075	-8.5619935e-11	0.054871522	0.054871522	0	165847.98	165847.9	-2.614796e-05	641439	256522.47	-6.733425e-05	256522.47	641438.56	-6.215469e-05
0	0.6412869	0.6412865	-4.3962542e-10	0.05473008	0.05473008	0	165818.47	165818.38	-0.000117984695	641529.5	256272.19	-0.00028055938	256272.2	641528.94	-0.00035220996
0	0.64117503	0.6411747	-1.860587e-10	0.05458865	0.05458865	0	165789.55	165789.47	-4.655612e-05	641617.06	256028.03	-0.00011826657	256028.06	641616.5	-0.00011049724
0	0.64106137	0.641061	-1.0537838e-10	0.054447185	0.054447185	0	165760.14	165760.08	-3.4438777e-05	641706	255779.92	-0.00013768992	255779.95	641705.5	-7.251381e-05
0	0.6409471	0.6409468	-9.549916e-11	0.054305855	0.054305855	0	165730.61	165730.5	-2.5191326e-05	641795.2	255530.72	-1.25172655e-05	255530.73	641794.7	-0.00011740332
0	0.6408323	0.6408319	-1.4818834e-10	0.054164406	0.054164406	0	165700.92	165700.83	-3.762755e-05	641884.5	255280.6	-0.00014243784	255280.62	641884.06	-5.524862e-05
0	0.6407175	0.64071715	-1.3007644e-10	0.054022938	0.054022938	0	165671.27	165671.16	-3.4438777e-05	641973.75	255030.84	-6.4744476e-05	255030.84	641973.25	-0.00010359116
0	0.6406028	0.64060247	-8.232686e-11	0.0538816	0.0538816	0	165641.6	165641.48	-2.2959184e-05	642062.94	254780.98	-2.2876382e-05	254781.02	642062.5	-0.00012430939
0	0.6404873	0.64048696	-2.9143707e-10	0.05374007	0.05374007	0	165611.7	165611.61	-6.8877554e-05	642152.25	254529.88	-0.00024257597	254529.94	642151.75	-0.00015538673
0	0.64037204	0.64037174	-8.5619935e-11	0.05359871	0.05359871	0	165581.94	165581.83	-2.614796e-05	642241.3	254279.56	-2.4171271e-05	254279.6	642240.9	-9.6685086e-05
0	0.6402555	0.6402552	-1.5312795e-10	0.053457264	0.053457264	0	165551.8	165551.7	-4.145408e-05	642330.9	254026.84	-0.0001027279	254026.9	642330.4	-7.596685e-05
0	0.64013934	0.640139	-2.1240329e-10	0.053315822	0.053315822	0	165521.75	165521.64	-5.8673468e-05	642420.75	253774.25	-0.00014243784	253774.27	642420.25	-0.00013812154
0	0.64002377	0.6400234	-3.194282e-10	0.053174462	0.053174462	0	165491.84	165491.75	-8.6415814e-05	642510.2	253522.94	-0.00018473757	253522.97	642509.75	-0.00029005524
0	0.63990706	0.63990664	-3.6223818e-10	0.053033024	0.053033024	0	165461.7	165461.61	-9.438775e-05	642600.06	253269.94	-0.0003155214	253269.97	642599.5	-0.00017955802
0	0.6397898	0.63978934	-1.597141e-10	0.052891586	0.052891586	0	165431.34	165431.25	-4.336735e-05	642690.2	253015.5	-0.00013035221	253015.52	642689.6	-8.287293e-05
0	0.63967305	0.63967264	-1.7123987e-10	0.052750126	0.052750126	0	165401.16	165401.06	-4.5280613e-05	642779.56	252762.62	-0.00018603246	252762.66	642779	-5.179558e-05
0	0.63955563	0.63955534	-2.6673902e-10	0.052608777	0.052608777	0	165370.81	165370.72	-6.632653e-05	642869.25	252508.67	-0.00023092196	252508.67	642868.75	-0.00012776243
0	0.63943726	0.6394369	-1.9923099e-10	0.05246734	0.05246734	0	165340.22	165340.1	-5.1658164e-05	642959.44	252252.61	-0.00014243784	252252.64	642958.94	-0.0001691989
0	0.63931954	0.6393192	-6.092187e-11	0.052325882	0.052325882	0	165309.75	165309.66	-1.6581633e-05	643049.25	251998.03	-5.265884e-05	251998.08	643048.8	-3.7983424e-05
0	0.6392015	0.63920116	-2.3380828e-10	0.05218454	0.05218454	0	165279.25	165279.14	-6.122449e-05	643138.94	251743.16	-0.0001506388	251743.22	643138.44	-0.00015883977
0	0.63908124	0.6390808	-2.2557559e-10	0.052043002	0.052043002	0	165248.14	165248.05	-5.5484696e-05	643230.3	251483.39	-0.00011999309	251483.42	643229.8	-0.00017265194
0	0.63896376	0.6389634	-3.5729855e-10	0.051901635	0.051901635	0	165217.78	165217.67	-8.67347e-05	643319.4	251229.97	-0.00028617057	251230	643318.75	-0.00020718233
0	0.6388448	0.63884443	-1.8441217e-10	0.0517602	0.0517602	0	165187.02	165186.9	-5.2933672e-05	643409.44	250973.3	-0.0001519337	250973.31	643408.9	-0.000120856355
0	0.6387255	0.6387251	-1.9429139e-10	0.051618766	0.051618766	0	165156.17	165156.06	-4.9107144e-05	643499.44	250716.22	-0.00015020718	250716.27	643498.94	-0.00016574586
0	0.6386057	0.6386053	-2.8320438e-10	0.05147742	0.05147742	0	165125.2	165125.11	-7.653061e-05	643589.44	250458.62	-0.00016747238	250458.66	643588.9	-0.00024861877
0	0.63848495	0.63848454	-5.5982264e-11	0.05133596	0.05133596	0	165093.97	165093.86	-1.2117347e-05	643679.75	250199.16	6.733425e-05	250199.23	643679.2	-0.00014502762
0	0.6383647	0.63836426	-8.5619935e-11	0.051194515	0.051194515	0	165062.86	165062.75	-2.3596938e-05	643770.7	249939.78	-0.00010574931	249939.84	643770.1	-2.0718233e-05
0	0.6382447	0.6382442	-1.9429139e-10	0.05105309	0.05105309	0	165031.83	165031.7	-5.6760204e-05	643860.94	249681.47	-0.00021106699	249681.53	643860.4	-8.977901e-05
0	0.6381231	0.6381228	3.3918665e-10	0.05091171	0.050911706	0	165000.42	165000.33	8.864796e-05	643951.1	249421.28	0.000367317	249421.31	643950.6	0.00011740332
0	0.63800263	0.6380023	-2.1898944e-10	0.05077028	0.05077028	0	164969.27	164969.14	-5.484694e-05	644041.3	249162.38	-0.00018042127	249162.45	644040.8	-0.00014502762
0	0.63788104	0.63788056	-1.152576e-10	0.050628845	0.050628845	0	164937.8	164937.69	-2.997449e-05	644132.7	248900.69	-0.00014502762	248900.73	644132.1	-2.762431e-05
0	0.6377591	0.6377586	-2.9637667e-10	0.050487474	0.050487474	0	164906.28	164906.16	-7.9081634e-05	644223.6	248639.03	-0.00023566988	248639.08	644223.06	-0.00017955802
0	0.6376377	0.6376373	-3.671778e-10	0.050345946	0.050345946	0	164874.89	164874.78	-9.630102e-05	644313.7	248378.95	-0.00022531077	248379.03	644313.2	-0.0002935083
0	0.6375152	0.6375147	-1.4983488e-10	0.05020459	0.05020459	0	164843.22	164843.1	-3.7308673e-05	644404.3	248116.89	2.848757e-05	248116.95	644403.75	-0.00022790056
0	0.63739264	0.6373922	-1.0702492e-10	0.050063137	0.050063137	0	164811.52	164811.4	-3.890306e-05	644494.94	247854.62	-0.000113087015	247854.7	644494.44	-7.596685e-05
0	0.63726944	0.6372691	-2.6179942e-10	0.04992171	0.04992171	0	164779.69	164779.58	-6.855867e-05	644585.9	247591.38	-0.00023825967	247591.44	644585.3	-0.00013121546
0	0.63714635	0.63714594	-8.5619935e-11	0.049780354	0.049780354	0	164747.84	164747.75	-2.6785714e-05	644676.8	247328.05	-6.560773e-05	247328.11	644676.25	-5.870166e-05
0	0.637023	0.6370226	-2.6673902e-10	0.0496389	0.0496389	0	164715.97	164715.86	-6.983418e-05	644767.75	247064.44	-0.0001722203	247064.5	644767.25	-0.00019337017
0	0.63689756	0.6368971	-2.6344593e-10	0.049497455	0.049497455	0	164683.5	164683.39	-6.760204e-05	644860.6	246795.9	-0.00016272445	246796	644860	-0.0002140884
0	0.63677526	0.6367748	-2.5685978e-10	0.04935602	0.04935602	0	164651.89	164651.77	-6.8239795e-05	644950.1	246535.16	-0.0002822859	246535.27	644949.56	-6.906077e-05
0	0.6366506	0.63665015	-3.490659e-10	0.04921464	0.04921464	0	164619.66	164619.55	-9.215561e-05	645041.6	246269.11	-0.00021883633	246269.2	645041	-0.00026588398
0	0.6365245	0.6365241	4.9396117e-12	0.04907321	0.04907321	0	164587.06	164586.94	-3.1887755e-06	645132.9	246001.3	-2.89192e-05	246001.34	645132.4	3.1077347e-05
0	0.6363989	0.6363984	-5.5982263e-10	0.04893179	0.04893179	0	164554.55	164554.45	-0.00014285714	645225.5	245732.81	-0.00030429903	245732.9	645224.94	-0.00044544198
0	0.6362755	0.636275	-8.5619935e-11	0.048790418	0.048790418	0	164522.66	164522.53	-2.8061224e-05	645315.44	245470.06	-6.906077e-05	245470.14	645314.94	-9.323205e-05
0	0.6361503	0.63614976	-2.5027364e-10	0.048648883	0.048648883	0	164490.3	164490.17	-5.5165816e-05	645406.56	245203.73	-0.00013121546	245203.88	645405.94	-0.0001691989
0	0.63602424	0.63602376	-1.7782602e-10	0.04850753	0.04850753	0	164457.7	164457.6	-4.846939e-05	645498.06	244935.84	-4.3594613e-05	244935.94	645497.44	-0.00020027625
0	0.63589823	0.63589776	-3.0790245e-10	0.04836608	0.04836608	0	164425.11	164424.98	-7.270408e-05	645589.3	244668.11	-0.00019898135	244668.22	645588.75	-0.0002313536
0	0.6357715	0.6357711	-2.1404983e-10	0.048224654	0.048224654	0	164392.36	164392.22	-5.0382652e-05	645680.9	244399.22	-0.000113087015	244399.3	645680.3	-0.00014157458
0	0.635645	0.6356445	-1.2184374e-10	0.04808329	0.04808329	0	164359.62	164359.48	-2.9017858e-05	645772.3	244130.53	-4.877417e-05	244130.66	645771.75	-0.00012430939
0	0.63551754	0.63551706	-2.6015287e-10	0.04794185	0.04794185	0	164326.69	164326.55	-7.2385206e-05	645864.06	243860.34	-0.00021624655	243860.42	645863.56	-0.00014502762
0	0.6353902	0.6353898	-2.1734291e-10	0.047800384	0.047800384	0	164293.77	164293.64	-5.6760204e-05	645955.7	243590.53	-0.00015452348	243590.64	645955.1	-0.0001346685
0	0.6352622	0.63526165	-1.0373184e-10	0.047658965	0.047658965	0	164260.66	164260.52	-2.5510204e-05	646047.2	243319.73	-5.179558e-05	243319.83	646046.75	-9.6685086e-05
0	0.63513434	0.6351338	-1.1196453e-10	0.04751758	0.04751758	0	164227.58	164227.45	-2.2321428e-05	646139.5	243048.44	1.5538673e-05	243048.55	646138.94	-0.00015883977
0	0.63500637	0.63500595	-1.8935177e-10	0.047376156	0.047376156	0	164194.5	164194.36	-4.9744896e-05	646231	242777.81	-0.000111360496	242777.95	646230.44	-0.00014502762
0	0.63487685	0.6348763	-3.9187584e-10	0.047234733	0.047234733	0	164161	164160.86	-0.00010459184	646323.5	242503.97	-0.00031595305	242504.08	646322.75	-0.00024171271
0	0.634749	0.6347485	-2.6673902e-10	0.047093347	0.047093347	0	164127.95	164127.81	-7.1109695e-05	646414.6	242233.88	-0.00028142266	242233.98	646414.06	-0.00010359116
0	0.63461953	0.63461906	-2.6344593e-10	0.046951823	0.04695183	0	164094.47	164094.34	-7.015306e-05	646506.4	241960.84	-0.00016704075	241960.98	646505.9	-0.00018301106
0	0.63448936	0.6344888	-4.5115117e-10	0.046810456	0.046810463	0	164060.83	164060.69	-0.000106505104	646598.9	241686.17	-0.00038458218	241686.31	646598.25	-0.0002313536
0	0.63436025	0.6343597	-2.0746369e-10	0.04666902	0.04666902	0	164027.42	164027.3	-5.8992347e-05	646690.6	241413.48	-0.00014373273	241413.6	646690.06	-0.0001864641
0	0.63422936	0.6342289	-2.8485092e-10	0.046527658	0.046527658	0	163993.61	163993.47	-7.270408e-05	646783.06	241137.94	-8.8915745e-05	241138.05	646782.5	-0.0003038674
0	0.6340993	0.6340989	-1.2678336e-10	0.046386234	0.046386234	0	163959.97	163959.83	-3.125e-05	646875.06	240863.84	-8.114641e-05	240863.98	646874.5	-9.6685086e-05
0	0.6339679	0.6339672	-2.1075676e-10	0.0462448	0.0462448	0	163925.97	163925.83	-4.5280613e-05	646967.75	240587.05	-0.0001881906	240587.19	646967.2	-9.6685086e-05
0	0.63383675	0.6338362	-1.9758447e-11	0.04610342	0.04610342	0	163892.08	163891.95	-1.2755102e-06	647059.94	240311.42	-3.3235498e-05	240311.56	647059.4	3.4530387e-06
0	0.63370556	0.633705	-3.358936e-10	0.045961898	0.045961898	0	163858.16	163858.02	-8.80102e-05	647152.3	240035.36	-0.00032329073	240035.53	647151.7	-0.00017610498
0	0.6335735	0.6335729	-3.227213e-10	0.045820512	0.045820512	0	163823.98	163823.86	-8.4821426e-05	647245	239757.72	-0.0001938018	239757.86	647244.44	-0.000269337
0	0.63344127	0.63344085	-2.4039443e-10	0.0456791	0.0456791	0	163789.83	163789.69	-5.739796e-05	647337.3	239480.39	-0.00016704075	239480.53	647336.75	-0.00013121546
0	0.63330925	0.63330877	-2.2228251e-10	0.045537677	0.045537677	0	163755.67	163755.55	-5.0382652e-05	647429.7	239203.2	-5.697514e-05	239203.34	647429.06	-0.0002140884
0	0.6331759	0.6331754	-4.4621157e-10	0.045396283	0.045396283	0	163721.2	163721.06	-0.00010905612	647522.56	238923.58	-0.00035997928	238923.72	647522	-0.00025552485
0	0.633043	0.6330426	-2.1734291e-10	0.04525487	0.04525487	0	163686.88	163686.72	-6.0586735e-05	647615.2	238645.1	-0.00014675414	238645.23	647614.5	-0.00015883977
0	0.6329094	0.6329088	-1.3501604e-10	0.045113392	0.045113385	0	163652.28	163652.14	-3.9540817e-05	647707.9	238365.05	-9.8411605e-05	238365.22	647707.3	-8.977901e-05