# t (s)	mx ()	my ()	mz ()	B_extx (T)	B_exty (T)	B_extz (T)	m_fullx (A/m)	m_fully (A/m)	m_fullz (A/m)	m_full.region1x (A/m)	m_full.region1y (A/m)	m_full.region1z (A/m)	m_full.region2x (A/m)	m_full.region2y (A/m)	m_full.region2z (A/m)
0	0.6391504	0.6391486	-5.221273e-10	0.07071087	0.07071087	0	90912.75	90912.5	-7e-05	653826.2	240982.7	-0.00036294293	240984.23	653825.44	-0.00034833292
0	0.639039	0.63903666	-3.9599543e-10	0.07056911	0.07056911	0	90896.91	90896.57	-5.46875e-05	653916.25	240736.2	-0.0002952756	240738.34	653915.1	-0.000293161
0	0.6389234	0.6389211	2.9332994e-11	0.07042789	0.07042789	0	90880.47	90880.13	2.1875e-06	654009.9	240480.81	1.230315e-05	240482.97	654008.7	5.613312e-05
0	0.6388073	0.638805	-1.3199848e-10	0.07028653	0.07028652	0	90863.95	90863.62	-1.875e-05	654103.8	240224.25	-4.92126e-05	240226.42	654102.75	-0.00013225887
0	0.6386915	0.63868916	-2.3759725e-10	0.070144884	0.070144884	0	90847.48	90847.14	-3.1875e-05	654197.44	239968.5	-0.00020453986	239970.67	654196.3	-0.00015994094
0	0.638575	0.6385726	-2.5813035e-10	0.07000352	0.07000352	0	90830.91	90830.56	-3.75e-05	654291.44	239711.31	-0.00021530512	239713.53	654290.3	-0.00015724963
0	0.6384583	0.63845587	-1.9066447e-10	0.06986229	0.06986229	0	90814.3	90813.96	-2.875e-05	654385.25	239454.11	-8.9197834e-05	239456.3	654384.06	-0.00019069882
0	0.6383412	0.63833874	-1.2613188e-10	0.069720544	0.069720544	0	90797.65	90797.31	-2e-05	654479.3	239196.12	-0.00013841044	239198.34	654478.2	-9.092796e-05
0	0.6382239	0.6382215	-1.2319858e-10	0.069579184	0.06957919	0	90780.97	90780.63	-2.21875e-05	654573.56	238937.75	-0.00020915354	238939.97	654572.44	-2.575972e-05
0	0.6381066	0.6381041	-2.0533096e-10	0.069437966	0.069437966	0	90764.266	90763.93	-2.75e-05	654667.44	238679.48	-1.8454724e-05	238681.7	654666.25	-0.00023068406
0	0.6379874	0.63798493	-4.7226123e-10	0.069296576	0.069296576	0	90747.31	90746.97	-6.8125e-05	654762.4	238417.69	-0.0002691314	238419.9	654761.25	-0.00039716106
0	0.63787067	0.63786834	-3.0212985e-10	0.06915496	0.06915497	0	90730.72	90730.39	-4.375e-05	654855.75	238160.95	-0.00033218504	238163.17	654854.6	-8.996678e-05
0	0.6377524	0.63774997	-9.679888e-11	0.069013596	0.069013596	0	90713.9	90713.56	-1.3125e-05	654950.06	237901.08	-0.00016609252	237903.3	654948.94	7.074311e-05
0	0.63763374	0.6376314	-2.6399696e-10	0.068872236	0.068872236	0	90697.03	90696.68	-3.75e-05	655044.3	237640.67	-0.0001476378	237642.89	655043.25	-0.0002518301
0	0.6375148	0.6375124	-3.0799643e-10	0.06873064	0.06873064	0	90680.12	90679.766	-4.1875e-05	655138.56	237379.94	-0.000246063	237382.14	655137.5	-0.0002256859
0	0.6373958	0.6373934	-3.2266294e-11	0.06858927	0.06858927	0	90663.17	90662.83	-2.34375e-06	655232.94	237118.89	-8.458416e-05	237121.16	655231.8	5.843996e-05
0	0.63727564	0.63727325	-1.5253157e-10	0.06844801	0.06844801	0	90646.086	90645.74	-2.3125e-05	655327.75	236855.86	-0.00018147146	236858.12	655326.56	-5.0750492e-05
0	0.6371564	0.6371539	-1.7893127e-10	0.06830665	0.06830665	0	90629.13	90628.78	-2.3125e-05	655422.06	236594.64	-0.00010457677	236596.89	655421	-0.00010976716
0	0.63703644	0.637034	-3.0212985e-10	0.06816504	0.06816504	0	90612.06	90611.72	-4.5e-05	655516.5	236332.25	-0.00011534203	236334.48	655515.44	-0.00034756397
0	0.6369162	0.63691384	-1.8186457e-10	0.068023674	0.068023674	0	90594.96	90594.625	-3e-05	655611.2	236069.3	-0.00010611467	236071.53	655610.06	-0.00013687254
0	0.63679564	0.63679314	-2.9332994e-10	0.06788232	0.06788232	0	90577.805	90577.46	-4.0625e-05	655705.6	235805.94	-0.00020300197	235808.16	655704.5	-0.00020934577
0	0.6366743	0.63667196	-1.9066447e-10	0.067740716	0.067740716	0	90560.555	90560.22	-2.5e-05	655800.75	235541.17	-0.00011380413	235543.4	655799.56	-0.00014456201
0	0.6365538	0.6365514	-1.1146538e-10	0.06759932	0.06759932	0	90543.42	90543.07	-1.5e-05	655894.94	235278.16	-0.00011995571	235280.4	655893.75	-4.9404836e-05
0	0.6364314	0.63642895	-1.0559878e-10	0.06745809	0.06745809	0	90526.016	90525.66	-1.5625e-05	655990.3	235011.34	-0.00016609252	235013.62	655989.2	2.3068405e-06
0	0.6363103	0.63630784	-2.6693026e-10	0.067316726	0.067316726	0	90508.78	90508.43	-3.8125e-05	656085	234747.16	-0.00025529036	234749.44	656083.9	-0.00010765256
0	0.6361884	0.63618594	-1.2026528e-10	0.067174986	0.067174986	0	90491.445	90491.086	-1.6875e-05	656179.8	234481.64	-7.843258e-05	234483.9	656178.7	-9.534941e-05
0	0.6360661	0.6360635	-3.4612935e-10	0.06703377	0.06703377	0	90474.04	90473.68	-4.8125e-05	656274.9	234215.23	-0.00028297244	234217.5	656273.75	-0.00022645485
0	0.63594335	0.63594097	-2.6693026e-10	0.066892385	0.066892385	0	90456.59	90456.25	-3.3125e-05	656369.9	233948.6	-0.00015225148	233950.92	656368.7	-0.00021530512
0	0.63582045	0.635818	-1.4666497e-10	0.06675076	0.06675076	0	90439.11	90438.75	-2.125e-05	656465.06	233681.33	-9.84252e-05	233683.62	656463.94	-0.00010246217
0	0.6356974	0.63569504	-2.8453004e-10	0.0666094	0.0666094	0	90421.59	90421.266	-4.375e-05	656560	233414.28	-0.0001968504	233416.56	656558.75	-0.00021645853
0	0.63557416	0.63557166	-3.8719553e-10	0.066468164	0.066468164	0	90404.06	90403.72	-5.5625e-05	656654.94	233146.58	-0.00033218504	233148.88	656653.75	-0.00023683564
0	0.6354502	0.6354478	-3.6079584e-10	0.06632643	0.06632643	0	90386.445	90386.086	-5.28125e-05	656750.2	232877.81	-0.00028297244	232880.1	656749.1	-0.00025375246
0	0.6353261	0.6353236	-3.0506314e-10	0.06618507	0.06618507	0	90368.78	90368.43	-4.15625e-05	656845.7	232608.55	-0.00035063978	232610.88	656844.5	-8.7659944e-05
0	0.635202	0.6351995	-2.7573016e-10	0.06604385	0.06604384	0	90351.125	90350.77	-3.96875e-05	656940.6	232339.88	-0.00018454724	232342.2	656939.44	-0.00019146777
0	0.635076	0.6350735	1.5253157e-10	0.065902434	0.065902434	0	90333.2	90332.86	2.21875e-05	657036.6	232067.48	0.00014917568	232069.8	657035.5	6.3245876e-05
0	0.63495207	0.63494956	-3.0506314e-10	0.06576085	0.06576085	0	90315.57	90315.23	-4.4375e-05	657131.56	231798.92	-0.00031373033	231801.3	657130.44	-0.00014090951
0	0.6348271	0.6348246	-4.0479534e-10	0.06561948	0.06561948	0	90297.81	90297.45	-5.859375e-05	657226.9	231528.77	-0.0002722072	231531.1	657225.7	-0.0002952756
0	0.6347018	0.6346993	-5.8372657e-10	0.06547825	0.06547825	0	90279.984	90279.625	-8.25e-05	657322.2	231258.05	-0.0003414124	231260.39	657321	-0.00045733113
0	0.63457596	0.63457346	-2.4346386e-10	0.06533652	0.065336525	0	90262.086	90261.73	-3.40625e-05	657417.5	230986.53	-0.00010457677	230988.84	657416.4	-0.00020934577
0	0.63444924	0.6344468	-2.1706416e-10	0.06519514	0.06519514	0	90244.06	90243.72	-2.8125e-05	657513.5	230713.12	-0.00017839567	230715.44	657512.4	-0.00013225887
0	0.63432366	0.6343212	-2.9919656e-10	0.065053925	0.065053925	0	90226.195	90225.86	-4.6875e-05	657608.7	230442.17	-0.00028143454	230444.55	657607.44	-0.00016820713
0	0.6341959	0.6341934	-2.0533096e-10	0.06491251	0.06491251	0	90208.03	90207.67	-2.90625e-05	657704.9	230166.98	-0.00020300197	230169.34	657703.7	-8.266178e-05
0	0.63406944	0.6340669	-2.2879736e-10	0.06477093	0.06477093	0	90190.04	90189.68	-3.15625e-05	657800.44	229894.4	-0.00014302411	229896.72	657799.25	-0.00017839567
0	0.6339424	0.6339399	-1.4373168e-10	0.06462956	0.06462956	0	90171.97	90171.62	-2.03125e-05	657895.94	229621.1	-0.00010303888	229623.48	657894.7	-0.00010226993
0	0.63381445	0.633812	-2.0239767e-10	0.06448818	0.06448818	0	90153.78	90153.414	-2.71875e-05	657992.06	229345.86	-0.00023991142	229348.2	657990.94	-5.036602e-05
0	0.6336866	0.63368416	-2.6106364e-10	0.0643466	0.0643466	0	90135.57	90135.23	-3.75e-05	658087.75	229071.12	-0.0001953125	229073.52	658086.6	-0.00016916831
0	0.6335586	0.63355607	-9.093228e-11	0.06420522	0.06420524	0	90117.375	90117.016	-1.4375e-05	658183.3	228796.27	-0.00012764518	228798.64	658182.2	-3.1719057e-05
0	0.6334302	0.6334277	-2.0533096e-11	0.064063966	0.064063966	0	90099.12	90098.75	-1.25e-06	658279.3	228520.64	8.612205e-05	228523.06	658278.1	-0.00011303519
0	0.6333014	0.6332989	-3.2852954e-10	0.063922584	0.063922584	0	90080.8	90080.43	-5e-05	658375.06	228244.53	-0.00033833663	228246.92	658373.9	-0.00014148622
0	0.6331716	0.6331691	-7.9199085e-11	0.06378101	0.063781016	0	90062.336	90061.98	-1.03125e-05	658471.44	227966.48	-0.00010457677	227968.86	658470.3	-3.344919e-05
0	0.6330424	0.63303983	-5.573269e-11	0.06363963	0.06363963	0	90043.95	90043.586	-8.4375e-06	658567.56	227689.38	-1.8454724e-05	227691.73	658566.44	-4.9981547e-05
0	0.6329129	0.6329103	-1.6426477e-10	0.06349824	0.06349825	0	90025.52	90025.164	-2.46875e-05	658663.6	227411.98	-0.00019069882	227414.38	658662.44	-3.9600764e-05
0	0.632783	0.6327805	-1.3493177e-10	0.06335668	0.06335668	0	90007.06	90006.7	-2.125e-05	658759.56	227134.22	-0.00022453249	227136.62	658758.44	3.8447342e-06
0	0.6326526	0.63265014	-2.1999746e-10	0.06321527	0.063215286	0	89988.51	89988.14	-3.28125e-05	658855.7	226855.58	-0.00020300197	226857.95	658854.5	-0.00013225887
0	0.6325221	0.6325196	-4.693279e-11	0.063074045	0.06307404	0	89969.94	89969.586	-1.21875e-05	658951.8	226576.78	-9.227362e-06	226579.17	658950.6	-9.84252e-05
0	0.6323903	0.63238776	-5.749267e-10	0.062932655	0.062932655	0	89951.19	89950.82	-8.3125e-05	659048.5	226295.45	-0.0003937008	226297.9	659047.3	-0.000423113
0	0.63225955	0.632257	-2.8746336e-10	0.062790945	0.062790945	0	89932.59	89932.234	-3.71875e-05	659144.6	226016.28	-0.000110728346	226018.67	659143.5	-0.0002779743
0	0.63212836	0.63212585	4.693279e-11	0.062649705	0.062649705	0	89913.94	89913.58	7.8125e-06	659240.6	225736.77	7.38189e-05	225739.19	659239.44	1.8454724e-05
0	0.6319951	0.6319925	-2.3466395e-10	0.06250833	0.06250833	0	89894.984	89894.62	-3.34375e-05	659337.7	225452.92	-0.00014456201	225455.38	659336.56	-0.00017820344
0	0.63186234	0.6318598	-2.5519706e-10	0.06236674	0.06236674	0	89876.09	89875.734	-3.484375e-05	659434.56	225170.3	-0.00025682824	225172.72	659433.3	-9.90019e-05
0	0.63173157	0.63172895	-3.2852954e-10	0.062225346	0.062225346	0	89857.484	89857.125	-4.40625e-05	659529.9	224891.81	-0.00022453249	224894.27	659528.7	-0.00021530512
0	0.63159776	0.63159513	-2.7573016e-10	0.06208412	0.06208412	0	89838.46	89838.1	-4.03125e-05	659626.75	224607.67	-0.00022607038	224610.11	659625.6	-0.00016532357
0	0.63146406	0.6314615	-2.2879736e-10	0.061942413	0.061942417	0	89819.445	89819.086	-3.234375e-05	659723.75	224323.48	-0.00032603348	224325.89	659722.56	9.611836e-06
0	0.6313311	0.6313284	-1.2319858e-10	0.06180102	0.061801024	0	89800.53	89800.164	-2.0625e-05	659820.1	224040.81	-9.9963094e-05	224043.28	659819	-8.419968e-05
0	0.6311977	0.6311951	-1.0853208e-10	0.06165979	0.06165979	0	89781.56	89781.195	-1.3125e-05	659916.6	223757.81	-1.691683e-05	223760.23	659915.4	-0.00011745663
0	0.6310627	0.63106006	1.7599797e-11	0.061518367	0.061518367	0	89762.34	89761.984	0	660013.7	223471.6	-0.00011687992	223474.05	660012.56	0.00010649914
0	0.6309286	0.630926	-4.8106114e-10	0.061376818	0.06137681	0	89743.28	89742.91	-6.9375e-05	660110.25	223187.3	-0.00031834398	223189.8	660109.06	-0.00037832186
0	0.630794	0.63079137	-4.1652853e-10	0.061235435	0.061235435	0	89724.13	89723.77	-5.84375e-05	660206.94	222902.17	-0.0003168061	222904.64	660205.7	-0.00026778574
0	0.630659	0.63065636	-2.6399696e-10	0.061094042	0.061094042	0	89704.93	89704.56	-3.671875e-05	660303.7	222616.44	-0.00023683564	222618.9	660302.44	-0.00015628844
0	0.63052225	0.6305197	-3.1092975e-10	0.06095251	0.060952503	0	89685.484	89685.12	-4.1875e-05	660400.8	222327.84	-0.00019069882	222330.28	660399.7	-0.000246063
0	0.63038677	0.63038415	-3.3439615e-10	0.060811114	0.060811102	0	89666.21	89665.836	-5.1875e-05	660497.75	222041.25	-0.00028758612	222043.73	660496.5	-0.00022376353
0	0.6302511	0.6302485	-1.2906518e-10	0.06066984	0.06066984	0	89646.93	89646.555	-1.6875e-05	660594.44	221754.69	-0.00010457677	221757.16	660593.3	-0.00010649914
0	0.63011515	0.63011265	-3.0506314e-10	0.060528446	0.060528446	0	89627.59	89627.22	-4.625e-05	660691.06	221467.73	-0.00023683564	221470.22	660689.94	-0.00021838091
0	0.62997746	0.6299748	-2.6986355e-10	0.0603869	0.060386896	0	89607.984	89607.62	-3.84375e-05	660788.7	221177.3	-0.00020607776	221179.77	660787.5	-0.0001785879
0	0.6298409	0.6298383	-3.3146283e-10	0.060245506	0.060245506	0	89588.57	89588.2	-4.84375e-05	660885.3	220889.45	-0.00019069882	220891.94	660884.2	-0.00027874325
0	0.6297027	0.62970006	-4.5172813e-10	0.060104124	0.060104124	0	89568.914	89568.54	-6.375e-05	660982.7	220598.61	-0.00042599655	220601.12	660981.5	-0.00020915354
0	0.6295652	0.6295626	-3.0212985e-10	0.05996258	0.05996258	0	89549.36	89548.984	-4.4375e-05	661079.75	220309.06	-0.00022453249	220311.58	661078.56	-0.00021203709
0	0.62942755	0.6294249	-3.2852954e-10	0.059821147	0.059821147	0	89529.77	89529.41	-4.59375e-05	661176.8	220019.3	-0.00036294293	220021.8	661175.56	-0.00013341228
0	0.62928843	0.6292859	-5.573269e-11	0.059679918	0.059679918	0	89510	89509.625	-5.3125e-06	661274.2	219727.14	-9.227362e-05	219729.64	661273.1	5.5364173e-05
0	0.6291505	0.6291479	-3.4026273e-10	0.05953851	0.05953851	0	89490.36	89489.99	-4.90625e-05	661371.06	219437.08	-0.00022607038	219439.62	661369.9	-0.00025529036
0	0.6290104	0.6290077	-5.0452753e-10	0.059396826	0.05939683	0	89470.43	89470.055	-7.4375e-05	661468.8	219143.12	-0.00035063978	219145.62	661467.75	-0.00039658434
0	0.6288721	0.6288694	-2.5813035e-10	0.059255596	0.059255596	0	89450.766	89450.39	-3.59375e-05	661565.5	218852.9	-0.00017531989	218855.4	661564.3	-0.00018762304
0	0.6287309	0.6287282	2.6399695e-11	0.059114188	0.059114188	0	89430.68	89430.305	5e-06	661663.56	218557.16	7.074311e-05	218559.72	661662.4	1.634012e-05
0	0.6285907	0.628588	-1.8186457e-10	0.058972627	0.058972627	0	89410.734	89410.35	-2.5e-05	661761.1	218263.2	-6.151575e-05	218265.75	661759.9	-0.00016474686
0	0.62845105	0.62844837	-1.0266548e-10	0.05883123	0.058831234	0	89390.875	89390.5	-1.71875e-05	661858.2	217970.77	1.8454724e-05	217973.31	661856.94	-0.00016916831
0	0.62831044	0.62830776	-4.1066192e-11	0.05868999	0.058689985	0	89370.88	89370.5	-5.9375e-06	661955.4	217676.7	-0.00011687992	217679.25	661954.2	4.3061023e-05
0	0.62816894	0.62816626	-3.2852954e-10	0.0585483	0.0585483	0	89350.75	89350.37	-4.71875e-05	662053.06	217380.84	-0.00020915354	217383.38	662051.9	-0.00026740128
0	0.6280274	0.6280247	-2.9332994e-10	0.058406904	0.058406904	0	89330.61	89330.23	-4.0625e-05	662150.9	217084.88	-0.0001722441	217087.47	662149.6	-0.00023068406
0	0.62788606	0.62788343	-1.3786508e-10	0.058265664	0.058265664	0	89310.516	89310.13	-1.71875e-05	662247.75	216790.14	-0.00017993356	216792.72	662246.6	-1.0188546e-05
0	0.6277426	0.6277399	-1.7893127e-10	0.05812423	0.05812423	0	89290.11	89289.734	-2.65625e-05	662346	216491.03	-0.000246063	216493.56	662344.94	-2.5567482e-05
0	0.6276002	0.6275975	-2.5226377e-10	0.057982713	0.057982713	0	89269.84	89269.48	-3.65625e-05	662443.75	216193.94	-9.534941e-05	216196.53	662442.56	-0.0002675935
0	0.6274581	0.6274554	-4.575947e-10	0.057841305	0.057841305	0	89249.65	89249.26	-6.65625e-05	662541	215897.83	-0.00036140502	215900.38	662539.8	-0.00030661756
0	0.62731403	0.62731135	-3.2266295e-10	0.057699904	0.057699904	0	89229.15	89228.766	-4.796875e-05	662639.1	215597.95	-0.00022760827	215600.53	662637.9	-0.00021107591
0	0.62717134	0.6271686	-2.7279684e-10	0.057558388	0.057558395	0	89208.85	89208.46	-3.90625e-05	662736.4	215300.86	-9.84252e-05	215303.44	662735.2	-0.00027374507
0	0.62702614	0.6270234	-4.575947e-10	0.057416987	0.057416987	0	89188.19	89187.81	-6.34375e-05	662834.8	214999.16	-0.00025836614	215001.75	662833.56	-0.00039985238
0	0.62688255	0.6268799	-2.3173066e-10	0.05727571	0.05727571	0	89167.78	89167.39	-3.28125e-05	662932.25	214700.8	-0.0001968504	214703.39	662931.06	-0.00013533465
0	0.62673795	0.6267353	-1.9653107e-10	0.0571343	0.0571343	0	89147.21	89146.83	-2.71875e-05	663030.1	214400.5	-0.00015686516	214403.1	663028.94	-0.0001230315
0	0.6265925	0.6265897	-3.0799643e-10	0.05699279	0.05699279	0	89126.516	89126.125	-4.375e-05	663128.06	214098.83	-0.00023375984	214101.42	663126.9	-0.00019358237
0	0.62644684	0.62644416	-4.575947e-10	0.056851387	0.05685139	0	89105.79	89105.41	-6.625e-05	663226.1	213796.73	-0.00036294293	213799.36	663225	-0.00029508336
0	0.6263017	0.626299	-3.6666242e-10	0.056709986	0.056709986	0	89085.16	89084.77	-4.875e-05	663323.94	213495.86	-0.00030142718	213498.45	663322.75	-0.00022145669
0	0.6261558	0.6261531	-4.60528e-10	0.05656847	0.05656847	0	89064.41	89064.016	-6.4375e-05	663421.6	213193.92	-0.00037217027	213196.52	663420.44	-0.000296429
0	0.62600815	0.6260054	-3.1679634e-10	0.05642703	0.05642703	0	89043.4	89043.016	-4.6875e-05	663520.44	212888.31	-0.00028297244	212890.94	663519.25	-0.00016378568
0	0.62586236	0.6258597	-1.7599797e-10	0.056285787	0.056285787	0	89022.67	89022.29	-2.65625e-05	663617.8	212586.98	-0.0001707062	212589.61	663616.6	-0.00014456201
0	0.6257142	0.6257115	-1.8773116e-10	0.056144364	0.056144364	0	89001.59	89001.2	-2.625e-05	663716.44	212280.77	-7.228101e-05	212283.39	663715.3	-0.00018262488
0	0.6255677	0.6255649	-3.1972963e-10	0.056002706	0.0560027	0	88980.75	88980.36	-4.5e-05	663814.06	211978.08	-0.00033218504	211980.7	663812.8	-0.00013495017
0	0.6254197	0.62541693	-3.6666242e-10	0.055861473	0.05586147	0	88959.695	88959.305	-5.40625e-05	663912.2	211672.72	-0.00021838091	211675.36	663911	-0.0003198819
0	0.62527096	0.6252683	-1.3786508e-10	0.055720054	0.055720054	0	88938.55	88938.16	-1.6875e-05	664010.56	211366.17	-0.00014456201	211368.8	664009.4	-3.9985236e-05
0	0.6251221	0.62511927	-3.5199593e-10	0.05557856	0.05557856	0	88917.36	88916.97	-4.921875e-05	664108.8	211059.38	-0.0002952756	211062.03	664107.6	-0.00021395946
0	0.6249736	0.62497085	-3.0506314e-10	0.05543711	0.0554371	0	88896.24	88895.86	-4.5e-05	664206.8	210753.45	-0.00023375984	210756.12	664205.7	-0.00021530512
0	0.62482387	0.6248211	-4.4586151e-10	0.05529586	0.05529586	0	88874.95	88874.555	-6.21875e-05	664305.4	210445.38	-0.00037370817	210448.03	664304.25	-0.00021588182
0	0.6246744	0.62467164	-2.5519706e-10	0.055154454	0.055154454	0	88853.68	88853.29	-3.421875e-05	664403.5	210137.89	-0.000110728346	210140.56	664402.4	-0.00025932732
0	0.6245241	0.6245213	-4.135952e-10	0.05501279	0.05501279	0	88832.305	88831.92	-5.75e-05	664501.94	209829.11	-0.0003937008	209831.78	664500.75	-0.00017185962
0	0.6243732	0.62437046	-3.3439615e-10	0.054871544	0.054871544	0	88810.84	88810.45	-4.46875e-05	664600.4	209519.38	-0.00028143454	209522.05	664599.3	-0.00016666923
0	0.6242228	0.62422	-1.3786508e-10	0.05473013	0.054730132	0	88789.445	88789.06	-2.15625e-05	664698.5	209210.73	-7.997047e-05	209213.4	664697.4	-0.00014994464
0	0.62407047	0.62406766	-2.7279684e-10	0.054588605	0.054588605	0	88767.77	88767.38	-3.8125e-05	664797.6	208898.38	-0.00022299458	208901.05	664796.4	-0.00019069882
0	0.62391996	0.6239171	-1.6133148e-10	0.05444718	0.05444719	0	88746.375	88745.984	-1.96875e-05	664895.4	208589.88	-0.00011380413	208592.55	664894.2	-0.0001063069
0	0.6237674	0.6237646	-7.4799134e-10	0.05430595	0.05430595	0	88724.664	88724.27	-0.00010515625	664994.1	208277.55	-0.00044906497	208280.23	664992.94	-0.000596126
0	0.6236145	0.62361175	-1.1439868e-10	0.054164287	0.054164287	0	88702.94	88702.54	-1.5625e-05	665092.9	207964.72	-0.00023375984	207967.4	665091.75	2.46063e-05
0	0.6234622	0.62345946	-4.0186202e-10	0.05402286	0.05402286	0	88681.266	88680.875	-5.5e-05	665191.2	207653.3	-0.00025529036	207656.02	665190	-0.00030777097
0	0.6233088	0.6233059	-4.0186202e-10	0.053881623	0.053881623	0	88659.42	88659.04	-6.03125e-05	665289.9	207339.61	-0.00038754923	207342.3	665288.75	-0.0002047321
0	0.6231559	0.62315315	-4.3119502e-10	0.053740162	0.053740162	0	88637.7	88637.305	-5.84375e-05	665388.1	207027.42	-0.00023683564	207030.11	665387	-0.00036294293
0	0.6230017	0.6229989	-3.8719553e-10	0.053598683	0.053598683	0	88615.766	88615.36	-5.34375e-05	665486.8	206712.84	-0.00027682088	206715.55	665485.7	-0.00025106114
0	0.62284696	0.6228442	-3.6959574e-10	0.053457264	0.053457264	0	88593.76	88593.36	-4.84375e-05	665585.8	206397.28	-0.00023375984	206400	665584.6	-0.00026201864
0	0.62269264	0.62268984	-1.7599797e-10	0.05331584	0.05331584	0	88571.805	88571.4	-2.75e-05	665684.25	206082.67	-0.00011534203	206085.39	665683.1	-0.00014148622
0	0.62253785	0.62253505	-7.0399186e-11	0.05317437	0.05317437	0	88549.79	88549.38	-7.5e-06	665782.9	205767.44	-8.7659944e-05	205770.16	665781.6	-7.6894685e-07
0	0.6223823	0.6223796	-2.9626324e-10	0.053032946	0.053032946	0	88527.66	88527.266	-4.21875e-05	665881.4	205451.16	-0.00037524608	205453.89	665880.2	-7.497232e-05
0	0.6222257	0.6222229	-3.2559624e-10	0.05289166	0.05289166	0	88505.375	88504.984	-4.71875e-05	665980.6	205132.56	-0.0002706693	205135.31	665979.5	-0.00022145669
0	0.62206984	0.62206703	-1.7013137e-10	0.052750226	0.052750226	0	88483.22	88482.81	-2.46875e-05	666079.25	204815.77	-0.000101500984	204818.48	666078.06	-0.00019127553
0	0.62191343	0.62191063	-3.0212985e-10	0.05260877	0.05260877	0	88460.98	88460.56	-4.9375e-05	666177.94	204498.14	-0.00023375984	204500.88	666176.75	-0.00019761935
0	0.6217557	0.6217529	-2.8746336e-10	0.052467342	0.052467342	0	88438.54	88438.125	-4.1875e-05	666277	204178.25	-6.612943e-05	204181	666275.9	-0.00035063978
0	0.62159866	0.62159586	-2.8453004e-10	0.052325904	0.052325908	0	88416.195	88415.805	-4.03125e-05	666375.75	203859.67	-0.00015994094	203862.4	666374.6	-0.00026893915
0	0.62144107	0.62143826	-1.5839817e-10	0.05218445	0.05218446	0	88393.78	88393.38	-2.375e-05	666474.5	203540.28	-9.688731e-05	203543.06	666473.3	-0.00013264333
0	0.62128294	0.62128013	-2.4346386e-10	0.052042983	0.052042987	0	88371.28	88370.875	-3.125e-05	666573.25	203220	-9.9963094e-05	203222.75	666572.1	-0.00020300197
0	0.62112415	0.62112135	-3.7839562e-10	0.051901728	0.051901728	0	88348.695	88348.305	-4.90625e-05	666672.25	202898.77	-0.00028297244	202901.55	666671.06	-0.00025413695
0	0.6209653	0.62096244	-2.6399696e-10	0.051760297	0.051760294	0	88326.1	88325.7	-3.640625e-05	666771.06	202577.6	-0.00021530512	202580.34	666769.8	-0.00018358606
0	0.6208053	0.6208025	-5.133274e-10	0.051618665	0.051618665	0	88303.35	88302.94	-7.5625e-05	666870.3	202254.38	-0.00044906497	202257.14	666869.1	-0.00028912403
0	0.62064606	0.6206432	-1.5253157e-10	0.05147742	0.05147742	0	88280.695	88280.3	-2e-05	666969	201932.77	-0.00011226624	201935.52	666967.8	-8.189284e-05
0	0.6204855	0.6204826	-6.453259e-11	0.051335983	0.051335983	0	88257.85	88257.45	-9.53125e-06	667068	201608.84	-9.84252e-05	201611.62	667066.9	1.691683e-05
0	0.62032455	0.6203217	-2.8453004e-10	0.051194496	0.051194496	0	88234.97	88234.555	-3.9375e-05	667167.4	201284.19	-0.00026297983	201286.95	667166.2	-0.00013533465
0	0.6201637	0.6201608	-2.3759725e-10	0.051053062	0.051053066	0	88212.07	88211.67	-3.15625e-05	667266.3	200959.98	-0.00010611467	200962.77	667265.2	-0.00022126446
0	0.62000203	0.61999923	-3.5786255e-10	0.050911807	0.050911807	0	88189.09	88188.68	-5.1875e-05	667365.44	200634.52	-0.00025836614	200637.33	667364.3	-0.00023472102
0	0.6198407	0.61983776	-2.5813035e-10	0.050770186	0.050770186	0	88166.14	88165.734	-3.65625e-05	667464.2	200309.95	-0.00018300935	200312.75	667463.06	-0.00017839567
0	0.6196784	0.6196755	-2.4933045e-10	0.050628755	0.050628755	0	88143.055	88142.64	-3.3125e-05	667563.3	199983.58	-0.00022453249	199986.4	667562.1	-0.00010303888
0	0.6195153	0.6195125	-1.6133148e-10	0.050487496	0.050487496	0	88119.86	88119.45	-1.84375e-05	667662.7	199655.9	-0.00017839567	199658.7	667661.56	-3.4602608e-06
0	0.61935294	0.61935014	-2.0533096e-10	0.050346017	0.050346017	0	88096.766	88096.36	-2.875e-05	667761.3	199329.97	-0.0001230315	199332.81	667760.2	-0.00020915354
0	0.6191889	0.619186	-2.8746336e-10	0.05020459	0.050204586	0	88073.42	88073.02	-4.0625e-05	667860.75	199000.8	-0.00025221458	199003.61	667859.6	-0.0001403328
0	0.61902475	0.61902183	-1.4079837e-10	0.050063144	0.050063144	0	88050.07	88049.664	-2e-05	667960.2	198671.52	-0.00013225887	198674.34	667959	-9.1889146e-05
0	0.61886084	0.61885804	-4.2826173e-10	0.0499217	0.049921695	0	88026.78	88026.36	-6.125e-05	668059.06	198343.36	-0.00035679134	198346.19	668057.9	-0.00026451773
0	0.6186958	0.618693	-7.6265785e-11	0.04978028	0.04978028	0	88003.29	88002.89	-9.375e-06	668158.5	198012.89	-2.7682087e-05	198015.72	668157.25	-6.4591535e-05
0	0.61853045	0.61852765	-1.0266548e-10	0.049638826	0.049638826	0	87979.79	87979.375	-1.4375e-05	668257.7	197682.3	-0.000110728346	197685.11	668256.44	-6.1900224e-05
0	0.61836505	0.6183622	-1.2906518e-10	0.04949753	0.04949753	0	87956.24	87955.83	-2.09375e-05	668356.94	197351.28	-0.00013533465	197354.11	668355.75	-9.84252e-05
0	0.6181988	0.61819595	-2.449305e-10	0.049356084	0.049356084	0	87932.6	87932.19	-3.3125e-05	668456.1	197019.38	-0.00028912403	197022.22	668455	-4.978931e-05
0	0.6180327	0.6180297	-3.417294e-10	0.049214657	0.049214657	0	87908.97	87908.57	-4.9921877e-05	668555.3	196687.61	-0.00019069882	196690.44	668554.2	-0.00033852886
0	0.6178663	0.6178635	-7.479914e-11	0.04907321	0.04907321	0	87885.305	87884.89	-8.75e-06	668654.3	196355.66	-8.304626e-05	196358.52	668653.1	-6.151575e-06
0	0.61769813	0.6176952	-1.6279812e-10	0.048931766	0.048931766	0	87861.38	87860.97	-2.375e-05	668754.1	196020.33	-0.00010611467	196023.2	668752.94	-0.00015821081
0	0.61753005	0.6175271	-5.250606e-10	0.04879036	0.04879036	0	87837.47	87837.06	-7.71875e-05	668853.44	195685.64	-0.0003444882	195688.52	668852.3	-0.0004382997
0	0.61736214	0.61735934	-1.9359776e-10	0.048648857	0.048648857	0	87813.59	87813.195	-2.5625e-05	668952.8	195351.38	-0.00013533465	195354.23	668951.6	-0.00013533465
0	0.6171945	0.61719155	-3.76929e-10	0.04850761	0.04850761	0	87789.734	87789.336	-5.125e-05	669051.7	195017.67	-0.00033064713	195020.55	669050.44	-0.00019300566
0	0.61702514	0.61702216	2.9332994e-12	0.048366144	0.048366148	0	87765.65	87765.234	-3.125e-07	669151.3	194681	0	194683.89	669150.06	9.227362e-06
0	0.61685556	0.6168527	-4.546614e-11	0.048224546	0.04822455	0	87741.53	87741.125	-6.25e-06	669250.6	194344.31	-1.5378937e-06	194347.19	669249.44	-4.3061023e-05
0	0.6166859	0.61668307	-2.2586406e-10	0.048083294	0.048083294	0	87717.414	87717	-3.625e-05	669349.9	194007.6	-0.00011841782	194010.48	669348.6	-0.00021799644
0	0.61651564	0.6165128	-1.7159801e-10	0.04794183	0.04794183	0	87693.19	87692.78	-2.40625e-05	669449.25	193669.81	-0.00016609252	193672.72	669448.06	-6.555272e-05
0	0.61634433	0.6163415	-2.4346386e-10	0.047800396	0.047800392	0	87668.82	87668.4	-3.4375e-05	669548.9	193330.22	-0.00010765256	193333.14	669547.75	-0.00022145669
0	0.6161733	0.61617047	5.279939e-11	0.047658946	0.047658946	0	87644.5	87644.08	8.4375e-06	669648.25	192991.55	0.00015378937	192994.47	669647.1	-8.131613e-05
0	0.61600155	0.6159986	-2.566637e-10	0.047517676	0.047517676	0	87620.06	87619.65	-3.234375e-05	669747.75	192651.48	-0.00028912403	192654.39	669746.56	-7.38189e-05
0	0.6158275	0.6158245	-7.6265785e-11	0.04737623	0.047376227	0	87595.3	87594.88	-7.1875e-06	669848.1	192307.45	-7.38189e-05	192310.34	669847	0
0	0.6156569	0.61565393	-3.329295e-10	0.047234632	0.047234632	0	87571.04	87570.62	-4.84375e-05	669946.6	191970.05	-0.00042445867	191972.97	669945.5	-3.690945e-05
0	0.6154839	0.61548096	-2.507971e-10	0.047093365	0.047093365	0	87546.43	87546.01	-3.6875e-05	670046.2	191628.33	-0.00016916831	191631.23	670045	-0.0001722441
0	0.61531067	0.61530775	-2.8746336e-10	0.046951856	0.046951856	0	87521.79	87521.375	-4.171875e-05	670145.5	191286.48	-0.00028912403	191289.42	670144.3	-0.0001236082
0	0.61513627	0.6151333	-5.118608e-10	0.04681048	0.04681048	0	87496.984	87496.56	-7.71875e-05	670245.2	190942.67	-0.00045521653	190945.6	670244	-0.0002952756
0	0.6149613	0.6149584	-6.790588e-10	0.046669014	0.046669014	0	87472.09	87471.68	-9.53125e-05	670345	190597.94	-0.0005567175	190600.86	670343.9	-0.00043061023
0	0.614788	0.61478513	-2.0533096e-10	0.046527762	0.046527762	0	87447.44	87447.03	-2.9375e-05	670443.8	190256.5	-0.00022145669	190259.42	670442.6	-3.40259e-05
0	0.61461276	0.6146099	-1.7306467e-10	0.04638618	0.04638618	0	87422.516	87422.09	-2.375e-05	670543.25	189911.7	-0.00018454724	189914.66	670542.1	-7.38189e-05
0	0.6144366	0.6144337	-2.1559751e-10	0.04624471	0.04624471	0	87397.48	87397.055	-2.875e-05	670643.06	189565.4	-0.00021222934	189568.33	670641.9	-0.00010457677
0	0.6142608	0.6142578	-1.2026528e-10	0.04610345	0.04610345	0	87372.45	87372.04	-1.640625e-05	670742.44	189219.73	-0.0001230315	189222.67	670741.25	-6.497601e-05
0	0.61408395	0.61408097	-3.446627e-10	0.045961928	0.045961928	0	87347.29	87346.88	-4.84375e-05	670842.1	188872.42	-0.00033833663	188875.4	670841.06	-0.00013533465
0	0.6139064	0.61390346	-3.3439615e-10	0.04582056	0.04582056	0	87322.04	87321.63	-4.53125e-05	670941.6	188524.27	-0.00028297244	188527.2	670940.5	-0.00018762304
0	0.61372966	0.6137267	4.546614e-11	0.0456791	0.045679096	0	87296.9	87296.49	7.5e-06	671040.94	188177.58	-1.8454724e-05	188180.53	671039.9	6.151575e-05
0	0.61355126	0.61354834	1.7599797e-11	0.04553762	0.04553762	0	87271.52	87271.12	6.5625e-06	671140.8	187828.02	-1.230315e-05	187830.98	671139.6	7.38189e-05
0	0.6133729	0.61336994	-1.1586533e-10	0.045396265	0.045396265	0	87246.164	87245.74	-1.546875e-05	671240.2	187478.92	-9.227362e-05	187481.89	671239	-7.38189e-05
0	0.61319417	0.6131912	-3.8426223e-10	0.04525479	0.04525479	0	87220.734	87220.305	-5.484375e-05	671339.7	187129.1	-0.000246063	187132.08	671338.6	-0.0003141148
0	0.6130145	0.61301166	-3.4759598e-10	0.04511347	0.04511347	0	87195.195	87194.78	-4.875e-05	671439.25	186778.2	-0.0003198819	186781.17	671438.1	-0.0001722441
0	0.6128353	0.6128323	-3.8426223e-10	0.04497199	0.044972	0	87169.69	87169.27	-5.59375e-05	671538.6	186427.8	-0.00030296505	186430.78	671537.44	-0.00023375984
0	0.6126546	0.61265165	-4.9719423e-10	0.04483065	0.04483065	0	87143.984	87143.58	-6.71875e-05	671638.4	186075.16	-0.0003444882	186078.16	671637.2	-0.00035602238
0	0.612474	0.61247104	-2.1413087e-10	0.044689175	0.044689175	0	87118.305	87117.88	-3.25e-05	671737.75	185722.9	-0.00011687992	185725.89	671736.6	-0.00015994094
0	0.61229306	0.61229	-1.6133148e-10	0.044547684	0.044547684	0	87092.56	87092.14	-2.1875e-05	671837.2	185370.1	-0.0001968504	185373.1	671835.94	-3.0757874e-05