# t (s)	mx ()	my ()	mz ()	B_extx (T)	B_exty (T)	B_extz (T)	m_fullx (A/m)	m_fully (A/m)	m_fullz (A/m)	m_full.region1x (A/m)	m_full.region1y (A/m)	m_full.region1z (A/m)	m_full.region2x (A/m)	m_full.region2y (A/m)	m_full.region2z (A/m)
0	0.6537804	0.6537793	-5.52269e-10	0.070710756	0.070710756	0	112115.43	112115.23	-8.650519e-05	617096.9	298194.78	-0.00033898305	298195.75	617096.2	-0.00041666668
0	0.65369636	0.65369546	-3.6368936e-10	0.070569135	0.070569135	0	112101.016	112100.86	-7.612457e-05	617168.5	298005.62	-0.00016949153	298006.4	617168.06	-0.00033898305
0	0.6536074	0.65360653	-5.65739e-10	0.07042789	0.07042789	0	112085.766	112085.62	-9.6885815e-05	617245.75	297804.03	-0.00037782485	297804.72	617245.2	-0.00045903955
0	0.6535191	0.65351814	-2.1551962e-10	0.07028644	0.07028644	0	112070.61	112070.45	-3.8062284e-05	617322.56	297603.3	-0.00016949153	297604.12	617322.1	-0.00019774011
0	0.653429	0.65342814	-5.3879906e-10	0.07014497	0.07014497	0	112055.14	112054.99	-8.99654e-05	617400.44	297399.25	-0.0004237288	297400	617400	-0.00031073447
0	0.6533408	0.65334	-3.5021938e-10	0.07000352	0.07000352	0	112040.04	112039.88	-6.920415e-05	617477.44	297199	-0.00022775424	297199.72	617477	-0.0002683616
0	0.65325105	0.6532502	-6.734988e-11	0.06986227	0.06986227	0	112024.63	112024.484	-2.0761247e-05	617554.56	296996.16	-2.8248587e-05	296996.88	617554.06	-7.768362e-05
0	0.6531608	0.6531599	-1.3469977e-10	0.069720656	0.069720656	0	112009.16	112009.02	-2.768166e-05	617632.94	296791.4	-5.6497174e-05	296792.16	617632.5	-0.00014830509
0	0.65307134	0.6530704	-3.7715933e-10	0.06957922	0.06957922	0	111993.82	111993.664	-6.228374e-05	617710.7	296588.38	-0.0003125	296589.12	617710.2	-0.00020480226
0	0.6529812	0.6529803	-3.2327943e-10	0.06943796	0.06943795	0	111978.37	111978.22	-6.228374e-05	617788.25	296384.75	-0.00016949153	296385.53	617787.75	-0.0003177966
0	0.65289104	0.6528902	-2.4245958e-10	0.06929647	0.06929648	0	111962.91	111962.76	-4.1522493e-05	617865.8	296180.9	-0.00016949153	296181.66	617865.3	-0.0001341808
0	0.65280056	0.6527997	-3.2327943e-10	0.069155045	0.06915505	0	111947.39	111947.24	-6.228374e-05	617943.44	295976.66	-0.00029131357	295977.44	617942.94	-0.00016949153
0	0.6527093	0.6527085	-3.906293e-10	0.0690136	0.0690136	0	111931.75	111931.59	-6.228374e-05	618021.56	295770.72	-0.0002542373	295771.53	618021	-0.0003742938
0	0.65261924	0.6526182	-4.445092e-10	0.06887216	0.06887216	0	111916.28	111916.13	-7.958477e-05	618099.1	295566.97	-0.0004237288	295567.72	618098.7	-0.0002259887
0	0.65252715	0.65252614	-1.8857967e-10	0.068730734	0.068730734	0	111900.49	111900.336	-3.4602075e-05	618177.3	295359.84	-0.0002065678	295360.62	618176.75	-9.8870056e-05
0	0.6524364	0.6524355	-1.3469977e-10	0.068589285	0.068589285	0	111884.94	111884.78	-3.4602075e-05	618255.44	295154.75	-0.00019774011	295155.5	618254.94	-4.237288e-05
0	0.65234494	0.6523441	-9.428983e-11	0.06844799	0.06844799	0	111869.26	111869.11	-2.0761247e-05	618333.4	294948.78	-0.00011299435	294949.56	618332.94	-5.6497174e-05
0	0.65225327	0.6522524	-5.9267896e-10	0.06830654	0.06830654	0	111853.54	111853.38	-0.00010034602	618411.4	294742.5	-0.00045550847	294743.28	618410.8	-0.0003884181
0	0.65216154	0.65216064	-2.1551962e-10	0.06816512	0.06816512	0	111837.805	111837.65	-4.1522493e-05	618489.25	294536.12	-0.00028248588	294536.9	618488.75	-0.0001059322
0	0.65206903	0.65206814	-5.3879904e-11	0.068023674	0.068023674	0	111821.96	111821.79	-2.0761247e-05	618567.06	294328.88	-2.8248587e-05	294329.66	618566.56	-8.474576e-05
0	0.6519762	0.6519754	-8.081986e-11	0.06788223	0.06788223	0	111806.03	111805.89	-1.384083e-05	618645.94	294120.1	-9.180791e-05	294120.88	618645.5	-7.768362e-05
0	0.65188426	0.6518833	-4.0409928e-10	0.06774082	0.06774082	0	111790.26	111790.09	-7.266436e-05	618724.3	293912.88	-0.00031073447	293913.62	618723.8	-0.00032485876
0	0.65179193	0.651791	-2.1551962e-10	0.06759933	0.06759932	0	111774.42	111774.266	-4.1522493e-05	618802.06	293705.88	-0.00028248588	293706.62	618801.44	-2.8248587e-05
0	0.6516979	0.65169704	-2.6939953e-10	0.06745807	0.06745807	0	111758.3	111758.14	-4.1522493e-05	618880.75	293495.5	-0.0002118644	293496.28	618880.25	-0.0001341808
0	0.6516054	0.6516045	-6.4655886e-10	0.067316614	0.06731661	0	111742.445	111742.29	-0.00011764706	618959.4	293287.5	-0.00039548022	293288.28	618958.75	-0.0005084746
0	0.65151197	0.6515111	-4.3103923e-10	0.06717501	0.06717501	0	111726.4	111726.25	-7.612457e-05	619037.6	293078.34	-0.00033898305	293079.12	619037.1	-0.00026129943
0	0.65141875	0.65141785	-1.3469977e-10	0.06703377	0.06703377	0	111710.43	111710.28	-2.768166e-05	619115.75	292869.75	-0.00012535311	292870.53	619115.2	-3.5310735e-05
0	0.6513242	0.6513233	-4.3103923e-10	0.0668923	0.06689231	0	111694.22	111694.055	-8.650519e-05	619194.4	292658.7	-0.0004237288	292659.53	619193.94	-0.0002683616
0	0.65123063	0.6512297	-7.5431866e-10	0.066750854	0.066750854	0	111678.18	111678.02	-0.0001349481	619272.94	292449.3	-0.0005084746	292450.1	619272.4	-0.0006002825
0	0.6511361	0.65113527	-3.7715933e-10	0.06660941	0.066609405	0	111661.95	111661.8	-6.5743945e-05	619351.56	292238.28	-0.00031073447	292239.06	619351	-0.00024011299
0	0.6510415	0.6510405	-4.7144916e-10	0.06646814	0.06646814	0	111645.734	111645.57	-8.3044986e-05	619430.6	292026.7	-0.00036723164	292027.47	619430.1	-0.00027542372
0	0.6509476	0.6509467	1.3469976e-11	0.06632654	0.06632654	0	111629.63	111629.47	0	619509.3	291816.5	0	291817.3	619508.75	-2.8248587e-05
0	0.6508517	0.6508507	-2.6939953e-10	0.066185094	0.0661851	0	111613.19	111613.02	-5.536332e-05	619588.5	291603.1	-0.00016772599	291603.9	619588	-0.00019067797
0	0.65075773	0.65075684	1.7510969e-10	0.06604383	0.06604383	0	111597.08	111596.914	3.4602075e-05	619666.8	291393.16	5.6497174e-05	291393.97	619666.4	0.00020480226
0	0.6506618	0.6506608	-2.1551962e-10	0.06590232	0.06590232	0	111580.61	111580.46	-4.49827e-05	619745.9	291179.78	-0.0002259887	291180.6	619745.4	-0.0001059322
0	0.65056694	0.650566	-1.3469977e-10	0.06576094	0.06576094	0	111564.34	111564.19	-3.4602075e-05	619824.7	290968.2	-0.00016066384	290969	619824.2	-9.8870056e-05
0	0.6504703	0.65046936	-2.6939953e-10	0.06561947	0.06561947	0	111547.79	111547.625	-4.8442907e-05	619903.75	290753.88	-0.0002259887	290754.7	619903.25	-0.00017655367
0	0.65037465	0.65037376	-4.0409928e-10	0.06547822	0.06547822	0	111531.39	111531.22	-6.5743945e-05	619983.25	290540.56	-0.00028248588	290541.3	619982.7	-0.00029661017
0	0.6502789	0.650278	-5.65739e-10	0.06533663	0.06533663	0	111514.945	111514.805	-8.3044986e-05	620061.8	290327.9	-0.0004237288	290328.7	620061.25	-0.000289548
0	0.6501816	0.65018064	-3.5021938e-10	0.06519517	0.06519518	0	111498.266	111498.11	-6.920415e-05	620141.5	290111.88	-0.00019774011	290112.7	620141.06	-0.00034604518
0	0.65008605	0.65008515	5.3879904e-11	0.0650539	0.06505391	0	111481.89	111481.73	1.0380623e-05	620220.4	289899.3	2.8248587e-05	289900.06	620219.9	9.8870056e-05
0	0.64998865	0.6499877	-3.5021938e-10	0.06491239	0.06491239	0	111465.19	111465.016	-6.5743945e-05	620299.3	289684.03	-0.00030543786	289684.8	620298.8	-0.00019774011
0	0.64989156	0.64989066	-5.3879906e-10	0.06477102	0.06477102	0	111448.53	111448.375	-8.99654e-05	620379.2	289468.16	-0.00036723164	289468.97	620378.75	-0.00038135593
0	0.64979506	0.64979416	-2.6939952e-11	0.06462957	0.06462957	0	111431.984	111431.82	0	620458.2	289254.1	-0.00014124294	289254.88	620457.6	0.00012711865
0	0.64969736	0.6496964	-1.6163972e-10	0.06448808	0.06448809	0	111415.23	111415.07	-2.4221454e-05	620537.7	289037.8	-8.474576e-05	289038.6	620537.2	-8.474576e-05
0	0.6495993	0.6495984	-2.6939953e-10	0.064346716	0.06434671	0	111398.414	111398.25	-3.8062284e-05	620617.2	288821.06	-0.00019774011	288821.88	620616.7	-0.00012711865
0	0.649502	0.6495011	-2.4245958e-10	0.064205244	0.064205244	0	111381.73	111381.56	-4.49827e-05	620696.3	288605.7	-0.00016949153	288606.47	620695.8	-0.0002259887
0	0.64940315	0.64940214	-3.5021938e-10	0.064063944	0.064063944	0	111364.766	111364.61	-5.536332e-05	620776.44	288387.12	-9.8870056e-05	288387.94	620775.94	-0.00036723164
0	0.6493053	0.6493043	-3.7715933e-10	0.06392247	0.06392247	0	111347.984	111347.83	-6.5743945e-05	620855.8	288170.7	-0.00028248588	288171.5	620855.3	-0.00016242938
0	0.64920616	0.6492052	-3.2327943e-10	0.063781105	0.063781105	0	111331.01	111330.836	-5.882353e-05	620935.1	287952.72	-0.0002259887	287953.53	620934.6	-0.00024717514
0	0.6491066	0.6491057	-3.2327943e-10	0.06363964	0.06363964	0	111313.94	111313.766	-5.1903113e-05	621015.5	287733.1	-0.00024717514	287733.88	621014.94	-0.00016949153
0	0.64900845	0.64900744	8.081986e-11	0.063498154	0.063498154	0	111297.09	111296.92	1.384083e-05	621095.25	287515.78	0.00011299435	287516.6	621094.6	3.5310735e-05
0	0.6489093	0.6489083	-4.0409928e-10	0.063356794	0.0633568	0	111280.09	111279.914	-5.882353e-05	621174.75	287297.4	-0.0002259887	287298.2	621174.25	-0.00024717514
0	0.6488096	0.6488086	-5.65739e-10	0.06321528	0.06321528	0	111262.984	111262.81	-0.00010034602	621254.1	287078.44	-0.00054378534	287079.28	621253.56	-0.0002542373
0	0.6487097	0.6487087	-1.3469977e-10	0.063074015	0.06307401	0	111245.86	111245.695	-1.384083e-05	621334.2	286858.53	0	286859.38	621333.7	-0.000120056495
0	0.64860976	0.6486088	-2.6939952e-11	0.06293254	0.06293254	0	111228.72	111228.555	-3.4602076e-06	621414.8	286638.06	-5.6497174e-05	286638.88	621414.3	7.768362e-05
0	0.64851004	0.6485091	-1.3469977e-10	0.062790975	0.062790975	0	111211.62	111211.45	-2.4221454e-05	621494.06	286419.16	-8.8276836e-05	286420	621493.56	-0.0001059322
0	0.64840883	0.6484078	-1.3469977e-10	0.062649705	0.06264971	0	111194.266	111194.1	-1.7301038e-05	621574.25	286197.3	-5.6497174e-05	286198.2	621573.7	-7.768362e-05
0	0.6483086	0.64830756	-2.1551962e-10	0.06250823	0.06250823	0	111177.06	111176.9	-2.768166e-05	621654.06	285977.06	-0.0002542373	285977.88	621653.56	-8.474576e-05
0	0.64820814	0.6482071	-5.65739e-10	0.062366836	0.062366836	0	111159.84	111159.68	-8.99654e-05	621734.06	285756.5	-0.00044138418	285757.34	621733.5	-0.0003742938
0	0.6481066	0.6481055	-3.906293e-10	0.062225346	0.062225346	0	111142.42	111142.25	-7.266436e-05	621814.6	285533.75	-0.00039548022	285534.6	621814.06	-0.0002118644
0	0.64800555	0.6480046	-2.6939952e-11	0.062084086	0.062084086	0	111125.1	111124.94	-1.0380623e-05	621895.06	285311.97	-0.00011299435	285312.78	621894.44	7.062147e-06
0	0.6479033	0.64790237	-1.0775981e-10	0.061942536	0.061942536	0	111107.57	111107.4	-1.0380623e-05	621975.5	285088.25	-2.118644e-05	285089.1	621974.94	-0.00011299435
0	0.6478026	0.64780164	-5.118591e-10	0.061801046	0.061801046	0	111090.31	111090.14	-9.6885815e-05	622055.2	284867.66	-0.00039548022	284868.5	622054.7	-0.0003742938
0	0.6477001	0.6476991	-2.828695e-10	0.06165979	0.061659783	0	111072.72	111072.55	-4.8442907e-05	622135.94	284643.3	-0.00014124294	284644.16	622135.44	-0.00024011299
0	0.64759743	0.6475964	-2.6939953e-10	0.061518256	0.061518256	0	111055.11	111054.94	-4.49827e-05	622216.7	284418.84	-0.00016949153	284419.7	622216.1	-0.0002542373
0	0.64749515	0.6474942	-4.8491916e-10	0.061376907	0.061376907	0	111037.58	111037.414	-7.958477e-05	622297.1	284195.28	-0.0002259887	284196.1	622296.56	-0.00034604518
0	0.64739287	0.6473918	-1.0775981e-10	0.061235435	0.061235435	0	111020.016	111019.85	-1.7301038e-05	622377	283972.06	-0.00016949153	283972.9	622376.56	5.6497174e-05
0	0.6472889	0.6472879	-1.6163972e-10	0.061093953	0.061093953	0	111002.195	111002.02	-4.1522493e-05	622457.8	283745.72	-0.00015271893	283746.56	622457.3	-0.00017655367
0	0.6471865	0.6471856	-5.3879906e-10	0.06095263	0.06095263	0	110984.664	110984.48	-9.6885815e-05	622538.25	283522.12	-0.0005084746	283522.94	622537.7	-0.00031073447
0	0.64708173	0.6470808	1.6163972e-10	0.060811136	0.060811136	0	110966.695	110966.52	2.768166e-05	622619.3	283294.4	-2.8248587e-05	283295.25	622618.8	0.0002259887
0	0.64697933	0.6469784	-1.4816974e-10	0.060669806	0.060669806	0	110949.125	110948.96	-2.4221454e-05	622699.75	283070.56	-8.121469e-05	283071.4	622699.2	-0.00014830509
0	0.6468747	0.6468737	-3.5021938e-10	0.060528323	0.060528323	0	110931.18	110931.01	-5.882353e-05	622780.4	282843.4	-0.0002259887	282844.25	622779.8	-0.00024011299
0	0.6467713	0.64677036	-8.081986e-11	0.06038699	0.06038699	0	110913.46	110913.27	-2.4221454e-05	622860.6	282618.38	-5.6497174e-05	282619.25	622860.06	-5.6497174e-05
0	0.64666694	0.64666593	5.3879904e-11	0.060245514	0.060245514	0	110895.55	110895.375	-3.4602076e-06	622941.56	282391.34	-2.4717514e-05	282392.2	622941	7.768362e-05
0	0.64656186	0.64656085	0	0.060104024	0.060104024	0	110877.52	110877.36	0	623022.9	282162.94	0	282163.78	623022.2	4.9435028e-05
0	0.6464564	0.64645535	-1.8857967e-10	0.0599627	0.0599627	0	110859.445	110859.27	-3.114187e-05	623103.6	281934.56	-8.474576e-05	281935.44	623103	-0.00020480226
0	0.64635134	0.6463504	-2.6939953e-10	0.05982116	0.05982116	0	110841.44	110841.26	-5.1903113e-05	623184.6	281706.4	-0.00020127119	281707.25	623184.1	-0.0002259887
0	0.6462468	0.6462458	-2.6939953e-10	0.059679892	0.059679892	0	110823.5	110823.33	-4.1522493e-05	623265.7	281478.97	-0.0002259887	281479.84	623265.1	-0.00016949153
0	0.6461405	0.64613944	-3.2327943e-10	0.059538387	0.059538387	0	110805.266	110805.09	-4.8442907e-05	623346.4	281249.44	-0.00028248588	281250.28	623345.8	-0.00019774011
0	0.64603496	0.64603394	-4.5797918e-10	0.059396863	0.059396856	0	110787.164	110786.984	-8.3044986e-05	623427.94	281020.12	-0.00033898305	281021	623427.3	-0.00038135593
0	0.6459288	0.64592785	0	0.05925559	0.059255596	0	110768.97	110768.805	-1.0380623e-05	623509.3	280790.2	-2.8248587e-05	280791.03	623508.8	-2.8248587e-05
0	0.64582264	0.64582163	-3.2327943e-10	0.059114084	0.059114084	0	110750.76	110750.58	-6.920415e-05	623590.44	280560.44	-0.00019774011	280561.3	623589.9	-0.00026129943
0	0.6457163	0.6457153	0	0.05897273	0.05897273	0	110732.52	110732.34	-6.920415e-06	623671.25	280330.7	2.8248587e-05	280331.56	623670.7	-9.8870056e-05
0	0.6456091	0.64560795	-2.0204964e-10	0.05883124	0.05883124	0	110714.125	110713.95	-3.114187e-05	623752.56	280099.22	-5.6497174e-05	280100.06	623751.94	-0.00018361582
0	0.64550257	0.64550155	-1.7510969e-10	0.058689952	0.05868996	0	110695.88	110695.7	-2.768166e-05	623833.5	279869.22	-0.00028248588	279870.1	623833	-4.9435028e-05
0	0.6453944	0.6453933	-1.3469977e-10	0.058548428	0.058548428	0	110677.33	110677.15	-2.0761247e-05	623915.7	279635.62	-0.0001394774	279636.5	623915.1	-2.8248587e-05
0	0.6452875	0.64528644	-3.2327943e-10	0.058406938	0.058406938	0	110658.99	110658.805	-5.536332e-05	623996.6	279404.94	-0.00016949153	279405.84	623996.1	-0.00027542372
0	0.6451785	0.6451775	2.6939952e-11	0.05826566	0.05826566	0	110640.3	110640.13	1.384083e-05	624078.44	279170.6	-2.8248587e-05	279171.47	624077.8	2.118644e-05
0	0.6450716	0.64507055	-5.3879906e-10	0.058124106	0.058124106	0	110621.96	110621.78	-9.6885815e-05	624159.5	278939.88	-0.00038135593	278940.78	624158.8	-0.00039548022
0	0.6449625	0.6449615	-4.445092e-10	0.057982814	0.057982814	0	110603.25	110603.086	-7.612457e-05	624241.2	278705.6	-0.0002542373	278706.47	624240.44	-0.00036016948
0	0.64485425	0.6448532	-2.6939953e-10	0.057841312	0.057841305	0	110584.69	110584.5	-4.49827e-05	624322.94	278472.1	-0.00011299435	278472.97	624322.3	-0.0003036723
0	0.64474535	0.6447443	-5.65739e-10	0.057699807	0.057699807	0	110566.016	110565.836	-0.00010034602	624404.75	278237.88	-0.0004908192	278238.75	624404.1	-0.00027542372
0	0.6446365	0.64463544	-1.3469977e-10	0.057558525	0.057558525	0	110547.35	110547.18	-2.4221454e-05	624485.9	278004.34	-0.00011299435	278005.28	624485.3	-0.000120056495
0	0.64452636	0.6445253	2.6939952e-11	0.05741701	0.05741701	0	110528.47	110528.29	6.920415e-06	624567.56	277768.38	2.8248587e-05	277769.28	624567.1	0
0	0.6444168	0.64441586	-4.0409928e-10	0.057275683	0.057275683	0	110509.68	110509.516	-7.612457e-05	624649.25	277533.44	-0.00032132768	277534.38	624648.7	-0.00028248588
0	0.6443064	0.64430535	-2.6939953e-10	0.057134178	0.057134178	0	110490.75	110490.58	-4.1522493e-05	624731.9	277296.25	-0.0002542373	277297.16	624731.3	-7.062147e-05
0	0.64419734	0.64419633	-1.0775981e-10	0.056992896	0.056992896	0	110472.06	110471.87	-2.4221454e-05	624813.3	277062.2	-0.0002542373	277063.03	624812.7	2.8248587e-05
0	0.64408743	0.64408636	-1.0775981e-10	0.056851387	0.056851387	0	110453.195	110453.016	-2.0761247e-05	624894.8	276826.62	-0.00010240113	276827.56	624894.3	-5.6497174e-05
0	0.64397633	0.64397526	-2.5592956e-10	0.056709882	0.056709882	0	110434.13	110433.96	-3.8062284e-05	624977.2	276588.75	-0.00011299435	276589.7	624976.56	-0.00017655367
0	0.6438653	0.6438642	-1.8857967e-10	0.056568604	0.056568604	0	110415.1	110414.914	-2.0761247e-05	625059.44	276351.06	-4.237288e-05	276351.97	625058.8	-0.00019067797
0	0.64375454	0.6437534	-4.1756926e-10	0.05642703	0.05642703	0	110396.11	110395.93	-6.920415e-05	625141.25	276114.25	-0.00022422316	276115.16	625140.6	-0.00028248588
0	0.6436435	0.6436424	-4.983891e-10	0.056285758	0.056285758	0	110377.06	110376.88	-7.958477e-05	625222.44	275877.5	-0.00039548022	275878.4	625221.9	-0.00027542372
0	0.643531	0.64352995	-4.8491916e-10	0.05614425	0.05614425	0	110357.77	110357.59	-8.650519e-05	625305.2	275637.3	-0.00031073447	275638.25	625304.56	-0.00035310735
0	0.64341944	0.64341843	-2.828695e-10	0.056002736	0.056002736	0	110338.64	110338.46	-4.1522493e-05	625387.56	275398.7	-0.000121822035	275399.62	625387	-0.000289548
0	0.64330757	0.6433065	-4.3103923e-10	0.05586146	0.055861462	0	110319.46	110319.27	-7.612457e-05	625469.5	275160.22	-0.0002259887	275161.16	625468.8	-0.00038135593
0	0.6431946	0.64319366	-4.5797918e-10	0.055719953	0.055719953	0	110300.09	110299.91	-7.266436e-05	625551.4	274920.28	-0.00036723164	274921.2	625550.75	-0.00019774011
0	0.6430825	0.6430815	-5.65739e-10	0.05557868	0.05557868	0	110280.86	110280.68	-9.34256e-05	625633.44	274681.2	-0.0005367232	274682.1	625632.9	-0.00028248588
0	0.64296895	0.6429678	0	0.05543712	0.05543712	0	110261.38	110261.2	6.920415e-06	625716.2	274439.34	-5.6497174e-05	274440.28	625715.6	0.00011299435
0	0.64285636	0.6428553	-2.9633948e-10	0.05529583	0.05529583	0	110242.08	110241.88	-4.8442907e-05	625798.25	274199.66	-0.00031073447	274200.6	625797.6	-9.8870056e-05
0	0.6427424	0.6427412	-2.1551962e-10	0.055154327	0.055154327	0	110222.53	110222.336	-3.8062284e-05	625881.25	273957.12	-0.00013771186	273958.03	625880.7	-0.00014124294
0	0.6426291	0.642628	-4.3103923e-10	0.055012815	0.055012815	0	110203.11	110202.914	-6.228374e-05	625963.25	273716.53	-0.00033898305	273717.47	625962.6	-0.00015536723
0	0.6425147	0.6425137	-3.7715933e-10	0.054871533	0.054871533	0	110183.49	110183.32	-7.266436e-05	626045.8	273473.88	-0.0002542373	273474.78	626045.25	-0.000289548
0	0.64240056	0.64239955	-1.0775981e-10	0.05473003	0.05473003	0	110163.92	110163.73	-1.384083e-05	626128.06	273231.8	-9.180791e-05	273232.75	626127.4	7.062147e-06
0	0.6422857	0.64228463	0	0.054588694	0.054588694	0	110144.234	110144.04	3.4602076e-06	626210.4	272988.75	2.8248587e-05	272989.7	626209.75	-1.4124294e-05
0	0.6421708	0.64216965	-2.4245958e-10	0.05444718	0.05444718	0	110124.51	110124.33	-3.4602075e-05	626293.25	272744.88	-0.00011299435	272745.88	626292.6	-0.00016949153
0	0.6420563	0.6420552	-1.3469977e-10	0.054305915	0.054305915	0	110104.875	110104.68	-2.4221454e-05	626375.75	272502.12	-4.9435028e-05	272503.06	626375.1	-0.00018361582
0	0.6419403	0.64193934	-5.9267896e-10	0.054164402	0.054164402	0	110084.99	110084.81	-0.00010726644	626458.56	272256.97	-0.00036723164	272257.9	626458	-0.00048022598
0	0.64182466	0.6418236	-2.4245958e-10	0.054022882	0.054022882	0	110065.15	110064.96	-4.1522493e-05	626541.8	272011.75	-0.00016949153	272012.7	626541.2	-0.00012711865
0	0.6417091	0.6417081	-6.4655886e-10	0.053881615	0.053881615	0	110045.34	110045.16	-0.00010726644	626624.1	271767.7	-0.00046433616	271768.62	626623.56	-0.00044491526
0	0.64159256	0.6415914	-8.081986e-11	0.05374005	0.05374005	0	110025.36	110025.164	-1.7301038e-05	626707.1	271521.53	-0.00014124294	271522.44	626706.5	5.6497174e-05
0	0.64147687	0.6414758	-3.5021938e-10	0.053598765	0.053598765	0	110005.52	110005.33	-5.1903113e-05	626789.7	271277.03	-0.00019774011	271278	626789.06	-0.00026129943
0	0.64135927	0.64135814	-4.3103923e-10	0.053457264	0.053457264	0	109985.336	109985.15	-6.5743945e-05	626873.3	271028.72	-0.00029484462	271029.7	626872.75	-0.00026129943
0	0.64124286	0.6412418	-4.0409928e-10	0.05331577	0.05331577	0	109965.39	109965.2	-6.5743945e-05	626955.7	270783.38	-0.00033898305	270784.38	626955.1	-0.0002259887
0	0.6411251	0.641124	-1.6163972e-10	0.053174473	0.053174473	0	109945.19	109944.984	-2.4221454e-05	627038.94	270535.25	-0.00016949153	270536.22	627038.3	-5.6497174e-05
0	0.64100844	0.64100724	-4.8491916e-10	0.053032972	0.053032972	0	109925.18	109925	-8.650519e-05	627121.3	270289.5	-0.00027807202	270290.44	627120.75	-0.00033898305
0	0.6408905	0.6408894	-7.812586e-10	0.052891634	0.052891634	0	109904.945	109904.766	-0.00014532873	627203.9	270041.75	-0.00048022598	270042.7	627203.4	-0.00064265536
0	0.64077216	0.64077103	-3.7715933e-10	0.05275012	0.05275012	0	109884.66	109884.47	-6.228374e-05	627287.7	269792.3	-0.00028248588	269793.28	627287.06	-0.00024011299
0	0.64065397	0.64065284	-4.5797918e-10	0.052608836	0.052608836	0	109864.4	109864.22	-7.612457e-05	627370.4	269544.25	-0.00032132768	269545.22	627369.8	-0.0003177966
0	0.6405347	0.64053345	-2.6939953e-10	0.052467342	0.052467342	0	109843.93	109843.75	-4.49827e-05	627454.06	269293.53	-0.00016949153	269294.47	627453.4	-0.0002118644
0	0.64041656	0.64041543	-1.6163972e-10	0.052325826	0.052325826	0	109823.68	109823.5	-2.0761247e-05	627536.8	269045.4	-5.6497174e-05	269046.34	627536.25	-0.00016949153
0	0.64029735	0.64029616	-6.4655886e-10	0.05218455	0.05218455	0	109803.22	109803.05	-0.00011764706	627620.2	268795.12	-0.0004157839	268796.06	627619.56	-0.000529661
0	0.64017737	0.6401763	-5.118591e-10	0.05204299	0.05204299	0	109782.68	109782.48	-8.99654e-05	627703.56	268543.94	-0.00039548022	268544.9	627702.9	-0.00029661017
0	0.6400579	0.64005685	-4.3103923e-10	0.051901694	0.051901694	0	109762.19	109762	-6.920415e-05	627786.4	268293.75	-0.00033898305	268294.72	627785.8	-0.00023305084
0	0.63993734	0.63993615	-3.7715933e-10	0.051760197	0.051760197	0	109741.49	109741.3	-6.920415e-05	627870.4	268040.84	-0.0002930791	268041.84	627869.75	-0.0002683616
0	0.6398176	0.6398164	-5.118591e-10	0.051618703	0.051618703	0	109720.96	109720.76	-7.958477e-05	627953.44	267790.2	-0.00028248588	267791.16	627952.8	-0.00039548022
0	0.63969696	0.63969576	-4.0409928e-10	0.05147742	0.05147742	0	109700.28	109700.09	-7.612457e-05	628036.3	267538.47	-0.0002259887	267539.44	628035.75	-0.00033898305
0	0.6395755	0.6395744	-3.5021938e-10	0.051335912	0.051335912	0	109679.45	109679.26	-6.5743945e-05	628120.1	267284.62	-0.00019774011	267285.6	628119.5	-0.00024011299
0	0.639455	0.6394539	-3.2327943e-10	0.051194567	0.051194567	0	109658.8	109658.59	-4.49827e-05	628203.44	267032.56	-0.00028248588	267033.53	628202.9	-0.00014124294
0	0.6393331	0.63933194	-4.5797918e-10	0.051053073	0.051053073	0	109637.89	109637.695	-7.612457e-05	628287.06	266778.38	-0.00016949153	266779.38	628286.44	-0.0004237288
0	0.6392112	0.63921	-3.7715933e-10	0.05091177	0.05091177	0	109616.97	109616.766	-6.920415e-05	628371	266523.53	-0.00031073447	266524.53	628370.4	-0.0002118644
0	0.6390893	0.6390881	-1.0775981e-10	0.050770275	0.050770275	0	109596.06	109595.87	-1.7301038e-05	628454	266269.88	-5.6497174e-05	266270.84	628453.44	-2.8248587e-05
0	0.63896745	0.63896614	-6.196189e-10	0.05062879	0.05062879	0	109575.164	109574.97	-0.00010034602	628537.5	266015.78	-0.0004519774	266016.78	628536.9	-0.0003884181
0	0.63884455	0.6388434	-2.6939952e-11	0.05048749	0.05048749	0	109554.1	109553.9	-3.4602076e-06	628621.44	265760	-0.00012888417	265760.97	628620.8	9.180791e-05
0	0.63872135	0.63872033	-3.2327943e-10	0.05034593	0.05034593	0	109532.984	109532.8	-4.8442907e-05	628705.1	265503.9	-0.0002259887	265504.9	628704.44	-0.00011299435
0	0.638598	0.63859695	-3.6368936e-10	0.050204646	0.050204642	0	109511.836	109511.63	-6.228374e-05	628789.44	265246.84	-0.00019774011	265247.84	628788.75	-0.0003319209
0	0.63847524	0.63847405	-1.6163972e-10	0.050063137	0.050063137	0	109490.77	109490.56	-2.768166e-05	628872.56	264991.7	-9.8870056e-05	264992.66	628872	-0.00011299435
0	0.6383501	0.6383489	-2.4245958e-10	0.04992165	0.04992165	0	109469.31	109469.11	-4.1522493e-05	628957.4	264731.8	-0.00016949153	264732.78	628956.75	-0.00016949153
0	0.638227	0.63822585	-3.7715933e-10	0.04978036	0.04978036	0	109448.21	109448	-7.266436e-05	629040.6	264476.1	-0.00028248588	264477.12	629040.06	-0.00028248588
0	0.6381022	0.638101	-4.3103923e-10	0.049638852	0.049638852	0	109426.805	109426.586	-7.612457e-05	629124.6	264217.44	-0.00028248588	264218.44	629124	-0.00027542372
0	0.6379787	0.63797736	-1.2122979e-10	0.049497508	0.049497508	0	109405.61	109405.39	-1.7301038e-05	629207.75	263961.3	5.6497174e-05	263962.28	629207.1	-0.0001341808
0	0.6378534	0.63785225	-3.2327943e-10	0.04935601	0.04935601	0	109384.125	109383.93	-5.882353e-05	629291.94	263701.8	-0.0002542373	263702.8	629291.2	-0.00019774011
0	0.6377276	0.6377264	-3.2327943e-10	0.049214706	0.049214706	0	109362.56	109362.36	-5.882353e-05	629376	263441.66	-0.00017831921	263442.66	629375.3	-0.0002542373
0	0.6376028	0.6376016	0	0.049073216	0.049073216	0	109341.16	109340.95	-3.4602076e-06	629459.6	263183.25	-0.00011299435	263184.25	629459	1.4124294e-05
0	0.637476	0.63747495	-4.8491916e-10	0.048931725	0.048931725	0	109319.43	109319.23	-8.3044986e-05	629544.56	262920.9	-0.00028248588	262921.9	629544	-0.00036723164
0	0.6373503	0.6373491	-4.3103923e-10	0.048790433	0.048790433	0	109297.86	109297.66	-6.5743945e-05	629628.25	262661.22	-0.00031073447	262662.2	629627.56	-0.00024717514
0	0.6372236	0.6372224	0	0.048648868	0.048648868	0	109276.12	109275.92	0	629712.1	262399.8	0.00011299435	262400.84	629711.5	-6.3559324e-05
0	0.63709694	0.6370958	-2.5592956e-10	0.04850758	0.04850758	0	109254.42	109254.21	-3.8062284e-05	629796.6	262138.16	-0.00019774011	262139.14	629796	-9.8870056e-05
0	0.63697004	0.6369689	-8.081986e-11	0.04836608	0.04836608	0	109232.65	109232.445	-1.7301038e-05	629880.75	261876.28	-0.00012535311	261877.3	629880.2	3.5310735e-05
0	0.6368423	0.6368412	-4.8491916e-10	0.04822459	0.04822459	0	109210.74	109210.54	-8.3044986e-05	629965	261613.28	-0.00031073447	261614.3	629964.3	-0.00033898305
0	0.63671464	0.63671345	-4.5797918e-10	0.04808329	0.04808329	0	109188.85	109188.63	-7.266436e-05	630049.5	261349.97	-0.00028248588	261351	630048.8	-0.00028248588
0	0.6365871	0.63658595	-2.1551962e-10	0.047941796	0.047941796	0	109166.97	109166.766	-4.1522493e-05	630133.44	261087.52	-0.00015536723	261088.53	630132.8	-0.00014124294
0	0.636459	0.6364578	-2.1551962e-10	0.047800433	0.047800433	0	109145.016	109144.805	-3.4602075e-05	630217.5	260824	-0.00016949153	260825.03	630216.9	-0.00019067797
0	0.6363301	0.6363288	-3.5021938e-10	0.047658954	0.047658954	0	109122.91	109122.69	-5.536332e-05	630301.8	260559.27	-0.00033898305	260560.3	630301.06	-0.00016242938
0	0.6362007	0.6361996	-2.6939953e-10	0.047517646	0.047517646	0	109100.73	109100.516	-5.882353e-05	630386.75	260293.28	-0.00034604518	260294.33	630386.06	-9.8870056e-05
0	0.6360726	0.6360713	-1.8857967e-10	0.047376156	0.047376156	0	109078.75	109078.53	-3.114187e-05	630470.44	260030.14	-0.00016949153	260031.14	630469.75	-7.062147e-05
0	0.6359425	0.6359413	-2.9633948e-10	0.04723467	0.04723467	0	109056.445	109056.234	-5.1903113e-05	630555.2	259763.27	-0.00036723164	259764.33	630554.56	-5.6497174e-05
0	0.6358125	0.6358113	-2.6939953e-10	0.04709336	0.04709336	0	109034.15	109033.93	-4.8442907e-05	630640.06	259496.4	-0.00028601696	259497.48	630639.44	-0.00012711865
0	0.6356828	0.6356817	-2.6939953e-10	0.046951808	0.046951808	0	109011.91	109011.71	-4.8442907e-05	630724.25	259230.78	-0.0002542373	259231.81	630723.5	-0.00018361582
0	0.63555187	0.6355507	-2.1551962e-10	0.04681051	0.04681051	0	108989.46	108989.24	-2.4221454e-05	630809.2	258962.39	0	258963.44	630808.5	-0.000120056495
0	0.63542175	0.6354205	-4.0409928e-10	0.046669018	0.046669018	0	108967.13	108966.92	-7.612457e-05	630893.44	258695.98	-0.0002542373	258697.05	630892.75	-0.00026129943
0	0.6352904	0.63528913	-2.6939953e-10	0.04652772	0.04652772	0	108944.62	108944.41	-4.49827e-05	630978.06	258427.52	-0.00014124294	258428.56	630977.4	-0.0002542373
0	0.6351592	0.63515794	-2.1551962e-10	0.046386234	0.046386234	0	108922.1	108921.89	-3.4602075e-05	631062.3	258159.45	-0.00016949153	258160.5	631061.6	-0.000120056495
0	0.6350271	0.63502586	-2.6939953e-10	0.04624474	0.04624474	0	108899.47	108899.24	-4.1522493e-05	631147.6	257889.25	-0.00019774011	257890.33	631146.94	-0.00014830509
0	0.63489497	0.63489366	5.3879904e-11	0.046103436	0.046103436	0	108876.78	108876.57	0	631232.56	257619.11	8.474576e-05	257620.17	631231.9	-2.118644e-05
0	0.6347628	0.63476145	-3.906293e-10	0.045961883	0.045961883	0	108854.13	108853.92	-7.612457e-05	631316.94	257349.94	-0.00033898305	257350.98	631316.2	-0.0002259887
0	0.6346307	0.6346294	-2.9633948e-10	0.045820575	0.045820575	0	108831.484	108831.266	-5.536332e-05	631401.44	257080.52	-0.00030014126	257081.56	631400.7	-0.00011299435
0	0.6344975	0.6344963	-2.0204964e-10	0.045679096	0.0456791	0	108808.65	108808.42	-2.768166e-05	631486.4	256809.08	-0.00019774011	256810.14	631485.75	-8.474576e-05
0	0.63436466	0.6343634	-1.0775981e-10	0.045537613	0.045537613	0	108785.85	108785.64	-6.920415e-06	631570.94	256538.58	-0.00011299435	256539.66	631570.25	4.237288e-05
0	0.6342307	0.6342295	-2.6939953e-10	0.0453963	0.0453963	0	108762.88	108762.664	-4.8442907e-05	631655.6	256266.36	-0.0002259887	256267.42	631654.9	-0.00020480226
0	0.63409644	0.6340952	-4.3103923e-10	0.04525482	0.04525482	0	108739.87	108739.64	-6.920415e-05	631740.94	255992.94	-0.00031073447	255994.05	631740.3	-0.00031073447
0	0.63396305	0.63396186	-4.445092e-10	0.045113444	0.045113444	0	108716.99	108716.766	-6.5743945e-05	631825.5	255721.78	-0.0004237288	255722.86	631824.75	-0.00015536723