# t (s)	mx ()	my ()	mz ()	B_extx (T)	B_exty (T)	B_extz (T)	m_fullx (A/m)	m_fully (A/m)	m_fullz (A/m)	m_full.region1x (A/m)	m_full.region1y (A/m)	m_full.region1z (A/m)	m_full.region2x (A/m)	m_full.region2y (A/m)	m_full.region2z (A/m)
0	0.64688265	0.6468816	-3.456312e-10	0.070710704	0.070710704	0	105704.67	105704.484	-5.761053e-05	648861.7	256772.8	-0.00030983152	256773.98	648861.4	-0.00017864621
0	0.64660716	0.64660394	-3.795758e-10	0.07035722	0.07035722	0	105659.65	105659.12	-6.318863e-05	649113.25	256133.48	-0.0003214309	256136.8	649111.94	-0.00021637752
0	0.64632547	0.6463222	-2.504031e-10	0.07000352	0.07000352	0	105613.62	105613.086	-3.7169066e-05	649368.56	255483.61	-0.00013296361	255486.98	649367.3	-0.00017576
0	0.6460394	0.64603615	-3.2759917e-10	0.06965005	0.06965005	0	105566.89	105566.336	-5.4175936e-05	649626.1	254825.77	-0.00030826504	254829.11	649624.9	-0.00015892427
0	0.6457565	0.6457532	-8.9395165e-11	0.06929643	0.06929643	0	105520.64	105520.09	-1.4001487e-05	649880.4	254175.25	-5.2611704e-05	254178.61	649879.2	-5.8748315e-05
0	0.6454691	0.64546573	-3.7474904e-10	0.068942994	0.068942994	0	105473.695	105473.15	-5.9583155e-05	650137.06	253516.47	-0.0003354641	253519.81	650135.7	-0.00016255095
0	0.6451777	0.6451743	-3.234873e-11	0.06858929	0.06858929	0	105426.06	105425.52	-5.170725e-06	650395.75	252849.69	-3.654539e-05	252853.05	650394.44	1.1270592e-05
0	0.64488995	0.6448867	-1.1763748e-10	0.06823583	0.06823583	0	105379.05	105378.51	-1.9314564e-05	650650.5	252192.06	-0.00018438917	252195.42	650649.25	1.6374728e-05
0	0.6445951	0.64459187	-2.788725e-10	0.067882195	0.067882195	0	105330.875	105330.31	-4.7027606e-05	650910	251519.81	-0.00014785198	251523.19	650908.7	-0.00024806135
0	0.64430195	0.64429855	-4.0891684e-10	0.06752872	0.06752872	0	105282.97	105282.414	-6.401997e-05	651166.94	250852.4	-0.00036865674	250855.81	651165.56	-0.00020402837
0	0.64400506	0.6440017	-9.474868e-11	0.06717502	0.06717502	0	105234.45	105233.91	-1.3384641e-05	651425.9	250177.89	-9.840371e-05	250181.34	651424.5	-6.8313144e-05
0	0.6437059	0.6437025	-5.0507293e-10	0.066821605	0.066821605	0	105185.57	105185.016	-8.232717e-05	651685.2	249499.53	-0.00035998397	249502.97	651683.94	-0.0003340692
0	0.6434065	0.6434031	-7.4463613e-10	0.066468135	0.066468135	0	105136.64	105136.086	-0.000118962555	651943.8	248821.84	-0.00049377943	248825.28	651942.5	-0.00056891085
0	0.6431028	0.6430995	-5.3072274e-10	0.06611443	0.06611443	0	105087.016	105086.46	-8.597031e-05	652204.5	248135.98	-0.00024602204	248139.4	652203.2	-0.000530903
0	0.6428001	0.64279664	-4.5374812e-10	0.065760985	0.065760985	0	105037.555	105036.99	-7.305679e-05	652463.44	247453.14	-0.00041380248	247456.6	652462.25	-0.00024017673
0	0.6424929	0.6424895	-1.326656e-10	0.06540732	0.06540732	0	104987.36	104986.8	-1.959191e-05	652724.6	246761.88	-8.129997e-05	246765.39	652723.4	-7.539446e-05
0	0.6421851	0.6421817	-5.075104e-10	0.0650539	0.0650539	0	104937.055	104936.516	-8.588416e-05	652985.2	246070.47	-0.0003387736	246073.97	652983.94	-0.00039467952
0	0.64187455	0.64187115	-8.1540485e-10	0.064700216	0.064700216	0	104886.305	104885.74	-0.00013485092	653246.56	245374.16	-0.00065294636	245377.62	653245.4	-0.00054566195
0	0.64156204	0.6415586	-1.985389e-10	0.06434676	0.06434676	0	104835.24	104834.69	-3.0539628e-05	653508.44	244674.86	-0.00014990862	244678.36	653507.2	-0.000109734276
0	0.64124846	0.6412451	-4.2865506e-10	0.0639931	0.0639931	0	104784.016	104783.45	-7.1003364e-05	653769.94	243974.48	-0.00022134231	243977.98	653768.7	-0.00036752477
0	0.6409326	0.6409292	-1.5167309e-10	0.06363964	0.06363964	0	104732.4	104731.84	-2.5648787e-05	654031.75	243270.36	-0.0001590338	243273.88	654030.56	-5.510916e-05
0	0.6406122	0.6406088	-1.6326065e-10	0.06328595	0.06328595	0	104680.02	104679.46	-2.7152824e-05	654296.06	242557.47	-9.732715e-05	242560.98	654294.8	-0.00013627775
0	0.64029217	0.6402888	-3.157269e-10	0.0629325	0.0629325	0	104627.74	104627.19	-5.1967636e-05	654558.7	241846.83	-0.00038945943	241850.39	654557.44	-4.341194e-05
0	0.63997096	0.6399675	-3.3899925e-10	0.06257904	0.06257904	0	104575.25	104574.69	-5.6151228e-05	654821.25	241134.47	-0.0002729163	241138.05	654819.94	-0.00019457488
0	0.63964623	0.63964283	-3.0636058e-10	0.062225346	0.062225346	0	104522.19	104521.63	-4.9700877e-05	655085	240416.06	-0.00030770118	240419.62	655083.75	-0.00012147417
0	0.63931954	0.6393161	7.355078e-12	0.06187191	0.06187191	0	104468.805	104468.24	-1.4122007e-06	655349.06	239694.64	-4.2339845e-05	239698.23	655347.8	3.25239e-05
0	0.63899106	0.63898766	-5.7167904e-10	0.061518222	0.061518222	0	104415.13	104414.58	-9.240332e-05	655613.06	238970.89	-0.00040056105	238974.48	655611.8	-0.0003983592
0	0.6386589	0.63865554	-2.8483804e-10	0.061164826	0.061164826	0	104360.87	104360.29	-5.1606425e-05	655878.6	238240.14	-0.00023598893	238243.78	655877.44	-0.0001448378
0	0.63832563	0.6383221	-2.0249118e-10	0.060811136	0.060811136	0	104306.4	104305.82	-2.9169978e-05	656143.8	237508.4	-6.950339e-05	237512.05	656142.6	-0.00020160121
0	0.6379884	0.637985	-3.8593903e-10	0.060457677	0.060457677	0	104251.3	104250.734	-6.121021e-05	656410.25	236769.98	-0.00038395423	236773.58	656409.06	-0.00016308788
0	0.6376527	0.6376492	-3.6852732e-10	0.06010401	0.06010401	0	104196.43	104195.86	-5.893566e-05	656674.75	236035.38	-0.00032923307	236039.02	656673.5	-0.00020364916
0	0.6373136	0.6373101	-7.3530637e-10	0.05975055	0.05975055	0	104141.02	104140.445	-0.00011747321	656940.25	235295.08	-0.0005114972	235298.75	656939.06	-0.0005338253
0	0.6369708	0.63696736	-4.745981e-10	0.059396874	0.059396874	0	104085.01	104084.43	-7.655275e-05	657207.25	234548.23	-0.00038981228	234551.86	657205.94	-0.00029303928
0	0.636627	0.63662356	-2.8433247e-10	0.059043404	0.059043404	0	104028.83	104028.26	-4.8558417e-05	657473.25	233800.9	-0.00023774555	233804.56	657472.06	-0.00017927031
0	0.6362799	0.6362764	-7.1550876e-11	0.05868994	0.05868994	0	103972.12	103971.555	-1.0582326e-05	657740.7	233047.55	-1.7606255e-05	233051.23	657739.4	-5.5870685e-05
0	0.63593024	0.63592684	-3.917882e-10	0.05833627	0.05833627	0	103914.984	103914.43	-6.35937e-05	658008.25	232290.58	-0.000280726	232294.27	658007.06	-0.0002654825
0	0.6355796	0.635576	-2.95078e-10	0.057982814	0.057982814	0	103857.68	103857.1	-4.8722424e-05	658275.44	231532.31	-0.00027231203	231536	658274.25	-0.00015702285
0	0.63522595	0.6352224	-2.9259864e-10	0.057629142	0.057629142	0	103799.88	103799.31	-4.7533587e-05	658543.44	230769.16	-0.00021734963	230772.83	658542.2	-0.00024548074
0	0.63486964	0.6348662	-1.09471626e-10	0.057275668	0.057275668	0	103741.65	103741.086	-1.7376553e-05	658811.9	230001.86	-0.0001434058	230005.61	658810.6	1.2191201e-05
0	0.6345104	0.6345069	-3.2978252e-11	0.056922063	0.056922063	0	103682.97	103682.38	-3.2768064e-06	659080.75	229230.12	-0.00026088578	229233.84	659079.5	0.0002091763
0	0.6341507	0.6341472	-1.3766821e-10	0.0565686	0.0565686	0	103624.19	103623.62	-2.090967e-05	659348.6	228458.66	-0.000105796025	228462.34	659347.44	-7.734436e-05
0	0.6337841	0.6337805	-7.721472e-10	0.056214936	0.056214936	0	103564.29	103563.71	-0.00012465705	659619.94	227674.12	-0.00059374905	227677.83	659618.7	-0.00052011915
0	0.6334217	0.63341826	-1.466359e-10	0.05586146	0.05586146	0	103505.07	103504.49	-2.5762041e-05	659887	226899.7	-0.00021439441	226903.4	659885.8	1.9158617e-05
0	0.63305354	0.63305014	-1.8778512e-10	0.055507805	0.055507805	0	103444.91	103444.336	-2.9397226e-05	660156.56	226114.78	-2.2895469e-05	226118.53	660155.3	-0.00021771117
0	0.6326828	0.6326793	-1.5721649e-10	0.055154327	0.055154327	0	103384.32	103383.74	-2.6514086e-05	660426.56	225325.64	-0.00017666469	225329.44	660425.3	-3.6094643e-05
0	0.63230973	0.6323061	-2.2168262e-10	0.054800846	0.054800846	0	103323.36	103322.766	-3.5376208e-05	660696.44	224533.39	-0.00019343359	224537.14	660695.3	-0.00013107184
0	0.6319338	0.6319302	-2.7904828e-10	0.05444718	0.05444718	0	103261.92	103261.34	-4.5423407e-05	660966.9	223736.61	-0.00015795905	223740.44	660965.7	-0.00023007498
0	0.63155603	0.6315525	-1.2624464e-10	0.054093722	0.054093722	0	103200.21	103199.63	-1.9961974e-05	661237.06	222937.64	-0.00010475988	222941.44	661235.9	-4.0508305e-05
0	0.63117564	0.63117206	-8.639796e-12	0.053740054	0.053740054	0	103138.05	103137.46	-1.6105174e-07	661507.7	222134.31	-6.960884e-05	222138.14	661506.56	6.401834e-05
0	0.6307924	0.63078886	-2.71573e-10	0.053386588	0.053386588	0	103075.414	103074.83	-4.2272895e-05	661778.6	221326.88	-0.00024820075	221330.67	661777.5	-0.000106377855
0	0.63040614	0.6304026	-1.1867651e-10	0.053032987	0.053032987	0	103012.3	103011.72	-2.007278e-05	662049.94	220514.88	-8.782502e-05	220518.69	662048.75	-7.930083e-05
0	0.6300178	0.6300142	-3.8745024e-10	0.05267951	0.05267951	0	102948.83	102948.266	-6.654469e-05	662321.25	219699.8	-0.0004274854	219703.6	662320.1	-0.00014222102
0	0.62962687	0.6296233	-2.6754596e-10	0.05232584	0.05232584	0	102884.96	102884.38	-3.9356677e-05	662592.75	218880.98	-0.0002718917	218884.81	662591.6	-8.039744e-05
0	0.62923294	0.62922937	-2.3071264e-10	0.05197238	0.05197238	0	102820.59	102820.016	-3.6910147e-05	662864.56	218057.64	-0.00015532362	218061.48	662863.44	-0.00016251703
0	0.6288367	0.6288331	-2.06291e-10	0.051618718	0.051618718	0	102755.84	102755.266	-3.3757166e-05	663136.5	217231.05	-0.0003652687	217234.94	663135.25	8.7585955e-05
0	0.6284377	0.6284341	-5.258945e-10	0.05126525	0.05126525	0	102690.65	102690.07	-8.4402636e-05	663408.3	216400.56	-0.00041525846	216404.42	663407.25	-0.0003206505
0	0.6280357	0.6280321	-3.9548745e-10	0.05091175	0.05091175	0	102624.96	102624.37	-7.123425e-05	663680.9	215565.3	-0.00037599108	215569.14	663679.75	-0.00020829687
0	0.6276315	0.62762797	-3.431363e-10	0.0505581	0.0505581	0	102558.92	102558.336	-5.9000366e-05	663952.9	214727.28	-0.0003054786	214731.16	663951.9	-0.00020114903
0	0.627224	0.62722045	-2.2162608e-10	0.050204627	0.050204627	0	102492.32	102491.74	-3.5442325e-05	664225.6	213884.08	-0.00029444948	213887.97	664224.5	-6.426067e-06
0	0.626814	0.62681043	-1.6442854e-10	0.049850974	0.049850974	0	102425.33	102424.76	-2.7547014e-05	664498.3	213037.53	-0.00015815142	213041.42	664497.1	-5.6272507e-05
0	0.6264007	0.62639713	-3.209118e-10	0.049497493	0.049497493	0	102357.79	102357.22	-5.565303e-05	664771.5	212185.66	-0.00017371083	212189.55	664770.3	-0.0002850505
0	0.62598467	0.62598115	-2.8926994e-10	0.049143914	0.049143914	0	102289.81	102289.23	-4.6525867e-05	665044.56	211330.17	-0.00030126623	211334.06	665043.4	-8.051737e-05
0	0.62556624	0.6255626	-3.6810066e-10	0.04879043	0.04879043	0	102221.414	102220.84	-5.798608e-05	665317.7	210471.08	-0.00036463272	210475.02	665316.5	-0.00013154757
0	0.62514484	0.6251413	-4.969051e-10	0.04843677	0.04843677	0	102152.58	102151.984	-7.70757e-05	665590.75	209608.16	-0.0003835158	209612.05	665589.6	-0.00031926448
0	0.6247202	0.6247166	-3.9345563e-10	0.04808329	0.04808329	0	102083.19	102082.61	-6.4595384e-05	665864.4	208740.02	-0.0003735646	208743.94	665863.25	-0.00018798393
0	0.6242931	0.6242895	-4.638449e-10	0.04772965	0.04772965	0	102013.41	102012.81	-7.5736876e-05	666137.56	207868.84	-0.0004523002	207872.78	666136.56	-0.00021997558
0	0.62386173	0.62385815	-4.4783105e-10	0.047376156	0.047376156	0	101942.9	101942.305	-7.3077e-05	666411.9	206990.56	-0.0004659933	206994.52	666410.7	-0.00017989195
0	0.6234291	0.62342554	-3.2772954e-10	0.04702266	0.04702266	0	101872.21	101871.64	-5.7933285e-05	666684.94	206111.88	-0.0003461331	206115.8	666683.9	-0.00015411044
0	0.6229928	0.6229893	-1.8654409e-10	0.046669014	0.046669014	0	101800.93	101800.34	-2.8886161e-05	666958.9	205227.25	-0.00026894992	205231.22	666957.75	1.6795297e-05
0	0.62255335	0.62254983	-1.700967e-10	0.046315536	0.046315536	0	101729.12	101728.54	-2.4470064e-05	667232.75	204338.02	-0.00018407765	204341.97	667231.7	-1.8544593e-05
0	0.62211096	0.6221075	-2.7882868e-10	0.045961887	0.045961887	0	101656.83	101656.24	-4.7229758e-05	667506.56	203444.95	-0.00016647653	203448.89	667505.5	-0.00025216947
0	0.62166506	0.62166154	2.3224728e-10	0.045608394	0.045608394	0	101583.97	101583.39	3.650104e-05	667780.6	202546.62	0.00011690179	202550.58	667779.5	0.00023515
0	0.62121683	0.62121326	-5.074279e-10	0.04525483	0.04525483	0	101510.71	101510.125	-8.271872e-05	668054.56	201645	-0.00035567622	201648.98	668053.5	-0.00036139443
0	0.62076366	0.6207601	-2.017707e-10	0.044901334	0.044901334	0	101436.65	101436.055	-3.2393134e-05	668329.3	200735.75	-0.00020477481	200739.75	668328.1	-7.392422e-05
0	0.6203102	0.6203066	-4.3480267e-10	0.044547696	0.044547696	0	101362.56	101361.97	-6.903638e-05	668602.56	199827.66	-0.00033409835	199831.64	668601.56	-0.0002840387
0	0.6198501	0.6198466	-6.6598826e-10	0.04419421	0.04419421	0	101287.39	101286.79	-0.00010633336	668877.6	198908.61	-0.0005938122	198912.61	668876.5	-0.00040230522
0	0.6193907	0.61938703	-1.6778193e-10	0.04384058	0.04384058	0	101212.31	101211.73	-2.3877847e-05	669150.7	197992.25	-0.0002180054	197996.27	669149.7	-3.1995926e-06
0	0.618925	0.61892146	5.5228856e-11	0.043487065	0.043487065	0	101136.22	101135.63	3.5179416e-06	669425.25	197065.73	7.183666e-05	197069.75	669424.25	2.207105e-05
0	0.6184561	0.61845255	-4.0017084e-10	0.04313356	0.04313356	0	101059.6	101059.016	-6.727409e-05	669699.8	196134.67	-0.00034818018	196138.7	669698.75	-0.0002301295
0	0.6179874	0.61798376	-1.9968495e-10	0.042779934	0.042779934	0	100982.99	100982.414	-3.1662858e-05	669972.7	195205.62	-0.0003218947	195209.67	669971.75	6.459072e-05
0	0.6175105	0.61750674	-4.947727e-10	0.04242642	0.04242642	0	100905.055	100904.48	-8.678311e-05	670247.9	194262.7	-0.00023467305	194266.72	670246.94	-0.0005243099
0	0.6170333	0.6170297	-1.1275688e-10	0.04207281	0.04207281	0	100827.1	100826.516	-1.5604615e-05	670521.56	193321.08	6.964821e-05	193325.14	670520.56	-0.00020848529
0	0.6165539	0.6165503	-3.911245e-10	0.041719295	0.041719295	0	100748.766	100748.17	-6.264335e-05	670794.44	192377.03	-0.00024599128	192381.1	670793.5	-0.00031228625
0	0.6160691	0.6160655	-2.5443156e-10	0.041365758	0.041365758	0	100669.54	100668.945	-4.189615e-05	671068.4	191424.22	-0.00017509282	191428.27	671067.5	-0.00016373876
0	0.6155812	0.61557764	-3.435452e-10	0.041012242	0.041012242	0	100589.82	100589.234	-5.7642326e-05	671342	190467.72	-0.00027539924	190471.75	671341.06	-0.00023363654
0	0.61508965	0.6150861	-8.872139e-11	0.040658627	0.040658627	0	100509.49	100508.914	-1.4385134e-05	671615.7	189505.8	-7.449996e-05	189509.86	671614.75	-5.5081266e-05
0	0.61459464	0.61459106	-1.9471415e-10	0.040305126	0.040305126	0	100428.62	100428.016	-2.9285527e-05	671889.25	188539.23	-0.00037327592	188543.3	671888.2	9.183756e-05
0	0.6140962	0.61409265	-2.4853664e-10	0.03995151	0.03995151	0	100347.16	100346.57	-3.7903676e-05	672162.56	187568.06	-0.00011308005	187572.12	672161.56	-0.0002063126
0	0.6135938	0.6135903	-2.002181e-10	0.039597988	0.039597988	0	100265.055	100264.484	-3.066275e-05	672435.94	186591.39	-0.00019837121	186595.47	672434.9	-7.3890355e-05
0	0.61308867	0.6130851	-4.990293e-10	0.03924446	0.03924446	0	100182.516	100181.945	-8.17508e-05	672708.75	185611.23	-0.00044747887	185615.3	672707.8	-0.0002646162
0	0.612579	0.6125754	-3.733172e-10	0.03889085	0.03889085	0	100099.22	100098.64	-5.815194e-05	672982.06	184624.42	-0.0005339788	184628.5	672981	9.784928e-06
0	0.6120665	0.6120629	-3.090992e-10	0.03853732	0.03853732	0	100015.48	100014.9	-5.0726772e-05	673254.5	183634.45	-0.00032247975	183638.5	673253.6	-0.0001237871
0	0.6115498	0.61154634	-1.7551208e-10	0.03818373	0.03818373	0	99931.055	99930.484	-2.8822951e-05	673527.2	182638.44	-0.00028230663	182642.53	673526.2	5.0724175e-05
0	0.6110276	0.611024	2.2219553e-10	0.0378302	0.0378302	0	99845.71	99845.14	3.611177e-05	673800.44	181634.06	6.507525e-05	181638.14	673799.6	0.00027169843
0	0.61050516	0.61050165	-3.927739e-10	0.03747659	0.03747659	0	99760.35	99759.79	-6.548536e-05	674072	180631.22	-0.00037867142	180635.31	674071.1	-0.00020144964
0	0.6099737	0.6099702	-2.1939386e-10	0.037123155	0.037123155	0	99673.53	99672.945	-3.7325397e-05	674345.7	179613.56	-0.00032523	179617.66	674344.7	4.8272263e-06
0	0.6094461	0.6094425	-6.483297e-10	0.036769558	0.036769558	0	99587.3	99586.72	-0.00010583335	674615.44	178604.83	-0.0005841274	178608.9	674614.7	-0.0003480624
0	0.6089105	0.608907	-1.8195464e-11	0.036416043	0.036416043	0	99499.79	99499.22	-3.723357e-06	674887.1	177583.56	-0.00027224526	177587.69	674886.3	0.0002487516
0	0.60836893	0.6083654	-2.8372477e-10	0.036062438	0.036062438	0	99411.3	99410.72	-4.6790057e-05	675159.3	176553.25	-0.00035066146	176557.34	675158.44	-6.439079e-05
0	0.60781795	0.6078143	-5.0847254e-10	0.035708897	0.035708897	0	99321.25	99320.664	-8.565543e-05	675434.8	175506.11	-0.00045006417	175510.19	675433.94	-0.00031748405
0	0.6072799	0.60727644	-1.2982056e-10	0.035355352	0.035355352	0	99233.34	99232.766	-1.9785048e-05	675700.25	174487.58	-8.445705e-05	174491.69	675699.44	-9.673081e-05
0	0.60672927	0.60672575	-2.3758093e-10	0.03500176	0.03500176	0	99143.36	99142.78	-3.9121318e-05	675970.3	173446.4	-0.0002951461	173450.48	675969.6	-3.4700373e-05
0	0.60617435	0.6061708	-7.350886e-10	0.034648214	0.034648214	0	99052.664	99052.09	-0.00011942837	676240.5	172399.44	-0.00046722428	172403.53	676239.56	-0.00060768274
0	0.60561335	0.60560995	-4.163143e-10	0.034294646	0.034294646	0	98961.01	98960.445	-7.017818e-05	676510.9	171343.8	-0.00041526117	171347.9	676510.06	-0.00020656732
0	0.6050513	0.6050477	-4.3407355e-10	0.033941098	0.033941098	0	98869.15	98868.59	-7.290686e-05	676779.8	170287.86	-0.00028387195	170291.95	676779	-0.00034648582
0	0.6044846	0.6044811	-2.3097255e-10	0.03358751	0.03358751	0	98776.555	98775.99	-4.000167e-05	677048.44	169225.83	-0.00028177453	169229.97	677047.6	-5.5355184e-05
0	0.60391283	0.6039094	-3.3303196e-10	0.033234067	0.033234067	0	98683.125	98682.56	-5.4495402e-05	677317.1	168156.73	-0.00019701585	168160.83	677316.4	-0.00028432222
0	0.60333705	0.6033336	4.6031817e-11	0.032880493	0.032880493	0	98589.04	98588.48	7.896071e-06	677585.3	167082.47	-5.8365666e-05	167086.6	677584.56	0.00010731851
0	0.6027563	0.6027529	-1.8818233e-10	0.03252695	0.03252695	0	98494.15	98493.586	-3.3989716e-05	677853.4	166001.44	-0.0002254844	166005.55	677852.6	-4.349596e-05
0	0.6021703	0.60216683	-4.3409104e-10	0.03217338	0.03217338	0	98398.375	98397.82	-7.1619615e-05	678121.4	164912.81	-0.0003944747	164916.9	678120.7	-0.00022501589
0	0.60158443	0.601581	-5.809994e-11	0.03181982	0.03181982	0	98302.66	98302.1	-7.3007955e-06	678387.25	163826.86	4.3471682e-05	163830.97	678386.56	-8.44662e-05
0	0.6009905	0.600987	-3.7404366e-10	0.03146625	0.03146625	0	98205.6	98205.05	-5.9685586e-05	678654.1	162728.44	-0.00040828224	162732.55	678653.4	-0.00011877527
0	0.6003934	0.60039	-2.9758038e-10	0.031112673	0.031112673	0	98108.05	98107.484	-5.0975905e-05	678920	161626.75	-0.00034245066	161630.84	678919.3	-7.6805314e-05
0	0.59978944	0.59978604	-2.9778768e-10	0.030759111	0.030759111	0	98009.34	98008.78	-4.6305722e-05	679186.25	160514.88	-0.0004278434	160518.98	679185.56	2.6501997e-05
0	0.59918517	0.5991817	-6.235914e-10	0.030405568	0.030405568	0	97910.59	97910.03	-0.00010152079	679450.44	159404.52	-0.000514945	159408.61	679449.94	-0.00039074713
0	0.5985758	0.5985724	-1.6058645e-10	0.030052004	0.030052004	0	97811.03	97810.46	-3.0185782e-05	679714.3	158287.62	-0.00018676122	158291.72	679713.6	-4.809423e-05
0	0.5979597	0.5979563	-2.6939811e-10	0.029698437	0.029698437	0	97710.35	97709.79	-4.209464e-05	679978.56	157160.95	-0.00021177992	157165.02	679977.94	-0.00015620237
0	0.5973371	0.5973338	-3.2927022e-10	0.02934497	0.02934497	0	97608.625	97608.07	-5.1170835e-05	680242.9	156025.05	-0.00030965183	156029.16	680242.25	-0.00015007841
0	0.5967156	0.5967123	-1.2901773e-10	0.028991407	0.028991407	0	97507.07	97506.51	-2.0843238e-05	680504.44	154893.5	-0.0001559357	154897.58	680503.6	1.6274e-05
0	0.5960813	0.596078	-1.9659177e-10	0.028637834	0.028637834	0	97403.41	97402.88	-3.1283398e-05	680768.5	153741.3	-0.0003806537	153745.39	680767.9	0.00013700088
0	0.59545183	0.59544855	-1.3227479e-10	0.0282843	0.0282843	0	97300.56	97300.016	-2.2864097e-05	681028.06	152600.52	-0.00022787007	152604.61	681027.4	4.9100225e-05
0	0.5948142	0.59481084	-5.145741e-10	0.02793073	0.02793073	0	97196.35	97195.81	-8.3604056e-05	681288.5	151447.25	-0.00041362285	151451.33	681287.9	-0.00031846738
0	0.5941703	0.594167	-1.412294e-10	0.027577164	0.027577164	0	97091.12	97090.586	-2.462271e-05	681548.75	150285.5	-0.00012457084	150289.56	681548.2	-0.00010379357
0	0.5935229	0.59351957	-3.265432e-10	0.02722359	0.02722359	0	96985.34	96984.81	-5.6230278e-05	681807.8	149120.19	-0.00035546647	149124.27	681807.2	-0.00013261232
0	0.59286875	0.59286547	-3.7918538e-10	0.026870027	0.026870027	0	96878.46	96877.92	-6.1219456e-05	682066.8	147945.38	-0.0001514468	147949.42	682066.3	-0.0003519759
0	0.5922114	0.5922081	-3.066242e-10	0.026516493	0.026516493	0	96771.04	96770.49	-5.105708e-05	682324.5	146767.3	-0.00030819012	146771.36	682324.1	-0.0001430516
0	0.5915475	0.59154433	-5.873809e-10	0.02616292	0.02616292	0	96662.57	96662.02	-9.643568e-05	682581.94	145580.62	-0.00043890844	145584.64	682581.4	-0.0004214399
0	0.5908794	0.59087616	-4.097172e-10	0.025809359	0.025809359	0	96553.375	96552.86	-6.859752e-05	682838.3	144388.8	-0.0003033202	144392.81	682837.9	-0.00027809743
0	0.59020627	0.5902031	-3.8555376e-10	0.025455875	0.025455875	0	96443.4	96442.88	-5.8794638e-05	683093.94	143190.98	-0.00037794508	143195	683093.5	-0.00016656131
0	0.5895287	0.5895254	-3.68852e-10	0.025102314	0.025102314	0	96332.67	96332.15	-6.154999e-05	683348.44	141987.7	-0.00035332347	141991.72	683347.94	-0.0001583545
0	0.58884484	0.5888417	-1.039711e-09	0.024748746	0.024748746	0	96220.945	96220.414	-0.00016844309	683602.4	140776.45	-0.0006722061	140780.47	683601.94	-0.00082582695
0	0.58815706	0.58815384	-1.2708228e-10	0.024395214	0.024395214	0	96108.555	96108.03	-2.8509368e-05	683855.2	139560.84	-0.00035301526	139564.84	683854.7	0.00012641645
0	0.58746445	0.58746123	-4.089142e-10	0.024041645	0.024041645	0	95995.34	95994.83	-6.905295e-05	684106.7	138339.4	-0.00034452506	138343.39	684106.3	-0.00025755557
0	0.586765	0.5867618	-3.1865285e-10	0.023688078	0.023688078	0	95881.055	95880.55	-5.3716678e-05	684358.06	137108.88	-0.00036955674	137112.86	684357.6	-0.00012102044
0	0.5860604	0.5860572	-5.543519e-10	0.023334507	0.023334507	0	95765.92	95765.414	-9.120323e-05	684608.3	135872.25	-0.0005455266	135876.25	684607.9	-0.0003035637
0	0.5853505	0.58534735	-4.4705925e-10	0.022980943	0.022980943	0	95649.94	95649.43	-6.922005e-05	684857.44	134629.34	-0.00036920627	134633.33	684857	-0.00023733484
0	0.5846344	0.5846313	9.259394e-11	0.022627415	0.022627415	0	95532.914	95532.414	1.5664411e-05	685105.9	133378.3	-0.00010681915	133382.27	685105.5	0.0002782645
0	0.58391374	0.58391064	-5.0448273e-10	0.022273848	0.022273848	0	95415.14	95414.65	-8.124822e-05	685353	132122.19	-0.0005979835	132126.12	685352.7	-0.00013295145
0	0.5831876	0.5831845	-1.6027464e-10	0.02192029	0.02192029	0	95296.49	95296	-2.7393658e-05	685599.1	130859.51	-0.00013381832	130863.44	685598.8	-9.7207594e-05
0	0.5824556	0.5824525	-4.691364e-10	0.02156678	0.02156678	0	95176.875	95176.38	-7.911597e-05	685844.06	129589.78	-0.0002752278	129593.72	685843.75	-0.00036761514
0	0.58171695	0.58171403	-5.636298e-10	0.02121321	0.02121321	0	95056.195	95055.695	-9.465894e-05	686088.25	128311.66	-0.00060287333	128315.57	686087.94	-0.00020828751
0	0.58097506	0.5809721	-5.351652e-10	0.020859648	0.020859648	0	94934.95	94934.47	-8.672609e-05	686330.5	127030.63	-0.000501607	127034.54	686330.25	-0.00027584183
0	0.5802256	0.58022267	-2.508113e-10	0.020506121	0.020506121	0	94812.49	94812	-4.138218e-05	686572.25	125739.73	-0.00025563716	125743.62	686572	-9.4418065e-05
0	0.5794707	0.57946783	-4.5618e-10	0.020152563	0.020152563	0	94689.13	94688.64	-7.115603e-05	686812.56	124442.5	-0.0005574464	124446.38	686812.3	-0.00010809024
0	0.57870954	0.5787066	-4.1113768e-10	0.019798994	0.019798994	0	94564.74	94564.28	-6.96751e-05	687051.8	123137.66	-0.00039456718	123141.5	687051.56	-0.00019874197
0	0.5779429	0.57794	-3.2378383e-10	0.019445425	0.019445425	0	94439.484	94439.01	-5.54806e-05	687289.7	121826.586	-0.0004138133	121830.414	687289.4	-6.1982566e-05
0	0.57716995	0.5771671	-4.0640838e-10	0.019091865	0.019091865	0	94313.17	94312.7	-6.643553e-05	687526.25	120507.75	-0.000113490205	120511.555	687526.1	-0.00048664116
0	0.57638973	0.5763869	-2.1949989e-10	0.018738296	0.018738296	0	94185.69	94185.22	-3.467277e-05	687761.94	119179.96	-0.00019642051	119183.77	687761.7	-0.00012028225
0	0.5756056	0.5756027	1.3804098e-10	0.018384779	0.018384779	0	94057.555	94057.08	2.0407839e-05	687995.6	117848.35	-3.835936e-05	117852.16	687995.5	0.00025399678
0	0.5748145	0.57481176	-4.797518e-10	0.018031219	0.018031219	0	93928.29	93927.82	-7.673646e-05	688228.1	116508.445	-0.00034236105	116512.195	688228.06	-0.00032276538
0	0.5740173	0.5740145	-3.0367725e-10	0.017677676	0.017677676	0	93798.016	93797.555	-4.9367187e-05	688459.3	115161.19	-0.00025916053	115164.93	688459.1	-0.000161283
0	0.57321435	0.57321155	-3.399022e-10	0.017324107	0.017324107	0	93666.79	93666.35	-5.7961915e-05	688688.75	113807.516	-0.00058044563	113811.24	688688.7	5.6457808e-05
0	0.5724041	0.57240134	-2.8842456e-10	0.016970549	0.016970549	0	93534.4	93533.95	-4.7745245e-05	688917.06	112444.91	-0.00016760571	112448.63	688917	-0.00023012242
0	0.5715871	0.57158434	-2.2226734e-10	0.016617034	0.016617034	0	93400.91	93400.445	-3.307772e-05	689143.94	111074.27	-0.00032615103	111077.98	689143.8	1.45839085e-05
0	0.57076293	0.57076025	-1.2006868e-10	0.016263476	0.016263476	0	93266.24	93265.77	-2.165463e-05	689369.2	109695.125	-0.00030270562	109698.81	689369.2	0.00013654072
0	0.56993455	0.5699318	-4.1395543e-10	0.01590991	0.01590991	0	93130.875	93130.43	-6.426312e-05	689592.56	108312.09	-0.00055125466	108315.76	689592.56	-3.2993077e-05
0	0.5690991	0.56909657	-6.64899e-10	0.015556336	0.015556336	0	92994.35	92993.92	-0.000111041336	689814.4	106920.78	-0.000575104	106924.43	689814.3	-0.00038600102
0	0.5682562	0.56825364	-1.7343155e-10	0.015202784	0.015202784	0	92856.62	92856.195	-3.1933418e-05	690034.7	105520.42	-0.00025538533	105524.04	690034.7	5.4855104e-06
0	0.56740654	0.567404	-1.7418775e-10	0.014849219	0.014849219	0	92717.766	92717.36	-2.9122115e-05	690253.25	104112.33	-8.920509e-05	104115.945	690253.25	-0.00011939975
0	0.5665502	0.56654763	-4.3958234e-10	0.014495703	0.014495703	0	92577.85	92577.42	-7.086807e-05	690470.06	102696.6	-0.00048364696	102700.18	690470.2	-0.00014322848
0	0.5656872	0.5656846	-1.6073157e-10	0.01414215	0.01414215	0	92436.81	92436.4	-2.816917e-05	690685.2	101273.234	-0.00017105132	101276.8	690685.2	-2.6903446e-05
0	0.5648169	0.5648144	-3.1748503e-11	0.013788582	0.013788582	0	92294.59	92294.195	-7.687478e-06	690898.44	99841.68	-3.86849e-05	99845.2	690898.44	-6.916708e-06
0	0.5639397	0.56393725	-1.6178446e-10	0.013435014	0.013435014	0	92151.266	92150.86	-2.7256527e-05	691109.75	98402.25	-0.00017828062	98405.75	691109.8	-4.9502767e-05
0	0.56305534	0.56305283	8.275538e-11	0.01308146	0.01308146	0	92006.76	92006.37	1.4631903e-05	691319.4	96954.66	0.00010225736	96958.14	691319.4	5.9969836e-05
0	0.56216395	0.56216156	-2.5399452e-10	0.012727938	0.012727938	0	91861.1	91860.7	-3.7282527e-05	691526.9	95499.16	-0.00037002907	95502.61	691526.94	2.4843228e-05
0	0.56126535	0.56126297	-4.384538e-10	0.012374373	0.012374373	0	91714.26	91713.89	-7.229389e-05	691732.5	94035.51	-0.00040464033	94038.945	691732.56	-0.00021476606
0	0.5603593	0.560357	-8.456439e-10	0.012020823	0.012020823	0	91566.22	91565.84	-0.00013793359	691936.1	92563.5	-0.00078626955	92566.9	691936.3	-0.00044794995
0	0.5594456	0.5594433	-3.2063657e-10	0.011667253	0.011667253	0	91416.9	91416.53	-5.3668984e-05	692137.7	91082.71	-0.00046662104	91086.086	692137.94	-1.7441389e-05
0	0.5585252	0.55852294	-5.8696975e-10	0.011313708	0.011313708	0	91266.516	91266.14	-9.76304e-05	692337.06	89594.93	-0.000495083	89598.28	692337.3	-0.00037546502
0	0.5575962	0.55759394	-4.537782e-10	0.010960145	0.010960145	0	91114.695	91114.336	-7.6919256e-05	692534.44	88096.81	-0.00040459106	88100.12	692534.75	-0.00026733062
0	0.55666023	0.55665815	-7.628669e-11	0.010606605	0.010606605	0	90961.77	90961.41	-1.3897216e-05	692729.7	86591.52	-0.00024372719	86594.81	692729.8	0.00012824725
0	0.55571675	0.5557146	-6.0307564e-10	0.010253061	0.010253061	0	90807.586	90807.25	-9.8770055e-05	692922.44	85077.79	-0.00037632816	85081.05	692922.75	-0.000491044
0	0.5547636	0.55476147	-4.0157178e-10	0.009899497	0.009899497	0	90651.84	90651.51	-6.351138e-05	693113.4	83552.49	-0.00036676967	83555.71	693113.56	-0.00017691859
0	0.55380565	0.5538036	1.5402636e-10	0.0095459325	0.0095459325	0	90495.32	90494.97	2.5638423e-05	693301.4	82023.35	8.8197514e-05	82026.53	693301.6	0.0001414332
0	0.5528378	0.55283576	-1.6934726e-09	0.009192389	0.009192389	0	90337.14	90336.81	-0.00027552372	693487.4	80482.42	-0.0014917578	80485.58	693487.56	-0.0009938832
0	0.5518634	0.55186135	-3.09527e-10	0.008838838	0.008838838	0	90177.92	90177.6	-4.8454418e-05	693670.7	78934.91	-0.00014439932	78938.01	693670.9	-0.0002734127
0	0.55087906	0.55087715	-2.587769e-10	0.008485274	0.008485274	0	90017.08	90016.766	-4.2902044e-05	693851.75	77375.84	-0.00011502965	77378.93	693852.1	-0.00027508405
0	0.54988724	0.54988533	-4.1847237e-10	0.008131738	0.008131738	0	89855.01	89854.69	-6.70391e-05	694030.2	75808.836	-0.0004002652	75811.875	694030.6	-0.00019991085
0	0.54888695	0.548885	-3.9248615e-10	0.007778168	0.007778168	0	89691.555	89691.26	-6.225427e-05	694206.1	74232.52	-0.0005018939	74235.53	694206.5	-5.9012422e-05
0	0.5478788	0.547877	8.812597e-11	0.0074246093	0.0074246093	0	89526.82	89526.52	1.6394099e-05	694379.4	72648	-0.00041405336	72650.97	694379.75	0.0005667704
0	0.54686075	0.5468589	1.9781538e-10	0.007071075	0.007071075	0	89360.45	89360.17	3.7507652e-05	694550.06	71051.96	0.00033307847	71054.914	694550.5	1.9563091e-05