# t (s)	mx ()	my ()	mz ()	B_extx (T)	B_exty (T)	B_extz (T)	m_fullx (A/m)	m_fully (A/m)	m_fullz (A/m)	m_full.region1x (A/m)	m_full.region1y (A/m)	m_full.region1z (A/m)	m_full.region2x (A/m)	m_full.region2y (A/m)	m_full.region2z (A/m)
0	0.6489296	0.6489305	-2.4227897e-10	0.070709854	0.070709854	0	12476.367	12476.387	-4.009589e-06	623698.7	284803.38	-0.0002092735	284802.62	623699.3	-8.269586e-05
0	0.64868236	0.64868206	-3.6073483e-10	0.070357755	0.070357755	0	12471.616	12471.61	-3.5505473e-06	623906.94	284247.97	-0.00018557205	284248.4	623907.06	-7.297092e-05
0	0.6484296	0.64842933	-3.5164394e-10	0.0700046	0.0700046	0	12466.756	12466.75	-7.4358068e-06	624120.94	283680.2	-0.00031116648	283680.6	624120.75	-0.00023029243
0	0.64817286	0.64817244	-4.1013568e-10	0.069649294	0.069649294	0	12461.818	12461.811	-7.900228e-06	624338.6	283102.84	-0.00026133936	283103.34	624338.56	-0.00031393772
0	0.6479188	0.6479185	-4.9741e-10	0.069297224	0.069297224	0	12456.936	12456.93	-5.1813563e-06	624552.5	282533.44	-0.00018388123	282533.88	624552.5	-0.00019341362
0	0.6476625	0.6476621	-2.8898414e-10	0.06894197	0.06894197	0	12452.006	12452.001	-4.5495763e-06	624766.44	281960.6	-0.00017114733	281961.06	624766.44	-0.00016014269
0	0.64740294	0.6474026	-3.3208392e-10	0.068588786	0.068588786	0	12447.018	12447.011	-7.95143e-06	624982.5	281381.22	-0.00030973193	281381.62	624982.5	-0.00026927356
0	0.6471417	0.6471415	-2.2434685e-10	0.06823664	0.06823664	0	12441.995	12441.989	-6.9323614e-06	625200.5	280797.62	-0.0003336159	280798	625200.4	-0.00017118327
0	0.64688146	0.6468812	-3.430263e-10	0.067881495	0.067881495	0	12436.992	12436.986	-8.728379e-06	625415.06	280218.62	-0.00031204056	280219.1	625415.06	-0.0003235406
0	0.6466182	0.6466177	-1.8464516e-10	0.06752796	0.06752796	0	12431.928	12431.922	-4.5991774e-06	625631.94	279632.94	-0.00023412604	279633.38	625631.94	-0.000100775826
0	0.64635205	0.64635175	-2.9403716e-10	0.06717612	0.06717612	0	12426.814	12426.807	-7.1890668e-06	625851.25	279041.2	-0.00030632873	279041.6	625851.25	-0.00021716309
0	0.64608485	0.64608455	-2.4123445e-10	0.066821046	0.066821046	0	12421.675	12421.669	-6.558791e-06	626068	278450.4	-0.00025738176	278450.84	626067.94	-0.00022021485
0	0.6458187	0.6458185	-4.4349913e-10	0.06646746	0.06646746	0	12416.558	12416.553	-1.0515808e-05	626284.8	277860.94	-0.00032269032	277861.38	626284.9	-0.0004430474
0	0.6455478	0.6455476	-3.933759e-10	0.06611561	0.06611561	0	12411.351	12411.346	-6.321339e-06	626505.6	277260.97	-0.00014402164	277261.4	626505.7	-0.0003162842
0	0.6452779	0.6452777	-3.287451e-10	0.06576051	0.06576051	0	12406.161	12406.154	-7.1627423e-06	626723.06	276665.6	-0.0002577268	276666.03	626723.06	-0.0002638482
0	0.6450041	0.64500386	-1.9419673e-10	0.06540694	0.06540694	0	12400.8955	12400.893	-6.4801714e-07	626943.7	276061.6	-0.00018311925	276061.97	626943.75	0.00013593207
0	0.644731	0.6447307	-2.5145827e-10	0.06505365	0.06505365	0	12395.645	12395.639	-6.7018664e-06	627161.56	275461.38	-0.00026510106	275461.75	627161.56	-0.00022291395
0	0.644454	0.64445364	-4.951141e-10	0.06470004	0.06470004	0	12390.318	12390.313	-9.452239e-06	627382.06	274853.06	-0.0002478885	274853.47	627382.06	-0.00044040257
0	0.6441771	0.64417684	-2.646711e-10	0.06434636	0.06434636	0	12384.997	12384.99	-6.5078807e-06	627601.9	274245.7	-5.9704835e-05	274246.06	627601.9	-0.00041418456
0	0.64389646	0.6438963	-3.536887e-10	0.06399309	0.06399309	0	12379.604	12379.598	-8.965244e-06	627824.9	273629.8	-0.0003562932	273630.22	627824.94	-0.0002965359
0	0.643615	0.6436149	-4.790568e-10	0.06363921	0.06363921	0	12374.192	12374.1875	-5.6678e-06	628046.25	273014.5	-0.0003604705	273014.88	628046.25	-5.2246094e-05
0	0.64333177	0.6433314	-2.8736744e-10	0.063285835	0.063285835	0	12368.743	12368.738	-8.237475e-06	628268.1	272395.88	-0.0003336671	272396.28	628268.1	-0.00026616754
0	0.6430485	0.6430483	-2.9801328e-10	0.06293256	0.06293256	0	12363.299	12363.294	-4.5124225e-06	628489.3	271778.16	-0.00027583662	271778.53	628489.4	-5.274794e-05
0	0.6427626	0.64276224	-2.3601726e-10	0.06257875	0.06257875	0	12357.8	12357.795	-7.747207e-06	628711.75	271155.38	-0.00023514133	271155.75	628711.9	-0.00032899305
0	0.6424752	0.64247483	-1.8837859e-10	0.06222535	0.06222535	0	12352.273	12352.2705	-3.3173114e-06	628934.1	270530.66	-0.00032508245	270531	628934.25	8.352322e-05
0	0.6421852	0.64218503	-4.807883e-10	0.061871916	0.061871916	0	12346.701	12346.697	-8.485452e-06	629157.56	269901.38	-0.00029214032	269901.72	629157.7	-0.0003257514
0	0.64189553	0.6418954	-3.1409284e-10	0.06151828	0.06151828	0	12341.131	12341.127	-7.2735793e-06	629379.1	269274.28	-0.00032779583	269274.66	629379.2	-0.00020185004
0	0.6416002	0.6416001	-2.3206378e-10	0.06116485	0.06116485	0	12335.455	12335.45	-2.3213634e-06	629605.25	268634.78	-0.00014059414	268635.12	629605.44	-2.8442382e-05
0	0.6413081	0.64130795	-2.9808755e-10	0.06081137	0.06081137	0	12329.838	12329.834	-8.3603645e-06	629826.9	268004.16	-0.0002595536	268004.47	629826.94	-0.0003492296
0	0.6410117	0.6410115	-1.85159e-10	0.060457736	0.060457736	0	12324.139	12324.135	-4.5924166e-06	630051.2	267364.84	-0.00015674303	267365.22	630051.25	-0.00017766656
0	0.640712	0.6407118	-3.5475467e-10	0.06010433	0.06010433	0	12318.377	12318.372	-2.2690483e-06	630278.2	266718.25	-0.00027750462	266718.6	630278.3	0.00011227756
0	0.64041317	0.640413	-3.8092793e-10	0.05975042	0.05975042	0	12312.631	12312.628	-5.675518e-06	630501.8	266076.16	-0.00016175951	266076.53	630501.94	-0.0002515191
0	0.6401099	0.6401098	-2.305792e-10	0.05939726	0.05939726	0	12306.8	12306.797	-3.9431625e-06	630729.4	265424.16	-0.00026921512	265424.5	630729.5	-1.791721e-05
0	0.6398062	0.639806	-5.354579e-10	0.059043832	0.059043832	0	12300.961	12300.957	-8.341742e-06	630953.7	264774.6	-0.00030849045	264774.94	630953.75	-0.00029893662
0	0.63950175	0.6395015	-4.22228e-10	0.058689874	0.058689874	0	12295.108	12295.1045	-6.5320687e-06	631179.7	264122.47	-0.00032542288	264122.8	631179.75	-0.00015022786
0	0.6391951	0.6391949	-3.117521e-10	0.058336806	0.058336806	0	12289.211	12289.208	-4.7650205e-06	631406.4	263466.44	-0.00023914943	263466.75	631406.4	-0.000107828775
0	0.6388838	0.6388837	-2.682264e-10	0.05798323	0.05798323	0	12283.227	12283.225	-4.816238e-06	631635.56	262801.53	-0.00017175268	262801.84	631635.6	-0.00017895507
0	0.6385746	0.6385744	-3.8981e-10	0.057629295	0.057629295	0	12277.283	12277.281	-4.993488e-06	631861	262143.2	-0.00019787032	262143.48	631861.1	-0.00016574436
0	0.6382597	0.63825953	-4.043313e-10	0.05727468	0.05727468	0	12271.229	12271.225	-8.183417e-06	632090.94	261472.25	-0.0002797361	261472.6	632091	-0.0003161621
0	0.6379471	0.637947	-2.91859e-10	0.056922715	0.056922715	0	12265.221	12265.217	-5.8400456e-06	632316.56	260809.12	-0.00028411872	260809.44	632316.7	-0.00014114041
0	0.63762915	0.63762915	-3.3772862e-10	0.05656864	0.05656864	0	12259.106	12259.1045	-8.667307e-06	632547.06	260133.58	-0.00026961602	260133.89	632547.1	-0.000361518
0	0.6373119	0.63731176	-4.527311e-10	0.05621419	0.05621419	0	12253.005	12253.003	-1.0302783e-05	632774	259462.31	-0.00039580138	259462.58	632774.06	-0.00035442438
0	0.6369911	0.636991	-2.9916122e-10	0.055861782	0.055861782	0	12246.838	12246.835	-7.592754e-06	633002.9	258784.38	-0.00034138036	258784.66	633003	-0.00021150715
0	0.636667	0.6366668	-2.6486924e-10	0.055508047	0.055508047	0	12240.605	12240.604	-4.862099e-06	633233.4	258100.11	-0.00023082405	258100.39	633233.44	-0.0001232232
0	0.63634235	0.6363422	-3.4981495e-10	0.055153705	0.055153705	0	12234.365	12234.362	-7.0324304e-06	633464.75	257414.2	-0.000327692	257414.48	633464.8	-0.00018439398
0	0.6360172	0.6360172	-3.6214015e-10	0.054801274	0.054801274	0	12228.115	12228.113	-5.9461804e-06	633693	256730.9	-0.00020894792	256731.17	633693.1	-0.00022403972
0	0.6356886	0.6356886	-4.2596457e-10	0.05444749	0.05444749	0	12221.798	12221.797	-7.2883367e-06	633923.4	256040.5	-0.00028104603	256040.73	633923.5	-0.0002496745
0	0.63535744	0.63535726	-1.7147936e-10	0.054093115	0.054093115	0	12215.428	12215.428	-6.378381e-06	634156.1	255343.92	-0.0002511349	255344.19	634156.4	-0.00021332466
0	0.6350263	0.6350263	-2.2618064e-10	0.053740732	0.053740732	0	12209.062	12209.061	-1.6306273e-06	634385.5	254651.05	-6.0009268e-05	254651.28	634385.7	-5.8729383e-05
0	0.63469166	0.6346916	-3.2928674e-10	0.05338643	0.05338643	0	12202.63	12202.63	-8.845368e-06	634616.94	253951.17	-0.0003177925	253951.38	634617.2	-0.00032630752
0	0.6343551	0.6343551	-3.023609e-10	0.053032607	0.053032607	0	12196.159	12196.159	-1.122999e-05	634848.8	253248.17	-0.0002978319	253248.39	634849	-0.000519911
0	0.6340139	0.6340139	-5.952128e-10	0.052680116	0.052680116	0	12189.599	12189.598	-6.8445756e-06	635083.7	252535.58	-0.0002911585	252535.81	635083.8	-0.00020724826
0	0.6336753	0.6336753	-2.8111177e-10	0.052325986	0.052325986	0	12183.089	12183.088	-4.5193956e-06	635314.2	251830.95	-0.00017891875	251831.16	635314.4	-0.00015017361
0	0.6333307	0.63333076	-2.3016075e-10	0.051971667	0.051971667	0	12176.463	12176.464	-6.046197e-07	635549.06	251113.78	-2.5960657e-05	251113.92	635549.25	-1.8066406e-05
0	0.6329861	0.632986	-1.5811835e-10	0.05161957	0.05161957	0	12169.838	12169.838	-4.8783877e-06	635782.25	250398.12	-9.8397395e-05	250398.27	635782.5	-0.00025683595
0	0.63263893	0.632639	-2.3400912e-10	0.051265568	0.051265568	0	12163.165	12163.164	-7.371902e-06	636015.8	249678.6	-0.0002883789	249678.8	636015.94	-0.00024842666
0	0.63229126	0.63229126	-5.7973687e-10	0.05091117	0.05091117	0	12156.478	12156.477	-1.0029452e-05	636247.5	248960	-0.0003226618	248960.17	636247.7	-0.00040766058
0	0.6319394	0.6319395	-3.8019426e-10	0.05055905	0.05055905	0	12149.713	12149.714	-6.789646e-06	636482.2	248232.67	-0.00025132424	248232.84	636482.44	-0.00024308269
0	0.63158375	0.63158375	-2.6209607e-10	0.050205022	0.050205022	0	12142.877	12142.877	-1.3563892e-06	636718.94	247498.16	-7.435519e-05	247498.3	636719.1	-2.4414063e-05
0	0.63122994	0.63123006	-2.7556382e-10	0.04985065	0.04985065	0	12136.074	12136.075	-3.050285e-06	636951.5	246770.27	-0.00019775516	246770.4	636951.75	-2.435981e-05
0	0.63087004	0.6308701	-4.4373685e-10	0.049496647	0.049496647	0	12129.154	12129.156	-8.291952e-06	637189.1	246028.8	-0.00029051484	246028.94	637189.44	-0.00031328667
0	0.6305119	0.63051194	-4.681491e-10	0.04914451	0.04914451	0	12122.267	12122.268	-2.4176127e-06	637422.5	245294	-0.00019251111	245294.11	637422.6	1.6465929e-05
0	0.63014805	0.63014823	-4.2898995e-10	0.04879003	0.04879003	0	12115.275	12115.275	-7.13737e-06	637658.44	244548.83	-0.000247592	244548.95	637658.7	-0.00027213542
0	0.62978387	0.62978387	-3.7781264e-10	0.048436143	0.048436143	0	12108.269	12108.271	-7.301764e-06	637895	243802.22	-0.00026631737	243802.31	637895.25	-0.00026538086
0	0.6294148	0.6294148	-2.252211e-10	0.048083518	0.048083518	0	12101.175	12101.177	-4.6648956e-06	638133.6	243046.89	-0.000311367	243047	638133.9	-2.8320312e-05
0	0.62904775	0.62904793	-3.7364628e-10	0.047729515	0.047729515	0	12094.12	12094.122	-6.8493873e-06	638368	242298.77	-0.00034502996	242298.88	638368.25	-0.00015372722
0	0.6286738	0.62867385	-2.4999347e-10	0.04737567	0.04737567	0	12086.928	12086.932	-9.129025e-06	638607.7	241535.52	-0.0003867605	241535.55	638607.8	-0.00027799478
0	0.62830114	0.6283012	-3.873664e-10	0.047023006	0.047023006	0	12079.765	12079.768	-3.7586192e-06	638842.7	240778.81	-0.0001974953	240778.86	638842.94	-7.6199e-05
0	0.62792593	0.6279261	-3.766151e-10	0.04666901	0.04666901	0	12072.55	12072.553	-3.7115565e-06	639080.25	240015.98	-0.00021034434	240016.05	639080.56	-5.992296e-05
0	0.62754667	0.6275468	-3.5102798e-10	0.046315055	0.046315055	0	12065.26	12065.263	-8.684432e-06	639318.44	239246.9	-0.00017673323	239246.97	639318.6	-0.0004556478
0	0.6271655	0.6271657	-3.2140124e-10	0.04596245	0.04596245	0	12057.932	12057.935	-4.798897e-06	639557.2	238474.5	-0.00022468914	238474.5	639557.5	-0.00012475585
0	0.6267823	0.6267824	-3.2550349e-10	0.045608502	0.045608502	0	12050.5625	12050.565	-6.8020686e-06	639795.44	237699.72	-0.0002923764	237699.73	639795.75	-0.00020293512
0	0.6263944	0.6263946	-3.3560907e-10	0.045254562	0.045254562	0	12043.105	12043.109	-9.672569e-06	640036.94	236915.17	-0.00034032133	236915.25	640037.25	-0.0003640137
0	0.6260076	0.6260078	-2.290234e-10	0.044901803	0.044901803	0	12035.669	12035.673	-9.8785185e-06	640274	236136.61	-0.0002530232	236136.6	640274.3	-0.0004663086
0	0.6256162	0.62561643	-4.759019e-10	0.044547983	0.044547983	0	12028.143	12028.146	-9.525685e-06	640513.9	235348.83	-0.0003819801	235348.83	640514.1	-0.00031165907
0	0.6252219	0.6252222	-2.5560673e-10	0.044193532	0.044193532	0	12020.564	12020.568	-4.1432763e-06	640753.7	234557.06	-0.00017420852	234557.05	640754	-0.00012749566
0	0.62482744	0.62482756	-1.9285219e-10	0.043841247	0.043841247	0	12012.979	12012.982	-5.712562e-06	640993.7	233764.69	-0.00021125059	233764.72	640993.94	-0.00020472548
0	0.6244289	0.6244292	-2.9581426e-10	0.04348734	0.04348734	0	12005.317	12005.322	-4.352183e-06	641234.25	232966.27	-0.0002296496	232966.25	641234.6	-8.726671e-05
0	0.62402606	0.62402636	-2.871466e-10	0.043133043	0.043133043	0	11997.57	11997.576	-5.845378e-06	641477.3	232159.14	-0.00033078523	232159.12	641477.7	-9.48622e-05
0	0.62362194	0.6236223	-4.1062073e-10	0.042780712	0.042780712	0	11989.802	11989.808	-6.1749233e-06	641718.56	231352.16	-0.00024736012	231352.11	641718.94	-0.00020228408
0	0.62321764	0.623218	-2.0940638e-10	0.042426832	0.042426832	0	11982.029	11982.034	-4.18016e-06	641958	230546.8	-0.00014873674	230546.77	641958.3	-0.00015565321
0	0.6228093	0.6228097	-2.6461855e-10	0.042072512	0.042072512	0	11974.178	11974.183	-7.548675e-06	642199.1	229734.03	-0.00038542534	229733.94	642199.44	-0.00016425239
0	0.62239754	0.6223979	-2.6795832e-10	0.041718654	0.041718654	0	11966.26	11966.268	-6.0766247e-06	642441.2	228915.39	-0.0002993114	228915.31	642441.6	-0.00014317491
0	0.62198204	0.62198246	-3.7873826e-10	0.041366298	0.041366298	0	11958.273	11958.279	-9.3379585e-06	642685.8	228089.25	-0.00038599691	228089.14	642686.2	-0.00029397244
0	0.62156665	0.62156713	-3.4811354e-10	0.041011877	0.041011877	0	11950.288	11950.295	-8.043819e-06	642926.4	227267.12	-0.00039606285	227266.97	642926.75	-0.00018967014
0	0.621147	0.62114733	-3.9192108e-10	0.04065816	0.04065816	0	11942.218	11942.225	-6.1519836e-06	643169.25	226436.58	-0.00031369642	226436.47	643169.7	-0.00013427735
0	0.6207236	0.620724	-2.4761407e-10	0.040305205	0.040305205	0	11934.079	11934.087	-8.408419e-06	643414.44	225598.92	-0.0003372715	225598.78	643414.7	-0.00027501085
0	0.62030065	0.6203011	-4.0457082e-10	0.039951347	0.039951347	0	11925.947	11925.955	-5.8667943e-06	643655.44	224765.7	-0.00031647558	224765.55	643655.8	-0.00011073134
0	0.6198722	0.6198727	-4.5439583e-10	0.039597534	0.039597534	0	11917.708	11917.718	-8.620798e-06	643899.25	223922.03	-0.0003859668	223921.83	643899.75	-0.0002417806
0	0.6194419	0.61944246	-1.6637398e-10	0.039244674	0.039244674	0	11909.436	11909.443	-4.9286637e-06	644143.3	223075.48	-0.00027876196	223075.27	644143.8	-8.013238e-05
0	0.61900747	0.619008	-3.01648e-10	0.038890842	0.038890842	0	11901.084	11901.093	-3.8034843e-06	644389.75	222220.94	-0.00020409886	222220.75	644390.2	-7.2862415e-05
0	0.6185713	0.6185717	-4.744087e-10	0.038537055	0.038537055	0	11892.697	11892.706	-7.670614e-06	644634.2	221365.81	-0.00025612104	221365.56	644634.6	-0.00030243598
0	0.61813235	0.6181329	-2.7939473e-10	0.038184114	0.038184114	0	11884.259	11884.268	-4.3406167e-06	644879.2	220506.38	-0.00018795446	220506.12	644879.6	-0.00012811957
0	0.61769056	0.61769104	-2.403375e-10	0.037830334	0.037830334	0	11875.764	11875.774	-3.5357116e-06	645124.1	219642.94	-0.00037421612	219642.67	645124.56	0.00011675347
0	0.61724573	0.61724615	-2.2257152e-10	0.037476543	0.037476543	0	11867.21	11867.221	-3.8049402e-06	645369.6	218774.58	-0.00019072292	218774.3	645370.06	-8.63444e-05
0	0.61679953	0.61680007	-3.8903678e-10	0.03712342	0.03712342	0	11858.633	11858.644	-4.6907708e-06	645613.3	217906.2	-0.00028438834	217905.92	645613.8	-5.718316e-05
0	0.6163472	0.6163478	-3.6182005e-10	0.0367698	0.0367698	0	11849.9375	11849.948	-7.184562e-06	645859.3	217027.11	-0.00015207012	217026.81	645859.8	-0.00037109375
0	0.6158934	0.61589396	-2.0003127e-10	0.03641543	0.03641543	0	11841.213	11841.224	-4.6959967e-06	646107.4	216143.77	-0.00020580296	216143.45	646107.94	-0.00013614909
0	0.615439	0.61543953	-3.410107e-10	0.036062844	0.036062844	0	11832.478	11832.488	-7.16068e-06	646351.1	215263.84	-0.00030034196	215263.52	646351.7	-0.0002210829
0	0.614979	0.6149797	-2.0749608e-10	0.03570913	0.03570913	0	11823.632	11823.6455	-3.0522679e-06	646598.44	214372.61	-0.00021385007	214372.23	646599	-8.409288e-06
0	0.61451435	0.61451495	-1.9343767e-10	0.035354927	0.035354927	0	11814.699	11814.711	-4.4973654e-06	646847.6	213472.84	-0.0002875576	213472.47	646848.2	-3.9930557e-05
0	0.61405045	0.61405116	-3.014695e-10	0.0350023	0.0350023	0	11805.779	11805.793	-5.0570147e-06	647092.56	212578.45	-0.00032651966	212578.06	647093.1	-4.172092e-05
0	0.61357963	0.6135803	-3.0768435e-10	0.034648612	0.034648612	0	11796.726	11796.738	-8.047679e-06	647342.25	211669.56	-0.00038421835	211669.16	647342.8	-0.00020179579
0	0.61310697	0.6131077	-3.3837508e-10	0.034294393	0.034294393	0	11787.641	11787.654	-8.785784e-06	647590.3	210760	-0.00029525172	210759.56	647590.8	-0.00034450955
0	0.6126328	0.61263365	-4.0747172e-10	0.033940747	0.033940747	0	11778.524	11778.537	-7.19149e-06	647837.94	209848.6	-0.00028354247	209848.16	647838.4	-0.00024012587
0	0.61215454	0.6121551	-2.3617783e-10	0.03358806	0.03358806	0	11769.327	11769.341	-4.6138266e-06	648086.25	208930.47	-0.00015074725	208930.02	648086.75	-0.00018522136
0	0.6116741	0.6116748	-2.45169e-10	0.03323373	0.03323373	0	11760.091	11760.106	-4.3132573e-06	648332.9	208011.34	-0.0002638702	208010.86	648333.5	-5.0211587e-05
0	0.61118764	0.6111884	-2.8311803e-10	0.032880254	0.032880254	0	11750.739	11750.753	-3.7033278e-06	648583.6	207079.62	-0.00013319349	207079.11	648584.2	-0.00013647461
0	0.6107014	0.61070216	-2.2712737e-10	0.032526825	0.032526825	0	11741.389	11741.405	-3.7748948e-06	648830.3	206152.14	-0.00025599924	206151.56	648830.94	-1.8880208e-05
0	0.6102093	0.6102102	-4.5427068e-10	0.03217318	0.03217318	0	11731.93	11731.944	-5.307863e-06	649079.75	205213.78	-0.0002880096	205213.23	649080.4	-9.849718e-05
0	0.6097128	0.6097137	-1.6978723e-10	0.031819604	0.031819604	0	11722.384	11722.4	-4.101086e-06	649331.8	204266.62	-0.00018738522	204266.06	649332.5	-0.00011124674
0	0.60921675	0.6092176	-2.2623206e-10	0.03146628	0.03146628	0	11712.847	11712.864	-5.2066093e-06	649579	203325.06	-0.00016494103	203324.47	649579.6	-0.00021419271
0	0.6087134	0.60871434	-4.2400986e-10	0.031112675	0.031112675	0	11703.169	11703.1875	-1.0245036e-05	649829.8	202369.6	-0.00033692247	202369	649830.44	-0.0004090983
0	0.6082089	0.6082097	-2.634451e-10	0.03075914	0.03075914	0	11693.469	11693.486	-7.0180117e-06	650080.1	201412.98	-0.00032247807	201412.31	650080.75	-0.00018855794
0	0.6077012	0.60770214	-4.271036e-10	0.030405685	0.030405685	0	11683.706	11683.725	-5.7866464e-06	650330.5	200451.8	-0.00037224422	200451.11	650331.1	-4.912652e-05
0	0.6071888	0.60718983	-2.625531e-10	0.030052165	0.030052165	0	11673.856	11673.875	-5.1147667e-06	650581.3	199483.62	-0.00020694573	199482.94	650582.06	-0.00016550021
0	0.60667163	0.6066727	-5.440483e-10	0.02969863	0.02969863	0	11663.913	11663.933	-8.902308e-06	650834.75	198506.23	-0.00041300323	198505.5	650835.44	-0.00023524306
0	0.60615456	0.6061556	-4.0651932e-10	0.029344937	0.029344937	0	11653.972	11653.992	-6.359325e-06	651083.44	197533.61	-0.000325458	197532.9	651084.1	-0.00013761393
0	0.60562944	0.6056305	-4.3236356e-10	0.028991615	0.028991615	0	11643.877	11643.898	-2.706382e-06	651336.1	196545.88	-0.00022151391	196545.11	651336.8	2.444119e-05
0	0.6051044	0.6051054	-2.7448382e-10	0.02863734	0.02863734	0	11633.781	11633.802	-3.3018205e-06	651588	195558.89	-0.000244663	195558.1	651588.7	4.2317706e-06
0	0.6045745	0.6045755	-2.7628735e-10	0.02828432	0.02828432	0	11623.594	11623.615	-3.902037e-06	651839.9	194565.28	-0.00020229633	194564.45	651840.56	-8.184136e-05
0	0.60404134	0.6040425	-4.8703686e-10	0.027930891	0.027930891	0	11613.342	11613.364	-1.0846496e-05	652091.94	193566.77	-0.000543941	193565.92	652092.6	-0.00024587673
0	0.60350317	0.60350424	-3.7761122e-10	0.027576853	0.027576853	0	11602.995	11603.019	-6.8894165e-06	652344.75	192560.4	-0.00032968848	192559.56	652345.56	-0.00017198351
0	0.60296196	0.60296315	-2.229235e-10	0.027223745	0.027223745	0	11592.592	11592.614	-5.0510985e-06	652598	191549.61	-0.00020030218	191548.7	652598.8	-0.00016750759
0	0.6024147	0.6024159	-3.0400624e-10	0.026870366	0.026870366	0	11582.07	11582.092	-4.8791962e-06	652853.56	190527.84	-0.0003092853	190526.92	652854.44	-4.6006946e-05
0	0.60186756	0.6018688	-2.1509054e-10	0.026516303	0.026516303	0	11571.551	11571.575	-1.7577986e-06	653104.94	189510.6	-0.00014053154	189509.67	653105.75	1.2532552e-05
0	0.60131437	0.6013156	-3.2691466e-10	0.026162993	0.026162993	0	11560.914	11560.939	-6.8262825e-06	653358.8	188482.27	-0.0004053321	188481.27	653359.56	-9.174262e-05
0	0.60075563	0.60075694	-3.658745e-10	0.025809785	0.025809785	0	11550.172	11550.197	-5.4570796e-06	653615.1	187443.8	-0.00023176368	187442.8	653615.94	-0.00016560873
0	0.60019684	0.60019815	-4.111619e-10	0.025455585	0.025455585	0	11539.43	11539.454	-8.479328e-06	653866.75	186409.69	-0.00037517693	186408.66	653867.75	-0.00024226888
0	0.59963083	0.59963214	-4.0008363e-10	0.025102511	0.025102511	0	11528.547	11528.573	-6.0373227e-06	654122.06	185362.19	-0.00024157211	185361.12	654122.94	-0.0001980523
0	0.59906226	0.5990636	-3.0787708e-10	0.024748323	0.024748323	0	11517.616	11517.643	-5.2482364e-06	654377.06	184311.22	-0.00016124475	184310.12	654377.9	-0.00022092013
0	0.5984873	0.5984887	-5.0373955e-10	0.024395015	0.024395015	0	11506.561	11506.588	-6.2713575e-06	654634.44	183248.89	-0.0002613267	183247.8	654635.3	-0.00019533963
0	0.5979101	0.5979115	-1.5877624e-10	0.024041759	0.024041759	0	11495.463	11495.49	-6.3914617e-06	654889.75	182185.4	-0.00033143308	182184.23	654890.75	-0.00013397895
0	0.59732753	0.5973291	-4.1364298e-10	0.023687836	0.023687836	0	11484.263	11484.291	-6.243384e-06	655145.9	181113.88	-0.00035681037	181112.69	655146.75	-9.781901e-05
0	0.5967421	0.5967437	-3.0853214e-10	0.023334505	0.023334505	0	11473.009	11473.037	-7.0329797e-06	655402.1	180038.05	-0.00039276833	180036.81	655403.1	-0.00011935764
0	0.59615266	0.5961542	-3.9979792e-10	0.022981225	0.022981225	0	11461.675	11461.705	-6.736268e-06	655656.56	178958.4	-0.00032431458	178957.17	655657.5	-0.00016620551
0	0.5955574	0.595559	-1.5277703e-10	0.022627281	0.022627281	0	11450.231	11450.262	-2.2289532e-06	655915.2	177866.53	-7.854006e-05	177865.25	655916.06	-8.376736e-05
0	0.5949603	0.59496194	-3.9849946e-10	0.022273991	0.022273991	0	11438.75	11438.783	-7.871356e-06	656169.75	176776	-0.0004005401	176774.66	656170.75	-0.00017263455
0	0.594356	0.5943576	-3.5287306e-10	0.021920623	0.021920623	0	11427.133	11427.163	-8.995217e-06	656427.56	175672.2	-0.00039459503	175670.81	656428.5	-0.00026041668
0	0.59374875	0.59375054	-2.4463287e-10	0.021566521	0.021566521	0	11415.459	11415.491	-6.689159e-06	656684.8	174564.92	-0.00033474597	174563.5	656685.9	-0.00015234375
0	0.5931357	0.59313756	-3.5409248e-10	0.021213416	0.021213416	0	11403.673	11403.706	-6.9662447e-06	656943.25	173448.3	-0.00043022653	173446.86	656944.3	-7.703993e-05
0	0.59251887	0.59252065	-2.4602853e-10	0.020859327	0.020859327	0	11391.811	11391.847	-7.3485703e-06	657201.75	172326.25	-0.00031820123	172324.77	657202.75	-0.00021690538
0	0.591895	0.59189683	-1.4147535e-10	0.020505939	0.020505939	0	11379.817	11379.853	-6.36184e-06	657462.8	171191.73	-0.00017554886	171190.22	657463.8	-0.00028770615
0	0.5912705	0.59127235	-3.340798e-10	0.020152602	0.020152602	0	11367.812	11367.848	-4.7742697e-06	657719.2	170061.2	-0.00034070725	170059.62	657720.2	-6.9444445e-06
0	0.59063876	0.5906407	-2.6211916e-10	0.019798767	0.019798767	0	11355.666	11355.701	-4.690043e-06	657979	168916.81	-0.00016215658	168915.22	657980.2	-0.00017936197
0	0.59000254	0.5900045	-3.0110056e-10	0.019445421	0.019445421	0	11343.432	11343.471	-5.7306547e-06	658239.06	167766.22	-0.00029988904	167764.58	658240.06	-0.00011740452
0	0.5893609	0.589363	-4.143608e-10	0.019092057	0.019092057	0	11331.096	11331.136	-7.986548e-06	658499.2	166607.7	-0.0002916321	166606.02	658500.4	-0.00028993055
0	0.5887128	0.58871484	-4.0574466e-10	0.018738272	0.018738272	0	11318.635	11318.676	-5.217807e-06	658762.44	165437.22	-0.00035830197	165435.48	658763.56	-2.1647136e-05
0	0.5880627	0.58806485	-2.2533664e-10	0.0183849	0.0183849	0	11306.138	11306.178	-4.336181e-06	659021.4	164268.2	-0.0001457207	164266.39	659022.6	-0.00017003038
0	0.5874068	0.58740896	-4.033308e-10	0.018031422	0.018031422	0	11293.528	11293.568	-5.6875383e-06	659282.6	163088.88	-0.00023511743	163087.02	659283.75	-0.00017903646
0	0.586743	0.58674514	-3.8412634e-10	0.017677464	0.017677464	0	11280.764	11280.805	-9.065251e-06	659547.1	161894.86	-0.00044505065	161892.95	659548.25	-0.00021506076
0	0.5860759	0.5860782	-4.169813e-10	0.017324306	0.017324306	0	11267.939	11267.982	-6.7406e-06	659809.56	160698.7	-0.00025163192	160696.78	659810.75	-0.00023920355
0	0.58540523	0.58540744	-2.9266897e-10	0.016970374	0.016970374	0	11255.044	11255.088	-6.387957e-06	660070.3	159498.97	-0.000468195	159496.98	660071.56	3.0381943e-06
0	0.5847257	0.58472806	-2.778736e-10	0.016616864	0.016616864	0	11241.98	11242.025	-3.377696e-06	660335.94	158282.05	-0.00020005788	158279.98	660337.2	-4.5898436e-05
0	0.58404446	0.5840469	-4.126693e-10	0.016263412	0.016263412	0	11228.881	11228.928	-7.6018637e-06	660597	157067.31	-0.0003826524	157065.22	660598.2	-0.00017089843
0	0.5833533	0.5833557	-3.4759592e-10	0.015909802	0.015909802	0	11215.594	11215.641	-6.878311e-06	660864.4	155832.38	-0.00025189415	155830.2	660865.56	-0.00024896918
0	0.5826581	0.5826606	-4.6493828e-10	0.015556337	0.015556337	0	11202.229	11202.277	-8.268683e-06	661129.3	154594.27	-0.00047971128	154592.03	661130.7	-0.00012239584
0	0.58196056	0.5819631	-1.3714066e-10	0.015202843	0.015202843	0	11188.817	11188.867	-6.0286106e-06	661391.8	153355.2	-0.00018432424	153352.94	661393.2	-0.0002546658
0	0.581254	0.5812567	-1.7158781e-10	0.014849315	0.014849315	0	11175.233	11175.282	-4.473213e-06	661658.3	152099.67	-0.00014750677	152097.34	661659.56	-0.00017822266
0	0.5805419	0.5805446	-4.040029e-10	0.014495808	0.014495808	0	11161.542	11161.596	-6.9820294e-06	661924.8	150836.28	-0.00032590717	150833.89	661926.25	-0.00018250868
0	0.5798235	0.5798263	-3.5837835e-10	0.01414216	0.01414216	0	11147.7295	11147.783	-5.849164e-06	662192.1	149563.28	-0.00038751168	149560.83	662193.5	-3.8411457e-05
0	0.57909656	0.5790993	-1.656377e-10	0.013788426	0.013788426	0	11133.752	11133.807	-5.593425e-06	662463.3	148274.27	-0.00025891754	148271.73	662464.8	-0.00014838325
0	0.578368	0.57837087	-3.2659692e-10	0.013435183	0.013435183	0	11119.745	11119.8	-6.579384e-06	662729.2	146988.39	-0.0004386773	146985.81	662730.75	-4.0418836e-05
0	0.57763064	0.5776336	-1.6679876e-10	0.013081497	0.013081497	0	11105.57	11105.627	-6.258006e-06	662999	145686.67	-0.0003392119	145683.98	663000.4	-0.0001164822
0	0.5768878	0.5768908	-2.4585944e-10	0.012727792	0.012727792	0	11091.287	11091.346	-9.481704e-06	663268.9	144376.84	-0.00047646093	144374.1	663270.3	-0.0002139757
0	0.5761368	0.57614	-1.8321199e-10	0.012374162	0.012374162	0	11076.85	11076.909	-4.949667e-06	663539.8	143054.52	-0.00035320804	143051.72	663541.4	-7.215712e-06
0	0.5753797	0.57538295	-2.497563e-10	0.012020879	0.012020879	0	11062.294	11062.354	-8.735589e-06	663811.7	141722.77	-0.00045544212	141719.89	663813.4	-0.00018066406
0	0.574616	0.5746192	-4.0504367e-10	0.0116672525	0.0116672525	0	11047.609	11047.672	-2.2071065e-06	664084.5	140380.83	-0.00020894792	140377.88	664086.06	4.8231337e-05
0	0.5738422	0.5738455	-2.3877286e-10	0.0113136405	0.0113136405	0	11032.732	11032.797	-8.230019e-06	664360.94	139021.14	-0.00031847574	139018.12	664362.56	-0.00028081596
0	0.5730665	0.5730699	-3.8318326e-10	0.010960312	0.010960312	0	11017.818	11017.884	-5.603552e-06	664632.7	137663.47	-0.0002745204	137660.38	664634.3	-0.0001335178
0	0.5722783	0.5722817	-3.294141e-10	0.010606708	0.010606708	0	11002.666	11002.732	-5.6608287e-06	664911.3	136281.55	-0.0002822719	136278.34	664913.06	-0.00012993706
0	0.57148796	0.5714915	-3.0072095e-10	0.010252969	0.010252969	0	10987.469	10987.537	-7.898528e-06	665185.06	134901.36	-0.0003262383	134898.06	665186.75	-0.00024891493
0	0.57068455	0.57068825	-4.084437e-10	0.009899383	0.009899383	0	10972.025	10972.094	-8.762287e-06	665465.94	133495.92	-0.00045342566	133492.55	665467.56	-0.00018462457
0	0.5698788	0.5698826	-3.4374145e-10	0.009546028	0.009546028	0	10956.533	10956.604	-8.883772e-06	665741.7	132092.22	-0.00043064225	132088.77	665743.5	-0.00021625434
0	0.56905955	0.5690635	-2.4560265e-10	0.00919245	0.00919245	0	10940.781	10940.8545	-7.0680676e-06	666025	130662	-0.00033949647	130658.414	666026.75	-0.00017518447
0	0.56823784	0.5682419	-3.242271e-10	0.008838732	0.008838732	0	10924.984	10925.059	-7.9940855e-06	666303.2	129233.51	-0.00040828343	129229.82	666304.94	-0.00017382813
0	0.5674016	0.5674055	-3.916768e-10	0.008485187	0.008485187	0	10908.904	10908.981	-5.7926236e-06	666589.5	127776.414	-0.00040368532	127772.62	666591.4	-1.812066e-05
0	0.56656176	0.5665659	-4.2610782e-10	0.008131706	0.008131706	0	10892.759	10892.838	-7.222552e-06	666871.25	126319.05	-0.00026811776	126315.18	666873.3	-0.0002578125
0	0.5657122	0.56571645	-2.9795003e-10	0.0077781687	0.0077781687	0	10876.425	10876.506	-8.317035e-06	667156.6	124844.484	-0.00043228816	124840.51	667158.56	-0.00017333984
0	0.5648521	0.56485647	-3.2774955e-10	0.0074246577	0.0074246577	0	10859.888	10859.972	-3.5113567e-06	667444.7	123352.35	-0.0002799405	123348.234	667446.7	2.4251302e-05
0	0.56398296	0.5639875	-3.2724748e-10	0.00707108	0.00707108	0	10843.178	10843.264	-7.863664e-06	667733.94	121846.445	-0.00038961758	121842.19	667736	-0.00018299696