//mumax 3.10 [windows_amd64 go1.11.6(gc) CUDA-11.0]
//GPU info: NVIDIA GeForce RTX 3090(24575MB), CUDA Driver 12.1, cc=8.6, using cc=80 PTX
//(c) Arne Vansteenkiste, Dynamat LAB, Ghent University, Belgium
//This is free software without any warranty. See license.txt
//********************************************************************//
//  If you use mumax in any work or publication,                      //
//  we kindly ask you to cite the references in references.bib        //
//********************************************************************//
//output directory: r1;p0.8;a3.2e-07;l2.3000000000000002e-07;s4.out/
randSeed(4)
ThermSeed(4)
resolution := 2e-09
zResolution := 5e-09
a := 3.2e-07
gridSize := 320
gridDepth := 5
SetCellsize(resolution, resolution, zResolution)
SetGridsize(gridSize, gridSize, gridDepth)
SetPBC(16, 16, 0)
//resizing...
Msat = 700e3
Aex = 13e-12
alpha = 0.2
Bmax := 0.1
Bstep := Bmax / 500.0
TableAdd(B_ext)
TableAdd(m_full)
islandWidth := 8e-08
islandLength := 2.3000000000000002e-07
ellipseConstant := 9.200000000000002e-08
hIsland := Universe().Inverse()
vIsland := Universe().Inverse()
vIslands := Universe().Inverse()
hIslands := Universe().Inverse()
hIsland = rect(islandLength-2*ellipseConstant, islandWidth)
hIsland = hIsland.add(ellipse(ellipseConstant*2, islandWidth).transl(islandLength/2-ellipseConstant, 0, 0))
hIsland = hIsland.add(ellipse(ellipseConstant*2, islandWidth).transl(-islandLength/2+ellipseConstant, 0, 0))
hIsland = hIsland.add(rect(5.5796499325661e-09, 1.3049712413315048e-09).transl(-4.199843641411471e-08, -3.913782397339154e-08, 0))
hIsland = hIsland.add(rect(4.4310144151149875e-09, 2.728534419537163e-09).transl(-1.0824372411180899e-08, -4e-08, 0))
hIsland = hIsland.add(rect(5.224830079684542e-09, 1.3650261976133176e-09).transl(6.108437787354705e-08, -3.6411791443717917e-08, 0))
hIsland = hIsland.add(rect(2.1960875558188447e-09, 5.82282156140414e-10).transl(5.3014359345843876e-08, -3.781143702577777e-08, 0))
hIsland = hIsland.sub(rect(5.923715989592502e-09, -1.4081492584333356e-09).transl(1.0868324983561515e-07, -1.4566065501638594e-08, 0))
hIsland = hIsland.add(rect(8.59337063237909e-09, 2.0190635728902053e-09).transl(5.620403848733175e-08, -3.7303972401404174e-08, 0))
hIsland = hIsland.sub(rect(4.508189857248225e-09, -5.253039607017927e-10).transl(-1.0788296136019309e-07, -1.5426408449201067e-08, 0))
hIsland = hIsland.sub(rect(7.217138369836603e-09, -5.989527875558674e-11).transl(2.6589205999847964e-08, -3.996954795541286e-08, 0))
hIsland = hIsland.add(rect(5.7864001647452346e-09, 2.7820945311593085e-09).transl(-3.0691840649089033e-08, -3.985995234601116e-08, 0))
hIsland = hIsland.sub(rect(7.904891099572272e-09, -8.062897515760767e-10).transl(-1.0051925006938985e-07, -2.154156253790695e-08, 0))
hIsland = hIsland.sub(rect(8.801883807967165e-09, -1.2422978001902983e-09).transl(-8.286136665417082e-08, -3.037452663184534e-08, 0))
hIsland = hIsland.sub(rect(5.305020274563916e-09, -1.7735021435004806e-09).transl(9.406435575005334e-08, -2.5403575585334883e-08, 0))
hIsland = hIsland.sub(rect(2.3898031185739824e-09, -2.029766018147446e-10).transl(2.0428431948478647e-08, -4e-08, 0))
hIsland = hIsland.sub(rect(6.211279207604788e-09, -2.9101079192971544e-09).transl(-3.387407536682608e-08, -3.9719609145179884e-08, 0))
hIsland = hIsland.add(rect(9.912818871268172e-09, 2.2499521859397824e-09).transl(-6.43443733083817e-08, -3.573331909733731e-08, 0))
hIsland = hIsland.add(rect(5.978709597410339e-09, 1.269917081909143e-09).transl(-3.903499428689363e-08, -3.938775048326816e-08, 0))
hIsland = hIsland.sub(rect(4.849136779758899e-09, -1.944895794764654e-09).transl(9.523210398846132e-08, -2.4773160492637427e-08, 0))
hIsland = hIsland.add(rect(2.187501357753431e-09, 2.846142907630532e-09).transl(1.9394938164135566e-08, -4e-08, 0))
hIsland = hIsland.add(rect(2.0047758001827954e-09, 2.961186913570827e-10).transl(-4.8432685034378066e-08, -3.844122150457899e-08, 0))
hIsland = hIsland.sub(rect(4.79239948268654e-09, -1.4907538954928705e-09).transl(7.69519564681308e-08, -3.239987162236498e-08, 0))
hIsland = hIsland.sub(rect(8.696795278860529e-09, -1.9773044474469243e-10).transl(-1.1193124780404377e-07, -1.0244950473814847e-08, 0))
hIsland = hIsland.sub(rect(3.207302011192675e-09, -3.785390515140016e-12).transl(-1.0527501579321991e-07, -1.7899223120638084e-08, 0))
hIsland = hIsland.add(rect(6.1256759721161624e-09, 7.355967312770058e-10).transl(-4.9832675927659624e-08, -3.826088809920795e-08, 0))
hIsland = hIsland.sub(rect(8.277377047486951e-09, -2.890074631207735e-09).transl(7.838644679927845e-08, -3.193904139167354e-08, 0))
hIsland = hIsland.sub(rect(9.399692408821657e-09, -2.825067843625429e-09).transl(-1.0911662113761558e-08, -4e-08, 0))
hIsland = hIsland.sub(rect(4.542031305788706e-09, -4.296728916894401e-09).transl(-6.713380861558015e-08, -3.50969678543281e-08, 0))
hIsland = hIsland.add(rect(5.190932586543955e-09, 3.393597089194602e-09).transl(-5.207843261970802e-09, -4e-08, 0))
hIsland = hIsland.add(rect(4.291041345019589e-09, 1.3323813001578998e-09).transl(5.885766968212982e-08, -3.683670481130025e-08, 0))
hIsland = hIsland.sub(rect(3.983971125758325e-09, -1.3221043849071436e-09).transl(-2.042460886695472e-08, -4e-08, 0))
hIsland = hIsland.sub(rect(7.925236975855044e-09, -3.9704363849046294e-10).transl(2.0981496322782677e-08, -4e-08, 0))
hIsland = hIsland.add(rect(8.509718328292271e-09, 1.537462535406783e-09).transl(-4.84521763967975e-08, -3.8438782785802697e-08, 0))
hIsland = hIsland.add(rect(8.087478867323138e-09, 2.7270566943764214e-09).transl(7.145708816988075e-08, -3.400186419357417e-08, 0))
hIsland = hIsland.add(rect(2.8450354258555423e-09, 1.2447448273634852e-09).transl(-3.561419745493105e-08, -3.9622228448850934e-08, 0))
hIsland = hIsland.sub(rect(7.476339482130271e-09, -5.038665863451422e-09).transl(7.515968674376004e-08, -3.2950002449127515e-08, 0))
hIsland = hIsland.sub(rect(7.703652238497144e-09, -3.7227423522949045e-09).transl(-1.9982113593742713e-08, -4e-08, 0))
hIsland = hIsland.add(rect(2.1393966747893283e-09, 3.115853148221712e-10).transl(4.518762433154204e-08, -3.881931711397244e-08, 0))
hIsland = hIsland.sub(rect(3.58291565231455e-09, -8.637399770383732e-10).transl(-7.089293770378965e-08, -3.415262783884794e-08, 0))
hIsland = hIsland.add(rect(8.984908897279662e-09, 1.5868413055461493e-09).transl(-7.486001620694282e-08, -3.30392981309522e-08, 0))
hIsland = hIsland.add(rect(6.191821697598555e-09, 3.930480633397194e-09).transl(-5.764875134670466e-08, -3.705476463630848e-08, 0))
hIsland = hIsland.add(rect(9.675784446286432e-09, 2.0103909006788931e-10).transl(4.808789008118652e-08, -3.84840275002714e-08, 0))
hIsland = hIsland.add(rect(9.967666652243303e-09, 1.3545283350838933e-09).transl(7.541263172058408e-08, -3.2874039366882716e-08, 0))
hIsland = hIsland.sub(rect(7.319694258703126e-09, -8.65812299499212e-10).transl(-1.0814491707113201e-07, -1.5151054770909115e-08, 0))
hIsland = hIsland.add(rect(2.4297631258192594e-09, 9.812396964754484e-12).transl(-5.3114773750550435e-08, -3.779634113265092e-08, 0))
hIsland = hIsland.add(rect(6.624850605032055e-09, 3.5990024929440634e-09).transl(-2.5143597793720572e-08, -3.9989140748308716e-08, 0))
hIsland = hIsland.sub(rect(5.8994408259302456e-09, -1.9723320405160184e-09).transl(4.5023122816568333e-08, -3.883702086027927e-08, 0))
hIsland = hIsland.add(rect(9.303467172165448e-09, 2.827955740579619e-09).transl(3.952146317282332e-08, -3.9349726724764155e-08, 0))
hIsland = hIsland.add(rect(3.4575101040428254e-09, 9.708673412305744e-10).transl(-6.210659557994353e-08, -3.6206387446128827e-08, 0))
hIsland = hIsland.add(rect(7.027915141724491e-09, 1.5455123112498417e-09).transl(1.3462569072510088e-08, -4e-08, 0))
hIsland = hIsland.add(rect(6.568290932848444e-09, 7.198160403966007e-10).transl(3.978238058716976e-08, -3.932884889916009e-08, 0))
hIsland = hIsland.sub(rect(5.924793083143295e-09, -4.289086187479599e-09).transl(-8.688822063016673e-08, -2.8782133401799907e-08, 0))
hIsland = hIsland.add(rect(8.397212925648046e-09, 7.484570410976136e-10).transl(4.2615290287421924e-08, -3.908025861977262e-08, 0))
hIsland = hIsland.sub(rect(4.168433903121195e-09, -2.2038775048752872e-09).transl(9.385762255719169e-08, -2.5512506016472775e-08, 0))
hIsland = hIsland.sub(rect(3.981219172464348e-09, -5.173708903181578e-09).transl(6.060562108558062e-08, -3.65057347509997e-08, 0))
hIsland = hIsland.add(rect(5.5751494501417415e-09, 3.4328801389931456e-10).transl(-2.6637236301892017e-08, -3.996872717041064e-08, 0))
hIsland = hIsland.add(rect(8.119100850075753e-09, 5.986124033206366e-10).transl(1.0016330351174388e-08, -4e-08, 0))
hIsland = hIsland.add(rect(9.890566345202605e-09, 7.911996703515028e-10).transl(-9.037721270632369e-08, -2.7236662187094724e-08, 0))
hIsland = hIsland.sub(rect(4.703746710912672e-09, -2.551919577772828e-10).transl(1.8428973395895385e-08, -4e-08, 0))
hIsland = hIsland.sub(rect(9.243487075695548e-09, -2.2356231679807115e-09).transl(4.9053010974517275e-08, -3.8362613286117575e-08, 0))
hIsland = hIsland.sub(rect(6.684839213644141e-09, -7.580069713332827e-10).transl(3.571133095799818e-08, -3.9616359839981935e-08, 0))
hIsland = hIsland.sub(rect(8.014718675572398e-09, -3.3452470953259193e-09).transl(1.0729284780946974e-08, -4e-08, 0))
hIsland = hIsland.sub(rect(6.063042285849984e-09, -7.368186603624536e-10).transl(9.105082992597899e-08, -2.6918221551407137e-08, 0))
hIsland = hIsland.sub(rect(6.8212650971280335e-09, -4.1925524212662e-09).transl(1.700790518885705e-08, -4e-08, 0))
hIsland = hIsland.add(rect(5.885641467744278e-09, 3.8834941638912554e-10).transl(9.795297338186033e-08, -2.319495651627113e-08, 0))
hIsland = hIsland.sub(rect(8.561655939512641e-09, -2.8121972887753976e-09).transl(-1.0087769178573569e-07, -2.1295761899543148e-08, 0))
hIsland = hIsland.add(rect(2.366618518757166e-09, 2.8270534245265544e-09).transl(-9.309218130151868e-08, -2.590912620083037e-08, 0))
hIsland = hIsland.sub(rect(8.781663752904152e-09, -2.3070734301182766e-09).transl(-4.654506035961045e-08, -3.8667870174967094e-08, 0))
hIsland = hIsland.add(rect(3.91797600834419e-09, 4.16452849318202e-09).transl(-1.0501400162236657e-07, -1.812424843829437e-08, 0))
hIsland = hIsland.sub(rect(4.158736254056229e-09, -2.8155662370654695e-10).transl(8.779808541388515e-09, -4e-08, 0))
hIsland = hIsland.add(rect(8.593468081547933e-09, 6.290971435618233e-09).transl(2.3827460879451644e-08, -3.999838207619439e-08, 0))
hIsland = hIsland.add(rect(2.777933090506805e-09, 9.64089523443236e-10).transl(-7.066918590608704e-08, -3.4211752242511756e-08, 0))
hIsland = hIsland.add(rect(6.691712174004369e-09, 2.0758265414111264e-09).transl(-7.745523519919394e-08, -3.2240317370628955e-08, 0))
hIsland = hIsland.sub(rect(2.175701437364098e-09, -1.4023351549827047e-09).transl(3.7998867204704665e-09, -4e-08, 0))
hIsland = hIsland.add(rect(6.958249337256248e-09, 3.134675299582567e-09).transl(-1.0408220260535372e-07, -1.890017763623813e-08, 0))
hIsland = hIsland.add(rect(8.27919721659291e-09, 2.4560515438106054e-09).transl(2.8756492256592783e-08, -3.9921621690895294e-08, 0))
hIsland = hIsland.add(rect(3.1313140528388566e-09, 1.7481045760749634e-10).transl(1.9740909114956352e-08, -4e-08, 0))
hIsland = hIsland.sub(rect(7.723508526471223e-09, -1.882551023012718e-09).transl(1.0459100712573356e-07, -1.8481624022375357e-08, 0))
hIsland = hIsland.add(rect(6.319123557623467e-09, 6.964814842038658e-10).transl(2.1421375013646522e-08, -4e-08, 0))
hIsland = hIsland.sub(rect(4.644320946679618e-09, -3.3906257168239187e-09).transl(1.3981842131241252e-08, -4e-08, 0))
hIsland = hIsland.add(rect(9.610368571684355e-09, 6.79457435840368e-11).transl(1.0253333879323451e-07, -2.010580717398115e-08, 0))
hIsland = hIsland.add(rect(4.8125481263987005e-09, 9.492487553596026e-10).transl(-2.1698214194572437e-08, -4e-08, 0))
hIsland = hIsland.sub(rect(7.712704195022925e-09, -3.4822393551547447e-09).transl(-1.8065612601066497e-08, -4e-08, 0))
hIsland = hIsland.sub(rect(9.728595451871211e-09, -2.516692048937468e-10).transl(6.546105543184555e-08, -3.548491724538554e-08, 0))
hIsland = hIsland.sub(rect(2.1176948595010175e-09, -1.2836882819431194e-09).transl(-3.621686915279323e-08, -3.9585074734535256e-08, 0))
hIsland = hIsland.add(rect(6.969230547734225e-09, 3.4621554517444017e-09).transl(-6.218168996096055e-08, -3.6191036843241695e-08, 0))
hIsland = hIsland.sub(rect(5.8292021852045045e-09, -1.5559271335253222e-09).transl(-1.0113050018975789e-07, -2.1119987308535764e-08, 0))
hIsland = hIsland.add(rect(4.439978006065702e-09, 1.2185762781498796e-09).transl(-2.0417555852402466e-09, -4e-08, 0))
hIsland = hIsland.add(rect(4.709490997555594e-09, 3.213413239608164e-09).transl(-1.5306032599576575e-08, -4e-08, 0))
hIsland = hIsland.add(rect(7.863801590884183e-09, 1.7149367596125874e-09).transl(-9.954359726508415e-08, -2.2191287812283446e-08, 0))
hIsland = hIsland.sub(rect(7.800298608471274e-09, -6.930393710092311e-10).transl(-7.472232613128814e-08, -3.308007407013429e-08, 0))
hIsland = hIsland.sub(rect(2.622072961919748e-09, -1.2717916174589462e-09).transl(-1.1216044568834613e-07, -9.861181314137719e-09, 0))
hIsland = hIsland.add(rect(3.9011973209647765e-09, 7.739711235244238e-10).transl(8.883600866716263e-08, -2.794005182169692e-08, 0))
hIsland = hIsland.add(rect(4.9741031554670255e-09, 1.5132497137081476e-09).transl(2.2603922504222716e-08, -4e-08, 0))
hIsland = hIsland.add(rect(5.433798852405644e-09, 1.832155142820717e-09).transl(-3.821869569797131e-08, -3.94489244123058e-08, 0))
hIsland = hIsland.sub(rect(8.988519389558857e-09, -2.71573989711881e-09).transl(-7.930315070195466e-08, -3.163459623314659e-08, 0))
hIsland = hIsland.add(rect(6.844634999650386e-09, 3.671358618242721e-09).transl(-5.620877336794019e-08, -3.730317564641811e-08, 0))
hIsland = hIsland.add(rect(4.2643262744575775e-09, 2.597071954883507e-09).transl(6.254165841594528e-08, -3.6116952566715417e-08, 0))
hIsland = hIsland.add(rect(3.2705975614727e-09, 3.891988060146415e-09).transl(-9.209674185790157e-08, -2.6409743091790734e-08, 0))
hIsland = hIsland.sub(rect(4.169702382252618e-09, -1.3986291055879738e-09).transl(-1.0806171028186669e-07, -1.5239148693928016e-08, 0))
hIsland = hIsland.sub(rect(8.76640552906343e-09, -1.1996319073399273e-09).transl(-2.7244294314625938e-08, -3.99574110838501e-08, 0))
hIsland = hIsland.add(rect(5.918431604323235e-09, 4.5831123430141817e-10).transl(4.9830080427478724e-08, -3.826123217282478e-08, 0))
hIsland = hIsland.sub(rect(2.8619322275406924e-09, -3.1073153962017605e-09).transl(-5.6976176104113614e-08, -3.7172309798486835e-08, 0))
hIsland = hIsland.sub(rect(9.352474239338269e-09, -1.6101564186528155e-11).transl(-6.384681719049868e-08, -3.584132623701796e-08, 0))
hIsland = hIsland.add(rect(4.470154528234715e-09, 3.2169309528966603e-12).transl(1.2875323784173568e-08, -4e-08, 0))
hIsland = hIsland.sub(rect(7.3997560932554655e-09, -3.326899169342799e-09).transl(2.8204060072959724e-08, -3.993595477382481e-08, 0))
hIsland = hIsland.sub(rect(7.2891179020884e-09, -3.00668529199525e-10).transl(6.447988785253108e-08, -3.570361851407197e-08, 0))
hIsland = hIsland.add(rect(3.744721073664217e-09, 5.667650741864618e-10).transl(-3.8368040070068553e-08, -3.943797826178572e-08, 0))
hIsland = hIsland.sub(rect(5.477371995420748e-09, -4.925141020691326e-09).transl(-5.75180929051324e-08, -3.707780931640533e-08, 0))
hIsland = hIsland.sub(rect(5.647108161136052e-09, -7.354385741940356e-10).transl(1.125709665152068e-08, -4e-08, 0))
hIsland = hIsland.sub(rect(8.812899305558563e-09, -2.7232782968319735e-09).transl(1.9718151850784757e-09, -4e-08, 0))
hIsland = hIsland.sub(rect(5.573440938356703e-09, -7.101108109844025e-10).transl(7.96687610913349e-08, -3.151094722720369e-08, 0))
hIsland = hIsland.add(rect(4.558479298425519e-09, 3.105655323279874e-11).transl(-1.5886579472117474e-09, -4e-08, 0))
hIsland = hIsland.sub(rect(5.386785303128429e-09, -1.9860964284305985e-09).transl(-6.731326750356832e-08, -3.505419601762126e-08, 0))
hIsland = hIsland.sub(rect(7.68627533031434e-09, -6.761401079432305e-10).transl(-1.0057225616906252e-07, -2.150546188521149e-08, 0))
hIsland = hIsland.add(rect(3.808946230314225e-09, 4.245097483875259e-09).transl(-4.4746417224309624e-08, -3.886648499104128e-08, 0))
hIsland = hIsland.sub(rect(7.316592469016201e-09, -1.4171437873047878e-10).transl(-3.836821492610845e-08, -3.943796538132644e-08, 0))
hIsland = hIsland.add(rect(8.68590888633964e-09, 4.966156856375282e-10).transl(1.1347452660205051e-07, -7.2539675101263835e-09, 0))
hIsland = hIsland.sub(rect(7.862297877635174e-09, -4.201271313089275e-09).transl(-1.1043171803175443e-07, -1.2447961107377095e-08, 0))
hIsland = hIsland.add(rect(2.0718148880405603e-09, 2.0811196396455014e-09).transl(-7.260598037930997e-08, -3.3687226746372784e-08, 0))
hIsland = hIsland.sub(rect(6.235276567185963e-09, -2.9247714553088366e-09).transl(2.2459756314920595e-08, -4e-08, 0))
hIsland = hIsland.sub(rect(2.730802635575879e-09, -1.3587424636699522e-09).transl(5.083868137520577e-08, -3.8124777279190216e-08, 0))
hIsland = hIsland.sub(rect(3.2729310654705304e-09, -2.753324350261748e-09).transl(6.848988352252806e-08, -3.4768123334589555e-08, 0))
hIsland = hIsland.add(rect(9.60212476951478e-09, 1.881218599763256e-09).transl(-2.3054389471788667e-08, -3.999999300988918e-08, 0))
hIsland = hIsland.add(rect(3.7243821575415928e-09, 1.2496235083586818e-10).transl(-5.5371015629194895e-08, -3.7442122562581626e-08, 0))
hIsland = hIsland.add(rect(8.46815590297931e-09, 2.0431306968227347e-09).transl(-4.8587052327433305e-08, -3.8421851929697474e-08, 0))
hIsland = hIsland.sub(rect(9.368001922589921e-09, -1.476693768851634e-09).transl(2.7151788776935653e-08, -3.995924826282399e-08, 0))
hIsland = hIsland.sub(rect(2.3826298508998518e-09, -7.344845852007175e-10).transl(1.0491711875253802e-07, -1.820688529310006e-08, 0))
hIsland = hIsland.sub(rect(9.145480167886161e-09, -7.799397113914097e-10).transl(-9.366899518425857e-08, -2.56112168229955e-08, 0))
hIsland = hIsland.add(rect(4.555115949536636e-09, 2.4527654079541164e-09).transl(-5.78634876069631e-09, -4e-08, 0))
hIsland = hIsland.sub(rect(7.671865862978712e-09, -1.0005824410537148e-09).transl(8.395322562649805e-08, -2.996123609564631e-08, 0))
hIsland = hIsland.sub(rect(4.468873218862516e-09, -1.3080010112586965e-09).transl(-1.7846374223108736e-09, -4e-08, 0))
hIsland = hIsland.sub(rect(8.209198043994087e-09, -3.1311690976703275e-09).transl(-6.835751810283852e-08, -3.4800798373038574e-08, 0))
hIsland = hIsland.add(rect(5.899043407937629e-09, 3.7450647368952155e-09).transl(-1.0269808846100435e-07, -1.9982103030561967e-08, 0))
hIsland = hIsland.add(rect(4.660600068213753e-09, 6.46989182650211e-11).transl(5.770133180644951e-08, -3.704546221177009e-08, 0))
hIsland = hIsland.add(rect(4.097891820591815e-09, 2.457569980472212e-10).transl(8.06986668382416e-09, -4e-08, 0))
hIsland = hIsland.sub(rect(8.443524899185406e-09, -5.970039317645612e-10).transl(1.4827088608448865e-08, -4e-08, 0))
hIsland = hIsland.sub(rect(8.131313596292587e-09, -1.3624105112246288e-10).transl(-2.389263748683705e-08, -3.9998117153977943e-08, 0))
hIsland = hIsland.add(rect(2.3036215778018064e-09, 2.5353536025093366e-10).transl(6.053443803944858e-09, -4e-08, 0))
hIsland = hIsland.add(rect(9.092507076823052e-09, 1.6977482036856532e-09).transl(5.056517271897797e-08, -3.8162326787254284e-08, 0))
hIsland = hIsland.add(rect(2.238952671675878e-09, 4.115728679516351e-09).transl(-9.552076268123436e-08, -2.4613223504683616e-08, 0))
hIsland = hIsland.sub(rect(7.991378923297421e-09, -4.558892917813941e-09).transl(4.9104698745455676e-08, -3.8355970503093995e-08, 0))
hIsland = hIsland.sub(rect(8.599409070213679e-09, -1.7134667688635435e-09).transl(4.119362820398985e-08, -3.9210044363332175e-08, 0))
hIsland = hIsland.add(rect(2.906013037033407e-09, 5.3011636914182715e-09).transl(-3.344097473129864e-08, -3.9741570771470714e-08, 0))
hIsland = hIsland.add(rect(5.6900785165764325e-09, 1.8836780177682433e-09).transl(7.122936216606957e-08, -3.406301462053207e-08, 0))
hIsland = hIsland.sub(rect(8.168020662328981e-09, -3.6683834868616965e-11).transl(8.268442515170514e-08, -3.044027712610832e-08, 0))
hIsland = hIsland.sub(rect(4.983801699686876e-09, -1.5664138815853027e-09).transl(-7.40638932133463e-08, -3.3272884473549385e-08, 0))
hIsland = hIsland.add(rect(3.404239300397996e-09, 8.375572594573529e-10).transl(1.1282087733230416e-07, -8.654358422666108e-09, 0))
hIsland = hIsland.sub(rect(6.093330893153727e-09, -5.265922521034875e-10).transl(3.63762614870431e-08, -3.957495252575707e-08, 0))
hIsland = hIsland.sub(rect(8.903602515196713e-09, -2.146775390485044e-09).transl(-7.900377938356985e-09, -4e-08, 0))
hIsland = hIsland.sub(rect(6.71301754758174e-09, -2.4121181300656193e-09).transl(7.254274419615336e-08, -3.370481361434581e-08, 0))
hIsland = hIsland.sub(rect(8.881371367926177e-09, -3.2061355646744943e-09).transl(1.0455846074624844e-07, -1.850875989766635e-08, 0))
hIsland = hIsland.sub(rect(5.905008621329318e-09, -1.4080078298655404e-09).transl(-1.5497740860967798e-08, -4e-08, 0))
hIsland = hIsland.sub(rect(7.33755530341133e-09, -8.732567648715782e-10).transl(-1.14409182116842e-07, -4.525947555177176e-09, 0))
hIsland = hIsland.add(rect(4.449701869622519e-09, 3.0452540702373203e-09).transl(-1.0859123056816766e-07, -1.4667977864601485e-08, 0))
hIsland = hIsland.add(rect(3.725146411416313e-09, 3.617587417100213e-09).transl(1.1256310117639532e-07, -9.145442197099447e-09, 0))
hIsland = hIsland.sub(rect(5.3705673933737845e-09, -6.412456120785939e-10).transl(7.721100703386362e-08, -3.2318028340794066e-08, 0))
hIsland = hIsland.add(rect(7.102374565966457e-09, 6.188043692057396e-10).transl(-1.0584116309843871e-07, -1.7398594648599944e-08, 0))
hIsland = hIsland.add(rect(2.590807022117302e-09, 9.146711688605779e-10).transl(-4.179864712504024e-08, -3.9156056506105205e-08, 0))
hIsland = hIsland.add(rect(4.592679673098447e-09, 9.963439877300429e-11).transl(9.738037895446561e-08, -2.3540815324089572e-08, 0))
hIsland = hIsland.add(rect(7.394643591536892e-09, 2.63402544355842e-09).transl(-6.33861088277971e-08, -3.5939884205450587e-08, 0))
hIsland = hIsland.sub(rect(4.2750948189782396e-09, -9.339276187775e-10).transl(-6.976497880448499e-08, -3.4446848888938e-08, 0))
hIsland = hIsland.add(rect(8.839268283792174e-09, 9.441171239047868e-10).transl(2.2795783923443043e-08, -4e-08, 0))
hIsland = hIsland.sub(rect(9.535401406798637e-09, -1.6220680864715702e-09).transl(1.0037698144184387e-07, -2.163803774157824e-08, 0))
hIsland = hIsland.sub(rect(6.4017638960848045e-09, -1.2013308688502082e-09).transl(-6.907154345333311e-08, -3.462303855029379e-08, 0))
hIsland = hIsland.add(rect(7.441531985170311e-09, 1.581153444040143e-09).transl(2.785069704647449e-08, -3.994436286156668e-08, 0))
hIsland = hIsland.add(rect(6.128458391158537e-09, 2.66784648766819e-09).transl(9.832209905221409e-08, -2.2967805997895946e-08, 0))
hIsland = hIsland.add(rect(7.841386578822628e-09, 1.1495874038820427e-09).transl(2.406642915202033e-08, -3.99973125960742e-08, 0))
hIsland = hIsland.add(rect(7.37082085613534e-09, 1.0112131470842492e-09).transl(4.3050163863311346e-08, -3.903851747572067e-08, 0))
hIsland = hIsland.add(rect(5.68775562482389e-09, 4.6358825924530083e-10).transl(3.5105033036487886e-08, -3.965224107351658e-08, 0))
hIsland = hIsland.add(rect(4.428269168355004e-09, 4.106236462531849e-10).transl(1.2482262017525446e-08, -4e-08, 0))
hIsland = hIsland.sub(rect(4.693442793138069e-09, -2.4946333573676778e-09).transl(1.0761617735505682e-07, -1.5701025996947417e-08, 0))
hIsland = hIsland.add(rect(4.429040461443959e-09, 4.890652800661172e-10).transl(8.786242699621531e-08, -2.8367243163875785e-08, 0))
hIsland = hIsland.add(rect(5.564973292438322e-09, 1.4530943858158447e-09).transl(1.106688642371808e-08, -4e-08, 0))
hIsland = hIsland.sub(rect(9.462268423857734e-09, -7.355348468071174e-10).transl(9.400307458915615e-08, -2.543594720071363e-08, 0))
hIsland = hIsland.add(rect(9.86915148222124e-09, 9.042432856272603e-10).transl(-3.220977209269389e-08, -3.97990702411578e-08, 0))
hIsland = hIsland.add(rect(6.268535720834285e-09, 1.9086634130530082e-09).transl(-7.090553889073996e-08, -3.4149286800136785e-08, 0))
hIsland = hIsland.add(rect(9.779477081355127e-09, 1.3770974425808313e-09).transl(9.328002506787803e-09, -4e-08, 0))
hIsland = hIsland.add(rect(6.535806523978046e-09, 1.3976873410507192e-09).transl(-6.988703629247872e-08, -3.441546951735179e-08, 0))
hIsland = hIsland.sub(rect(8.819561592952305e-09, -1.0806911319969178e-09).transl(1.6300174852094554e-08, -4e-08, 0))
hIsland = hIsland.add(rect(9.78247006606649e-09, 3.216242201961784e-09).transl(-6.437466479520875e-08, -3.5726690718488604e-08, 0))
hIsland = hIsland.add(rect(7.1325114207198435e-09, 1.0022947744132497e-09).transl(-9.23506991586103e-08, -2.6283608519163503e-08, 0))
hIsland = hIsland.add(rect(7.812966146951395e-09, 4.286268719656355e-09).transl(-1.0303076085499206e-07, -1.9729155289204187e-08, 0))
hIsland = hIsland.add(rect(4.1611934553786605e-09, 4.358433263494326e-09).transl(2.7968252758403354e-08, -3.994163147946895e-08, 0))
hIsland = hIsland.add(rect(4.649879233384238e-09, 1.3467931834706562e-09).transl(-2.9744754241816035e-08, -3.989236058361758e-08, 0))
hIsland = hIsland.add(rect(6.101967033554134e-09, 2.689795875068694e-09).transl(-9.141647667243686e-08, -2.6742437829138734e-08, 0))
hIsland = hIsland.add(rect(5.958636411723952e-09, 1.5246537002352232e-10).transl(1.0543260844771141e-07, -1.7761628234056142e-08, 0))
hIsland = hIsland.sub(rect(8.168787955702548e-09, -9.533410580338513e-10).transl(-1.0364875591208798e-08, -4e-08, 0))
hIsland = hIsland.add(rect(8.83017415337443e-09, 4.640921113799392e-09).transl(-6.495735706728421e-08, -3.559799751151135e-08, 0))
hIsland = hIsland.sub(rect(2.8062884179537246e-09, -7.646603170237635e-10).transl(8.817350914083077e-08, -2.8232138258992492e-08, 0))
hIsland = hIsland.add(rect(7.714476574214456e-09, 2.058588773879549e-09).transl(5.013490904736058e-08, -3.8220573421936004e-08, 0))
hIsland = hIsland.sub(rect(6.7785270871754915e-09, -4.1973625865949724e-10).transl(5.280412781991332e-08, -3.7842859761805235e-08, 0))
hIsland = hIsland.sub(rect(6.517032484869981e-09, -1.19763592390324e-09).transl(-1.029107852539241e-07, -1.982087269390675e-08, 0))
hIsland = hIsland.sub(rect(3.330760713740719e-09, -1.9851536707512176e-09).transl(-2.4738262298456893e-09, -4e-08, 0))
hIsland = hIsland.sub(rect(7.22143168512718e-09, -2.444514853016717e-09).transl(7.98965249567764e-08, -3.143326548700207e-08, 0))
hIsland = hIsland.sub(rect(2.674039683780963e-09, -1.1123135926669946e-09).transl(2.4027337612388872e-08, -3.999750601258628e-08, 0))
hIsland = hIsland.add(rect(5.259780394176024e-09, 1.3117906775415324e-09).transl(7.06129011096488e-08, -3.4226565390575094e-08, 0))
hIsland = hIsland.sub(rect(5.635267828954266e-09, -1.6990675577911131e-09).transl(-3.951136978772524e-08, -3.9350527574168626e-08, 0))
hIsland = hIsland.sub(rect(3.363888546008071e-09, -3.1740561366730054e-09).transl(-5.605903868573942e-08, -3.7328308817350346e-08, 0))
hIsland = hIsland.sub(rect(3.571331607620227e-09, -4.322385365851485e-09).transl(7.267051018002028e-08, -3.366924749012552e-08, 0))
hIsland = hIsland.add(rect(8.723350772857202e-09, 1.944942644840158e-09).transl(1.9652517776666154e-09, -4e-08, 0))
hIsland = hIsland.add(rect(5.673716010606803e-09, 2.0223026511696896e-09).transl(-6.0176201645931e-08, -3.6588784296955347e-08, 0))
hIsland = hIsland.sub(rect(7.874804036635682e-09, -4.507606943154085e-10).transl(-7.30551454078391e-08, 3.35613942917351e-08, 0))
hIsland = hIsland.add(rect(8.649066418579411e-09, 3.557934814427866e-09).transl(-1.0938298431616806e-08, 4e-08, 0))
hIsland = hIsland.sub(rect(4.3822127052837245e-09, -4.8124060639316595e-09).transl(4.7969921755942233e-08, 3.849852821064767e-08, 0))
hIsland = hIsland.add(rect(9.952553593606536e-09, 1.5471543869413585e-09).transl(-1.1116122680914617e-08, 4e-08, 0))
hIsland = hIsland.sub(rect(8.429824403796657e-09, -3.518902413568804e-10).transl(7.377957313188833e-08, 3.3355038482411874e-08, 0))
hIsland = hIsland.sub(rect(2.9384604020874613e-09, -2.443705493620714e-09).transl(7.051479585096002e-08, 3.425232782298609e-08, 0))
hIsland = hIsland.sub(rect(6.9784285828256665e-09, -7.472726986482498e-10).transl(1.0018261501275774e-07, 2.176886635757228e-08, 0))
hIsland = hIsland.sub(rect(4.851318169026312e-09, -1.5990405376862521e-10).transl(8.680322903477925e-08, 2.8817750662710118e-08, 0))
hIsland = hIsland.sub(rect(8.165659979009342e-09, -2.0377469946945316e-10).transl(7.165392005174859e-08, 3.394868824523875e-08, 0))
hIsland = hIsland.sub(rect(2.7176185207835133e-09, -1.3846706941088984e-10).transl(1.0144517582057047e-07, 2.0898324344146704e-08, 0))
hIsland = hIsland.sub(rect(4.465073214183053e-09, -3.91612821870482e-09).transl(-7.3150956268258316e-09, 4e-08, 0))
hIsland = hIsland.add(rect(3.2553147474694716e-09, 2.212559822987644e-09).transl(8.573755563689183e-08, 2.925669946610327e-08, 0))
hIsland = hIsland.sub(rect(7.40898112338962e-09, -5.653547767514677e-10).transl(-6.3051298434582e-08, 3.6010640870424485e-08, 0))
hIsland = hIsland.add(rect(8.577257942004747e-09, 1.2010529853201417e-09).transl(-2.2462883207026995e-08, 4e-08, 0))
hIsland = hIsland.sub(rect(2.9171053902415756e-09, -1.2303386956773428e-09).transl(6.352900426511562e-08, 3.590946348426074e-08, 0))
hIsland = hIsland.add(rect(8.472539241284485e-09, 4.992225642365716e-09).transl(7.816285207853997e-08, 3.2012107086320823e-08, 0))
hIsland = hIsland.add(rect(5.7829910673193e-09, 3.3953780076232543e-10).transl(-9.640840936319779e-08, 2.4110667323481267e-08, 0))
hIsland = hIsland.add(rect(4.64987025065299e-09, 9.120376577336012e-10).transl(7.885604620305924e-08, 3.178407212047993e-08, 0))
hIsland = hIsland.sub(rect(2.1712698793830026e-09, -1.8832124400572023e-09).transl(1.211673492484178e-08, 4e-08, 0))
hIsland = hIsland.sub(rect(9.018638377373528e-09, -1.8306647744613274e-09).transl(7.12124564067574e-08, 3.40675384110557e-08, 0))
hIsland = hIsland.sub(rect(9.642031237226884e-09, -4.888319041414557e-10).transl(-7.970818213495907e-08, 3.149753817291618e-08, 0))
hIsland = hIsland.sub(rect(8.398094613621268e-09, -1.9684256174549658e-09).transl(1.0187302690946361e-07, 2.059165331914113e-08, 0))
hIsland = hIsland.sub(rect(5.9835744970265885e-09, -1.924269737547666e-09).transl(-1.2803040306606272e-08, 4e-08, 0))
hIsland = hIsland.add(rect(4.797193879058013e-09, 9.380276442161108e-10).transl(-1.0433498078266957e-07, 1.8693735498732047e-08, 0))
hIsland = hIsland.add(rect(2.4092838752865298e-09, 5.786268471608732e-09).transl(-5.074921218868174e-08, 3.8137105219201886e-08, 0))
hIsland = hIsland.add(rect(9.584404445594139e-09, 2.1482792400777937e-09).transl(-3.0252774207332517e-08, 3.987550869903831e-08, 0))
hIsland = hIsland.add(rect(5.486052007877772e-09, 5.469589454380622e-10).transl(9.821083481410161e-08, 2.3036628705406534e-08, 0))
hIsland = hIsland.sub(rect(7.205417142905312e-09, -6.491265468576736e-10).transl(-2.5786451378550815e-08, 3.998164911928629e-08, 0))
hIsland = hIsland.sub(rect(6.727277248318432e-09, -6.976183940669657e-10).transl(8.004094696954211e-08, 3.138374703929477e-08, 0))
hIsland = hIsland.add(rect(8.658505582924566e-09, 9.279404054702275e-10).transl(9.965839526582899e-08, 2.2116252546593698e-08, 0))
hIsland = hIsland.add(rect(2.0524094437033533e-09, 1.2223450272611674e-09).transl(1.4344737086607887e-08, 4e-08, 0))
hIsland = hIsland.sub(rect(8.346128484229201e-09, -1.6289009539689863e-10).transl(6.604742554577341e-08, 3.535111261763277e-08, 0))
hIsland = hIsland.sub(rect(3.88424147477831e-09, -2.4588129649506264e-10).transl(4.458956727722467e-08, 3.888301144913947e-08, 0))
hIsland = hIsland.sub(rect(9.927226695593534e-09, -1.957196595835893e-09).transl(5.224726570222524e-08, 3.792490203688424e-08, 0))
hIsland = hIsland.add(rect(5.584338394771111e-09, 8.111495881526047e-10).transl(4.3537218440079486e-08, 3.8990626227339396e-08, 0))
hIsland = hIsland.sub(rect(8.650751037672048e-09, -6.491405251035961e-10).transl(7.176155062088448e-08, 3.391948428538623e-08, 0))
hIsland = hIsland.sub(rect(3.3937270586965964e-09, -8.28450534099281e-11).transl(4.6328308401903126e-08, 3.8692696582547125e-08, 0))
hIsland = hIsland.sub(rect(2.1491229348689478e-09, -3.2165609714442572e-09).transl(7.004394882361872e-08, 3.4374966929919116e-08, 0))
hIsland = hIsland.add(rect(3.903680277245581e-09, 1.0022260641368e-09).transl(-3.235139522879874e-08, 3.97928269302296e-08, 0))
hIsland = hIsland.add(rect(5.4346345917448364e-09, 4.560855068469391e-09).transl(4.281317166478691e-08, 3.906138407212177e-08, 0))
hIsland = hIsland.add(rect(2.9497487180356964e-09, 8.687406936439099e-10).transl(-1.076444189627082e-07, 1.5672223502170634e-08, 0))
hIsland = hIsland.sub(rect(3.6759718566349326e-09, -3.0905256599755123e-09).transl(-5.5771604166301404e-08, 3.737618996940393e-08, 0))
hIsland = hIsland.add(rect(9.290939406797215e-09, 1.8516870722579477e-10).transl(-5.6943725362878145e-08, 3.717791361257416e-08, 0))
hIsland = hIsland.sub(rect(9.352473302911034e-09, -1.65315516324402e-10).transl(2.197580138362599e-08, 4e-08, 0))
hIsland = hIsland.add(rect(9.077045167966526e-09, 1.82112654101273e-09).transl(-8.281773589688058e-08, 3.0390770885941436e-08, 0))
hIsland = hIsland.add(rect(4.3082886583973645e-09, 2.863856470983047e-09).transl(1.235307173224582e-08, 4e-08, 0))
hIsland = hIsland.add(rect(8.383324841345853e-09, 4.4989117496170314e-10).transl(-1.0415716146092338e-07, 1.8839262101335086e-08, 0))
hIsland = hIsland.sub(rect(4.2899978216455704e-09, -1.564527561874039e-09).transl(-2.46798962024267e-08, 3.999333108099969e-08, 0))
hIsland = hIsland.sub(rect(8.858075886931316e-09, -8.928542854829878e-10).transl(-5.911026472739595e-08, 3.679003106661237e-08, 0))
hIsland = hIsland.sub(rect(5.354171201777356e-09, -2.951911566231293e-10).transl(-6.67841076165705e-08, 3.517966825657727e-08, 0))
hIsland = hIsland.sub(rect(2.502699776321183e-09, -4.592537210804597e-09).transl(1.07924482949194e-07, 1.5383148144816783e-08, 0))
hIsland = hIsland.sub(rect(6.01578039697116e-09, -1.8276080387633476e-10).transl(1.043320782182719e-07, 1.8696122606300264e-08, 0))
hIsland = hIsland.sub(rect(4.028519976139538e-09, -2.671480410433459e-09).transl(-4.195928281500126e-08, 3.9141412941039124e-08, 0))
hIsland = hIsland.sub(rect(9.449288383699769e-09, -1.2273797503599018e-09).transl(-5.199346691039971e-08, 3.796172302754885e-08, 0))
hIsland = hIsland.sub(rect(6.849209305580189e-09, -1.557006554801116e-09).transl(-4.271933273523286e-08, 3.907035947981876e-08, 0))
hIsland = hIsland.sub(rect(3.823381988880497e-09, -1.4800337364157164e-09).transl(-1.0533566830409998e-07, 1.7846423844281006e-08, 0))
hIsland = hIsland.add(rect(4.813203957314094e-09, 1.3468910811893947e-09).transl(3.995104529273521e-08, 3.9315172767422213e-08, 0))
hIsland = hIsland.sub(rect(2.4756310079328056e-09, -2.1115655948179912e-09).transl(1.1041645868812742e-08, 4e-08, 0))
hIsland = hIsland.add(rect(8.69918866240901e-09, 1.4997631327291074e-09).transl(-4.5121789567056994e-08, 3.882641907046926e-08, 0))
hIsland = hIsland.add(rect(8.60336128635477e-09, 1.2937128283001722e-09).transl(6.388796795646231e-09, 4e-08, 0))
hIsland = hIsland.add(rect(5.573037554665456e-09, 1.6872517853798344e-09).transl(-4.725213819573874e-08, 3.858517152744585e-08, 0))
hIsland = hIsland.sub(rect(5.6790749942626826e-09, -2.898532479411262e-09).transl(9.956940256039222e-08, 2.2174452642814692e-08, 0))
hIsland = hIsland.add(rect(5.747527846669141e-09, 7.987955206274345e-10).transl(-2.991513844436104e-08, 3.9886845765041156e-08, 0))
hIsland = hIsland.add(rect(2.052757271245743e-09, 1.8959911634896e-09).transl(-1.0274042215276464e-07, 1.995015089604177e-08, 0))
hIsland = hIsland.sub(rect(3.5941133423570968e-09, -3.3477398532306965e-10).transl(-9.35269595185042e-08, 2.5685122469463085e-08, 0))
hIsland = hIsland.sub(rect(6.346787635675915e-09, -2.88445220243926e-10).transl(6.223366298689547e-08, 3.6180391582884657e-08, 0))
hIsland = hIsland.sub(rect(2.3783189962575655e-09, -3.7046503375061934e-09).transl(-1.0154517352192473e-07, 2.082720209599905e-08, 0))
hIsland = hIsland.add(rect(6.442068763648052e-09, 2.4102697416857545e-10).transl(8.807915564966136e-08, 2.827325313943229e-08, 0))
hIsland = hIsland.sub(rect(2.6477828936698745e-09, -2.9078605017016264e-09).transl(-1.8626145709313312e-08, 4e-08, 0))
hIsland = hIsland.sub(rect(6.466461094040001e-09, -7.445447646512865e-10).transl(6.951532047552633e-08, 3.451068972512972e-08, 0))
hIsland = hIsland.add(rect(3.5710924643080573e-09, 2.3872668413530265e-09).transl(-5.717552978501669e-08, 3.713774788971621e-08, 0))
hIsland = hIsland.sub(rect(4.608431794339313e-09, -2.472239583999077e-09).transl(7.999504228963467e-08, 3.139950860632786e-08, 0))
hIsland = hIsland.sub(rect(3.8275823334571575e-09, -1.7761355841314044e-09).transl(-1.1477772218633422e-07, 2.7788599166395156e-09, 0))
hIsland = hIsland.sub(rect(4.256361782344255e-09, -9.248096243750586e-10).transl(-1.0566077866821458e-07, 1.7560027590849287e-08, 0))
hIsland = hIsland.add(rect(3.977476806192262e-09, 2.105103240577919e-09).transl(6.061050912013493e-08, 3.650478282288477e-08, 0))
hIsland = hIsland.sub(rect(4.609685413036133e-09, -4.022501486051752e-09).transl(-3.0606755171209144e-08, 3.986303885649393e-08, 0))
hIsland = hIsland.add(rect(7.4456951319010935e-09, 1.0783666598838757e-09).transl(-3.7334614110870206e-08, 3.95114752977728e-08, 0))
hIsland = hIsland.sub(rect(5.9105039645567664e-09, -3.3589022391870154e-11).transl(-3.115298618910924e-08, 3.984262238894441e-08, 0))
hIsland = hIsland.sub(rect(2.9622984302264294e-09, -1.0023957488890988e-09).transl(-4.290932950983697e-08, 3.905214050918947e-08, 0))
hIsland = hIsland.sub(rect(8.234456638420486e-09, -2.668338168790044e-09).transl(3.429076227435917e-08, 3.969762528374941e-08, 0))
hIsland = hIsland.sub(rect(2.0658394046532936e-09, -2.5443698458149656e-09).transl(-1.530969538281944e-08, 4e-08, 0))
hIsland = hIsland.add(rect(8.295832284947526e-09, 5.686621033161809e-10).transl(-9.777919530082448e-08, 2.3300745788145317e-08, 0))
hIsland = hIsland.sub(rect(8.059190175591873e-09, -2.2640882178277577e-09).transl(3.899002194515063e-09, 4e-08, 0))
hIsland = hIsland.sub(rect(7.297357418470208e-09, -4.362901579443276e-10).transl(-7.603286400342073e-09, 4e-08, 0))
hIsland = hIsland.sub(rect(5.395770346634793e-09, -6.727899138575043e-10).transl(-9.80401665792229e-08, 2.3141601585946067e-08, 0))
hIsland = hIsland.sub(rect(5.2823729052621115e-09, -2.1431905274035557e-09).transl(1.0132993980706989e-07, 2.0979873917804134e-08, 0))
hIsland = hIsland.sub(rect(2.645747291011949e-09, -2.0751654888788443e-09).transl(4.514832994553738e-08, 3.882355870979543e-08, 0))
hIsland = hIsland.add(rect(8.831297362045802e-09, 4.271689891755101e-09).transl(-3.091218922897204e-08, 3.9851798377887345e-08, 0))
hIsland = hIsland.add(rect(5.214773492537027e-09, 4.497573959991863e-10).transl(-4.4311768447671986e-08, 3.891197114294347e-08, 0))
hIsland = hIsland.sub(rect(4.1767467082674455e-09, -4.693043700490855e-10).transl(2.734227835275072e-08, 3.995542085512618e-08, 0))
hIsland = hIsland.add(rect(8.610740102861474e-09, 1.203795088038538e-09).transl(6.155262897220763e-08, 3.6318520533069904e-08, 0))
hIsland = hIsland.add(rect(8.425511941888602e-09, 4.407540949550268e-09).transl(7.18157963776739e-08, 3.3904731489776653e-08, 0))
hIsland = hIsland.sub(rect(5.5653895469176965e-09, -3.078350609172128e-10).transl(8.242670895681038e-08, 3.0535443048168316e-08, 0))
hIsland = hIsland.add(rect(2.1443311422665107e-09, 1.6633346806100044e-09).transl(2.8173412244424627e-08, 3.993670750076609e-08, 0))
hIsland = hIsland.sub(rect(6.736647335103326e-09, -1.5900545293667008e-09).transl(1.025283105812016e-07, 2.0109566684307555e-08, 0))
hIsland = hIsland.sub(rect(9.123191232722709e-09, -1.4333123676760486e-09).transl(1.013481263584007e-07, 2.096703279666494e-08, 0))
hIsland = hIsland.add(rect(6.535805195518212e-09, 1.5740279889507325e-09).transl(6.58193045005168e-08, 3.5403446165528396e-08, 0))
hIsland = hIsland.add(rect(5.696971900001133e-09, 2.8191068070633656e-09).transl(5.89926394706079e-08, 3.681181362922436e-08, 0))
hIsland = hIsland.sub(rect(9.70769274184934e-09, -8.475617178259412e-11).transl(8.202397546452908e-08, 3.068274861303026e-08, 0))
hIsland = hIsland.sub(rect(4.905000934598809e-09, -2.115245085639985e-09).transl(5.075466809258768e-08, 3.813635470150196e-08, 0))
hIsland = hIsland.add(rect(2.1532928956038326e-09, 1.5415846657778128e-09).transl(-2.2304048871817e-08, 4e-08, 0))
hIsland = hIsland.add(rect(2.1013514366488454e-09, 7.111274618991897e-10).transl(6.671830835778691e-08, 3.5195133906900565e-08, 0))
hIsland = hIsland.sub(rect(3.1407289390812062e-09, -2.5968190437176417e-09).transl(1.1407132353279227e-07, 5.66910557595124e-09, 0))
hIsland = hIsland.sub(rect(5.0415926716589135e-09, -1.1334940103663962e-09).transl(1.1331110252106222e-07, 7.62922400192128e-09, 0))
hIsland = hIsland.add(rect(5.493968426485895e-09, 1.810230270776712e-09).transl(-6.74970144520613e-08, 3.501016785834346e-08, 0))
hIsland = hIsland.add(rect(3.3920601941700038e-09, 2.1347201172145172e-09).transl(2.8470337678044495e-08, 3.992922710094287e-08, 0))
hIsland = hIsland.add(rect(4.1653412534232224e-09, 6.512760985296194e-10).transl(-1.0989544883858777e-07, 1.3138645367994811e-08, 0))
hIsland = hIsland.add(rect(2.563086119700743e-09, 1.4316594316636368e-10).transl(3.8486602540928e-08, 3.942920995508649e-08, 0))
hIsland = hIsland.add(rect(3.0005111005321984e-09, 3.668603114783911e-09).transl(1.6569702964146766e-08, 4e-08, 0))
hIsland = hIsland.add(rect(7.24409008105028e-09, 3.3997650753236127e-10).transl(-2.0519378898589707e-08, 4e-08, 0))
hIsland = hIsland.sub(rect(8.633774597503118e-09, -9.597605285471463e-10).transl(-2.179656862930227e-09, 4e-08, 0))
hIsland = hIsland.add(rect(6.740849405986469e-09, 1.4901292402837641e-09).transl(7.689210900842276e-08, 3.2418694537342716e-08, 0))
hIsland = hIsland.add(rect(2.0861565846955088e-09, 8.125528564104902e-11).transl(-8.456550867057557e-08, 2.9723642490424043e-08, 0))
hIsland = hIsland.add(rect(5.539081246262968e-09, 5.463834653436129e-10).transl(2.7751484763050587e-08, 3.9946617007091446e-08, 0))
hIsland = hIsland.sub(rect(6.579692033152991e-09, -1.2071928409929886e-09).transl(-4.510866365616046e-08, 3.882783235606215e-08, 0))
hIsland = hIsland.add(rect(8.422312948340251e-09, 1.1858929209239898e-09).transl(-7.44166419511684e-08, 3.317003490484918e-08, 0))
hIsland = hIsland.sub(rect(5.4135772241929565e-09, -9.045933116729501e-10).transl(-1.0651826218669937e-07, 1.6775510333227304e-08, 0))
hIsland = hIsland.sub(rect(8.77075352834683e-09, -2.1695105804195712e-09).transl(-9.600097755655113e-09, 4e-08, 0))
hIsland = hIsland.sub(rect(2.9641014389440745e-09, -2.653093810529273e-10).transl(7.375949856444547e-08, 3.336081405002792e-08, 0))
hIsland = hIsland.sub(rect(9.045928629507871e-09, -1.2950147263971253e-09).transl(1.4692161211138962e-08, 4e-08, 0))
hIsland = hIsland.add(rect(7.84121957911294e-09, 1.8736461825105068e-09).transl(-4.1973975344960366e-08, 3.914006707438915e-08, 0))
hIsland = hIsland.add(rect(8.57772246830342e-09, 1.8339002564688453e-09).transl(1.424000890475237e-08, 4e-08, 0))
hIsland = hIsland.add(rect(9.640756156370294e-09, 3.859316207157164e-10).transl(9.872065876254216e-08, 2.2718719896937643e-08, 0))
hIsland = hIsland.sub(rect(9.163949853060247e-09, -8.130977011285501e-10).transl(-6.761819709602716e-08, 3.498100075171801e-08, 0))
hIsland = hIsland.add(rect(3.5736397747004452e-09, 1.7868555533269459e-09).transl(-2.397068595539765e-08, 3.9997773493742244e-08, 0))
hIsland = hIsland.sub(rect(4.452587552624636e-09, -5.917200513078475e-10).transl(1.1185891932811848e-08, 4e-08, 0))
hIsland = hIsland.add(rect(7.804226226222303e-09, 1.983306741407855e-09).transl(8.885017175506792e-08, 2.7933741749608982e-08, 0))
hIsland = hIsland.add(rect(2.4268310149384462e-09, 3.5371199263001483e-09).transl(3.379286958950149e-08, 3.9723795837887086e-08, 0))
hIsland = hIsland.sub(rect(3.4901991741504263e-09, -1.428785850844802e-09).transl(3.7055772298671366e-08, 3.953040815883087e-08, 0))
hIsland = hIsland.sub(rect(6.303981254871242e-09, -7.984326201640589e-10).transl(3.735627239047119e-08, 3.950998879001686e-08, 0))
hIsland = hIsland.sub(rect(6.568230975565581e-09, -2.366564903853661e-09).transl(-7.067817395101095e-08, 3.4209384535561544e-08, 0))
hIsland = hIsland.add(rect(2.9479218867607833e-09, 1.3090107807041644e-09).transl(6.479115809116455e-08, 3.563493513611153e-08, 0))
hIsland = hIsland.add(rect(2.3619570432971155e-09, 1.2575939112562208e-09).transl(-5.479699320912805e-09, 4e-08, 0))
hIsland = hIsland.add(rect(9.160892960935073e-09, 2.485129590328733e-09).transl(5.2960259721523475e-09, 4e-08, 0))
hIsland = hIsland.sub(rect(3.576311087479498e-09, -2.2199085548154294e-09).transl(2.0550369655586584e-08, 4e-08, 0))
hIsland = hIsland.add(rect(7.990436040958946e-09, 8.532456943282885e-10).transl(8.297022663204559e-08, 3.033390710360831e-08, 0))
hIsland = hIsland.add(rect(7.112900701137116e-09, 1.1177577966011866e-09).transl(-7.187096021824141e-08, 3.388970559116966e-08, 0))
hIsland = hIsland.add(rect(4.729527060146349e-09, 1.3785930556423611e-09).transl(-5.198558845647655e-09, 4e-08, 0))
hIsland = hIsland.sub(rect(2.666536200095747e-09, -3.372270477063771e-09).transl(1.0107015498875767e-07, 2.116212911997788e-08, 0))
hIsland = hIsland.add(rect(5.642238873841339e-09, 1.9050440588475713e-09).transl(-4.673390363697111e-08, 3.864604005262073e-08, 0))
hIsland = hIsland.add(rect(3.0960416383618725e-09, 2.5038527397854674e-09).transl(-4.4660279537496506e-08, 3.8875576547022726e-08, 0))
hIsland = hIsland.sub(rect(6.9982713360482495e-09, -1.3468788981965065e-09).transl(6.460107928049338e-08, 3.5676953749800815e-08, 0))
hIsland = hIsland.sub(rect(2.3355588026874393e-09, -6.505719868051304e-10).transl(-1.0895373536610085e-08, 4e-08, 0))
hIsland = hIsland.sub(rect(6.28374812396889e-09, -1.8166352812869484e-09).transl(7.491242204489746e-08, 3.302373677282624e-08, 0))
hIsland = hIsland.add(rect(3.5125826335897296e-09, 3.099046506478241e-09).transl(7.17445049832443e-08, 3.392411534408419e-08, 0))
hIsland = hIsland.sub(rect(8.4819964833358e-09, -6.268727550692572e-10).transl(2.986670614770119e-08, 3.9888427444374005e-08, 0))
hIsland = hIsland.add(rect(4.294584900123416e-09, 4.108612303884084e-10).transl(-9.919817354496077e-08, 2.2414881417544436e-08, 0))
hIsland = hIsland.sub(rect(4.968634145440681e-09, -2.5742564866025426e-09).transl(8.581589095021768e-08, 2.9224907949164175e-08, 0))
hIsland = hIsland.add(rect(9.247317095689502e-09, 3.749674828872738e-09).transl(7.936482671285417e-09, 4e-08, 0))
hIsland = hIsland.add(rect(9.129298514873134e-09, 1.0656396402500094e-09).transl(-5.5296296653790595e-08, 3.745431804173868e-08, 0))
hIsland = hIsland.add(rect(4.955847699121039e-09, 1.9387931938711234e-10).transl(9.395718410880636e-08, 2.546014351894887e-08, 0))
hIsland = hIsland.add(rect(8.010012346816016e-09, 2.9616975732265705e-10).transl(2.2139941108317312e-08, 4e-08, 0))
hIsland = hIsland.add(rect(9.853957142995557e-09, 1.0418799791653808e-09).transl(8.170947413678953e-08, 3.0796599763768764e-08, 0))
hIsland = hIsland.add(rect(5.578915571670864e-09, 1.461865929987461e-09).transl(9.9763043644079e-08, 2.2047530416069065e-08, 0))
hIsland = hIsland.sub(rect(7.0936470171000075e-09, -1.8610099946643651e-09).transl(3.737260947265893e-08, 3.950886597861486e-08, 0))
hIsland = hIsland.sub(rect(9.732073463201376e-09, -2.3356377736357055e-09).transl(4.235772299469256e-08, 3.9104529010371876e-08, 0))
hIsland = hIsland.add(rect(6.02409854200571e-09, 8.009038641397621e-10).transl(5.361876511231095e-08, 3.7719718567461913e-08, 0))
hIsland = hIsland.add(rect(3.733428622389151e-09, 1.834987091774501e-09).transl(-3.650112316731406e-08, 3.956693659241666e-08, 0))
hIsland = hIsland.add(rect(2.552057366044558e-09, 4.738392254600214e-10).transl(1.984498112798484e-08, 4e-08, 0))
hIsland = hIsland.sub(rect(6.0812217069132384e-09, -2.13234739773044e-09).transl(-1.0773049624750577e-07, 1.5584048638168093e-08, 0))
hIsland = hIsland.sub(rect(9.620448945332489e-09, -2.1607414844025184e-09).transl(-6.886094246893155e-08, 3.467585235373058e-08, 0))
hIsland = hIsland.sub(rect(5.143141174296337e-09, -7.049482082411239e-11).transl(2.28548277570914e-08, 4e-08, 0))
hIsland = hIsland.add(rect(2.5376055242168106e-09, 1.270576287447418e-09).transl(6.312924315635873e-08, 3.5994233532330306e-08, 0))
hIsland = hIsland.add(rect(3.6337294218116016e-09, 2.2885322399298776e-09).transl(1.0938766338326652e-08, 4e-08, 0))
hIsland = hIsland.sub(rect(7.373113773042836e-09, -2.1823303472597368e-10).transl(-7.895266500946888e-08, 3.1751930945668163e-08, 0))
hIsland = hIsland.add(rect(9.580758707552912e-09, 1.3314211983053558e-09).transl(-6.176508145261232e-09, 4e-08, 0))
hIsland = hIsland.sub(rect(8.074885905004763e-09, -5.94536072951761e-10).transl(5.9214981850638504e-08, 3.677056820497624e-08, 0))
hIsland = hIsland.sub(rect(4.733607143270817e-09, -1.48480707386171e-09).transl(3.584982361812837e-08, 3.9607913019001545e-08, 0))
hIsland = hIsland.add(rect(2.8277595572683136e-09, 2.0695192400565337e-09).transl(9.651705302474673e-08, 2.4048010086930897e-08, 0))
hIsland = hIsland.add(rect(2.943767773776724e-09, 1.4690864432343225e-09).transl(-3.312971037928571e-08, 3.9756796015524166e-08, 0))
hIsland = hIsland.sub(rect(7.235314091553052e-09, -1.8152937418858003e-09).transl(-6.6995610276692935e-09, 4e-08, 0))
hIsland = hIsland.sub(rect(2.3990536207052247e-09, -5.049604988584753e-09).transl(-2.000714613799591e-08, 4e-08, 0))
hIsland = hIsland.sub(rect(7.344641282239688e-09, -1.7924568605897623e-09).transl(-2.697612394394691e-08, 3.996262535200888e-08, 0))
hIsland = hIsland.sub(rect(2.89575467215872e-09, -1.4904877792284555e-09).transl(-5.7055045560355865e-08, 3.7158664230404166e-08, 0))
hIsland = hIsland.sub(rect(6.3604534418375514e-09, -2.160739986151439e-09).transl(-5.968004261907205e-08, 3.6683323896184925e-08, 0))
hIsland = hIsland.add(rect(2.5890250100390367e-09, 1.6424989464808818e-09).transl(4.673526665542887e-08, 3.8645881809951624e-08, 0))
hIsland = hIsland.sub(rect(9.545838493520165e-09, -6.859365034891637e-10).transl(1.1314335338314988e-07, 7.99545996932567e-09, 0))
hIsland = hIsland.sub(rect(7.885037020987519e-09, -1.3891681542425077e-09).transl(1.8018248124239083e-08, 4e-08, 0))
hIsland = hIsland.add(rect(2.809382691991575e-09, 1.5114211467749573e-09).transl(1.0413774946145928e-07, 1.8855061608662006e-08, 0))
hIsland = hIsland.add(rect(7.160904768349269e-09, 3.6299851600052577e-09).transl(-2.8406674190124836e-08, 3.993086623526998e-08, 0))
hIsland = hIsland.add(rect(3.374020695814685e-09, 1.8550219445229885e-09).transl(-9.066793997210148e-08, 2.7100073242362505e-08, 0))
hIsland = hIsland.sub(rect(7.858922846022501e-09, -3.8546414708646395e-09).transl(8.619886040157121e-08, 2.9068409125077607e-08, 0))
hIsland = hIsland.sub(rect(5.9546995276859415e-09, -1.497263289051337e-09).transl(-8.534451070978108e-08, 2.9415098370836233e-08, 0))
hIsland = hIsland.add(rect(4.9260128757277255e-09, 6.540653381091786e-10).transl(3.211051102042219e-09, 4e-08, 0))
hIsland = hIsland.sub(rect(2.5337325751203185e-09, -2.09607593893122e-10).transl(5.994212732540637e-09, 4e-08, 0))
hIsland = hIsland.add(rect(3.2284913289013782e-09, 1.5715278224106445e-09).transl(8.364063252822763e-10, 4e-08, 0))
hIsland = hIsland.add(rect(7.94711717162268e-09, 3.1207218516754164e-09).transl(-7.480703034804689e-08, 3.30550083045019e-08, 0))
hIsland = hIsland.sub(rect(5.509943624072154e-09, -1.9697899623708898e-09).transl(9.248174110104143e-08, 2.6218103867913587e-08, 0))
hIsland = hIsland.add(rect(8.991720309897854e-09, 1.547882963536396e-09).transl(-5.862678063833259e-08, 3.6879030012965214e-08, 0))
hIsland = hIsland.sub(rect(7.886304475327692e-09, -5.252614222590727e-10).transl(6.112451782141352e-08, 3.6403849951379546e-08, 0))
hIsland = hIsland.sub(rect(3.770203482342511e-09, -1.8087140126270195e-09).transl(3.679113267964754e-08, 3.954802459562708e-08, 0))
hIsland = hIsland.add(rect(9.933611894264737e-09, 3.0449682785730823e-10).transl(-6.083876726284549e-08, 3.64601646880408e-08, 0))
hIsland = hIsland.sub(rect(2.433145311079936e-09, -1.979406225594006e-09).transl(6.494857043340183e-08, 3.55999549674582e-08, 0))
hIsland = hIsland.add(rect(7.51930110388168e-09, 2.807684766066009e-09).transl(-4.048591187813731e-08, 3.927086609166896e-08, 0))
hIsland = hIsland.add(rect(6.361440938074167e-09, 4.704978866910655e-09).transl(2.287732275986696e-08, 4e-08, 0))
hIsland = hIsland.add(rect(6.340874544803256e-09, 2.7497844776303146e-09).transl(-5.965513831472934e-09, 4e-08, 0))
hIsland = hIsland.sub(rect(2.313021568830477e-09, -2.3109542812208204e-09).transl(4.639803927316635e-08, 3.868473651162423e-08, 0))
hIsland = hIsland.sub(rect(3.775367582176569e-09, -3.0898594622546143e-09).transl(9.741619834434516e-08, 2.3519406072413278e-08, 0))
hIsland = hIsland.add(rect(8.564208330501671e-09, 2.214346873407326e-09).transl(-7.476951972018201e-08, 3.306611589535209e-08, 0))
hIsland = hIsland.sub(rect(6.676448553553779e-09, -7.661771522382797e-10).transl(-6.072714980285562e-09, 4e-08, 0))
vIsland = hIsland.rotz(pi / 2)
hIslands = hIslands.add(hIsland.transl(-a/2, a, 0))
hIsland = rect(islandLength-2*ellipseConstant, islandWidth)
hIsland = hIsland.add(ellipse(ellipseConstant*2, islandWidth).transl(islandLength/2-ellipseConstant, 0, 0))
hIsland = hIsland.add(ellipse(ellipseConstant*2, islandWidth).transl(-islandLength/2+ellipseConstant, 0, 0))
hIsland = hIsland.add(rect(8.884986118630603e-09, 2.8913619879302243e-09).transl(-4.25935272204751e-08, -3.9082322332674e-08, 0))
hIsland = hIsland.add(rect(5.516793876272919e-09, 1.6947046630965145e-10).transl(-3.7566653901136786e-08, -3.94954295987748e-08, 0))
hIsland = hIsland.sub(rect(3.795039045353985e-09, -6.083782088549018e-10).transl(9.932822769825982e-08, -2.2331078382142158e-08, 0))
hIsland = hIsland.add(rect(8.123740187126891e-09, 3.513703564308836e-10).transl(-1.2870939976612815e-08, -4e-08, 0))
hIsland = hIsland.sub(rect(9.056696257386588e-09, -1.864497091998464e-09).transl(-1.1023873956904079e-07, -1.2701326296084166e-08, 0))
hIsland = hIsland.add(rect(9.500757611011245e-09, 1.8423601860801853e-09).transl(-6.387893188833197e-09, -4e-08, 0))
hIsland = hIsland.add(rect(3.6630435931170633e-09, 6.158920644320577e-10).transl(1.1020466240677269e-07, -1.2745486280025978e-08, 0))
hIsland = hIsland.sub(rect(2.9961796134852564e-09, -3.1615785380263254e-09).transl(7.759943702729585e-08, -3.2194181266644395e-08, 0))
hIsland = hIsland.sub(rect(8.973686863220636e-09, -1.0690901688696697e-09).transl(-5.6853923605632137e-08, -3.7193388888791737e-08, 0))
hIsland = hIsland.add(rect(4.6375493438467384e-09, 1.8979423812905676e-09).transl(3.704102524442526e-08, -3.9531398853193245e-08, 0))
hIsland = hIsland.sub(rect(4.9503196486071004e-09, -4.924860980508746e-10).transl(-6.250538633690863e-08, -3.6124455243102105e-08, 0))
hIsland = hIsland.sub(rect(6.498372472929235e-09, -1.6024252703001994e-09).transl(-6.834912150605384e-08, -3.480286686860645e-08, 0))
hIsland = hIsland.add(rect(9.653966684732796e-09, 1.7037037779941953e-09).transl(-6.782046915450381e-08, -3.4932085187845877e-08, 0))
hIsland = hIsland.sub(rect(9.460635811263182e-09, -9.492348640876753e-10).transl(-9.196342459400579e-08, -2.6475533764991157e-08, 0))
hIsland = hIsland.sub(rect(7.551461115802884e-09, -8.242760370634988e-10).transl(-5.3879929325934265e-08, -3.7679450820635245e-08, 0))
hIsland = hIsland.add(rect(6.833256018719588e-09, 1.4318276171870428e-09).transl(-1.0971845862606105e-08, -4e-08, 0))
hIsland = hIsland.add(rect(2.487926147736661e-09, 1.7052948679429581e-09).transl(3.6532927264871835e-08, -3.9564882654206756e-08, 0))
hIsland = hIsland.add(rect(2.8188557786030927e-09, 2.946983393239454e-10).transl(-1.0868899792261709e-07, -1.4559672111288356e-08, 0))
hIsland = hIsland.add(rect(5.9656041098531106e-09, 2.9849121751423766e-10).transl(-4.0560561793029525e-08, -3.9264568821614424e-08, 0))
hIsland = hIsland.add(rect(2.7862306734702564e-09, 1.2825544819284217e-09).transl(5.248490381088717e-08, -3.789010187236816e-08, 0))
hIsland = hIsland.sub(rect(8.328409413514285e-09, -1.4437322806000111e-09).transl(-2.2026768877373768e-08, -4e-08, 0))
hIsland = hIsland.add(rect(2.466827762794942e-09, 1.0972600192694956e-09).transl(-5.8746604654996744e-08, -3.6857104784406584e-08, 0))
hIsland = hIsland.sub(rect(2.2299139365857334e-09, -2.6137220768740713e-09).transl(-1.077995325801713e-07, -1.551290257652226e-08, 0))
hIsland = hIsland.add(rect(3.4378192389666735e-09, 4.6068627081465e-10).transl(-9.49839432561132e-08, -2.4909332424490553e-08, 0))
hIsland = hIsland.add(rect(3.6600356583638353e-09, 9.561278698079836e-10).transl(-5.2661941618223973e-08, -3.786397208093914e-08, 0))
hIsland = hIsland.add(rect(5.277068687929901e-09, 1.4617297955048921e-09).transl(9.800833426813141e-08, -2.3161101729642804e-08, 0))
hIsland = hIsland.sub(rect(2.343371595338334e-09, -4.384422213855379e-09).transl(1.1480436192642745e-07, -2.6072144810129933e-09, 0))
hIsland = hIsland.sub(rect(5.039213674120808e-09, -5.303765286969991e-10).transl(-4.655561412683826e-08, -3.866665509309505e-08, 0))
hIsland = hIsland.add(rect(7.426677366847273e-09, 5.805530948043831e-10).transl(-4.2861800002029616e-08, -3.9056715342703114e-08, 0))
hIsland = hIsland.add(rect(9.16127537580772e-09, 1.5820707845925345e-09).transl(4.723429126707651e-08, -3.8587291184788784e-08, 0))
hIsland = hIsland.sub(rect(7.706200755669949e-09, -4.1257567601961056e-09).transl(-5.2999934150913766e-08, -3.78136010150838e-08, 0))
hIsland = hIsland.add(rect(5.279221920590781e-09, 1.6556394402900764e-09).transl(-1.0354898687760202e-07, -1.9326371656297373e-08, 0))
hIsland = hIsland.sub(rect(4.710810714502445e-09, -2.446843588260013e-09).transl(8.676585288026919e-08, -2.8833384893131055e-08, 0))
hIsland = hIsland.add(rect(5.436006541456881e-09, 5.190344175132817e-10).transl(-9.83380021425149e-08, -2.2957943933113793e-08, 0))
hIsland = hIsland.sub(rect(3.822074274720606e-09, -3.9053195602843616e-09).transl(-4.885416561830128e-08, -3.838803501806882e-08, 0))
hIsland = hIsland.add(rect(7.095252226598068e-09, 4.909765545744088e-10).transl(2.134233714873979e-10, -4e-08, 0))
hIsland = hIsland.sub(rect(2.518138275176507e-09, -4.52895900254571e-10).transl(6.544296944122571e-08, -3.54890071773908e-08, 0))
hIsland = hIsland.sub(rect(3.2837416402392938e-09, -4.877701593786992e-10).transl(-1.1199902703109921e-07, -1.0133076605687181e-08, 0))
hIsland = hIsland.sub(rect(3.1985292473694555e-09, -2.545450197643682e-10).transl(6.301185167749149e-08, -3.601892939984798e-08, 0))
hIsland = hIsland.sub(rect(2.5424733117164344e-09, -2.4476452150349668e-09).transl(-3.7608128573504346e-08, -3.949253376250985e-08, 0))
hIsland = hIsland.add(rect(5.981620674629552e-09, 4.963713767692565e-10).transl(8.691146133952477e-08, -2.877237802364329e-08, 0))
hIsland = hIsland.add(rect(9.772337244850141e-09, 1.3617722086822248e-10).transl(7.385006628156984e-08, -3.33347311718374e-08, 0))
hIsland = hIsland.add(rect(3.734648301856711e-09, 1.3065547681782838e-09).transl(-9.5153392140949e-08, -2.4816483342194737e-08, 0))
hIsland = hIsland.add(rect(4.170648414325277e-09, 6.078124934339229e-10).transl(-4.807331474392941e-08, -3.8485823102998384e-08, 0))
hIsland = hIsland.sub(rect(8.177913300432309e-09, -4.0145217534200073e-10).transl(7.860278024530625e-09, -4e-08, 0))
hIsland = hIsland.add(rect(3.892865415833e-09, 4.478233745877231e-09).transl(-7.505704457268751e-08, -3.298067289438745e-08, 0))
hIsland = hIsland.sub(rect(6.9719090229921935e-09, -9.554450620881386e-10).transl(-9.580062505409589e-08, -2.4456546827940546e-08, 0))
hIsland = hIsland.sub(rect(6.69111742010531e-09, -2.6558969255483787e-09).transl(-1.0806623288868263e-07, -1.523437575226292e-08, 0))
hIsland = hIsland.sub(rect(6.737287717193139e-09, -2.7604365343495854e-09).transl(6.898062993786808e-08, -3.464587709554526e-08, 0))
hIsland = hIsland.sub(rect(2.694507705569782e-09, -6.628632931397251e-10).transl(-3.05098696072132e-08, -3.986651132982529e-08, 0))
hIsland = hIsland.sub(rect(7.301250583740931e-09, -2.2226710946397886e-09).transl(7.193670866250138e-08, -3.387176569645228e-08, 0))
hIsland = hIsland.sub(rect(6.2707232812636435e-09, -3.4494997038858394e-09).transl(-9.532962482879618e-09, -4e-08, 0))
hIsland = hIsland.sub(rect(9.065079267154014e-09, -9.170291847885378e-10).transl(3.9487041174697e-08, -3.935245582492308e-08, 0))
hIsland = hIsland.sub(rect(5.5502073520186474e-09, -9.374121060173076e-10).transl(-5.8595639110966105e-08, -3.688471406453193e-08, 0))
hIsland = hIsland.add(rect(8.967675932850325e-09, 5.369973841544881e-10).transl(-7.179853680364869e-08, -3.390942791714206e-08, 0))
hIsland = hIsland.add(rect(5.4069677774998524e-09, 2.4192683663163985e-09).transl(9.808699160320063e-08, -2.3112872099917835e-08, 0))
hIsland = hIsland.sub(rect(9.731684238340699e-09, -1.1748345519079278e-09).transl(1.006201795937125e-07, -2.147274933614454e-08, 0))
hIsland = hIsland.sub(rect(2.1833186530424665e-09, -2.972586290320356e-09).transl(6.032465897737957e-08, -3.656020187962177e-08, 0))
hIsland = hIsland.add(rect(9.932917101639277e-09, 1.0367184985404847e-09).transl(1.013574620720608e-07, -2.0960436841693513e-08, 0))
hIsland = hIsland.add(rect(6.714696185225466e-09, 1.5305392565422738e-09).transl(-1.6408210540973796e-08, -4e-08, 0))
hIsland = hIsland.sub(rect(5.078000137120496e-09, -1.2435589047070633e-09).transl(2.8814393668098487e-08, -3.992003544486357e-08, 0))
hIsland = hIsland.sub(rect(2.3050123486448486e-09, -6.591767832961179e-10).transl(9.330146990344532e-08, -2.5801713463620684e-08, 0))
hIsland = hIsland.sub(rect(3.693488542487298e-09, -1.4085451396150432e-10).transl(7.137482761770023e-09, -4e-08, 0))
hIsland = hIsland.sub(rect(3.344049314116158e-09, -3.0664068352904156e-10).transl(8.248528637961965e-08, -3.051387457308764e-08, 0))
hIsland = hIsland.sub(rect(2.700026770133425e-09, -6.049356291741509e-10).transl(9.342672332786309e-09, -4e-08, 0))
hIsland = hIsland.sub(rect(4.18154102967397e-09, -1.3011999216361596e-09).transl(-2.3332109314477034e-08, -3.9999739373922285e-08, 0))
hIsland = hIsland.sub(rect(9.583251250569213e-09, -1.546753556354212e-09).transl(-3.001058637096979e-08, -3.9883695942444115e-08, 0))
hIsland = hIsland.sub(rect(9.262337219283286e-09, -3.0547568496133354e-09).transl(1.2546615044534868e-08, -4e-08, 0))
hIsland = hIsland.sub(rect(8.425057136465305e-09, -3.4434251600757705e-09).transl(-2.059096608067315e-08, -4e-08, 0))
hIsland = hIsland.sub(rect(3.0266263732874983e-09, -2.2287129972689304e-09).transl(-1.2187016412363452e-08, -4e-08, 0))
hIsland = hIsland.sub(rect(8.666783834307484e-09, -8.048105802185333e-10).transl(6.02587700156024e-08, -3.657290426601019e-08, 0))
hIsland = hIsland.add(rect(9.589901582384812e-09, 4.883792551886838e-10).transl(-7.118097915549644e-08, -3.407595554407118e-08, 0))
hIsland = hIsland.sub(rect(9.550049789244163e-09, -2.5614767884041532e-09).transl(6.822974580214692e-08, -3.4832220310681694e-08, 0))
hIsland = hIsland.sub(rect(2.653559753231944e-09, -1.0888473084831572e-09).transl(1.025336067893056e-07, -2.0105606771380767e-08, 0))
hIsland = hIsland.sub(rect(4.962943014118639e-09, -8.300762832421834e-10).transl(2.1735408414528766e-08, -4e-08, 0))
hIsland = hIsland.sub(rect(6.731853289993118e-09, -3.9935426202667975e-09).transl(-8.293668898843271e-08, -3.0346434853821286e-08, 0))
hIsland = hIsland.sub(rect(4.415725731531909e-09, -1.334208960523472e-09).transl(3.6236617148616e-08, -3.958382736352037e-08, 0))
hIsland = hIsland.add(rect(6.7275360569300945e-09, 2.1689382668459795e-09).transl(3.829672582829393e-08, -3.944321893110729e-08, 0))
hIsland = hIsland.sub(rect(5.066865439948156e-09, -3.692354596143635e-12).transl(1.4416729625954607e-09, -4e-08, 0))
hIsland = hIsland.add(rect(9.52104621919828e-09, 1.7767951864685914e-10).transl(-3.176954393149629e-08, -3.981786297097499e-08, 0))
hIsland = hIsland.add(rect(4.129020217881103e-09, 6.524317003795221e-10).transl(-4.889748311919983e-08, -3.838251504118408e-08, 0))
hIsland = hIsland.sub(rect(6.054574160100948e-09, -1.897400038671328e-09).transl(9.650830009135797e-08, -2.4053067580928532e-08, 0))
hIsland = hIsland.add(rect(2.958664637875706e-09, 4.6897641056627836e-09).transl(8.071813773945194e-08, -3.114881827823279e-08, 0))
hIsland = hIsland.sub(rect(6.5999335112817045e-09, -1.6525050398306504e-09).transl(3.262863091410888e-08, -3.9780326536393964e-08, 0))
hIsland = hIsland.add(rect(6.941700247313589e-09, 1.6826078409269334e-09).transl(4.147250913263539e-08, -3.918538751591153e-08, 0))
hIsland = hIsland.add(rect(9.595465498018976e-09, 1.21182022095472e-09).transl(-1.4510365077684094e-08, -4e-08, 0))
hIsland = hIsland.sub(rect(8.584592858115625e-09, -4.642840965131129e-10).transl(-6.937524507875506e-08, -3.4546307772273924e-08, 0))
hIsland = hIsland.sub(rect(3.979124699373927e-09, -1.2048105612320958e-09).transl(6.664745856517688e-08, -3.521175306664929e-08, 0))
hIsland = hIsland.add(rect(5.004124550687669e-09, 2.698733329453172e-09).transl(-7.178991889600215e-08, -3.391177203336083e-08, 0))
hIsland = hIsland.sub(rect(9.72568718268956e-09, -8.120901354410687e-10).transl(1.0554768906501269e-07, -1.7660305634104374e-08, 0))
hIsland = hIsland.sub(rect(8.539305434833331e-09, -1.1692917648615696e-09).transl(3.2608321843617204e-08, -3.9781254791286757e-08, 0))
hIsland = hIsland.add(rect(6.329975488377404e-09, 2.0074178716186253e-09).transl(2.7385072915838995e-09, -4e-08, 0))
hIsland = hIsland.add(rect(4.3257253746631504e-09, 8.555236220114318e-10).transl(-7.208113212380821e-08, -3.383224060893745e-08, 0))
hIsland = hIsland.sub(rect(2.5905284083085007e-09, -1.924038886728935e-09).transl(-9.918566281691673e-08, -2.242291892734996e-08, 0))
hIsland = hIsland.sub(rect(8.210026042659127e-09, -1.5481936326689984e-09).transl(-7.421830788732147e-08, -3.322798868389763e-08, 0))
hIsland = hIsland.sub(rect(6.962056083516967e-09, -1.7464563777109764e-09).transl(-9.204324926160948e-08, -2.6436176062384158e-08, 0))
hIsland = hIsland.add(rect(9.977969316727273e-09, 1.2983956997211449e-09).transl(8.303199026048938e-08, -3.0310803832815135e-08, 0))
hIsland = hIsland.sub(rect(5.202800480474593e-09, -2.040042411813467e-09).transl(1.3672808921891904e-08, -4e-08, 0))
hIsland = hIsland.add(rect(7.323922812908917e-09, 1.6554383384478337e-09).transl(-7.622069793884527e-09, -4e-08, 0))
hIsland = hIsland.sub(rect(7.852966963807422e-09, -1.9079695229199016e-10).transl(4.8583937352758163e-08, -3.84222440435263e-08, 0))
hIsland = hIsland.sub(rect(6.845673737529858e-09, -2.4781807616804984e-09).transl(2.6109427234936472e-08, -3.997714721070002e-08, 0))
hIsland = hIsland.sub(rect(7.959753931075611e-09, -2.20331619173605e-09).transl(5.3873612811602345e-08, -3.7680429281564206e-08, 0))
hIsland = hIsland.add(rect(9.492386164377646e-09, 4.820639338657673e-09).transl(-7.161261414280573e-09, -4e-08, 0))
hIsland = hIsland.add(rect(7.645221058769868e-09, 1.3571117220417575e-10).transl(-2.675011813096035e-08, -3.9966755121407636e-08, 0))
hIsland = hIsland.add(rect(7.386455971191599e-09, 1.6963579978297255e-09).transl(-1.1138094604907056e-07, -1.1108745643308605e-08, 0))
hIsland = hIsland.sub(rect(9.217222637775926e-09, -7.052193645094135e-09).transl(4.74518877435146e-09, -4e-08, 0))
hIsland = hIsland.add(rect(5.1574038611778785e-09, 1.1853775475840572e-09).transl(7.300444252507151e-08, -3.357567906280824e-08, 0))
hIsland = hIsland.sub(rect(7.68893990103617e-09, -4.173620130672948e-10).transl(-8.119347246241971e-08, -3.0981181442084686e-08, 0))
hIsland = hIsland.sub(rect(6.458446647425754e-09, -2.333292211401214e-10).transl(-9.664246290327531e-08, -2.3975364078793934e-08, 0))
hIsland = hIsland.sub(rect(9.283009505031026e-09, -5.808641217278978e-10).transl(-4.9843728251290454e-09, -4e-08, 0))
hIsland = hIsland.sub(rect(3.835300938326048e-09, -1.9433929787202245e-09).transl(-9.936693980585605e-08, -2.230604495911595e-08, 0))
hIsland = hIsland.sub(rect(3.579342823444165e-09, -1.4972424293589944e-12).transl(1.0922275018143328e-08, -4e-08, 0))
hIsland = hIsland.sub(rect(5.2362912642323306e-09, -2.0819122618965875e-09).transl(9.270060796712603e-08, -2.6108053965299884e-08, 0))
hIsland = hIsland.sub(rect(8.486348276604868e-09, -1.228209220118218e-09).transl(-8.996042336165901e-08, -2.7430274911245442e-08, 0))
hIsland = hIsland.add(rect(3.4378610463555666e-09, 6.938165677489122e-10).transl(3.748389807995752e-08, -3.95011825249744e-08, 0))
hIsland = hIsland.add(rect(3.3273454659153226e-09, 1.737324837417589e-09).transl(-4.335694087026979e-09, -4e-08, 0))
hIsland = hIsland.add(rect(5.141071743735889e-09, 1.1855389517145753e-10).transl(-6.074148496600779e-08, -3.6479220365057955e-08, 0))
hIsland = hIsland.sub(rect(8.342546843164814e-09, -1.9151679413587336e-11).transl(1.1038023556433614e-07, -1.2516110092858157e-08, 0))
hIsland = hIsland.add(rect(5.942290108731141e-09, 1.6240690863446436e-12).transl(1.1332722802317625e-07, -7.593050718606828e-09, 0))
hIsland = hIsland.add(rect(7.648153703563048e-09, 2.1031813082205625e-09).transl(2.6678611054883118e-08, -3.996801136009519e-08, 0))
hIsland = hIsland.sub(rect(2.5150935064635444e-09, -6.813997192130667e-10).transl(3.769799840169224e-08, -3.948622990576412e-08, 0))
hIsland = hIsland.sub(rect(6.1276600236700804e-09, -2.3727030465560336e-10).transl(1.0953611585549629e-07, -1.3579567748466244e-08, 0))
hIsland = hIsland.sub(rect(5.089284160071511e-09, -5.180486862472641e-11).transl(2.1877645667767333e-08, -4e-08, 0))
hIsland = hIsland.add(rect(4.7891455410318674e-09, 6.465818075102057e-10).transl(-8.547591891592915e-08, -2.9362346023597954e-08, 0))
hIsland = hIsland.add(rect(5.654259528465646e-09, 2.0154632428401866e-09).transl(7.778398386602559e-09, -4e-08, 0))
hIsland = hIsland.sub(rect(9.75986108843348e-09, -1.7691404113436992e-09).transl(-1.1179416168000005e-07, -1.0467312081925247e-08, 0))
hIsland = hIsland.sub(rect(9.508166956633396e-09, -4.3487846436666004e-09).transl(4.2468798669287335e-08, -3.9094103613088736e-08, 0))
hIsland = hIsland.sub(rect(8.592159866349136e-09, -7.940845290242735e-10).transl(-8.724445718306428e-08, -2.8631845137932292e-08, 0))
hIsland = hIsland.sub(rect(2.185225423762585e-09, -1.3224938180711148e-09).transl(1.5220158607473968e-08, -4e-08, 0))
hIsland = hIsland.sub(rect(5.96239809543491e-09, -7.020292018750607e-10).transl(-2.6332875478717397e-09, -4e-08, 0))
hIsland = hIsland.add(rect(8.410191372952956e-09, 2.2716944387216448e-11).transl(-1.0144666611837223e-07, -2.089726682734011e-08, 0))
hIsland = hIsland.sub(rect(8.86881451593283e-09, -5.855314625753918e-10).transl(-9.554870291291396e-08, -2.459765348228073e-08, 0))
hIsland = hIsland.sub(rect(5.044978097473499e-09, -3.1448164613465812e-09).transl(-1.1753598496722512e-08, -4e-08, 0))
hIsland = hIsland.sub(rect(9.910250080413391e-09, -7.270026039723374e-10).transl(-7.669064607212591e-08, -3.2481824274448696e-08, 0))
hIsland = hIsland.sub(rect(6.823768635739154e-09, -5.929650291315517e-10).transl(-5.096454311609594e-08, -3.810736084447223e-08, 0))
hIsland = hIsland.sub(rect(5.35324528260765e-09, -1.3938034061366558e-09).transl(4.969018646556976e-08, -3.82797234831908e-08, 0))
hIsland = hIsland.add(rect(9.050911529166954e-09, 8.671986798790784e-10).transl(1.1293815426782224e-07, -8.420970390914108e-09, 0))
hIsland = hIsland.sub(rect(8.450615435808605e-09, -2.5609546033404686e-09).transl(-8.900078307185693e-08, -2.7866467418900375e-08, 0))
hIsland = hIsland.sub(rect(8.641475613744721e-09, -2.39302335283295e-09).transl(-2.904816755664801e-08, -3.991346895010202e-08, 0))
hIsland = hIsland.add(rect(7.85556080990229e-09, 2.2358371513709914e-09).transl(-1.186791662204187e-08, -4e-08, 0))
hIsland = hIsland.sub(rect(5.0847910732121266e-09, -1.876810250251952e-09).transl(4.0259950723241115e-08, -3.9289758019884944e-08, 0))
hIsland = hIsland.add(rect(7.241162515693929e-09, 1.3422087910460688e-09).transl(-5.36016214611895e-08, -3.772234841236768e-08, 0))
hIsland = hIsland.sub(rect(2.9405558551075867e-09, -2.5362514039721666e-09).transl(4.649481647883724e-09, -4e-08, 0))
hIsland = hIsland.sub(rect(2.9442995551514254e-09, -3.6636280592692167e-09).transl(-9.963836399797438e-08, -2.2129371990000778e-08, 0))
hIsland = hIsland.add(rect(9.631205168481778e-09, 1.2295681270886508e-09).transl(-9.99714421652112e-08, -2.190975256088735e-08, 0))
hIsland = hIsland.sub(rect(4.632742115417144e-09, -1.2585361480837235e-09).transl(-1.0404885049898451e-07, -1.8927200262870007e-08, 0))
hIsland = hIsland.sub(rect(4.113842738341963e-09, -1.933834655477388e-09).transl(-4.489795062213122e-08, -3.885039834444265e-08, 0))
hIsland = hIsland.add(rect(9.31863699722601e-09, 1.624833594109225e-09).transl(3.4076092388737363e-08, -3.970905573365164e-08, 0))
hIsland = hIsland.sub(rect(2.7552709116649324e-09, -1.1724438142939406e-09).transl(-5.803314202225534e-08, -3.6986379141180324e-08, 0))
hIsland = hIsland.sub(rect(2.3733579731638736e-09, -2.128681757784441e-09).transl(-7.346613811470142e-08, -3.344484188527685e-08, 0))
hIsland = hIsland.add(rect(2.9708262909493684e-09, 1.1890909121140979e-09).transl(3.921938475091278e-08, -3.937347604588753e-08, 0))
hIsland = hIsland.add(rect(8.870849022188505e-09, 5.775888376239871e-10).transl(-8.880154732974638e-08, -2.7955393746299012e-08, 0))
hIsland = hIsland.sub(rect(7.853869296437954e-09, -5.499830503498314e-10).transl(-3.507392415343768e-08, -3.965403398463563e-08, 0))
hIsland = hIsland.sub(rect(6.520401880430911e-09, -1.0700405954824965e-09).transl(1.3583680984950241e-08, -4e-08, 0))
hIsland = hIsland.add(rect(6.4219362860042876e-09, 5.432342041338236e-10).transl(6.862811374648154e-10, -4e-08, 0))
hIsland = hIsland.add(rect(7.1250893039454675e-09, 2.1441331991941353e-09).transl(-2.27862291193221e-09, -4e-08, 0))
hIsland = hIsland.add(rect(2.955189476307087e-09, 8.214742266401067e-10).transl(-9.7406770023733e-08, -2.3525044269258435e-08, 0))
hIsland = hIsland.sub(rect(3.7219935453989764e-09, -3.629883476029143e-10).transl(9.901575352847907e-08, -2.2531663146324066e-08, 0))
hIsland = hIsland.sub(rect(8.495362581838582e-09, -1.3611109939491606e-09).transl(-7.018249722846592e-08, -3.433905214103014e-08, 0))
hIsland = hIsland.sub(rect(5.208033807749395e-09, -1.1154678624376753e-10).transl(-1.3041711956121304e-08, -4e-08, 0))
hIsland = hIsland.sub(rect(6.553089131180307e-09, -1.5557876400509186e-09).transl(8.940218929826504e-08, -2.768561437236507e-08, 0))
hIsland = hIsland.sub(rect(6.5941369494514295e-09, -1.9398529588313303e-09).transl(-2.3962353997218185e-08, -3.999781155351761e-08, 0))
hIsland = hIsland.sub(rect(5.538446238120656e-09, -8.616762643036105e-10).transl(-5.875618768780189e-08, -3.685534755102366e-08, 0))
hIsland = hIsland.add(rect(8.628448664226603e-09, 2.5364249583081336e-09).transl(-8.89598453460075e-08, -2.7884784564253915e-08, 0))
hIsland = hIsland.add(rect(4.423859486657913e-09, 8.29881630359217e-10).transl(4.307500365880356e-09, -4e-08, 0))
hIsland = hIsland.sub(rect(9.160833098607005e-09, -2.514835651232326e-09).transl(8.148408734642402e-08, -3.087756028509855e-08, 0))
hIsland = hIsland.sub(rect(8.306807022465217e-09, -2.7903374575825626e-09).transl(9.83502281512945e-08, -2.295035785804769e-08, 0))
hIsland = hIsland.add(rect(8.238669013157508e-09, 1.3985145406483488e-09).transl(-2.3105964429108145e-08, -3.999997346771276e-08, 0))
hIsland = hIsland.add(rect(8.8975915211191e-09, 2.1189047908544915e-09).transl(7.052987053357497e-08, -3.4248373927046604e-08, 0))
hIsland = hIsland.sub(rect(6.6595311167726825e-09, -3.177550224784251e-09).transl(1.136757257164792e-07, -6.762410921598768e-09, 0))
hIsland = hIsland.add(rect(5.164327252645988e-09, 1.9336291951220297e-09).transl(-8.205999919053967e-08, -3.066964194099652e-08, 0))
hIsland = hIsland.add(rect(9.434549400760647e-09, 7.998632216069706e-10).transl(5.405768585322782e-08, -3.765182284564271e-08, 0))
hIsland = hIsland.sub(rect(3.1921288553764757e-09, -1.2700000791946288e-10).transl(-6.591214980363453e-08, -3.538218929525451e-08, 0))
hIsland = hIsland.add(rect(9.187374557220366e-09, 7.18543672599825e-10).transl(-2.2871234680623526e-08, -4e-08, 0))
hIsland = hIsland.sub(rect(9.64248811375142e-09, -2.3258330774244124e-09).transl(7.586975389946538e-08, -3.2735374582790526e-08, 0))
hIsland = hIsland.add(rect(8.323717984892888e-09, 3.039276734253964e-11).transl(1.4909087306251501e-09, -4e-08, 0))
hIsland = hIsland.add(rect(8.258634693819218e-09, 2.8610574669912506e-09).transl(3.260056214032516e-08, -3.978160893633239e-08, 0))
hIsland = hIsland.add(rect(8.109227838725855e-09, 1.5222749192877503e-09).transl(-2.652476989934658e-08, -3.9970631934357543e-08, 0))
hIsland = hIsland.sub(rect(8.619079675069572e-09, -3.5686475631190987e-11).transl(-3.775510767733118e-08, -3.94822033978287e-08, 0))
hIsland = hIsland.sub(rect(2.5473965310422175e-09, -1.6309255882284788e-09).transl(5.172290679608153e-08, -3.8000583582185875e-08, 0))
hIsland = hIsland.add(rect(9.399462711473092e-09, 5.32220263733993e-10).transl(6.344867263891965e-08, -3.592658151438746e-08, 0))
hIsland = hIsland.add(rect(4.83521957527429e-09, 4.975824792027131e-10).transl(-8.656942109080718e-08, -2.891526209918531e-08, 0))
hIsland = hIsland.sub(rect(2.1266204338179728e-09, -1.1665948069358407e-09).transl(-9.562555699235256e-08, -2.455474371392292e-08, 0))
hIsland = hIsland.add(rect(2.8401829406953134e-09, 5.790918153216171e-10).transl(5.6885042771324126e-08, -3.718803158381136e-08, 0))
hIsland = hIsland.add(rect(6.697509125240058e-09, 5.117097753088127e-09).transl(1.0578521298672249e-09, -4e-08, 0))
hIsland = hIsland.sub(rect(3.5461551222758657e-09, -4.173284247599444e-09).transl(1.0159157640041182e-07, -2.0794085056253335e-08, 0))
hIsland = hIsland.sub(rect(7.524560273377978e-09, -1.354852126588507e-09).transl(1.0812715779461483e-07, -1.516990731860159e-08, 0))
hIsland = hIsland.sub(rect(9.446636390720124e-09, -1.8137255859476168e-09).transl(-9.503458786576646e-08, -2.4881640998774663e-08, 0))
hIsland = hIsland.sub(rect(5.154717579465465e-09, -2.3241053484801924e-09).transl(4.247520500071298e-08, -3.909350041990771e-08, 0))
hIsland = hIsland.sub(rect(6.5229554578407745e-09, -1.8273842252391827e-10).transl(2.165870928558764e-08, -4e-08, 0))
hIsland = hIsland.add(rect(3.938946543004336e-09, 1.402514047119644e-09).transl(-7.362196236932678e-08, -3.340029579427804e-08, 0))
hIsland = hIsland.sub(rect(3.3586929816844062e-09, -7.162981039811347e-10).transl(-9.256856872461269e-08, -2.6174542263160624e-08, 0))
hIsland = hIsland.sub(rect(7.155701023762426e-09, -5.990994111265118e-10).transl(-1.1426718789148884e-07, -5.038611114397641e-09, 0))
hIsland = hIsland.sub(rect(3.5742799496757814e-09, -7.95362751132091e-10).transl(-9.676832094381229e-08, -2.3902111434486252e-08, 0))
hIsland = hIsland.sub(rect(2.720212692006343e-09, -1.3569283329673165e-09).transl(1.2108422501331578e-08, -4e-08, 0))
hIsland = hIsland.sub(rect(8.38810696744119e-09, -4.6505266405762605e-10).transl(7.096559892350205e-09, -4e-08, 0))
hIsland = hIsland.add(rect(7.929379876258626e-09, 5.1186288735104626e-09).transl(-7.826667142362764e-08, -3.197823878979163e-08, 0))
hIsland = hIsland.add(rect(8.93687643054971e-09, 1.084902283409678e-09).transl(-1.5034077958761082e-08, -4e-08, 0))
hIsland = hIsland.sub(rect(7.500568869608304e-09, -2.9664282407888723e-10).transl(-2.0652306743433436e-08, -4e-08, 0))
hIsland = hIsland.sub(rect(3.1355768755676286e-09, -5.916400155939318e-09).transl(-6.981623315681779e-10, -4e-08, 0))
hIsland = hIsland.add(rect(3.372160200111795e-09, 9.369012420131697e-10).transl(-5.71415846749693e-08, 3.714364950640181e-08, 0))
hIsland = hIsland.sub(rect(2.4380724127293885e-09, -1.4411692837283164e-09).transl(-1.8654316232407535e-09, 4e-08, 0))
hIsland = hIsland.add(rect(6.1392110590096875e-09, 1.6614723249087433e-09).transl(-1.0005870706543765e-07, 2.1851689753123046e-08, 0))
hIsland = hIsland.sub(rect(2.6584417248739032e-09, -3.74907757515414e-09).transl(-4.122547720935617e-09, 4e-08, 0))
[...]
hIsland = hIsland.sub(rect(7.72784188654938e-09, -2.073055967615343e-09).transl(-1.1267924605581938e-07, 8.927695558688211e-09, 0))
hIsland = hIsland.add(rect(7.156600919276352e-09, 3.211576290873626e-09).transl(-1.1610795303936274e-08, 4e-08, 0))
hIsland = hIsland.add(rect(3.8053680949939094e-09, 2.0114696950091303e-09).transl(7.055661885081106e-08, 3.424135397467008e-08, 0))
hIsland = hIsland.sub(rect(4.4949433871144055e-09, -2.5906478002940305e-09).transl(9.222306814094956e-08, 2.6347133141818555e-08, 0))
hIsland = hIsland.add(rect(3.2579087392573628e-09, 2.3380512820421134e-09).transl(-1.0761218547708218e-07, 1.5705092119633392e-08, 0))
hIsland = hIsland.add(rect(5.16286462935493e-09, 6.679692168415993e-10).transl(-3.702070888356078e-08, 3.95327619449336e-08, 0))
hIsland = hIsland.add(rect(7.299912208404956e-09, 1.192216547748672e-09).transl(1.1099140274868154e-07, 1.1678693396756687e-08, 0))
hIsland = hIsland.sub(rect(4.712429983382893e-09, -8.415596618101849e-10).transl(4.5273581732606156e-09, 4e-08, 0))
hIsland = hIsland.sub(rect(2.2861820754768563e-09, -1.3454502227367979e-09).transl(4.740878697769285e-08, 3.85664945582295e-08, 0))
hIsland = hIsland.add(rect(6.264589172689805e-09, 2.21645934103824e-09).transl(-2.1533581915954365e-08, 4e-08, 0))
hIsland = hIsland.sub(rect(2.016872892467351e-09, -3.977226074548618e-09).transl(2.8924407246527055e-09, 4e-08, 0))
hIsland = hIsland.add(rect(8.309826321336727e-09, 1.1091911643109175e-09).transl(1.086638669316195e-07, 1.4587600596950186e-08, 0))
hIsland = hIsland.sub(rect(2.850944678714188e-09, -3.1868690832751987e-09).transl(1.6392954677104187e-08, 4e-08, 0))
hIsland = hIsland.add(rect(3.0677089823719763e-09, 4.086526115261742e-09).transl(-1.0539184893368976e-08, 4e-08, 0))
hIsland = hIsland.add(rect(5.540853251436372e-09, 5.1588294753058905e-09).transl(-1.7469480278289568e-08, 4e-08, 0))
hIsland = hIsland.add(rect(5.190045648737833e-09, 2.1683710592052964e-09).transl(-7.281739877895061e-09, 4e-08, 0))
hIsland = hIsland.add(rect(6.877984738825051e-09, 1.915994762776575e-10).transl(1.6643639532523593e-08, 4e-08, 0))
hIsland = hIsland.add(rect(7.335503051673465e-09, 1.0487048403952736e-09).transl(-8.02400588759281e-08, 3.131514203960053e-08, 0))
hIsland = hIsland.add(rect(7.507439610710323e-09, 1.7045537285758354e-09).transl(-8.007313725620716e-08, 3.137268207039378e-08, 0))
hIsland = hIsland.add(rect(3.594133572223971e-09, 8.216565655180507e-10).transl(1.1744886879167538e-09, 4e-08, 0))
hIsland = hIsland.sub(rect(2.7792747668702067e-09, -2.0179845196160802e-09).transl(7.131637251418939e-08, 3.4039697016588034e-08, 0))
hIsland = hIsland.sub(rect(3.1833962891160647e-09, -1.7023868197946382e-09).transl(-9.151206544546801e-08, 2.6696136833144442e-08, 0))
hIsland = hIsland.sub(rect(2.97242544748262e-09, -7.126716528391691e-11).transl(9.07483550928493e-08, 2.706206680532092e-08, 0))
hIsland = hIsland.add(rect(4.690500536207279e-09, 1.170226245851718e-09).transl(7.022286684476546e-08, 3.4328560493970545e-08, 0))
hIsland = hIsland.add(rect(3.5998977697323444e-09, 1.6061609830034175e-09).transl(-5.4194129597341895e-08, 3.763049450844038e-08, 0))
hIsland = hIsland.add(rect(8.923546903992452e-09, 8.212168194161535e-10).transl(2.7332450446859154e-09, 4e-08, 0))
hIsland = hIsland.sub(rect(4.258401875028669e-09, -5.605928197950884e-10).transl(7.588989283955543e-08, 3.272922430944531e-08, 0))
hIsland = hIsland.add(rect(4.632403812377572e-09, 1.8313317130946207e-09).transl(-4.5936774112235224e-08, 3.873692082051536e-08, 0))
hIsland = hIsland.sub(rect(4.20428002737268e-09, -5.463439098523695e-10).transl(-5.958689929791313e-09, 4e-08, 0))
hIsland = hIsland.add(rect(7.940996523635264e-09, 3.4598341069237243e-09).transl(-9.629837023128281e-08, 2.4173869727196866e-08, 0))
hIsland = hIsland.sub(rect(2.706601135684278e-09, -4.448650571919308e-10).transl(1.002864939634068e-07, 2.169908420551633e-08, 0))
hIsland = hIsland.add(rect(5.177840340817259e-09, 1.0525161463468867e-09).transl(2.0841965308599726e-08, 4e-08, 0))
hIsland = hIsland.sub(rect(4.2648382320828736e-09, -1.8445819395690031e-09).transl(-9.05490877800531e-08, 2.7156066278889108e-08, 0))
hIsland = hIsland.sub(rect(3.589341677051005e-09, -1.6913648295938943e-09).transl(-7.761013123161441e-08, 3.2190752252758245e-08, 0))
hIsland = hIsland.add(rect(6.98143156665539e-09, 5.033476426312498e-10).transl(-8.843779280362709e-08, 2.8116337012355603e-08, 0))
hIsland = hIsland.add(rect(2.10718804664611e-09, 4.6409850167804027e-10).transl(-5.385384381781599e-08, 3.768349014391356e-08, 0))
hIsland = hIsland.sub(rect(6.434477063167347e-09, -2.9183650419213523e-09).transl(1.009350664264044e-07, 2.1256047381973756e-08, 0))
hIsland = hIsland.add(rect(4.567436322556843e-09, 2.5847333851940205e-10).transl(-7.565930921920414e-08, 3.279943390330634e-08, 0))
hIsland = hIsland.sub(rect(8.770685478274833e-09, -2.0880365320886284e-09).transl(1.0177620052862014e-07, 2.0661600733085206e-08, 0))
hIsland = hIsland.add(rect(4.338511229757666e-09, 4.490858318884051e-09).transl(-6.7192177637608886e-09, 4e-08, 0))
hIsland = hIsland.add(rect(4.915261334911701e-09, 4.587680130809923e-10).transl(-1.1003518252219077e-08, 4e-08, 0))
hIsland = hIsland.add(rect(6.44522703928399e-09, 3.093850192315466e-10).transl(1.469534392646906e-08, 4e-08, 0))
hIsland = hIsland.sub(rect(3.364032794363948e-09, -2.5192035456065365e-09).transl(1.0779274510699299e-07, 1.5519914502549602e-08, 0))
hIsland = hIsland.sub(rect(9.221997047459227e-09, -1.0705626977184747e-09).transl(-9.588760192457357e-08, 2.440752574481717e-08, 0))
hIsland = hIsland.sub(rect(4.7433829682250756e-09, -2.0398879003092305e-09).transl(-7.929038840365426e-08, 3.163888927310611e-08, 0))
hIsland = hIsland.add(rect(2.382688864711802e-09, 1.659045277976993e-09).transl(2.5868916804317014e-08, 3.998054658423138e-08, 0))
hIsland = hIsland.sub(rect(3.6027737249778476e-09, -6.632417148186894e-11).transl(-1.0958575929546136e-07, 1.3519615988973432e-08, 0))
hIsland = hIsland.add(rect(4.6145697318232715e-09, 3.450913886237086e-09).transl(7.703561639507018e-08, 3.237350593819876e-08, 0))
hIsland = hIsland.add(rect(4.2500670440329266e-09, 2.5109929601737726e-09).transl(3.490318585064548e-08, 3.96637906481866e-08, 0))
hIsland = hIsland.sub(rect(5.084025105733218e-09, -6.276956149279421e-10).transl(-1.0173024812746276e-07, 2.0694684073941665e-08, 0))
hIsland = hIsland.add(rect(4.400537044700605e-09, 1.2339187282464455e-09).transl(-1.0625744020413706e-07, 1.70188300621188e-08, 0))
hIsland = hIsland.sub(rect(6.468269964993103e-09, -9.0472376606649e-10).transl(-3.2654348038814055e-08, 3.977914825516645e-08, 0))
hIsland = hIsland.add(rect(6.290184812635163e-09, 1.4837274332899592e-09).transl(-7.412069890334197e-08, 3.325639112684127e-08, 0))
hIsland = hIsland.sub(rect(2.5456769723296952e-09, -1.9592500628952704e-09).transl(-3.1630711905008936e-08, 3.9823596874909956e-08, 0))
hIsland = hIsland.sub(rect(7.537145218898167e-09, -6.674475774072173e-10).transl(-2.469307622455233e-09, 4e-08, 0))
hIsland = hIsland.add(rect(3.2855928038359637e-09, 3.026497281632561e-09).transl(-1.0556800848441451e-07, 1.7642340240783795e-08, 0))
hIsland = hIsland.add(rect(7.939841183237795e-09, 1.2074489605107726e-09).transl(-1.1401693095481516e-07, 5.8318965123936105e-09, 0))
hIsland = hIsland.sub(rect(3.047674810379135e-09, -5.236537104485064e-09).transl(-1.14237958698736e-07, 5.137704732861697e-09, 0))
hIsland = hIsland.sub(rect(2.669319253494055e-09, -7.993656553570176e-10).transl(-1.0110014733346303e-07, 2.114119866517173e-08, 0))
hIsland = hIsland.add(rect(3.847784807465331e-09, 1.2310811111124293e-09).transl(4.751296329309305e-08, 3.855400216952338e-08, 0))
hIsland = hIsland.sub(rect(6.496631865411944e-09, -3.086433201999529e-10).transl(3.7982774555549327e-08, 3.946599231560154e-08, 0))
hIsland = hIsland.add(rect(7.451715483205598e-09, 3.7936094150422616e-09).transl(9.723546307746706e-08, 2.362712877027247e-08, 0))
hIsland = hIsland.sub(rect(2.1420924478786117e-09, -6.288425312408343e-10).transl(2.9421599059651433e-08, 3.990244025473884e-08, 0))
hIsland = hIsland.sub(rect(3.0672546647495873e-09, -1.5123349304322551e-09).transl(8.206277379906773e-08, 3.066863187877347e-08, 0))
hIsland = hIsland.add(rect(4.449199929802272e-09, 3.062189490866236e-09).transl(-6.730557481663759e-08, 3.5056034108864047e-08, 0))
hIsland = hIsland.sub(rect(5.906224741874463e-09, -8.739333616825561e-10).transl(6.014445191371475e-08, 3.659487938197154e-08, 0))
hIsland = hIsland.add(rect(5.996069088040315e-09, 2.4939420320943294e-09).transl(-5.602912850433432e-08, 3.733331365114409e-08, 0))
hIsland = hIsland.add(rect(8.462515299944404e-09, 2.0602486698661265e-09).transl(3.699294742322651e-08, 3.953462128601826e-08, 0))
hIsland = hIsland.add(rect(9.950067092340299e-09, 1.3476024381702383e-09).transl(1.1172627673686416e-07, 1.0575570311465044e-08, 0))
hIsland = hIsland.sub(rect(6.2849815982355415e-09, -5.0278944924173055e-09).transl(6.48865818354619e-08, 3.561374987261066e-08, 0))
hIsland = hIsland.sub(rect(7.720967802752683e-09, -9.144244871658831e-11).transl(-7.590192866020031e-08, 3.272554699455505e-08, 0))
hIsland = hIsland.sub(rect(3.030093295625589e-09, -1.1463478468411573e-09).transl(-7.315304138951452e-08, 3.353375535882224e-08, 0))
hIsland = hIsland.sub(rect(8.134313223682794e-09, -3.3473807549015194e-09).transl(-2.81836691929171e-08, 3.9936456081237614e-08, 0))
hIsland = hIsland.add(rect(8.410647546866504e-09, 2.3139004956409958e-09).transl(8.073618712952018e-08, 3.114249431141761e-08, 0))
hIsland = hIsland.add(rect(5.737688296677105e-09, 1.0819612451916204e-09).transl(-5.177357073110132e-09, 4e-08, 0))
hIsland = hIsland.sub(rect(9.262929733322353e-09, -3.292655842759837e-09).transl(-8.95356097295944e-08, 2.7624995660423078e-08, 0))
hIsland = hIsland.sub(rect(3.510947463779891e-09, -4.2731438140795305e-09).transl(9.095789989159428e-08, 2.696256538956186e-08, 0))
hIsland = hIsland.add(rect(5.780856663857784e-09, 1.164256599808979e-09).transl(1.8081094164052003e-08, 4e-08, 0))
hIsland = hIsland.sub(rect(7.85903175748468e-09, -1.536342752038816e-09).transl(-4.533674225661826e-08, 3.8803148064174466e-08, 0))
hIsland = hIsland.add(rect(9.891287462798339e-09, 1.6900123320023649e-09).transl(-7.985594222628165e-08, 3.1447143620416846e-08, 0))
hIsland = hIsland.sub(rect(3.1700255074890652e-09, -1.0812465088579445e-09).transl(-1.108142572934949e-07, 1.1928078547840616e-08, 0))
hIsland = hIsland.sub(rect(6.715591095117616e-09, -5.734228517156991e-10).transl(1.4261525758197055e-08, 4e-08, 0))
hIsland = hIsland.add(rect(2.3002305721023088e-09, 1.3140385800073322e-09).transl(-4.143508486237139e-08, 3.918871902344981e-08, 0))
hIsland = hIsland.sub(rect(4.1107164925295956e-09, -3.7220864253369272e-09).transl(-6.69723545521112e-08, 3.5135255898049777e-08, 0))
hIsland = hIsland.add(rect(3.731489055140722e-09, 1.8865070443451475e-09).transl(-3.251198378760947e-08, 3.978563106700295e-08, 0))
hIsland = hIsland.sub(rect(7.328605315025942e-09, -2.173059020836358e-09).transl(1.6720628603316986e-09, 4e-08, 0))
hIsland = hIsland.sub(rect(5.9964699736075226e-09, -1.807853921832033e-09).transl(5.808905370548508e-08, 3.697635864047197e-08, 0))
hIsland = hIsland.sub(rect(6.949826073399832e-09, -3.463408631551548e-09).transl(-2.9262342966438967e-08, 3.9907224783238714e-08, 0))
hIsland = hIsland.add(rect(9.75341967886088e-09, 5.036629519398036e-10).transl(-2.5489516299837504e-08, 3.9985352489663695e-08, 0))
hIsland = hIsland.sub(rect(2.9083519426440052e-09, -1.4989069297657014e-09).transl(3.2809844073838486e-08, 3.977195618664578e-08, 0))
hIsland = hIsland.add(rect(2.3380299965962647e-09, 3.5734119232696794e-09).transl(-2.7262467834878484e-08, 3.995704538606727e-08, 0))
hIsland = hIsland.add(rect(5.166466723684293e-09, 5.056943471187455e-10).transl(-6.002829655150985e-08, 3.6617125060964706e-08, 0))
hIsland = hIsland.sub(rect(4.218421031643765e-09, -7.898051614790248e-10).transl(-1.1043547245865415e-07, 1.2442975075141479e-08, 0))
hIsland = hIsland.add(rect(5.882685050053914e-09, 2.790832341537205e-09).transl(9.442221420841365e-08, 2.5213145510516818e-08, 0))
hIsland = hIsland.sub(rect(4.860789534749977e-09, -9.83617773976552e-10).transl(-1.1670152553833902e-08, 4e-08, 0))
hIsland = hIsland.add(rect(8.056517419899708e-09, 2.3385119041404036e-09).transl(1.1048917583586231e-07, 1.2371411274804237e-08, 0))
hIsland = hIsland.sub(rect(2.6659363360779225e-09, -5.5836448899063045e-09).transl(1.0154949464586243e-08, 4e-08, 0))
hIsland = hIsland.add(rect(2.3295061568036844e-09, 4.198633379308647e-10).transl(1.1168850950075196e-07, 1.0635286369872366e-08, 0))
hIsland = hIsland.sub(rect(2.2751839362455374e-09, -1.7633218942619296e-10).transl(-1.0811069266113068e-07, 1.5187361641757743e-08, 0))
hIsland = hIsland.sub(rect(7.116989533925698e-09, -1.1061217375057021e-10).transl(6.980881855138831e-08, 3.443559097048326e-08, 0))
hIsland = hIsland.sub(rect(2.7896594020128335e-09, -1.8235451921443477e-09).transl(-1.0695092112677303e-07, 1.636217479667088e-08, 0))
hIsland = hIsland.add(rect(7.3017701120896815e-09, 2.2197896091999037e-09).transl(9.133738540849679e-08, 2.6780638534010592e-08, 0))
hIsland = hIsland.sub(rect(2.3075719615840874e-09, -2.1152724482800764e-10).transl(2.9617513837729562e-08, 3.989638875454248e-08, 0))
hIsland = hIsland.sub(rect(6.688387203210239e-09, -3.7898732609606294e-10).transl(-7.121905694414472e-08, 3.4065772441906666e-08, 0))
hIsland = hIsland.add(rect(5.586975265720418e-09, 1.6887618297663938e-09).transl(7.83670313064663e-08, 3.1945404290083085e-08, 0))
hIsland = hIsland.add(rect(5.973082819179581e-09, 7.829636057049658e-10).transl(-1.3329577975088952e-09, 4e-08, 0))
hIsland = hIsland.add(rect(9.719849184064637e-09, 1.2311244206164024e-09).transl(4.641783300929332e-08, 3.8682472345466974e-08, 0))
hIsland = hIsland.add(rect(5.950152417893333e-09, 1.1260964670392431e-09).transl(-1.0510545458209625e-07, 1.804580565328808e-08, 0))
hIsland = hIsland.add(rect(5.2495364608858046e-09, 3.5602871127564305e-10).transl(-1.1474340140431857e-07, 2.9854182092207573e-09, 0))
hIsland = hIsland.sub(rect(8.807206199850183e-09, -3.4186268791484134e-09).transl(4.530720356323172e-08, 3.880636012122172e-08, 0))
hIsland = hIsland.sub(rect(2.9613125801330354e-09, -2.3968818748371893e-10).transl(5.8177610793700465e-08, 3.696044914897972e-08, 0))
hIsland = hIsland.sub(rect(3.652433048759294e-09, -4.518148364533e-10).transl(6.941086622753997e-08, 3.453726377462019e-08, 0))
hIsland = hIsland.add(rect(4.71722278785836e-09, 2.9320953449150565e-09).transl(-8.445778990836935e-08, 2.9765752321460326e-08, 0))
hIsland = hIsland.add(rect(3.352385753111162e-09, 4.049740778338578e-10).transl(-4.0144750177575375e-08, 3.929929156912706e-08, 0))
hIsland = hIsland.sub(rect(3.880476188689366e-09, -2.0131824601839617e-09).transl(6.344195317990658e-08, 3.592801146915115e-08, 0))
hIsland = hIsland.add(rect(8.119130242299515e-09, 1.29856131520167e-10).transl(8.416112513074294e-08, 2.988103941609654e-08, 0))
hIsland = hIsland.sub(rect(9.443345716374636e-09, -1.852249201899837e-09).transl(9.77366061534072e-09, 4e-08, 0))
hIsland = hIsland.add(rect(8.37358957493179e-09, 1.0551749097082978e-09).transl(5.026438904871579e-08, 3.82031508558124e-08, 0))
hIsland = hIsland.add(rect(4.938133034581862e-09, 4.093782255879728e-09).transl(-6.794686346692156e-08, 3.490137187679053e-08, 0))
hIsland = hIsland.add(rect(9.981956001059214e-09, 1.8833345642104812e-09).transl(-7.534932141453376e-09, 4e-08, 0))
hIsland = hIsland.sub(rect(9.980887408112154e-09, -3.4855291094688837e-10).transl(-1.0523896198794842e-07, 1.7930516652834522e-08, 0))
hIsland = hIsland.add(rect(7.486453393794435e-09, 4.298984931189059e-10).transl(-3.160825657427664e-09, 4e-08, 0))
hIsland = hIsland.sub(rect(8.721257965371407e-09, -6.332321123108192e-10).transl(-1.0753643523365967e-07, 1.5782016505749917e-08, 0))
hIsland = hIsland.add(rect(7.280949342532795e-09, 1.2243956550214718e-09).transl(-4.376963846433723e-09, 4e-08, 0))
hIsland = hIsland.sub(rect(7.58430637929807e-09, -1.2301994238862718e-09).transl(9.113126140676811e-08, 2.6879733615295202e-08, 0))
hIsland = hIsland.sub(rect(3.755090477358254e-09, -2.068103264734903e-09).transl(5.1485636386447154e-08, 3.80343306260771e-08, 0))
hIsland = hIsland.add(rect(3.3827503703524517e-09, 3.1386136510714554e-09).transl(-4.1455418902123564e-08, 3.9186909761107324e-08, 0))
hIsland = hIsland.sub(rect(8.15848055772612e-09, -1.3796869138487332e-09).transl(5.42882899702952e-08, 3.761571412454098e-08, 0))
hIsland = hIsland.add(rect(9.718965390395093e-09, 3.2389276871328774e-09).transl(1.0314539311181635e-07, 1.9640993178413463e-08, 0))
hIsland = hIsland.sub(rect(7.332423197564316e-09, -3.696136254391409e-09).transl(2.441153400626799e-09, 4e-08, 0))
hIsland = hIsland.add(rect(3.3359815850260345e-09, 1.975346882649234e-09).transl(-4.4926300677074944e-08, 3.884737558099527e-08, 0))
hIsland = hIsland.sub(rect(3.972745315009308e-09, -3.321398679790444e-11).transl(-8.899302433951126e-08, 2.7869940777923574e-08, 0))
hIsland = hIsland.add(rect(5.4012215199820814e-09, 5.987904558729468e-10).transl(-1.089296287490353e-07, 1.428906877299661e-08, 0))
hIsland = hIsland.sub(rect(5.991361953669262e-09, -1.0052905380251407e-09).transl(-1.7877911887980073e-08, 4e-08, 0))
hIsland = hIsland.add(rect(6.945659997007048e-09, 6.403783928344496e-09).transl(-7.439621768335282e-09, 4e-08, 0))
hIsland = hIsland.sub(rect(6.077053127072309e-09, -1.6657814838319948e-09).transl(7.900561593428234e-08, 3.173427891396541e-08, 0))
hIsland = hIsland.sub(rect(8.536262768504533e-09, -2.074026129039502e-09).transl(3.2989030325799e-08, 3.9763524225332143e-08, 0))
hIsland = hIsland.add(rect(7.96199475923504e-09, 1.026408426594889e-09).transl(-9.495325901095722e-08, 2.4926085506875122e-08, 0))
hIsland = hIsland.sub(rect(7.558397374647488e-09, -1.1355117335902408e-09).transl(1.0003182031286516e-07, 2.1869602641883687e-08, 0))
hIsland = hIsland.add(rect(4.008941601856661e-09, 4.358947209841063e-10).transl(-4.658911552066766e-08, 3.8662794131898396e-08, 0))
hIsland = hIsland.add(rect(6.971923049619484e-09, 3.4429510102996444e-10).transl(-9.064393640316221e-08, 2.7111398937369496e-08, 0))
hIsland = hIsland.add(rect(8.850997743017176e-09, 2.1317111011700724e-09).transl(6.871936121904421e-08, 3.4711176677505e-08, 0))
hIsland = hIsland.sub(rect(7.704560509218297e-09, -4.912616042642441e-09).transl(1.9359481049563504e-08, 4e-08, 0))
hIsland = hIsland.sub(rect(6.899725797499267e-09, -1.960122169507675e-09).transl(8.983789030107618e-08, 2.748670900711533e-08, 0))
hIsland = hIsland.sub(rect(5.739577317213789e-09, -2.4757946380626758e-09).transl(5.7914086940555303e-08, 3.700765397027e-08, 0))
hIsland = hIsland.sub(rect(7.0418183576117e-09, -1.1142372058351893e-09).transl(-5.675508044366043e-09, 4e-08, 0))
hIsland = hIsland.sub(rect(7.949874838193136e-09, -1.8756388976694145e-09).transl(8.043915749240988e-08, 3.124615117791783e-08, 0))
hIsland = hIsland.add(rect(4.608599703548489e-09, 2.802611210632457e-09).transl(5.950821610992597e-08, 3.671571200234986e-08, 0))
vIsland = hIsland.rotz(pi / 2)
vIslands = vIslands.add(vIsland.transl(0, -a/2, 0))
DefRegion(1, hIslands)
DefRegion(2, vIslands)
TableAdd(m_full.Region(1))
TableAdd(m_full.Region(2))
setgeom(hIslands.add(vIslands))
save(geom)
r2o2 := sqrt(2) / 2
m = RandomMagSeed(4)
B_ext = vector(Bmax*r2o2, Bmax*r2o2, 0)
relax()
minimize()
for B := Bmax; B >= -Bmax; B -= Bstep {
	B_ext = vector(B*r2o2, B*r2o2, 0)
	minimize()
	tablesave()
}
//********************************************************************//
//Please cite the following references, relevant for your simulation. //
//See bibtex file in output folder for justification.                 //
//********************************************************************//
//   * Vansteenkiste et al., AIP Adv. 4, 107133 (2014).
//   * Exl et al., J. Appl. Phys. 115, 17D118 (2014).
