# t (s)	mx ()	my ()	mz ()	B_extx (T)	B_exty (T)	B_extz (T)	m_fullx (A/m)	m_fully (A/m)	m_fullz (A/m)	m_full.region1x (A/m)	m_full.region1y (A/m)	m_full.region1z (A/m)	m_full.region2x (A/m)	m_full.region2y (A/m)	m_full.region2z (A/m)
0	0.6606779	0.65783066	-5.484452e-10	0.07071067	0.07071067	0	172324.86	171582.22	-0.00013647959	609945	312887.6	-0.00037974684	314832.4	608247.25	-0.00037676393
0	0.6606027	0.65775704	-1.0650609e-10	0.07056918	0.07056918	0	172305.22	171563	-2.4872448e-05	610011.7	312717.03	-5.4738284e-05	314660.2	608314.8	-6.165228e-05
0	0.66052514	0.65767676	-7.8349306e-11	0.07042789	0.07042789	0	172285.02	171542.06	-2.327806e-05	610084.7	312533.12	5.302771e-05	314478.56	608386.5	-0.00017468147
0	0.6604469	0.65759516	-3.215586e-10	0.070286386	0.07028639	0	172264.58	171520.78	-8.354592e-05	610158.56	312346.72	-0.00023947998	314294.84	608458.75	-0.0002055076
0	0.66036916	0.65751386	-1.224208e-10	0.07014501	0.07014502	0	172244.3	171499.58	-3.1887754e-05	610232.94	312160.38	-7.355457e-05	314111.47	608531.5	-6.165228e-05
0	0.6602912	0.65743256	-4.2439208e-10	0.07000351	0.07000352	0	172224	171478.38	-0.00011033163	610306.6	311974.7	-0.00032329798	313928.62	608603.56	-0.00026373475
0	0.66021377	0.6573518	-2.4973842e-10	0.069862224	0.069862224	0	172203.8	171457.31	-6.3137755e-05	610379.56	311790.3	-0.00021382142	313747.12	608674.94	-0.00013357995
0	0.66013426	0.6572688	-3.525719e-10	0.069720745	0.069720745	0	172183.05	171435.64	-9.311224e-05	610454.3	311601.25	-0.00023947998	313560.88	608748.06	-0.0002526031
0	0.6600567	0.6571877	-3.1829406e-10	0.06957926	0.06957926	0	172162.83	171414.52	-7.9081634e-05	610527.75	311416.16	-0.00022579542	313378.7	608819.9	-0.00022948348
0	0.65997726	0.65710485	-2.2403006e-10	0.06943794	0.06943794	0	172142.08	171392.9	-5.086097e-05	610602.2	311227.47	-8.210742e-05	313192.88	608892.6	-0.00024660912
0	0.6598987	0.6570229	-2.1709287e-10	0.0692964	0.0692964	0	172121.62	171371.5	-5.6760204e-05	610676.25	311040.34	-8.552857e-05	313008.7	608965.06	-0.00025003424
0	0.65981907	0.6569396	-4.243921e-11	0.0691551	0.0691551	0	172100.81	171349.8	-1.1479592e-05	610751.06	310850.84	-1.7105713e-05	312822.1	609038.2	-3.082614e-05
0	0.65974	0.6568573	-3.962353e-10	0.0690136	0.0690136	0	172080.22	171328.3	-0.000107142856	610824.7	310663.66	-0.00024290112	312637.75	609110.2	-0.0003219619
0	0.6596598	0.65677345	-2.6116437e-10	0.068872124	0.068872124	0	172059.3	171306.48	-6.3137755e-05	610899.7	310473.28	-0.00020526856	312450.38	609183.5	-0.00014385532
0	0.6595807	0.65669096	-2.6932576e-10	0.06873082	0.06873082	0	172038.67	171284.92	-7.3341835e-05	610973.94	310285.03	-0.00012658228	312265.16	609256.1	-0.00024660912
0	0.6595004	0.6566071	-2.4810615e-10	0.06858932	0.06858932	0	172017.72	171263.08	-6.3137755e-05	611048.2	310095.34	-0.000167636	312078.3	609328.8	-0.0001781066
0	0.65942067	0.65652376	-3.2604738e-10	0.068447955	0.068447955	0	171996.9	171241.33	-8.529975e-05	611123.06	309905.62	-0.00019842628	311891.66	609402	-0.00025345938
0	0.6593405	0.6564403	-3.00339e-10	0.06830648	0.06830648	0	171976.05	171219.56	-8.0516584e-05	611197.44	309716.2	-0.00018816284	311705.1	609474.6	-0.000243184
0	0.65926075	0.656357	3.2645546e-11	0.06816515	0.06816515	0	171955.22	171197.81	8.290816e-06	611271.3	309527.44	-2.3947998e-05	311519.3	609546.94	7.877791e-05
0	0.6591796	0.6562723	-2.6769348e-10	0.068023674	0.068023674	0	171934.08	171175.75	-7.079082e-05	611346.44	309335.6	-0.000263428	311330.47	609620.44	-0.00013700507
0	0.659099	0.6561882	-1.371113e-10	0.06788219	0.06788219	0	171913.03	171153.81	-3.125e-05	611421	309145.12	-0.000143688	311142.94	609693.25	-3.425127e-05
0	0.6590178	0.65610343	-2.2443812e-10	0.06774088	0.06774088	0	171891.86	171131.69	-5.5484696e-05	611495.75	308953.44	1.0263428e-05	310954.28	609766.44	-0.00029113577
0	0.65893674	0.6560188	-3.3135228e-10	0.067599334	0.067599334	0	171870.7	171109.61	-8.354592e-05	611570.75	308761.84	-0.00022750598	310765.62	609839.75	-0.00024660912
0	0.6588555	0.655934	-2.7095803e-10	0.06745803	0.06745803	0	171849.5	171087.5	-7.142857e-05	611645.3	308570.3	-0.00028395484	310577.1	609912.6	-7.5352786e-05
0	0.65877444	0.6558495	-2.4810615e-10	0.06731653	0.06731653	0	171828.38	171065.45	-5.8673468e-05	611719.56	308379.53	-0.00016250428	310389.28	609985.3	-0.00017125634
0	0.6586918	0.6557634	-2.4157704e-10	0.06717506	0.06717506	0	171806.83	171042.97	-6.919643e-05	611795.25	308185	-0.00022579542	310197.78	610059.3	-0.00012672969
0	0.6586106	0.6556785	-3.231909e-10	0.06703376	0.06703376	0	171785.62	171020.86	-8.4821426e-05	611869.75	307993.6	-0.00017105714	310009.4	610132.2	-0.0002671599
0	0.658528	0.65559226	-2.742226e-10	0.066892266	0.066892266	0	171764.1	170998.36	-6.8877554e-05	611945.4	307799.16	-0.0002086897	309818	610206	-0.0001404302
0	0.6584458	0.65550643	-2.6565314e-10	0.066750884	0.066750884	0	171742.66	170975.98	-6.983418e-05	612020.6	307605.47	-0.00018132056	309627.44	610279.6	-0.00017468147
0	0.6583638	0.655421	-4.749927e-10	0.06660941	0.06660941	0	171721.3	170953.7	-0.00012484056	612095.1	307413.2	-0.00030790284	309438.12	610352.5	-0.00037676393
0	0.6582806	0.65533423	-1.2405307e-10	0.06646809	0.06646809	0	171699.58	170931.06	-3.507653e-05	612170.44	307218.28	-4.7895996e-05	309246.22	610426.2	-0.00012672969
0	0.6581981	0.6552481	-3.2237477e-10	0.06632662	0.06632662	0	171678.05	170908.61	-8.5459185e-05	612245.56	307024.34	-0.00020013684	309055.34	610499.6	-0.00022948348
0	0.6581144	0.6551608	-3.0197128e-10	0.06618514	0.06618514	0	171656.22	170885.83	-7.8443874e-05	612321.3	306828.25	-0.00014710914	308862.28	610573.6	-0.0002945609
0	0.65803164	0.6550743	-3.1666178e-10	0.066043824	0.066043824	0	171634.61	170863.23	-8.354592e-05	612396.8	306633.38	-0.0002497434	308670.56	610647.5	-0.00019180709
0	0.657948	0.65498716	-1.4608882e-10	0.06590227	0.06590227	0	171612.84	170840.53	-3.507653e-05	612472.44	306437.7	-0.00015224084	308478	610721.4	-2.7401014e-05
0	0.65786487	0.6549003	-1.7628594e-10	0.06576097	0.06576097	0	171591.12	170817.88	-4.336735e-05	612547.4	306242.97	-0.00013855628	308286.34	610794.7	-0.00011645431
0	0.65778077	0.65481263	-2.742226e-10	0.065619476	0.065619476	0	171569.19	170794.98	-7.142857e-05	612623.1	306046.34	-0.00015737256	308092.78	610868.7	-0.00022948348
0	0.65769726	0.65472555	-2.154606e-10	0.06547816	0.06547817	0	171547.42	170772.3	-5.994898e-05	612698.06	305851.28	-0.00018132056	307900.78	610942	-9.9328674e-05
0	0.65761214	0.6546368	-1.5833089e-10	0.0653367	0.0653367	0	171525.22	170749.14	-3.938138e-05	612774.06	305652.84	-0.00013000342	307705.44	611016.44	-8.562817e-05
0	0.65752786	0.65454876	-3.8725778e-10	0.06519521	0.06519521	0	171503.23	170726.19	-9.757653e-05	612850.1	305455.38	-0.00027027028	307511.16	611090.7	-0.000243184
0	0.6574435	0.6544607	-2.4810615e-10	0.0650539	0.0650539	0	171481.23	170703.23	-6.632653e-05	612925.75	305258.34	-0.00021211084	307317.3	611164.7	-0.00014728044
0	0.657359	0.65437263	-3.9827566e-10	0.06491236	0.06491235	0	171459.17	170680.23	-0.00010522959	613001.25	305061.25	-0.00024632228	307123.28	611238.44	-0.00031168654
0	0.65727395	0.6542838	-2.3015109e-10	0.06477103	0.06477103	0	171437	170657.08	-6.25e-05	613077.2	304862.9	-0.00012658228	306928.12	611312.8	-0.00021920812
0	0.6571886	0.6541949	-5.876198e-11	0.06462956	0.06462956	0	171414.77	170633.89	-1.4668367e-05	613153.1	304664.28	-8.723914e-05	306732.66	611386.94	2.7401014e-05
0	0.65710324	0.6541059	-1.1915624e-10	0.06448809	0.06448809	0	171392.5	170610.64	-2.5510204e-05	613229	304465.66	6.8422855e-06	306537.16	611461.2	-0.00015755583
0	0.6570177	0.6540166	-6.2026534e-10	0.06434676	0.06434676	0	171370.16	170587.36	-0.00016709184	613305	304266.53	-0.0004361957	306341.2	611535.5	-0.00046581723
0	0.65693194	0.6539271	-3.4277822e-10	0.06420529	0.06420529	0	171347.8	170564.02	-8.5459185e-05	613381.06	304067.1	-0.00026171742	306144.88	611609.8	-0.00020893273
0	0.656846	0.65383744	-4.0806933e-10	0.06406391	0.06406391	0	171325.38	170540.66	-0.000106505104	613457.06	303867.34	-0.0003215874	305948.38	611684.25	-0.00025003424
0	0.65675986	0.65374774	1.1425941e-10	0.06392241	0.06392241	0	171302.92	170517.23	2.869898e-05	613533.1	303667.53	3.934314e-05	305751.72	611758.44	9.9328674e-05
0	0.6566734	0.65365744	-5.386515e-11	0.063781105	0.063781105	0	171280.36	170493.7	-2.2959184e-05	613609.3	303466.78	-4.105371e-05	305554.16	611833.06	-3.425127e-05
0	0.6565869	0.65356725	-1.3874357e-10	0.06363964	0.06363964	0	171257.8	170470.19	-3.635204e-05	613685.44	303266.28	-5.4738284e-05	305356.84	611907.5	-0.0001404302
0	0.6565005	0.6534771	-1.6322772e-10	0.06349814	0.06349814	0	171235.25	170446.69	-3.890306e-05	613761.3	303066.06	-0.00010776599	305159.8	611981.7	-0.00010617893
0	0.6564134	0.65338635	-1.9750555e-10	0.06335683	0.06335683	0	171212.53	170423	-5.4209184e-05	613837.75	302864.38	-0.00015053028	304961.38	612056.44	-0.00012330456
0	0.6563261	0.65329516	-1.53026e-10	0.06321529	0.06321529	0	171189.77	170399.23	-4.40051e-05	613914.25	302662.22	-8.723914e-05	304762.44	612131.1	-0.0001027538
0	0.6562388	0.65320414	-8.6510694e-11	0.06307396	0.06307396	0	171167.02	170375.47	-2.4234694e-05	613990.6	302460.25	-5.131714e-05	304563.7	612205.9	-9.9328674e-05
0	0.65615076	0.6531124	-2.1872515e-10	0.06293249	0.06293249	0	171144.05	170351.55	-5.3093114e-05	614067.3	302256.88	-0.00025487514	304363.6	612280.8	-5.480203e-05
0	0.65606374	0.6530216	-3.1829406e-10	0.06279103	0.06279103	0	171121.33	170327.84	-8.2589286e-05	614143.3	302055.56	-0.00031474512	304165.47	612355.2	-0.000119879434
0	0.65597534	0.6529294	-1.5669861e-10	0.06264969	0.06264969	0	171098.3	170303.83	-3.507653e-05	614220.1	301851.62	-0.00016934656	303964.78	612430.3	-3.425127e-05
0	0.65588725	0.6528376	-2.3259951e-10	0.062508225	0.062508225	0	171075.3	170279.86	-6.0586735e-05	614296.56	301648.38	-0.00021553198	303764.84	612505.06	-9.9328674e-05
0	0.6557991	0.6527456	-3.9990794e-10	0.06236684	0.06236684	0	171052.3	170255.88	-9.948979e-05	614372.9	301445.34	-0.00029079712	303565	612579.6	-0.000243184
0	0.6557097	0.6526524	-1.1752396e-10	0.062225346	0.062225346	0	171028.98	170231.56	-3.0612246e-05	614450	301239.6	-8.210742e-05	303362.5	612655.06	-0.00011645431
0	0.65562195	0.65256095	-3.8521744e-10	0.062084038	0.062084038	0	171006.1	170207.69	-0.000102040816	614526.25	301037	-0.0002446117	303163.25	612729.6	-0.00031511165
0	0.65553164	0.6524668	-1.6567614e-10	0.061942577	0.061942577	0	170982.55	170183.16	-4.145408e-05	614603.56	300829.84	-0.00010947657	302959.34	612805.25	-0.00010960406
0	0.655443	0.6523743	-3.362491e-10	0.061801083	0.061801083	0	170959.44	170159.05	-9.0561225e-05	614680.3	300625.56	-0.00019500514	302758.4	612880.25	-0.00027401015
0	0.6553536	0.6522811	-2.7748713e-11	0.061659772	0.061659772	0	170936.11	170134.72	-1.9132654e-06	614757.4	300419.84	-6.500171e-05	302556	612955.6	6.165228e-05
0	0.65526426	0.65218794	-3.5420417e-10	0.06151823	0.06151823	0	170912.81	170110.4	-9.375e-05	614834	300214.62	-0.00028053368	302354.12	613030.5	-0.00022605836
0	0.65517426	0.6520941	-6.529109e-11	0.061376892	0.061376892	0	170889.31	170085.94	-2.2321428e-05	614910.94	300008.2	-1.7105713e-05	302151	613105.7	-0.00010617893
0	0.6550841	0.65200007	-3.0686811e-10	0.06123543	0.06123543	0	170865.81	170061.42	-8.354592e-05	614988.3	299801.1	-0.00020184742	301947.22	613181.44	-0.00024660912
0	0.65499395	0.65190613	-2.0240239e-10	0.061093967	0.061093967	0	170842.33	170036.9	-5.0382652e-05	615065.25	299594.5	-0.0001727677	301744	613256.7	-0.00010960406
0	0.6549037	0.651812	-8.487842e-11	0.060952656	0.060952656	0	170818.77	170012.38	-2.2959184e-05	615142	299387.78	-6.8422855e-06	301540.6	613331.75	-0.00013357995
0	0.65481263	0.6517172	-4.4724396e-10	0.060811166	0.060811166	0	170795.02	169987.64	-0.00011543367	615218.8	299180.1	-0.00040027368	301336.2	613406.8	-0.00022948348
0	0.6547215	0.6516221	-9.793664e-11	0.060669772	0.060669776	0	170771.23	169962.84	-2.2321428e-05	615296.3	298971.47	-0.00016934656	301130.88	613482.6	3.425127e-05
0	0.6546306	0.6515275	-2.1219604e-10	0.060528316	0.060528316	0	170747.55	169938.16	-5.6122448e-05	615373.25	298763.88	-0.00015737256	300926.66	613557.8	-0.00014728044
0	0.6545396	0.65143245	-4.7009585e-10	0.060386974	0.060386974	0	170723.78	169913.36	-0.00012563776	615451	298555	-0.00031303454	300721.22	613633.75	-0.00036306345
0	0.65444696	0.651336	-4.1133388e-10	0.06024551	0.06024551	0	170699.66	169888.2	-0.00011352041	615528.75	298344.2	-0.00022579542	300513.78	613709.8	-0.00039046444
0	0.6543558	0.651241	-5.076382e-10	0.06010405	0.06010405	0	170675.88	169863.42	-0.00013392857	615605.9	298135.72	-0.0004960657	300308.78	613785.4	-0.00021920812
0	0.6542644	0.65114564	1.1915624e-10	0.059962712	0.059962712	0	170652.03	169838.55	2.997449e-05	615683.1	297926.94	6.671228e-05	300103.34	613860.8	0.00012330456
0	0.6541721	0.65104944	-1.7220525e-10	0.059821166	0.059821166	0	170627.92	169813.45	-4.846939e-05	615760.56	297716.7	-0.00014710914	299896.5	613936.5	-0.000119879434
0	0.6540785	0.650952	-4.733604e-10	0.05967986	0.05967986	0	170603.53	169788.05	-0.00012181122	615838.9	297503.88	-0.0003694834	299687.12	614013.06	-0.00031168654
0	0.6539869	0.6508563	-3.88482e-10	0.059538368	0.059538364	0	170579.64	169763.11	-0.000100765305	615916.2	297294.53	-0.00035237768	299481.28	614088.7	-0.0002055076
0	0.65389395	0.6507594	-4.7580884e-10	0.059396908	0.059396908	0	170555.39	169737.81	-0.00012755101	615994	297082.97	-0.00031303454	299273.2	614164.75	-0.0003562132
0	0.65380096	0.65066254	-2.6279665e-10	0.059255596	0.059255596	0	170531.12	169712.53	-7.461735e-05	616071.7	296871.53	-0.0002736914	299065.12	614240.75	-9.5903546e-05
0	0.65370786	0.65056556	-9.793664e-11	0.05911411	0.059114102	0	170506.84	169687.25	-2.5510204e-05	616149.06	296660.28	-0.00010263428	298857.3	614316.4	-5.8227153e-05
0	0.6536133	0.65046704	4.080693e-11	0.058972705	0.058972705	0	170482.19	169661.55	8.290816e-06	616227.25	296446.1	-2.7369142e-05	298646.56	614392.8	6.507741e-05
0	0.65352076	0.6503706	-6.5291093e-12	0.05883125	0.05883125	0	170458.06	169636.38	-6.377551e-06	616304.56	296235.47	-1.1973999e-05	298439.47	614468.44	3.425127e-05
0	0.6534263	0.65027213	-5.957812e-11	0.0586899	0.0586899	0	170433.4	169610.7	-1.7219389e-05	616382.75	296021.47	-1.3684571e-05	298228.94	614544.9	-5.13769e-05
0	0.6533327	0.65017456	-1.6812456e-10	0.05854845	0.05854845	0	170409	169585.27	-4.336735e-05	616460.3	295809.25	-0.00012658228	298020.2	614620.75	-9.9328674e-05
0	0.6532377	0.65007555	-4.292889e-10	0.058406986	0.058406986	0	170384.23	169559.45	-0.000106505104	616538.9	295594	-0.00030448168	297808.5	614697.56	-0.00028771063
0	0.6531437	0.6499776	1.795505e-11	0.05826565	0.05826565	0	170359.69	169533.89	3.8265307e-06	616616.4	295381.22	6.329114e-05	297599.16	614773.4	-2.055076e-05
0	0.6530476	0.6498776	-7.345248e-11	0.058124106	0.058124106	0	170334.64	169507.81	-2.327806e-05	616694.7	295164.8	-1.7105713e-05	297386.25	614849.8	-8.220304e-05
0	0.6529532	0.64977926	-1.2078852e-10	0.05798278	0.05798278	0	170310.03	169482.16	-2.5829082e-05	616772.44	294951.16	-0.00011631885	297176.1	614926	-4.110152e-05
0	0.65285784	0.64967984	-1.6567614e-10	0.05784131	0.05784131	0	170285.12	169456.23	-3.8265305e-05	616850.5	294735.84	-8.3818e-05	296964.25	615002.25	-0.00012672969
0	0.65276283	0.6495808	-2.8564853e-10	0.057699848	0.057699848	0	170260.36	169430.39	-7.653061e-05	616928.8	294520.72	-0.00019500514	296752.75	615078.94	-0.00020208248
0	0.6526664	0.6494804	-1.9260872e-10	0.05755853	0.05755853	0	170235.22	169404.19	-4.7512756e-05	617007.4	294303.56	-0.00015395142	296539.12	615155.7	-0.00010232566
0	0.65257126	0.6493812	-1.6486e-10	0.05741706	0.057417054	0	170210.4	169378.33	-4.2729593e-05	617085.3	294088.7	-0.00013342456	296327.78	615231.94	-7.877791e-05
0	0.6524747	0.6492806	-2.1382832e-10	0.057275645	0.057275645	0	170185.19	169352.1	-5.8673468e-05	617163.75	293871.22	-0.00013513514	296113.94	615308.6	-0.00018153172
0	0.65237796	0.64917976	-4.7662496e-10	0.05713419	0.05713419	0	170159.97	169325.8	-0.00013137756	617242.5	293653.28	-0.0004413274	295899.6	615385.6	-0.00026373475
0	0.6522818	0.6490797	-2.4647387e-10	0.056992844	0.056992844	0	170134.92	169299.69	-5.8673468e-05	617320.7	293436.84	-0.00015395142	295686.72	615462.06	-0.00018495684
0	0.6521844	0.64897823	-1.0283347e-10	0.056851387	0.056851387	0	170109.5	169273.23	-2.869898e-05	617398.8	293218.78	-9.579199e-05	295472.12	615538.44	-5.8227153e-05
0	0.6520874	0.64887714	-4.0643705e-10	0.056709927	0.056709927	0	170084.19	169246.86	-0.00010905612	617477.8	293000.03	-0.00020355798	295257.03	615615.75	-0.0003973147
0	0.6519905	0.64877605	-1.2731763e-10	0.056568585	0.056568585	0	170058.9	169220.5	-3.9859693e-05	617556.3	292782	-2.2237427e-05	295042.66	615692.5	-0.0001781066
0	0.65189165	0.6486733	-1.5180178e-10	0.056427047	0.056427047	0	170033.12	169193.69	-4.001913e-05	617635.1	292561.16	-0.00011289771	294825.3	615769.6	-8.562817e-05
0	0.651795	0.64857256	-2.742226e-10	0.05628571	0.05628571	0	170007.92	169167.39	-7.270408e-05	617713.7	292343.38	-0.00022408484	294611.28	615846.4	-0.00014385532
0	0.6516962	0.64846975	-1.1425941e-10	0.05614424	0.05614425	0	169982.16	169140.6	-3.539541e-05	617792.1	292122.94	-0.00018645228	294394.38	615923.06	0
0	0.6515982	0.6483676	-2.0566694e-10	0.056002792	0.056002792	0	169956.61	169113.94	-5.4209184e-05	617871.44	291902.5	-0.00014710914	294177.72	616000.7	-0.000119879434
0	0.6514999	0.64826524	-3.2972e-10	0.05586147	0.05586147	0	169930.97	169087.27	-8.514031e-05	617949.8	291682.8	-0.00020697914	293961.6	616077.3	-0.00023290861
0	0.6514016	0.6481627	-3.4604278e-10	0.055719994	0.05572	0	169905.31	169060.52	-8.80102e-05	618028.56	291462.5	-0.00016250428	293744.94	616154.3	-0.00033223728
0	0.65130234	0.6480595	-3.1829406e-10	0.055578664	0.055578664	0	169879.42	169033.58	-8.529975e-05	618107.56	291240.78	-0.0002497434	293526.84	616231.5	-0.00020893273
0	0.65120286	0.6479559	-2.4810615e-10	0.055437125	0.055437125	0	169853.47	169006.56	-6.441327e-05	618185.8	291019.47	-0.00022408484	293309.16	616308.06	-0.00012672969
0	0.65110326	0.64785206	-7.7369944e-10	0.05529578	0.05529578	0	169827.47	168979.48	-0.00020376276	618265.56	290796.3	-0.0005011974	293089.72	616386.1	-0.0006233731
0	0.65100425	0.647749	-6.12104e-11	0.055154327	0.055154327	0	169801.67	168952.61	-1.434949e-05	618344.1	290575.4	2.565857e-05	292872.53	616462.9	-9.247842e-05
0	0.65090376	0.64764446	-2.6769348e-10	0.05501287	0.05501287	0	169775.47	168925.33	-7.079082e-05	618422.94	290352.06	-0.00025316456	292652.8	616540	-9.9328674e-05
0	0.65080297	0.6475395	-5.5823884e-10	0.054871522	0.054871522	0	169749.19	168897.97	-0.00014477041	618502.5	290127.5	-0.00032329798	292431.97	616617.8	-0.00043841623
0	0.6507038	0.6474362	-3.88482e-10	0.05473008	0.05473008	0	169723.31	168871	-0.00010299745	618581.4	289905.8	-0.00024119056	292214.1	616694.94	-0.00035278805
0	0.65060234	0.6473305	-3.1013267e-10	0.05458865	0.05458865	0	169696.84	168843.47	-7.8443874e-05	618660.44	289680.88	-0.00023434828	291992.78	616772.3	-0.00019865735
0	0.65050226	0.6472263	-2.2688654e-10	0.054447185	0.054447185	0	169670.72	168816.25	-6.409439e-05	618739.44	289457.75	-0.00011802942	291773.4	616849.56	-0.00021578299
0	0.650401	0.6471209	-7.671703e-11	0.054305855	0.054305855	0	169644.33	168788.77	-2.614796e-05	618818.8	289232.78	-7.1844e-05	291552.2	616927.2	-3.082614e-05
0	0.6502993	0.64701515	-4.9784454e-10	0.054164406	0.054164406	0	169617.81	168761.2	-0.00013329081	618897.75	289007.62	-0.00035066713	291330.72	617004.4	-0.00034251268
0	0.6501981	0.64690953	-4.5703763e-10	0.054022938	0.054022938	0	169591.4	168733.67	-0.00012244898	618977.44	288782.25	-0.00038145742	291109.16	617082.2	-0.00026030964
0	0.6500958	0.6468032	-4.9294774e-10	0.0538816	0.0538816	0	169564.73	168705.9	-0.00012946429	619057.06	288555.47	-0.0003882997	290886.16	617160.2	-0.00030141114
0	0.6499938	0.6466969	-2.5463526e-10	0.05374007	0.05374007	0	169538.11	168678.2	-6.441327e-05	619136.8	288328.88	-0.000155662	290663.38	617238.2	-0.00017125634
0	0.6498916	0.64659053	-1.94241e-10	0.05359871	0.05359871	0	169511.45	168650.44	-5.484694e-05	619216.1	288102.4	-0.00012829286	290440.72	617315.9	-0.00014385532
0	0.649789	0.6464837	-1.795505e-11	0.053457264	0.053457264	0	169484.7	168622.58	-7.015306e-06	619295.6	287875.4	6.8422855e-06	290217.47	617393.5	-1.027538e-05
0	0.6496866	0.646377	1.371113e-10	0.05331583	0.053315822	0	169457.98	168594.77	3.5714285e-05	619374.75	287648.94	5.8159425e-05	289994.84	617470.9	0.00014385532
0	0.6495831	0.6462693	-3.1992634e-10	0.053174462	0.053174462	0	169430.98	168566.67	-8.242985e-05	619454.4	287420.47	-0.00040540542	289770.06	617548.8	-5.13769e-05
0	0.6494799	0.6461621	-2.2362198e-10	0.053033024	0.053033024	0	169404.1	168538.69	-5.8035715e-05	619533.56	287192.84	-9.066028e-05	289546.28	617626.4	-0.0002055076
0	0.6493763	0.64605415	-4.080693e-11	0.052891586	0.052891586	0	169377.05	168510.53	-7.653061e-06	619613.7	286963.62	-0.00010605542	289320.9	617704.6	7.877791e-05
0	0.64927155	0.6459452	-8.5694556e-11	0.052750126	0.052750126	0	169349.75	168482.14	-2.2959184e-05	619693.5	286733.28	-8.894971e-05	289094.38	617782.6	-4.110152e-05
0	0.64916855	0.6458378	-2.3504793e-10	0.052608777	0.052608777	0	169322.84	168454.12	-5.484694e-05	619773.1	286505.28	-0.00018303114	288870.25	617860.6	-0.00013015482
0	0.6490632	0.64572835	2.6932574e-11	0.05246734	0.05246734	0	169295.39	168425.56	8.928571e-06	619852.94	286274.06	4.2764284e-05	288642.8	617938.6	1.7125634e-05
0	0.6489598	0.64562064	-4.0643705e-10	0.052325882	0.052325882	0	169268.4	168397.47	-0.00011160714	619932.6	286045.53	-0.00023947998	288418.2	618016.56	-0.00033223728
0	0.6488544	0.64551103	-1.6322772e-10	0.05218454	0.05218454	0	169240.9	168368.88	-3.9221937e-05	620012.4	285814.1	-0.000167636	288190.6	618094.6	-7.192766e-05
0	0.6487488	0.6454012	-2.1219604e-10	0.052043002	0.052043002	0	169213.39	168340.23	-5.4209184e-05	620092.6	285582.12	-0.00022579542	287962.5	618173.1	-9.5903546e-05
0	0.64864457	0.6452925	-1.5343406e-10	0.051901635	0.051901635	0	169186.19	168311.89	-3.635204e-05	620172.3	285352.28	-7.013342e-05	287736.56	618251.06	-0.00016098096
0	0.64853776	0.64518154	-2.872808e-10	0.0517602	0.0517602	0	169158.33	168282.92	-7.1109695e-05	620252.8	285118.16	-0.00022237428	287506.34	618329.9	-0.0001541307
0	0.648433	0.64507246	-1.8281505e-10	0.051618766	0.051618766	0	169131.02	168254.48	-4.4961736e-05	620332.44	284887.84	-0.00016592542	287279.94	618407.7	-4.110152e-05
0	0.64832646	0.64496166	-4.896832e-10	0.05147742	0.05147742	0	169103.22	168225.61	-0.00012659439	620412	284655.1	-0.00037119398	287051.03	618485.56	-0.00028428552
0	0.6482195	0.6448503	-3.656301e-10	0.05133596	0.05133596	0	169075.31	168196.53	-9.183674e-05	620492.94	284420.2	-0.00024119056	286820.12	618564.7	-0.0002568845
0	0.6481137	0.6447402	-4.3826645e-10	0.051194515	0.051194515	0	169047.73	168167.84	-0.00011894132	620572.9	284188.12	-0.00031987682	286592.06	618642.9	-0.00034936293
0	0.6480067	0.64462894	-2.889131e-10	0.05105309	0.05105309	0	169019.83	168138.78	-7.780612e-05	620653.25	283953.7	-0.00020526856	286361.53	618721.56	-0.00020208248
0	0.64790034	0.6445182	-2.9054537e-10	0.050911706	0.050911706	0	168992.08	168109.9	-8.1313774e-05	620732.8	283721.2	-0.00019500514	286132.97	618799.4	-0.00023975887
0	0.6477921	0.6444057	-1.6486e-10	0.05077028	0.05077028	0	168963.83	168080.58	-4.177296e-05	620812.94	283485.53	-0.00014539856	285901.12	618877.7	-8.220304e-05
0	0.64768445	0.64429367	-6.692337e-11	0.050628845	0.050628845	0	168935.77	168051.36	-1.5306123e-05	620893.3	283250.22	-3.2500855e-05	285669.8	618956.3	-5.480203e-05
0	0.6475767	0.64418167	1.2486921e-10	0.050487474	0.050487474	0	168907.69	168022.16	3.0612246e-05	620973.44	283015.06	0.00010776599	285438.7	619034.8	5.8227153e-05
0	0.64746904	0.64406955	-2.089315e-10	0.050345946	0.050345946	0	168879.55	167992.89	-4.7831632e-05	621053.9	282779.6	-0.00017618884	285207.2	619113.5	-9.9328674e-05
0	0.6473599	0.643956	-3.085004e-10	0.05020459	0.050204594	0	168851.12	167963.3	-7.653061e-05	621134.8	282541.78	-0.00026000684	284973.38	619192.7	-0.000119879434
0	0.6472523	0.6438442	-5.557904e-10	0.050063137	0.050063137	0	168823.06	167934.11	-0.00014094388	621214.44	282307.4	-0.0004704071	284743.03	619270.56	-0.0003219619
0	0.6471423	0.6437297	-2.3504793e-10	0.04992171	0.04992171	0	168794.36	167904.23	-6.345663e-05	621296	282067.47	-0.00021553198	284507.2	619350.4	-6.165228e-05
0	0.6470324	0.6436156	1.1752396e-10	0.049780354	0.049780354	0	168765.69	167874.48	2.997449e-05	621375.8	281829.8	-0.00010434485	284273.4	619428.44	0.00027743526
0	0.64692366	0.64350235	-1.6812456e-10	0.0496389	0.0496389	0	168737.33	167844.94	-4.4642857e-05	621456.9	281592.16	-8.894971e-05	284039.9	619507.75	-0.00013700507
0	0.6468142	0.6433885	-3.9827566e-10	0.049497455	0.049497455	0	168708.8	167815.27	-0.00010267857	621537.4	281354.2	-0.0002326377	283806	619586.56	-0.00028771063
0	0.64670414	0.6432741	-4.5050852e-10	0.04935602	0.04935602	0	168680.08	167785.44	-0.00011591199	621618	281115.38	-0.00033356142	283571.2	619665.4	-0.00029798603
0	0.64659405	0.64315957	-1.795505e-11	0.04921464	0.04921464	0	168651.36	167755.55	-7.015306e-06	621698.44	280876.4	1.7105714e-06	283336.25	619744.2	-4.7951773e-05
0	0.6464836	0.6430448	-2.8238398e-10	0.04907321	0.04907321	0	168622.55	167725.6	-7.3979594e-05	621778.5	280637.53	-0.00018132056	283101.38	619822.56	-0.00022263324
0	0.6463729	0.6429297	-2.5300298e-10	0.04893179	0.048931796	0	168593.67	167695.56	-6.441327e-05	621859.5	280397.38	-0.00012316114	282865.34	619901.7	-0.00019865735
0	0.6462613	0.64281356	-1.8281505e-10	0.048790418	0.048790418	0	168564.55	167665.31	-4.4164542e-05	621940.2	280156.16	-4.960657e-05	282628.12	619980.75	-0.0001781066
0	0.6461502	0.6426981	-1.94241e-10	0.048648883	0.048648883	0	168535.6	167635.19	-4.7193877e-05	622020.8	279915.7	-0.00015737256	282391.75	620059.6	-0.0001027538
0	0.6460382	0.6425815	-3.150295e-10	0.04850753	0.04850753	0	168506.34	167604.77	-8.290816e-05	622102.2	279673	-0.00025829626	282153.28	620139.25	-0.00019180709
0	0.6459272	0.6424662	-2.660612e-10	0.04836608	0.04836608	0	168477.4	167574.69	-6.760204e-05	622182.75	279432.9	-0.0001727677	281917.25	620218.06	-0.00019865735
0	0.64581424	0.6423487	-1.077303e-10	0.048224654	0.048224654	0	168447.95	167544.05	-2.327806e-05	622264.25	279188.9	-8.3818e-05	281677.47	620297.8	-7.192766e-05
0	0.6457026	0.6422327	-1.5098564e-10	0.04808329	0.04808329	0	168418.84	167513.78	-4.0178573e-05	622344.6	278948	-0.00012658228	281440.6	620376.44	-7.5352786e-05
0	0.6455889	0.6421145	-2.5300298e-10	0.04794185	0.04794185	0	168389.19	167482.95	-6.154337e-05	622426.25	278702.88	-0.00017447828	281199.7	620456.4	-0.0001541307
0	0.64547634	0.64199746	-2.0240239e-10	0.047800384	0.047800384	0	168359.81	167452.42	-5.6441328e-05	622507.06	278460	-0.00017447828	280960.94	620535.5	-0.00012672969
0	0.6453629	0.64187956	-1.9913783e-10	0.047658965	0.047658965	0	168330.23	167421.67	-5.484694e-05	622588.1	278215.9	-0.00016421484	280721	620614.7	-0.00012672969
0	0.6452499	0.64176214	-8.487842e-11	0.04751758	0.04751758	0	168300.77	167391.03	-2.4234694e-05	622668.7	277972.78	-0.00011289771	280482	620693.7	-2.055076e-05
0	0.6451355	0.6416433	-2.219897e-10	0.047376156	0.047376156	0	168270.92	167360.03	-5.9630103e-05	622749.8	277727.2	-0.0002086897	280240.56	620773	-0.00010960406
0	0.64502144	0.6415247	-2.978906e-10	0.047234733	0.047234733	0	168241.19	167329.12	-7.589286e-05	622831.4	277481.6	-0.00022579542	279999.22	620852.8	-0.00017468147
0	0.6449078	0.64140654	-3.0197128e-10	0.047093347	0.047093347	0	168211.53	167298.3	-7.780612e-05	622911.9	277237.62	-0.00017618884	279759.34	620931.56	-0.00022948348
0	0.64479256	0.6412868	-1.224208e-10	0.046951823	0.046951823	0	168181.48	167267.06	-3.0612246e-05	622993.75	276989.94	-0.00010092371	279515.94	621011.7	-7.5352786e-05
0	0.64467746	0.64116716	-3.0360356e-10	0.046810456	0.046810456	0	168151.45	167235.86	-7.9719386e-05	623074.94	276743.25	-0.00022921656	279273.44	621091.2	-0.00016440608
0	0.64456266	0.64104784	-2.9870675e-10	0.04666902	0.04666902	0	168121.52	167204.73	-8.09949e-05	623155.94	276497.12	-0.00025316456	279031.53	621170.5	-0.00019180709
0	0.6444468	0.6409275	-4.521408e-10	0.046527658	0.046527658	0	168091.27	167173.34	-0.00011607143	623237.2	276249.22	-0.00031474512	278787.84	621250	-0.00033908754
0	0.6443317	0.6408079	-2.3831248e-10	0.046386234	0.046386234	0	168061.27	167142.16	-6.792092e-05	623317.9	276003.06	-0.00016250428	278545.88	621329	-0.00017125634
0	0.6442159	0.6406876	-4.0725318e-10	0.0462448	0.0462448	0	168031.06	167110.75	-0.00011096939	623399.3	275755	-0.00028053368	278302.1	621408.7	-0.00030141114
0	0.64409846	0.64056545	-1.1915624e-10	0.04610342	0.04610342	0	168000.42	167078.92	-3.3163265e-05	623481.8	275503.53	-0.00012658228	278054.97	621489.5	-6.850254e-05
0	0.64398205	0.64044464	-9.793664e-11	0.045961898	0.045961898	0	167970.08	167047.39	-2.2321428e-05	623563.06	275254.97	-0.00010434485	277810.66	621569	-6.8502536e-06
0	0.6438655	0.6403236	-3.3461683e-10	0.045820512	0.045820512	0	167939.67	167015.8	-8.609694e-05	623644	275006.4	-0.00014710914	277566.3	621648.3	-0.0003082614
0	0.64374804	0.6402015	-3.2645545e-10	0.045679096	0.0456791	0	167909.05	166984	-8.609694e-05	623725.4	274756.16	-0.0002326377	277320.28	621727.9	-0.00023633374
0	0.64363074	0.6400796	-2.3096723e-10	0.045537677	0.045537677	0	167878.45	166952.2	-6.154337e-05	623806.9	274505.9	-0.00013342456	277074.34	621807.7	-0.00019523222
0	0.6435128	0.6399572	-3.0686811e-10	0.045396283	0.045396283	0	167847.67	166920.25	-8.09949e-05	623888.6	274254.56	-0.00016592542	276827.38	621887.75	-0.0002808604
0	0.6433946	0.6398343	-2.9380992e-10	0.04525487	0.04525487	0	167816.84	166888.2	-7.9081634e-05	623970.06	274003.1	-0.00025316456	276580.16	621967.44	-0.00018153172
0	0.64327633	0.63971144	-2.807517e-10	0.045113385	0.045113385	0	167786	166856.16	-6.792092e-05	624051.94	273751.16	-0.0002326377	276332.6	622047.6	-0.00015070557