//mumax 3.10 [windows_amd64 go1.11.6(gc) CUDA-11.0]
//GPU info: NVIDIA GeForce RTX 3090(24575MB), CUDA Driver 12.1, cc=8.6, using cc=80 PTX
//(c) Arne Vansteenkiste, Dynamat LAB, Ghent University, Belgium
//This is free software without any warranty. See license.txt
//********************************************************************//
//  If you use mumax in any work or publication,                      //
//  we kindly ask you to cite the references in references.bib        //
//********************************************************************//
//output directory: r1;p0.8;a4.2e-07;l2.3000000000000002e-07;s0.out/
randSeed(0)
ThermSeed(0)
resolution := 2e-09
zResolution := 5e-09
a := 4.2e-07
gridSize := 420
gridDepth := 5
SetCellsize(resolution, resolution, zResolution)
SetGridsize(gridSize, gridSize, gridDepth)
SetPBC(16, 16, 0)
//resizing...
Msat = 700e3
Aex = 13e-12
alpha = 0.2
Bmax := 0.1
Bstep := Bmax / 500.0
TableAdd(B_ext)
TableAdd(m_full)
islandWidth := 8e-08
islandLength := 2.3000000000000002e-07
ellipseConstant := 9.200000000000002e-08
hIsland := Universe().Inverse()
vIsland := Universe().Inverse()
vIslands := Universe().Inverse()
hIslands := Universe().Inverse()
hIsland = rect(islandLength-2*ellipseConstant, islandWidth)
hIsland = hIsland.add(ellipse(ellipseConstant*2, islandWidth).transl(islandLength/2-ellipseConstant, 0, 0))
hIsland = hIsland.add(ellipse(ellipseConstant*2, islandWidth).transl(-islandLength/2+ellipseConstant, 0, 0))
hIsland = hIsland.add(rect(9.890220175092487e-09, 6.961867273761155e-10).transl(6.972260867831577e-08, -3.445771589836606e-08, 0))
hIsland = hIsland.sub(rect(8.56916740087155e-09, -2.934105493129092e-09).transl(-1.6647815378732434e-08, -4e-08, 0))
hIsland = hIsland.add(rect(8.45359458495804e-09, 3.461548050111652e-09).transl(3.969837812678075e-08, -3.933560744214031e-08, 0))
hIsland = hIsland.add(rect(2.9597615109496973e-09, 2.4707312639628003e-09).transl(8.797737857522348e-08, -2.831746932042234e-08, 0))
hIsland = hIsland.sub(rect(8.108086718931623e-09, -1.6065244464405071e-09).transl(-7.556252421624777e-08, -3.282876766484706e-08, 0))
hIsland = hIsland.sub(rect(5.285799537339948e-09, -6.451132994840899e-10).transl(-8.145393101195457e-09, -4e-08, 0))
hIsland = hIsland.add(rect(9.542840914604984e-09, 1.3165911808775261e-09).transl(7.383845556053894e-08, -3.333807871892168e-08, 0))
hIsland = hIsland.add(rect(2.812137076610199e-09, 3.9926677444922573e-10).transl(-1.0592956445055602e-07, -1.7318801807227048e-08, 0))
hIsland = hIsland.sub(rect(9.705904332226269e-09, -3.0112858809620844e-09).transl(-4.19461959010671e-08, -3.914261081305711e-08, 0))
hIsland = hIsland.add(rect(6.344904229359279e-09, 4.889064815175602e-10).transl(2.395502932345089e-08, -3.9997844741064634e-08, 0))
hIsland = hIsland.sub(rect(9.218215954050442e-09, -9.156222589449496e-10).transl(9.791011201462597e-08, -2.3221116449065426e-08, 0))
hIsland = hIsland.add(rect(8.864959827045496e-09, 1.7378214085252372e-09).transl(-8.456363165101507e-08, -2.972437740452446e-08, 0))
hIsland = hIsland.add(rect(8.52691001634913e-09, 9.377224051082368e-12).transl(1.131277916986488e-07, -8.028554469312937e-09, 0))
hIsland = hIsland.sub(rect(9.872822561271107e-09, -1.5070059166521994e-09).transl(7.79967149160348e-08, -3.20660982883993e-08, 0))
hIsland = hIsland.sub(rect(7.422234006065999e-09, -1.6821465187907695e-09).transl(8.556966036911372e-08, -2.93245885500259e-08, 0))
hIsland = hIsland.sub(rect(2.3534127073624965e-09, -3.0009520345174156e-10).transl(4.122189963919769e-08, -3.92075625723127e-08, 0))
hIsland = hIsland.add(rect(2.39675917115553e-09, 1.600088029535737e-09).transl(3.6765722973927215e-08, -3.9549698033698415e-08, 0))
hIsland = hIsland.sub(rect(3.120678317006015e-09, -6.576701410453879e-10).transl(-2.3065561146921503e-08, -3.999998984342029e-08, 0))
hIsland = hIsland.sub(rect(6.797926362640425e-09, -3.5844318973335444e-09).transl(9.724887409006329e-08, -2.3619161329738484e-08, 0))
hIsland = hIsland.sub(rect(2.4619959944461737e-09, -2.053306045221178e-09).transl(3.610692120368016e-08, -3.9591984773802644e-08, 0))
hIsland = hIsland.add(rect(4.650994068363606e-09, 6.713505549659507e-10).transl(-7.931965800190285e-08, -3.162904112438076e-08, 0))
hIsland = hIsland.sub(rect(7.384339978438469e-09, -3.356822749481068e-09).transl(8.332034587973997e-08, -3.020239187610032e-08, 0))
hIsland = hIsland.sub(rect(9.411865559172842e-09, -2.2291678798874407e-09).transl(-1.0822466333586879e-08, -4e-08, 0))
hIsland = hIsland.sub(rect(6.423420680737464e-09, -5.484505101205574e-10).transl(8.300626466511094e-08, -3.0320431764875024e-08, 0))
hIsland = hIsland.sub(rect(9.356532804480186e-09, -3.353535831774901e-09).transl(-2.185187554355302e-08, -4e-08, 0))
hIsland = hIsland.sub(rect(7.869456308346192e-09, -2.0372684566020385e-09).transl(-6.084911190389792e-08, -3.645813490529159e-08, 0))
hIsland = hIsland.sub(rect(8.511190302547358e-09, -1.4325477587573195e-09).transl(1.3117357574171734e-08, -4e-08, 0))
hIsland = hIsland.add(rect(6.658534791196957e-09, 1.6077006589815641e-10).transl(3.921874830498278e-08, -3.9373525605473064e-08, 0))
hIsland = hIsland.sub(rect(8.980810183587961e-09, -3.6038992010967903e-09).transl(-8.938776011314558e-08, -2.769215494662334e-08, 0))
hIsland = hIsland.sub(rect(2.6671234174549527e-09, -3.007754252698099e-09).transl(5.441131660736085e-08, -3.759632666414972e-08, 0))
hIsland = hIsland.sub(rect(6.864053463641092e-09, -1.2817919916390875e-09).transl(-1.123485485795612e-07, -9.533909898063053e-09, 0))
hIsland = hIsland.sub(rect(8.895370527225027e-09, -6.170787434125666e-10).transl(3.1184945953795187e-09, -4e-08, 0))
hIsland = hIsland.sub(rect(2.019462776192313e-09, -7.924553345553972e-10).transl(8.316780171140816e-08, -3.025985642112285e-08, 0))
hIsland = hIsland.sub(rect(4.061725522044347e-09, -7.23974071690426e-10).transl(-1.008652629531897e-07, -2.1304351487269536e-08, 0))
hIsland = hIsland.add(rect(3.3706817108111608e-09, 2.6274809645879745e-09).transl(1.1324230550485712e-07, -7.781592077978631e-09, 0))
hIsland = hIsland.add(rect(3.569678372970044e-09, 3.282504757116753e-09).transl(-1.0859684734448735e-07, -1.4661780650713186e-08, 0))
hIsland = hIsland.sub(rect(5.990079324327599e-09, -2.875115189415537e-09).transl(3.601214033631853e-08, -3.959789430317425e-08, 0))
hIsland = hIsland.add(rect(6.295530924410432e-09, 7.664842737170038e-10).transl(1.9723993787062194e-08, -4e-08, 0))
hIsland = hIsland.add(rect(9.76632526032482e-09, 1.5120066166631566e-09).transl(-1.0168785945003755e-07, -2.072513781525862e-08, 0))
hIsland = hIsland.add(rect(8.881171799061648e-09, 5.945681870138652e-11).transl(1.0017747766372937e-07, -2.177230920899242e-08, 0))
hIsland = hIsland.add(rect(3.3423366619163242e-09, 1.180068717821206e-09).transl(5.880206600672613e-08, -3.6846927190908374e-08, 0))
hIsland = hIsland.add(rect(9.042716024602046e-09, 2.1805119176395365e-09).transl(4.853744751474503e-08, -3.842809004891466e-08, 0))
hIsland = hIsland.add(rect(5.669799938697953e-09, 1.4152712911216372e-09).transl(-2.5252752748912288e-08, -3.998800648420435e-08, 0))
hIsland = hIsland.sub(rect(5.301539304540013e-09, -3.687685186111643e-10).transl(1.2164042097550398e-08, -4e-08, 0))
hIsland = hIsland.sub(rect(9.698965106285357e-09, -1.1915842996458428e-10).transl(-5.9339813916900894e-08, -3.674727958112579e-08, 0))
hIsland = hIsland.sub(rect(7.473015569191319e-09, -3.7539284820351866e-10).transl(-1.064702508075126e-07, -1.682062168364699e-08, 0))
hIsland = hIsland.add(rect(2.0566525916379004e-09, 7.560517729740539e-10).transl(-1.2783800184694455e-08, -4e-08, 0))
hIsland = hIsland.sub(rect(6.07331066700805e-09, -1.0233742068874e-09).transl(7.092115742387878e-08, -3.414514407807694e-08, 0))
hIsland = hIsland.add(rect(8.707319586691499e-09, 1.9640650413204003e-09).transl(-7.651344219580103e-08, -3.253705610111581e-08, 0))
hIsland = hIsland.add(rect(4.2253281301120446e-09, 2.9469846603677237e-09).transl(1.9002768427599338e-08, -4e-08, 0))
hIsland = hIsland.sub(rect(8.335649147678656e-09, -2.097118129278914e-09).transl(7.759355842331105e-08, -3.219606575397257e-08, 0))
hIsland = hIsland.add(rect(4.912701021714475e-09, 2.0908272679837844e-09).transl(2.2929346557235994e-08, -4e-08, 0))
hIsland = hIsland.add(rect(7.990259164293803e-09, 1.5260481960334636e-09).transl(-6.671010767606292e-08, -3.519705931324373e-08, 0))
hIsland = hIsland.sub(rect(7.2459997048283325e-09, -6.172757469723746e-10).transl(-1.0360082777935802e-07, -1.9285471388317588e-08, 0))
hIsland = hIsland.sub(rect(4.5967753741214305e-09, -2.1046751479197213e-09).transl(-1.1286316507679555e-07, -8.570970947512259e-09, 0))
hIsland = hIsland.add(rect(4.442622130138331e-09, 2.5655270911226574e-09).transl(-2.9642744192110865e-08, -3.989559614301384e-08, 0))
hIsland = hIsland.add(rect(2.5391822018318467e-09, 1.5544214913310022e-09).transl(-7.515182539566106e-08, -3.2952354640475966e-08, 0))
hIsland = hIsland.add(rect(7.86671690226463e-09, 1.6102515583461306e-09).transl(1.0727523661824177e-07, -1.604391711983341e-08, 0))
hIsland = hIsland.add(rect(7.962932186126386e-09, 4.004072702262177e-10).transl(1.0294721484424093e-07, -1.9793082934947596e-08, 0))
hIsland = hIsland.add(rect(4.898748844380493e-09, 3.053844407464221e-09).transl(9.824485462841146e-08, -2.3015618318195414e-08, 0))
hIsland = hIsland.sub(rect(2.4354830984467518e-09, -3.1674845294428207e-10).transl(1.1171994169710761e-07, -1.0585612317680648e-08, 0))
hIsland = hIsland.add(rect(2.5918331605033693e-09, 7.599333429136123e-10).transl(-4.1400076356144834e-08, -3.9191829107936726e-08, 0))
hIsland = hIsland.sub(rect(2.9047471169555588e-09, -3.795744346746806e-09).transl(3.7758640301986865e-08, -3.948195380265478e-08, 0))
hIsland = hIsland.add(rect(7.558003255337301e-09, 1.8544715340779666e-09).transl(4.017502143981831e-08, -3.929679284484544e-08, 0))
hIsland = hIsland.add(rect(4.555553268310934e-09, 2.3990936208773456e-09).transl(-3.550636750958776e-08, -3.962868958382808e-08, 0))
hIsland = hIsland.sub(rect(7.275977101468764e-09, -2.021948268392315e-09).transl(8.613195376012449e-09, -4e-08, 0))
hIsland = hIsland.sub(rect(7.3103536058566265e-09, -1.1091011662751927e-09).transl(5.880880155203059e-08, -3.6845689899365006e-08, 0))
hIsland = hIsland.sub(rect(2.8618208776884323e-09, -2.429786872812961e-09).transl(-6.460834525097614e-08, -3.567535197128622e-08, 0))
hIsland = hIsland.sub(rect(4.74308119033386e-09, -1.126567307796906e-10).transl(8.263250221185423e-08, -3.04595075964095e-08, 0))
hIsland = hIsland.add(rect(4.3644946904435575e-09, 9.686018496675364e-10).transl(-1.0212601454170194e-08, -4e-08, 0))
hIsland = hIsland.sub(rect(8.467704289503733e-09, -6.192098064744235e-09).transl(-4.391149982598256e-08, -3.8953001527258404e-08, 0))
hIsland = hIsland.add(rect(8.288262832539408e-09, 3.4622416556761336e-09).transl(-1.0571759789690522e-07, -1.750937636019213e-08, 0))
hIsland = hIsland.sub(rect(3.4613567715430674e-09, -5.472661307373229e-10).transl(-1.0056192223177183e-07, -2.1512506670188208e-08, 0))
hIsland = hIsland.sub(rect(2.0450262702450114e-09, -1.1256150005259892e-09).transl(-1.5068265005432824e-08, -4e-08, 0))
hIsland = hIsland.add(rect(5.052591054164696e-09, 6.155005935285314e-10).transl(1.149873120666673e-07, -6.642958592191058e-10, 0))
hIsland = hIsland.sub(rect(8.51402777857458e-09, -6.483013099343907e-10).transl(8.911294661988844e-08, -2.7816160896840176e-08, 0))
hIsland = hIsland.add(rect(3.3936781701876556e-09, 1.233885684111226e-10).transl(-9.613890154148405e-08, -2.4265003081347976e-08, 0))
hIsland = hIsland.add(rect(7.045199287807208e-09, 3.205319245465493e-11).transl(1.2876203666766162e-08, -4e-08, 0))
hIsland = hIsland.sub(rect(3.675470961778775e-09, -5.766086872691137e-09).transl(9.986318118415197e-08, -2.198148119981138e-08, 0))
hIsland = hIsland.add(rect(6.646985432363149e-09, 2.09988723001824e-09).transl(7.015300177563234e-08, -3.4346710008139295e-08, 0))
hIsland = hIsland.add(rect(6.5086096254365105e-09, 1.2117550864537222e-09).transl(-3.5436466681300585e-08, -3.963284782771437e-08, 0))
hIsland = hIsland.sub(rect(8.936382051429965e-09, -5.4616351164302354e-09).transl(-3.206305503889242e-08, -3.9805436627860206e-08, 0))
hIsland = hIsland.add(rect(4.1526019686133485e-09, 6.796821456086522e-10).transl(-1.1265744308181901e-07, -8.968996167647285e-09, 0))
hIsland = hIsland.sub(rect(8.959540225627502e-09, -2.155828709262164e-09).transl(1.0110025429877784e-07, -2.114112396688996e-08, 0))
hIsland = hIsland.sub(rect(6.241919648242429e-09, -4.773541586494603e-10).transl(1.0080766466071946e-07, -2.134409477726953e-08, 0))
hIsland = hIsland.sub(rect(3.2528922988888853e-09, -4.864540720395481e-09).transl(-6.73868006717905e-08, -3.503660501730318e-08, 0))
hIsland = hIsland.add(rect(9.549541969901085e-09, 2.5017210224456276e-09).transl(1.0229324566351467e-07, -2.02842801498976e-08, 0))
hIsland = hIsland.sub(rect(7.558140255204162e-09, -2.3018075462157587e-09).transl(3.9462590132350575e-08, -3.935439081950014e-08, 0))
hIsland = hIsland.sub(rect(7.971448074692526e-09, -1.614889029186359e-09).transl(-1.2323646935402781e-08, -4e-08, 0))
hIsland = hIsland.sub(rect(8.63072932104544e-09, -4.894963682483623e-10).transl(8.121000813968037e-08, -3.097530863851247e-08, 0))
hIsland = hIsland.add(rect(4.428131984177645e-09, 1.061637532776155e-09).transl(-1.0405087625448874e-07, -1.8925560367725708e-08, 0))
hIsland = hIsland.add(rect(9.001546686036428e-09, 1.756606290162196e-09).transl(-8.227305026658147e-08, -3.059184785862959e-08, 0))
hIsland = hIsland.sub(rect(3.960269974552935e-09, -3.2787011327783786e-09).transl(1.673206610545671e-08, -4e-08, 0))
hIsland = hIsland.add(rect(7.3137026980857946e-09, 6.570610991650932e-10).transl(-5.86106007564537e-10, -4e-08, 0))
hIsland = hIsland.add(rect(7.957550479494176e-09, 3.4651914229535462e-09).transl(-2.469722988178509e-08, -3.99931927353399e-08, 0))
hIsland = hIsland.sub(rect(8.693466207018315e-09, -1.9075537979990675e-09).transl(4.7569575046294204e-08, -3.854718950730399e-08, 0))
hIsland = hIsland.sub(rect(9.562991680890917e-09, -3.274144792279086e-09).transl(9.778807743499564e-08, -2.329535628606537e-08, 0))
hIsland = hIsland.add(rect(7.351342831248469e-09, 3.418287571928245e-09).transl(8.312285164433419e-08, -3.027674093453416e-08, 0))
hIsland = hIsland.sub(rect(5.322766173205965e-09, -2.726931159183447e-09).transl(-1.0840071006087263e-07, -1.487642049641502e-08, 0))
hIsland = hIsland.add(rect(8.376297947970496e-09, 4.7321350044336547e-11).transl(-5.6024320616900497e-08, -3.733411766384266e-08, 0))
hIsland = hIsland.add(rect(5.939406260526292e-09, 1.1396738634427494e-09).transl(2.2871154046539533e-08, -4e-08, 0))
hIsland = hIsland.add(rect(7.754337547344813e-09, 3.3045872038239398e-09).transl(-1.0276993577839806e-07, -1.9927834576524123e-08, 0))
hIsland = hIsland.sub(rect(3.7067642162945856e-09, -1.3056128395176059e-09).transl(3.7828057233302e-08, -3.947703675243979e-08, 0))
hIsland = hIsland.sub(rect(5.748402349603113e-09, -8.30687587909553e-10).transl(6.054204128842171e-08, -3.651810317278376e-08, 0))
hIsland = hIsland.add(rect(9.066676965977362e-09, 1.5508051956392724e-09).transl(7.146875786581403e-08, -3.399871984397821e-08, 0))
hIsland = hIsland.add(rect(8.562620269431825e-09, 1.115202971039149e-09).transl(1.8565146023393205e-08, -4e-08, 0))
hIsland = hIsland.add(rect(6.7063089890243024e-09, 6.909611831451206e-10).transl(5.915065293090645e-08, -3.6782532358511455e-08, 0))
hIsland = hIsland.sub(rect(8.907654004990503e-09, -4.600171276429411e-09).transl(-5.1114997107447764e-08, -3.8086427774888975e-08, 0))
hIsland = hIsland.add(rect(5.592173798397696e-09, 9.35447539465078e-11).transl(3.338170867562209e-08, -3.974450568958381e-08, 0))
hIsland = hIsland.sub(rect(8.34879514788186e-09, -7.754458546217803e-10).transl(5.32273995908829e-08, -3.7779342216264035e-08, 0))
hIsland = hIsland.add(rect(9.26253404058706e-09, 5.176429693696725e-10).transl(-5.328579239783296e-08, -3.7770500833841204e-08, 0))
hIsland = hIsland.sub(rect(2.6294071359707375e-09, -1.951974612348788e-09).transl(-2.7249613026134177e-08, -3.9957304219825825e-08, 0))
hIsland = hIsland.sub(rect(8.484864969132592e-09, -4.91570522534939e-09).transl(4.289265090502666e-08, -3.9053747172792976e-08, 0))
hIsland = hIsland.sub(rect(8.17118288409609e-09, -2.5431302880517447e-09).transl(-9.443599411846103e-08, -2.5205764727208796e-08, 0))
hIsland = hIsland.add(rect(6.141074298902621e-09, 1.803105855577908e-09).transl(2.4840386739632928e-08, -3.9991995835860206e-08, 0))
hIsland = hIsland.add(rect(5.736850275924251e-09, 1.4486920674226094e-09).transl(-2.293213247952327e-08, -4e-08, 0))
hIsland = hIsland.sub(rect(4.290799421925772e-09, -3.7217441643974827e-10).transl(-7.007753420312507e-08, -3.436627400393767e-08, 0))
hIsland = hIsland.add(rect(2.07363391039089e-09, 8.645673764122585e-10).transl(-6.49037329798787e-08, -3.560993564319489e-08, 0))
hIsland = hIsland.add(rect(4.881614931568203e-09, 3.5429692318328725e-09).transl(5.3017324816010936e-08, -3.78109920178052e-08, 0))
hIsland = hIsland.sub(rect(4.550711762016818e-09, -2.395062550387705e-09).transl(-5.968981542792599e-08, -3.668147635694208e-08, 0))
hIsland = hIsland.sub(rect(6.390401685558674e-09, -3.2526178878748313e-09).transl(5.96435067920625e-08, -3.669022577326308e-08, 0))
hIsland = hIsland.sub(rect(9.724783586825163e-09, -1.0185112881444483e-10).transl(4.49459412089768e-08, -3.884527902029878e-08, 0))
hIsland = hIsland.sub(rect(2.4986440180961174e-09, -1.925355550765758e-09).transl(2.656665089578147e-08, -3.9969929626713e-08, 0))
hIsland = hIsland.sub(rect(2.642859676010524e-09, -1.840637141524397e-09).transl(-1.0656332075595705e-07, -1.6733039118894383e-08, 0))
hIsland = hIsland.sub(rect(9.060243826645138e-09, -7.532149391994034e-10).transl(-4.667844047191055e-08, -3.865247091590833e-08, 0))
hIsland = hIsland.add(rect(7.271083084830183e-09, 1.308970167316535e-10).transl(-2.2197204804826893e-08, -4e-08, 0))
hIsland = hIsland.add(rect(7.602839487036715e-09, 8.542436599841931e-10).transl(-1.0736898109230705e-07, -1.595050845967317e-08, 0))
hIsland = hIsland.sub(rect(9.536999576090857e-09, -3.0889696227848643e-09).transl(-1.7998710237594232e-08, -4e-08, 0))
hIsland = hIsland.sub(rect(6.368138722526802e-09, -1.6104911949814915e-10).transl(1.1240188521874235e-07, -9.43891834154625e-09, 0))
hIsland = hIsland.add(rect(4.808986995666265e-09, 1.4163682333173238e-09).transl(-1.003141590841506e-07, -2.168044603084845e-08, 0))
hIsland = hIsland.sub(rect(8.012269800120508e-09, -2.116513326691403e-09).transl(8.867596619125882e-09, -4e-08, 0))
hIsland = hIsland.add(rect(9.817637160372329e-09, 2.1134419008719628e-10).transl(-1.1111192957598593e-07, -1.150563161521881e-08, 0))
hIsland = hIsland.sub(rect(2.0608390577434497e-09, -8.413584036184001e-10).transl(-6.236531403153587e-08, -3.615334922191748e-08, 0))
hIsland = hIsland.sub(rect(8.947073568348621e-09, -1.4898778100851365e-09).transl(3.6579132247772068e-09, -4e-08, 0))
hIsland = hIsland.add(rect(7.434287570734726e-09, 3.0423245907938538e-09).transl(-5.051991941264293e-08, -3.816850024891897e-08, 0))
hIsland = hIsland.add(rect(7.339711264429595e-09, 1.8160574496815548e-10).transl(-1.7589616739153902e-08, -4e-08, 0))
hIsland = hIsland.sub(rect(9.792515527134796e-09, -1.1803108935371528e-09).transl(-6.665652623246217e-09, -4e-08, 0))
hIsland = hIsland.sub(rect(8.523034215331222e-09, -3.298223365032668e-10).transl(2.523404224566128e-08, -3.99882049132284e-08, 0))
hIsland = hIsland.sub(rect(3.957459463537917e-09, -1.1793091441905293e-09).transl(-8.18004287140452e-08, -3.0763779499923957e-08, 0))
hIsland = hIsland.add(rect(4.022159179569551e-09, 4.090916890267817e-09).transl(-8.01390802001969e-08, -3.134998338435798e-08, 0))
hIsland = hIsland.add(rect(9.089457844048253e-09, 5.182869102153361e-10).transl(1.016456619240803e-07, -2.0755393589327004e-08, 0))
hIsland = hIsland.sub(rect(8.021513860339159e-09, -1.1203123767593616e-09).transl(8.352011031065023e-08, -3.012675254489078e-08, 0))
hIsland = hIsland.sub(rect(9.555124913975369e-09, -7.428676269519965e-10).transl(8.273298705082725e-09, -4e-08, 0))
hIsland = hIsland.sub(rect(3.2146140028098076e-09, -2.310925070301948e-09).transl(4.1843613329395535e-08, -3.915197049096715e-08, 0))
hIsland = hIsland.sub(rect(8.266384978216104e-09, -1.5618071601694481e-09).transl(-1.0887692921339825e-07, -1.4348834146912845e-08, 0))
hIsland = hIsland.add(rect(6.639171352325639e-09, 2.1747861749348845e-09).transl(2.2227371384859902e-08, -4e-08, 0))
hIsland = hIsland.add(rect(2.999996468177846e-09, 4.7558658736539456e-11).transl(-9.077913899013836e-09, -4e-08, 0))
hIsland = hIsland.sub(rect(5.203156557931233e-09, -9.13364384310867e-10).transl(5.4916629317247156e-08, -3.751579068427633e-08, 0))
hIsland = hIsland.sub(rect(7.627744002920029e-09, -8.199989782302559e-10).transl(-3.4278189171711096e-08, -3.969830089978996e-08, 0))
hIsland = hIsland.sub(rect(2.6989031996085323e-09, -1.4409491089692689e-09).transl(-4.17743064583608e-08, -3.9158264058137156e-08, 0))
hIsland = hIsland.sub(rect(2.610734852211831e-09, -3.0558696006593523e-09).transl(3.625539157976948e-08, -3.958263972372842e-08, 0))
hIsland = hIsland.add(rect(8.929257253981914e-09, 8.308416955555397e-10).transl(-8.68961536152635e-08, -2.8778804271013584e-08, 0))
hIsland = hIsland.sub(rect(4.791502893773032e-09, -2.4749627644414472e-09).transl(-2.1355549440789766e-08, -4e-08, 0))
hIsland = hIsland.add(rect(7.495634259203842e-09, 5.399380753687094e-10).transl(2.093254613883488e-08, -4e-08, 0))
hIsland = hIsland.add(rect(8.686299874670901e-09, 1.3155751053606124e-09).transl(4.725023943209239e-09, -4e-08, 0))
hIsland = hIsland.sub(rect(2.556949768387955e-09, -1.1924667354192538e-09).transl(1.0898024459866102e-07, -1.4231395434799438e-08, 0))
hIsland = hIsland.sub(rect(5.306164827523964e-09, -2.35976331363626e-09).transl(4.096460851142865e-08, -3.923000096380634e-08, 0))
hIsland = hIsland.sub(rect(9.659272512884226e-09, -2.374448419264011e-09).transl(-1.1129375206203417e-07, -1.1239053458722514e-08, 0))
hIsland = hIsland.sub(rect(9.801651547377956e-09, -4.5009946724908895e-09).transl(-8.663890623491968e-08, -2.888635451177238e-08, 0))
hIsland = hIsland.add(rect(5.792854778384446e-09, 1.0662616585660265e-10).transl(-9.565685423756282e-08, -2.4537235052604404e-08, 0))
hIsland = hIsland.add(rect(3.6094398740642055e-09, 3.723780674202528e-09).transl(2.45801959295871e-08, -3.999409923589678e-08, 0))
hIsland = hIsland.sub(rect(7.547712772453129e-09, -3.977438885016916e-10).transl(-8.136339076036903e-08, -3.092070050999528e-08, 0))
hIsland = hIsland.add(rect(9.769719388358279e-09, 3.4679735509592403e-09).transl(-1.0836802944440282e-07, -1.4911836361207683e-08, 0))
hIsland = hIsland.sub(rect(6.733232364805643e-09, -1.3738418918770749e-09).transl(-1.0442687497321268e-07, -1.861795803666369e-08, 0))
hIsland = hIsland.sub(rect(5.4235204802923115e-09, -2.3950981493850466e-09).transl(-7.713588543921585e-08, -3.234182362411093e-08, 0))
hIsland = hIsland.add(rect(4.176668926701561e-09, 3.1007902149910472e-09).transl(1.1368765086184017e-07, -6.732113895155801e-09, 0))
hIsland = hIsland.sub(rect(4.2737393940763044e-09, -1.1255935012431457e-09).transl(9.500578694828133e-08, -2.4897394910675543e-08, 0))
hIsland = hIsland.add(rect(9.950194214103258e-09, 1.3327979703624743e-10).transl(3.755529965883657e-09, -4e-08, 0))
hIsland = hIsland.sub(rect(3.929351377535258e-09, -7.012062010505497e-10).transl(-1.13831088439513e-07, -6.3560603664919e-09, 0))
hIsland = hIsland.sub(rect(5.057651698063856e-09, -3.8844932176396e-10).transl(2.787935094506799e-08, -3.99437031393305e-08, 0))
hIsland = hIsland.sub(rect(5.540607995050983e-09, -1.908427856219733e-09).transl(1.5488920135682252e-08, -4e-08, 0))
hIsland = hIsland.sub(rect(2.0630567988252066e-09, -4.413665171517959e-09).transl(3.746486063978182e-08, -3.950250119302632e-08, 0))
hIsland = hIsland.sub(rect(9.557895862199279e-09, -3.168523665020224e-10).transl(-3.277173080468847e-09, -4e-08, 0))
hIsland = hIsland.add(rect(9.058088693585273e-09, 6.372717495693209e-10).transl(-1.0846084536929775e-07, -1.4810995179812961e-08, 0))
hIsland = hIsland.sub(rect(3.392876730094939e-09, -1.4691259991338185e-09).transl(4.47438410466996e-09, -4e-08, 0))
hIsland = hIsland.add(rect(8.911943403111141e-09, 1.6080973841306788e-09).transl(-4.25969230258109e-08, -3.908200047875791e-08, 0))
hIsland = hIsland.add(rect(9.547469314390996e-09, 2.2124206670249626e-09).transl(1.1393428709300859e-07, -6.070714835787223e-09, 0))
hIsland = hIsland.sub(rect(9.343701641361254e-09, -3.4133487792778837e-09).transl(-9.23221770477432e-08, -2.629782804346506e-08, 0))
hIsland = hIsland.sub(rect(7.058972307337744e-09, -1.2796291001126001e-09).transl(-3.433024180107011e-08, -3.969549888233958e-08, 0))
hIsland = hIsland.add(rect(6.757497690642131e-09, 9.167487132776076e-10).transl(7.168138097972221e-08, -3.394124564782668e-08, 0))
hIsland = hIsland.add(rect(7.921824411837047e-09, 6.135117544655756e-10).transl(1.0191477609593128e-07, -2.056139367765914e-08, 0))
hIsland = hIsland.add(rect(4.443672721740353e-09, 1.749203129183121e-10).transl(-6.987755002176654e-08, -3.4417912270473227e-08, 0))
hIsland = hIsland.add(rect(9.209175141973028e-09, 1.3750722129386222e-09).transl(-5.197809509581641e-08, -3.796394171365971e-08, 0))
hIsland = hIsland.sub(rect(5.403746459504892e-09, -9.91941566166727e-10).transl(-9.837027934888438e-08, -2.2937908259589758e-08, 0))
hIsland = hIsland.add(rect(5.724563632332659e-09, 3.748461477725781e-09).transl(2.0501275480575178e-08, -4e-08, 0))
hIsland = hIsland.sub(rect(3.4764278092263662e-09, -3.889088884527078e-09).transl(6.786220809357312e-08, -3.492195534362995e-08, 0))
hIsland = hIsland.add(rect(2.742001989763595e-09, 1.1473609362011769e-09).transl(-4.103138402421929e-08, -3.922420935183023e-08, 0))
hIsland = hIsland.sub(rect(5.7852833225339065e-09, -8.275424197511686e-10).transl(-8.019572631086368e-09, -4e-08, 0))
hIsland = hIsland.add(rect(8.519263026041409e-09, 6.291188957556595e-10).transl(-5.3028721725081245e-08, -3.7809281303105954e-08, 0))
hIsland = hIsland.add(rect(3.991580851362911e-09, 2.646161211455516e-09).transl(-9.768334366676013e-08, -2.3358786912855493e-08, 0))
hIsland = hIsland.add(rect(3.5873552719287425e-09, 1.4133305650881608e-09).transl(1.32470614604677e-08, -4e-08, 0))
hIsland = hIsland.add(rect(9.806830492907066e-09, 2.7642553335821104e-09).transl(8.18144677126086e-08, -3.075870598531147e-08, 0))
hIsland = hIsland.sub(rect(3.90128449928012e-09, -3.124836510675393e-11).transl(8.320148038434956e-08, -3.024719130997623e-08, 0))
hIsland = hIsland.add(rect(8.182884127371966e-09, 7.177649313943298e-10).transl(-5.406459382960708e-09, -4e-08, 0))
hIsland = hIsland.sub(rect(3.0848125654235007e-09, -7.366876253397566e-11).transl(8.769917953981908e-08, -2.843762838729366e-08, 0))
hIsland = hIsland.add(rect(9.913543801278049e-09, 7.122789762027648e-10).transl(1.0528378786473072e-07, -1.7891598891505393e-08, 0))
hIsland = hIsland.add(rect(5.229352833033171e-09, 7.58525854997218e-10).transl(7.376850854054264e-08, -3.33582222346416e-08, 0))
hIsland = hIsland.sub(rect(3.944364979209511e-09, -1.627686931824161e-09).transl(-2.3746281817177028e-08, -3.999868396570736e-08, 0))
hIsland = hIsland.add(rect(3.1372672113486184e-09, 2.696655655892597e-10).transl(1.0617430433888557e-07, -1.709550122529694e-08, 0))
hIsland = hIsland.sub(rect(8.240135667541424e-09, -7.585087621105812e-11).transl(2.368505220356353e-08, -3.9998891060900367e-08, 0))
hIsland = hIsland.sub(rect(3.273539200356596e-09, -6.240300226514758e-11).transl(5.3669074030047865e-08, 3.7711991589774087e-08, 0))
hIsland = hIsland.sub(rect(3.9247457055798845e-09, -1.3416024475466536e-09).transl(-1.083790832706501e-07, 1.4899868307758433e-08, 0))
hIsland = hIsland.sub(rect(3.328450461633037e-09, -1.8872220368571213e-10).transl(-7.756197506412277e-08, 3.2206184981443977e-08, 0))
hIsland = hIsland.add(rect(9.635882355954409e-09, 1.2886564434081982e-09).transl(3.337774186700541e-09, 4e-08, 0))
hIsland = hIsland.sub(rect(9.112853160343573e-09, -1.2192933234147214e-09).transl(-1.0603830050650601e-07, 1.7220029711059017e-08, 0))
hIsland = hIsland.sub(rect(6.020621965527661e-09, -1.8869462864873256e-09).transl(3.443237804308856e-08, 3.9689962762621496e-08, 0))
hIsland = hIsland.add(rect(5.490551037636596e-09, 1.0775928148048352e-09).transl(6.644694644740762e-08, 3.525859866272335e-08, 0))
hIsland = hIsland.add(rect(4.57436091506545e-09, 2.497660375786487e-09).transl(-4.8430591965230907e-08, 3.844148326476324e-08, 0))
hIsland = hIsland.add(rect(7.3238540281737e-09, 4.095678738525407e-10).transl(-5.131737003955735e-08, 3.805807559462905e-08, 0))
hIsland = hIsland.add(rect(3.1308430908283294e-09, 9.520149060515204e-10).transl(-1.1247838884191144e-07, 9.300872270979605e-09, 0))
hIsland = hIsland.add(rect(8.710194937837318e-09, 3.8216418414649315e-09).transl(9.639118816772782e-08, 2.4120575734966036e-08, 0))
hIsland = hIsland.sub(rect(8.19039425069029e-09, -2.0558496103364576e-09).transl(4.839074502251252e-08, 3.8446462093229774e-08, 0))
hIsland = hIsland.add(rect(2.4052394254907237e-09, 1.226439982170435e-09).transl(4.4701666484924144e-08, 3.887121305664038e-08, 0))
hIsland = hIsland.sub(rect(6.871650655667108e-09, -3.2239872472157875e-09).transl(8.257817783711567e-08, 3.0479596589254116e-08, 0))
hIsland = hIsland.sub(rect(6.0064570879541115e-09, -2.1469186501700647e-10).transl(8.301445569760857e-09, 4e-08, 0))
hIsland = hIsland.sub(rect(4.5804093346399865e-09, -1.5540711820600684e-09).transl(8.077098932560152e-09, 4e-08, 0))
hIsland = hIsland.sub(rect(6.991040667654253e-09, -2.348564723408294e-10).transl(-5.8327156974564405e-08, 3.6933476139583866e-08, 0))
hIsland = hIsland.sub(rect(4.186182257185171e-09, -6.858152424751513e-11).transl(-7.842745009331935e-08, 3.192559217846507e-08, 0))
hIsland = hIsland.sub(rect(4.860445952692533e-09, -2.492556671255188e-10).transl(-1.1098269640039371e-07, 1.1691086341008716e-08, 0))
hIsland = hIsland.sub(rect(2.3015809138017754e-09, -2.984157466206127e-10).transl(-4.3876851669695924e-08, 3.89565146165597e-08, 0))
hIsland = hIsland.sub(rect(3.806532787704147e-09, -4.054999867393184e-10).transl(-3.925633688637684e-08, 3.937059516823518e-08, 0))
hIsland = hIsland.add(rect(7.310154088824565e-09, 7.273811643882897e-10).transl(-2.6384086410381098e-08, 3.9972930252380045e-08, 0))
hIsland = hIsland.add(rect(2.3475426595796175e-09, 2.500046536369444e-09).transl(-9.915438442571105e-08, 2.244299534856463e-08, 0))
hIsland = hIsland.add(rect(5.756136678319326e-09, 1.3268009666719565e-09).transl(7.388101614710763e-08, 3.332580247712545e-08, 0))
hIsland = hIsland.add(rect(3.478148043998429e-09, 2.337480049742239e-10).transl(8.730714141793115e-08, 2.860523159500408e-08, 0))
hIsland = hIsland.add(rect(6.1384266476205625e-09, 4.395348523975148e-11).transl(7.261325178589281e-08, 3.368520243920816e-08, 0))
hIsland = hIsland.sub(rect(8.913651437752994e-09, -1.1005966860885454e-09).transl(1.1013529742779716e-08, 4e-08, 0))
hIsland = hIsland.sub(rect(8.168368887938637e-09, -3.666508818618235e-10).transl(1.7240282699558507e-09, 4e-08, 0))
hIsland = hIsland.add(rect(4.6582199861899145e-09, 4.060831934723797e-10).transl(-8.837794477934293e-08, 2.814264346463459e-08, 0))
hIsland = hIsland.sub(rect(2.1719311978139456e-09, -3.792475225854877e-10).transl(1.0307471447976077e-07, 1.9695412710823734e-08, 0))
hIsland = hIsland.sub(rect(3.5702384992456313e-09, -6.865608032499638e-11).transl(-3.81344169991384e-08, 3.945505308584493e-08, 0))
hIsland = hIsland.add(rect(9.186239887058145e-09, 3.792174978519442e-09).transl(1.6892577508270582e-08, 4e-08, 0))
hIsland = hIsland.sub(rect(2.208967182411116e-09, -5.061778567362066e-10).transl(-2.0181064362734178e-08, 4e-08, 0))
hIsland = hIsland.add(rect(2.3079519093856353e-09, 7.597947762455733e-10).transl(-9.565515710570248e-08, 2.453818499529009e-08, 0))
hIsland = hIsland.sub(rect(8.362155741836497e-09, -1.315000161872852e-09).transl(2.6829077177316232e-08, 3.9965339822650276e-08, 0))
hIsland = hIsland.sub(rect(6.731406115903479e-09, -2.52576181562134e-09).transl(5.077228668864962e-08, 3.813392996742635e-08, 0))
hIsland = hIsland.sub(rect(2.5192672050359815e-09, -2.705784212508894e-09).transl(-7.235324186534707e-08, 3.375732789559014e-08, 0))
hIsland = hIsland.add(rect(3.3285039122018577e-09, 8.802966934944291e-10).transl(7.410264319370721e-08, 3.3261636418032954e-08, 0))
hIsland = hIsland.sub(rect(8.625085685795288e-09, -2.7733886646261328e-09).transl(-4.0853460045337666e-08, 3.923959162539893e-08, 0))
hIsland = hIsland.sub(rect(7.57320602817797e-09, -3.119542057854851e-09).transl(7.727040714167584e-09, 4e-08, 0))
hIsland = hIsland.sub(rect(9.147141453186282e-09, -6.54296382961039e-10).transl(1.0882502797782991e-07, 1.4407416257417634e-08, 0))
hIsland = hIsland.add(rect(2.9758894946483726e-09, 6.305032901623167e-10).transl(-1.0619808245872757e-07, 1.7073615076898512e-08, 0))
hIsland = hIsland.add(rect(8.995018622689635e-09, 2.040571912325484e-09).transl(-2.511892009397909e-08, 3.998938937159353e-08, 0))
hIsland = hIsland.add(rect(4.378346884613389e-09, 6.094294446442024e-11).transl(-8.152501484679497e-08, 3.0862897740398534e-08, 0))
hIsland = hIsland.sub(rect(7.283622443387994e-09, -2.207387448259379e-09).transl(1.5345734897236933e-08, 4e-08, 0))
hIsland = hIsland.sub(rect(4.833508901838623e-09, -3.962380529919612e-09).transl(-3.681901799522156e-08, 3.9546184484799686e-08, 0))
hIsland = hIsland.add(rect(2.6944974121184757e-09, 4.900378084958004e-11).transl(7.238860794243343e-08, 3.3747548830708e-08, 0))
hIsland = hIsland.add(rect(3.853307937393718e-09, 3.3596389512871144e-09).transl(5.120310680430728e-08, 3.8074111310645614e-08, 0))
hIsland = hIsland.sub(rect(7.618580677034332e-09, -2.4320844134596574e-09).transl(-8.420568051697667e-08, 2.9863788671395816e-08, 0))
hIsland = hIsland.sub(rect(3.723055221001838e-09, -1.9032686116109545e-09).transl(4.111295436135251e-08, 3.921710422218158e-08, 0))
hIsland = hIsland.add(rect(3.177696467856878e-09, 1.0732750309203388e-09).transl(4.027903001079659e-08, 3.9288172705462054e-08, 0))
hIsland = hIsland.sub(rect(3.0602244136447977e-09, -1.5080645206831343e-09).transl(6.48458274924962e-08, 3.562280529894296e-08, 0))
hIsland = hIsland.add(rect(2.6438281974754156e-09, 3.925777146006793e-09).transl(2.5697137403760663e-08, 3.998280691420038e-08, 0))
hIsland = hIsland.add(rect(6.406410616707298e-09, 1.8347280620359704e-09).transl(3.37405947589669e-08, 3.972647411487627e-08, 0))
hIsland = hIsland.sub(rect(7.529458085379265e-09, -8.701153053204194e-10).transl(9.182953768088702e-08, 2.6541314025771646e-08, 0))
hIsland = hIsland.sub(rect(7.906199706735203e-09, -1.1844815082869074e-09).transl(8.569557742709064e-08, 2.9273705341166713e-08, 0))
hIsland = hIsland.sub(rect(7.2567172748052665e-09, -4.859400342447068e-10).transl(6.278069639389501e-09, 4e-08, 0))
hIsland = hIsland.add(rect(5.971634157894831e-09, 3.6114439529893174e-10).transl(-9.961584341152943e-08, 2.21441084362989e-08, 0))
hIsland = hIsland.sub(rect(7.182679253745275e-09, -1.29623826404978e-09).transl(-3.3232496221224785e-08, 3.9751819925007355e-08, 0))
hIsland = hIsland.add(rect(8.35049815314672e-09, 9.082202199047112e-10).transl(3.7776744995672624e-08, 3.9480673665333964e-08, 0))
hIsland = hIsland.add(rect(5.496985305319823e-09, 5.339275489236187e-10).transl(1.1149903904976413e-07, 1.0929574239484088e-08, 0))
hIsland = hIsland.add(rect(7.6869440628415e-09, 5.395541348100128e-10).transl(-1.876238018266371e-08, 4e-08, 0))
hIsland = hIsland.add(rect(8.139486944870572e-09, 8.099797153281953e-10).transl(6.752608742362586e-08, 3.500317981435397e-08, 0))
hIsland = hIsland.add(rect(5.307904770199301e-09, 1.8323970243244716e-10).transl(-7.634301880214817e-08, 3.258991443220181e-08, 0))
hIsland = hIsland.sub(rect(6.053740061522018e-09, -1.2239922004115355e-09).transl(6.38336280197079e-08, 3.5844167089208766e-08, 0))
hIsland = hIsland.add(rect(2.645619662723732e-09, 6.250877262709354e-10).transl(-5.1570792161406845e-08, 3.802225454014572e-08, 0))
hIsland = hIsland.sub(rect(9.85844391164074e-09, -1.6846387367503919e-09).transl(6.392991464731631e-08, 3.582340135291645e-08, 0))
hIsland = hIsland.add(rect(8.123959867752959e-09, 4.423225216437179e-09).transl(7.187272636676334e-08, 3.3889224125241714e-08, 0))
hIsland = hIsland.sub(rect(8.329528611720978e-09, -1.3282824211057878e-09).transl(-2.7580376056177436e-08, 3.995039493922904e-08, 0))
hIsland = hIsland.sub(rect(4.991457180397124e-09, -4.781426629065638e-10).transl(5.089132471251865e-09, 4e-08, 0))
hIsland = hIsland.sub(rect(2.5287889936313173e-09, -1.771415634768374e-09).transl(6.563582372997023e-08, 3.544528127978668e-08, 0))
hIsland = hIsland.add(rect(7.639185800372606e-09, 4.187130026515365e-09).transl(9.825000137334216e-08, 2.3012437227871598e-08, 0))
hIsland = hIsland.add(rect(7.054991779453555e-09, 3.763964877758793e-10).transl(-9.66079569700433e-08, 2.399538657098826e-08, 0))
hIsland = hIsland.add(rect(6.9533745889409995e-09, 2.9717938575629017e-09).transl(3.871455342136369e-08, 3.9412156902105745e-08, 0))
hIsland = hIsland.sub(rect(5.1499643777487605e-09, -2.3014278764269318e-10).transl(-1.1339399775952071e-08, 4e-08, 0))
hIsland = hIsland.sub(rect(3.810383066879402e-09, -2.282901920119842e-09).transl(-3.329791453973121e-08, 3.9748626389297925e-08, 0))
hIsland = hIsland.add(rect(5.179723278677106e-09, 2.171326787905536e-09).transl(-4.2565932013103974e-08, 3.908493563586193e-08, 0))
hIsland = hIsland.add(rect(7.94358050539065e-09, 1.5046494576189412e-09).transl(-6.706021466661252e-08, 3.511444288275632e-08, 0))
hIsland = hIsland.add(rect(7.093933936956153e-09, 1.6652199495099097e-09).transl(-1.7981512444702143e-08, 4e-08, 0))
hIsland = hIsland.add(rect(4.503498172945279e-09, 1.1649800240021938e-09).transl(3.191055976530937e-08, 3.981194433879987e-08, 0))
hIsland = hIsland.sub(rect(7.97156063953127e-09, -1.879029978772596e-09).transl(-8.442335991898839e-08, 2.9779183732811018e-08, 0))
hIsland = hIsland.sub(rect(2.875730409934546e-09, -5.093438911164736e-10).transl(-8.457912888228529e-08, 2.971830851960341e-08, 0))
hIsland = hIsland.add(rect(8.941615481455358e-09, 3.5678323346677376e-10).transl(-4.9637381450558505e-08, 3.8286675855989324e-08, 0))
hIsland = hIsland.sub(rect(8.183808620489988e-09, -1.169221118233854e-09).transl(3.285635040380465e-08, 3.976978257653375e-08, 0))
hIsland = hIsland.sub(rect(4.069493389337544e-09, -2.6558220337196445e-09).transl(7.801835083286696e-08, 3.205908142214428e-08, 0))
hIsland = hIsland.sub(rect(8.508230833290314e-09, -4.483019419060166e-09).transl(3.0723165774862345e-08, 3.9858807306880514e-08, 0))
hIsland = hIsland.add(rect(9.045221931966116e-09, 2.2855761010644717e-10).transl(2.0739440608672257e-08, 4e-08, 0))
hIsland = hIsland.add(rect(7.947216458898983e-09, 1.3190155346029493e-09).transl(-8.497883510088237e-08, 2.9560818085535638e-08, 0))
hIsland = hIsland.add(rect(2.451767821535465e-09, 1.9845927431781514e-09).transl(1.1277751914212856e-07, 8.738990445393397e-09, 0))
hIsland = hIsland.add(rect(3.8786484467247725e-09, 2.260414889751746e-09).transl(2.8121536641953595e-08, 3.993797142939422e-08, 0))
hIsland = hIsland.add(rect(4.057775588569324e-09, 1.8993728330286422e-09).transl(5.354760537261773e-08, 3.7730623680596755e-08, 0))
hIsland = hIsland.sub(rect(2.2367138851439394e-09, -2.3912609058005087e-09).transl(4.648541332538712e-08, 3.8674726537710364e-08, 0))
hIsland = hIsland.add(rect(4.569718763837224e-09, 1.4515567083480669e-09).transl(1.611686825971823e-08, 4e-08, 0))
hIsland = hIsland.sub(rect(3.730554476885629e-09, -2.2377800010133523e-11).transl(-8.38103112214859e-09, 4e-08, 0))
hIsland = hIsland.add(rect(4.253200100342939e-09, 1.759301429831677e-09).transl(9.962773472760989e-08, 2.2136329062642133e-08, 0))
hIsland = hIsland.add(rect(9.339244126263481e-09, 2.9796428381300553e-09).transl(2.7830242005610094e-08, 3.9944831431183194e-08, 0))
hIsland = hIsland.sub(rect(9.78932142661548e-09, -6.655549900534153e-11).transl(-2.6390033024707105e-08, 3.997283500095404e-08, 0))
hIsland = hIsland.sub(rect(7.308356961139192e-09, -1.1672953523086645e-09).transl(-1.0560459539994525e-07, 1.760993457161359e-08, 0))
hIsland = hIsland.sub(rect(4.727775900255396e-09, -4.651770783984542e-10).transl(1.077431625423886e-07, 1.557102394921097e-08, 0))
hIsland = hIsland.sub(rect(9.673644384661033e-09, -1.9193246079449067e-10).transl(1.0199126682724979e-07, 2.0505795967163136e-08, 0))
hIsland = hIsland.sub(rect(3.347726131797953e-09, -3.0901665939707753e-09).transl(-4.16064307170209e-08, 3.917340813256791e-08, 0))
hIsland = hIsland.sub(rect(7.143536694656454e-09, -2.391762869984572e-09).transl(7.8148690764058e-08, 3.2016719128959265e-08, 0))
hIsland = hIsland.sub(rect(3.8464605533041735e-09, -1.4317083094190826e-09).transl(-9.701605878172071e-08, 2.3756893507263856e-08, 0))
hIsland = hIsland.sub(rect(2.221490847044949e-09, -7.827301673829546e-10).transl(6.820512326330553e-08, 3.483826208161872e-08, 0))
hIsland = hIsland.add(rect(5.6559370037569725e-09, 3.844210220915057e-09).transl(6.004750152104663e-08, 3.6613452729878315e-08, 0))
hIsland = hIsland.sub(rect(2.142522435990687e-09, -5.912378939607339e-09).transl(2.4192789898314664e-08, 3.999663797841353e-08, 0))
hIsland = hIsland.add(rect(5.714383802724875e-09, 1.0352009640869708e-09).transl(7.064448218665846e-08, 3.4218256762617754e-08, 0))
hIsland = hIsland.sub(rect(4.1445310518395855e-09, -1.5786421648905794e-09).transl(7.471315199274647e-08, 3.308278529090302e-08, 0))
hIsland = hIsland.add(rect(5.891101541799107e-09, 1.5617793819928198e-10).transl(-1.3261234756301773e-08, 4e-08, 0))
hIsland = hIsland.add(rect(5.214831960406668e-09, 3.7690044842640555e-09).transl(-4.153759816236196e-08, 3.917957652051873e-08, 0))
hIsland = hIsland.add(rect(8.795634363388416e-09, 4.309451077957454e-10).transl(-1.3093461917136678e-08, 4e-08, 0))
hIsland = hIsland.add(rect(8.180641145730775e-09, 1.7087051448028318e-09).transl(-4.4558580405064106e-08, 3.888626139545154e-08, 0))
hIsland = hIsland.add(rect(3.738732366997027e-09, 2.1392739009621932e-09).transl(1.1415981154975235e-07, 5.393561207389106e-09, 0))
hIsland = hIsland.sub(rect(3.1962956620380365e-09, -2.0395627737626416e-09).transl(-8.266438236021828e-08, 3.0447703709262645e-08, 0))
hIsland = hIsland.sub(rect(3.490228182427055e-09, -2.0872740315926928e-09).transl(7.584099980732936e-08, 3.2744149795270125e-08, 0))
hIsland = hIsland.add(rect(8.729134464085715e-09, 5.350888241514679e-10).transl(1.1247062135794019e-07, 9.314986946813203e-09, 0))
hIsland = hIsland.sub(rect(6.195002142553815e-09, -2.1318119891160625e-10).transl(-1.0014902380381073e-07, 2.1791363883637082e-08, 0))
hIsland = hIsland.sub(rect(2.1007456785831496e-09, -1.067433690389011e-09).transl(1.1295564358056366e-07, 8.385582505234678e-09, 0))
hIsland = hIsland.add(rect(3.877940032778059e-09, 2.0050432089510617e-09).transl(4.585860833409041e-08, 3.874565412554035e-08, 0))
hIsland = hIsland.sub(rect(4.871663418275282e-09, -9.398096407605735e-10).transl(-7.095194726047195e-08, 3.4136971830161716e-08, 0))
hIsland = hIsland.sub(rect(7.0822185187196055e-09, -3.151021909713148e-09).transl(1.1405526303689736e-07, 5.717665281606021e-09, 0))
hIsland = hIsland.sub(rect(7.591572299687123e-09, -2.6816936413085763e-09).transl(-2.30631422894882e-08, 3.999999057904255e-08, 0))
hIsland = hIsland.add(rect(7.2993667901303556e-09, 1.8019112145932176e-09).transl(-2.600972418804343e-08, 3.997858963931275e-08, 0))
hIsland = hIsland.add(rect(3.085567802550341e-09, 8.18797811522082e-10).transl(-7.18936811945716e-08, 3.3883509824725474e-08, 0))
hIsland = hIsland.sub(rect(8.394012965800055e-09, -1.476868646094476e-09).transl(-5.197311830461572e-08, 3.796465975736866e-08, 0))
hIsland = hIsland.sub(rect(9.804556466793953e-09, -1.5153535276870738e-10).transl(-1.3978450669248433e-08, 4e-08, 0))
hIsland = hIsland.add(rect(8.969004098821296e-09, 5.797306358768533e-09).transl(-9.955090091694163e-08, 2.2186524839688496e-08, 0))
hIsland = hIsland.sub(rect(6.990847376867746e-09, -1.0982598451574324e-09).transl(-2.8670475664906723e-08, 3.992394874637948e-08, 0))
hIsland = hIsland.sub(rect(6.0823311096661985e-09, -1.6947787309235794e-09).transl(8.328824221877307e-11, 4e-08, 0))
hIsland = hIsland.add(rect(8.39970424903929e-09, 2.5741850930758216e-10).transl(-2.000946663050786e-08, 4e-08, 0))
hIsland = hIsland.add(rect(3.224139591930106e-09, 1.3173745995091684e-09).transl(-8.993627077198051e-08, 2.744141604894483e-08, 0))
hIsland = hIsland.add(rect(4.765625301717935e-09, 2.3719779160518324e-09).transl(6.961068736782006e-08, 3.4486357465634327e-08, 0))
hIsland = hIsland.add(rect(6.554166986356293e-09, 5.463670315237376e-11).transl(1.0084990017791066e-07, 2.131496205105845e-08, 0))
hIsland = hIsland.add(rect(5.192066174689836e-09, 1.1679439109715007e-09).transl(1.1380736860755685e-08, 4e-08, 0))
hIsland = hIsland.sub(rect(5.549890749669036e-09, -2.3097669595314523e-09).transl(-8.246143743372936e-08, 3.052266026825887e-08, 0))
hIsland = hIsland.sub(rect(9.632872681764509e-09, -4.753228042638275e-09).transl(6.020399741683099e-08, 3.658344315510611e-08, 0))
hIsland = hIsland.add(rect(5.367380985784479e-09, 3.0533290949140113e-09).transl(4.324346259658978e-08, 3.90196553206489e-08, 0))
hIsland = hIsland.add(rect(8.584373355594444e-09, 2.515599232616708e-09).transl(-3.489825839803404e-08, 3.966407012407913e-08, 0))
hIsland = hIsland.sub(rect(9.338111980118424e-09, -1.216373609072794e-09).transl(-1.1081110611556203e-07, 1.1932463089414829e-08, 0))
hIsland = hIsland.add(rect(2.239367596486427e-09, 1.9416289959166024e-09).transl(-1.7714415536455247e-08, 4e-08, 0))
hIsland = hIsland.sub(rect(8.009284777418251e-09, -5.410460335071154e-12).transl(6.369424645218738e-08, 3.587411909350656e-08, 0))
hIsland = hIsland.add(rect(6.790997923569845e-09, 8.257110595474316e-10).transl(-3.480279199853458e-08, 3.9669461575259006e-08, 0))
hIsland = hIsland.sub(rect(9.554364197946439e-09, -1.6810992139921173e-09).transl(1.062664027207139e-07, 1.7010539254756072e-08, 0))
hIsland = hIsland.add(rect(7.761019661895818e-09, 4.4079211999057306e-10).transl(-1.0808521645983798e-07, 1.521432229911243e-08, 0))
hIsland = hIsland.add(rect(5.034228132961782e-09, 2.1017902032581285e-09).transl(-6.90848436067343e-08, 3.461969234770963e-08, 0))
hIsland = hIsland.add(rect(5.54821910421602e-09, 2.506595326985584e-09).transl(-6.45877408979108e-08, 3.5679893272451147e-08, 0))
hIsland = hIsland.sub(rect(3.326826830023932e-09, -4.725032891011691e-09).transl(7.338345476824241e-08, 3.3468399128015514e-08, 0))
hIsland = hIsland.sub(rect(2.4390686485474228e-09, -1.964297086446081e-09).transl(-6.215701133448835e-08, 3.619608555257135e-08, 0))
hIsland = hIsland.add(rect(3.1701574965375015e-09, 5.016843308290151e-11).transl(-9.637471382402804e-08, 2.4130048454572894e-08, 0))
hIsland = hIsland.sub(rect(5.772053591484924e-09, -7.185415168960965e-10).transl(1.0830949146247848e-07, 1.4975030675942797e-08, 0))
hIsland = hIsland.sub(rect(6.697237547258581e-09, -6.360595904912876e-10).transl(-6.602201505038897e-08, 3.535695967618411e-08, 0))
hIsland = hIsland.add(rect(3.1213457874547246e-09, 1.3109688569654713e-09).transl(1.576828614690298e-08, 4e-08, 0))
hIsland = hIsland.add(rect(3.9193846490008895e-09, 4.7999074264678394e-11).transl(3.675656983637771e-08, 3.955030006968887e-08, 0))
hIsland = hIsland.add(rect(4.255886761762614e-09, 1.702452622723175e-11).transl(-7.050677498388638e-08, 3.4254430896396315e-08, 0))
hIsland = hIsland.sub(rect(5.622396752659051e-09, -2.0468466712628278e-09).transl(-2.9908601815434186e-09, 4e-08, 0))
hIsland = hIsland.add(rect(9.09054183802844e-09, 1.8692837028254378e-10).transl(2.656311198034855e-08, 3.9969989292571724e-08, 0))
hIsland = hIsland.add(rect(9.371164241702573e-09, 1.6077148007574374e-09).transl(8.518068357857897e-08, 2.948057766226246e-08, 0))
hIsland = hIsland.sub(rect(2.7323314194662e-09, -2.3752020096105885e-09).transl(-8.036336806526172e-08, 3.127245961663953e-08, 0))
hIsland = hIsland.sub(rect(6.401853600342001e-09, -1.200710047146522e-09).transl(1.4465959550217729e-09, 4e-08, 0))
hIsland = hIsland.add(rect(5.498644957569977e-09, 2.709801580269502e-09).transl(5.587755361828962e-08, 3.7358596584545604e-08, 0))
hIsland = hIsland.add(rect(9.767431638686739e-09, 2.0613607323272108e-09).transl(2.2052991302529582e-08, 4e-08, 0))
hIsland = hIsland.sub(rect(9.579488603995427e-09, -2.042761154722303e-10).transl(1.6204261139782775e-08, 4e-08, 0))
hIsland = hIsland.add(rect(4.3141149617648815e-09, 2.0152461616762347e-09).transl(-7.722730266827718e-08, 3.2312859915830516e-08, 0))
hIsland = hIsland.sub(rect(6.158732662594305e-09, -8.130680003951697e-10).transl(-1.0475931493735707e-07, 1.8340480813736286e-08, 0))
hIsland = hIsland.sub(rect(5.305500741363479e-09, -1.634933384860936e-09).transl(4.760184755837429e-08, 3.854329825778737e-08, 0))
hIsland = hIsland.add(rect(5.731724057306728e-09, 4.54241733338388e-09).transl(5.4977386727097265e-08, 3.750600894038489e-08, 0))
hIsland = hIsland.add(rect(8.270662742573787e-09, 2.399153244180938e-09).transl(6.428723702604117e-08, 3.574580509647766e-08, 0))
hIsland = hIsland.sub(rect(7.703105775646322e-09, -1.5105527355186962e-09).transl(-8.687267396198344e-09, 4e-08, 0))
hIsland = hIsland.add(rect(3.5774129535191143e-09, 4.475419722184953e-09).transl(-6.786000319561927e-08, 3.492249077142617e-08, 0))
hIsland = hIsland.add(rect(5.179329802649843e-09, 1.879175822212406e-10).transl(4.220457885774326e-08, 3.9118800567316314e-08, 0))
hIsland = hIsland.add(rect(3.474460957919841e-09, 1.268203399581359e-09).transl(-9.830991300759646e-08, 2.297535871923555e-08, 0))
hIsland = hIsland.sub(rect(9.321715143492764e-09, -4.0543143966222936e-09).transl(1.1043593913951979e-07, 1.2442355149314064e-08, 0))
hIsland = hIsland.add(rect(6.961112383407786e-09, 2.692985279886813e-09).transl(6.890403708733767e-08, 3.466507146121332e-08, 0))
hIsland = hIsland.add(rect(7.130798695529097e-09, 1.505811496692135e-10).transl(-7.772459010564278e-08, 3.215398689003075e-08, 0))
hIsland = hIsland.add(rect(5.447339604335672e-09, 2.809766739610553e-09).transl(6.814419765852408e-08, 3.485319310366529e-08, 0))
hIsland = hIsland.add(rect(4.643462904370824e-09, 2.356568554247731e-09).transl(-6.7715481760916e-08, 3.4957510506482163e-08, 0))
hIsland = hIsland.add(rect(7.870169143083133e-09, 1.9639671178681572e-09).transl(-9.856482890262937e-08, 2.2816588636284343e-08, 0))
hIsland = hIsland.sub(rect(5.889211868194755e-09, -3.778708942721155e-10).transl(-2.7005744467715627e-08, 3.9962066160385945e-08, 0))
hIsland = hIsland.add(rect(5.0091596529078434e-09, 1.3821368420014474e-09).transl(-5.927329483562454e-08, 3.675970116613832e-08, 0))
hIsland = hIsland.add(rect(6.0109418478756675e-09, 4.513855403429661e-09).transl(-9.81667560357589e-08, 2.3063808861884124e-08, 0))
hIsland = hIsland.sub(rect(4.021906961091152e-09, -8.280498474826787e-10).transl(7.115052705430739e-08, 3.4084091340298916e-08, 0))
hIsland = hIsland.add(rect(8.261790678329341e-09, 1.1555961132792918e-09).transl(-4.9579532640146627e-08, 3.829427505281536e-08, 0))
hIsland = hIsland.add(rect(5.791911101707648e-09, 5.907118836380468e-10).transl(-8.09789257746632e-08, 3.1057128182868516e-08, 0))
hIsland = hIsland.add(rect(4.410514096174281e-09, 3.967741419216723e-09).transl(9.657458568231514e-08, 2.4014725876384593e-08, 0))
hIsland = hIsland.add(rect(4.7914235732262504e-09, 4.773823095520745e-09).transl(-7.441044596082853e-08, 3.317185031511933e-08, 0))
hIsland = hIsland.add(rect(3.646707262647791e-09, 4.682940104910078e-09).transl(9.831670472270765e-08, 2.2971149776683978e-08, 0))
hIsland = hIsland.sub(rect(5.332109820804016e-09, -4.473108198971502e-10).transl(7.871529284531922e-08, 3.1830737790259784e-08, 0))
hIsland = hIsland.add(rect(4.313883398539598e-09, 7.885671318708625e-10).transl(9.233893547022864e-08, 2.6289474874893016e-08, 0))
hIsland = hIsland.add(rect(2.2851172514313376e-09, 8.689002215027862e-10).transl(-7.67900998503156e-08, 3.245070467715702e-08, 0))
hIsland = hIsland.add(rect(4.0386196173627255e-09, 1.3518919614126988e-09).transl(-8.045211849232868e-08, 3.1241646386668035e-08, 0))
hIsland = hIsland.add(rect(2.316125135074234e-09, 2.893841691378201e-09).transl(-2.1151958212203045e-08, 4e-08, 0))
hIsland = hIsland.sub(rect(9.653752409930221e-09, -2.4756889294659103e-09).transl(-7.585827033300326e-08, 3.2738880007712315e-08, 0))
hIsland = hIsland.sub(rect(5.55772739415043e-09, -2.4939677151174006e-09).transl(-5.1522690507650236e-08, 3.802908081903132e-08, 0))
hIsland = hIsland.sub(rect(6.161995503885376e-09, -1.918453886020085e-09).transl(-7.433643116148409e-08, 3.3193511891374744e-08, 0))
hIsland = hIsland.add(rect(5.715225085633462e-09, 2.2629092056494977e-09).transl(-9.122205729187829e-08, 2.683616503970905e-08, 0))
hIsland = hIsland.sub(rect(8.607844199873402e-09, -1.502331893735651e-10).transl(-2.2688551579165314e-08, 4e-08, 0))
hIsland = hIsland.sub(rect(4.371135565635514e-09, -2.8267757060632388e-09).transl(6.140719612819204e-08, 3.6347637001720035e-08, 0))
hIsland = hIsland.add(rect(6.205975320534543e-09, 1.2299042503148898e-09).transl(7.389546998411641e-09, 4e-08, 0))
hIsland = hIsland.add(rect(4.380181788007597e-09, 8.208360514164136e-10).transl(-5.621958314796725e-08, 3.7301356157214336e-08, 0))
hIsland = hIsland.add(rect(4.679388510773936e-09, 8.979685088858895e-10).transl(-6.205831883587435e-08, 3.6216237075702317e-08, 0))
vIsland = hIsland.rotz(pi / 2)
hIslands = hIslands.add(hIsland.transl(-a/2, a, 0))
hIsland = rect(islandLength-2*ellipseConstant, islandWidth)
hIsland = hIsland.add(ellipse(ellipseConstant*2, islandWidth).transl(islandLength/2-ellipseConstant, 0, 0))
hIsland = hIsland.add(ellipse(ellipseConstant*2, islandWidth).transl(-islandLength/2+ellipseConstant, 0, 0))
hIsland = hIsland.sub(rect(8.337180455909326e-09, -2.948031739451692e-09).transl(-8.16276311516647e-08, -3.0826058948734313e-08, 0))
hIsland = hIsland.add(rect(6.601948118519462e-09, 3.819114524638372e-09).transl(-1.7390154450981347e-08, -4e-08, 0))
hIsland = hIsland.sub(rect(4.360904916513874e-09, -3.0107565123112092e-09).transl(-6.653511771623388e-08, -3.5238033471201485e-08, 0))
hIsland = hIsland.sub(rect(2.6623160934185358e-09, -1.7235797911938216e-09).transl(1.0841308253437886e-08, -4e-08, 0))
hIsland = hIsland.sub(rect(4.238957894342969e-09, -1.4754034697658277e-09).transl(-5.585221013128343e-08, -3.736281090663536e-08, 0))
hIsland = hIsland.sub(rect(8.535514729615293e-09, -6.801906200651776e-10).transl(-7.490211571223955e-08, -3.302679894999546e-08, 0))
hIsland = hIsland.add(rect(8.560392034291824e-09, 1.563965439158463e-09).transl(-9.740504696724344e-08, -2.3526074444977104e-08, 0))
hIsland = hIsland.add(rect(6.482536997699688e-09, 8.176230063372705e-10).transl(6.348070734572662e-08, -3.5919760222479003e-08, 0))
hIsland = hIsland.add(rect(6.495735120143986e-09, 1.429341425563388e-09).transl(-1.1039304047119949e-07, -1.2499198289596947e-08, 0))
hIsland = hIsland.add(rect(6.6132686124131055e-09, 2.078082307971892e-09).transl(2.303563872407098e-08, -3.999999699877434e-08, 0))
hIsland = hIsland.add(rect(3.2107921492792334e-09, 1.0261288019325258e-09).transl(-3.752202825038223e-08, -3.949853601052195e-08, 0))
hIsland = hIsland.sub(rect(8.04228485351371e-09, -1.6254539779522655e-09).transl(-1.012425246567583e-07, -2.1041444994011817e-08, 0))
hIsland = hIsland.add(rect(2.0138567134454607e-09, 5.353041458981045e-13).transl(-9.590999503582875e-08, -2.4394879315923155e-08, 0))
hIsland = hIsland.add(rect(6.904331022449833e-09, 1.6845308055330812e-09).transl(-4.145661193502338e-08, -3.9186803544050273e-08, 0))
hIsland = hIsland.add(rect(5.50856982819443e-09, 5.823511020210259e-10).transl(9.382620476977762e-08, -2.5528992073283938e-08, 0))
hIsland = hIsland.sub(rect(9.321764925920565e-09, -6.470344165786688e-10).transl(-6.924440793141916e-09, -4e-08, 0))
hIsland = hIsland.sub(rect(3.161123768763032e-09, -1.5060732702087044e-10).transl(-7.128746463247316e-08, -3.40474503745452e-08, 0))
hIsland = hIsland.add(rect(3.15885309203402e-09, 1.9496620847457794e-09).transl(1.0548860128204657e-07, -1.7712419459945502e-08, 0))
hIsland = hIsland.sub(rect(7.730295510686181e-09, -5.038982567620267e-09).transl(1.019857160720729e-07, -2.0509837450504168e-08, 0))
hIsland = hIsland.add(rect(7.376567351276409e-09, 1.7011670984107798e-09).transl(8.579280571868126e-08, -2.923428455068057e-08, 0))
hIsland = hIsland.sub(rect(4.63728611151689e-09, -1.6181510735306685e-09).transl(4.185676968025209e-09, -4e-08, 0))
hIsland = hIsland.sub(rect(9.434684519059696e-09, -4.101396163544674e-10).transl(1.1115628080770918e-07, -1.1441229412243173e-08, 0))
hIsland = hIsland.sub(rect(5.68203354787771e-09, -2.865587446782504e-09).transl(5.261115621807949e-08, -3.7871485568612544e-08, 0))
hIsland = hIsland.add(rect(4.882321665479461e-09, 4.2632538733894985e-09).transl(4.339876629381159e-09, -4e-08, 0))
hIsland = hIsland.sub(rect(7.506765981900217e-09, -1.2292073865265655e-09).transl(9.75860577878448e-08, -2.3417473577360264e-08, 0))
hIsland = hIsland.sub(rect(8.415423877045848e-09, -1.0824619066255343e-09).transl(-8.140867299603963e-08, -3.0904532916556e-08, 0))
hIsland = hIsland.sub(rect(4.926592089614434e-09, -5.266500714450544e-09).transl(-1.2637041151763144e-08, -4e-08, 0))
hIsland = hIsland.add(rect(6.750439184229314e-09, 1.4494788422106299e-09).transl(-4.4194024783258976e-08, -3.892412597464094e-08, 0))
hIsland = hIsland.sub(rect(9.204350811295861e-09, -7.228107456397648e-10).transl(9.697120445380349e-08, -2.3783287931058762e-08, 0))
hIsland = hIsland.add(rect(2.0384737789948603e-09, 2.2724313235175072e-09).transl(9.734728828111223e-08, -2.3560567186154644e-08, 0))
hIsland = hIsland.sub(rect(6.115054451829423e-09, -2.65374506282049e-10).transl(1.900163059999397e-08, -4e-08, 0))
hIsland = hIsland.sub(rect(3.370539084393893e-09, -1.190472740171574e-09).transl(-5.6630325659942784e-08, -3.723171503113926e-08, 0))
hIsland = hIsland.sub(rect(5.195484457854207e-09, -2.9937138086491134e-10).transl(7.876351091981918e-08, -3.181477243014167e-08, 0))
hIsland = hIsland.add(rect(7.889915450485992e-09, 5.437067253709458e-09).transl(3.641358515127426e-08, -3.957256437612258e-08, 0))
hIsland = hIsland.add(rect(7.200678340591129e-09, 1.6816789216698484e-09).transl(7.025961182285703e-08, -3.431900026071102e-08, 0))
hIsland = hIsland.add(rect(9.311342063965385e-09, 1.026772738059546e-09).transl(-3.223823900715295e-08, -3.979782303525301e-08, 0))
hIsland = hIsland.sub(rect(4.0322644477064665e-09, -4.205519141017173e-09).transl(5.6091922739309076e-08, -3.732280036533565e-08, 0))
hIsland = hIsland.sub(rect(7.530033141625442e-09, -1.9966721819227798e-09).transl(7.122263412400583e-08, -3.406481523067257e-08, 0))
hIsland = hIsland.add(rect(7.3680988420755935e-09, 2.419624118436314e-09).transl(2.985147900915771e-08, -3.988892241529135e-08, 0))
hIsland = hIsland.sub(rect(3.038516127129351e-09, -9.643803375176411e-10).transl(1.299303696108653e-08, -4e-08, 0))
hIsland = hIsland.add(rect(2.1171187095173886e-09, 1.7213187594403193e-09).transl(-1.0524721645584137e-08, -4e-08, 0))
hIsland = hIsland.add(rect(6.129607820999333e-09, 2.409230393294635e-10).transl(-7.128631353331557e-08, -3.4047758977249066e-08, 0))
hIsland = hIsland.add(rect(2.589734678839034e-09, 1.6485670242232795e-10).transl(-2.3299207963237595e-08, -3.999978845547732e-08, 0))
hIsland = hIsland.sub(rect(3.3515560378219016e-09, -8.250029297321545e-10).transl(4.7280722241936044e-08, -3.858177314214643e-08, 0))
hIsland = hIsland.add(rect(8.913204002960705e-09, 2.752269220279568e-09).transl(3.105724830663462e-08, -3.9846303843703875e-08, 0))
hIsland = hIsland.add(rect(9.781840065835245e-09, 3.930739353748969e-10).transl(-7.88297130722604e-08, -3.1792816829296904e-08, 0))
hIsland = hIsland.add(rect(4.855819852891575e-09, 1.3672622284910248e-09).transl(-6.502049449314655e-08, -3.5583916745028173e-08, 0))
hIsland = hIsland.sub(rect(5.0003132941978035e-09, -4.260559567355653e-09).transl(-5.8135328673659335e-08, -3.696805108904315e-08, 0))
hIsland = hIsland.add(rect(9.267341960324192e-09, 1.7473490024716854e-09).transl(3.9939681318584265e-08, -3.931609865902903e-08, 0))
hIsland = hIsland.add(rect(2.6702634782226594e-09, 6.263321305305386e-10).transl(1.2120678049720228e-08, -4e-08, 0))
hIsland = hIsland.sub(rect(7.454669622297775e-09, -2.6237399176285534e-09).transl(-4.854303042635372e-08, -3.8427388617519724e-08, 0))
hIsland = hIsland.add(rect(6.179632734338245e-09, 1.7129163332396451e-09).transl(-6.074143179808532e-08, -3.6479230763471525e-08, 0))
hIsland = hIsland.add(rect(4.715423669826286e-09, 1.2536739579641002e-09).transl(5.6171598972824334e-08, -3.7309427599783183e-08, 0))
hIsland = hIsland.sub(rect(5.919818828048843e-09, -7.710007096184744e-10).transl(7.739692784073869e-08, -3.225891896566821e-08, 0))
hIsland = hIsland.sub(rect(7.604654408448915e-09, -1.999186910286689e-09).transl(2.2616811561216237e-08, -4e-08, 0))
hIsland = hIsland.add(rect(3.4993418042253074e-09, 2.038137230112432e-10).transl(1.2756981953334388e-08, -4e-08, 0))
hIsland = hIsland.sub(rect(4.048456346772887e-09, -1.4256347641855892e-09).transl(-6.515832514020634e-08, -3.555308505027634e-08, 0))
hIsland = hIsland.add(rect(3.720133983606795e-09, 2.627605409208732e-10).transl(9.304440475221926e-08, -2.5933539322607282e-08, 0))
hIsland = hIsland.add(rect(6.480010349885116e-09, 1.6391441174692377e-09).transl(1.0612398716006404e-09, -4e-08, 0))
hIsland = hIsland.add(rect(3.3557809679118088e-09, 4.370840209465144e-09).transl(9.356703028434246e-08, -2.566430898247521e-08, 0))
hIsland = hIsland.sub(rect(5.335120433326597e-09, -2.40253114670712e-09).transl(5.6255338630807014e-08, -3.729533298531989e-08, 0))
hIsland = hIsland.sub(rect(3.1493303042187535e-09, -1.8027850606995345e-10).transl(1.583898846242948e-08, -4e-08, 0))
hIsland = hIsland.sub(rect(7.645873878833622e-09, -1.4549659231964747e-09).transl(-7.004084478434203e-08, -3.4375769926350514e-08, 0))
hIsland = hIsland.sub(rect(9.911323463502147e-09, -9.018041559973411e-10).transl(9.037252257011995e-09, -4e-08, 0))
hIsland = hIsland.add(rect(5.49277136772327e-09, 1.0103900120337086e-09).transl(2.6248010533984626e-08, -3.9975064126325104e-08, 0))
hIsland = hIsland.sub(rect(6.519414737490008e-09, -6.486012773386272e-10).transl(-3.768639444980782e-08, -3.948704608739269e-08, 0))
hIsland = hIsland.add(rect(3.5437765056383166e-09, 3.65100644457886e-09).transl(1.1037728648271057e-07, -1.2520001441310658e-08, 0))
hIsland = hIsland.add(rect(9.932533013050209e-09, 1.2412237843872618e-09).transl(-1.1120588345448991e-07, -1.1368730736796178e-08, 0))
hIsland = hIsland.sub(rect(8.230995418064048e-09, -3.0445262467196474e-09).transl(-2.5021553335865204e-11, -4e-08, 0))
hIsland = hIsland.add(rect(9.085628566255974e-09, 6.00022117266083e-10).transl(-2.4370036284401858e-08, -3.999556450024993e-08, 0))
hIsland = hIsland.sub(rect(3.648458216892067e-09, -1.0180719100218856e-09).transl(7.095684759549555e-08, -3.413567051699833e-08, 0))
hIsland = hIsland.sub(rect(3.1197467141330474e-09, -1.3085566925740978e-09).transl(-4.303000443575996e-08, -3.9040473696495723e-08, 0))
hIsland = hIsland.add(rect(7.470209951075092e-09, 3.7296901170327885e-09).transl(3.853755190160761e-08, -3.942542068275568e-08, 0))
hIsland = hIsland.sub(rect(3.0246244181457168e-09, -2.560880783991811e-09).transl(-4.421187100490364e-08, -3.8922288259306076e-08, 0))
hIsland = hIsland.sub(rect(6.255829880709865e-09, -5.025407019341093e-10).transl(-3.518874554268607e-08, -3.964739311877251e-08, 0))
hIsland = hIsland.add(rect(6.817135935792788e-09, 2.0591439935252855e-09).transl(-5.2987996548561615e-08, -3.781539094903361e-08, 0))
hIsland = hIsland.sub(rect(5.3430051480696e-09, -1.2404409225248752e-09).transl(6.93269507478037e-08, -3.455855455173453e-08, 0))
hIsland = hIsland.add(rect(3.741554622041016e-09, 5.409703378012019e-10).transl(4.104790330018141e-08, -3.9222773144815016e-08, 0))
hIsland = hIsland.sub(rect(6.089457181121287e-09, -6.57358544878613e-10).transl(1.22193717000545e-08, -4e-08, 0))
hIsland = hIsland.sub(rect(4.644430534253803e-09, -2.258714035667267e-09).transl(2.3768109001005987e-08, -3.999860585605088e-08, 0))
hIsland = hIsland.sub(rect(9.210495157559674e-09, -1.5387254227931786e-09).transl(-2.3450041301327555e-09, -4e-08, 0))
hIsland = hIsland.sub(rect(9.129322403945855e-09, -9.245720773777268e-10).transl(8.182275515187625e-08, -3.075571004922235e-08, 0))
hIsland = hIsland.add(rect(8.354331744600584e-09, 2.0760588586039175e-10).transl(6.387401659650324e-08, -3.583546407270327e-08, 0))
hIsland = hIsland.sub(rect(2.6974466978614604e-09, -2.2741647487463195e-09).transl(1.0600677387784142e-07, -1.724873897690944e-08, 0))
hIsland = hIsland.sub(rect(9.836710906104973e-09, -5.2996490492752096e-09).transl(4.6259766691710044e-08, -3.8700496163462174e-08, 0))
hIsland = hIsland.sub(rect(8.267790523996471e-09, -6.882978744460625e-10).transl(-3.114313291275556e-08, -3.984300330492633e-08, 0))
hIsland = hIsland.add(rect(4.936191792655871e-09, 1.1143517602621378e-09).transl(-3.093731640258253e-08, -3.985085381491767e-08, 0))
hIsland = hIsland.sub(rect(6.572069811958957e-09, -1.8056989953369043e-09).transl(4.676052755338466e-08, -3.864294732735307e-08, 0))
hIsland = hIsland.add(rect(6.50637407563197e-09, 3.3207176733882156e-09).transl(-4.10203296278901e-08, -3.922516967136159e-08, 0))
hIsland = hIsland.add(rect(6.560037325533375e-09, 2.8516031698193497e-10).transl(-7.009737258872413e-08, -3.436113527297124e-08, 0))
hIsland = hIsland.add(rect(8.71771099793796e-09, 8.714726929509541e-10).transl(-7.952292634956268e-08, -3.156042243159704e-08, 0))
hIsland = hIsland.sub(rect(2.5073672249688378e-09, -1.977878322643591e-09).transl(1.9611151468757477e-08, -4e-08, 0))
hIsland = hIsland.sub(rect(6.902135645041725e-09, -3.953238915107918e-09).transl(7.233388985598086e-08, -3.376267475136326e-08, 0))
hIsland = hIsland.add(rect(7.539243823595313e-09, 7.693430357390627e-10).transl(7.315079712503339e-08, -3.353438984128342e-08, 0))
hIsland = hIsland.sub(rect(8.446583530350755e-09, -7.488256955246876e-10).transl(-1.0330455816827193e-08, -4e-08, 0))
hIsland = hIsland.add(rect(7.64012084187214e-09, 4.905257627724165e-09).transl(2.3917849177727654e-08, -3.999800929093357e-08, 0))
hIsland = hIsland.add(rect(4.125715689447651e-09, 1.0094653739624913e-09).transl(7.918147853716668e-08, -3.1675461659429267e-08, 0))
hIsland = hIsland.sub(rect(2.1262410281719364e-09, -6.584197603198274e-11).transl(1.0369711570902642e-07, -1.9209203037387302e-08, 0))
hIsland = hIsland.sub(rect(6.888864664152289e-09, -2.3374651121207576e-09).transl(-3.189462367554209e-08, -3.981261797511221e-08, 0))
hIsland = hIsland.add(rect(5.890591015653889e-09, 3.721071878769397e-10).transl(-7.058267677583708e-08, -3.4234510028749454e-08, 0))
hIsland = hIsland.add(rect(6.977656632812439e-09, 4.225376031961386e-10).transl(7.223983489065601e-08, -3.378861974371596e-08, 0))
hIsland = hIsland.add(rect(9.390900362200348e-09, 1.1312161630298881e-09).transl(5.803672310914224e-08, -3.698573789850155e-08, 0))
hIsland = hIsland.sub(rect(3.92810545882111e-09, -2.101957226968941e-09).transl(2.463316288145344e-08, -3.9993696996319205e-08, 0))
hIsland = hIsland.sub(rect(4.756344697019718e-09, -3.313221858921489e-10).transl(-3.713560650426976e-08, -3.952502647818731e-08, 0))
hIsland = hIsland.sub(rect(6.502151978444071e-09, -4.698860102072885e-10).transl(2.8902157490274254e-08, -3.9917600708287043e-08, 0))
hIsland = hIsland.add(rect(9.460818833034807e-09, 1.3002330532150621e-09).transl(5.5929521030168675e-08, -3.734994336440079e-08, 0))
hIsland = hIsland.add(rect(9.853689120214412e-09, 1.3523268848124053e-09).transl(6.84424691540555e-09, -4e-08, 0))
hIsland = hIsland.add(rect(6.89574163674806e-09, 3.6771682072199437e-09).transl(5.016674517083077e-08, -3.8216298042490037e-08, 0))
hIsland = hIsland.add(rect(8.977619678155502e-09, 6.4541776943111305e-09).transl(-1.3956496277867235e-08, -4e-08, 0))
hIsland = hIsland.add(rect(9.403046541233411e-09, 3.638544938350765e-10).transl(-7.520329871028372e-08, -3.293694383428282e-08, 0))
hIsland = hIsland.add(rect(2.649223809744619e-09, 1.4372296397635923e-09).transl(-7.061958442291826e-09, -4e-08, 0))
hIsland = hIsland.sub(rect(5.671355516104746e-09, -2.5373157513144388e-09).transl(-6.985661357056366e-08, -3.442330112908413e-08, 0))
hIsland = hIsland.add(rect(4.939503976237923e-09, 1.5927488772212566e-09).transl(-7.466830442006016e-08, -3.309602891774187e-08, 0))
hIsland = hIsland.sub(rect(4.16526377369784e-09, -1.323335097327704e-10).transl(1.1709386429785272e-08, -4e-08, 0))
hIsland = hIsland.sub(rect(8.351889677102804e-09, -1.1672217764280342e-09).transl(-1.1043843145350014e-07, -1.2439043849914894e-08, 0))
hIsland = hIsland.add(rect(8.36908304140182e-09, 4.247464519183982e-10).transl(-6.154747356816097e-08, -3.6319554954864987e-08, 0))
hIsland = hIsland.sub(rect(9.205358887073945e-09, -2.4856962115407956e-10).transl(-1.485479431521593e-08, -4e-08, 0))
hIsland = hIsland.sub(rect(4.7159158080847495e-09, -3.9428879142722697e-10).transl(6.448276211851147e-08, -3.5702987243551914e-08, 0))
hIsland = hIsland.add(rect(4.9288248939722425e-09, 8.786076779289319e-10).transl(1.486424516065148e-08, -4e-08, 0))
hIsland = hIsland.add(rect(7.650335553425096e-09, 5.895782927888465e-10).transl(-8.582263186518785e-08, -2.9222168752562323e-08, 0))
hIsland = hIsland.sub(rect(5.397502695535542e-09, -1.0354497851901026e-09).transl(-1.0829376902443498e-07, -1.4991950994869813e-08, 0))
hIsland = hIsland.sub(rect(7.827147804896076e-09, -3.268090074306908e-09).transl(3.3698687952107536e-08, -3.972861167061782e-08, 0))
hIsland = hIsland.sub(rect(4.6102721080079085e-09, -1.2760093365806924e-09).transl(4.7141789404578764e-08, -3.859825065417313e-08, 0))
hIsland = hIsland.sub(rect(9.133932577414807e-09, -2.380071345067042e-10).transl(-1.2852832140146037e-08, -4e-08, 0))
hIsland = hIsland.sub(rect(4.9097096145688756e-09, -5.234529571815383e-10).transl(-3.326417361183983e-08, -3.9750276098638116e-08, 0))
hIsland = hIsland.sub(rect(6.966969380357212e-09, -2.9195605300672683e-09).transl(-4.589984684763862e-08, -3.8741050590080724e-08, 0))
hIsland = hIsland.sub(rect(4.86014420135647e-09, -4.3627746695258664e-09).transl(-7.034923172364093e-08, -3.429564075089367e-08, 0))
hIsland = hIsland.add(rect(4.92673578991261e-09, 5.222867284947371e-10).transl(-1.82316531777609e-08, -4e-08, 0))
hIsland = hIsland.add(rect(3.5114923545893798e-09, 1.851905323508609e-09).transl(-7.242370563252454e-08, -3.373783424658733e-08, 0))
hIsland = hIsland.sub(rect(7.78632475916601e-09, -2.553082850506328e-10).transl(-7.581044526555273e-09, -4e-08, 0))
hIsland = hIsland.add(rect(2.553320675100335e-09, 6.874426681852862e-10).transl(-6.488432553337304e-08, -3.5614251503226265e-08, 0))
hIsland = hIsland.add(rect(2.3576521698817284e-09, 2.1175844635165694e-11).transl(-5.580507120519982e-08, -3.737063964669804e-08, 0))
hIsland = hIsland.sub(rect(6.047283966283299e-09, -7.834289229846666e-10).transl(-2.3878607552476554e-08, -3.999817587704786e-08, 0))
hIsland = hIsland.add(rect(3.563840057169902e-09, 2.8179445237057904e-09).transl(-4.25364504288798e-08, -3.9087723319460064e-08, 0))
hIsland = hIsland.add(rect(8.496071877230006e-09, 4.837819634921078e-10).transl(3.0863470923429166e-08, -3.98536211660206e-08, 0))
hIsland = hIsland.sub(rect(8.153643428389764e-09, -4.7177541412337606e-09).transl(9.523038305204446e-08, -2.4774109008316354e-08, 0))
hIsland = hIsland.add(rect(9.678224410820761e-09, 2.0138995182206284e-09).transl(-8.042046794329012e-08, -3.125264408072693e-08, 0))
hIsland = hIsland.add(rect(2.7814282831624465e-09, 6.80348786966166e-10).transl(-1.1031390838536607e-07, -1.2603307712921947e-08, 0))
hIsland = hIsland.sub(rect(7.47650251610251e-09, -3.784071671201257e-09).transl(1.0975067382143613e-07, -1.3318269155347878e-08, 0))
hIsland = hIsland.add(rect(9.577228331027151e-09, 4.2127555933438496e-13).transl(9.731129873191139e-09, -4e-08, 0))
hIsland = hIsland.sub(rect(6.543322844183616e-09, -6.996039630684856e-10).transl(4.950300288386763e-08, -3.830430054317198e-08, 0))
hIsland = hIsland.add(rect(9.525295740876023e-09, 1.4562826839455412e-10).transl(-1.5500239418825585e-08, -4e-08, 0))
hIsland = hIsland.add(rect(5.176407258127533e-09, 4.7509772280111356e-09).transl(9.87314300079234e-08, -2.271193197957412e-08, 0))
hIsland = hIsland.sub(rect(6.652876699727759e-09, -1.0349693786696214e-09).transl(-6.083356755807024e-08, -3.646118470044169e-08, 0))
hIsland = hIsland.add(rect(6.417945291106307e-09, 8.680552552364735e-10).transl(-2.4727959712567253e-08, -3.99929439788663e-08, 0))
hIsland = hIsland.add(rect(4.517072348514559e-09, 1.0298273396043782e-09).transl(2.0015538975078948e-08, -4e-08, 0))
hIsland = hIsland.sub(rect(4.2335184327026645e-09, -1.4120430598237725e-09).transl(-8.901101076638808e-08, -2.78618874915813e-08, 0))
hIsland = hIsland.sub(rect(4.833076393921148e-09, -1.286166446200813e-09).transl(-1.0413236012132179e-07, -1.885944499773823e-08, 0))
hIsland = hIsland.add(rect(2.229230689131797e-09, 5.493603274512138e-10).transl(-1.6625096439223094e-08, -4e-08, 0))
hIsland = hIsland.add(rect(3.802777011919969e-09, 2.3159143172634466e-10).transl(3.380346366268492e-08, -3.972325144861764e-08, 0))
hIsland = hIsland.sub(rect(2.1763298479051e-09, -2.471555256696382e-09).transl(-5.700389317533117e-09, -4e-08, 0))
hIsland = hIsland.add(rect(3.5240792248618346e-09, 3.811924576630857e-11).transl(1.8775255039026123e-08, -4e-08, 0))
hIsland = hIsland.add(rect(5.445983028416289e-09, 1.716630121788898e-10).transl(-3.0252553790367574e-08, -3.987551627749244e-08, 0))
hIsland = hIsland.add(rect(6.2883632324645285e-09, 1.190586734917851e-09).transl(-1.1148634534627485e-07, -1.0948985393428776e-08, 0))
hIsland = hIsland.add(rect(6.81660490747669e-09, 5.22700351814922e-10).transl(-1.9205490557882087e-08, -4e-08, 0))
hIsland = hIsland.sub(rect(9.318965811728213e-09, -2.723369824824607e-10).transl(-7.490169872804508e-09, -4e-08, 0))
hIsland = hIsland.add(rect(4.608166831841551e-09, 2.9463141467454e-09).transl(-6.757132288871882e-08, -3.499229506320054e-08, 0))
hIsland = hIsland.add(rect(2.2425785258447163e-09, 2.097463761897153e-10).transl(5.2702364875042515e-08, -3.785798135822642e-08, 0))
hIsland = hIsland.add(rect(8.785013388986141e-09, 8.901870541493818e-10).transl(8.043730901829322e-08, -3.124679350728908e-08, 0))
hIsland = hIsland.add(rect(5.097077491933618e-09, 5.0145423941746735e-09).transl(-4.607803047504301e-08, -3.872105787729295e-08, 0))
hIsland = hIsland.add(rect(9.18071977463511e-09, 1.4470293844901844e-09).transl(9.180734680686048e-08, -2.655218859825605e-08, 0))
hIsland = hIsland.sub(rect(5.474284225673691e-09, -1.3510960017243194e-10).transl(5.2504385722722655e-09, -4e-08, 0))
hIsland = hIsland.add(rect(2.4176134626660283e-09, 3.5997191844850412e-09).transl(2.073694237567225e-08, -4e-08, 0))
hIsland = hIsland.add(rect(4.2236357921669206e-09, 2.5006039484094295e-09).transl(-1.0266921449169127e-07, -2.0003857200247187e-08, 0))
hIsland = hIsland.sub(rect(6.347936583902944e-09, -6.256027199718491e-10).transl(5.465341770764977e-08, -3.755792287123597e-08, 0))
hIsland = hIsland.sub(rect(8.547569989364247e-09, -6.623862569590516e-10).transl(6.286220951382214e-08, -3.6050280610210044e-08, 0))
hIsland = hIsland.sub(rect(4.140225477125848e-09, -1.3205762314325041e-09).transl(1.1147028775131162e-08, -4e-08, 0))
hIsland = hIsland.sub(rect(9.149985402334062e-09, -1.5656525788052596e-09).transl(-8.424672825580895e-08, -2.984787605036856e-08, 0))
hIsland = hIsland.add(rect(4.678321646909878e-09, 8.708202183723844e-10).transl(7.853949957519588e-08, -3.188875982539407e-08, 0))
hIsland = hIsland.sub(rect(7.699461425541284e-09, -3.5691768332102954e-09).transl(-9.439836814673764e-08, -2.5225909453322873e-08, 0))
hIsland = hIsland.add(rect(3.107328347181339e-09, 3.9614835291775914e-11).transl(-9.153309367815324e-08, -2.668593177690806e-08, 0))
hIsland = hIsland.add(rect(3.1158949984312772e-09, 2.291147642448897e-09).transl(-4.206045412044373e-08, -3.913212336627779e-08, 0))
hIsland = hIsland.sub(rect(5.086487060201506e-09, -1.4447519780254392e-09).transl(-1.0363502847371179e-07, -1.9258426496564333e-08, 0))
hIsland = hIsland.sub(rect(8.941582359671103e-09, -4.654207989922503e-09).transl(-7.375522280405317e-08, -3.336204378656127e-08, 0))
hIsland = hIsland.add(rect(4.83440541768514e-09, 1.7692294548764062e-09).transl(7.45151320842104e-08, -3.314113477318077e-08, 0))
hIsland = hIsland.sub(rect(9.510233350836898e-09, -8.882465973011038e-10).transl(3.4687140159283914e-08, -3.967593384942158e-08, 0))
hIsland = hIsland.sub(rect(2.307602945530209e-09, -4.753308727059438e-09).transl(-8.630754380577283e-08, -2.9023668384923154e-08, 0))
hIsland = hIsland.add(rect(7.816863051027759e-09, 4.5865546810259365e-10).transl(5.850572285967741e-08, -3.690109307301511e-08, 0))
hIsland = hIsland.sub(rect(4.890700839107121e-09, -3.0131520856769768e-09).transl(4.744516766728624e-08, -3.856213844313876e-08, 0))
hIsland = hIsland.add(rect(6.306675793041343e-09, 1.0012676426808965e-09).transl(3.946303656518915e-08, -3.935435551650803e-08, 0))
hIsland = hIsland.sub(rect(4.940445593653267e-09, -5.184076845458571e-10).transl(-9.706571786548831e-08, -2.3727618793001327e-08, 0))
hIsland = hIsland.sub(rect(2.197146343719851e-09, -1.799330397235943e-09).transl(-7.63581504989313e-08, -3.2585231486474164e-08, 0))
hIsland = hIsland.sub(rect(9.996560639115719e-09, -3.1132950419973176e-09).transl(-3.145554886801827e-08, -3.9830699593668804e-08, 0))
hIsland = hIsland.sub(rect(4.971852180183352e-09, -2.6990332210877023e-10).transl(1.077801823351717e-07, -1.5532882878372584e-08, 0))
hIsland = hIsland.add(rect(6.192837098418843e-09, 4.5709843981388445e-10).transl(-8.822954103939356e-08, -2.82076655570715e-08, 0))
hIsland = hIsland.sub(rect(3.0660610143728483e-09, -1.1347201821745722e-09).transl(2.5304259246844736e-08, -3.9987451692721756e-08, 0))
hIsland = hIsland.sub(rect(2.0722255087343033e-09, -8.214689878686417e-10).transl(-4.8525511794689746e-08, -3.8429589083547e-08, 0))
hIsland = hIsland.sub(rect(8.737218300545151e-09, -7.242021905502934e-10).transl(7.275451883398887e-08, -3.364579159677451e-08, 0))
hIsland = hIsland.sub(rect(8.583863038197897e-09, -6.169937906008703e-10).transl(5.71595498069942e-08, -3.7140526978373396e-08, 0))
hIsland = hIsland.sub(rect(8.698286413573597e-09, -4.298973053514786e-09).transl(6.546540695514585e-08, -3.548393286963493e-08, 0))
hIsland = hIsland.add(rect(3.3340505324450853e-09, 3.6315921130995513e-10).transl(6.09092057428392e-08, -3.6446330327193714e-08, 0))
hIsland = hIsland.sub(rect(5.535993597428398e-09, -1.6665592067755322e-09).transl(3.8919723463956296e-08, -3.939658858124062e-08, 0))
hIsland = hIsland.sub(rect(6.626468146907038e-09, -3.018425991919947e-09).transl(-8.383908781634289e-09, -4e-08, 0))
hIsland = hIsland.add(rect(7.47825386670017e-09, 2.9269862328051684e-09).transl(-1.1014059710520188e-07, -1.2828049489861848e-08, 0))
hIsland = hIsland.sub(rect(6.716416349998872e-09, -1.0049139822250426e-09).transl(-8.782354350499821e-08, -2.8384039977017694e-08, 0))
hIsland = hIsland.sub(rect(9.50022269465651e-09, -9.241718174027224e-10).transl(-8.426061558383762e-08, -2.9842488133117984e-08, 0))
hIsland = hIsland.sub(rect(7.928233319070096e-09, -8.736623068233048e-10).transl(-8.849002591024913e-08, -2.8093337901653884e-08, 0))
hIsland = hIsland.sub(rect(4.829358412854138e-09, -3.209890765923606e-11).transl(1.6796715938793257e-08, -4e-08, 0))
hIsland = hIsland.sub(rect(5.420402781475305e-09, -1.0365983989778912e-09).transl(-2.0415265581892785e-08, -4e-08, 0))
hIsland = hIsland.add(rect(9.272576712247433e-09, 1.0482099573578851e-09).transl(1.823588682435924e-08, -4e-08, 0))
hIsland = hIsland.sub(rect(3.1939937718792283e-09, -2.4879956651758707e-09).transl(5.983978366136962e-08, 3.665305156456946e-08, 0))
hIsland = hIsland.add(rect(6.227171071210305e-09, 3.5867605616577797e-09).transl(7.905267021739337e-08, 3.171857035535414e-08, 0))
hIsland = hIsland.add(rect(5.042740406518309e-09, 4.682016505374043e-09).transl(3.6842453822760353e-08, 3.9544635048129405e-08, 0))
[...]
hIsland = hIsland.add(rect(7.161379215956428e-09, 1.3873724389585267e-09).transl(2.478044310432286e-10, 4e-08, 0))
hIsland = hIsland.add(rect(4.611515880222485e-09, 1.8385569607278937e-09).transl(1.0532843519028166e-08, 4e-08, 0))
hIsland = hIsland.sub(rect(9.440324221582748e-09, -1.6241357741386327e-09).transl(-1.2411599658530735e-08, 4e-08, 0))
hIsland = hIsland.add(rect(7.513383976214702e-09, 8.79020825363316e-10).transl(-1.1408889160111518e-07, 5.6154968349442075e-09, 0))
hIsland = hIsland.add(rect(7.957997750106234e-09, 1.2769148807981395e-09).transl(9.589732714559752e-08, 2.4402034743585842e-08, 0))
hIsland = hIsland.add(rect(3.937411861115261e-09, 2.484056356114855e-09).transl(-3.403863174797229e-08, 3.971102756931742e-08, 0))
hIsland = hIsland.sub(rect(5.76180828257419e-09, -4.631011420543894e-09).transl(3.5907029895656825e-08, 3.9604396700969384e-08, 0))
hIsland = hIsland.add(rect(5.005956228998331e-09, 9.334625968538867e-11).transl(-6.946320273352956e-08, 3.4523958946654284e-08, 0))
hIsland = hIsland.sub(rect(4.676407823343954e-09, -3.359517078707335e-09).transl(9.359792735985646e-08, 2.5648240864635638e-08, 0))
hIsland = hIsland.sub(rect(3.940623649073632e-09, -1.523873573907532e-09).transl(7.904009220240685e-09, 4e-08, 0))
hIsland = hIsland.add(rect(7.439060726508044e-09, 1.2363718988779623e-09).transl(1.120720930316988e-07, 1.0010979255900918e-08, 0))
hIsland = hIsland.sub(rect(6.50445105234288e-09, -2.7821230463820936e-09).transl(3.6475657869051716e-08, 3.9568577604554946e-08, 0))
hIsland = hIsland.sub(rect(5.2972789231814056e-09, -4.2552910262180846e-10).transl(-4.694862427160837e-08, 3.8620991470126724e-08, 0))
hIsland = hIsland.add(rect(3.3765942504989507e-09, 1.2468548718004098e-09).transl(-9.626367886291375e-08, 2.4193741318630066e-08, 0))
hIsland = hIsland.add(rect(7.903985439018296e-09, 1.172079069863222e-09).transl(-4.885628812066999e-08, 3.838776478001113e-08, 0))
hIsland = hIsland.sub(rect(4.415550676511346e-09, -1.2046427623308643e-09).transl(-9.173241455705605e-09, 4e-08, 0))
hIsland = hIsland.add(rect(8.526111536837822e-09, 1.4839950591421008e-09).transl(6.809371253833953e-08, 3.486554538661033e-08, 0))
hIsland = hIsland.sub(rect(3.068485165893039e-09, -1.2328891933964935e-09).transl(6.127644047205494e-08, 3.6373701276782845e-08, 0))
hIsland = hIsland.add(rect(6.46439001707858e-09, 9.494908738991749e-10).transl(-1.771866394343387e-08, 4e-08, 0))
hIsland = hIsland.sub(rect(3.505266332607016e-09, -5.318055959405662e-10).transl(5.917028205486003e-08, 3.67788843218586e-08, 0))
hIsland = hIsland.add(rect(4.601496300357904e-09, 4.3141900692771723e-10).transl(-5.579010109139107e-08, 3.737312315919394e-08, 0))
hIsland = hIsland.sub(rect(9.630140407123432e-09, -2.432886430818105e-09).transl(8.61186476133387e-08, 2.9101336289104738e-08, 0))
hIsland = hIsland.add(rect(7.518483480623245e-09, 2.5592974274542247e-09).transl(-7.900466304745818e-08, 3.1734596808252625e-08, 0))
hIsland = hIsland.add(rect(5.755024897271222e-09, 7.43199906152018e-10).transl(1.5227046856684798e-08, 4e-08, 0))
hIsland = hIsland.add(rect(3.500595522940893e-09, 3.4855733794282645e-09).transl(3.044963304980059e-08, 3.986864767666248e-08, 0))
hIsland = hIsland.sub(rect(8.578016810184884e-09, -1.1869322280358435e-09).transl(2.2096720654301194e-08, 4e-08, 0))
hIsland = hIsland.add(rect(3.3307859958308747e-09, 1.927728089670724e-09).transl(5.218142574975819e-08, 3.793448832877347e-08, 0))
hIsland = hIsland.add(rect(9.297734465750059e-09, 2.5667893056353885e-09).transl(1.0748767812341875e-07, 1.583129540018561e-08, 0))
hIsland = hIsland.add(rect(3.079504056701598e-09, 2.541862661911707e-09).transl(-6.832073404977043e-08, 3.480985635247249e-08, 0))
hIsland = hIsland.sub(rect(6.72207824660965e-09, -9.015682538843489e-10).transl(1.0303044840601209e-07, 1.9729394879050512e-08, 0))
hIsland = hIsland.add(rect(7.627854159214348e-09, 6.627747279862022e-10).transl(-4.0270754598011334e-08, 3.928886053957484e-08, 0))
hIsland = hIsland.sub(rect(3.2060657809025675e-09, -1.0557039950034892e-10).transl(-2.582744254137216e-08, 3.9981105104099306e-08, 0))
hIsland = hIsland.sub(rect(4.90236320468708e-09, -6.51558789313872e-10).transl(1.712684249042546e-08, 4e-08, 0))
hIsland = hIsland.sub(rect(9.194114296109083e-09, -2.5004242251795652e-09).transl(-2.9859250540691554e-08, 3.9888669933199105e-08, 0))
hIsland = hIsland.add(rect(8.40854682026097e-09, 3.0716981485427417e-09).transl(-1.1453655383069298e-07, 4.009895906343041e-09, 0))
hIsland = hIsland.sub(rect(7.365590682898855e-09, -1.5666617226570175e-09).transl(-1.0312600570648276e-07, 1.9655940431306578e-08, 0))
hIsland = hIsland.sub(rect(2.884784160760612e-09, -4.1450563896630166e-10).transl(-7.734452419039819e-08, 3.227561098368805e-08, 0))
hIsland = hIsland.add(rect(2.79295844529677e-09, 1.094134989767908e-09).transl(7.212244160653806e-08, 3.382090529948037e-08, 0))
hIsland = hIsland.sub(rect(7.590460221612509e-09, -1.838558620811493e-09).transl(-9.028788546862106e-09, 4e-08, 0))
hIsland = hIsland.add(rect(9.020955084968672e-09, 1.4862014911539994e-09).transl(5.363304918514042e-10, 4e-08, 0))
hIsland = hIsland.sub(rect(6.531178362817169e-09, -1.1488779476384217e-09).transl(-1.9750180706158483e-08, 4e-08, 0))
hIsland = hIsland.sub(rect(8.955625259299381e-09, -1.5877668515746285e-09).transl(1.087077967212301e-08, 4e-08, 0))
hIsland = hIsland.sub(rect(3.8079175983852685e-09, -3.3298424451333793e-09).transl(-6.981103104328044e-08, 3.4435022431820325e-08, 0))
hIsland = hIsland.add(rect(4.107908179976194e-09, 6.125295588183843e-10).transl(2.484528569402953e-08, 3.999195316203081e-08, 0))
hIsland = hIsland.sub(rect(2.240495208639227e-09, -4.8593891521859164e-09).transl(-5.1309323889936086e-08, 3.8059207135805924e-08, 0))
hIsland = hIsland.add(rect(9.298128703171792e-09, 2.2617058041042398e-09).transl(4.0274074075357223e-08, 3.928858467294093e-08, 0))
hIsland = hIsland.sub(rect(6.0127158921408265e-09, -4.380179623150591e-09).transl(-7.98582994608842e-08, 3.1446337951963734e-08, 0))
hIsland = hIsland.add(rect(7.965307159258004e-09, 5.511656352316613e-10).transl(-8.050799297414037e-08, 3.1222207282886693e-08, 0))
hIsland = hIsland.add(rect(3.899740796718813e-09, 4.722582805526361e-10).transl(1.0889503693011213e-08, 4e-08, 0))
hIsland = hIsland.sub(rect(3.846415511536131e-09, -1.2628385459684467e-09).transl(3.1242750717395564e-08, 3.983913081583038e-08, 0))
hIsland = hIsland.add(rect(7.0394694428697214e-09, 6.557552690489117e-11).transl(-4.975494951085929e-08, 3.8271176172764296e-08, 0))
hIsland = hIsland.add(rect(2.9191464349966794e-09, 1.880444953003566e-09).transl(8.401957461636374e-08, 2.993569514455786e-08, 0))
hIsland = hIsland.add(rect(7.213124239762511e-09, 1.214211405351723e-09).transl(4.032012769253328e-08, 3.9284751696109994e-08, 0))
hIsland = hIsland.add(rect(4.056789143254376e-09, 3.2008289481185323e-09).transl(-2.9838135296294275e-08, 3.988935525547464e-08, 0))
hIsland = hIsland.add(rect(9.31586822183653e-09, 1.5280745612979383e-10).transl(-8.987211832796616e-08, 2.7470966940338014e-08, 0))
hIsland = hIsland.add(rect(7.039451002243611e-09, 1.2729894176924348e-09).transl(8.364394489340703e-08, 3.0079642073210256e-08, 0))
hIsland = hIsland.add(rect(7.285111452104638e-09, 2.124733936910877e-09).transl(-1.0963827441248156e-07, 1.345586784129827e-08, 0))
hIsland = hIsland.sub(rect(6.2903642696760856e-09, -1.8459603311504285e-10).transl(-4.439585082273935e-08, 3.8903247655944985e-08, 0))
hIsland = hIsland.add(rect(7.868733187876788e-09, 8.368435973768208e-10).transl(-1.137723766052951e-07, 6.512684227429951e-09, 0))
hIsland = hIsland.add(rect(5.730358798661875e-09, 2.875684399505822e-09).transl(7.536444558980996e-08, 3.28885522515164e-08, 0))
hIsland = hIsland.add(rect(2.379766007030657e-09, 2.065381293634207e-09).transl(-6.184326093140735e-08, 3.6259933989115455e-08, 0))
hIsland = hIsland.sub(rect(4.28469017274741e-09, -8.691321689218461e-11).transl(-9.103038853808376e-08, 2.6927987125215256e-08, 0))
hIsland = hIsland.sub(rect(8.647223494250224e-09, -2.9445326182506007e-10).transl(4.9250432235884276e-08, 3.8337164068986764e-08, 0))
hIsland = hIsland.sub(rect(8.35186230966814e-09, -2.8332507012598975e-09).transl(-6.513917702368305e-08, 3.5557375981972915e-08, 0))
hIsland = hIsland.sub(rect(7.168509108727283e-09, -3.634847173842529e-09).transl(-7.884589469996001e-08, 3.178744400606548e-08, 0))
hIsland = hIsland.add(rect(6.225390313431969e-09, 4.879064326094064e-09).transl(-5.0058253671839986e-08, 3.823084520626405e-08, 0))
hIsland = hIsland.sub(rect(8.689904746237325e-09, -1.3618075386780374e-10).transl(-1.0965275610222217e-07, 1.3438228486527002e-08, 0))
hIsland = hIsland.add(rect(5.598535639559085e-09, 1.1909314735261184e-09).transl(4.7784475069518034e-08, 3.8521174290511086e-08, 0))
hIsland = hIsland.add(rect(2.312395151540555e-09, 2.02433732377883e-09).transl(4.23204509460531e-08, 3.910801332329138e-08, 0))
hIsland = hIsland.sub(rect(6.671787108219069e-09, -1.2535558969495871e-09).transl(-1.2007865602040788e-08, 4e-08, 0))
hIsland = hIsland.add(rect(5.50819944009632e-09, 1.6104272676780044e-09).transl(-4.72389877524353e-08, 3.858673355168229e-08, 0))
hIsland = hIsland.sub(rect(9.026516882715505e-09, -6.915526782218976e-10).transl(-3.0769577153499394e-08, 3.985710219803892e-08, 0))
hIsland = hIsland.sub(rect(3.66687763610447e-09, -1.969508850715296e-09).transl(-8.408713330805808e-08, 2.990963752160225e-08, 0))
hIsland = hIsland.sub(rect(5.5281544899286e-09, -9.686971412053188e-10).transl(7.772454280916893e-09, 4e-08, 0))
hIsland = hIsland.sub(rect(9.44765477656347e-09, -6.391880949315241e-10).transl(7.371266053395684e-08, 3.337427685634353e-08, 0))
hIsland = hIsland.add(rect(5.210522237827828e-09, 7.381994940226946e-10).transl(4.165985173206726e-08, 3.9168604411177736e-08, 0))
hIsland = hIsland.sub(rect(3.322389756087569e-09, -3.429157980181962e-10).transl(8.751172804572444e-08, 2.8518017203318827e-08, 0))
hIsland = hIsland.add(rect(6.214755159821842e-09, 2.6550995626474298e-09).transl(-9.949986963938424e-08, 2.2219773313800405e-08, 0))
hIsland = hIsland.sub(rect(8.394892840395085e-09, -2.3425502984924596e-09).transl(6.293465849893102e-08, 3.6035120053013764e-08, 0))
hIsland = hIsland.sub(rect(9.274489094403722e-09, -9.769969285259565e-10).transl(4.5874279856411995e-08, 3.874390572493188e-08, 0))
hIsland = hIsland.sub(rect(4.373436741605129e-09, -1.4599791930552671e-09).transl(-4.7161908816460636e-08, 3.859587077031572e-08, 0))
hIsland = hIsland.sub(rect(5.083988222631554e-09, -3.1999789570105166e-09).transl(6.548664791877391e-08, 3.5479126024793836e-08, 0))
hIsland = hIsland.sub(rect(6.5447801097651974e-09, -1.2780330806944537e-09).transl(6.032052113668469e-08, 3.656100038260182e-08, 0))
hIsland = hIsland.add(rect(3.988015693494412e-09, 1.277940805147775e-09).transl(-1.0748188879070155e-07, 1.5837134619603983e-08, 0))
hIsland = hIsland.add(rect(9.676102045860835e-09, 3.150668772966179e-09).transl(-4.257455937741592e-08, 3.908411902739336e-08, 0))
hIsland = hIsland.sub(rect(9.56018058522389e-09, -2.103814725509602e-09).transl(6.494326631059339e-08, 3.560113635109624e-08, 0))
hIsland = hIsland.add(rect(3.878902746841804e-09, 7.71668446972899e-10).transl(1.0618702266025363e-08, 4e-08, 0))
hIsland = hIsland.add(rect(3.661098084577427e-09, 6.033264800137025e-10).transl(-8.30714768494643e-08, 3.029601179441464e-08, 0))
hIsland = hIsland.add(rect(7.1166064795127384e-09, 3.1381701771563873e-09).transl(4.8256178689141575e-08, 3.846321355994172e-08, 0))
hIsland = hIsland.sub(rect(8.782182086478003e-09, -2.9946152007086287e-10).transl(7.900621854963355e-08, 3.173407786993861e-08, 0))
hIsland = hIsland.add(rect(8.284596851979677e-09, 4.43412679309491e-09).transl(9.654087453338346e-08, 2.403423744452331e-08, 0))
hIsland = hIsland.sub(rect(9.38439562684764e-09, -2.706282986365732e-09).transl(-1.1406566114850511e-07, 5.6862743837944956e-09, 0))
hIsland = hIsland.add(rect(8.783381827244076e-09, 1.6711927787253931e-09).transl(1.574811111186835e-08, 4e-08, 0))
hIsland = hIsland.add(rect(5.122827500552204e-09, 2.158589197505764e-09).transl(1.5478649383986266e-08, 4e-08, 0))
hIsland = hIsland.sub(rect(8.993927205073035e-09, -9.623491059549396e-10).transl(4.119450808802608e-08, 3.920996718370487e-08, 0))
hIsland = hIsland.sub(rect(6.49331002106674e-09, -4.470402040826582e-10).transl(7.58687729416079e-08, 3.2735674070246426e-08, 0))
hIsland = hIsland.add(rect(4.210682723410698e-09, 7.385257454867895e-10).transl(6.100596302872824e-08, 3.64272763209435e-08, 0))
hIsland = hIsland.add(rect(8.831919750425347e-09, 2.3518237528144243e-09).transl(1.0526417513808088e-07, 1.790863964889412e-08, 0))
hIsland = hIsland.sub(rect(2.0009103464418755e-09, -2.345150312179488e-09).transl(7.14165727095372e-08, 3.401277277891406e-08, 0))
hIsland = hIsland.add(rect(2.474497060763919e-09, 1.1342596543874794e-09).transl(-6.485135309829562e-08, 3.5621578186322245e-08, 0))
hIsland = hIsland.add(rect(6.736565415608083e-09, 2.0404634242639557e-09).transl(-1.8459481953030205e-08, 4e-08, 0))
hIsland = hIsland.sub(rect(4.3482275788465235e-09, -2.3472548660406935e-09).transl(6.121740383388635e-08, 3.6385434164223275e-08, 0))
hIsland = hIsland.add(rect(3.2535713905322156e-09, 3.869338284301873e-09).transl(-6.721375707566282e-08, 3.507794099263057e-08, 0))
hIsland = hIsland.sub(rect(3.58711966452844e-09, -1.557724151945074e-09).transl(-5.760257304428006e-08, 3.7062920848693694e-08, 0))
hIsland = hIsland.add(rect(9.375733030756195e-09, 1.1791163055520158e-09).transl(9.437450886707069e-09, 4e-08, 0))
hIsland = hIsland.sub(rect(7.885310739550639e-09, -2.2254621570760853e-09).transl(8.042790884581861e-08, 3.125005946488512e-08, 0))
hIsland = hIsland.add(rect(4.600607081608891e-09, 6.921039089359837e-11).transl(4.4142373207416745e-08, 3.89294355932177e-08, 0))
hIsland = hIsland.sub(rect(5.942167509977725e-09, -5.1180059908984186e-09).transl(-7.650668191071067e-08, 3.2539157712982166e-08, 0))
hIsland = hIsland.sub(rect(7.61229523685966e-09, -1.0446045251122456e-09).transl(-8.016720615850185e-08, 3.134028896917405e-08, 0))
hIsland = hIsland.add(rect(2.4315876376244453e-09, 3.0570681498579927e-10).transl(-7.906012570016233e-08, 3.171607949870009e-08, 0))
hIsland = hIsland.sub(rect(3.3762640610774445e-09, -5.598026642842664e-10).transl(9.26360034324592e-08, 2.6140622429701225e-08, 0))
hIsland = hIsland.sub(rect(4.0928015933384766e-09, -2.6303707114227403e-11).transl(4.986308006236812e-08, 3.825685485251733e-08, 0))
hIsland = hIsland.add(rect(4.7572801519345e-09, 1.284975486616512e-09).transl(-4.156416218972162e-08, 3.9177198825172414e-08, 0))
hIsland = hIsland.add(rect(7.272705498502303e-09, 3.78555602888788e-09).transl(-4.026594366384283e-08, 3.928926025685168e-08, 0))
hIsland = hIsland.add(rect(5.11148231229571e-09, 1.0374528669253431e-10).transl(-1.1570629957709232e-08, 4e-08, 0))
hIsland = hIsland.add(rect(4.202291133992079e-09, 1.1120489471595422e-09).transl(3.5627691306678784e-08, 3.962141592209556e-08, 0))
hIsland = hIsland.sub(rect(8.049397174253198e-09, -4.721528598945902e-09).transl(-1.0897651790096228e-07, 1.4235650883358865e-08, 0))
hIsland = hIsland.sub(rect(7.944875212661167e-09, -1.802294563489439e-09).transl(3.737855970795725e-08, 3.950845670695996e-08, 0))
hIsland = hIsland.add(rect(7.72249696343991e-09, 1.4585951144378193e-09).transl(8.906898773009319e-08, 2.783589793182947e-08, 0))
hIsland = hIsland.sub(rect(8.18856954840052e-09, -1.390787029201349e-09).transl(-8.368967804264145e-08, 3.0062200732309414e-08, 0))
hIsland = hIsland.add(rect(2.733681962932902e-09, 1.2402874389564368e-09).transl(-6.750823189092674e-08, 3.5007472315888936e-08, 0))
hIsland = hIsland.sub(rect(7.83911762239299e-09, -7.985711946322715e-10).transl(-7.305631634702646e-08, 3.356106415441882e-08, 0))
hIsland = hIsland.add(rect(6.558182891050209e-09, 5.07864983649943e-10).transl(-9.820305778086626e-08, 2.304142772011787e-08, 0))
hIsland = hIsland.add(rect(2.3342426160915473e-09, 7.465917479341674e-10).transl(7.368267783080626e-08, 3.338288550996451e-08, 0))
hIsland = hIsland.sub(rect(5.838459926871185e-09, -2.1158641614392873e-09).transl(8.188354321213843e-08, 3.073371312815165e-08, 0))
hIsland = hIsland.sub(rect(3.6569082541537236e-09, -1.6808359680343116e-09).transl(9.292425855317856e-08, 2.5994757599259876e-08, 0))
hIsland = hIsland.sub(rect(3.2744756664577157e-09, -2.9267913274693454e-10).transl(1.0475377570912078e-07, 1.8345147946427906e-08, 0))
hIsland = hIsland.sub(rect(5.756828222622007e-09, -1.248400498202941e-09).transl(-1.272698185634646e-09, 4e-08, 0))
hIsland = hIsland.sub(rect(6.0842029157564864e-09, -2.1384953098228067e-09).transl(-8.328737206137962e-08, 3.021483495578063e-08, 0))
hIsland = hIsland.sub(rect(5.000412779499058e-09, -1.7898670419615407e-09).transl(1.1461524986965161e-07, 3.654398683692922e-09, 0))
hIsland = hIsland.sub(rect(9.748715902505564e-09, -1.004632568813499e-09).transl(1.0980180563316713e-07, 1.3255141591294661e-08, 0))
hIsland = hIsland.add(rect(8.607645144051789e-09, 2.9078158730294965e-10).transl(7.591120040638381e-08, 3.2722713337343185e-08, 0))
hIsland = hIsland.sub(rect(2.597653051458046e-09, -3.187127583035743e-09).transl(4.439716455344787e-08, 3.8903111069224264e-08, 0))
hIsland = hIsland.add(rect(7.916075582595751e-09, 1.815080085030992e-09).transl(-3.244512813506471e-08, 3.978864186733345e-08, 0))
hIsland = hIsland.sub(rect(4.868446898816715e-09, -1.2830791601661356e-09).transl(3.782099500537661e-08, 3.947753807768377e-08, 0))
hIsland = hIsland.sub(rect(8.8510902536826e-09, -1.5563987146598833e-09).transl(4.271864386625189e-08, 3.907042520288462e-08, 0))
hIsland = hIsland.add(rect(8.938263176572897e-09, 1.438134881314305e-09).transl(8.534910058109872e-08, 2.9413259283658443e-08, 0))
hIsland = hIsland.sub(rect(3.264231932968601e-09, -9.525040342321225e-10).transl(7.340832852429856e-08, 3.3461318172968965e-08, 0))
hIsland = hIsland.sub(rect(9.303056879901742e-09, -2.0738147013659843e-09).transl(-7.707104876624687e-08, 3.236232051761887e-08, 0))
hIsland = hIsland.sub(rect(7.190305284660847e-09, -2.658968898731995e-09).transl(9.571412079112617e-08, 2.4505146396611855e-08, 0))
hIsland = hIsland.add(rect(8.370818041344189e-09, 3.120861220360399e-09).transl(2.2103012543966292e-08, 4e-08, 0))
hIsland = hIsland.add(rect(4.256384111796174e-09, 1.4843400724565998e-09).transl(6.342428423519005e-08, 3.593177015720176e-08, 0))
hIsland = hIsland.add(rect(8.634405488180898e-09, 1.3470897788354577e-09).transl(8.662421567772584e-09, 4e-08, 0))
hIsland = hIsland.add(rect(6.368083919229528e-09, 1.4311768228746624e-09).transl(5.425156204253228e-09, 4e-08, 0))
hIsland = hIsland.sub(rect(9.066756904307817e-09, -8.443823616393808e-10).transl(6.039829620967668e-08, 3.65459739483867e-08, 0))
hIsland = hIsland.sub(rect(3.910520142790069e-09, -3.847891480275674e-09).transl(3.090467568614593e-08, 3.9852080235678246e-08, 0))
hIsland = hIsland.sub(rect(7.731490878065252e-09, -2.1747078266374387e-09).transl(7.276329725900665e-08, 3.3643337357722796e-08, 0))
hIsland = hIsland.add(rect(9.166299653644188e-09, 3.5859149277615995e-09).transl(-6.341748558642748e-08, 3.593321588123282e-08, 0))
vIsland = hIsland.rotz(pi / 2)
vIslands = vIslands.add(vIsland.transl(0, -a/2, 0))
DefRegion(1, hIslands)
DefRegion(2, vIslands)
TableAdd(m_full.Region(1))
TableAdd(m_full.Region(2))
setgeom(hIslands.add(vIslands))
save(geom)
r2o2 := sqrt(2) / 2
m = RandomMagSeed(4)
B_ext = vector(Bmax*r2o2, Bmax*r2o2, 0)
relax()
minimize()
for B := Bmax; B >= -Bmax; B -= Bstep {
	B_ext = vector(B*r2o2, B*r2o2, 0)
	minimize()
	tablesave()
}
//********************************************************************//
//Please cite the following references, relevant for your simulation. //
//See bibtex file in output folder for justification.                 //
//********************************************************************//
//   * Vansteenkiste et al., AIP Adv. 4, 107133 (2014).
//   * Exl et al., J. Appl. Phys. 115, 17D118 (2014).
