# t (s)	mx ()	my ()	mz ()	B_extx (T)	B_exty (T)	B_extz (T)	m_fullx (A/m)	m_fully (A/m)	m_fullz (A/m)	m_full.region1x (A/m)	m_full.region1y (A/m)	m_full.region1z (A/m)	m_full.region2x (A/m)	m_full.region2y (A/m)	m_full.region2z (A/m)
0	0.6182984	0.61829305	-7.446133e-10	0.070709854	0.070709854	0	63954.49	63953.93	-6.4291824e-05	671776.4	193835.33	-0.00033805048	193841.38	671774.94	-0.0005321332
0	0.6181833	0.6181818	-6.2054306e-11	0.07056971	0.07056971	0	63942.586	63942.43	-1.6341666e-05	671840.1	193614.67	-0.000112606525	193616.64	671839.94	-0.000108576336
0	0.6180502	0.6180492	-3.0624941e-10	0.07042712	0.07042712	0	63928.812	63928.71	-3.3971242e-05	671915.5	193353.4	-0.00019519204	193354.73	671915.56	-0.00026460542
0	0.6179191	0.61791825	-1.5956773e-10	0.070287034	0.070287034	0	63915.25	63915.168	-1.3780586e-05	671989.8	193095.67	-0.0001261084	193096.92	671989.9	-6.0410523e-05
0	0.6177869	0.61778605	-2.6377367e-10	0.0701447	0.0701447	0	63901.582	63901.49	-2.8644663e-05	672064.75	192835.73	-0.00013211905	192837	672064.75	-0.0002555837
0	0.61765474	0.61765397	-2.2829108e-10	0.0700046	0.0700046	0	63887.914	63887.82	-1.5965657e-05	672139.4	192576.12	-0.00013958562	192577.38	672139.4	-7.6508e-05
0	0.61752224	0.61752135	-1.7181377e-10	0.06986236	0.06986236	0	63874.2	63874.113	-2.2300246e-05	672214.1	192315.72	-0.00016604719	192316.97	672214.06	-0.00013578447
0	0.61739016	0.6173893	-3.3193762e-10	0.069720015	0.069720015	0	63860.543	63860.457	-3.0958072e-05	672288.44	192056.52	-0.00014102035	192057.75	672288.5	-0.00027799414
0	0.6172578	0.6172569	-3.2902994e-10	0.06957992	0.06957992	0	63846.844	63846.75	-3.587116e-05	672362.8	191796.75	-0.00013150684	191797.97	672362.9	-0.0003540058
0	0.61712444	0.61712354	-3.6200365e-10	0.069437355	0.069437355	0	63833.05	63832.957	-2.7944727e-05	672437.56	191535.38	-0.00014490726	191536.64	672437.56	-0.00023332187
0	0.61699104	0.61699027	-9.0299546e-11	0.069297224	0.069297224	0	63819.26	63819.168	-6.8357863e-06	672512.1	191274.11	-7.365735e-05	191275.36	672512.2	-1.8864355e-05
0	0.6168579	0.61685705	-5.1959576e-11	0.06915493	0.06915493	0	63805.48	63805.4	-9.3156295e-06	672586.44	191013.38	-4.811627e-05	191014.64	672586.44	-7.796987e-05
0	0.61672413	0.6167233	-2.3004036e-10	0.06901481	0.06901481	0	63791.65	63791.562	-1.5395965e-05	672660.94	190751.61	-0.00012868748	190752.86	672660.9	-7.9695405e-05
0	0.6165895	0.61658865	-2.7826097e-10	0.06887121	0.06887121	0	63777.727	63777.633	-2.8952321e-05	672735.9	190488.19	-0.000150875	190489.44	672735.9	-0.00024099187
0	0.61645496	0.6164541	-6.0641034e-11	0.06873101	0.06873101	0	63763.812	63763.72	-1.0386548e-05	672810.44	190225.33	-0.000113748276	190226.55	672810.44	-2.6832651e-05
0	0.6163203	0.6163195	-1.12220205e-10	0.068588786	0.068588786	0	63749.887	63749.8	-1.9381852e-05	672885	189962.3	-8.318465e-05	189963.55	672885	-0.00017914681
0	0.6161857	0.6161849	-2.929807e-11	0.068448305	0.068448305	0	63735.96	63735.875	-1.43002735e-05	672959.4	189699.52	-9.9260615e-05	189700.77	672959.4	-9.42922e-05
0	0.6160507	0.6160499	-2.2517369e-10	0.0683061	0.0683061	0	63722	63721.914	-1.9435189e-05	673033.7	189436.11	-0.00022403523	189437.36	673033.7	-3.901816e-05
0	0.61591524	0.61591446	-6.2476434e-11	0.068165876	0.068165876	0	63707.99	63707.895	-2.0916528e-05	673108.25	189171.9	-0.000106439846	189173.16	673108.3	-0.00017666334
0	0.61578	0.6157791	-5.4602968e-11	0.068023674	0.068023674	0	63693.992	63693.906	-5.308239e-06	673182.44	188908.33	-8.001737e-05	188909.56	673182.56	8.170873e-06
0	0.6156436	0.6156428	-2.6814304e-10	0.067881495	0.067881495	0	63679.895	63679.8	-1.7151473e-05	673257.2	188642.67	-0.00013841354	188643.92	673257.3	-9.372999e-05
0	0.6155075	0.6155066	-1.7050199e-10	0.06774126	0.06774126	0	63665.793	63665.707	-1.9576471e-05	673331.6	188377.55	-7.321503e-05	188378.8	673331.6	-0.00019175062
0	0.6153709	0.6153701	-1.8869968e-10	0.06759908	0.06759908	0	63651.68	63651.6	-1.6066311e-06	673406.06	188112.02	-7.253504e-05	188113.23	673406.2	5.078944e-05
0	0.61523473	0.6152339	-3.2371432e-11	0.06745857	0.06745857	0	63637.594	63637.5	-2.0189598e-05	673480.2	187847.16	-0.00016522898	187848.4	673480.3	-0.00010803527
0	0.6150977	0.6150969	-1.3652016e-10	0.0673164	0.0673164	0	63623.426	63623.332	-7.0836877e-06	673554.7	187580.89	-0.00010146474	187582.17	673554.7	5.58772e-06
0	0.6149602	0.6149594	-9.372315e-11	0.06717612	0.06717612	0	63609.2	63609.117	-2.4194309e-05	673629.2	187313.83	-0.00018121541	187315.12	673629.3	-0.0001462522
0	0.6148234	0.6148226	-1.1651753e-10	0.06703257	0.06703257	0	63595.05	63594.97	-1.2189899e-05	673703.2	187048.38	-0.00012335328	187049.62	673703.25	-4.163582e-05
0	0.61468637	0.6146855	-6.94165e-11	0.06689235	0.06689235	0	63580.867	63580.78	-1.8365687e-05	673777.1	186782.47	-1.0820514e-05	186783.69	673777.25	-0.00023775727
0	0.6145472	0.6145463	-3.0404093e-10	0.06675015	0.06675015	0	63566.477	63566.383	-2.2198816e-05	673852.1	186512.64	-0.00017466834	186513.88	673852.25	-0.00012579047
0	0.6144091	0.61440825	-2.87767e-10	0.06660991	0.06660991	0	63552.188	63552.1	-2.9777391e-05	673926.3	186245.17	-0.00012643202	186246.39	673926.3	-0.0002766021
0	0.61427104	0.6142702	-1.3228986e-10	0.06646746	0.06646746	0	63537.914	63537.824	-2.0120515e-05	674000.4	185977.86	-0.000101104444	185979.12	674000.44	-0.00017122476
0	0.61413294	0.61413217	-2.1101458e-10	0.066327125	0.066327125	0	63523.625	63523.543	-1.5981697e-05	674074.3	185710.55	-0.00016729007	185711.77	674074.44	-4.9020673e-05
0	0.6139937	0.6139929	-1.9636572e-10	0.066185005	0.066185005	0	63509.227	63509.145	-2.3724626e-05	674148.6	185441.34	-0.0001228472	185442.55	674148.7	-0.00019826334
0	0.6138527	0.61385185	-2.4196245e-10	0.06604292	0.06604292	0	63494.637	63494.55	-1.5479873e-05	674223.9	185168.66	-8.396543e-05	185169.9	674223.94	-0.00012555317
0	0.61371416	0.6137133	-1.5904886e-10	0.065902665	0.065902665	0	63480.312	63480.227	-3.6410845e-06	674297.5	184901.16	-2.9628161e-05	184902.38	674297.5	-1.965357e-05
0	0.61357456	0.61357373	-2.4987762e-10	0.06576051	0.06576051	0	63465.867	63465.79	-2.2347256e-05	674371.5	184631.56	-0.00014029258	184632.83	674371.56	-0.00016217538
0	0.6134351	0.61343426	-2.4562943e-10	0.065620236	0.065620236	0	63451.45	63451.363	-1.8185816e-05	674445.4	184362.61	-8.464345e-05	184363.84	674445.4	-0.00016149985
0	0.61329466	0.6132938	-2.984189e-10	0.06547782	0.06547782	0	63436.918	63436.832	-2.6623404e-05	674519.56	184091.72	-0.0001349452	184093	674519.6	-0.00022539996
0	0.61315393	0.6131531	-7.1948045e-11	0.06533745	0.06533745	0	63422.363	63422.273	-1.1791648e-05	674593.7	183820.55	-5.4677348e-05	183821.78	674593.75	-0.00010492147
0	0.6130129	0.6130121	-1.5939336e-10	0.065195374	0.065195374	0	63407.773	63407.68	-2.3914745e-05	674667.94	183548.89	-0.0001502185	183550.14	674668	-0.00017346526
0	0.61287254	0.61287177	-5.4784597e-11	0.06505365	0.06505365	0	63393.258	63393.168	-9.280273e-06	674741.6	183278.78	-8.994828e-05	183280.02	674741.5	-3.5659315e-05
0	0.61273056	0.6127298	-7.47096e-11	0.06491158	0.06491158	0	63378.57	63378.49	-1.7434453e-05	674815.94	183005.7	-0.00019355307	183006.94	674815.94	-4.242057e-05
0	0.61258864	0.61258775	-1.4610209e-10	0.0647712	0.0647712	0	63363.887	63363.8	-2.1723377e-05	674890.1	182732.73	-0.00020111758	182733.97	674890.1	-9.2906215e-05
0	0.6124453	0.6124445	-3.2988992e-10	0.06462915	0.06462915	0	63349.062	63348.98	-2.5656223e-05	674964.8	182457.42	-0.00016381645	182458.66	674964.9	-0.000183438
0	0.61230445	0.61230356	-1.6400514e-10	0.06448846	0.06448846	0	63334.492	63334.406	-1.0920016e-05	675038.06	182186.9	-5.1698677e-05	182188.08	675038.1	-9.610268e-05
0	0.61216086	0.61216	-2.3013945e-10	0.06434636	0.06434636	0	63319.637	63319.55	-2.6326397e-05	675112.7	181911.3	-9.073427e-05	181912.52	675112.7	-0.00026559096
0	0.6120193	0.61201847	-1.9104016e-10	0.06420602	0.06420602	0	63305	63304.906	-2.2109827e-05	675185.94	181639.83	-0.00016352777	181641.06	675185.94	-0.0001357266
0	0.61187625	0.6118754	-2.9733002e-10	0.06406402	0.06406402	0	63290.207	63290.125	-2.19311e-05	675259.75	181365.67	-0.00014527263	181366.92	675260	-0.00015156268
0	0.61173177	0.611731	-1.2645981e-10	0.063922	0.063922	0	63275.258	63275.176	-2.0674608e-05	675334.4	181088.84	-0.00014490179	181090.05	675334.5	-0.00013492699
0	0.6115896	0.6115888	-1.8774803e-10	0.06378159	0.06378159	0	63260.555	63260.477	-1.5690897e-05	675407.5	180816.75	-0.00014225108	180817.98	675407.56	-7.012368e-05
0	0.6114461	0.61144525	-5.3626627e-11	0.06363921	0.06363921	0	63245.71	63245.617	-9.305435e-06	675481.25	180542.06	-3.7763046e-05	180543.28	675481.2	-8.8185116e-05
0	0.6113016	0.6113008	-1.9940348e-10	0.06349885	0.06349885	0	63230.76	63230.688	-2.443718e-05	675555.2	180265.78	-0.00013536305	180267.02	675555.4	-0.0001953918
0	0.6111557	0.61115485	-1.9890602e-10	0.06335679	0.06335679	0	63215.676	63215.586	-2.419329e-05	675629.8	179986.97	-0.00021934698	179988.17	675629.9	-0.00010810684
0	0.6110112	0.61101043	-1.1932472e-10	0.0632164	0.0632164	0	63200.727	63200.637	-1.4596122e-05	675703.44	179711.05	-7.824875e-05	179712.25	675703.5	-0.00011930836
0	0.61086744	0.61086655	-1.8626889e-10	0.06307295	0.06307295	0	63185.85	63185.77	-2.0260695e-05	675776.7	179436.48	-0.00020063922	179437.73	675776.75	-7.358734e-05
0	0.6107211	0.6107203	-1.7398459e-10	0.06293256	0.06293256	0	63170.71	63170.633	-2.5883379e-05	675850.94	179157.4	-0.00014367233	179158.64	675850.94	-0.0002066567
0	0.6105764	0.6105755	-1.5462402e-10	0.0627905	0.0627905	0	63155.74	63155.656	-2.031904e-05	675924.25	178881.34	-0.00015686375	178882.56	675924.3	-0.000118152486
0	0.61043036	0.6104296	-6.487839e-13	0.062649734	0.062649734	0	63140.65	63140.562	-6.630573e-06	675998	178603.34	-0.00012690517	178604.55	675998	3.7160997e-05
0	0.61028486	0.61028403	-1.5974517e-11	0.06250778	0.06250778	0	63125.594	63125.52	-1.3581489e-05	676071.3	178326.17	-0.00010362867	178327.38	676071.5	-8.019546e-05
0	0.6101379	0.61013705	-1.1888945e-10	0.06236728	0.06236728	0	63110.4	63110.32	-1.1518825e-05	676145.3	178046.53	-0.0001035376	178047.75	676145.44	-5.2368578e-05
0	0.6099926	0.6099917	2.24849e-11	0.06222535	0.06222535	0	63095.355	63095.273	-1.6387103e-05	676218.3	177770.12	-3.7958478e-05	177771.38	676218.4	-0.00018383938
0	0.60984576	0.6098449	-2.3530874e-10	0.06208344	0.06208344	0	63080.176	63080.086	-6.8684485e-06	676291.8	177491.03	-9.0058e-05	177492.23	676291.9	-2.9057942e-06
0	0.6096975	0.60969675	-2.4961896e-10	0.061942905	0.061942905	0	63064.844	63064.76	-3.451335e-05	676365.8	177209.44	-0.00016686771	177210.64	676366.06	-0.0003002671
0	0.6095492	0.6095484	-2.354971e-10	0.061800998	0.061800998	0	63049.5	63049.418	-1.5851881e-05	676439.8	176927.83	-0.00014549975	176929.06	676439.94	-6.905392e-05
0	0.60940266	0.60940194	-1.8397693e-10	0.06166019	0.06166019	0	63034.35	63034.26	-1.37194875e-05	676512.7	176649.94	-9.464806e-05	176651.19	676512.7	-9.104387e-05
0	0.60925424	0.6092534	-2.0556588e-10	0.06151828	0.06151828	0	63018.992	63018.9	-2.6159501e-05	676586.3	176368.33	-0.0001776052	176369.53	676586.44	-0.00017646111
0	0.6091063	0.6091055	-2.5145552e-10	0.06137774	0.06137774	0	63003.688	63003.605	-2.6539385e-05	676659.56	176087.95	-0.00017574771	176089.19	676659.7	-0.00018346027
0	0.6089575	0.6089567	-2.9285524e-10	0.061235856	0.061235856	0	62988.3	62988.207	-2.5492478e-05	676733.2	175806.1	-0.00015245145	175807.31	676733.3	-0.00019258678
0	0.6088077	0.60880685	-1.9814618e-10	0.061093815	0.061093815	0	62972.8	62972.707	-1.6105463e-05	676806.94	175522.52	-0.00015870326	175523.72	676807.1	-5.9282618e-05
0	0.60865945	0.6086587	-1.6619885e-10	0.06095187	0.06095187	0	62957.477	62957.4	-8.517245e-06	676879.8	175242.28	-2.6891856e-05	175243.52	676879.9	-8.838824e-05
0	0.60851055	0.6085098	-1.8773855e-10	0.06081137	0.06081137	0	62942.07	62941.992	-1.5649512e-05	676952.8	174960.77	-0.0001690586	174961.97	676953	-4.2756004e-05
0	0.60835934	0.6083585	-2.5421273e-10	0.060669135	0.060669135	0	62926.43	62926.35	-3.294283e-05	677026.94	174675.03	-0.00016607823	174676.22	677026.94	-0.00027979974
0	0.60820895	0.6082081	-1.9764282e-10	0.060528617	0.060528617	0	62910.867	62910.79	-2.8470193e-05	677100.3	174390.92	-0.00015842283	174392.14	677100.44	-0.00022691848
0	0.60805887	0.60805815	-1.5286203e-10	0.0603867	0.0603867	0	62895.35	62895.273	-1.5398413e-05	677173.44	174107.83	-6.470973e-05	174109.05	677173.5	-0.00014370632
0	0.6079095	0.6079087	-1.3235985e-10	0.060244866	0.060244866	0	62879.9	62879.812	-1.7182529e-05	677245.94	173826.11	-3.6059922e-05	173827.31	677246.1	-0.00019650394
0	0.60775954	0.60775876	-4.342145e-11	0.06010433	0.06010433	0	62864.387	62864.3	-5.1684046e-06	677318.75	173543.39	-5.188242e-05	173544.56	677318.75	-1.807144e-05
0	0.607608	0.60760725	-1.3198098e-10	0.05996244	0.05996244	0	62848.71	62848.633	2.2356048e-06	677392.06	173257.94	-3.0650684e-05	173259.17	677392.1	6.0909377e-05
0	0.6074556	0.6074549	-2.7752547e-10	0.059821885	0.059821885	0	62832.96	62832.875	-2.473064e-05	677465.5	172971.22	-0.000100888006	172972.42	677465.7	-0.00023383877
0	0.6073036	0.6073029	-1.3045606e-10	0.059679706	0.059679706	0	62817.227	62817.15	-1.512242e-05	677538.7	172685.14	-0.0001811024	172686.34	677538.9	-2.357809e-05
0	0.6071524	0.60715157	-2.6245975e-10	0.059539147	0.059539147	0	62801.586	62801.5	-2.4189958e-05	677611.4	172400.77	-0.00013994359	172401.98	677611.5	-0.0001874651
0	0.6070004	0.60699964	-1.3036967e-10	0.05939726	0.05939726	0	62785.863	62785.79	-1.4514464e-05	677684.25	172115.12	-0.00013731689	172116.31	677684.3	-5.9134978e-05
0	0.6068459	0.6068452	-1.7828668e-10	0.059255093	0.059255093	0	62769.887	62769.8	-2.4445446e-05	677758.1	171825	-0.00014531583	171826.2	677758.2	-0.0001855509
0	0.60669273	0.6066921	-1.4612997e-10	0.059113316	0.059113316	0	62754.043	62753.96	-1.8738183e-05	677831.1	171537.61	-0.00014607125	171538.8	677831.2	-0.00010754823
0	0.60654056	0.6065398	-1.374296e-10	0.058972638	0.058972638	0	62738.3	62738.21	-1.1693248e-05	677903.5	171251.97	-5.8477977e-05	171253.17	677903.7	-9.9788995e-05
0	0.6063871	0.60638636	-4.226278e-11	0.058830876	0.058830876	0	62722.426	62722.344	-1.8900091e-05	677976.4	170964.31	-0.00014204807	170965.48	677976.5	-0.00011376283
0	0.60623235	0.60623163	-2.585317e-10	0.058689874	0.058689874	0	62706.414	62706.332	-1.7748594e-05	678049.7	170674.38	-0.0001294555	170675.56	678049.8	-0.00011077
0	0.6060787	0.60607797	-1.5973695e-10	0.058548026	0.058548026	0	62690.523	62690.438	-1.4201343e-05	678122.25	170386.77	-0.00011945236	170387.94	678122.3	-7.276145e-05
0	0.60592383	0.6059231	-2.6777128e-10	0.058407396	0.058407396	0	62674.5	62674.43	-1.5383483e-05	678195.2	170097	-0.00016934106	170098.2	678195.4	-3.8872884e-05
0	0.6057683	0.6057674	-1.6438005e-10	0.05826568	0.05826568	0	62658.414	62658.332	-1.4997049e-05	678268.3	169806	-6.935403e-05	169807.19	678268.44	-0.00013362958
0	0.6056157	0.60561496	-2.7274638e-10	0.058123965	0.058123965	0	62642.637	62642.55	-2.9233392e-05	678339.9	169520.86	-0.00018575252	169522.06	678340	-0.00020991857
0	0.6054586	0.6054579	-2.0394866e-10	0.05798323	0.05798323	0	62626.387	62626.305	-3.7833368e-05	678413.44	169227.53	-0.00026765955	169228.73	678413.5	-0.00024441144
0	0.60530347	0.60530275	-2.028636e-10	0.057841532	0.057841532	0	62610.344	62610.27	-2.3528188e-05	678485.75	168937.9	-0.00011574321	168939.06	678485.9	-0.00020270854
0	0.6051469	0.60514605	-1.1976087e-10	0.057700448	0.057700448	0	62594.137	62594.055	-1.2461684e-05	678558.7	168645.67	-0.00010234387	168646.84	678558.8	-6.632382e-05
0	0.60499215	0.6049914	-3.5265524e-10	0.057558686	0.057558686	0	62578.125	62578.05	-2.4411414e-05	678630.56	168357.19	-0.00021056818	168358.39	678630.75	-0.000119837896
0	0.6048343	0.60483354	9.435121e-11	0.057418007	0.057418007	0	62561.812	62561.73	7.168876e-06	678703.6	168063.2	-6.593028e-05	168064.4	678703.75	0.00016296034
0	0.6046774	0.6046766	-1.8226509e-10	0.05727468	0.05727468	0	62545.582	62545.51	-2.0248941e-05	678776.2	167771.02	-0.00013841507	167772.2	678776.4	-0.00013565237
0	0.6045203	0.60451955	-5.1598417e-11	0.05713398	0.05713398	0	62529.324	62529.25	-7.5038297e-06	678848.56	167478.61	-6.43321e-05	167479.81	678848.75	-3.7231508e-05
0	0.6043627	0.60436195	-3.472636e-10	0.056992244	0.056992244	0	62513.023	62512.95	-2.52144e-05	678921.06	167185.55	-0.00015219652	167186.73	678921.25	-0.00018907797
0	0.60420483	0.60420406	-3.3548248e-10	0.056851108	0.056851108	0	62496.707	62496.625	-3.0011211e-05	678993.56	166892.12	-0.00017873141	166893.31	678993.6	-0.00022746743
0	0.6040456	0.604045	-1.302148e-10	0.05670946	0.05670946	0	62480.227	62480.15	-2.0797606e-05	679066.3	166596.31	-0.000101476246	166597.5	679066.5	-0.00018001733
0	0.6038888	0.60388803	1.0236414e-10	0.05656864	0.05656864	0	62464.02	62463.93	2.6423188e-06	679137.94	166305.25	2.9322788e-05	166306.44	679138	6.4407386e-06
0	0.60372984	0.60372907	-1.600563e-10	0.05642701	0.05642701	0	62447.57	62447.492	-1.7395814e-05	679210.4	166010.25	-8.908686e-05	166011.44	679210.5	-0.0001463638
0	0.60357094	0.6035702	-3.7091238e-10	0.056285422	0.056285422	0	62431.137	62431.05	-3.525676e-05	679282.5	165715.72	-0.00022787834	165716.88	679282.6	-0.0002493185
0	0.6034118	0.60341096	2.2780574e-11	0.056144662	0.056144662	0	62414.668	62414.586	6.5642553e-06	679354.6	165420.67	-7.95787e-05	165421.83	679354.8	0.00016842526
0	0.6032519	0.60325104	-2.662578e-10	0.056002956	0.056002956	0	62398.125	62398.05	-2.066317e-06	679426.94	165124.55	-0.00010594543	165125.7	679427.06	7.7978024e-05
0	0.6030923	0.60309154	-2.3182944e-10	0.055861782	0.055861782	0	62381.625	62381.55	-1.2176879e-05	679498.8	164829.22	-0.00012565123	164830.4	679498.9	-3.9161627e-05
0	0.6029316	0.6029309	-2.4633962e-10	0.055720203	0.055720203	0	62365	62364.926	-1.730398e-05	679571.06	164532	-0.00017132043	164533.17	679571.25	-6.288728e-05
0	0.60277146	0.60277075	-1.1997689e-10	0.055579327	0.055579327	0	62348.445	62348.367	-1.632522e-05	679642.8	164236.06	-6.4661646e-05	164237.23	679643	-0.00015629863
0	0.60261035	0.60260963	-1.8844648e-10	0.055437762	0.055437762	0	62331.78	62331.7	-1.9813722e-05	679715	163938.44	-0.00011995322	163939.62	679715.06	-0.0001482236
0	0.6024493	0.6024485	-2.26377e-10	0.05529525	0.05529525	0	62315.105	62315.03	-2.4001529e-05	679786.9	163640.9	-0.0001704696	163642.05	679787.06	-0.00015438875
0	0.6022876	0.6022869	-2.91784e-10	0.055153705	0.055153705	0	62298.387	62298.312	-2.3490033e-05	679858.9	163342.66	-0.00021216016	163343.81	679859	-0.00010577514
0	0.6021247	0.602124	-1.4536611e-10	0.055012755	0.055012755	0	62281.54	62281.47	-1.2643957e-05	679931.2	163042.22	-0.00013530803	163043.39	679931.4	-3.58267e-05
0	0.60196346	0.60196275	-1.0297169e-10	0.05487082	0.05487082	0	62264.855	62264.79	-2.2923898e-06	680002.56	162745.06	-5.5305514e-05	162746.25	680002.7	2.4278239e-05
0	0.6018013	0.6018005	-1.5130183e-10	0.05472997	0.05472997	0	62248.082	62248.01	-1.9146879e-05	680074.3	162446.34	-0.000108116255	162447.52	680074.4	-0.00015103487
0	0.60163856	0.60163796	-2.7596211e-10	0.054588366	0.054588366	0	62231.26	62231.188	-3.3719985e-05	680145.94	162147.05	-0.00014482996	162148.22	680146.06	-0.00031156678
0	0.6014756	0.60147476	-3.1237984e-10	0.05444749	0.05444749	0	62214.395	62214.324	-3.9191713e-05	680217.6	161847.03	-0.00023568593	161848.19	680217.7	-0.00029477009
0	0.60131264	0.601312	-2.1643046e-10	0.05430601	0.05430601	0	62197.55	62197.477	-8.6675e-06	680288.94	161547.64	-9.028024e-05	161548.83	680289.06	-2.7033535e-05
0	0.60114837	0.60114765	-6.552074e-12	0.05416443	0.05416443	0	62180.55	62180.477	-6.6417633e-06	680360.8	161245.7	-0.00012651972	161246.86	680361	3.662409e-05
0	0.60098463	0.60098386	-2.766954e-10	0.054023527	0.054023527	0	62163.617	62163.54	-2.802435e-05	680432.3	160944.98	-0.00019716572	160946.16	680432.44	-0.00018214108
0	0.6008201	0.60081947	-3.2806682e-10	0.053881653	0.053881653	0	62146.605	62146.523	-2.5155425e-05	680503.75	160643.28	-0.00010478157	160644.42	680503.94	-0.00023569462
0	0.60065573	0.600655	-1.8294594e-10	0.053740732	0.053740732	0	62129.594	62129.51	-2.2784781e-05	680575.1	160341.72	-0.00015626581	160342.89	680575.25	-0.00015212396
0	0.6004897	0.600489	-3.277914e-10	0.05359921	0.05359921	0	62112.426	62112.344	-2.4180537e-05	680646.94	160037.44	-0.00019355603	160038.58	680647.06	-0.00013372523
0	0.60032535	0.60032463	-1.9133647e-10	0.053458266	0.053458266	0	62095.426	62095.35	-1.955763e-05	680717.9	159736.52	-0.00021138719	159737.66	680718.06	-5.3323434e-05
0	0.6001586	0.6001578	-1.2160609e-10	0.053315062	0.053315062	0	62078.168	62078.1	-3.94536e-06	680789.7	159431.05	-0.00014019725	159432.23	680789.94	8.6797205e-05
0	0.5999938	0.59999317	-3.4892716e-10	0.05317402	0.05317402	0	62061.125	62061.05	-3.6672995e-05	680860.44	159129.75	-0.00032773725	159130.88	680860.5	-0.00016862813
0	0.599827	0.5998262	-1.4722705e-10	0.053032607	0.053032607	0	62043.875	62043.793	-2.3940565e-05	680931.9	158824.69	-0.00014520585	158825.84	680932.06	-0.00017882737
0	0.5996601	0.5996595	-2.7904387e-10	0.052891202	0.052891202	0	62026.617	62026.543	-2.2384658e-05	681003.1	158519.9	-0.000164861	158521.03	681003.25	-0.00013811316
0	0.5994931	0.5994924	-2.3931265e-10	0.052749805	0.052749805	0	62009.344	62009.26	-2.256596e-05	681074.2	158214.95	-0.00016428546	158216.11	681074.56	-0.00014114262
0	0.59932536	0.5993247	-1.7465752e-10	0.05260872	0.05260872	0	61991.98	61991.914	-2.0259748e-05	681145.6	157908.73	-0.00015833614	157909.89	681145.75	-0.000115877534
0	0.59915805	0.59915733	-1.16228804e-10	0.05246734	0.05246734	0	61974.676	61974.605	-8.828496e-06	681216.5	157603.66	-0.00010875944	157604.78	681216.56	-1.0733386e-05
0	0.59899175	0.598991	-2.9572657e-11	0.052325986	0.052325986	0	61957.477	61957.4	-1.6588278e-05	681286.8	157300.55	-8.88672e-05	157301.64	681286.94	-0.00013565354
0	0.5988229	0.5988222	-1.7502176e-10	0.052184872	0.052184872	0	61940.02	61939.938	-1.6664982e-05	681357.9	156992.98	-0.00021859226	156994.14	681358.06	-6.9666676e-06
0	0.59865373	0.5986531	-1.2101715e-11	0.05204354	0.05204354	0	61922.523	61922.45	-1.2425344e-05	681429	156685.2	-0.00013676532	156686.31	681429.1	-3.141051e-05
0	0.59848267	0.598482	-2.2171974e-10	0.051902063	0.051902063	0	61904.824	61904.75	-2.2830882e-05	681500.7	156373.92	-0.00012801035	156375.06	681500.94	-0.0001810034
0	0.59831613	0.5983154	-3.5106962e-10	0.05176075	0.05176075	0	61887.586	61887.523	-3.3762313e-05	681570.44	156071.05	-0.00023811894	156072.2	681570.5	-0.00021885069
0	0.59814626	0.5981456	-2.6886207e-10	0.05161957	0.05161957	0	61870.023	61869.96	-1.995265e-05	681641.1	155762.52	-0.00016472056	155763.64	681641.4	-0.000105336614
0	0.59797555	0.5979749	-1.7460884e-10	0.05147645	0.05147645	0	61852.367	61852.3	-3.0232366e-05	681712.2	155452.5	-0.00012745651	155453.61	681712.4	-0.00028173559
0	0.5978059	0.5978052	-7.2025795e-11	0.051335365	0.051335365	0	61834.812	61834.74	-1.2132091e-05	681782.6	155144.5	-0.00010160362	155145.61	681782.7	-6.2603045e-05
0	0.59763587	0.5976352	-1.9116517e-10	0.051193982	0.051193982	0	61817.227	61817.15	-1.2139797e-05	681852.9	154836.25	-8.269727e-05	154837.38	681853	-8.16137e-05
0	0.59746295	0.5974623	-2.3404917e-11	0.051052876	0.051052876	0	61799.35	61799.273	-3.6741853e-06	681924.1	154522.9	-0.00010627337	154524.03	681924.4	5.654363e-05
0	0.59729207	0.5972913	-5.2399207e-11	0.05091117	0.05091117	0	61781.676	61781.594	-2.3189024e-05	681994.5	154213.27	-0.00017426725	154214.38	681994.7	-0.00013959393
0	0.5971217	0.59712106	-1.4395324e-10	0.050769925	0.050769925	0	61764.05	61763.98	-1.0351385e-05	682064.3	153904.95	-0.0001684326	153906.06	682064.56	2.8327593e-05
0	0.5969483	0.59694767	-1.7928738e-10	0.05062868	0.05062868	0	61746.125	61746.05	-1.4080848e-05	682135.25	153591.38	-0.00015402284	153592.52	682135.4	-3.6560075e-05
0	0.59677774	0.5967771	-3.0329747e-10	0.050487477	0.050487477	0	61728.477	61728.4	-1.5986825e-05	682204.8	153282.92	-8.3558116e-05	153284.03	682205	-0.000132822
0	0.5966026	0.596602	-2.7445604e-10	0.050346322	0.050346322	0	61710.363	61710.29	-2.3629675e-05	682276.1	152966.48	-0.00018172445	152967.6	682276.25	-0.00013810092
0	0.5964327	0.596432	2.5482708e-11	0.050205022	0.050205022	0	61692.773	61692.7	-6.9788183e-07	682345.06	152659.58	-7.035669e-05	152660.67	682345.2	6.091093e-05
0	0.5962573	0.59625673	-9.85128e-11	0.05006385	0.05006385	0	61674.645	61674.574	-7.632969e-06	682415.94	152343.28	-4.5747543e-05	152344.39	682416.1	-5.7563953e-05
0	0.5960831	0.5960825	-1.1670717e-10	0.04992218	0.04992218	0	61656.625	61656.555	3.045071e-06	682486.3	152028.95	-3.9367646e-05	152030.08	682486.5	8.058239e-05
0	0.5959103	0.5959097	-3.372885e-10	0.049780898	0.049780898	0	61638.75	61638.676	-3.1031726e-05	682555.8	151717.56	-0.0002157842	151718.67	682556	-0.00020422721
0	0.5957351	0.59573454	-1.02872884e-10	0.049639706	0.049639706	0	61620.617	61620.55	-1.2436099e-05	682626.1	151401.89	-0.00011817482	151402.98	682626.25	-5.0146566e-05
0	0.59556305	0.59556246	-1.728547e-10	0.049496647	0.049496647	0	61602.836	61602.76	-1.2767805e-05	682694.94	151092.3	-0.00013203007	151093.42	682695.1	-4.0780942e-05
0	0.59538513	0.59538436	-3.1937072e-10	0.049355462	0.049355462	0	61584.418	61584.35	-3.4503217e-05	682766	150772.03	-0.00014714547	150773.17	682766.06	-0.0003198522
0	0.59521055	0.5952099	-1.5354397e-10	0.049214177	0.049214177	0	61566.363	61566.3	-2.0047344e-05	682835.4	150458.27	-0.00021984272	150459.38	682835.7	-5.149613e-05
0	0.5950341	0.59503335	-2.0513573e-10	0.049072508	0.049072508	0	61548.113	61548.04	-1.230914e-05	682905.5	150141.17	-5.767602e-05	150142.27	682905.6	-0.000108926986
0	0.59486	0.59485936	-2.2982626e-10	0.048931316	0.048931316	0	61530.1	61530.03	-1.9711872e-05	682974.3	149828.55	-0.00019642588	149829.66	682974.5	-7.037235e-05
0	0.59468544	0.59468484	2.7664631e-11	0.04879003	0.04879003	0	61512.05	61511.98	-1.3221661e-05	683043.1	149515.44	-9.4447634e-05	149516.55	683043.25	-8.450627e-05
0	0.5945061	0.59450537	4.43395e-11	0.048648838	0.048648838	0	61493.492	61493.426	-1.6095491e-05	683113.7	149193.66	-1.6353411e-05	149194.77	683113.94	-0.0002014975
0	0.594328	0.59432733	-2.7974525e-10	0.04850767	0.04850767	0	61475.074	61475.01	-2.9441802e-05	683183.5	148874.55	-0.0001438474	148875.62	683183.75	-0.00025464452
0	0.59415174	0.594151	2.4315997e-11	0.04836648	0.04836648	0	61456.844	61456.773	2.0673465e-06	683252.5	148558.75	-4.052073e-05	148559.86	683252.75	6.850206e-05
0	0.59397286	0.5939722	-1.1642255e-10	0.04822517	0.04822517	0	61438.332	61438.273	-2.3104349e-05	683322.4	148238.58	-0.00015547492	148239.67	683322.5	-0.00015724021
0	0.593798	0.5937974	-1.170045e-10	0.048083518	0.048083518	0	61420.258	61420.188	-1.6436494e-05	683390.25	147925.84	-7.87206e-05	147926.94	683390.44	-0.00014374574
0	0.5936184	0.59361786	-1.2417518e-10	0.04794232	0.04794232	0	61401.688	61401.625	-7.2177563e-06	683459.9	147604.92	-3.4205437e-05	147606.03	683460.06	-6.3486186e-05
0	0.5934378	0.59343725	-1.921772e-10	0.04780102	0.04780102	0	61383	61382.945	-1.9331113e-05	683529.75	147282.16	-8.654516e-05	147283.23	683529.94	-0.0001750996
0	0.5932587	0.5932581	-1.5997084e-10	0.04765983	0.04765983	0	61364.477	61364.406	-3.269781e-05	683598.75	146962.33	-0.00019039008	146963.42	683599	-0.00025217157
0	0.59308016	0.5930795	-2.6762803e-10	0.047516864	0.047516864	0	61346	61345.938	-2.2527927e-05	683667.44	146643.67	-8.539537e-05	146644.77	683667.7	-0.00021951794
0	0.5928998	0.59289926	-2.5451274e-10	0.04737567	0.04737567	0	61327.35	61327.29	-2.4034987e-05	683736.56	146322.11	-0.00014844943	146323.22	683736.8	-0.0001768618
0	0.5927216	0.59272105	-2.0188312e-10	0.04723435	0.04723435	0	61308.918	61308.855	-2.2978244e-05	683804.6	146004.55	-0.00017420926	146005.62	683804.9	-0.00013679905
0	0.5925388	0.5925383	-1.6506906e-10	0.047092684	0.047092684	0	61290.01	61289.95	-2.5118381e-05	683874.3	145678.97	-6.0332044e-05	145680.08	683874.56	-0.0002796428
0	0.5923576	0.5923569	-1.5528882e-10	0.046951488	0.046951488	0	61271.27	61271.2	-3.3564625e-05	683943.2	145356.36	-0.00013861446	145357.48	683943.4	-0.0003156795
0	0.5921771	0.5921764	-1.6897535e-10	0.046810202	0.046810202	0	61252.594	61252.53	-9.653958e-07	684011.6	145035.27	-6.065808e-05	145036.34	684011.8	4.759154e-05
0	0.59199524	0.5919946	-1.8829782e-10	0.04666901	0.04666901	0	61233.79	61233.727	-1.3150506e-05	684080.2	144711.98	-0.00011379344	144713.1	684080.44	-6.419737e-05
0	0.5918128	0.5918121	-1.641072e-10	0.04652784	0.04652784	0	61214.914	61214.836	-2.7229034e-05	684149	144387.77	-0.00017868345	144388.86	684149.2	-0.00018985887
0	0.59163064	0.5916299	-2.447719e-10	0.046386525	0.046386525	0	61196.07	61196	-3.1856747e-05	684217.4	144064.42	-0.00020396791	144065.5	684217.56	-0.00022721013
0	0.5914479	0.59144723	-2.4187205e-10	0.046245333	0.046245333	0	61177.176	61177.105	-2.0253538e-05	684285.75	143740.23	-0.00029771586	143741.33	684286	2.3586206e-05
0	0.59126496	0.59126425	-2.150285e-10	0.04610365	0.04610365	0	61158.242	61158.18	-2.3792387e-05	684354.06	143415.8	-0.00024271723	143416.89	684354.25	-7.9310405e-05
0	0.5910818	0.5910811	6.3899504e-11	0.04596245	0.04596245	0	61139.3	61139.227	-1.8298073e-05	684422.25	143091.17	-0.00012988878	143092.27	684422.44	-0.00011777385
0	0.590898	0.5908974	-2.462853e-10	0.04582115	0.04582115	0	61120.29	61120.227	-2.4268988e-05	684490.4	142765.69	-0.00019005571	142766.77	684490.56	-0.00013842269
0	0.59071356	0.59071296	-1.8829634e-10	0.045679953	0.045679953	0	61101.22	61101.15	-2.5016936e-05	684558.56	142439.36	-0.00015736198	142440.44	684558.8	-0.00018123984
0	0.59052885	0.59052825	-6.5686345e-11	0.04553704	0.04553704	0	61082.105	61082.05	-2.0821253e-05	684626.7	142112.6	-0.00016424595	142113.66	684626.94	-0.00011756768
0	0.590344	0.59034336	-1.7732045e-10	0.04539575	0.04539575	0	61062.99	61062.926	7.2818993e-06	684694.7	141785.84	-6.754963e-05	141786.92	684694.9	0.00016610943
0	0.59015965	0.590159	6.214547e-11	0.045254562	0.045254562	0	61043.914	61043.85	-2.1933982e-05	684762.2	141460.16	-6.0984552e-05	141461.23	684762.56	-0.00023588975
0	0.5899738	0.58997315	-1.4861395e-10	0.045112856	0.045112856	0	61024.688	61024.637	-9.877671e-06	684830.25	141132.03	-0.00016438046	141133.08	684830.44	3.0687133e-05