# t (s)	mx ()	my ()	mz ()	B_extx (T)	B_exty (T)	B_extz (T)	m_fullx (A/m)	m_fully (A/m)	m_fullz (A/m)	m_full.region1x (A/m)	m_full.region1y (A/m)	m_full.region1z (A/m)	m_full.region2x (A/m)	m_full.region2y (A/m)	m_full.region2z (A/m)
0	0.64514154	0.6451856	-5.1100815e-11	0.07071097	0.07071097	0	63807.594	63811.95	-8.75015e-06	631381.3	271642.34	2.4448951e-05	271651.75	631782.7	-0.00014838688
0	0.64504397	0.645086	-2.585228e-10	0.070569366	0.070569366	0	63797.938	63802.1	-2.4882955e-05	631457.94	271426.9	-0.00021246292	271438.25	631858.9	-0.00013972257
0	0.6449412	0.64498264	-1.08333176e-10	0.07042761	0.07042761	0	63787.773	63791.883	-1.9400988e-05	631538.6	271201.38	-0.00012771126	271213.56	631939.9	-0.00014691903
0	0.64483744	0.6448783	-2.8978425e-10	0.07028633	0.07028633	0	63777.52	63781.57	-2.4818892e-05	631620.06	270973.78	-0.00016568163	270986.78	632021.6	-0.00018563955
0	0.6447359	0.6447763	-3.583018e-10	0.07014479	0.07014479	0	63767.477	63771.47	-3.2811888e-05	631699.56	270751.22	-0.00027803038	270764.9	632101.44	-0.0001863807
0	0.64463216	0.644672	-5.665684e-10	0.07000352	0.07000352	0	63757.21	63761.164	-5.1213527e-05	631780.25	270524.4	-0.00033138876	270538.94	632182.44	-0.0003935686
0	0.6445276	0.6445669	-2.1952813e-10	0.06986232	0.06986232	0	63746.875	63750.77	-2.21864e-05	631862.6	270294.78	-0.00012790172	270310.12	632265	-0.00018617409
0	0.64442575	0.64446455	-2.813207e-10	0.0697207	0.0697207	0	63736.793	63740.625	-1.9971718e-05	631942.1	270071.72	-0.00021165937	270087.84	632344.8	-7.0976246e-05
0	0.6443208	0.6443591	-4.3193332e-10	0.06957944	0.06957944	0	63726.426	63730.2	-3.8349084e-05	632023.25	269842.7	-0.00029337086	269859.56	632426.3	-0.00024944128
0	0.6442174	0.6442551	3.4111994e-11	0.0694377	0.0694377	0	63716.195	63719.926	6.9729467e-06	632104.06	269616.2	2.7717759e-05	269633.84	632507.5	7.100435e-05
0	0.64411294	0.64415014	-3.2580103e-10	0.069296405	0.069296405	0	63705.855	63709.54	-3.0227058e-05	632185.25	269387.9	-0.00017909762	269406.38	632588.94	-0.00024879913
0	0.64400864	0.64404535	-2.0812536e-10	0.06915487	0.06915487	0	63695.55	63699.18	-1.41936125e-05	632266.25	269160.1	-8.520117e-05	269179.3	632670.25	-0.00011572379
0	0.64390343	0.6439395	-5.361899e-10	0.0690136	0.0690136	0	63685.137	63688.707	-5.2859006e-05	632347.5	268930.44	-0.00038645926	268950.44	632751.9	-0.00036174993
0	0.6437982	0.64383376	-3.4114225e-10	0.06887232	0.06887232	0	63674.73	63678.25	-3.5153804e-05	632429.06	268700.62	-0.00027700266	268721.47	632833.75	-0.00022057445
0	0.6436937	0.6437287	-3.6063746e-10	0.06873079	0.06873079	0	63664.387	63667.863	-4.04888e-05	632509.6	268472.78	-0.0003737905	268494.38	632914.7	-0.0001992494
0	0.643586	0.64362055	-1.4003847e-10	0.0685895	0.0685895	0	63653.742	63657.164	-1.5947258e-05	632592.4	268238.34	-9.463761e-05	268260.75	632997.8	-0.00013111299
0	0.64348185	0.6435158	-1.8768859e-10	0.068447776	0.068447776	0	63643.438	63646.805	-2.2991046e-05	632672.6	268011.4	-0.00017992324	268034.56	633078.4	-0.00014549981
0	0.6433763	0.6434098	-2.7883001e-10	0.0683065	0.0683065	0	63633	63636.312	-2.955124e-05	632753.6	267781.72	-0.00028866658	267805.7	633159.6	-0.000129559
0	0.64326996	0.64330286	-2.5273567e-10	0.06816496	0.06816496	0	63622.48	63625.74	-2.367561e-05	632834.7	267550.8	-9.971404e-05	267575.53	633241.06	-0.00023547713
0	0.6431622	0.64319456	-2.432913e-10	0.068023674	0.068023674	0	63611.824	63615.03	-1.4551586e-05	632917.3	267316.4	-0.00012296697	267341.9	633324.06	-8.2992774e-05
0	0.6430569	0.6430888	-1.9054876e-10	0.067882404	0.067882404	0	63601.414	63604.574	-1.589438e-05	632997.4	267088.03	-0.00018149902	267114.3	633404.5	-4.3422966e-05
0	0.6429482	0.6429796	-8.2332474e-11	0.067740865	0.067740865	0	63590.664	63593.77	-5.2138357e-06	633080.44	266851.84	-4.795155e-05	266878.97	633487.8	-2.5840282e-05
0	0.64284265	0.64287347	-2.4858335e-10	0.06759956	0.06759956	0	63580.227	63583.273	-1.9955583e-05	633160.7	266622.9	-0.0002724614	266650.78	633568.44	-9.889898e-06
0	0.6427353	0.6427656	-2.9435143e-10	0.06745787	0.06745787	0	63569.6	63572.594	-2.4185681e-05	633242.4	266390	-0.0002207226	266418.7	633650.4	-0.00012158084
0	0.64262605	0.64265585	-4.0182815e-10	0.067316584	0.067316584	0	63558.8	63561.75	-3.1842865e-05	633325.06	266153.38	-0.00020610035	266182.84	633733.5	-0.00024465393
0	0.6425197	0.6425489	-7.880443e-11	0.067174956	0.067174956	0	63548.273	63551.176	-1.1197784e-05	633405.56	265923.12	-0.00011995135	265953.38	633814.3	-3.851618e-05
0	0.64241153	0.6424403	-3.649122e-10	0.06703376	0.06703376	0	63537.582	63540.426	-3.8083905e-05	633487.1	265689.2	-0.00021140686	265720.22	633896.2	-0.00032772517
0	0.64230347	0.6423317	-4.012228e-10	0.06689248	0.06689248	0	63526.9	63529.695	-4.0881714e-05	633568.8	265455.3	-0.0003744953	265487.12	633978.25	-0.00020410823
0	0.6421932	0.6422209	-1.1247524e-10	0.06675091	0.06675091	0	63515.99	63518.73	-9.446882e-06	633651.8	265217.03	-0.00015761761	265249.62	634061.56	2.3980105e-05
0	0.6420856	0.64211285	-2.8628014e-10	0.06660963	0.06660963	0	63505.355	63508.043	-2.9987985e-05	633732.56	264984.75	-0.000209922	265018.16	634142.7	-0.00021456082
0	0.6419771	0.6420037	-3.2442496e-10	0.066467956	0.066467956	0	63494.613	63497.258	-2.8906536e-05	633813.94	264750.44	-0.00025692504	264784.62	634224.44	-0.00015219965
0	0.6418659	0.6418921	-2.8720173e-10	0.06632633	0.06632633	0	63483.613	63486.207	-3.2727596e-05	633897.3	264510.44	-0.00021995034	264545.38	634308.1	-0.00024332035
0	0.6417578	0.64178336	-3.4181266e-10	0.06618504	0.06618504	0	63472.926	63475.46	-3.3073175e-05	633978.2	264277.28	-0.0002439373	264313.06	634389.4	-0.00022420529
0	0.6416484	0.6416736	-1.8827938e-10	0.06604385	0.06604385	0	63462.113	63464.594	-2.4462983e-05	634059.8	264041.7	-0.00016051043	264078.25	634471.3	-0.00018577532
0	0.6415377	0.6415624	-2.6298244e-10	0.06590254	0.06590254	0	63451.164	63453.594	-3.1612617e-05	634141.7	263803.88	-0.0002055318	263841.2	634553.56	-0.00024196235
0	0.64142597	0.64145	-1.3789875e-10	0.065760985	0.065760985	0	63440.113	63442.49	-1.542294e-05	634225.25	263562.8	-7.056314e-05	263600.97	634637.5	-0.00014778442
0	0.64131737	0.641341	-3.156333e-10	0.0656197	0.0656197	0	63429.375	63431.707	-3.1861586e-05	634305.6	263329.53	-0.00015999028	263368.5	634718.25	-0.00029107148
0	0.64120597	0.6412291	-2.2355005e-10	0.06547804	0.06547804	0	63418.35	63420.637	-2.6649097e-05	634387.94	263090.38	-0.00017708272	263130.06	634800.94	-0.0002001465
0	0.64109546	0.641118	-2.024202e-10	0.06533641	0.06533641	0	63407.418	63409.65	-1.6521783e-05	634469.94	262852.66	-0.00014807338	262893.16	634883.3	-8.5764266e-05
0	0.640984	0.641006	-1.3114636e-10	0.06519513	0.06519513	0	63396.387	63398.57	-1.2254603e-05	634552.25	262613.34	-6.350044e-05	262654.62	634966.06	-0.000109985114
0	0.64087266	0.6408941	-1.9106498e-10	0.06505393	0.06505393	0	63385.375	63387.5	-1.8522478e-05	634634.7	262374.06	-0.00010610998	262416.12	635048.75	-0.00015609912
0	0.6407612	0.64078224	-3.4209036e-10	0.06491261	0.06491261	0	63374.363	63376.438	-2.5224519e-05	634716.5	262135.36	-0.00015633008	262178.22	635131	-0.00020074403
0	0.640647	0.64066744	-2.027861e-10	0.064771056	0.064771056	0	63363.07	63365.086	-1.38772175e-05	634800.5	261890.44	-9.835842e-06	261934.14	635215.3	-0.0001866777
0	0.64053655	0.6405565	-2.3254458e-10	0.06462978	0.06462978	0	63352.137	63354.113	-1.4937183e-05	634881.3	261654.08	-0.00016973067	261698.52	635296.56	-4.164674e-05
0	0.6404237	0.6404432	-3.8332218e-10	0.06448806	0.06448806	0	63340.99	63342.914	-3.1771877e-05	634963.94	261412.7	-0.00017544966	261457.97	635379.5	-0.0002743275
0	0.64031136	0.6403303	-2.2667518e-10	0.0643465	0.0643465	0	63329.863	63331.74	-2.3917679e-05	635046.06	261172.17	-0.00011440847	261218.19	635462	-0.00022419728
0	0.6401964	0.64021486	-3.9340586e-10	0.064205214	0.064205214	0	63318.5	63320.324	-3.8934155e-05	635130	260926.39	-0.00022586474	260973.23	635546.4	-0.00032529485
0	0.6400849	0.640103	-2.0541832e-10	0.06406398	0.06406398	0	63307.477	63309.258	-1.5350724e-05	635210.9	260688.61	-0.00011036684	260736.22	635627.6	-0.000106921485
0	0.6399707	0.63998824	-2.9066866e-10	0.063922696	0.063922696	0	63296.18	63297.906	-2.4970563e-05	635293.7	260444.89	-0.00016353767	260493.31	635710.8	-0.00018993339
0	0.6398573	0.63987416	-3.4153574e-10	0.06378113	0.06378113	0	63284.96	63286.637	-2.8911574e-05	635376.56	260202.27	-0.00020504121	260251.48	635794.06	-0.00020420252
0	0.6397437	0.63976014	-2.1044394e-10	0.06363943	0.06363943	0	63273.72	63275.35	-2.4168705e-05	635458.75	259960.06	-0.00016657115	260010.06	635876.56	-0.0001755416
0	0.63962877	0.6396447	-2.5865013e-10	0.06349815	0.06349815	0	63262.355	63263.93	-2.2631964e-05	635541.4	259715.61	-0.00026764662	259766.39	635959.75	-5.2610714e-05
0	0.63951474	0.6395301	-2.2573439e-10	0.063356586	0.063356586	0	63251.07	63252.6	-2.2649929e-05	635624	259472.31	-0.00013610067	259523.92	636042.7	-0.00018453185
0	0.6393998	0.6394147	-1.789729e-10	0.06321526	0.06321526	0	63239.707	63241.188	-1.6643928e-05	635706.7	259227.86	-0.00012152784	259280.25	636125.8	-0.00011406396
0	0.6392845	0.63929904	-2.545978e-10	0.06307407	0.06307407	0	63228.312	63229.74	-2.9050421e-05	635789.5	258982.81	-0.00014520889	259035.98	636208.94	-0.00026605604
0	0.639169	0.6391829	-3.0718156e-10	0.062932774	0.062932774	0	63216.883	63218.25	-2.7268514e-05	635872.9	258736.66	-0.00016571127	258790.64	636292.7	-0.00022030028
0	0.63905394	0.6390674	-1.8242302e-10	0.06279112	0.06279112	0	63205.51	63206.836	-2.5423553e-05	635955.1	258492.48	-0.00020015343	258547.23	636375.4	-0.00015969905
0	0.6389371	0.63895005	-3.1309935e-10	0.06264953	0.06264953	0	63193.945	63195.227	-3.2856173e-05	636038.1	258244.84	-0.0002130399	258300.4	636458.8	-0.00025205794
0	0.6388213	0.6388337	-2.6189e-10	0.06250824	0.06250824	0	63182.492	63183.727	-2.4918705e-05	636121.4	257998.44	-0.00023429962	258054.8	636542.5	-0.00011837213
0	0.6387053	0.63871723	-2.9043326e-10	0.062366635	0.062366635	0	63171.02	63172.2	-3.0355577e-05	636203.94	257752.69	-0.0002581338	257809.83	636625.4	-0.0001715104
0	0.63858885	0.6386003	-2.1368925e-10	0.06222535	0.06222535	0	63159.5	63160.637	-2.207301e-05	636286.56	257506.06	-0.00014242412	257564	636708.4	-0.00017003258
0	0.63846993	0.6384809	-2.7722732e-10	0.06208415	0.06208415	0	63147.742	63148.832	-3.1135638e-05	636371.2	257254.06	-0.00024989675	257312.8	636793.44	-0.00019080187
0	0.6383546	0.63836515	-3.804866e-10	0.061942477	0.061942477	0	63136.336	63137.375	-3.865138e-05	636452.7	257010.14	-0.00021999211	257069.66	636875.4	-0.00032716835
0	0.6382371	0.6382471	-2.2833352e-10	0.061801177	0.061801177	0	63124.707	63125.7	-2.5233609e-05	636535.75	256761.55	-0.00017840965	256821.88	636958.8	-0.0001787729
0	0.6381179	0.63812727	-1.2492923e-10	0.061659623	0.061659623	0	63112.926	63113.863	-1.1847186e-05	636620.25	256509.23	-8.757489e-05	256570.38	637043.7	-8.01189e-05
0	0.6380015	0.63801044	-8.147451e-11	0.06151831	0.06151831	0	63101.406	63102.3	-1.3346474e-05	636702	256263.61	-7.0374146e-05	256325.5	637125.9	-0.00011856766
0	0.63788146	0.63789	-7.802351e-11	0.06137672	0.06137672	0	63089.54	63090.383	-1.17074205e-05	636786.6	256009.95	-9.735051e-05	256072.69	637210.94	-6.8355024e-05
0	0.6377646	0.6377727	-8.9465324e-11	0.061235435	0.061235435	0	63077.98	63078.773	-4.262312e-06	636868.56	255763.5	5.3416665e-05	255826.98	637293.4	-0.00011382656
0	0.6376466	0.6376541	-4.070562e-10	0.061094135	0.061094135	0	63066.305	63067.055	-4.3621614e-05	636951.4	255514.55	-0.00028592342	255578.83	637376.44	-0.0003315626
0	0.63752675	0.6375337	-2.362777e-10	0.06095255	0.06095255	0	63054.457	63055.15	-2.3356242e-05	637034.7	255262.5	-0.00023522168	255327.55	637460.25	-9.53223e-05
0	0.6374072	0.6374138	-2.1764765e-10	0.06081125	0.06081125	0	63042.637	63043.29	-1.9297851e-05	637118.06	255010.81	-0.00017379846	255076.69	637544.06	-9.9328936e-05
0	0.6372878	0.63729393	-2.1545431e-10	0.06066969	0.06066969	0	63030.824	63031.426	-1.8730749e-05	637201.5	254759.39	-0.00018724137	254826.03	637627.9	-7.7842655e-05
0	0.6371684	0.637174	-3.950479e-10	0.060528405	0.060528405	0	63019.01	63019.574	-3.9587296e-05	637284.56	254508.23	-0.0002151007	254575.66	637711.3	-0.00034531823
0	0.6370479	0.637053	-2.3877425e-10	0.060386807	0.060386807	0	63007.1	63007.6	-1.8372846e-05	637368.25	254254.83	-0.00015008321	254323.02	637795.44	-0.00010996649
0	0.63692623	0.6369308	-2.6936042e-10	0.060245506	0.060245506	0	62995.062	62995.51	-2.3254388e-05	637453.06	253998.62	-0.00018388941	254067.69	637880.75	-0.00014525931
0	0.6368074	0.63681155	-1.7903824e-10	0.06010422	0.06010422	0	62983.312	62983.72	-1.8287963e-05	637535	253749.48	-0.00019791326	253819.3	637963.1	-6.089042e-05
0	0.63668513	0.6366887	-1.5250064e-10	0.05996261	0.05996261	0	62971.207	62971.57	-1.7707676e-05	637619.9	253492.34	-0.00017586244	253563	638048.3	-7.474375e-05
0	0.6365653	0.63656855	-3.0516514e-10	0.059821296	0.059821296	0	62959.375	62959.688	-2.9445911e-05	637702.06	253241.61	-0.00015708768	253313.05	638130.94	-0.00025976705
0	0.63644177	0.63644445	-7.5725495e-11	0.059679788	0.059679788	0	62947.15	62947.406	-6.7696624e-06	637787.4	252982.34	-7.8282756e-05	253054.61	638216.7	-1.75141e-05
0	0.63632137	0.6363235	-1.12777225e-10	0.05953849	0.05953849	0	62935.24	62935.46	-3.2821342e-06	637870	252730.16	-0.00010786307	252803.17	638299.8	6.14821e-05
0	0.63619953	0.63620126	-3.4050893e-10	0.059396796	0.059396796	0	62923.18	62923.35	-2.32138e-05	637953.5	252475.1	-0.00016070768	252548.92	638383.7	-0.00016788757
0	0.6360775	0.6360787	-8.5664e-11	0.059255593	0.059255593	0	62911.113	62911.24	-7.399326e-06	638036.94	252219.89	-2.0260932e-05	252294.45	638467.56	-8.450621e-05
0	0.6359551	0.63595587	-1.683493e-10	0.05911429	0.05911429	0	62899.01	62899.094	-1.5536361e-05	638120.5	251964.06	-0.00023472466	252039.44	638551.6	1.4921647e-05
0	0.6358321	0.63583237	-2.177642e-10	0.058972668	0.058972668	0	62886.844	62886.875	-1.6230346e-05	638204.06	251707.33	-0.00020421809	251783.52	638635.6	-2.5440822e-05
0	0.6357086	0.63570845	-1.7663702e-11	0.058831364	0.058831364	0	62874.625	62874.613	-7.3820074e-06	638288	251449.44	-6.655278e-05	251526.42	638720	-3.7926595e-05
0	0.6355858	0.6355851	-3.4329065e-10	0.05868988	0.05868988	0	62862.48	62862.418	-3.2553926e-05	638371.6	251192.98	-0.00019255448	251270.73	638804.1	-0.00026828193
0	0.6354616	0.6354605	-2.9564778e-10	0.05854817	0.05854817	0	62850.2	62850.1	-3.5343433e-05	638455.6	250934.23	-0.00020290999	251012.78	638888.5	-0.0002974206
0	0.63533765	0.63533604	-1.1157339e-10	0.05840688	0.05840688	0	62837.945	62837.79	-4.1225626e-06	638539.6	250675.7	3.3203934e-05	250755.03	638973	-9.16162e-05
0	0.63521343	0.63521135	-3.9367776e-10	0.05826568	0.05826568	0	62825.65	62825.45	-3.6311474e-05	638623.56	250416.86	-0.00020944272	250496.98	639057.4	-0.00030459085
0	0.6350887	0.6350862	-1.9785658e-10	0.058124352	0.058124352	0	62813.32	62813.07	-2.0998817e-05	638707.75	250157.2	-9.950641e-05	250238.16	639141.94	-0.00019777751
0	0.6349641	0.6349611	-1.7111838e-10	0.057982735	0.057982735	0	62801	62800.707	-2.5496392e-05	638791.44	249898.14	-0.00029259312	249979.88	639226.1	-6.820599e-05
0	0.634839	0.6348356	-2.3298138e-10	0.05784144	0.05784144	0	62788.625	62788.29	-2.6604257e-05	638875.44	249638.11	-7.7535406e-05	249720.62	639310.5	-0.00029915024
0	0.63471323	0.6347093	-2.6822203e-10	0.057699878	0.057699878	0	62776.188	62775.8	-2.652877e-05	638959.75	249376.77	-0.00024660793	249460.05	639395.4	-0.00012885347
0	0.634588	0.63458365	-1.4639918e-10	0.057558257	0.057558257	0	62763.8	62763.367	-9.792343e-06	639043.56	249116.62	-5.867739e-05	249200.73	639479.6	-7.9943246e-05
0	0.6344619	0.6344571	-2.4918748e-10	0.057416957	0.057416957	0	62751.324	62750.844	-2.8765071e-05	639127.6	248854.98	-0.0001991681	248939.86	639564.25	-0.00020800627
0	0.63433594	0.63433063	-4.310449e-10	0.05727573	0.05727573	0	62738.867	62738.344	-3.997428e-05	639211.5	248593.81	-0.00030290632	248679.52	639648.56	-0.0002629123
0	0.6342093	0.63420355	-1.6639608e-10	0.05713443	0.05713443	0	62726.35	62725.78	-2.3044171e-05	639295.7	248331.52	-8.319817e-05	248417.98	639733.1	-0.00024306605
0	0.63408136	0.63407516	-2.4058713e-10	0.05699281	0.05699281	0	62713.7	62713.074	-2.448702e-05	639380.9	248066.28	-0.00015368081	248153.55	639818.8	-0.0001929516
0	0.63395554	0.6339488	-2.8263736e-10	0.056851286	0.056851286	0	62701.242	62700.582	-2.9866662e-05	639463.75	247806.12	-0.0001317043	247894.14	639902.1	-0.00029113222
0	0.63382745	0.63382035	-1.9739518e-10	0.056709964	0.056709964	0	62688.582	62687.867	-1.8939829e-05	639548.56	247541.17	-8.990505e-05	247630	639987.44	-0.00017822925
0	0.6337	0.63369244	-1.2811148e-10	0.056568343	0.056568343	0	62675.99	62675.227	-8.567084e-06	639632.94	247277.55	-2.9070981e-05	247367.16	640072.2	-9.222529e-05
0	0.6335723	0.63356423	-1.4804134e-10	0.05642702	0.05642702	0	62663.344	62662.543	-1.3931106e-05	639716.75	247013.84	-0.00012126004	247104.27	640156.56	-7.591431e-05
0	0.63344365	0.6334353	-2.1805431e-10	0.05628581	0.05628581	0	62650.625	62649.79	-1.7004222e-05	639801.06	246748.52	-0.00013415127	246839.7	640241.3	-0.00010653126
0	0.6333155	0.63330656	-1.8113465e-10	0.056144506	0.056144506	0	62637.945	62637.062	-1.9759089e-05	639885.1	246484.05	-0.00017198129	246576.02	640325.9	-0.0001076796
0	0.6331861	0.6331766	-2.0308757e-10	0.056002766	0.056002766	0	62625.145	62624.21	-2.5019854e-05	639970.3	246216.64	-0.00012020404	246309.42	640411.56	-0.00023400484
0	0.6330573	0.63304746	-1.4300182e-10	0.055861373	0.055861373	0	62612.406	62611.426	-1.4945869e-05	640054.1	245951.72	-0.00012581983	246045.27	640495.9	-8.572091e-05
0	0.63292766	0.6329174	-2.444178e-10	0.05572006	0.05572006	0	62599.586	62598.574	-2.2806727e-05	640138.6	245684.77	-0.00020283238	245779.08	640580.8	-0.00011995942
0	0.63279825	0.63278747	-3.327365e-11	0.05557843	0.05557843	0	62586.773	62585.727	-6.3919942e-06	640222.8	245418.4	-4.0707255e-05	245513.5	640665.5	-4.977575e-05
0	0.63266754	0.6326564	-1.5010451e-10	0.055437095	0.055437095	0	62573.863	62572.75	-1.4183968e-05	640308.06	245149.31	-7.513531e-05	245245.23	640751.2	-0.00012566232
0	0.63253707	0.63252544	-1.680577e-10	0.055295892	0.055295892	0	62560.957	62559.8	-8.894271e-06	640392.7	244881.02	-7.403181e-05	244977.73	640836.3	-5.1856638e-05
0	0.63240635	0.6323944	-3.1921332e-10	0.055154584	0.055154584	0	62548.03	62546.836	-3.0275627e-05	640477.3	244612.55	-0.00026366024	244710.06	640921.44	-0.00016484669
0	0.6322762	0.6322638	-1.4209717e-10	0.05501284	0.05501284	0	62535.156	62533.918	-7.071023e-06	640561.1	244345.5	-4.9774928e-05	244443.78	641005.8	-5.0315837e-05
0	0.63214433	0.6321314	-6.560697e-11	0.054871462	0.054871462	0	62522.113	62520.836	-6.491076e-07	640646.2	244074.84	-4.7195834e-05	244173.89	641091.4	3.804682e-05
0	0.6320129	0.6319995	-2.46284e-10	0.05473016	0.05473016	0	62509.105	62507.793	-3.455046e-05	640731.06	243805.11	-0.00024805608	243904.95	641176.6	-0.0002410033
0	0.63188154	0.63186777	-3.641389e-10	0.054588504	0.054588504	0	62496.113	62494.75	-3.8509388e-05	640815.2	243536.11	-0.00031232537	243636.72	641261.25	-0.00023273943
0	0.6317492	0.6317349	-3.2845998e-10	0.05444718	0.05444718	0	62483.03	62481.617	-3.5826935e-05	640899.75	243265.27	-0.00026452163	243366.66	641346.4	-0.00024259949
0	0.6316163	0.63160163	-1.3326554e-10	0.054305978	0.054305978	0	62469.883	62468.426	-1.3746059e-05	640985.06	242992.94	3.3283824e-05	243095.12	641432.1	-0.00022797954
0	0.6314843	0.6314692	-2.620839e-10	0.054164223	0.054164223	0	62456.824	62455.336	-3.1064577e-05	641069.1	242723.11	-0.0002444106	242826.11	641516.8	-0.00019528678
0	0.6313506	0.63133496	-3.7001782e-10	0.0540229	0.0540229	0	62443.6	62442.062	-3.1398336e-05	641154.4	242449.66	-0.00023558465	242553.45	641602.5	-0.00020884733
0	0.6312176	0.6312017	-4.0693887e-10	0.053881556	0.053881556	0	62430.45	62428.867	-4.5080815e-05	641238.8	242178.1	-0.00030649322	242282.64	641687.5	-0.0003316384
0	0.6310837	0.6310673	-7.5690426e-11	0.053740222	0.053740222	0	62417.207	62415.574	-4.201891e-06	641323.75	241904.75	-3.3118635e-05	242010.08	641772.9	-2.6356136e-05
0	0.63094956	0.63093275	-3.5725398e-10	0.053598575	0.053598575	0	62403.938	62402.27	-3.494167e-05	641408.7	241631.22	-0.00016558134	241737.31	641858.3	-0.00032909395
0	0.6308151	0.6307978	-1.8525542e-10	0.053457268	0.053457268	0	62390.645	62388.93	-2.4397761e-05	641493.7	241356.9	-0.00014822351	241463.81	641943.9	-0.00019714989
0	0.63068044	0.6306628	-5.1451887e-10	0.053315945	0.053315945	0	62377.32	62375.574	-4.5012323e-05	641578.2	241082.95	-0.00032904695	241190.66	642028.9	-0.000308094
0	0.6305453	0.63052714	-4.1466502e-10	0.0531743	0.0531743	0	62363.957	62362.164	-3.965763e-05	641663.9	240807.17	-0.00036418092	240915.61	642115	-0.00019709714
0	0.63041025	0.6303917	-3.2532593e-10	0.053032976	0.053032976	0	62350.605	62348.76	-3.584929e-05	641748.7	240532.3	-0.00031896203	240641.53	642200.4	-0.00018842565
0	0.63027465	0.6302557	-3.014558e-10	0.052891634	0.052891634	0	62337.188	62335.312	-2.94713e-05	641833.7	240256.58	-0.00017308618	240366.58	642285.9	-0.00024411347
0	0.6301393	0.6301199	-3.2102393e-10	0.05275032	0.05275032	0	62323.805	62321.883	-2.6210604e-05	641917.94	239981.88	-0.00010150016	240092.64	642370.7	-0.00026958875
0	0.63000274	0.6299829	-3.666164e-10	0.05260866	0.05260866	0	62310.29	62308.336	-3.5247613e-05	642003.25	239704.34	-0.00023427242	239815.9	642456.6	-0.00026467242
0	0.6298667	0.62984645	-1.3141946e-10	0.05246734	0.05246734	0	62296.844	62294.836	-1.563958e-05	642088.25	239428.11	-0.00017105587	239540.45	642541.94	-5.026737e-05
0	0.6297299	0.62970924	-2.4662375e-10	0.052326016	0.052326016	0	62283.305	62281.26	-2.5617763e-05	642173.1	239150.67	-0.00021457611	239263.83	642627.44	-0.00014801338
0	0.6295924	0.6295714	-1.749255e-10	0.052184362	0.052184362	0	62269.707	62267.633	-1.6358405e-05	642258.56	238871.88	-0.00016710287	238985.75	642713.3	-6.440361e-05
0	0.6294547	0.6294331	-3.4703915e-10	0.052043013	0.052043013	0	62256.086	62253.96	-3.262789e-05	642344.1	238592.47	-0.00029552213	238707.12	642799.5	-0.00016626714
0	0.62931716	0.6292953	-3.5552514e-10	0.051901728	0.051901728	0	62242.49	62240.324	-4.2131735e-05	642429.1	238314.05	-0.0003264944	238429.53	642884.94	-0.00026985546
0	0.62917906	0.62915677	-2.7570402e-10	0.051760413	0.051760413	0	62228.824	62226.617	-3.0116707e-05	642514	238034.83	-0.00020726978	238151.06	642970.44	-0.00021903843
0	0.6290412	0.6290184	-2.056425e-10	0.05161863	0.05161863	0	62215.195	62212.95	-2.6125688e-05	642598.75	237756.12	-0.00013082198	237873.11	643055.75	-0.00023903749
0	0.6289019	0.62887883	2.1368617e-11	0.051477425	0.051477425	0	62201.418	62199.133	-5.8154938e-06	642684.3	237474.8	3.7960006e-05	237592.55	643141.8	-0.000120351135
0	0.6287632	0.6287396	-1.1755291e-10	0.0513361	0.0513361	0	62187.7	62185.367	-1.5579391e-05	642769.4	237194.4	-0.00026184297	237312.95	643227.44	4.1455503e-05
0	0.62862176	0.6285978	-1.4886979e-10	0.0511944	0.0511944	0	62173.707	62171.336	-7.6084552e-06	642856.4	236908.53	-7.152744e-05	237027.88	643314.94	-3.6154204e-05
0	0.6284838	0.62845933	-3.39297e-10	0.051053077	0.051053077	0	62160.055	62157.65	-3.788239e-05	642940.25	236630.39	-0.00028117097	236750.5	643399.44	-0.00025504327
0	0.6283442	0.6283193	-2.8763184e-10	0.050911825	0.050911825	0	62146.25	62143.805	-3.062974e-05	643025.2	236349.17	-0.0001434515	236470.02	643484.9	-0.00029018061
0	0.62820315	0.6281779	-3.5288075e-10	0.050770037	0.050770037	0	62132.3	62129.812	-3.659487e-05	643111.1	236064.78	-0.00019376772	236186.4	643571.4	-0.0003242935
0	0.6280626	0.62803704	-4.313812e-10	0.050628714	0.050628714	0	62118.4	62115.883	-4.366332e-05	643196.44	235781.84	-0.00029681248	235904.27	643657.2	-0.0003212541
0	0.62792027	0.62789434	-4.6909004e-10	0.0504875	0.0504875	0	62104.332	62101.76	-4.439083e-05	643282.75	235495.38	-0.00039126392	235618.58	643744.1	-0.0002370186
0	0.6277804	0.62775403	-9.151593e-11	0.050346155	0.050346155	0	62090.492	62087.887	-6.5785252e-06	643366.9	235214.39	-0.00013264886	235338.33	643828.8	3.960872e-05
0	0.6276375	0.62761074	-1.908219e-10	0.050204474	0.050204474	0	62076.363	62073.727	-2.175081e-05	643452.06	234928.33	-0.00012951001	235053	643914.5	-0.0001783957
0	0.62749684	0.6274697	-2.3978663e-10	0.05006314	0.05006314	0	62062.45	62059.76	-2.3139133e-05	643537.8	234644.58	-0.00025215914	234770.08	644000.75	-7.5294716e-05
0	0.62735456	0.627327	-1.9442613e-10	0.049921803	0.049921803	0	62048.375	62045.656	-1.9299332e-05	643623.25	234359.16	-0.00011895992	234485.39	644086.7	-0.00015423882
0	0.62721205	0.6271841	-1.2619963e-10	0.049780127	0.049780127	0	62034.293	62031.523	-1.2644776e-05	643708.5	234073.44	-6.159171e-05	234200.45	644172.56	-0.00011742104
0	0.62706906	0.6270407	-1.8260178e-10	0.049638797	0.049638797	0	62020.137	62017.336	-1.5276639e-05	643794.06	233786.66	-0.00010957361	233914.45	644258.7	-0.00010666628
0	0.62692577	0.62689704	-2.0151412e-10	0.04949756	0.04949756	0	62005.96	62003.117	-1.8540664e-05	643879.5	233499.7	-0.00012058493	233628.22	644344.75	-0.00014186841
0	0.62678105	0.62675196	-2.7001096e-10	0.04935623	0.04935623	0	61991.656	61988.773	-2.9845245e-05	643966	233209.7	-0.00024267536	233339	644431.8	-0.00017975597
0	0.6266373	0.6266079	-3.3831424e-10	0.04921455	0.04921455	0	61977.43	61974.523	-3.7314796e-05	644050.44	232923.08	-0.00019181681	233053.16	644516.75	-0.00033644142
0	0.6264935	0.6264637	-4.8801146e-10	0.049073216	0.049073216	0	61963.22	61960.26	-4.7021873e-05	644136.4	232634.92	-0.00038086085	232765.73	644603.4	-0.00028469082
0	0.6263471	0.6263169	-2.3053985e-10	0.04893189	0.04893189	0	61948.74	61945.75	-2.4666235e-05	644223.3	232342.11	-0.00024728486	232473.72	644690.8	-0.00010179956
0	0.626204	0.6261733	-4.1124482e-10	0.048790213	0.048790213	0	61934.574	61931.55	-4.6056695e-05	644307.6	232056.42	-0.00034336065	232188.81	644775.7	-0.0003085571
0	0.6260588	0.62602776	-7.252616e-11	0.048648853	0.048648853	0	61920.22	61917.156	-5.3258022e-06	644393	231766.88	-1.309112e-06	231900	644861.6	-7.411117e-05
0	0.6259129	0.6258815	-1.6473849e-10	0.04850764	0.04850764	0	61905.793	61902.68	-1.4479144e-05	644478.9	231475.84	-0.000106724474	231609.72	644948	-9.822428e-05
0	0.6257649	0.6257331	-2.925103e-10	0.048366304	0.048366304	0	61891.15	61888.01	-3.220021e-05	644565.94	231180.67	-0.000110349785	231315.33	645035.6	-0.00034555292
0	0.6256202	0.62558806	-2.4604127e-10	0.048224516	0.048224516	0	61876.85	61873.664	-2.7478236e-05	644650.56	230892.55	-0.0002157529	231027.94	645120.9	-0.00017318272
0	0.6254737	0.6254411	-1.5204019e-10	0.0480833	0.0480833	0	61862.336	61859.125	-1.3493491e-05	644736.25	230600.6	-0.00020848999	230736.8	645207.1	1.7593047e-05
0	0.62532747	0.62529457	2.1997824e-11	0.047941964	0.047941964	0	61847.887	61844.633	3.5864164e-06	644821.1	230310.27	-3.510402e-05	230447.14	645292.56	8.592538e-05
0	0.6251798	0.62514657	-2.363338e-10	0.04780026	0.04780026	0	61833.28	61829.992	-1.9183946e-05	644906.9	230016.81	-0.00017121066	230154.48	645379.06	-0.00010030605
0	0.6250319	0.6249982	-1.9236372e-10	0.04765894	0.04765894	0	61818.65	61815.324	-1.3626154e-05	644992.9	229722.73	-9.864176e-05	229861.2	645465.56	-9.423479e-05
0	0.62488174	0.6248477	-3.0578243e-10	0.047517724	0.047517724	0	61803.805	61800.438	-3.0529416e-05	645080.3	229424.33	-0.00024427028	229563.55	645553.5	-0.00018784846
0	0.62473434	0.62469995	-1.4531441e-10	0.047376387	0.047376387	0	61789.23	61785.824	-1.526328e-05	645164.5	229132.73	-0.00014109188	229272.69	645638.4	-7.492988e-05
0	0.6245862	0.6245515	-1.5263124e-10	0.047234587	0.047234587	0	61774.586	61771.137	-1.8364703e-05	645250.7	228838.3	-0.00015030078	228979.03	645725.1	-0.00010963338
0	0.62443596	0.6244008	-2.7397834e-10	0.047093373	0.047093373	0	61759.71	61756.227	-2.3823639e-05	645337.4	228540.12	-0.00021173168	228681.6	645812.5	-0.00012545295
0	0.6242877	0.62425214	-1.5061737e-10	0.04695201	0.04695201	0	61745.05	61741.543	-1.0927282e-05	645422.3	228246.86	-6.2907486e-05	228389.05	645897.9	-9.178173e-05
0	0.6241383	0.62410235	-2.6529604e-10	0.046810348	0.046810348	0	61730.27	61726.727	-3.0030113e-05	645507.9	227951.16	-0.0002967192	228094.1	645984.06	-0.00012828049
0	0.62398565	0.62394935	-1.6186417e-10	0.04666901	0.04666901	0	61715.176	61711.594	-1.3341409e-05	645595.3	227649.06	-5.549597e-05	227792.81	646072.2	-0.00013338774
0	0.62383735	0.6238007	-2.5904823e-10	0.046527795	0.046527795	0	61700.5	61696.887	-2.4734962e-05	645679.75	227356.05	-0.00016758792	227500.53	646157.2	-0.00018254296
0	0.62368697	0.62365	-2.1072626e-10	0.046386022	0.046386022	0	61685.633	61681.98	-1.4138597e-05	645765.25	227059.14	-6.466442e-05	227204.36	646243.2	-0.00013550029
0	0.62353516	0.62349784	-1.8321067e-10	0.046244673	0.046244673	0	61670.617	61666.93	-8.450539e-06	645851.3	226759.58	-9.8030105e-05	226905.52	646329.9	-2.155239e-05
0	0.6233837	0.6233461	-5.95336e-11	0.046103455	0.046103455	0	61655.65	61651.918	-4.0407563e-06	645937.44	226460.58	-1.9110106e-05	226607.28	646416.6	-3.809562e-05
0	0.6232312	0.62319314	-7.872304e-11	0.045962088	0.045962088	0	61640.555	61636.793	-4.9967175e-06	646023.94	226159.6	-0.00018117123	226307.06	646503.75	0.000110576475
0	0.6230796	0.6230413	-2.2780947e-10	0.045820434	0.045820434	0	61625.562	61621.773	-2.3765395e-05	646109.1	225861.33	-0.00023765594	226009.55	646589.56	-9.8680044e-05
0	0.62292653	0.62288785	-2.8752908e-10	0.045679096	0.045679096	0	61610.418	61606.6	-2.9418636e-05	646195.3	225559.86	-0.00017880677	225708.78	646676.4	-0.00023764177
0	0.6227723	0.6227331	-2.6846944e-10	0.04553775	0.04553775	0	61595.164	61591.3	-1.860159e-05	646282.56	225255.69	-0.000115205235	225405.36	646764.2	-0.00014811585
0	0.6226205	0.6225811	-3.632475e-10	0.045396097	0.045396097	0	61580.164	61576.26	-3.5623587e-05	646367.1	224957.92	-0.0002543999	225108.33	646849.4	-0.00024985077
0	0.62246525	0.62242544	-1.5912109e-10	0.04525476	0.04525476	0	61564.8	61560.867	-1.7817401e-05	646454.56	224652.11	-0.00012009628	224803.31	646937.4	-0.00013211502
0	0.6223115	0.6222713	1.181275e-12	0.04511351	0.04511351	0	61549.586	61545.613	4.6508558e-06	646540.3	224350	-2.527394e-05	224501.9	647023.75	9.1160364e-05