# t (s)	mx ()	my ()	mz ()	B_extx (T)	B_exty (T)	B_extz (T)	m_fullx (A/m)	m_fully (A/m)	m_fullz (A/m)	m_full.region1x (A/m)	m_full.region1y (A/m)	m_full.region1z (A/m)	m_full.region2x (A/m)	m_full.region2y (A/m)	m_full.region2z (A/m)
0	0.64457715	0.64457405	7.5198424e-11	0.07071087	0.07071087	0	67951.32	67951	1.28125e-05	651137.25	251267.62	-7.4701195e-05	251270.81	651136.1	0.00019090305
0	0.64457715	0.64457405	7.5198424e-11	0.07056911	0.07056911	0	67951.32	67951	1.1875e-05	651137.2	251267.6	-6.6401066e-05	251270.8	651136.1	0.00018260292
0	0.6443423	0.64433867	-3.4828743e-10	0.07042789	0.07042788	0	67926.57	67926.17	-3.875e-05	651343.56	250731.88	-0.0002863546	250735.72	651342.06	-0.000249004
0	0.6442231	0.64421934	-1.8601715e-10	0.07028653	0.07028653	0	67914.01	67913.6	-2e-05	651448.1	250460.42	-0.00020542828	250464.27	651446.7	-8.300133e-06
0	0.6441013	0.64409757	4.749374e-11	0.070144884	0.070144884	0	67901.16	67900.766	6.875e-06	651554.5	250183.53	-8.715139e-05	250187.38	651553.06	0.00016185259
0	0.64398277	0.643979	-4.4327492e-10	0.07000352	0.07000352	0	67888.664	67888.27	-4.9375e-05	651658.25	249913.88	-0.0002822045	249917.75	651656.8	-0.00040255644
0	0.64385986	0.6438561	-4.749374e-10	0.06986229	0.06986229	0	67875.71	67875.305	-5.1875e-05	651765.1	249634.83	-0.00042019424	249638.69	651763.7	-0.00025315405
0	0.6437412	0.64373744	-3.6807649e-10	0.069720544	0.069720544	0	67863.19	67862.8	-3.9375e-05	651868.75	249365.08	-0.00032681774	249368.95	651867.25	-0.00024485393
0	0.6436196	0.64361584	-9.8945296e-11	0.06957919	0.06957919	0	67850.375	67849.984	-9.375e-06	651974.1	249089.38	-0.000124502	249093.25	651972.75	1.2450199e-05
0	0.6434981	0.64349437	-2.5329996e-10	0.069437966	0.069437966	0	67837.58	67837.18	-2.1875e-05	652079.44	248814.16	-0.0002375913	248818.02	652078.06	-0.000107901724
0	0.64337623	0.6433725	-5.8971394e-10	0.069296576	0.069296576	0	67824.72	67824.32	-6.0625e-05	652184.94	248537.95	-0.00043679448	248541.83	652183.44	-0.00043990705
0	0.64325446	0.64325064	-2.6517338e-10	0.06915497	0.06915497	0	67811.88	67811.484	-2.8125e-05	652290	248262.31	-0.00019090305	248266.19	652288.6	-0.00015355245
0	0.6431319	0.64312816	-5.382624e-10	0.069013596	0.069013596	0	67798.96	67798.56	-5.75e-05	652395.44	247985.31	-0.00040878155	247989.19	652394.06	-0.00036520584
0	0.6430083	0.6430046	-3.5620307e-10	0.068872236	0.068872236	0	67785.94	67785.55	-3.3125e-05	652501.6	247706.17	-0.00027286686	247710.05	652500.25	-0.00022825366
0	0.6428851	0.64288133	-2.2163746e-10	0.06873064	0.06873064	0	67772.95	67772.56	-2.25e-05	652607.44	247427.94	-0.00015770253	247431.84	652606	-0.00015770253
0	0.6427624	0.64275867	-3.087093e-10	0.06858927	0.06858927	0	67760.01	67759.61	-3.5e-05	652712.5	247150.9	-0.00024589142	247154.78	652711.06	-0.00020750333
0	0.6426361	0.64263225	-3.8786555e-10	0.06844801	0.06844801	0	67746.695	67746.3	-4.0625e-05	652820.1	246866.42	-0.0003506806	246870.34	652818.7	-0.000186753
0	0.64251375	0.64250994	-2.2559526e-10	0.06830665	0.06830665	0	67733.8	67733.41	-2.5e-05	652924.7	246590.67	-0.00019090305	246594.58	652923.25	-0.00017430278
0	0.64238924	0.6423855	-3.9182335e-10	0.068165034	0.06816504	0	67720.67	67720.27	-3.875e-05	653030.56	246310.39	-0.00034653055	246314.34	653029.25	-0.00020335325
0	0.6422645	0.64226073	-4.353593e-11	0.068023674	0.068023674	0	67707.52	67707.12	-6.875e-06	653136.56	246029.78	-0.00012761455	246033.72	653135.1	4.1500665e-05
0	0.6421388	0.6421349	-1.4248122e-10	0.06788232	0.067882314	0	67694.266	67693.87	-1.75e-05	653243	245747.36	-0.00014940239	245751.28	653241.56	-8.715139e-05
0	0.64201295	0.64200914	-3.36414e-10	0.067740716	0.067740716	0	67681	67680.59	-3.9375e-05	653349.56	245464.67	-0.00032785523	245468.58	653348.1	-0.000186753
0	0.6418874	0.6418835	-2.5329996e-10	0.06759932	0.06759932	0	67667.766	67667.37	-3.3125e-05	653455.4	245183.03	-0.0002573041	245186.94	653454.06	-0.00018260292
0	0.64176166	0.64175785	-2.2163746e-10	0.06745809	0.06745809	0	67654.516	67654.11	-2.25e-05	653561.4	244900.95	-0.00011620186	244904.88	653560.06	-0.00021165339
0	0.6416355	0.64163166	-4.9868426e-10	0.067316726	0.067316726	0	67641.21	67640.81	-4.9375e-05	653667.5	244618.22	-0.00032993028	244622.14	653666.1	-0.00036520584
0	0.6415085	0.6415047	-2.968359e-10	0.06717498	0.067174986	0	67627.83	67627.42	-3.5e-05	653773.94	244334	-0.00028531707	244337.95	653772.44	-0.00019505312
0	0.64138126	0.6413775	-2.9287806e-10	0.06703377	0.06703377	0	67614.414	67614.02	-3.375e-05	653880.4	244049.55	-0.00027805445	244053.5	653879	-0.00020750333
0	0.6412538	0.64124995	-5.8971394e-10	0.066892385	0.066892385	0	67600.98	67600.57	-5.9375e-05	653987	243764.36	-0.00032681774	243768.31	653985.56	-0.00048555777
0	0.64112616	0.64112234	-3.087093e-10	0.06675076	0.066750765	0	67587.52	67587.12	-3.25e-05	654093.4	243479.34	-0.00032889275	243483.31	654092.06	-0.00011620186
0	0.6409976	0.64099383	-2.691312e-10	0.0666094	0.0666094	0	67573.97	67573.56	-2.875e-05	654200.3	243192.34	-8.300133e-05	243196.34	654198.94	-0.00033615538
0	0.6408693	0.64086545	-3.1266711e-10	0.066468164	0.06646816	0	67560.445	67560.04	-2.75e-05	654306.9	242906.16	-0.00022825366	242910.14	654305.56	-0.00021580345
0	0.64074016	0.6407364	-3.6807649e-10	0.06632643	0.06632643	0	67546.83	67546.42	-4.125e-05	654413.6	242618.64	-0.00042019424	242622.61	654412.25	-0.000124502
0	0.6406111	0.6406073	-3.4037181e-10	0.06618507	0.06618507	0	67533.23	67532.83	-3.6875e-05	654520.56	242331.16	-0.00034860556	242335.12	654519.1	-0.00015770253
0	0.6404815	0.6404776	-1.4643903e-10	0.06604384	0.06604384	0	67519.55	67519.15	-1.6875e-05	654627.44	242042.6	-0.00015251494	242046.6	654626.06	-8.715139e-05
0	0.6403521	0.64034826	-2.9287806e-10	0.065902434	0.065902434	0	67505.92	67505.516	-2.5e-05	654734.06	241754.95	-0.0003818061	241758.95	654732.7	-3.3200533e-05
0	0.64022195	0.64021814	-3.5620307e-10	0.06576085	0.06576085	0	67492.195	67491.8	-3.5e-05	654840.94	241465.83	-0.0003071049	241469.81	654839.56	-0.00019920319
0	0.6400913	0.6400874	-1.5039685e-10	0.065619476	0.065619476	0	67478.42	67478.016	-1.5625e-05	654948.06	241175.78	-9.441401e-05	241179.78	654946.75	-9.9601595e-05
0	0.63995993	0.63995606	-1.8997497e-10	0.06547824	0.06547825	0	67464.58	67464.164	-2.0625e-05	655055.5	240884.31	-0.00014110225	240888.3	655054.25	-0.00013695219
0	0.6398289	0.639825	-5.4617805e-10	0.06533652	0.06533652	0	67450.766	67450.35	-5.625e-05	655162.56	240593.88	-0.00046480744	240597.89	655161.2	-0.00033615538
0	0.63969713	0.6396933	-3.007937e-10	0.06519515	0.06519514	0	67436.87	67436.47	-2.9375e-05	655269.94	240302.06	-0.0003071049	240306.08	655268.6	-0.000107901724
0	0.6395659	0.63956195	-4.8285304e-10	0.065053925	0.06505392	0	67423.03	67422.625	-5e-05	655376.7	240011.56	-0.00031540505	240015.58	655375.25	-0.0003818061
0	0.63943297	0.6394291	-1.8601715e-10	0.06491251	0.06491251	0	67409.016	67408.61	-2.3125e-05	655484.5	239717.58	-0.00019505312	239721.62	655483.06	-7.4701195e-05
0	0.63929975	0.6392959	-3.2454056e-10	0.06477093	0.06477093	0	67394.98	67394.58	-2.9375e-05	655592.1	239423.47	-0.0002573041	239427.48	655590.75	-0.00016600266
0	0.6391681	0.63916415	-4.353593e-10	0.06462956	0.06462956	0	67381.086	67380.69	-5e-05	655698.75	239132.45	-0.0003558682	239136.48	655697.3	-0.00030295484
0	0.6390345	0.6390306	-3.2454056e-10	0.06448818	0.06448818	0	67367.01	67366.6	-2.9375e-05	655806.4	238837.75	-0.0002313662	238841.8	655804.94	-0.00019090305
0	0.63890123	0.63889736	-2.6121558e-10	0.0643466	0.0643466	0	67352.97	67352.56	-2.625e-05	655913.56	238544.08	-0.00024589142	238548.14	655912.2	-0.000107901724
0	0.63876647	0.63876265	-2.335109e-10	0.06420524	0.06420524	0	67338.766	67338.36	-2.125e-05	656021.7	238247.45	-0.00012761455	238251.48	656020.25	-0.00017430278
0	0.63863194	0.6386281	-4.788952e-10	0.064063966	0.064063966	0	67324.58	67324.164	-5.0625e-05	656129.6	237951	-0.00035690572	237955.06	656128.2	-0.00035275565
0	0.6384972	0.63849324	-4.036968e-10	0.063922584	0.063922584	0	67310.375	67309.96	-4.3125e-05	656237.2	237654.78	-0.00030399236	237658.81	656235.8	-0.00030295484
0	0.6383623	0.6383585	-4.036968e-10	0.063781016	0.063781016	0	67296.16	67295.76	-4.3125e-05	656344.75	237358.52	-0.0002573041	237362.55	656343.44	-0.00032370517
0	0.6382269	0.638223	-5.778405e-10	0.06363963	0.06363963	0	67281.88	67281.47	-6.1875e-05	656452.56	237061.08	-0.0004316069	237065.14	656451.2	-0.00040255644
0	0.6380915	0.63808763	-3.2849837e-10	0.06349824	0.06349824	0	67267.61	67267.2	-3.3125e-05	656560	236764.05	-0.0002500415	236768.12	656558.6	-0.00016600266
0	0.6379545	0.6379506	-4.4723272e-10	0.06335668	0.06335668	0	67253.16	67252.75	-4.5625e-05	656668.56	236463.67	-0.00041085656	236467.7	656667.1	-0.00020750333
0	0.63781846	0.6378146	-3.2454056e-10	0.06321528	0.06321527	0	67238.82	67238.41	-3.375e-05	656776.25	236165.5	-0.0002375913	236169.6	656774.8	-0.00020750333
0	0.6376819	0.6376779	-5.0659993e-10	0.06307404	0.06307404	0	67224.42	67224.016	-5.5e-05	656884.06	235866.48	-0.0004803702	235870.55	656882.7	-0.00026975432
0	0.63754386	0.6375399	0	0.062932655	0.062932655	0	67209.875	67209.46	-6.25e-07	656992.5	235564.88	-0.00012968958	235568.95	656991.1	0.00014110225
0	0.6374071	0.63740325	-2.5329996e-10	0.062790945	0.062790945	0	67195.46	67195.055	-2.4375e-05	657100	235265.9	-0.00026767928	235270	657098.6	-0.00011620186
0	0.6372683	0.6372644	-4.9076865e-10	0.062649705	0.062649705	0	67180.82	67180.414	-5e-05	657208.94	234962.58	-0.0003683184	234966.69	657207.56	-0.00032370517
0	0.63713074	0.6371268	-8.311404e-11	0.06250833	0.06250833	0	67166.32	67165.91	-1.375e-05	657316.44	234662.45	-0.00015770253	234666.53	657315.06	3.3200533e-05
0	0.63699186	0.63698786	-3.4828743e-10	0.06236674	0.06236674	0	67151.68	67151.266	-3.5e-05	657424.75	234359.64	-0.00027805445	234363.73	657423.44	-0.00023240372
0	0.6368521	0.6368481	-4.5119053e-10	0.062225346	0.062225346	0	67136.945	67136.53	-4.5e-05	657533.6	234055.14	-0.00033615538	234059.23	657532.25	-0.0002573041
0	0.6367126	0.6367087	-5.382624e-10	0.062084112	0.062084112	0	67122.24	67121.83	-5.5625e-05	657642	233751.55	-0.0003952938	233755.67	657640.6	-0.00033615538
0	0.6365734	0.63656944	-7.2823736e-10	0.061942413	0.061942417	0	67107.56	67107.14	-7.125e-05	657749.94	233448.61	-0.0004938579	233452.72	657748.6	-0.00047725765
0	0.63643235	0.63642836	-2.4538432e-10	0.06180102	0.061801024	0	67092.695	67092.29	-1.9375e-05	657859	233142.1	-7.573871e-05	233146.22	657857.6	-0.00017430278
0	0.6362919	0.63628805	-4.8681087e-10	0.06165979	0.06165979	0	67077.89	67077.49	-4.6875e-05	657967.4	232837.17	-0.00038491865	232841.3	657966.1	-0.00031540505
0	0.63615143	0.6361476	-1.7018591e-10	0.061518367	0.061518367	0	67063.086	67062.67	-1.6875e-05	658075.6	232532.28	-0.0002313662	232536.47	658074.25	-1.6600266e-05
0	0.63600945	0.6360056	-4.4327492e-10	0.061376818	0.06137681	0	67048.12	67047.71	-4.25e-05	658184.5	232224.67	-0.00043471946	232228.84	658183.1	-0.00018260292
0	0.635868	0.6358641	-1.1873436e-10	0.061235435	0.061235435	0	67033.2	67032.79	-1.6875e-05	658293.06	231917.98	-0.00017741534	231922.08	658291.8	-1.6600266e-05
0	0.6357258	0.6357218	-6.0554517e-10	0.061094042	0.061094042	0	67018.2	67017.79	-5.875e-05	658402	231609.86	-0.00045650732	231613.98	658400.56	-0.000373506
0	0.63558406	0.63558006	-3.4828743e-10	0.0609525	0.060952503	0	67003.266	67002.85	-3.4375e-05	658510.06	231303.34	-0.00027701692	231307.48	658508.8	-0.00020750333
0	0.63543993	0.635436	-2.968359e-10	0.060811102	0.060811102	0	66988.086	66987.67	-3.3125e-05	658619.75	230992.06	-0.0001753403	230996.23	658618.3	-0.00026145417
0	0.63529736	0.6352934	-1.1477654e-10	0.06066984	0.06066984	0	66973.05	66972.63	-1.3125e-05	658728.2	230683.86	-0.00011827689	230688.02	658726.8	-4.9800798e-05
0	0.6351534	0.6351495	-1.6622809e-10	0.060528446	0.060528446	0	66957.87	66957.45	-1.75e-05	658837.4	230373.2	-0.00017741534	230377.36	658836	-6.2251e-05
0	0.63500905	0.63500524	-3.6016087e-10	0.060386896	0.060386896	0	66942.66	66942.25	-3.5625e-05	658946.44	230062.19	-0.00020750333	230066.34	658945.06	-0.00029880478
0	0.63486487	0.6348609	-5.778405e-10	0.060245506	0.060245506	0	66927.445	66927.03	-6.1875e-05	659055.4	229751.17	-0.0005104582	229755.36	659054.06	-0.00034030544
0	0.63472	0.6347161	-2.6121558e-10	0.060104124	0.060104124	0	66912.18	66911.766	-2.875e-05	659164.44	229439.38	-0.00017015272	229443.55	659163	-0.00019090305
0	0.63457537	0.63457143	-2.1372183e-10	0.05996258	0.059962578	0	66896.94	66896.52	-1.9375e-05	659273	229128.34	-8.4038846e-05	229132.5	659271.75	-0.00020750333
0	0.6344298	0.6344258	-4.2348586e-10	0.059821147	0.059821147	0	66881.59	66881.18	-4.25e-05	659382	228815.48	-0.0002863546	228819.67	659380.8	-0.00033200532
0	0.6342834	0.63427955	-5.026421e-10	0.059679918	0.059679918	0	66866.164	66865.75	-5.125e-05	659491.5	228501.08	-0.0004129316	228505.28	659490.25	-0.00030295484
0	0.6341373	0.6341334	-2.2163746e-10	0.05953851	0.05953851	0	66850.74	66850.336	-2.4375e-05	659600.7	228187.34	-0.00018052789	228191.53	659599.3	-0.000186753
0	0.63399017	0.6339862	-3.087093e-10	0.059396826	0.059396826	0	66835.24	66834.83	-3.875e-05	659710.2	227871.9	-0.000373506	227876.12	659708.8	-0.00014110225
0	0.6338415	0.63383764	-8.707186e-11	0.059255596	0.059255596	0	66819.57	66819.16	-8.125e-06	659820.3	227553.58	-0.00010375166	227557.75	659819	-1.2450199e-05
0	0.63369536	0.63369143	-2.4934213e-10	0.059114188	0.059114188	0	66804.164	66803.75	-2.5625e-05	659929	227240.4	-0.00017845286	227244.61	659927.6	-0.00018260292
0	0.63354594	0.6335421	-6.688702e-10	0.058972627	0.058972627	0	66788.414	66788	-6.875e-05	660039.06	226921.11	-0.0005104582	226925.31	660037.8	-0.00042745683
0	0.63339937	0.6333954	-5.026421e-10	0.058831234	0.058831234	0	66772.96	66772.55	-5.4375e-05	660147.5	226607.48	-0.00035898073	226611.66	660146.2	-0.0003195551
0	0.6332503	0.6332463	-5.699249e-10	0.058689985	0.058689985	0	66757.24	66756.82	-5.625e-05	660257.2	226288.92	-0.00049697043	226293.14	660255.8	-0.0003071049
0	0.6331006	0.6330967	-2.2163746e-10	0.0585483	0.0585483	0	66741.48	66741.055	-2.3125e-05	660367	225969.72	-0.00016185259	225973.94	660365.6	-0.00016600266
0	0.6329514	0.6329475	-2.8496244e-10	0.058406904	0.058406904	0	66725.734	66725.33	-2.875e-05	660476.3	225651.52	-0.00017015272	225655.7	660474.94	-0.00022410358
0	0.63280153	0.6327977	6.332499e-11	0.058265664	0.058265664	0	66709.95	66709.53	5e-06	660585.9	225332.31	0.00012346447	225336.52	660584.44	-2.9050465e-05
0	0.6326511	0.63264716	-2.968359e-10	0.05812423	0.05812423	0	66694.08	66693.66	-2.9375e-05	660695.5	225011.78	-0.00033926792	225016.02	660694.2	-8.715139e-05
0	0.63250047	0.6324966	-3.4037181e-10	0.057982713	0.057982713	0	66678.2	66677.79	-3.625e-05	660805.1	224691.39	-0.00021269091	224695.61	660803.75	-0.00024485393
0	0.63234925	0.6323453	-3.99739e-10	0.05784131	0.05784131	0	66662.266	66661.84	-4.0625e-05	660914.8	224369.94	-0.00033304282	224374.16	660913.44	-0.00020335325
0	0.63219756	0.6321936	-2.7308902e-10	0.057699904	0.057699904	0	66646.266	66645.85	-2.875e-05	661024.6	224047.73	-0.00023966633	224051.97	661023.25	-0.00012035193
0	0.6320456	0.63204175	-4.670218e-10	0.057558384	0.057558388	0	66630.25	66629.836	-4.5e-05	661134.3	223725.36	-0.0003641683	223729.58	661133	-0.00026145417
0	0.6318929	0.631889	-3.087093e-10	0.057416987	0.057416987	0	66614.16	66613.734	-3.0625e-05	661244.25	223401.6	-0.00026456674	223405.83	661243.06	-0.00014940239
0	0.6317403	0.63173634	-3.2454056e-10	0.05727571	0.0572757	0	66598.07	66597.66	-3.5e-05	661354	223078.23	-0.0003818061	223082.45	661352.6	-9.9601595e-05
0	0.6315867	0.6315828	-4.5910617e-10	0.057134308	0.0571343	0	66581.875	66581.46	-4.96875e-05	661464.06	222753.1	-0.0005187583	222757.34	661462.8	-0.00019505312
0	0.6314324	0.6314285	-2.9287806e-10	0.05699279	0.05699279	0	66565.61	66565.195	-2.875e-05	661574.44	222426.8	-0.00019609064	222431.02	661573.06	-0.00024070386
0	0.63127875	0.63127476	-2.5329996e-10	0.05685139	0.05685139	0	66549.4	66548.984	-2.8125e-05	661684.2	222101.66	-0.00030295484	222105.92	661683	-0.00011205179
0	0.6311228	0.6311189	-1.6622809e-10	0.05670998	0.056709986	0	66532.98	66532.555	-1.5e-05	661795	221772.81	-0.00011827689	221777.06	661793.7	-6.2251e-05
0	0.63096946	0.63096553	-4.670218e-10	0.056568477	0.05656847	0	66516.805	66516.39	-4.75e-05	661904	221448.97	-0.00031436753	221453.27	661902.8	-0.000311255
0	0.6308149	0.630811	-7.5198424e-11	0.05642703	0.05642703	0	66500.51	66500.086	-8.75e-06	662013.7	221122.94	2.1787848e-05	221127.2	662012.3	-0.00017430278
0	0.63065755	0.63065356	-4.749374e-10	0.056285787	0.056285787	0	66483.92	66483.5	-4.8125e-05	662124.8	220791.53	-0.00026975432	220795.81	662123.5	-0.00038595617
0	0.63050234	0.63049847	-4.5910617e-10	0.056144364	0.05614437	0	66467.555	66467.14	-4.9375e-05	662234.3	220464.73	-0.00030814242	220469	662233.06	-0.00036520584
0	0.6303448	0.6303409	-4.4327492e-10	0.0560027	0.056002706	0	66450.945	66450.53	-4.3125e-05	662344.94	220133.5	-0.00023447875	220137.78	662343.7	-0.00035690572
0	0.63018864	0.6301846	-6.015874e-10	0.055861466	0.05586147	0	66434.48	66434.07	-6.375e-05	662454.75	219805.02	-0.0005312085	219809.28	662453.44	-0.00034860556
0	0.63003093	0.6300269	-3.9578119e-10	0.055720054	0.055720054	0	66417.86	66417.44	-4e-05	662565.1	219473.86	-0.00036624336	219478.16	662563.8	-0.00020750333
0	0.6298727	0.6298687	-3.6411868e-10	0.05557856	0.055578556	0	66401.18	66400.76	-3.75e-05	662675.5	219141.92	-0.00028427955	219146.22	662674.25	-0.00026560426
0	0.6297145	0.62971044	-3.087093e-10	0.055437103	0.055437103	0	66384.5	66384.08	-3.5e-05	662785.8	218810.12	-0.00028946713	218814.42	662784.6	-0.00017845286
0	0.6295561	0.6295521	-3.720343e-10	0.05529586	0.05529586	0	66367.81	66367.39	-3.8125e-05	662895.9	218478.45	-0.00026456674	218482.73	662894.6	-0.00024070386
0	0.62939656	0.6293925	1.978906e-11	0.055154454	0.055154454	0	66350.984	66350.56	1.25e-06	663006.5	218144.33	-1.6600266e-05	218148.66	663005.25	1.6600266e-05
0	0.6292366	0.6292325	-3.36414e-10	0.05501279	0.05501279	0	66334.12	66333.695	-3.6875e-05	663117	217809.77	-0.00027182934	217814.1	663115.75	-0.00024070386
0	0.62907594	0.62907207	-2.8100464e-10	0.054871544	0.054871544	0	66317.195	66316.78	-3.375e-05	663227.6	217474.47	-0.00024277889	217478.77	663226.4	-0.00018260292
0	0.62891614	0.6289122	-8.707186e-11	0.05473013	0.05473013	0	66300.34	66299.92	-8.75e-06	663337.8	217140.6	-0.000186753	217144.92	663336.44	6.6401066e-05
0	0.628755	0.62875104	-3.087093e-10	0.054588605	0.054588605	0	66283.34	66282.94	-3.46875e-05	663448.44	216804.27	-0.00026560426	216808.58	663447.06	-0.00016600266
0	0.62859327	0.6285893	-3.2454056e-10	0.05444718	0.05444718	0	66266.305	66265.89	-3.75e-05	663559.1	216467.11	-0.00029880478	216471.42	663558	-0.000186753
0	0.628432	0.628428	-7.2823736e-10	0.05430595	0.05430595	0	66249.29	66248.875	-7.9375e-05	663669.25	216131.16	-0.0006432603	216135.5	663667.94	-0.00039425632
0	0.6282683	0.6282644	-5.382624e-10	0.05416429	0.054164287	0	66232.05	66231.625	-5.9375e-05	663780.7	215790.7	-0.0003994439	215795.02	663779.4	-0.0004316069
0	0.62810665	0.6281026	9.8945296e-11	0.05402286	0.05402286	0	66215.01	66214.57	6.25e-06	663890.75	215454.22	-1.2450199e-05	215458.55	663889.44	9.130146e-05
0	0.62794286	0.62793887	-5.9762956e-10	0.053881623	0.053881623	0	66197.734	66197.31	-6.4375e-05	664001.56	215113.97	-0.0004814077	215118.27	664000.44	-0.00036520584
0	0.62777984	0.62777585	-6.5303896e-10	0.053740162	0.053740162	0	66180.555	66180.13	-6.5625e-05	664112	214775.5	-0.00047103254	214779.81	664110.7	-0.00043990705
0	0.6276155	0.6276116	-2.4934213e-10	0.053598687	0.053598683	0	66163.234	66162.81	-3.0625e-05	664222.8	214434.62	-0.00017637783	214438.98	664221.56	-0.00020335325
0	0.62745076	0.62744665	-7.440686e-10	0.053457264	0.053457264	0	66145.85	66145.42	-7.375e-05	664333.75	214092.9	-0.00059345947	214097.23	664332.44	-0.00045650732
0	0.6272858	0.6272818	-3.6411868e-10	0.05331584	0.05331584	0	66128.46	66128.055	-3.75e-05	664444.44	213751.33	-0.00021580345	213755.69	664443.1	-0.00029880478
0	0.62712	0.6271161	-4.116124e-10	0.053174376	0.05317437	0	66111.01	66110.58	-4.125e-05	664555	213408.78	-0.00031436753	213413.11	664553.75	-0.00031540505
0	0.62695336	0.62694937	-2.968359e-10	0.05303295	0.05303295	0	66093.43	66093.01	-3e-05	664666.4	213064	-0.00022825366	213068.38	664665.1	-0.00019090305
0	0.626788	0.626784	-3.720343e-10	0.052891657	0.05289166	0	66075.99	66075.57	-3.875e-05	664776.75	212722.12	-0.00034653055	212726.47	664775.5	-0.00021165339
0	0.6266214	0.62661743	-7.1240613e-10	0.052750226	0.052750226	0	66058.43	66058.01	-7.375e-05	664887.4	212378.33	-0.00042953188	212382.7	664886.06	-0.00053950865
0	0.6264529	0.62644887	-3.1266711e-10	0.05260877	0.05260877	0	66040.67	66040.234	-2.9375e-05	664998.9	212030.84	-0.0002573041	212035.2	664997.6	-0.00017015272
0	0.6262859	0.626282	-3.8390774e-10	0.052467342	0.052467342	0	66023.06	66022.65	-3.9375e-05	665109.3	211686.69	-0.00019297808	211691.05	665108.1	-0.00033615538
0	0.6261174	0.6261135	-3.6016087e-10	0.052325908	0.052325908	0	66005.3	66004.88	-4.0625e-05	665220.3	211339.73	-0.00031021747	211344.11	665219.1	-0.00024485393
0	0.625948	0.625944	-3.2454056e-10	0.05218446	0.05218446	0	65987.44	65987.02	-3.5e-05	665331.56	210991.3	-0.00025315405	210995.66	665330.4	-0.00020750333
0	0.62577945	0.62577546	-3.36414e-10	0.052042987	0.052042987	0	65969.67	65969.25	-3.1875e-05	665442.4	210644.52	-0.00035379315	210648.9	665441.2	-0.00011620186
0	0.62561	0.625606	-5.857561e-10	0.051901728	0.051901728	0	65951.805	65951.38	-5.8125e-05	665553.06	210296.52	-0.00027597943	210300.92	665551.9	-0.0005146082
0	0.62543964	0.62543565	-7.5198424e-11	0.051760294	0.051760294	0	65933.85	65933.42	-9.375e-06	665664.25	209946.86	-7.4701195e-05	209951.25	665663	-4.1500665e-05
0	0.6252677	0.62526363	-4.4327492e-10	0.051618665	0.051618665	0	65915.71	65915.3	-4.5625e-05	665776.1	209594.23	-0.00041189409	209598.62	665774.9	-0.00021580345
0	0.62509793	0.62509394	-2.691312e-10	0.05147742	0.05147742	0	65897.82	65897.4	-3.3125e-05	665886.4	209246.31	-0.00034860556	209250.73	665885.2	-4.9800798e-05
0	0.6249263	0.6249224	-1.9393277e-10	0.051335983	0.051335983	0	65879.74	65879.32	-2e-05	665997.4	208895.2	-4.1500666e-06	208899.56	665996.1	-0.00024277889
0	0.6247548	0.6247508	-2.691312e-10	0.051194496	0.051194493	0	65861.65	65861.23	-2.875e-05	666108.1	208544.14	-0.00027390438	208548.55	666106.9	-0.00011620186
0	0.6245811	0.6245772	-6.2533423e-10	0.051053066	0.051053066	0	65843.34	65842.92	-6.8125e-05	666219.8	208189.36	-0.000500083	208193.75	666218.6	-0.00039425632
0	0.6244091	0.6244051	-4.393171e-10	0.050911807	0.050911807	0	65825.21	65824.78	-5e-05	666330.4	207837.95	-0.00027390438	207842.34	666329.2	-0.00037765605
0	0.6242354	0.6242314	-4.9076865e-10	0.050770186	0.050770186	0	65806.89	65806.48	-5.4375e-05	666441.6	207483.47	-0.00052290835	207487.86	666440.5	-0.00021165339
0	0.6240616	0.62405753	-3.1662495e-10	0.050628755	0.050628755	0	65788.57	65788.15	-3.25e-05	666552.75	207129.08	-0.00031748007	207133.47	666551.5	-0.00016600266
0	0.6238864	0.6238825	-2.7704683e-10	0.050487496	0.050487496	0	65770.1	65769.68	-2.9375e-05	666664.2	206772.34	-0.00023240372	206776.73	666663	-0.00016185259
0	0.62371194	0.62370795	-2.8892025e-10	0.050346017	0.050346017	0	65751.72	65751.29	-3.0625e-05	666775.1	206417.2	-0.00032578022	206421.64	666774	-0.00014110225
0	0.6235357	0.6235317	-2.8892025e-10	0.050204586	0.05020459	0	65733.14	65732.72	-3.25e-05	666886.75	206058.89	-0.00034341798	206063.31	666885.5	-7.055113e-05
0	0.62336093	0.62335694	-5.5409366e-10	0.05006314	0.05006314	0	65714.71	65714.29	-6.125e-05	666997.4	205703.55	-0.0005063081	205707.95	666996.06	-0.0002863546
0	0.62318397	0.6231799	-4.9076865e-10	0.049921695	0.049921695	0	65696.055	65695.63	-4.875e-05	667108.75	205344.33	-0.0004928204	205348.73	667107.56	-0.000186753
0	0.62300724	0.6230033	-2.968359e-10	0.049780272	0.04978028	0	65677.42	65677.01	-3.1875e-05	667219.75	204985.86	-0.00034653055	204990.27	667218.7	-4.9800798e-05
0	0.62283003	0.62282616	-4.4327492e-10	0.049638826	0.049638826	0	65658.75	65658.33	-5.3125e-05	667330.9	204626.77	-0.0004067065	204631.2	667329.8	-0.000249004
0	0.6226514	0.6226474	-1.6622809e-10	0.04949753	0.04949753	0	65639.91	65639.48	-1.6875e-05	667442.6	204264.84	-0.00023655378	204269.27	667441.44	-1.6600266e-05
0	0.62247384	0.6224698	-6.015874e-10	0.049356084	0.049356084	0	65621.19	65620.766	-6e-05	667553.44	203905.42	-0.00044509463	203909.88	667552.25	-0.0004067065
0	0.6222939	0.6222899	-2.691312e-10	0.049214657	0.049214657	0	65602.22	65601.805	-2.875e-05	667665.1	203541.8	-0.00018260292	203546.22	667664.06	-0.00020335325
0	0.62211555	0.6221116	-3.1266711e-10	0.04907321	0.049073208	0	65583.42	65583.01	-3.8125e-05	667775.75	203181.62	-0.00029465472	203186.06	667774.6	-0.00019505312
0	0.6219343	0.62193024	-3.2454056e-10	0.048931766	0.048931766	0	65564.305	65563.89	-3.6875e-05	667887.8	202815.67	-0.00030502988	202820.12	667886.75	-0.00019505312
0	0.6217543	0.62175024	-2.8100464e-10	0.04879036	0.04879036	0	65545.336	65544.914	-3.1875e-05	667999	202452.52	-0.00021165339	202456.95	667997.8	-0.00024070386
0	0.6215734	0.62156945	-4.9076865e-10	0.048648857	0.048648857	0	65526.266	65525.848	-5.1875e-05	668110.25	202088.17	-0.0006121348	202092.64	668109	-0.00014525233
0	0.6213926	0.6213887	-2.691312e-10	0.04850761	0.04850761	0	65507.21	65506.79	-3.125e-05	668221.1	201724.19	-0.00035171813	201728.62	668219.9	-4.9800798e-05
0	0.62120956	0.62120557	-4.1557024e-10	0.048366148	0.048366148	0	65487.906	65487.49	-4.25e-05	668333	201355.95	-0.0003693559	201360.39	668331.8	-0.00019505312
0	0.6210282	0.6210242	-3.4037181e-10	0.04822455	0.048224546	0	65468.793	65468.37	-3.875e-05	668443.75	200991.22	-0.00036105578	200995.69	668442.5	-0.00016185259
0	0.62084514	0.6208411	-5.026421e-10	0.048083294	0.048083294	0	65449.496	65449.074	-5.375e-05	668555	200623.73	-0.0005125332	200628.2	668553.8	-0.00019920319
0	0.62066185	0.62065786	-5.1451554e-10	0.04794183	0.04794183	0	65430.176	65429.754	-4.875e-05	668666.1	200256.05	-0.00040981907	200260.5	668665.06	-0.00025315405
0	0.6204765	0.6204725	-3.087093e-10	0.047800392	0.047800392	0	65410.633	65410.21	-3.3125e-05	668778.2	199884.42	-0.00022099103	199888.88	668777.06	-0.00020750333
0	0.6202923	0.6202883	-2.6121558e-10	0.047658946	0.047658946	0	65391.21	65390.793	-2.375e-05	668889.3	199515.45	-0.00021165339	199519.9	668888.25	-0.00012865206
0	0.62010837	0.62010443	-5.0659993e-10	0.047517676	0.047517676	0	65371.83	65371.414	-5.625e-05	669000.06	199147.25	-0.000498008	199151.7	668998.94	-0.0002863546
0	0.61992127	0.61991733	-4.8285304e-10	0.047376227	0.04737623	0	65352.1	65351.68	-5.125e-05	669112.2	198773.17	-0.00037454348	198777.62	669111.06	-0.00033615538
0	0.6197367	0.6197327	-4.1557024e-10	0.047234632	0.047234632	0	65332.645	65332.215	-4.9375e-05	669222.75	198404.11	-0.00037454348	198408.6	669221.7	-0.00025315405
0	0.619549	0.619545	-5.145155e-11	0.047093365	0.047093365	0	65312.844	65312.43	-7.5e-06	669334.6	198029.45	-0.00023240372	198033.92	669333.5	0.000124502
0	0.61936265	0.61935866	-3.5620307e-10	0.046951856	0.046951856	0	65293.21	65292.79	-3.875e-05	669445.56	197657.67	-0.00018364044	197662.14	669444.44	-0.00029465472
0	0.61917526	0.6191713	-2.058062e-10	0.04681048	0.04681048	0	65273.457	65273.035	-2.375e-05	669556.6	197284.27	-0.00031644257	197288.73	669555.5	-1.2450199e-05
0	0.6189865	0.6189825	-5.620093e-10	0.046669014	0.046669014	0	65253.555	65253.14	-5.875e-05	669668.25	196908.36	-0.00052705844	196912.88	669667.1	-0.00027805445
0	0.6187981	0.6187941	-4.4327492e-10	0.046527762	0.046527762	0	65233.695	65233.27	-4.75e-05	669779.44	196533.39	-0.0003641683	196537.86	669778.3	-0.00027390438
0	0.61860883	0.61860484	-3.007937e-10	0.04638618	0.04638618	0	65213.74	65213.33	-3.25e-05	669890.6	196157.28	-0.000249004	196161.75	669889.44	-0.00018260292
0	0.6184192	0.6184151	-3.4037181e-10	0.046244707	0.046244707	0	65193.75	65193.33	-3.125e-05	670001.75	195780.5	-0.00039840638	195785	670000.75	-9.9601595e-05
0	0.61822826	0.6182243	-4.2348586e-10	0.04610345	0.046103448	0	65173.62	65173.207	-3.625e-05	670113.44	195401.69	-0.00047310756	195406.19	670112.3	-0.00010375166
0	0.618038	0.618034	-3.6016087e-10	0.045961928	0.045961928	0	65153.566	65153.137	-3.6875e-05	670224.4	195024.31	-0.000311255	195028.81	670223.3	-0.00016600266
0	0.6178459	0.61784184	-7.5198424e-11	0.045820568	0.04582056	0	65133.312	65132.89	-6.25e-06	670335.94	194643.7	4.565073e-05	194648.2	670334.94	-0.000107901724
0	0.6176548	0.61765075	-3.720343e-10	0.045679096	0.0456791	0	65113.16	65112.74	-3.625e-05	670446.8	194265.36	-0.00035171813	194269.86	670445.7	-0.000186753
0	0.6174611	0.61745715	-3.99739e-10	0.04553762	0.04553762	0	65092.746	65092.32	-4e-05	670558.6	193882.42	-0.00046791998	193886.92	670557.5	-7.4701195e-05
0	0.61726767	0.6172636	-1.5435465e-10	0.045396265	0.045396265	0	65072.36	65071.934	-1.5625e-05	670670	193500.19	-0.0002002407	193504.69	670668.94	-2.9050465e-05
0	0.6170749	0.617071	-2.1767965e-10	0.04525479	0.04525479	0	65052.03	65051.617	-2.25e-05	670780.75	193119.64	-0.00044301958	193124.12	670779.7	0.00011205179
0	0.6168795	0.6168756	-2.2559526e-10	0.04511347	0.04511347	0	65031.45	65031.03	-2.375e-05	670892.6	192734.36	-0.00028531707	192738.86	670891.5	-5.810093e-05
0	0.61668575	0.6166817	-7.124061e-11	0.04497199	0.04497199	0	65011	65010.586	-5e-06	671003.5	192352.05	-0.000107901724	192356.53	671002.4	-4.1500666e-06
0	0.616489	0.61648506	-8.5092955e-10	0.04483065	0.04483065	0	64990.273	64989.855	-9.1875e-05	671115.3	191964.81	-0.0006432603	191969.34	671114.25	-0.00054780877
0	0.6162946	0.6162907	-1.7414371e-10	0.044689175	0.044689175	0	64969.79	64969.363	-1.375e-05	671225.75	191582.31	-0.00019090305	191586.83	671224.75	-4.1500665e-05
0	0.6160982	0.61609423	-3.2849837e-10	0.044547684	0.044547684	0	64949.074	64948.652	-3.375e-05	671336.94	191196.02	-0.00041085656	191200.53	671335.94	-5.3950862e-05
0	0.6159007	0.61589676	-3.9578119e-10	0.04440635	0.04440636	0	64928.258	64927.832	-3.9375e-05	671448.44	190808.02	-0.0003247427	190812.56	671447.3	-0.00017015272