//mumax 3.10 [windows_amd64 go1.11.6(gc) CUDA-11.0]
//GPU info: NVIDIA GeForce RTX 3090(24575MB), CUDA Driver 12.1, cc=8.6, using cc=80 PTX
//(c) Arne Vansteenkiste, Dynamat LAB, Ghent University, Belgium
//This is free software without any warranty. See license.txt
//********************************************************************//
//  If you use mumax in any work or publication,                      //
//  we kindly ask you to cite the references in references.bib        //
//********************************************************************//
//output directory: r1;p0.5;a3.2e-07;l1.8000000000000002e-07;s4.out/
randSeed(4)
ThermSeed(4)
resolution := 2e-09
zResolution := 5e-09
a := 3.2e-07
gridSize := 320
gridDepth := 5
SetCellsize(resolution, resolution, zResolution)
SetGridsize(gridSize, gridSize, gridDepth)
SetPBC(16, 16, 0)
//resizing...
Msat = 700e3
Aex = 13e-12
alpha = 0.2
Bmax := 0.1
Bstep := Bmax / 500.0
TableAdd(B_ext)
TableAdd(m_full)
islandWidth := 8e-08
islandLength := 1.8000000000000002e-07
ellipseConstant := 4.5000000000000006e-08
hIsland := Universe().Inverse()
vIsland := Universe().Inverse()
vIslands := Universe().Inverse()
hIslands := Universe().Inverse()
hIsland = rect(islandLength-2*ellipseConstant, islandWidth)
hIsland = hIsland.add(ellipse(ellipseConstant*2, islandWidth).transl(islandLength/2-ellipseConstant, 0, 0))
hIsland = hIsland.add(ellipse(ellipseConstant*2, islandWidth).transl(-islandLength/2+ellipseConstant, 0, 0))
hIsland = hIsland.add(rect(8.381738838628166e-09, 3.5839396634864816e-09).transl(7.320523516539984e-08, -3.116775426760044e-08, 0))
hIsland = hIsland.sub(rect(9.293774259865355e-09, -2.2859877922152382e-09).transl(-8.134602003614869e-08, -2.3584331731788898e-08, 0))
hIsland = hIsland.sub(rect(8.066788823673804e-09, -1.0608335710500598e-09).transl(7.507298025138358e-08, -2.9756089731159314e-08, 0))
hIsland = hIsland.sub(rect(8.038483989241311e-09, -9.605226877234539e-10).transl(4.1629699101295826e-08, -4e-08, 0))
hIsland = hIsland.sub(rect(7.655411033636841e-09, -1.937068980940825e-09).transl(-1.7009808797583782e-08, -4e-08, 0))
hIsland = hIsland.sub(rect(9.32686157246663e-09, -1.8521235975902296e-09).transl(4.490147690372589e-09, -4e-08, 0))
hIsland = hIsland.add(rect(8.836582096242255e-09, 1.2392103177156953e-09).transl(-6.985411028291177e-08, -3.334545796728229e-08, 0))
hIsland = hIsland.sub(rect(5.103934363034734e-09, -1.6982912496872202e-09).transl(-7.423586593729726e-08, -3.040810993703523e-08, 0))
hIsland = hIsland.sub(rect(7.229034305282072e-09, -2.8311426753589474e-09).transl(7.925896315337269e-08, -2.5935508904739747e-08, 0))
hIsland = hIsland.sub(rect(3.9374647186600705e-09, -1.6158985853601205e-09).transl(4.511059022914733e-08, -3.999987920773087e-08, 0))
hIsland = hIsland.sub(rect(2.9098756478897487e-09, -2.066922180297351e-09).transl(-1.498616669709474e-08, -4e-08, 0))
hIsland = hIsland.add(rect(7.289869393899882e-09, 2.613066541984367e-09).transl(2.9470622212358087e-08, -4e-08, 0))
hIsland = hIsland.sub(rect(9.0063742892882e-09, -1.154591174281026e-09).transl(7.939437414814139e-08, -2.579351285208163e-08, 0))
hIsland = hIsland.sub(rect(5.6284309290292005e-09, -2.6115817713951324e-09).transl(7.901689498859824e-08, -2.6186051970377352e-08, 0))
hIsland = hIsland.add(rect(6.072891299067115e-09, 8.138344279789743e-10).transl(4.8074626831739905e-08, -3.990652455551828e-08, 0))
hIsland = hIsland.sub(rect(5.173699966482522e-09, -8.148725552098686e-10).transl(7.368744010446902e-08, -3.081805826558898e-08, 0))
hIsland = hIsland.sub(rect(2.43687046655814e-09, -1.1031025349121884e-09).transl(4.422429494502761e-08, -4e-08, 0))
hIsland = hIsland.add(rect(5.577262760883871e-09, 1.9416134994626487e-09).transl(8.542241999528877e-08, -1.7577268411768125e-08, 0))
hIsland = hIsland.add(rect(7.57707340611885e-09, 9.368305222311435e-10).transl(6.518886223438309e-09, -4e-08, 0))
hIsland = hIsland.add(rect(9.030239093474639e-09, 1.9137298381404874e-10).transl(-2.1322260086383677e-09, -4e-08, 0))
hIsland = hIsland.sub(rect(6.23756033846373e-09, -6.299182878308021e-10).transl(9.763506279418741e-09, -4e-08, 0))
hIsland = hIsland.sub(rect(9.437199475058893e-09, -6.5924918624352e-11).transl(-5.9304866096322275e-08, -3.792515885068786e-08, 0))
hIsland = hIsland.sub(rect(2.001548727751165e-09, -1.1356880168694799e-09).transl(2.605603825759071e-08, -4e-08, 0))
hIsland = hIsland.add(rect(8.977383167631292e-09, 1.3158972925116883e-09).transl(2.845407532498079e-09, -4e-08, 0))
hIsland = hIsland.add(rect(6.434215862590869e-09, 2.0817784634853546e-10).transl(3.3719368952953673e-09, -4e-08, 0))
hIsland = hIsland.sub(rect(9.747020767826444e-09, -3.48625525915666e-09).transl(6.690335813736331e-08, -3.494184688236637e-08, 0))
hIsland = hIsland.sub(rect(3.0222496086997222e-09, -1.2597448763612845e-09).transl(-1.0862605326678022e-08, -4e-08, 0))
hIsland = hIsland.add(rect(9.503147864006036e-09, 6.775127900407967e-10).transl(5.7122333740151965e-08, -3.852130043769626e-08, 0))
hIsland = hIsland.sub(rect(7.045370604588978e-09, -2.6639951126060315e-09).transl(-5.995770489737622e-08, -3.772563265699169e-08, 0))
hIsland = hIsland.sub(rect(6.816707857663084e-09, -9.417117404272261e-10).transl(-8.993536036612335e-08, -2.1431973376141095e-09, 0))
hIsland = hIsland.sub(rect(2.7209005205960964e-09, -2.195889379138668e-09).transl(-5.6036833335861584e-08, -3.8778263580951e-08, 0))
hIsland = hIsland.add(rect(8.466058220069496e-09, 3.4951187193291817e-09).transl(2.48294981034791e-08, -4e-08, 0))
hIsland = hIsland.sub(rect(5.683784882848049e-09, -1.562449294283797e-09).transl(2.2500636514493292e-08, -4e-08, 0))
hIsland = hIsland.add(rect(4.222150578799584e-09, 1.9190403385699655e-09).transl(4.8528729104060824e-08, -3.987682834358602e-08, 0))
hIsland = hIsland.add(rect(7.2224354565812515e-09, 3.944511971355253e-09).transl(-1.705211292923712e-08, -4e-08, 0))
hIsland = hIsland.add(rect(7.149689304408649e-09, 1.6466958826988324e-09).transl(2.85483577176005e-08, -4e-08, 0))
hIsland = hIsland.add(rect(7.014727695612998e-09, 3.3309046312173736e-09).transl(-4.045386440833696e-09, -4e-08, 0))
hIsland = hIsland.sub(rect(7.228561635022263e-09, -2.787548926871832e-09).transl(8.1788362175456e-08, -2.303605604871393e-08, 0))
hIsland = hIsland.sub(rect(5.442007762467561e-09, -6.302852318484334e-10).transl(3.679030325181256e-08, -4e-08, 0))
hIsland = hIsland.add(rect(9.655562522140014e-09, 1.3215031548406485e-09).transl(-8.220845315185524e-09, -4e-08, 0))
hIsland = hIsland.sub(rect(4.707640790215339e-09, -5.548203967519163e-10).transl(-7.638256113406248e-08, -2.866766381269141e-08, 0))
hIsland = hIsland.add(rect(7.773133983701754e-09, 1.2565934785330544e-09).transl(3.611251811388554e-08, -4e-08, 0))
hIsland = hIsland.add(rect(8.77317665200751e-09, 1.720062410311112e-09).transl(-3.3186987536057953e-08, -4e-08, 0))
hIsland = hIsland.add(rect(7.58282580468682e-09, 7.471301934486862e-10).transl(5.94708949857738e-08, -3.787535840059988e-08, 0))
hIsland = hIsland.add(rect(2.6125815340723157e-09, 2.9826403275631663e-10).transl(1.995050928242839e-08, -4e-08, 0))
hIsland = hIsland.sub(rect(4.130505373307626e-09, -1.4445106946270248e-09).transl(4.0193689317855975e-09, -4e-08, 0))
hIsland = hIsland.sub(rect(8.950606311140303e-09, -1.410548373701195e-09).transl(-1.1185713659088562e-08, -4e-08, 0))
hIsland = hIsland.add(rect(7.101922534664313e-09, 2.480393134669143e-10).transl(5.189476691162506e-08, -3.952770244562183e-08, 0))
hIsland = hIsland.sub(rect(9.07836529245095e-09, -2.244686327968703e-09).transl(1.838435136492791e-09, -4e-08, 0))
hIsland = hIsland.sub(rect(6.066676267044379e-09, -1.3551438417221268e-09).transl(-8.84980412667525e-08, -1.0248098878905297e-08, 0))
hIsland = hIsland.sub(rect(3.7674085985003955e-09, -3.2558736922706583e-09).transl(-1.2584514972057883e-08, -4e-08, 0))
hIsland = hIsland.add(rect(2.34248749816101e-09, 6.746548011178917e-11).transl(7.88059376648448e-08, -2.6401026221739767e-08, 0))
hIsland = hIsland.sub(rect(5.737697574326298e-09, -3.47550999153725e-10).transl(-6.952154162538593e-09, -4e-08, 0))
hIsland = hIsland.sub(rect(3.2714671668495417e-09, -2.074134985250566e-09).transl(8.365775139137956e-08, -2.0474919457833637e-08, 0))
hIsland = hIsland.sub(rect(2.2847611580999025e-09, -4.663634350028771e-10).transl(-3.18513112156084e-08, -4e-08, 0))
hIsland = hIsland.add(rect(9.112976306605316e-09, 4.592960623652693e-09).transl(5.265771391382251e-08, -3.941657900347298e-08, 0))
hIsland = hIsland.sub(rect(9.346753199825074e-09, -3.1548305994066914e-10).transl(7.137679516688515e-08, -3.2408073089314014e-08, 0))
hIsland = hIsland.sub(rect(8.108496614796451e-09, -3.0852418781969238e-09).transl(3.151207544321092e-08, -4e-08, 0))
hIsland = hIsland.sub(rect(5.768746693994837e-09, -1.3053534171831082e-09).transl(-8.314860340207185e-08, -2.1216049056261052e-08, 0))
hIsland = hIsland.add(rect(2.593031418944179e-09, 1.4601049878728656e-09).transl(7.329119341359203e-08, -3.110613770069501e-08, 0))
hIsland = hIsland.sub(rect(6.19545080343772e-09, -3.963274602488973e-10).transl(7.649699045360186e-08, -2.856833564237474e-08, 0))
hIsland = hIsland.add(rect(6.14287961831316e-09, 7.7024524154817e-10).transl(-4.880277485346758e-08, -3.985691845058224e-08, 0))
hIsland = hIsland.sub(rect(6.320987072334231e-09, -7.426838411443949e-10).transl(6.194030491282512e-08, -3.705745762992237e-08, 0))
hIsland = hIsland.sub(rect(3.131951791373565e-09, -1.7925802640992437e-10).transl(-2.929570660852511e-08, -4e-08, 0))
hIsland = hIsland.add(rect(5.626652634802319e-09, 9.935946187057772e-11).transl(8.222696360233792e-08, -2.2472425786967946e-08, 0))
hIsland = hIsland.add(rect(5.920295989622588e-09, 4.7838718961018e-10).transl(1.4686472999502777e-08, -4e-08, 0))
hIsland = hIsland.add(rect(7.634886869233527e-09, 1.9720885287815946e-09).transl(-7.846584355781018e-08, -2.6741189424248616e-08, 0))
hIsland = hIsland.add(rect(4.4066976179910515e-09, 7.815089316994752e-11).transl(1.53845021505184e-08, -4e-08, 0))
hIsland = hIsland.add(rect(7.965215573199186e-09, 5.921697887863034e-10).transl(6.832078139811509e-08, -3.42094193076697e-08, 0))
hIsland = hIsland.add(rect(5.07643554983234e-09, 3.3107590547705722e-09).transl(-2.8171946033186313e-08, -4e-08, 0))
hIsland = hIsland.add(rect(4.2494119438699435e-09, 2.1699629016136564e-09).transl(-5.556096867017072e-08, -3.88828281321423e-08, 0))
hIsland = hIsland.add(rect(5.903380829285464e-09, 1.803043218671681e-09).transl(-5.8278591494795825e-08, -3.821890433056148e-08, 0))
hIsland = hIsland.add(rect(4.878133086473538e-09, 1.9738265046808e-09).transl(2.2855811239184878e-08, -4e-08, 0))
hIsland = hIsland.add(rect(6.390059390910561e-09, 8.068062539915263e-10).transl(5.771891168355618e-08, -3.836901306939914e-08, 0))
hIsland = hIsland.sub(rect(3.0438065944898656e-09, -2.0472635127698366e-09).transl(6.577630897871192e-09, -4e-08, 0))
hIsland = hIsland.add(rect(2.27548523019399e-09, 1.405007781729097e-09).transl(4.608090404984786e-08, -3.998845904060929e-08, 0))
hIsland = hIsland.sub(rect(4.131305666952977e-09, -3.5406910790380104e-10).transl(7.480009666505325e-08, -2.9972224030526754e-08, 0))
hIsland = hIsland.add(rect(4.009572540708262e-09, 4.2870892020487395e-09).transl(8.917996357445137e-08, -7.601471907376738e-09, 0))
hIsland = hIsland.sub(rect(8.301356399133825e-09, -1.957277745430759e-09).transl(-4.2376219746137945e-08, -4e-08, 0))
hIsland = hIsland.sub(rect(2.3747204233512545e-09, -1.223344343613104e-09).transl(-5.890986085095006e-08, -3.804107743259719e-08, 0))
hIsland = hIsland.sub(rect(8.810825464005114e-09, -2.8109276913420714e-09).transl(4.9367028486488784e-09, -4e-08, 0))
hIsland = hIsland.sub(rect(5.957470826313883e-09, -1.3764804216173976e-09).transl(4.7343324599470826e-08, -3.994572940423986e-08, 0))
hIsland = hIsland.add(rect(5.575163009748929e-09, 1.9224624855111598e-09).transl(4.22108509650894e-08, -4e-08, 0))
hIsland = hIsland.sub(rect(6.664617435030045e-09, -2.448176294717982e-09).transl(3.8720079656056254e-08, -4e-08, 0))
hIsland = hIsland.sub(rect(6.039014506783121e-09, -2.3711553326918082e-09).transl(-3.0407645601302733e-09, -4e-08, 0))
hIsland = hIsland.sub(rect(8.348178243054931e-09, -3.6806285989794064e-10).transl(8.452487146335522e-08, -1.9122157754277004e-08, 0))
hIsland = hIsland.add(rect(3.459128749136096e-09, 5.558894830164334e-10).transl(-8.873593725835665e-08, -9.41415974268094e-09, 0))
hIsland = hIsland.add(rect(3.891015912501678e-09, 1.4069742681206964e-10).transl(-1.462553402994483e-08, -4e-08, 0))
hIsland = hIsland.add(rect(2.210457566250212e-09, 2.4613072374323534e-09).transl(6.07482769453487e-09, -4e-08, 0))
hIsland = hIsland.sub(rect(9.549506455337274e-09, -1.3926093831544104e-09).transl(4.0744991224375433e-08, -4e-08, 0))
hIsland = hIsland.add(rect(4.186340644149147e-09, 1.929069372331993e-09).transl(8.153035205214747e-08, -2.3358223828063398e-08, 0))
hIsland = hIsland.sub(rect(6.7581538213840964e-09, -2.1515681712375244e-09).transl(6.260848012884644e-08, -3.6810534483079594e-08, 0))
hIsland = hIsland.sub(rect(8.646302130152924e-09, -1.6092117740309923e-09).transl(4.782290885170685e-08, -3.99212180780042e-08, 0))
hIsland = hIsland.add(rect(3.884390295367374e-09, 9.581035452681672e-10).transl(1.5963353010381374e-08, -4e-08, 0))
hIsland = hIsland.sub(rect(3.5780507215502787e-09, -1.6923607652576026e-09).transl(3.7526717296812436e-08, -4e-08, 0))
hIsland = hIsland.add(rect(3.6218950931336488e-09, 2.8721965815033265e-10).transl(-1.8909720050191115e-09, -4e-08, 0))
hIsland = hIsland.add(rect(8.98942297384577e-09, 3.3333976601910477e-09).transl(6.707493156219114e-08, -3.485643100547118e-08, 0))
hIsland = hIsland.add(rect(5.312721361931537e-09, 5.814968245908326e-09).transl(-8.001217414960776e-08, -2.512817766265506e-08, 0))
hIsland = hIsland.add(rect(4.407388223968131e-09, 1.1109881229539437e-09).transl(2.008521864167773e-08, -4e-08, 0))
hIsland = hIsland.sub(rect(9.04533992259075e-09, -3.2704111618056892e-09).transl(4.534175857474116e-08, -3.999884641375157e-08, 0))
hIsland = hIsland.add(rect(4.615727242107221e-09, 1.1895424394579756e-09).transl(-7.568703310657782e-08, -2.9256545947579877e-08, 0))
hIsland = hIsland.sub(rect(7.281849624291187e-09, -3.8836349703924014e-09).transl(1.695619587068199e-08, -4e-08, 0))
hIsland = hIsland.sub(rect(8.215772625723066e-09, -2.710885922964239e-10).transl(-6.337903326286835e-08, -3.651171175617258e-08, 0))
hIsland = hIsland.add(rect(6.103513493005536e-09, 2.0017733773178878e-11).transl(-7.261895728777756e-09, -4e-08, 0))
hIsland = hIsland.sub(rect(2.7755537975000356e-09, -1.2675562717244917e-10).transl(3.148247484818104e-08, -4e-08, 0))
hIsland = hIsland.add(rect(8.619819417493646e-09, 3.942574862782155e-09).transl(-7.024316732034957e-08, -3.3113735957248755e-08, 0))
hIsland = hIsland.add(rect(7.911953358857092e-09, 2.7434756382297844e-10).transl(-7.982070089658409e-08, -2.533752462904398e-08, 0))
hIsland = hIsland.add(rect(5.153941907262541e-09, 9.024625202869159e-10).transl(-6.026034117570259e-09, -4e-08, 0))
hIsland = hIsland.sub(rect(3.494055660147143e-09, -1.8380682178027506e-09).transl(-8.289497530845977e-08, -2.1572196946148934e-08, 0))
hIsland = hIsland.add(rect(2.6257713066705293e-09, 2.523785534349652e-10).transl(-3.770213744582889e-08, -4e-08, 0))
hIsland = hIsland.add(rect(9.679889518159613e-09, 8.001065219845112e-10).transl(-2.6767847290280857e-08, -4e-08, 0))
hIsland = hIsland.add(rect(5.472019141993295e-09, 1.9476731387461452e-09).transl(5.7661179028278344e-08, -3.838409697046592e-08, 0))
hIsland = hIsland.add(rect(9.869244661709797e-09, 7.978293863777137e-10).transl(1.099896568519924e-08, -4e-08, 0))
hIsland = hIsland.sub(rect(5.138522387065796e-09, -1.1322017957688072e-09).transl(8.595051164305987e-08, -1.6583331715981168e-08, 0))
hIsland = hIsland.sub(rect(5.97471300132218e-09, -3.742753989215801e-10).transl(-7.871952834401714e-08, -2.6488193999193004e-08, 0))
hIsland = hIsland.add(rect(7.196402884741039e-09, 3.988659910242199e-09).transl(7.769906402573178e-08, -2.7480488601922105e-08, 0))
hIsland = hIsland.add(rect(7.263323236537219e-09, 1.610588433309272e-09).transl(-8.536733148971044e-08, -1.7677015521518786e-08, 0))
hIsland = hIsland.add(rect(2.9928475142230866e-09, 1.89608112312731e-09).transl(2.7188561022664023e-08, -4e-08, 0))
hIsland = hIsland.sub(rect(8.05111294368757e-09, -1.5766729065293675e-09).transl(4.750786263070791e-08, -3.9937834409292875e-08, 0))
hIsland = hIsland.add(rect(7.232968277370446e-09, 1.5523513900409602e-09).transl(-2.371352906337627e-08, -4e-08, 0))
hIsland = hIsland.sub(rect(5.33662910015244e-09, -7.339383003006925e-10).transl(3.277549583076668e-08, -4e-08, 0))
hIsland = hIsland.sub(rect(6.412868541224621e-09, -1.5970711814468527e-09).transl(4.761786122733252e-08, -3.99322567353242e-08, 0))
hIsland = hIsland.sub(rect(5.934678342167959e-09, -1.7334747258073976e-11).transl(9.366137778005956e-09, -4e-08, 0))
hIsland = hIsland.add(rect(6.967352212791672e-09, 1.8503827381866929e-09).transl(-4.936765468469152e-08, -3.9811145210941255e-08, 0))
hIsland = hIsland.sub(rect(4.7875351980393656e-09, -5.792362442283329e-09).transl(6.9276691395762046e-09, -4e-08, 0))
hIsland = hIsland.add(rect(5.176066935384983e-09, 1.4158537557128135e-09).transl(2.4279803136123015e-08, -4e-08, 0))
hIsland = hIsland.add(rect(4.3036924728810594e-09, 1.5873408157012436e-09).transl(-5.8745559547067304e-08, -3.808823640294777e-08, 0))
hIsland = hIsland.sub(rect(7.05968160436013e-09, -1.1426931864175676e-10).transl(-8.168125452658087e-08, -2.317061683530131e-08, 0))
hIsland = hIsland.add(rect(5.6728416017993e-09, 3.665525584204124e-09).transl(8.618414058439477e-08, -1.6119714222870376e-08, 0))
hIsland = hIsland.add(rect(2.5923320022915634e-09, 3.265112905056391e-09).transl(-6.457408746002647e-08, -3.601760996020173e-08, 0))
hIsland = hIsland.sub(rect(2.452739027027014e-09, -2.1817988269473346e-09).transl(-5.14070208136131e-09, -4e-08, 0))
hIsland = hIsland.sub(rect(4.534343109966556e-09, -3.535780114288251e-10).transl(4.238990707147225e-08, -4e-08, 0))
hIsland = hIsland.sub(rect(4.112592720102288e-09, -4.612091591049951e-09).transl(-1.512265287988858e-08, -4e-08, 0))
hIsland = hIsland.add(rect(4.4126599349250464e-09, 3.936474618588876e-09).transl(5.97318807123075e-09, -4e-08, 0))
hIsland = hIsland.add(rect(8.283373040004094e-09, 4.664731412620427e-10).transl(-7.059340845379204e-08, -3.290062785957834e-08, 0))
hIsland = hIsland.add(rect(9.791168815304642e-09, 2.918977134041911e-09).transl(2.6175360213108596e-08, -4e-08, 0))
hIsland = hIsland.add(rect(2.6971813207509064e-09, 1.6720010499199969e-09).transl(6.21870701449022e-08, -3.696756931559843e-08, 0))
hIsland = hIsland.add(rect(9.598411100200938e-09, 1.2305962744514857e-09).transl(-3.472932632134317e-08, -4e-08, 0))
hIsland = hIsland.sub(rect(3.1264024071023934e-09, -1.1885309538530542e-09).transl(-3.7639310692920375e-08, -4e-08, 0))
hIsland = hIsland.sub(rect(3.975328683705716e-09, -2.1108351020042555e-09).transl(-4.672400533744457e-08, -3.99706342141781e-08, 0))
hIsland = hIsland.add(rect(9.739627240460342e-09, 2.143872371514332e-09).transl(7.296852168113327e-08, -3.133584601394957e-08, 0))
hIsland = hIsland.add(rect(3.9428923670534414e-09, 4.110259477246717e-10).transl(5.324024077895232e-08, -3.9323649096888544e-08, 0))
hIsland = hIsland.add(rect(9.48531732528667e-09, 4.894816014399585e-09).transl(8.665801901727063e-08, -1.512703609379865e-08, 0))
hIsland = hIsland.sub(rect(8.372791778725363e-09, -2.2360007674376737e-09).transl(6.637606596484322e-08, -3.519892034109291e-08, 0))
hIsland = hIsland.add(rect(7.193445499143941e-09, 9.055946078597009e-10).transl(-1.0154129214637663e-08, -4e-08, 0))
hIsland = hIsland.sub(rect(9.043651651042407e-09, -4.6589554355195884e-11).transl(1.9510588887340952e-08, -4e-08, 0))
hIsland = hIsland.sub(rect(5.470048527766376e-09, -8.312972871784907e-10).transl(-7.971516702128961e-08, -2.5451687332983916e-08, 0))
hIsland = hIsland.add(rect(5.696764899558039e-09, 1.778741166678425e-09).transl(7.156561385530096e-08, -3.2285983327139496e-08, 0))
hIsland = hIsland.add(rect(2.1549188204394376e-09, 6.273307162005689e-10).transl(-4.947301714314779e-08, -3.980190074386373e-08, 0))
hIsland = hIsland.add(rect(3.910087628814811e-09, 3.4653750155460185e-10).transl(-4.03252821931523e-08, -4e-08, 0))
hIsland = hIsland.sub(rect(5.531459575558303e-09, -1.6314664495247314e-10).transl(1.0186885207702223e-08, -4e-08, 0))
hIsland = hIsland.sub(rect(9.020392597672694e-09, -3.4005378271207195e-09).transl(-1.938909123313019e-08, -4e-08, 0))
hIsland = hIsland.sub(rect(2.7653772675026618e-09, -2.1176758930468207e-09).transl(4.067344579578071e-08, -4e-08, 0))
hIsland = hIsland.sub(rect(2.118869934579699e-09, -2.8488763305924964e-09).transl(8.43299996500482e-08, -1.9437037370697576e-08, 0))
hIsland = hIsland.add(rect(4.593935460675721e-09, 4.452941236553797e-09).transl(-7.229285086601158e-09, -4e-08, 0))
hIsland = hIsland.sub(rect(9.79491340425485e-09, -4.556552298405884e-11).transl(-4.0354911243880136e-08, -4e-08, 0))
hIsland = hIsland.add(rect(5.449533563411383e-09, 3.550804071536174e-09).transl(-1.3575872788359876e-08, -4e-08, 0))
hIsland = hIsland.add(rect(5.019574419198481e-09, 2.1776282832531908e-09).transl(-1.994636179868281e-08, -4e-08, 0))
hIsland = hIsland.add(rect(2.6640756414287616e-09, 1.4738515624525022e-09).transl(-1.0503489054757317e-08, -4e-08, 0))
hIsland = hIsland.add(rect(9.376967567376367e-09, 1.5725307811919133e-10).transl(-7.164382852682491e-08, -3.223501847288414e-08, 0))
hIsland = hIsland.sub(rect(2.626766721143026e-09, -1.8092010400595094e-09).transl(6.187688291602141e-08, -3.7080315345271993e-08, 0))
hIsland = hIsland.add(rect(4.60283078517372e-09, 3.007957405896364e-09).transl(-6.987706850933517e-08, -3.3331928413437086e-08, 0))
hIsland = hIsland.sub(rect(2.4394826070981435e-09, -7.153200291050871e-10).transl(4.8204557086233256e-08, -3.989844702698705e-08, 0))
hIsland = hIsland.sub(rect(9.019496956210353e-09, -6.411013177407246e-10).transl(-6.894453800512797e-08, -3.3867239420306776e-08, 0))
hIsland = hIsland.sub(rect(5.185750426290299e-09, -1.3104959532967516e-09).transl(6.039738412138106e-08, -3.758560861668113e-08, 0))
hIsland = hIsland.sub(rect(3.4551527971730016e-09, -1.3407063281669084e-09).transl(-5.51784294888571e-08, -3.8963352943563935e-08, 0))
hIsland = hIsland.sub(rect(4.446586206374695e-09, -3.982277352038647e-09).transl(-2.5855112365236052e-08, -4e-08, 0))
hIsland = hIsland.add(rect(3.0680390370991805e-09, 5.371848627023967e-10).transl(-6.724457501765919e-08, -3.4771111974989675e-08, 0))
hIsland = hIsland.add(rect(7.092575208842637e-09, 1.008546645109546e-09).transl(-4.2878207820419905e-08, -4e-08, 0))
hIsland = hIsland.sub(rect(5.6168263535456865e-09, -8.267097762134136e-10).transl(-4.671315159214691e-08, -3.997100293775149e-08, 0))
hIsland = hIsland.add(rect(8.628501230326315e-09, 2.579206725458095e-09).transl(-8.627585498678909e-08, -1.5933287961740673e-08, 0))
hIsland = hIsland.sub(rect(4.975353182320269e-09, -1.481479031306991e-09).transl(2.2227488362971142e-08, -4e-08, 0))
hIsland = hIsland.add(rect(3.450873339799616e-09, 2.0213660844269237e-09).transl(-1.66958617824588e-08, -4e-08, 0))
hIsland = hIsland.sub(rect(2.0202637153065253e-09, -7.775043344624616e-10).transl(-1.1325523231818526e-08, -4e-08, 0))
hIsland = hIsland.add(rect(4.8451522237946695e-09, 5.966701828597432e-10).transl(-6.892233556917472e-08, -3.387963427342998e-08, 0))
hIsland = hIsland.add(rect(5.957603603080349e-09, 2.5257457275847675e-09).transl(8.162952778551681e-08, -2.32351831001357e-08, 0))
hIsland = hIsland.add(rect(4.671827964706287e-09, 3.186331014401439e-09).transl(-2.513046617393272e-08, -4e-08, 0))
hIsland = hIsland.add(rect(2.4994755780781955e-09, 1.8075173632474222e-09).transl(7.781903742915752e-08, -2.7367253131783392e-08, 0))
hIsland = hIsland.add(rect(3.01578309844201e-09, 6.577193560662364e-10).transl(-3.693833355349221e-08, -4e-08, 0))
hIsland = hIsland.sub(rect(8.194449843128087e-09, -2.4382490892934424e-09).transl(-6.844462744873746e-09, -4e-08, 0))
hIsland = hIsland.add(rect(5.723848328252027e-09, 1.4269969491136958e-09).transl(-8.902027396383668e-08, -8.301264762718465e-09, 0))
hIsland = hIsland.sub(rect(7.208547275439973e-09, -2.1137246435368134e-09).transl(-8.709831832845106e-08, -1.4131141518833708e-08, 0))
hIsland = hIsland.add(rect(2.6529768391017133e-09, 1.9758827475872474e-09).transl(6.999865313411915e-09, -4e-08, 0))
hIsland = hIsland.add(rect(7.3616052272067734e-09, 3.3057104983082902e-09).transl(6.727420967682362e-08, -3.4756119157384206e-08, 0))
hIsland = hIsland.sub(rect(3.905019041215746e-09, -1.3660005248328708e-09).transl(7.815562828882805e-08, -2.7044790470140093e-08, 0))
hIsland = hIsland.sub(rect(6.107516391431776e-09, -6.414253086347039e-10).transl(2.4294515549966205e-08, -4e-08, 0))
hIsland = hIsland.sub(rect(7.895863933910573e-09, -1.3497746047680709e-09).transl(-8.582589484963668e-10, -4e-08, 0))
hIsland = hIsland.add(rect(9.0074935155018e-09, 7.306615693384168e-10).transl(-7.778880394432057e-09, -4e-08, 0))
hIsland = hIsland.sub(rect(2.893333701702971e-09, -9.930094535545015e-10).transl(2.463270397539072e-08, -4e-08, 0))
hIsland = hIsland.sub(rect(5.795300710286732e-09, -3.0562285352245623e-09).transl(-3.03268327576413e-08, -4e-08, 0))
hIsland = hIsland.sub(rect(5.039232969033972e-09, -5.0296997729829e-10).transl(-8.905484091840724e-08, -8.155088895099695e-09, 0))
hIsland = hIsland.sub(rect(6.440598888725496e-09, -6.71910981669096e-10).transl(3.26209604375827e-08, -4e-08, 0))
hIsland = hIsland.add(rect(8.092933951079454e-09, 1.2466486047325222e-09).transl(9.75994684342659e-09, -4e-08, 0))
hIsland = hIsland.add(rect(5.63578501227332e-09, 4.751872790189992e-09).transl(-5.7622303211820095e-08, -3.8394212132008e-08, 0))
hIsland = hIsland.add(rect(5.874552044255731e-09, 1.0266708589700977e-09).transl(-3.8568494695252e-09, -4e-08, 0))
hIsland = hIsland.add(rect(9.39154477921091e-09, 2.616756698897854e-11).transl(-5.191486130141165e-08, -3.952492889923612e-08, 0))
hIsland = hIsland.add(rect(5.325719520866568e-09, 4.045225276915512e-10).transl(-3.351582877085721e-08, -4e-08, 0))
hIsland = hIsland.add(rect(3.4625178476444803e-09, 1.0095343230837944e-09).transl(5.564057770894126e-09, -4e-08, 0))
hIsland = hIsland.sub(rect(8.03420483334243e-09, -3.3619170696405667e-09).transl(5.8141348241601705e-09, -4e-08, 0))
hIsland = hIsland.add(rect(2.2211115885746084e-09, 1.4213908192703602e-09).transl(7.692600817562097e-08, -2.8189552422027197e-08, 0))
hIsland = hIsland.sub(rect(2.5305585668916724e-09, -2.5176683679491165e-09).transl(6.687349718491261e-08, 3.4956623515808445e-08, 0))
hIsland = hIsland.sub(rect(6.120946649620933e-09, -4.209992738560124e-09).transl(-7.081500908007154e-08, 3.276354862458755e-08, 0))
hIsland = hIsland.add(rect(6.1206459203246535e-09, 2.871164886290593e-09).transl(5.931326018689124e-08, 3.792265639309858e-08, 0))
hIsland = hIsland.add(rect(5.515677505757379e-09, 2.0222304491147e-09).transl(8.523267411821667e-09, 4e-08, 0))
hIsland = hIsland.sub(rect(2.685881703154114e-09, -2.0140189423671435e-09).transl(7.667661521000051e-08, 2.8410980994271238e-08, 0))
hIsland = hIsland.sub(rect(6.089054143895498e-09, -1.687315745481897e-09).transl(-6.656309350943374e-08, 3.510866937561372e-08, 0))
hIsland = hIsland.sub(rect(9.287454555680207e-09, -2.502178349829399e-09).transl(-3.831107971742569e-08, 4e-08, 0))
hIsland = hIsland.add(rect(9.149201490610002e-09, 8.2247695178765e-10).transl(2.407083462858316e-08, 4e-08, 0))
hIsland = hIsland.sub(rect(7.87368075010501e-09, -4.910695394437431e-10).transl(5.4070693213073156e-08, 3.9178956555121474e-08, 0))
hIsland = hIsland.sub(rect(4.351104746943176e-09, -2.3670066216695283e-09).transl(-6.275062635516237e-08, 3.6756552602351253e-08, 0))
hIsland = hIsland.add(rect(6.831272567006728e-09, 5.838252978024652e-11).transl(-2.914341278099287e-08, 4e-08, 0))
hIsland = hIsland.sub(rect(9.80919888487043e-09, -5.660262799287613e-10).transl(7.550516173090697e-08, 2.9406442331309976e-08, 0))
hIsland = hIsland.sub(rect(8.014084282680284e-09, -1.7858019199436002e-09).transl(3.764686960939136e-08, 4e-08, 0))
hIsland = hIsland.add(rect(9.403467621145511e-09, 7.98695372131549e-10).transl(-4.8368088296303396e-08, 3.9887802956219785e-08, 0))
hIsland = hIsland.add(rect(6.415916548082587e-09, 3.857411432585811e-10).transl(6.625368359153136e-08, 3.525742715952193e-08, 0))
hIsland = hIsland.add(rect(9.200854670743064e-09, 9.296464103329934e-10).transl(6.922334889497501e-08, 3.371021744438918e-08, 0))
hIsland = hIsland.add(rect(2.146081080533697e-09, 3.060098761047027e-09).transl(-2.787856916841664e-08, 4e-08, 0))
hIsland = hIsland.sub(rect(6.96429215786577e-09, -2.6915996106360785e-09).transl(-2.8121706904412783e-08, 4e-08, 0))
hIsland = hIsland.sub(rect(5.7473189931092266e-09, -2.455317734769686e-09).transl(4.572093246384907e-08, 3.9994866400281306e-08, 0))
hIsland = hIsland.add(rect(2.0938985643836885e-09, 2.3078288935666943e-10).transl(7.939459253899725e-08, 2.5793282755779456e-08, 0))
hIsland = hIsland.add(rect(8.72383806575527e-09, 3.1598939014621357e-10).transl(8.19001072229499e-09, 4e-08, 0))
hIsland = hIsland.add(rect(3.5382303848933727e-09, 6.444356819186489e-10).transl(8.17168544921097e-08, 2.3126022475129475e-08, 0))
hIsland = hIsland.add(rect(7.499468106242334e-09, 9.933271945814989e-10).transl(-6.52484991650715e-08, 3.5721814412736015e-08, 0))
hIsland = hIsland.sub(rect(6.37278593528402e-09, -2.355212717172006e-09).transl(7.45673901558692e-08, 3.015377136286502e-08, 0))
hIsland = hIsland.add(rect(4.280383133843611e-09, 4.2048435370636866e-10).transl(1.6961605203776844e-09, 4e-08, 0))
hIsland = hIsland.add(rect(9.86675302945215e-09, 1.996653074562053e-09).transl(8.557168726200523e-08, 1.730340876061771e-08, 0))
hIsland = hIsland.add(rect(5.32577655062486e-09, 1.4213125269863633e-09).transl(1.985294827187383e-08, 4e-08, 0))
hIsland = hIsland.add(rect(4.374177643050426e-09, 2.300031997504439e-09).transl(-5.905172569241056e-08, 3.799985970152398e-08, 0))
hIsland = hIsland.sub(rect(5.019884748197482e-09, -3.2972702977619456e-10).transl(3.297880644699091e-08, 4e-08, 0))
hIsland = hIsland.sub(rect(4.726087892627453e-09, -2.6919811621827156e-09).transl(-4.610618839831417e-08, 3.9987912714236914e-08, 0))
hIsland = hIsland.sub(rect(2.2343813187297397e-09, -3.410525716780449e-09).transl(2.2241061583315873e-08, 4e-08, 0))
hIsland = hIsland.add(rect(8.712626183151009e-09, 5.557257807082157e-09).transl(-7.82393698261249e-08, 2.6963449148337663e-08, 0))
hIsland = hIsland.sub(rect(7.178975200210856e-09, -2.4749912076991626e-09).transl(-3.5209317170044716e-08, 4e-08, 0))
hIsland = hIsland.add(rect(3.66210117861709e-09, 7.282062927046006e-10).transl(-1.6005293779284017e-08, 4e-08, 0))
hIsland = hIsland.add(rect(5.767186034807841e-09, 1.4864728270961462e-09).transl(-8.738892202431347e-09, 4e-08, 0))
hIsland = hIsland.add(rect(9.61941456513986e-09, 2.9558969114196853e-09).transl(-3.2360248743964654e-08, 4e-08, 0))
hIsland = hIsland.sub(rect(2.9873843300243035e-09, -1.2059922472393207e-09).transl(3.579683113477089e-08, 4e-08, 0))
hIsland = hIsland.add(rect(5.9753415309243575e-09, 2.6968315243553287e-09).transl(-2.60560961994458e-08, 4e-08, 0))
hIsland = hIsland.add(rect(6.192979378168923e-09, 1.2585106781326602e-09).transl(-7.355900114492503e-08, 3.091216969005097e-08, 0))
hIsland = hIsland.sub(rect(8.437959164283608e-09, -1.924387409585592e-09).transl(-4.485771741055279e-08, 4e-08, 0))
hIsland = hIsland.sub(rect(5.334947372275879e-09, -1.8115598132539673e-09).transl(8.13800292592311e-08, 2.3542864020744185e-08, 0))
hIsland = hIsland.add(rect(4.7728588769652604e-09, 8.88322983210751e-10).transl(-1.2722497697622373e-09, 4e-08, 0))
hIsland = hIsland.sub(rect(8.919570254508658e-09, -6.376206947028132e-10).transl(-2.2176355481218042e-08, 4e-08, 0))
hIsland = hIsland.add(rect(3.5572776295273584e-09, 2.6126113387023727e-09).transl(-7.5588802566439e-08, 2.933771223277252e-08, 0))
hIsland = hIsland.add(rect(9.559672723355273e-09, 2.3935651157985203e-09).transl(1.2687184199289679e-08, 4e-08, 0))
hIsland = hIsland.add(rect(7.400896086315576e-09, 1.0316783507685763e-09).transl(9.325638246077521e-10, 4e-08, 0))
hIsland = hIsland.add(rect(3.2768304293940623e-09, 1.056651640183461e-09).transl(1.6868506735196433e-09, 4e-08, 0))
hIsland = hIsland.sub(rect(4.940619030655118e-09, -7.735680164139898e-10).transl(-1.3040469934367335e-09, 4e-08, 0))
hIsland = hIsland.sub(rect(2.256351498539696e-09, -2.3525940950088117e-09).transl(-2.2936739350355758e-08, 4e-08, 0))
hIsland = hIsland.add(rect(3.2366325434303333e-09, 1.2854909560130757e-09).transl(7.697321132975388e-08, 2.814724960026422e-08, 0))
hIsland = hIsland.add(rect(9.363891310794107e-09, 1.469505735469529e-09).transl(-8.211895775183667e-08, 2.2613147717920343e-08, 0))
hIsland = hIsland.sub(rect(6.362566317922056e-09, -4.0263239400217325e-09).transl(3.2725702157258604e-08, 4e-08, 0))
hIsland = hIsland.sub(rect(2.1649898710039893e-09, -9.57109209864953e-10).transl(-2.0671006937244215e-08, 4e-08, 0))
hIsland = hIsland.add(rect(2.5928079715785445e-09, 3.4839352685698487e-10).transl(-5.297699095293461e-08, 3.936651572423083e-08, 0))
hIsland = hIsland.add(rect(6.794338900668683e-09, 4.558265996287834e-09).transl(6.697534007476206e-08, 3.4906118079593356e-08, 0))
hIsland = hIsland.add(rect(7.423891110164416e-09, 2.3187695437674763e-09).transl(-5.161254140340063e-08, 3.956578440715827e-08, 0))
hIsland = hIsland.add(rect(3.1506983720111324e-09, 5.554558374353694e-10).transl(-4.9333264209098435e-08, 3.9814114465251704e-08, 0))
hIsland = hIsland.add(rect(8.623699241903056e-09, 3.465501119277384e-09).transl(6.648382409226023e-08, 3.514704549194842e-08, 0))
hIsland = hIsland.add(rect(2.925071517885937e-09, 4.299657017572835e-10).transl(6.524315051096409e-08, 3.5724209530514635e-08, 0))
hIsland = hIsland.sub(rect(5.766654964450305e-09, -6.629114344512842e-10).transl(-4.7805137661912604e-08, 3.9922207838178755e-08, 0))
hIsland = hIsland.sub(rect(4.393117776856879e-09, -1.0999485962919694e-09).transl(-7.860608067599124e-08, 2.6601867070444424e-08, 0))
hIsland = hIsland.sub(rect(7.527708283823478e-09, -1.3854351638264485e-09).transl(-3.0610272658402007e-09, 4e-08, 0))
hIsland = hIsland.add(rect(9.635885725256949e-09, 9.042735080316427e-10).transl(7.668698587396799e-08, 2.8401842071687003e-08, 0))
hIsland = hIsland.add(rect(5.248694219247051e-09, 7.673762277455327e-10).transl(8.853807546934702e-09, 4e-08, 0))
hIsland = hIsland.add(rect(3.4387619493590153e-09, 1.8384367622734579e-09).transl(-1.5898072745845145e-08, 4e-08, 0))
hIsland = hIsland.add(rect(3.0259181041395832e-09, 2.908026352061103e-10).transl(-5.338595000493256e-08, 3.9299303220183416e-08, 0))
hIsland = hIsland.add(rect(5.6068558911119705e-09, 5.602045117477141e-10).transl(3.53157513197409e-08, 4e-08, 0))
hIsland = hIsland.sub(rect(5.337916028248693e-09, -6.303864527094974e-11).transl(-8.234575585767118e-08, 2.2316148513562624e-08, 0))
hIsland = hIsland.add(rect(9.403802181291735e-09, 3.1883388527520814e-09).transl(-3.2028314909771455e-08, 4e-08, 0))
hIsland = hIsland.sub(rect(5.462769605715128e-09, -8.757072849222473e-10).transl(-5.518914094991649e-08, 3.896114082242558e-08, 0))
hIsland = hIsland.add(rect(4.1891482938330886e-09, 1.4998785770601818e-09).transl(-8.548960036826368e-08, 1.7454669603788676e-08, 0))
hIsland = hIsland.sub(rect(9.538388809101e-09, -1.7519003359738876e-10).transl(5.5558543564606895e-08, 3.888334850991673e-08, 0))
hIsland = hIsland.add(rect(3.769310743426444e-09, 2.4575295296950715e-09).transl(-3.549667268014174e-08, 4e-08, 0))
hIsland = hIsland.add(rect(9.2360715417816e-09, 1.9402954460180255e-09).transl(-8.209296984414325e-09, 4e-08, 0))
hIsland = hIsland.add(rect(9.240877258409683e-09, 9.45385685224532e-10).transl(6.954735711667948e-08, 3.352451554589017e-08, 0))
hIsland = hIsland.sub(rect(8.920457601793427e-09, -1.3036517030102797e-09).transl(-6.566816422577036e-08, 3.553140276916966e-08, 0))
hIsland = hIsland.sub(rect(8.743562674916714e-09, -1.9498502051981795e-09).transl(-1.2139195474399152e-08, 4e-08, 0))
hIsland = hIsland.sub(rect(7.900649250834249e-09, -1.054907942451452e-09).transl(1.7648990689947304e-08, 4e-08, 0))
hIsland = hIsland.add(rect(8.259069162824682e-09, 7.405520462705277e-12).transl(4.2948055359925035e-09, 4e-08, 0))
hIsland = hIsland.sub(rect(7.926338915218404e-09, -6.310234860179772e-10).transl(-3.662687527687656e-08, 4e-08, 0))
hIsland = hIsland.sub(rect(7.219723217458472e-09, -1.3796485968722666e-09).transl(5.181480426500087e-08, 3.953865749250861e-08, 0))
hIsland = hIsland.sub(rect(5.2502937911728985e-09, -3.507890186853357e-10).transl(-3.086062722576874e-08, 4e-08, 0))
hIsland = hIsland.sub(rect(5.885432677697625e-09, -2.246531777458093e-09).transl(9.47357689940655e-10, 4e-08, 0))
hIsland = hIsland.add(rect(9.674621549261326e-09, 6.327118473636181e-10).transl(8.383248155406262e-09, 4e-08, 0))
hIsland = hIsland.sub(rect(7.402983449346113e-09, -5.617778282247694e-10).transl(4.440574788823847e-09, 4e-08, 0))
hIsland = hIsland.sub(rect(4.079116668678009e-09, -7.298814322808833e-10).transl(-5.08808305315843e-08, 3.9656956991606187e-08, 0))
hIsland = hIsland.sub(rect(2.8455448039788715e-09, -1.9702895387369825e-10).transl(-4.5764765922341284e-08, 3.999422311947799e-08, 0))
hIsland = hIsland.sub(rect(3.5789098328902417e-09, -1.5148998897089405e-09).transl(-8.419283699724967e-08, 1.9654728893755495e-08, 0))
hIsland = hIsland.add(rect(6.623283375336746e-09, 6.356489924472816e-10).transl(-2.9293443556549366e-09, 4e-08, 0))
hIsland = hIsland.add(rect(9.993050452432044e-09, 2.685633936253671e-09).transl(5.1467679112458707e-08, 3.958469964448775e-08, 0))
hIsland = hIsland.add(rect(5.7564367413318294e-09, 2.4172953679288265e-10).transl(5.226563468144001e-08, 3.947517978930821e-08, 0))
hIsland = hIsland.add(rect(7.1742426637330435e-09, 1.7617258625401416e-09).transl(6.284690751392828e-08, 3.671969651763334e-08, 0))
hIsland = hIsland.add(rect(9.934592200634257e-09, 6.320839122894193e-10).transl(8.44735391254128e-08, 1.9205754465118637e-08, 0))
hIsland = hIsland.add(rect(6.115488948476208e-09, 1.2139117364272054e-09).transl(-7.206258129816103e-08, 3.19582034876395e-08, 0))
hIsland = hIsland.sub(rect(8.515231010963152e-09, -3.6379285522525373e-10).transl(-8.435551746762925e-08, 1.9396183814147607e-08, 0))
hIsland = hIsland.add(rect(5.726882620525176e-09, 2.0064616919919014e-09).transl(2.7707675538286193e-08, 4e-08, 0))
hIsland = hIsland.add(rect(7.495854969229814e-09, 1.0230237116396614e-09).transl(-4.698052016865204e-09, 4e-08, 0))
hIsland = hIsland.add(rect(5.037417096257041e-09, 2.111092815227352e-09).transl(2.1307232465272552e-08, 4e-08, 0))
hIsland = hIsland.add(rect(3.976530552035956e-09, 3.1156356096633006e-09).transl(4.810264837644361e-10, 4e-08, 0))
hIsland = hIsland.add(rect(3.357222050669021e-09, 1.4002958279094353e-09).transl(4.767692288273895e-08, 3.992916279593267e-08, 0))
hIsland = hIsland.add(rect(3.4067843381100337e-09, 3.8744017549337315e-09).transl(-8.07887261228975e-08, 2.4248378660325033e-08, 0))
hIsland = hIsland.sub(rect(5.5597141083899355e-09, -8.124348533511439e-10).transl(-3.664010189603538e-08, 4e-08, 0))
hIsland = hIsland.add(rect(3.0856947423625167e-09, 1.4387304483952764e-09).transl(1.602147292412385e-08, 4e-08, 0))
hIsland = hIsland.add(rect(6.933175878362278e-09, 2.2676408220215605e-09).transl(-6.786520175034567e-10, 4e-08, 0))
hIsland = hIsland.sub(rect(9.75742804492307e-09, -2.1054206341172557e-10).transl(-6.12307274016164e-08, 3.730754122835248e-08, 0))
hIsland = hIsland.add(rect(5.16649491124731e-09, 2.0503997006404076e-09).transl(-3.747116735488185e-08, 4e-08, 0))
hIsland = hIsland.sub(rect(3.5853045094848944e-09, -1.3191417729772152e-10).transl(-5.023702520709271e-08, 3.9728198196432625e-08, 0))
hIsland = hIsland.sub(rect(9.051531668294066e-09, -5.802296138902264e-10).transl(-5.1545112209417394e-08, 3.957464214832908e-08, 0))
hIsland = hIsland.add(rect(8.131626853212236e-09, 3.2705995160146494e-09).transl(-3.141242341033033e-08, 4e-08, 0))
hIsland = hIsland.sub(rect(8.969223002011547e-09, -1.6355387484154455e-10).transl(-7.258432056840348e-09, 4e-08, 0))
hIsland = hIsland.add(rect(7.125688937180462e-09, 8.038842562936113e-10).transl(-5.16768307770408e-08, 3.955725270541183e-08, 0))
hIsland = hIsland.sub(rect(4.7349380561152346e-09, -1.5261528284294952e-09).transl(-5.584131347474127e-08, 3.882181819689166e-08, 0))
hIsland = hIsland.sub(rect(8.47143200605793e-09, -6.575596962920964e-10).transl(8.133204062045078e-08, 2.3601344583649896e-08, 0))
hIsland = hIsland.add(rect(2.4373723022149545e-09, 7.149679186280571e-10).transl(5.4798968354722446e-08, 3.904013984171623e-08, 0))
hIsland = hIsland.add(rect(8.0440012567206e-09, 9.698465255086338e-10).transl(3.611611269978573e-08, 4e-08, 0))
hIsland = hIsland.sub(rect(8.43781918441061e-09, -1.3889848738952622e-09).transl(-8.448417744827482e-08, 1.9188468373093323e-08, 0))
hIsland = hIsland.sub(rect(9.351256242543447e-09, -4.269303618591014e-10).transl(2.4681854634232207e-08, 4e-08, 0))
hIsland = hIsland.sub(rect(5.410126278900838e-09, -1.3429788653321327e-09).transl(8.422363254731303e-08, 1.960612954884561e-08, 0))
hIsland = hIsland.add(rect(7.143107537834879e-09, 1.8472989202670314e-09).transl(3.072457572167461e-08, 4e-08, 0))
hIsland = hIsland.sub(rect(8.131571014469457e-09, -3.996587462869465e-09).transl(8.208647352394042e-08, 2.26552211897609e-08, 0))
hIsland = hIsland.add(rect(3.72560916336123e-09, 1.9793945027512006e-09).transl(-1.4094077430313207e-09, 4e-08, 0))
hIsland = hIsland.add(rect(2.1249749396751236e-09, 2.396664576093044e-09).transl(1.3345713309956934e-08, 4e-08, 0))
hIsland = hIsland.add(rect(9.959124652484979e-09, 1.827388590304301e-09).transl(4.0801046308853866e-09, 4e-08, 0))
hIsland = hIsland.sub(rect(7.0166650430554134e-09, -1.6719316512246793e-09).transl(4.6138078516108243e-08, 3.9987205630751305e-08, 0))
hIsland = hIsland.add(rect(8.0618012660976e-09, 8.301827697208548e-10).transl(1.849086179356328e-09, 4e-08, 0))
hIsland = hIsland.add(rect(7.187850731338544e-09, 1.17797560024244e-09).transl(4.6836421699901314e-09, 4e-08, 0))
hIsland = hIsland.sub(rect(9.075817082432304e-09, -3.915919269119745e-09).transl(1.7510278025827204e-08, 4e-08, 0))
hIsland = hIsland.add(rect(7.548862760052394e-09, 3.5855535320878056e-09).transl(7.019882369707524e-08, 3.314041100987111e-08, 0))
hIsland = hIsland.sub(rect(3.624637772161191e-09, -7.193350476552569e-10).transl(-4.734673221790112e-09, 4e-08, 0))
hIsland = hIsland.sub(rect(6.64387795929119e-09, -1.3557997377553024e-09).transl(-7.357554572908782e-08, 3.090008668377069e-08, 0))
hIsland = hIsland.add(rect(8.73355282215076e-09, 1.567991758343318e-09).transl(2.359270473000459e-08, 4e-08, 0))
hIsland = hIsland.sub(rect(5.147900194201161e-09, -9.398285767021735e-11).transl(1.496010340219893e-08, 4e-08, 0))
hIsland = hIsland.add(rect(7.255365479040605e-09, 2.3795423466997625e-09).transl(3.574235909209756e-08, 4e-08, 0))
hIsland = hIsland.sub(rect(7.370654614478624e-09, -2.612368117125341e-09).transl(7.795178621424285e-08, 2.7240924699822523e-08, 0))
hIsland = hIsland.add(rect(3.1273991179078158e-09, 9.694013641039071e-10).transl(-8.139074987233696e-08, 2.352976909286746e-08, 0))
hIsland = hIsland.add(rect(4.737379230065964e-09, 5.871935064586837e-10).transl(5.280733663606881e-08, 3.939338035161229e-08, 0))
hIsland = hIsland.add(rect(5.241064141462181e-09, 2.843923886026806e-09).transl(1.9498936652113515e-08, 4e-08, 0))
hIsland = hIsland.sub(rect(5.701444937612395e-09, -6.253579538417789e-10).transl(5.103565619457676e-08, 3.963857310086086e-08, 0))
hIsland = hIsland.sub(rect(3.0989569352508193e-09, -1.8138947200691405e-09).transl(-4.018954319052065e-08, 4e-08, 0))
hIsland = hIsland.add(rect(3.763412974135945e-09, 1.755146581057617e-09).transl(-6.928426278571525e-09, 4e-08, 0))
hIsland = hIsland.add(rect(4.208355174482068e-09, 1.6653567680030553e-09).transl(-1.0469046110662466e-08, 4e-08, 0))
hIsland = hIsland.add(rect(4.0121087867213504e-09, 3.7127295680930027e-09).transl(8.427830120518308e-08, 1.9519462741744508e-08, 0))
hIsland = hIsland.add(rect(7.124483573024759e-09, 2.3376367261575785e-09).transl(-3.5343616520315146e-08, 4e-08, 0))
hIsland = hIsland.add(rect(4.173209031305463e-09, 2.442668419222703e-09).transl(7.747340278031875e-08, 2.769110905123979e-08, 0))
hIsland = hIsland.add(rect(6.490806047644169e-09, 4.299974923485896e-09).transl(3.499120276158457e-08, 4e-08, 0))
hIsland = hIsland.sub(rect(9.575304060566517e-09, -9.616732014297863e-10).transl(-2.7256921435212578e-08, 4e-08, 0))
hIsland = hIsland.sub(rect(5.7448773216145215e-09, -1.181173616473417e-09).transl(-7.647635632031715e-08, 2.858629895833757e-08, 0))
hIsland = hIsland.add(rect(3.6145968267092138e-09, 1.69414037032975e-09).transl(-8.354107403661525e-08, 2.064798414058719e-08, 0))
hIsland = hIsland.add(rect(2.8550825265441464e-09, 1.1980914087930385e-09).transl(1.762133979215033e-08, 4e-08, 0))
hIsland = hIsland.sub(rect(2.470493168032911e-09, -1.0001870516355436e-09).transl(-6.468396946495971e-08, 3.597026312135187e-08, 0))
hIsland = hIsland.add(rect(7.6335253162001e-09, 3.336072411108232e-09).transl(1.3236557496463582e-08, 4e-08, 0))
hIsland = hIsland.sub(rect(2.7066849354414445e-09, -4.470124077915528e-10).transl(-4.9577508219178455e-08, 3.9792512910794366e-08, 0))
hIsland = hIsland.add(rect(5.855951679364131e-09, 2.404132383210379e-09).transl(7.965457780938345e-08, 2.5516843906445157e-08, 0))
hIsland = hIsland.add(rect(9.510966913719549e-09, 1.6910929817121254e-09).transl(-3.5301618620628794e-08, 4e-08, 0))
hIsland = hIsland.sub(rect(2.213838227737885e-09, -1.4344138186584273e-09).transl(6.996548006066656e-08, 3.327965818129849e-08, 0))
hIsland = hIsland.sub(rect(5.463080663161297e-09, -5.348993201494188e-10).transl(-3.438508790731118e-08, 4e-08, 0))
hIsland = hIsland.sub(rect(9.899748717226764e-09, -1.6499307914818115e-09).transl(-5.20045694958361e-08, 3.951244598348012e-08, 0))
hIsland = hIsland.add(rect(6.764361794859732e-09, 9.068240024884162e-11).transl(-1.541058332924053e-08, 4e-08, 0))
hIsland = hIsland.add(rect(4.828272541624391e-09, 6.666030044891993e-10).transl(-3.336255647924667e-09, 4e-08, 0))
hIsland = hIsland.sub(rect(3.296114272699672e-09, -3.5232184606336314e-09).transl(4.053555252318388e-08, 4e-08, 0))
hIsland = hIsland.sub(rect(4.255468047916651e-09, -4.2779267076061426e-09).transl(5.10827742332106e-08, 3.963288179791046e-08, 0))
hIsland = hIsland.add(rect(2.881351922567835e-09, 3.972873129926959e-10).transl(-4.91788076764772e-08, 3.982715809096078e-08, 0))
hIsland = hIsland.sub(rect(4.403680773444658e-09, -1.6223560422495273e-09).transl(-3.095278642166962e-08, 4e-08, 0))
hIsland = hIsland.add(rect(9.537938394983483e-09, 1.49363401486813e-09).transl(7.425265969479532e-08, 3.0395345982679863e-08, 0))
hIsland = hIsland.add(rect(8.474903474637988e-09, 1.2306121037819086e-09).transl(2.5116244868953773e-08, 4e-08, 0))
hIsland = hIsland.sub(rect(6.975554651773179e-09, -1.7766223316130672e-09).transl(-4.6254687237937705e-08, 3.9984448927026494e-08, 0))
hIsland = hIsland.add(rect(7.181607158228903e-09, 2.8185371051914004e-09).transl(-5.3648101616306236e-08, 3.9254387449957e-08, 0))
hIsland = hIsland.sub(rect(5.621749139986922e-09, -1.6388235542649821e-09).transl(3.606840955965431e-08, 4e-08, 0))
hIsland = hIsland.sub(rect(4.958422922811703e-09, -1.246777732836577e-09).transl(-8.340718015495957e-08, 2.0844179340545502e-08, 0))
hIsland = hIsland.add(rect(8.934794115219227e-09, 1.0294589525617316e-09).transl(4.9819500629747415e-08, 3.97699300879929e-08, 0))
hIsland = hIsland.sub(rect(6.064677299315334e-09, -5.947218708134804e-09).transl(-2.9042676915574264e-08, 4e-08, 0))
hIsland = hIsland.sub(rect(4.193395416565778e-09, -1.328643098846525e-09).transl(-3.4343562445048705e-08, 4e-08, 0))
hIsland = hIsland.sub(rect(4.197393748431742e-09, -1.0450467631351598e-09).transl(2.0115665793637468e-08, 4e-08, 0))
hIsland = hIsland.sub(rect(3.387400000511442e-09, -3.012022007617825e-09).transl(-7.347681496778381e-08, 3.097201935052615e-08, 0))
hIsland = hIsland.add(rect(4.669113520291383e-09, 2.66929880554095e-09).transl(-7.448621050240861e-08, 3.021651436567398e-08, 0))
hIsland = hIsland.sub(rect(4.6834179540113525e-09, -1.935419347149855e-09).transl(4.1649846382499806e-08, 4e-08, 0))
hIsland = hIsland.add(rect(2.509754696611407e-09, 2.38180159842984e-10).transl(-5.473651133007422e-08, 3.9052484819322655e-08, 0))
hIsland = hIsland.add(rect(5.99658182551263e-09, 6.00436037690134e-11).transl(6.721524332110753e-08, 3.47859255112788e-08, 0))
hIsland = hIsland.sub(rect(5.225469572935293e-09, -1.853741650157068e-09).transl(-9.050752594040068e-09, 4e-08, 0))
hIsland = hIsland.sub(rect(6.239906480651096e-09, -1.2842515886432909e-09).transl(1.2840853316470063e-09, 4e-08, 0))
hIsland = hIsland.add(rect(8.630676804424577e-09, 4.282229133176708e-09).transl(-1.511809101275297e-08, 4e-08, 0))
hIsland = hIsland.add(rect(7.2749229354397585e-09, 3.0032460337316726e-09).transl(-7.231858838805421e-08, 3.178563667836688e-08, 0))
hIsland = hIsland.sub(rect(9.449517186674332e-09, -4.654497586595052e-09).transl(-7.938226785155166e-09, 4e-08, 0))
hIsland = hIsland.add(rect(9.716600821299729e-09, 1.589139191366254e-09).transl(3.475804572964787e-08, 4e-08, 0))
hIsland = hIsland.sub(rect(9.882166678339017e-09, -1.76002408118547e-10).transl(5.7503761035307235e-08, 3.842484751621651e-08, 0))
hIsland = hIsland.sub(rect(5.173470084948893e-09, -3.3461819772415866e-09).transl(-6.025390153014256e-08, 3.7631806752975676e-08, 0))
hIsland = hIsland.sub(rect(6.553914787011891e-09, -4.1645122279471433e-10).transl(8.163719971926018e-08, 2.3225623937661242e-08, 0))
hIsland = hIsland.sub(rect(7.277731934724718e-09, -2.443883419286279e-09).transl(-3.413111629629414e-08, 4e-08, 0))
hIsland = hIsland.sub(rect(4.619808770183897e-09, -1.520200666548044e-09).transl(-4.039301867513488e-08, 4e-08, 0))
hIsland = hIsland.add(rect(5.5056101430536156e-09, 1.2477350092146362e-09).transl(-4.4789905041624144e-08, 4e-08, 0))
hIsland = hIsland.sub(rect(2.495462644757268e-09, -2.3840310861578306e-09).transl(6.403609835425744e-09, 4e-08, 0))
hIsland = hIsland.add(rect(8.132400048981012e-09, 5.576863862035284e-10).transl(-4.475129875468011e-08, 4e-08, 0))
hIsland = hIsland.sub(rect(8.953599046203387e-09, -1.2158451390910842e-09).transl(-9.385027336096526e-09, 4e-08, 0))
hIsland = hIsland.sub(rect(9.029804485562895e-09, -6.560872356054019e-10).transl(-1.396369688717736e-08, 4e-08, 0))
hIsland = hIsland.sub(rect(3.5129693140538134e-09, -6.608975695067541e-10).transl(-4.213580268109819e-08, 4e-08, 0))
hIsland = hIsland.sub(rect(3.774605637983122e-09, -5.351615131706209e-10).transl(-1.217262254138953e-08, 4e-08, 0))
hIsland = hIsland.add(rect(5.24191622131651e-09, 2.2435437015004906e-09).transl(-1.133391576370887e-08, 4e-08, 0))
hIsland = hIsland.sub(rect(2.058863871330434e-09, -6.049380272304259e-10).transl(7.493481007093247e-08, 2.98659675317272e-08, 0))
hIsland = hIsland.add(rect(9.749799458338025e-09, 2.0018579330747087e-10).transl(8.399914308255734e-08, 1.995682923579404e-08, 0))
hIsland = hIsland.add(rect(9.125883349808754e-09, 1.881370838055845e-09).transl(6.533670630160558e-08, 3.56822008600102e-08, 0))
vIsland = hIsland.rotz(pi / 2)
hIslands = hIslands.add(hIsland.transl(-a/2, a, 0))
hIsland = rect(islandLength-2*ellipseConstant, islandWidth)
hIsland = hIsland.add(ellipse(ellipseConstant*2, islandWidth).transl(islandLength/2-ellipseConstant, 0, 0))
hIsland = hIsland.add(ellipse(ellipseConstant*2, islandWidth).transl(-islandLength/2+ellipseConstant, 0, 0))
hIsland = hIsland.sub(rect(3.184975440349564e-09, -1.6972252639511077e-09).transl(-2.904055967707501e-08, -4e-08, 0))
hIsland = hIsland.sub(rect(6.323919885752555e-09, -9.30162800835195e-10).transl(1.68759496033352e-08, -4e-08, 0))
hIsland = hIsland.add(rect(5.720189047813856e-09, 1.9156656188770417e-09).transl(-5.2721207464729546e-08, -3.9406790969925996e-08, 0))
hIsland = hIsland.sub(rect(2.0184344083699583e-09, -4.310521715618504e-09).transl(2.2258961652958686e-08, -4e-08, 0))
hIsland = hIsland.sub(rect(4.963819262438361e-09, -3.732160682359294e-09).transl(2.1932901956248462e-08, -4e-08, 0))
hIsland = hIsland.sub(rect(8.348502444384003e-09, -1.490014111588115e-09).transl(-7.835234883172847e-08, -2.6852990948668003e-08, 0))
hIsland = hIsland.add(rect(3.6436796437423173e-09, 1.7426728889626071e-09).transl(-3.387190027237924e-08, -4e-08, 0))
hIsland = hIsland.sub(rect(7.271955270372034e-09, -3.404907541737844e-09).transl(-4.82266802708589e-08, -3.989703819625341e-08, 0))
hIsland = hIsland.add(rect(2.160715493140452e-09, 3.9995061286613406e-10).transl(4.143480813122337e-08, -4e-08, 0))
hIsland = hIsland.add(rect(5.289845837132117e-09, 2.10497232758472e-09).transl(-8.759934057070081e-09, -4e-08, 0))
hIsland = hIsland.add(rect(8.317407589644617e-09, 7.519643610676798e-10).transl(-3.149231783444015e-08, -4e-08, 0))
hIsland = hIsland.sub(rect(2.035362440882487e-09, -1.919547053626682e-09).transl(1.3942658063708774e-08, -4e-08, 0))
hIsland = hIsland.sub(rect(7.89240521346403e-09, -2.082924823915186e-09).transl(-3.018099079194529e-08, -4e-08, 0))
hIsland = hIsland.add(rect(7.967433205335183e-09, 8.018067511491273e-10).transl(-3.6433278467027215e-08, -4e-08, 0))
hIsland = hIsland.add(rect(8.406735518365175e-09, 2.2826573859496417e-09).transl(-8.727396539246292e-08, -1.3710570131502311e-08, 0))
hIsland = hIsland.add(rect(7.557923477785563e-09, 1.193442918078152e-09).transl(8.485649298096975e-08, -1.857033274016175e-08, 0))
hIsland = hIsland.add(rect(9.590178282334392e-09, 8.467230104817938e-10).transl(-5.8212848813112366e-08, -3.8236902878265966e-08, 0))
hIsland = hIsland.add(rect(5.907977074877636e-09, 2.213739071306229e-09).transl(7.648947579297715e-08, -2.8574880299403526e-08, 0))
hIsland = hIsland.sub(rect(6.467930895438766e-09, -8.752950658224376e-10).transl(3.5682877952754246e-08, -4e-08, 0))
hIsland = hIsland.sub(rect(5.411471323511352e-09, -5.416186718049046e-10).transl(4.8596454519076904e-08, -3.987204735042877e-08, 0))
hIsland = hIsland.add(rect(3.5077792858655416e-09, 3.3322703041598543e-09).transl(-1.4838283937149296e-09, -4e-08, 0))
hIsland = hIsland.sub(rect(5.081023637166801e-09, -2.8535290560412326e-10).transl(7.925212298831237e-08, -2.5942646269064316e-08, 0))
hIsland = hIsland.add(rect(5.859741092656944e-09, 6.887980113487728e-10).transl(-1.697882512336799e-08, -4e-08, 0))
hIsland = hIsland.add(rect(9.827737101109338e-09, 1.636626837945059e-09).transl(7.115624735071153e-08, -3.2549003202923405e-08, 0))
hIsland = hIsland.add(rect(9.651955160404499e-09, 3.433644135345067e-10).transl(-3.124783636205718e-08, -4e-08, 0))
hIsland = hIsland.sub(rect(8.123482382459436e-09, -1.7587337392087165e-10).transl(-4.179763191337199e-08, -4e-08, 0))
hIsland = hIsland.add(rect(3.5466166561930877e-09, 2.6543499724621193e-09).transl(6.472438832919366e-08, -3.5952764677173065e-08, 0))
hIsland = hIsland.sub(rect(5.528721564513042e-09, -9.391963122855512e-10).transl(-1.5604392544454175e-08, -4e-08, 0))
hIsland = hIsland.add(rect(4.212313962885295e-09, 3.0043179372295713e-09).transl(-6.97687211003275e-08, -3.3395621270502194e-08, 0))
hIsland = hIsland.sub(rect(7.1638797524004535e-09, -6.795883933641521e-11).transl(5.974741725495008e-08, -3.779099046652794e-08, 0))
hIsland = hIsland.add(rect(3.2831365299785305e-09, 2.656910576222146e-09).transl(3.782938590037242e-08, -4e-08, 0))
hIsland = hIsland.sub(rect(7.292306850002743e-09, -4.782040683387778e-10).transl(8.266678649131871e-08, -2.1885686315831902e-08, 0))
hIsland = hIsland.sub(rect(5.711688389974345e-09, -2.829960707493236e-09).transl(4.463087616205265e-08, -4e-08, 0))
hIsland = hIsland.sub(rect(8.563170019282453e-09, -1.7062993625941313e-09).transl(-2.8767158141491017e-08, -4e-08, 0))
hIsland = hIsland.sub(rect(4.398787388841863e-09, -2.5388257359058675e-10).transl(2.9355394112349723e-08, -4e-08, 0))
hIsland = hIsland.add(rect(2.3146815805820884e-09, 9.669735417861008e-10).transl(2.0577566574765153e-08, -4e-08, 0))
hIsland = hIsland.sub(rect(6.929387026183246e-09, -4.5520245548366953e-10).transl(-1.9164823755177273e-09, -4e-08, 0))
hIsland = hIsland.sub(rect(4.401859658310859e-09, -8.874751672739084e-11).transl(4.777709232844865e-08, -3.9923757048263976e-08, 0))
hIsland = hIsland.sub(rect(2.358332746271261e-09, -7.397744206397335e-10).transl(-8.099018479693921e-08, -2.4011628430351557e-08, 0))
hIsland = hIsland.add(rect(6.444122452333019e-09, 4.507784172711655e-10).transl(-4.309483305292477e-08, -4e-08, 0))
hIsland = hIsland.sub(rect(4.779070050322514e-09, -1.416240564582535e-09).transl(-7.013804366153315e-08, -3.317686251169903e-08, 0))
hIsland = hIsland.sub(rect(3.118833742585313e-09, -1.5575682030992485e-09).transl(-6.885646439183365e-08, -3.391631364456466e-08, 0))
hIsland = hIsland.add(rect(9.104683364180033e-09, 7.419094572200147e-10).transl(-1.693472558299734e-08, -4e-08, 0))
hIsland = hIsland.sub(rect(7.1928435708719945e-09, -2.43291270505146e-09).transl(3.2577787278326964e-08, -4e-08, 0))
hIsland = hIsland.add(rect(3.7308500516143065e-09, 4.953140130280886e-10).transl(5.428976220070594e-08, -3.913837754863157e-08, 0))
hIsland = hIsland.add(rect(5.8383712858398905e-09, 5.418040195268859e-10).transl(2.5136314180907863e-08, -4e-08, 0))
hIsland = hIsland.add(rect(7.017478908802489e-09, 1.1676869030516537e-09).transl(2.593740867267754e-08, -4e-08, 0))
hIsland = hIsland.sub(rect(6.45835901160526e-09, -1.7732708008030325e-10).transl(1.3419263955859552e-08, -4e-08, 0))
hIsland = hIsland.add(rect(2.996602018404179e-09, 2.046289818532997e-09).transl(5.403713115090749e-08, -3.91850841923243e-08, 0))
hIsland = hIsland.add(rect(4.564183593655162e-09, 2.5079711192550296e-09).transl(-3.742492632982446e-08, -4e-08, 0))
hIsland = hIsland.add(rect(8.560946612441289e-09, 5.044685603611646e-10).transl(2.1502935998846814e-08, -4e-08, 0))
hIsland = hIsland.sub(rect(5.263617166790507e-09, -9.160057739884294e-10).transl(7.770705307191837e-10, -4e-08, 0))
hIsland = hIsland.sub(rect(5.593542535555079e-09, -2.512212414613872e-09).transl(5.8675953519132124e-08, -3.8108028852024044e-08, 0))
hIsland = hIsland.sub(rect(9.751468250716087e-09, -1.0200980206300359e-09).transl(-6.670613772035968e-08, -3.503895353603709e-08, 0))
hIsland = hIsland.sub(rect(9.076515149475264e-09, -4.447777895446245e-10).transl(-4.054971138307119e-08, -4e-08, 0))
hIsland = hIsland.add(rect(2.284687456524841e-09, 3.9660501240105907e-10).transl(3.711182732331891e-08, -4e-08, 0))
hIsland = hIsland.sub(rect(7.1425483172968055e-09, -8.061795418821884e-10).transl(2.5684488313915668e-08, -4e-08, 0))
hIsland = hIsland.add(rect(2.7786330574124698e-09, 3.270130533565768e-10).transl(-6.186932249644465e-09, -4e-08, 0))
hIsland = hIsland.add(rect(3.4317355286888527e-09, 3.28755851312901e-09).transl(-4.404230911274902e-08, -4e-08, 0))
hIsland = hIsland.add(rect(2.393258245287008e-09, 9.12786989637108e-10).transl(3.7160007375153535e-08, -4e-08, 0))
hIsland = hIsland.sub(rect(7.849883052665986e-09, -1.594105610891373e-10).transl(1.682415342772107e-08, -4e-08, 0))
hIsland = hIsland.sub(rect(8.136519778428888e-09, -1.2462490226765024e-09).transl(-3.4153822682748894e-08, -4e-08, 0))
hIsland = hIsland.add(rect(9.435235531170183e-09, 1.3031398610293736e-09).transl(-7.444753413972789e-08, -3.0246300644674686e-08, 0))
hIsland = hIsland.add(rect(8.435271879351593e-09, 7.354528746198834e-10).transl(-8.246115020245477e-08, -2.2162804573769767e-08, 0))
hIsland = hIsland.add(rect(8.952766960916812e-09, 2.13039249639307e-09).transl(5.032514001302927e-08, -3.9718942299063724e-08, 0))
hIsland = hIsland.sub(rect(2.8018448200059647e-09, -2.470605775388238e-09).transl(-6.688011633256972e-10, -4e-08, 0))
hIsland = hIsland.sub(rect(6.672747787377778e-09, -7.855258496367893e-10).transl(-4.020890983865664e-08, -4e-08, 0))
hIsland = hIsland.sub(rect(8.460143122130615e-09, -5.656551930100186e-10).transl(-3.420365987081866e-08, -4e-08, 0))
hIsland = hIsland.add(rect(5.053863591566439e-09, 1.2241753159340357e-09).transl(-4.540439898206632e-08, -3.999838477196382e-08, 0))
hIsland = hIsland.sub(rect(7.989826830024368e-09, -5.358485962221858e-10).transl(-1.0802120339045655e-08, -4e-08, 0))
hIsland = hIsland.sub(rect(6.465855180852021e-09, -5.4208117760288755e-09).transl(-5.3296152129739406e-08, -3.9314359364225096e-08, 0))
hIsland = hIsland.sub(rect(4.787939286381529e-09, -2.3538178252222303e-10).transl(-6.367346533901376e-08, -3.6393478642333665e-08, 0))
hIsland = hIsland.add(rect(2.649935585306354e-09, 1.6586782549393396e-09).transl(5.191733049788055e-08, -3.9524587515845774e-08, 0))
hIsland = hIsland.sub(rect(5.186004852596386e-09, -1.238208689338609e-09).transl(8.71246843713267e-08, -1.4068922876558539e-08, 0))
hIsland = hIsland.sub(rect(7.877283268980797e-09, -2.7867231006237358e-09).transl(-4.981681292386191e-08, -3.977018736524732e-08, 0))
hIsland = hIsland.add(rect(5.284369960303096e-09, 8.059522764320613e-10).transl(5.378356928993734e-08, -3.923061450566314e-08, 0))
hIsland = hIsland.add(rect(2.2838787537241423e-09, 1.464979092826968e-09).transl(-4.584874539876356e-08, -3.9992884614035626e-08, 0))
hIsland = hIsland.add(rect(4.280388915119129e-09, 9.611779036069671e-10).transl(-1.0456787183328179e-08, -4e-08, 0))
hIsland = hIsland.sub(rect(4.855199729182314e-09, -3.781341322822065e-10).transl(-5.427519472068969e-08, -3.914110731433424e-08, 0))
hIsland = hIsland.add(rect(6.461901535215608e-09, 2.9439837872551667e-09).transl(1.1149055809577895e-09, -4e-08, 0))
hIsland = hIsland.add(rect(4.117108800061185e-09, 9.32051718647341e-10).transl(-4.984318429911831e-08, -3.9767656722031066e-08, 0))
hIsland = hIsland.sub(rect(2.474375643448892e-09, -1.3557389010826907e-09).transl(-8.701600315212807e-08, -1.4323403392248595e-08, 0))
hIsland = hIsland.add(rect(4.7699998420106105e-09, 3.4748430588379794e-10).transl(3.025260205673417e-08, -4e-08, 0))
hIsland = hIsland.sub(rect(5.572930392108525e-09, -2.7631911441240156e-09).transl(-3.0967277990197914e-09, -4e-08, 0))
hIsland = hIsland.add(rect(3.84525335420239e-09, 5.55248490197393e-09).transl(-8.561009454689369e-08, -1.7232073933891314e-08, 0))
hIsland = hIsland.add(rect(9.847950303650319e-09, 1.0971071647238005e-09).transl(1.6974406816398486e-08, -4e-08, 0))
hIsland = hIsland.sub(rect(7.64994924835203e-09, -1.0821413096911893e-09).transl(4.565165507988549e-08, -3.999580566312494e-08, 0))
hIsland = hIsland.add(rect(4.523289940610776e-09, 1.6976717715704099e-09).transl(5.6151510644884704e-08, -3.8752332285299174e-08, 0))
hIsland = hIsland.add(rect(2.7540332755207483e-09, 1.3138472123913886e-09).transl(5.043623700875824e-08, -3.970704899633961e-08, 0))
hIsland = hIsland.sub(rect(6.0822023757574765e-09, -1.8240804658313254e-10).transl(1.725006895858043e-08, -4e-08, 0))
hIsland = hIsland.sub(rect(9.961201800486396e-09, -1.0969244495310001e-09).transl(-5.2983761187893864e-08, -3.936543129539342e-08, 0))
hIsland = hIsland.add(rect(3.5791817558751406e-09, 4.1692882559611185e-09).transl(-4.936004196560269e-08, -3.9811804530774406e-08, 0))
hIsland = hIsland.sub(rect(8.600453003680866e-09, -1.4394290568875796e-11).transl(2.3698507742022426e-08, -4e-08, 0))
hIsland = hIsland.add(rect(6.471464337399382e-09, 9.818737132631971e-10).transl(6.955402674484573e-08, -3.352065611913797e-08, 0))
hIsland = hIsland.sub(rect(2.4660373994638115e-09, -1.4932427592921402e-09).transl(1.827434137191012e-08, -4e-08, 0))
hIsland = hIsland.add(rect(8.488855635407525e-09, 3.1195982707610626e-10).transl(4.1008146935017296e-08, -4e-08, 0))
hIsland = hIsland.sub(rect(9.02004344771973e-09, -6.799382580563779e-09).transl(-2.0271907854402046e-08, -4e-08, 0))
hIsland = hIsland.add(rect(8.68413806507541e-09, 1.9974760114753683e-09).transl(-8.43918223014814e-08, -1.9337865844555734e-08, 0))
hIsland = hIsland.sub(rect(7.135227823499721e-09, -4.704343974560853e-10).transl(6.900654177285725e-08, -3.383253984380883e-08, 0))
hIsland = hIsland.sub(rect(7.306995625010435e-09, -2.97217237744846e-09).transl(6.078062043760027e-08, -3.745980713380992e-08, 0))
hIsland = hIsland.add(rect(8.027596455783935e-09, 1.1700917605921203e-09).transl(6.19310509786737e-08, -3.7060799032061576e-08, 0))
hIsland = hIsland.sub(rect(6.757427338215096e-09, -2.7785500536878166e-10).transl(-2.8152247246363605e-08, -4e-08, 0))
hIsland = hIsland.add(rect(2.0098115851427586e-09, 1.821718004396922e-09).transl(4.0160963919279335e-09, -4e-08, 0))
hIsland = hIsland.add(rect(3.1876913646330076e-09, 4.84167302738343e-09).transl(-7.229377691428374e-08, -3.180247359589238e-08, 0))
hIsland = hIsland.sub(rect(5.464884468769737e-09, -5.927972697239328e-11).transl(-6.317512017672394e-08, -3.659227477331441e-08, 0))
hIsland = hIsland.add(rect(6.5768983935414075e-09, 5.859801034176568e-10).transl(-1.4103262631368024e-08, -4e-08, 0))
hIsland = hIsland.add(rect(3.5289551666616417e-09, 1.3296397541431153e-09).transl(-1.5319770611368496e-08, -4e-08, 0))
hIsland = hIsland.sub(rect(8.810276039867976e-09, -2.806844018857286e-09).transl(-2.779661776218323e-09, -4e-08, 0))
hIsland = hIsland.add(rect(2.736336399803139e-09, 7.808154116683239e-10).transl(-4.891644523856851e-09, -4e-08, 0))
hIsland = hIsland.add(rect(6.306788654189265e-09, 2.2314198650399713e-09).transl(-3.518737788113137e-08, -4e-08, 0))
hIsland = hIsland.sub(rect(9.37575413359443e-09, -1.4379866139093527e-09).transl(-7.008472519065617e-08, -3.320873378632897e-08, 0))
hIsland = hIsland.add(rect(9.569421374752732e-09, 1.286374384413967e-09).transl(4.581421610232868e-09, -4e-08, 0))
hIsland = hIsland.add(rect(2.820395946271533e-09, 5.883895170528009e-10).transl(5.157066302562418e-08, -3.9571296617286754e-08, 0))
hIsland = hIsland.sub(rect(9.912936084813194e-09, -3.496734502507065e-09).transl(-3.588726374955705e-08, -4e-08, 0))
hIsland = hIsland.sub(rect(5.9161704376716005e-09, -3.6633051034609443e-09).transl(8.643772755247143e-08, -1.5597777246829103e-08, 0))
hIsland = hIsland.sub(rect(9.803865469725262e-09, -1.7818921228577654e-09).transl(-2.0125987604790614e-08, -4e-08, 0))
hIsland = hIsland.add(rect(9.89719357445555e-09, 1.4171263001328385e-09).transl(3.410671188120341e-08, -4e-08, 0))
hIsland = hIsland.add(rect(2.8810353790283803e-09, 2.435087702930528e-09).transl(7.937636453679194e-08, -2.581247567037983e-08, 0))
hIsland = hIsland.add(rect(4.309055624366648e-09, 2.7879863949303274e-10).transl(5.9568868340499456e-08, -3.784567049911599e-08, 0))
hIsland = hIsland.sub(rect(6.923929870871259e-09, -2.0788289155750673e-09).transl(6.035636671852936e-08, -3.759886524377552e-08, 0))
hIsland = hIsland.add(rect(2.3317988588807453e-09, 1.4670155932306738e-09).transl(-4.354194679877073e-08, -4e-08, 0))
hIsland = hIsland.sub(rect(4.95012832604321e-09, -5.627167630082609e-09).transl(3.8490564342919784e-08, -4e-08, 0))
hIsland = hIsland.add(rect(9.12220678236188e-09, 2.2495196531250972e-09).transl(1.966662359959196e-09, -4e-08, 0))
hIsland = hIsland.sub(rect(2.6828000827371475e-09, -3.7473271974546073e-10).transl(-1.7927506361733475e-09, -4e-08, 0))
hIsland = hIsland.add(rect(2.6439820392434604e-09, 8.009858795345337e-10).transl(8.623506652345228e-08, -1.6016517124061513e-08, 0))
hIsland = hIsland.sub(rect(8.469480873801316e-09, -6.269968792033592e-10).transl(-5.628778673836553e-09, -4e-08, 0))
hIsland = hIsland.sub(rect(4.528820513282452e-09, -1.3462556168265706e-09).transl(-5.042823642450429e-08, -3.970791381092129e-08, 0))
hIsland = hIsland.sub(rect(8.974728669477977e-09, -1.7838394928896261e-09).transl(1.1809626543562752e-08, -4e-08, 0))
hIsland = hIsland.add(rect(5.149614394207833e-09, 4.833093416309191e-09).transl(-7.69954290525407e-08, -2.8127294696754822e-08, 0))
hIsland = hIsland.sub(rect(3.748881669999559e-09, -2.1149195412897446e-09).transl(-1.2299481029240075e-09, -4e-08, 0))
hIsland = hIsland.sub(rect(5.8209782339769476e-09, -1.1916275881959015e-09).transl(2.7684015617088357e-08, -4e-08, 0))
hIsland = hIsland.add(rect(3.873139557135996e-09, 4.7294122085944045e-09).transl(6.184091169001432e-08, -3.7093235279036885e-08, 0))
hIsland = hIsland.sub(rect(4.3903131047088874e-09, -2.8963215059244225e-09).transl(-5.2847545372155613e-08, -3.9387067192546714e-08, 0))
hIsland = hIsland.add(rect(5.480877810166889e-09, 4.4328161955512197e-10).transl(-5.43273134070681e-08, -3.913132027991701e-08, 0))
hIsland = hIsland.sub(rect(3.938355547488518e-09, -8.548421682294518e-10).transl(-1.541117480238305e-08, -4e-08, 0))
hIsland = hIsland.add(rect(3.132293486454522e-09, 3.057798206774593e-09).transl(-8.082079506200419e-08, -2.4210935451929542e-08, 0))
hIsland = hIsland.add(rect(7.1850529722889315e-09, 5.349059108410276e-09).transl(3.3881682178411287e-09, -4e-08, 0))
hIsland = hIsland.sub(rect(5.0806520036957115e-09, -7.891307638334382e-10).transl(4.271893393080924e-08, -4e-08, 0))
hIsland = hIsland.add(rect(5.768306429433133e-09, 1.3752676555080317e-09).transl(-6.657186737907526e-08, -3.5104410474879234e-08, 0))
hIsland = hIsland.add(rect(6.1901232260335385e-09, 2.946103560941115e-09).transl(3.7701853126037575e-08, -4e-08, 0))
hIsland = hIsland.add(rect(5.8312594262213626e-09, 2.449010843341575e-09).transl(4.0064951433669e-08, -4e-08, 0))
hIsland = hIsland.sub(rect(5.541423441976497e-09, -1.7136836197173e-09).transl(-1.7510913682069766e-08, -4e-08, 0))
hIsland = hIsland.add(rect(4.068411109822641e-09, 2.7995182260127276e-10).transl(2.9438367082655338e-08, -4e-08, 0))
hIsland = hIsland.sub(rect(2.3193206176529433e-09, -6.239409775559429e-10).transl(-5.9172078612176076e-08, -3.796452860689754e-08, 0))
hIsland = hIsland.add(rect(9.269037768532414e-09, 1.9864545942856e-09).transl(8.074677386676593e-08, -2.4297223872202803e-08, 0))
hIsland = hIsland.add(rect(6.041694989255598e-09, 2.942020326359602e-09).transl(2.1379524969978063e-08, -4e-08, 0))
hIsland = hIsland.sub(rect(8.419558875814983e-09, -2.1067714701174554e-09).transl(5.866830918869042e-08, -3.811019576662858e-08, 0))
hIsland = hIsland.sub(rect(7.83177951905143e-09, -5.12524300250195e-10).transl(2.704139152606588e-09, -4e-08, 0))
hIsland = hIsland.add(rect(4.937357300895827e-09, 2.2003878194123948e-09).transl(5.1011976123674195e-08, -3.9641416357583096e-08, 0))
hIsland = hIsland.add(rect(6.164833025278241e-09, 7.256944297455096e-10).transl(1.72753589096821e-08, -4e-08, 0))
hIsland = hIsland.add(rect(4.0359552444156585e-09, 6.732490945488786e-11).transl(-3.236338723070811e-08, -4e-08, 0))
hIsland = hIsland.sub(rect(7.2692097261448294e-09, -3.1329817054234463e-09).transl(-5.241550380501599e-08, -3.94531538760796e-08, 0))
hIsland = hIsland.sub(rect(3.873412870650743e-09, -3.4227959446264426e-09).transl(3.287910537250007e-08, -4e-08, 0))
hIsland = hIsland.sub(rect(9.415754914379332e-09, -7.246886027495234e-10).transl(7.666672092969621e-08, -2.841969458743451e-08, 0))
hIsland = hIsland.add(rect(6.46506574144439e-09, 1.0218794718783732e-09).transl(3.923112835078835e-08, -4e-08, 0))
hIsland = hIsland.add(rect(6.43318474510601e-09, 1.2268617465258333e-09).transl(-1.621099086515584e-08, -4e-08, 0))
hIsland = hIsland.sub(rect(9.92149478635697e-09, -4.180712205282398e-09).transl(3.818895354982289e-09, -4e-08, 0))
hIsland = hIsland.add(rect(2.773001605131974e-09, 1.2015952045022196e-09).transl(1.0391200092990124e-08, -4e-08, 0))
hIsland = hIsland.add(rect(6.301745344807429e-09, 1.7114056009885843e-09).transl(7.343969428408559e-08, -3.0998957070822815e-08, 0))
hIsland = hIsland.sub(rect(4.666389721780899e-09, -4.6430296537460385e-10).transl(-4.7160132881124914e-08, -3.995388775098708e-08, 0))
hIsland = hIsland.sub(rect(8.187494353482485e-09, -1.204648004689003e-09).transl(-8.218510926469235e-08, -2.2527111110635717e-08, 0))
hIsland = hIsland.sub(rect(6.027414374709258e-09, -2.1199614914544163e-10).transl(-8.950434220009215e-08, -5.920528861068436e-09, 0))
hIsland = hIsland.add(rect(3.738899521233514e-09, 6.56646331983401e-09).transl(8.79992526474883e-08, -1.1794596687392458e-08, 0))
hIsland = hIsland.sub(rect(5.487497967288566e-09, -1.3673823939135255e-10).transl(-6.383467506496677e-08, -3.6327780916656444e-08, 0))
hIsland = hIsland.sub(rect(3.2458818401497783e-09, -3.3903001269899016e-10).transl(-6.691130070752065e-09, -4e-08, 0))
hIsland = hIsland.add(rect(6.104359071457186e-09, 3.625523967177625e-09).transl(-8.890829160278401e-08, -8.757334439702553e-09, 0))
hIsland = hIsland.sub(rect(2.9639884824364126e-09, -9.624274352064523e-10).transl(-5.067567841070863e-08, -3.9680568241433174e-08, 0))
hIsland = hIsland.add(rect(4.686182515492018e-09, 2.324924436045529e-09).transl(-4.781666659125906e-08, -3.992156645348103e-08, 0))
hIsland = hIsland.add(rect(4.569539998104245e-09, 2.4735541206320066e-10).transl(-2.938918551918773e-08, -4e-08, 0))
hIsland = hIsland.sub(rect(9.078375177284976e-09, -1.3351797927325269e-09).transl(-1.3131854580037152e-08, -4e-08, 0))
hIsland = hIsland.sub(rect(9.574660080512438e-09, -2.638228266428416e-09).transl(1.7146111187254162e-08, -4e-08, 0))
hIsland = hIsland.add(rect(4.000007099114001e-09, 2.04577515337708e-09).transl(3.554221388909281e-08, -4e-08, 0))
hIsland = hIsland.sub(rect(4.936732825943396e-09, -5.892617365955519e-10).transl(2.5371281585007232e-08, -4e-08, 0))
hIsland = hIsland.sub(rect(5.92209877468833e-09, -1.8144394884194708e-09).transl(4.524237293408832e-08, -3.999941980182493e-08, 0))
hIsland = hIsland.sub(rect(7.61268668019647e-09, -1.923989676869187e-09).transl(7.819460695323314e-08, -2.7006985020135456e-08, 0))
hIsland = hIsland.add(rect(6.3232613289623746e-09, 1.169551485760493e-09).transl(-7.257508468311557e-08, -3.1610152514662154e-08, 0))
hIsland = hIsland.sub(rect(4.049924847579272e-09, -3.842393067224806e-09).transl(6.26141249908222e-09, -4e-08, 0))
hIsland = hIsland.sub(rect(4.657914083789045e-09, -3.40833326562003e-10).transl(1.4595818305602614e-08, -4e-08, 0))
hIsland = hIsland.add(rect(7.435268531922453e-09, 4.65796591814583e-09).transl(-3.843623260659232e-08, -4e-08, 0))
hIsland = hIsland.sub(rect(7.955995984364816e-09, -1.0915721957462724e-09).transl(-7.90371598028268e-08, -2.6165237555604203e-08, 0))
hIsland = hIsland.sub(rect(4.440167945024627e-09, -4.975969237443319e-10).transl(4.773911280300233e-08, -3.992583010993449e-08, 0))
hIsland = hIsland.sub(rect(7.428590558621443e-09, -3.9752616678537066e-10).transl(-1.9633071417132354e-09, -4e-08, 0))
hIsland = hIsland.sub(rect(4.713639434108021e-09, -7.034195454568601e-10).transl(4.5501498844657005e-08, -3.999751596147492e-08, 0))
hIsland = hIsland.add(rect(3.154018421712699e-09, 5.205177731434057e-10).transl(-8.490714270750635e-08, -1.8484186601235998e-08, 0))
hIsland = hIsland.sub(rect(7.667926423772785e-09, -7.921381674137034e-10).transl(-3.27534767115045e-08, -4e-08, 0))
hIsland = hIsland.add(rect(7.311985682830035e-09, 1.3880844134054776e-09).transl(5.1180067220558714e-09, -4e-08, 0))
hIsland = hIsland.add(rect(8.589907332160593e-09, 1.8497595651331046e-09).transl(-5.080744134692549e-08, -3.966550138346415e-08, 0))
hIsland = hIsland.sub(rect(2.3909087315206854e-09, -5.165603988801155e-09).transl(-6.986106162367088e-08, -3.334136335804324e-08, 0))
hIsland = hIsland.add(rect(5.336412564228328e-09, 4.232486761363253e-09).transl(-7.485951736170541e-08, -2.9925460951773315e-08, 0))
hIsland = hIsland.add(rect(4.111140788677327e-09, 2.439884908225886e-10).transl(-7.9171341955194e-08, -2.602668167852024e-08, 0))
hIsland = hIsland.sub(rect(7.568205755808842e-09, -1.8598280240525334e-09).transl(5.983170162599496e-08, -3.7764919399965535e-08, 0))
hIsland = hIsland.add(rect(6.053452677056038e-09, 9.474559983030446e-11).transl(-5.832033111112304e-08, -3.8207426377500703e-08, 0))
hIsland = hIsland.sub(rect(9.953870189261547e-09, -5.786157873341908e-10).transl(8.163649783021578e-08, -2.3226498731996465e-08, 0))
hIsland = hIsland.add(rect(2.556112163965042e-09, 1.710136958603845e-10).transl(7.918568448188353e-08, -2.601179563775505e-08, 0))
hIsland = hIsland.sub(rect(2.7566899718748843e-09, -8.955762626111919e-11).transl(-8.770020864913234e-08, -1.2623855334744017e-08, 0))
hIsland = hIsland.sub(rect(9.782456061286344e-09, -1.323082727733637e-09).transl(3.650091285084252e-08, -4e-08, 0))
hIsland = hIsland.sub(rect(9.447767489156575e-09, -5.244320863595346e-10).transl(8.241170876454153e-08, -2.222869323236233e-08, 0))
hIsland = hIsland.add(rect(5.97886473264601e-09, 1.395153602611887e-09).transl(-4.0991023613902796e-08, -4e-08, 0))
hIsland = hIsland.add(rect(9.961295352919562e-09, 2.6347618401565642e-09).transl(-4.758713842342014e-10, -4e-08, 0))
hIsland = hIsland.sub(rect(5.674432885808815e-09, -1.0765595617325612e-09).transl(2.786278179210191e-08, -4e-08, 0))
hIsland = hIsland.add(rect(3.4645536572064313e-09, 1.7039224010467693e-10).transl(-3.3427312741624083e-08, 4e-08, 0))
hIsland = hIsland.add(rect(6.03324948458888e-09, 1.5625385123280256e-09).transl(-5.301706204618464e-08, 3.936008347022792e-08, 0))
hIsland = hIsland.sub(rect(3.5035952388615766e-09, -2.028174223895248e-09).transl(-7.853062273217426e-08, 2.6676995617282754e-08, 0))
hIsland = hIsland.sub(rect(5.731141904291157e-09, -1.099605527161417e-09).transl(3.170113486786401e-10, 4e-08, 0))
hIsland = hIsland.add(rect(8.535571066241907e-09, 1.3168727619514133e-09).transl(-3.641652681490694e-08, 4e-08, 0))
hIsland = hIsland.add(rect(4.280029186675045e-09, 1.7910434970805177e-09).transl(2.996274158352714e-08, 4e-08, 0))
hIsland = hIsland.add(rect(6.487288594270145e-09, 3.806069779686072e-09).transl(7.914569142078194e-08, 2.6053267483850813e-08, 0))
hIsland = hIsland.sub(rect(8.49632571521366e-09, -4.711737507322013e-10).transl(-5.1916196830266694e-08, 3.95247442686881e-08, 0))
hIsland = hIsland.sub(rect(5.6014798794559636e-09, -6.502745928434247e-10).transl(2.139286050805283e-08, 4e-08, 0))
hIsland = hIsland.add(rect(9.412748250825594e-09, 1.996410918278407e-09).transl(-6.567535824933702e-08, 3.5528095632448445e-08, 0))
hIsland = hIsland.sub(rect(3.2574438570759113e-09, -1.2748942235034878e-09).transl(8.091686112627309e-08, 2.4098220198996434e-08, 0))
hIsland = hIsland.sub(rect(3.456985198660588e-09, -3.4426805919181904e-10).transl(1.879155732918135e-08, 4e-08, 0))
hIsland = hIsland.add(rect(9.659189864848796e-09, 1.1806164800757167e-10).transl(-5.176715448644921e-08, 3.954512341991763e-08, 0))
hIsland = hIsland.sub(rect(2.4178610653812304e-09, -2.2475856220064515e-09).transl(-5.601406886117313e-10, 4e-08, 0))
hIsland = hIsland.sub(rect(4.9801282693577544e-09, -8.54716627992648e-10).transl(4.683640880238495e-08, 3.99666784934146e-08, 0))
hIsland = hIsland.sub(rect(5.187276686435451e-09, -3.3705646321778694e-10).transl(6.311738074350535e-08, 3.6614891553201826e-08, 0))
hIsland = hIsland.sub(rect(3.0325007351306425e-09, -3.7138408523309647e-09).transl(4.655064018218823e-09, 4e-08, 0))
hIsland = hIsland.sub(rect(8.365587400836837e-09, -1.9993394166597208e-09).transl(-6.282270789349954e-08, 3.672898228817844e-08, 0))
hIsland = hIsland.sub(rect(4.598363109293622e-09, -2.5441049131271523e-09).transl(-8.943423775642753e-08, 6.322900725490774e-09, 0))
hIsland = hIsland.sub(rect(3.334876889149724e-09, -2.958399893555144e-10).transl(2.784566593105966e-08, 4e-08, 0))
hIsland = hIsland.add(rect(2.9880611392141464e-09, 1.2348808820614523e-09).transl(3.7966637722631645e-08, 4e-08, 0))
hIsland = hIsland.sub(rect(4.931252580254017e-09, -6.047777815574439e-10).transl(-6.727239177600415e-08, 3.4757039633858015e-08, 0))
hIsland = hIsland.sub(rect(4.714125947624747e-09, -2.8082724416748025e-09).transl(-6.583137813083489e-08, 3.545601271526908e-08, 0))
hIsland = hIsland.add(rect(7.534881028286562e-09, 1.1545462080128729e-09).transl(2.062044077260181e-08, 4e-08, 0))
hIsland = hIsland.add(rect(9.053694099193573e-09, 1.5461583296731693e-10).transl(2.507100968172071e-08, 4e-08, 0))
hIsland = hIsland.sub(rect(8.223253053020653e-09, -6.870349706142227e-10).transl(-5.253702848754161e-08, 3.9434954241911055e-08, 0))
hIsland = hIsland.add(rect(2.071107773021095e-09, 1.9182608970128073e-10).transl(-4.695321944151159e-08, 3.996230257025591e-08, 0))
hIsland = hIsland.sub(rect(4.513074146031064e-09, -1.1890409167436435e-09).transl(5.7483649309624514e-08, 3.843001398960112e-08, 0))
[...]
hIsland = hIsland.sub(rect(6.395882216171587e-09, -3.0357344888422745e-09).transl(1.3473892170020037e-08, 4e-08, 0))
hIsland = hIsland.sub(rect(2.8490306916942123e-09, -3.161313215915618e-10).transl(2.087957706317394e-08, 4e-08, 0))
hIsland = hIsland.sub(rect(3.5872398735573532e-09, -1.7479110955665692e-11).transl(-8.739167007450191e-08, 1.3420347427405195e-08, 0))
hIsland = hIsland.add(rect(8.457205141691762e-09, 1.5819805799165977e-09).transl(-1.968953410463487e-08, 4e-08, 0))
hIsland = hIsland.add(rect(5.231940046150224e-09, 2.9302451672226345e-09).transl(-8.967000809643863e-08, 4.835292203948718e-09, 0))
hIsland = hIsland.add(rect(7.396964306399725e-09, 4.737646461960818e-09).transl(-9.494473153843074e-09, 4e-08, 0))
hIsland = hIsland.sub(rect(8.200959790408744e-09, -4.1910573811878286e-09).transl(-6.037657794781642e-08, 3.7592338075293895e-08, 0))
hIsland = hIsland.add(rect(5.86717484221636e-09, 3.3486649780834053e-09).transl(-2.2844824773236843e-08, 4e-08, 0))
hIsland = hIsland.sub(rect(8.64995415470256e-09, -7.866857286829109e-10).transl(-2.7980923824923008e-08, 4e-08, 0))
hIsland = hIsland.add(rect(5.532275220278234e-09, 1.0932174464303005e-09).transl(-8.408309745783029e-08, 1.9826636142380858e-08, 0))
hIsland = hIsland.sub(rect(6.4085454420691846e-09, -2.835366086358048e-09).transl(-6.796959065569821e-08, 3.439664531572135e-08, 0))
hIsland = hIsland.add(rect(4.698740346853593e-09, 1.7825603824960098e-09).transl(-1.673604570068343e-08, 4e-08, 0))
hIsland = hIsland.sub(rect(7.735666310483244e-09, -2.1527915766013365e-09).transl(-7.097009069910268e-08, 3.266656857527683e-08, 0))
hIsland = hIsland.add(rect(3.755391247201803e-09, 2.1955445065001174e-09).transl(5.138416150753979e-08, 3.959541045204225e-08, 0))
hIsland = hIsland.sub(rect(2.2834881294438274e-09, -2.1246517133617973e-09).transl(2.9298402243278508e-08, 4e-08, 0))
hIsland = hIsland.add(rect(5.419602597395828e-09, 4.206825401334205e-09).transl(-3.776966683077775e-08, 4e-08, 0))
hIsland = hIsland.sub(rect(3.3533752104817324e-09, -1.2849744587007608e-09).transl(-3.682605348793072e-08, 4e-08, 0))
hIsland = hIsland.sub(rect(6.767059022578555e-09, -5.962215295838769e-10).transl(-2.719413078659399e-08, 4e-08, 0))
hIsland = hIsland.add(rect(9.885883143865213e-09, 3.774777885342935e-09).transl(-2.6271429649635736e-08, 4e-08, 0))
hIsland = hIsland.sub(rect(2.4967998868157616e-09, -2.2562790773548472e-09).transl(7.920782425279097e-08, 2.5988787856193017e-08, 0))
hIsland = hIsland.add(rect(9.189282399292674e-09, 2.0606366595076696e-09).transl(4.20507255735526e-08, 4e-08, 0))
hIsland = hIsland.add(rect(9.284363919186852e-09, 3.931624790725045e-10).transl(6.599278067575955e-08, 3.53807163436133e-08, 0))
hIsland = hIsland.add(rect(3.9600839581707725e-09, 3.646550283712011e-10).transl(3.0361593253851086e-08, 4e-08, 0))
hIsland = hIsland.sub(rect(8.704528784835603e-09, -1.8458418722967004e-09).transl(-4.474535348736284e-08, 4e-08, 0))
hIsland = hIsland.sub(rect(3.2685893130944663e-09, -1.4310123753103804e-11).transl(4.5905770040000655e-08, 3.9991896271807643e-08, 0))
hIsland = hIsland.sub(rect(7.84082073900485e-09, -8.255351005374101e-10).transl(3.948184807030356e-08, 4e-08, 0))
hIsland = hIsland.add(rect(2.173392759441681e-09, 2.6288438760704207e-09).transl(-4.6132874054240615e-08, 3.99873223996446e-08, 0))
hIsland = hIsland.sub(rect(9.404192494812594e-09, -1.209259831299893e-10).transl(3.558562113672315e-08, 4e-08, 0))
hIsland = hIsland.add(rect(4.7588911595961e-09, 1.916672361297748e-09).transl(8.524133921363023e-08, 1.7902553639071696e-08, 0))
hIsland = hIsland.sub(rect(7.845936553059799e-09, -1.8937361629380152e-09).transl(-2.7987440319122143e-08, 4e-08, 0))
hIsland = hIsland.add(rect(5.639090933285208e-09, 4.082101967505109e-10).transl(-8.550428630611255e-08, 1.742772681368163e-08, 0))
hIsland = hIsland.sub(rect(3.137288905073101e-09, -1.065001970479673e-09).transl(4.117160439951859e-08, 4e-08, 0))
hIsland = hIsland.add(rect(6.121012479568744e-09, 1.774183268783577e-09).transl(-8.260362335220143e-08, 2.1971339549706818e-08, 0))
hIsland = hIsland.sub(rect(9.07474265913872e-09, -1.514905031940875e-09).transl(2.2475340136531173e-08, 4e-08, 0))
hIsland = hIsland.sub(rect(9.694372459290267e-09, -6.167773754338533e-11).transl(-6.973155397803568e-08, 3.341737834676105e-08, 0))
hIsland = hIsland.add(rect(9.201353052045437e-09, 1.1260366252778156e-09).transl(1.2442805245277615e-08, 4e-08, 0))
hIsland = hIsland.sub(rect(8.644101789064881e-09, -1.8108893678229326e-09).transl(-6.403660446768924e-08, 3.62445214560474e-08, 0))
hIsland = hIsland.add(rect(6.2745168236661905e-09, 3.1715831889314757e-09).transl(7.520535210495582e-08, 2.9649963893509766e-08, 0))
hIsland = hIsland.sub(rect(7.886257082322872e-09, -3.506034172295227e-10).transl(-2.3545186215289017e-08, 4e-08, 0))
hIsland = hIsland.sub(rect(6.430757840003641e-09, -8.402736911483197e-10).transl(-5.4391851654032815e-08, 3.9119121629247565e-08, 0))
hIsland = hIsland.sub(rect(6.962655956893017e-09, -3.2744240060847244e-09).transl(-1.3186858164011306e-08, 4e-08, 0))
hIsland = hIsland.sub(rect(9.35166761075642e-09, -4.166380579370889e-10).transl(-7.64765478876675e-08, 2.8586132292896202e-08, 0))
hIsland = hIsland.sub(rect(7.27057449810942e-09, -2.760799182852169e-09).transl(3.3910184032833164e-08, 4e-08, 0))
hIsland = hIsland.add(rect(9.188894379235475e-09, 2.7875817794504407e-09).transl(-5.655875930888432e-08, 3.8657930898133484e-08, 0))
hIsland = hIsland.sub(rect(8.965088997772265e-09, -4.254442291179536e-10).transl(7.690992628718992e-08, 2.8203936043967907e-08, 0))
hIsland = hIsland.sub(rect(3.057847291480786e-09, -5.674660730701134e-10).transl(-8.971596627595929e-08, 4.487116042194199e-09, 0))
hIsland = hIsland.add(rect(6.09684111263911e-09, 7.647701905376451e-10).transl(6.965489386190248e-08, 3.346210632831658e-08, 0))
hIsland = hIsland.sub(rect(8.554124466565025e-09, -3.211020493892214e-09).transl(4.855645655732273e-08, 3.987488201497713e-08, 0))
hIsland = hIsland.sub(rect(8.756724467149774e-09, -1.5826113982729445e-09).transl(-2.2587864265181412e-08, 4e-08, 0))
hIsland = hIsland.add(rect(7.87889778668921e-09, 3.590361082954236e-09).transl(-3.970025580863391e-08, 4e-08, 0))
hIsland = hIsland.add(rect(4.621889151766739e-09, 5.809582476450867e-10).transl(6.887855073846299e-08, 3.3904030886097465e-08, 0))
hIsland = hIsland.sub(rect(3.996172170329927e-09, -1.982792051573382e-10).transl(-5.358151016737891e-08, 3.926593279321431e-08, 0))
hIsland = hIsland.sub(rect(6.4485693727411625e-09, -1.0899795051595186e-09).transl(2.220493050746275e-08, 4e-08, 0))
hIsland = hIsland.add(rect(2.400814747622179e-09, 1.896588034058817e-09).transl(-4.8746668344243533e-08, 3.9861116683602797e-08, 0))
hIsland = hIsland.add(rect(8.386537630002009e-09, 3.8101743380183183e-11).transl(-2.7970294645179053e-09, 4e-08, 0))
hIsland = hIsland.add(rect(6.040738849770726e-09, 2.302657249004077e-09).transl(-4.471893051047681e-08, 4e-08, 0))
hIsland = hIsland.sub(rect(4.910340819820322e-09, -4.699879788252402e-10).transl(8.010156091073388e-08, 2.5029451043911012e-08, 0))
hIsland = hIsland.sub(rect(3.5053076246471817e-09, -3.1816881753463545e-10).transl(8.669216876697414e-08, 1.5052515504632528e-08, 0))
hIsland = hIsland.add(rect(8.234647626470189e-09, 3.332034286946282e-09).transl(7.235852754447481e-08, 3.175848328745527e-08, 0))
hIsland = hIsland.sub(rect(6.1593171847251986e-09, -5.769566069854913e-10).transl(2.2320919755752047e-08, 4e-08, 0))
hIsland = hIsland.add(rect(7.386308758538772e-09, 4.149241439719585e-10).transl(-7.038680655411568e-08, 3.302685839127245e-08, 0))
hIsland = hIsland.sub(rect(3.3110917430648538e-09, -9.310151275389188e-10).transl(8.500138629089436e-08, 1.832252276137368e-08, 0))
hIsland = hIsland.sub(rect(7.404132971699779e-09, -5.749228753873936e-10).transl(-8.511025515846538e-08, 1.8133495230710874e-08, 0))
hIsland = hIsland.add(rect(4.009475149823011e-09, 3.1283642837483923e-09).transl(5.4128930510218904e-08, 3.916826760720728e-08, 0))
hIsland = hIsland.sub(rect(8.46644014785382e-09, -5.190943356556557e-10).transl(8.924667707739718e-08, 7.288431834371174e-09, 0))
hIsland = hIsland.sub(rect(5.202232056272043e-09, -2.4624183237783826e-09).transl(4.03372894179522e-08, 4e-08, 0))
hIsland = hIsland.add(rect(3.0730258032210723e-09, 6.930975854989169e-10).transl(-2.8302413240618026e-09, 4e-08, 0))
hIsland = hIsland.add(rect(6.260202679685622e-09, 2.326940790511708e-09).transl(7.947700099557181e-08, 2.570620565671365e-08, 0))
hIsland = hIsland.sub(rect(8.195676804203612e-09, -1.8465409526865615e-09).transl(-6.125452058875297e-08, 3.72993555479209e-08, 0))
hIsland = hIsland.sub(rect(3.762577875822964e-09, -1.6243348401645057e-09).transl(2.0579513842165284e-08, 4e-08, 0))
hIsland = hIsland.add(rect(8.901367711213172e-09, 2.9715039532899863e-09).transl(7.852980429397044e-08, 2.6677808398454057e-08, 0))
hIsland = hIsland.sub(rect(5.730724249698484e-09, -6.14536420284992e-10).transl(-1.4962364681172046e-08, 4e-08, 0))
hIsland = hIsland.add(rect(5.459429659216186e-09, 3.168096905156332e-09).transl(-3.916454398007834e-08, 4e-08, 0))
hIsland = hIsland.sub(rect(4.561661908873496e-09, -6.41053521678982e-10).transl(8.415324302809879e-08, 1.971698142088974e-08, 0))
hIsland = hIsland.sub(rect(9.42012013818324e-09, -4.3524830722063834e-10).transl(3.085927722287033e-08, 4e-08, 0))
hIsland = hIsland.sub(rect(6.348555015910934e-09, -5.959546920313862e-10).transl(-5.038184328157029e-09, 4e-08, 0))
hIsland = hIsland.sub(rect(2.6374580953758386e-09, -5.884274438953878e-10).transl(-1.3443513935117324e-08, 4e-08, 0))
hIsland = hIsland.add(rect(8.832358878946653e-09, 1.2442289434162967e-09).transl(6.783447209780148e-08, 3.446765536531323e-08, 0))
hIsland = hIsland.sub(rect(5.868078902437866e-09, -7.748052295351262e-10).transl(5.935328587256264e-08, 3.79107014140738e-08, 0))
hIsland = hIsland.sub(rect(4.034329581027732e-09, -5.6786142004568e-10).transl(8.558258082104951e-08, 1.728321263924108e-08, 0))
hIsland = hIsland.add(rect(7.072513711052153e-09, 8.425367660672351e-10).transl(-6.70356147960585e-08, 3.4876081788757196e-08, 0))
hIsland = hIsland.sub(rect(2.811538044017226e-09, -8.39167472687058e-10).transl(9.658699329107585e-09, 4e-08, 0))
hIsland = hIsland.add(rect(6.943799888759802e-09, 7.537585561466317e-11).transl(-7.519201015774717e-08, 2.966069882725423e-08, 0))
hIsland = hIsland.sub(rect(4.0495392535165675e-09, -1.887813943276785e-09).transl(4.5038357410665985e-08, 3.999998546872869e-08, 0))
hIsland = hIsland.add(rect(8.979898165327456e-09, 8.387171431995582e-10).transl(-2.682057761752815e-10, 4e-08, 0))
hIsland = hIsland.add(rect(3.5467321692599924e-09, 1.8048916471186421e-09).transl(-8.706414014149611e-08, 1.4211332335182325e-08, 0))
hIsland = hIsland.add(rect(8.772625497899231e-09, 1.7575708353707341e-09).transl(8.693982743388092e-08, 1.449872535404005e-08, 0))
hIsland = hIsland.sub(rect(4.135997937193676e-09, -7.57603368022403e-10).transl(6.848794981136693e-08, 3.4118934621130175e-08, 0))
hIsland = hIsland.sub(rect(2.0378192583163648e-09, -5.9791994278292485e-09).transl(-5.1442840969052796e-08, 3.958789988720672e-08, 0))
hIsland = hIsland.sub(rect(4.284075164303964e-09, -1.8089997951885456e-09).transl(-3.092170948742237e-08, 4e-08, 0))
hIsland = hIsland.add(rect(8.286927749579924e-09, 1.1866564515029005e-09).transl(2.648471250725299e-09, 4e-08, 0))
hIsland = hIsland.add(rect(2.6659262322343497e-09, 7.28549922978356e-10).transl(-7.223626549971717e-08, 3.1841407520585266e-08, 0))
hIsland = hIsland.sub(rect(4.933066774240226e-09, -7.553837719665851e-10).transl(4.201704603955271e-08, 4e-08, 0))
hIsland = hIsland.sub(rect(9.504658789008315e-09, -3.972532395771404e-09).transl(-8.993962366528909e-08, 2.0713638037911807e-09, 0))
hIsland = hIsland.sub(rect(8.866490648431169e-09, -7.216318886725656e-10).transl(4.132766587769447e-08, 4e-08, 0))
hIsland = hIsland.sub(rect(7.023758319684163e-09, -1.3018574087416436e-09).transl(-7.892877043545763e-08, 2.627623118569072e-08, 0))
hIsland = hIsland.add(rect(2.869355162380032e-09, 2.105743226617569e-09).transl(8.303621049383008e-08, 2.1374898235616334e-08, 0))
hIsland = hIsland.sub(rect(8.733212399299166e-09, -3.0763948944056914e-09).transl(5.886604175230362e-09, 4e-08, 0))
hIsland = hIsland.add(rect(3.1888357933649484e-09, 1.9664617671719895e-09).transl(-8.757233908879046e-08, 1.2960595764664811e-08, 0))
hIsland = hIsland.add(rect(4.6540368385313005e-09, 5.207329573163336e-10).transl(3.21934658284835e-08, 4e-08, 0))
hIsland = hIsland.add(rect(5.451027820725161e-09, 2.6393613572425915e-09).transl(-7.045306503616652e-08, 3.2986539480154554e-08, 0))
hIsland = hIsland.add(rect(3.6229742362711374e-09, 1.1177251395550692e-09).transl(2.147758505983677e-09, 4e-08, 0))
hIsland = hIsland.add(rect(7.843760377042044e-09, 9.244774266016768e-11).transl(-7.78415548834048e-09, 4e-08, 0))
hIsland = hIsland.add(rect(9.493773570644278e-09, 4.814269569552417e-09).transl(-1.1671081003291691e-08, 4e-08, 0))
hIsland = hIsland.sub(rect(3.765305263265809e-09, -2.3332763191675463e-09).transl(6.782932912866724e-09, 4e-08, 0))
hIsland = hIsland.add(rect(8.038144585260242e-09, 3.3908394051282084e-09).transl(-3.574956931490191e-08, 4e-08, 0))
hIsland = hIsland.sub(rect(7.381634075663645e-09, -2.33822842798347e-10).transl(1.3372301086300047e-08, 4e-08, 0))
hIsland = hIsland.add(rect(8.243501033090368e-09, 1.4329591963838134e-09).transl(6.827882514428174e-08, 3.423199052394085e-08, 0))
hIsland = hIsland.add(rect(3.596199944313159e-09, 7.249465645329548e-10).transl(-2.999669240869633e-08, 4e-08, 0))
hIsland = hIsland.sub(rect(8.103710366148371e-09, -2.7931914005422686e-09).transl(-7.785074564102779e-08, 2.7337177844584925e-08, 0))
hIsland = hIsland.sub(rect(7.731296836368247e-09, -2.3449175273247376e-09).transl(1.191639329813885e-08, 4e-08, 0))
hIsland = hIsland.sub(rect(9.713031047156019e-09, -1.874701553537591e-09).transl(-2.52874356469595e-08, 4e-08, 0))
hIsland = hIsland.sub(rect(5.537441601791155e-09, -2.0649105772643766e-09).transl(-4.7113824929988096e-08, 3.995584470705271e-08, 0))
hIsland = hIsland.sub(rect(2.467139601118527e-09, -1.3935033862789435e-09).transl(-3.7861802580688964e-08, 4e-08, 0))
hIsland = hIsland.sub(rect(9.125519635898177e-09, -3.3803004263087914e-09).transl(-6.729722802056324e-08, 3.474445543231476e-08, 0))
hIsland = hIsland.sub(rect(4.089024865100796e-09, -6.13151427720782e-10).transl(8.315139953474439e-08, 2.121207601163086e-08, 0))
hIsland = hIsland.add(rect(8.339925528946535e-09, 1.6129246315560874e-09).transl(5.208009264789327e-08, 3.950180905971799e-08, 0))
hIsland = hIsland.sub(rect(8.999217018762248e-09, -1.7982914968797015e-09).transl(3.5658899875177886e-08, 4e-08, 0))
hIsland = hIsland.add(rect(3.676785129431168e-09, 5.5170854510328824e-11).transl(2.822579135399238e-08, 4e-08, 0))
hIsland = hIsland.add(rect(4.777738134853471e-09, 1.4953466787696982e-09).transl(-7.017524833697864e-08, 3.315456502746132e-08, 0))
hIsland = hIsland.add(rect(7.798638452016793e-09, 1.0833931907602392e-09).transl(3.7339999464784486e-10, 4e-08, 0))
hIsland = hIsland.add(rect(5.3943202071862e-09, 1.2086892387672033e-09).transl(-5.313238178970124e-08, 3.934138640902135e-08, 0))
hIsland = hIsland.sub(rect(6.879937216935747e-09, -5.20785437524338e-10).transl(5.017928146765052e-08, 3.973417889708136e-08, 0))
hIsland = hIsland.add(rect(7.499151826067214e-09, 1.1192253591491774e-09).transl(-8.460958743234962e-08, 1.8983149558535325e-08, 0))
hIsland = hIsland.sub(rect(4.15919740300274e-09, -9.965039665347395e-10).transl(-2.8429882306214804e-08, 4e-08, 0))
hIsland = hIsland.add(rect(9.435449323915516e-09, 2.2728781548907595e-09).transl(6.771165669012313e-08, 3.453171053404251e-08, 0))
hIsland = hIsland.add(rect(8.707407596636984e-09, 1.3986351689260714e-10).transl(-1.0237322675345739e-08, 4e-08, 0))
hIsland = hIsland.sub(rect(3.7690553869186366e-09, -1.8778885058987053e-10).transl(-7.33093502759054e-09, 4e-08, 0))
hIsland = hIsland.add(rect(2.0215414951058855e-09, 7.847011572105019e-10).transl(-1.1608858684176235e-08, 4e-08, 0))
hIsland = hIsland.sub(rect(9.938545540932885e-09, -3.079906723072931e-09).transl(-7.364835269006438e-09, 4e-08, 0))
hIsland = hIsland.sub(rect(3.420150567311252e-09, -1.2220886106505605e-09).transl(3.6675409042434925e-08, 4e-08, 0))
hIsland = hIsland.add(rect(4.640774997363723e-09, 2.602628448561912e-09).transl(-1.4383410148158446e-08, 4e-08, 0))
hIsland = hIsland.sub(rect(7.900198317963716e-09, -4.501344491800886e-09).transl(3.647346372060618e-08, 4e-08, 0))
hIsland = hIsland.add(rect(7.549232824358621e-09, 4.3737790926653377e-10).transl(7.287294791341411e-08, 3.1403059058238156e-08, 0))
hIsland = hIsland.sub(rect(2.3108495902599177e-09, -9.99493723114273e-10).transl(5.287623681001193e-08, 3.938254191107866e-08, 0))
hIsland = hIsland.add(rect(5.5275018528168486e-09, 1.2642402757444072e-09).transl(7.330935617174562e-08, 3.1093078623456435e-08, 0))
hIsland = hIsland.add(rect(5.830069668425095e-09, 2.373530147318323e-09).transl(-6.894394403959111e-08, 3.3867571219520276e-08, 0))
hIsland = hIsland.sub(rect(8.436159023217052e-09, -2.344258721775884e-09).transl(8.87050407585304e-08, 9.526857673027937e-09, 0))
hIsland = hIsland.add(rect(5.1234907679797565e-09, 2.065450903446887e-10).transl(4.6021683851208795e-08, 3.998968916103983e-08, 0))
hIsland = hIsland.add(rect(4.729758531797848e-09, 3.5052459799234814e-10).transl(-4.5651449155367876e-08, 3.9995808313685365e-08, 0))
hIsland = hIsland.sub(rect(7.501986311083599e-09, -7.796808130970085e-10).transl(-8.106320707030414e-08, 2.392490466755506e-08, 0))
hIsland = hIsland.sub(rect(2.220644393398699e-09, -5.008587354165754e-10).transl(7.221366347346093e-08, 3.1856673100307055e-08, 0))
hIsland = hIsland.add(rect(9.88803979431012e-09, 3.2621927539310515e-11).transl(6.786619024523656e-09, 4e-08, 0))
hIsland = hIsland.sub(rect(7.886415701347661e-09, -2.9021959131189188e-09).transl(2.905050076079766e-09, 4e-08, 0))
hIsland = hIsland.add(rect(5.9041095973504574e-09, 8.315146352068057e-10).transl(1.5943368871174667e-10, 4e-08, 0))
hIsland = hIsland.sub(rect(2.073946057654647e-09, -1.5129569004051822e-09).transl(5.05154038310703e-08, 3.9698421854557294e-08, 0))
hIsland = hIsland.add(rect(9.273595790340586e-09, 1.2941315113033478e-09).transl(-5.581713260692175e-08, 3.882714735319328e-08, 0))
hIsland = hIsland.add(rect(9.61410645415718e-09, 2.108540359638089e-09).transl(5.5843594785480985e-08, 3.8821314772866175e-08, 0))
hIsland = hIsland.sub(rect(6.101596198213611e-09, -1.5656659408089745e-09).transl(4.3985256120864596e-08, 4e-08, 0))
hIsland = hIsland.add(rect(4.812321301539221e-09, 1.6819250981367538e-09).transl(-5.1807561437748406e-08, 3.9539643314014996e-08, 0))
hIsland = hIsland.sub(rect(9.752865465256909e-09, -4.388534473804387e-09).transl(7.560524112450897e-08, 2.932416308794553e-08, 0))
hIsland = hIsland.add(rect(6.568984350264112e-09, 2.1368907079193805e-10).transl(-8.959956468706773e-08, 5.3243501920102825e-09, 0))
hIsland = hIsland.add(rect(2.9175101479759207e-09, 1.0398068368977798e-09).transl(-6.09315415764056e-08, 3.740929819584415e-08, 0))
vIsland = hIsland.rotz(pi / 2)
vIslands = vIslands.add(vIsland.transl(0, -a/2, 0))
DefRegion(1, hIslands)
DefRegion(2, vIslands)
TableAdd(m_full.Region(1))
TableAdd(m_full.Region(2))
setgeom(hIslands.add(vIslands))
save(geom)
r2o2 := sqrt(2) / 2
m = RandomMagSeed(4)
B_ext = vector(Bmax*r2o2, Bmax*r2o2, 0)
relax()
minimize()
for B := Bmax; B >= -Bmax; B -= Bstep {
	B_ext = vector(B*r2o2, B*r2o2, 0)
	minimize()
	tablesave()
}
//********************************************************************//
//Please cite the following references, relevant for your simulation. //
//See bibtex file in output folder for justification.                 //
//********************************************************************//
//   * Vansteenkiste et al., AIP Adv. 4, 107133 (2014).
//   * Exl et al., J. Appl. Phys. 115, 17D118 (2014).
