# t (s)	mx ()	my ()	mz ()	B_extx (T)	B_exty (T)	B_extz (T)	m_fullx (A/m)	m_fully (A/m)	m_fullz (A/m)	m_full.region1x (A/m)	m_full.region1y (A/m)	m_full.region1z (A/m)	m_full.region2x (A/m)	m_full.region2y (A/m)	m_full.region2z (A/m)
0	0.64547974	0.6425229	-4.665288e-10	0.07071094	0.070710935	0	68944	68628.18	-5.1401472e-05	632395.2	268301.06	-0.00028782894	272226	630276.7	-0.0003819972
0	0.64523596	0.64227337	-7.82204e-11	0.070357114	0.070357114	0	68917.95	68601.52	-8.045447e-06	632582.2	267764.62	-6.461466e-05	271699.5	630461.94	-5.69709e-05
0	0.6449878	0.6420187	-4.8608395e-10	0.07000352	0.07000352	0	68891.47	68574.31	-5.0060564e-05	632774.56	267215.97	-0.00042293232	271161.78	630652	-0.00025490826
0	0.6447358	0.6417598	-7.542682e-11	0.06965001	0.06965001	0	68864.54	68546.68	-7.5984785e-06	632967.7	266660.88	5.286654e-05	270617.72	630842.8	-0.00014023606
0	0.6444874	0.6415047	-1.396793e-10	0.069296494	0.069296494	0	68838	68519.42	-1.6984834e-05	633159.9	266111.75	-0.00018796993	270079.56	631032.8	-6.573566e-05
0	0.64423484	0.6412455	4.4697374e-11	0.06894301	0.06894301	0	68811.03	68491.73	6.2575705e-06	633352.9	265556.16	8.81109e-05	269535.06	631223.5	-4.382377e-06
0	0.64398175	0.64098555	-3.128816e-10	0.06858938	0.06858938	0	68783.984	68463.97	-3.3187473e-05	633546.2	264999.28	-0.00021734023	268989.3	631414.5	-0.00022642281
0	0.64372677	0.64072394	-2.6818422e-10	0.06823558	0.06823559	0	68756.766	68436.02	-2.8159067e-05	633739.6	264439.78	-0.00018209587	268440.94	631605.75	-0.00020231974
0	0.64346826	0.6404585	-4.0786352e-10	0.067882374	0.067882374	0	68729.15	68407.69	-4.559087e-05	633934.1	263873.94	-0.00034656955	267886.4	631798.06	-0.0002483347
0	0.64321285	0.6401965	-4.5675128e-10	0.06752858	0.06752858	0	68701.87	68379.69	-4.603784e-05	634127.3	263314.1	-0.00027020677	267337.7	631989	-0.00035424213
0	0.6429539	0.6399307	-2.5700989e-10	0.06717496	0.06717497	0	68674.2	68351.305	-2.681816e-05	634321.44	262747.97	-0.0002055921	266782.9	632181	-0.00014900081
0	0.6426912	0.6396612	-4.0367315e-10	0.06682184	0.06682184	0	68646.14	68322.5	-4.2462085e-05	634517.44	262174.75	-0.00025845863	266221.1	632374.75	-0.00027316817
0	0.6424316	0.6393948	-2.961201e-10	0.066468075	0.066468075	0	68618.414	68294.06	-3.084088e-05	634710.2	261609.48	-0.00016447369	265667.03	632565.4	-0.0002483347
0	0.6421669	0.63912326	-1.5783759e-10	0.06611443	0.06611443	0	68590.15	68265.055	-1.6537864e-05	634906.44	261033.19	5.87406e-06	265102.2	632759.4	-0.00021765806
0	0.6419032	0.6388528	-1.0615626e-10	0.06576089	0.06576089	0	68561.98	68236.17	-9.3863555e-06	635100.6	260460.34	-6.461466e-05	264540.75	632951.5	-9.276031e-05
0	0.6416359	0.6385786	-2.2348687e-10	0.065407455	0.065407455	0	68533.44	68206.88	-2.4695055e-05	635296.8	259880.42	-0.00016447369	263972.38	633145.5	-0.00017821667
0	0.64137	0.63830596	-2.8494576e-10	0.065053925	0.06505392	0	68505.04	68177.766	-3.084088e-05	635490.5	259305.14	-0.00019384398	263408.5	633337.1	-0.00018552062
0	0.64109993	0.638029	-1.4526647e-10	0.06470025	0.06470026	0	68476.19	68148.18	-1.5196957e-05	635686.56	258721.33	-7.048872e-05	262836.25	633531.1	-0.00012854973
0	0.64082843	0.63775057	-2.6818422e-10	0.06434653	0.06434653	0	68447.19	68118.44	-2.8606037e-05	635882.7	258135.5	-0.0002055921	262262.06	633725.06	-0.00018113825
0	0.64055866	0.637474	-1.787895e-10	0.06399329	0.06399329	0	68418.37	68088.9	-1.8325742e-05	636078.3	257552.66	-0.00015272557	261690.77	633918.75	-0.00010006427
0	0.6402849	0.6371935	-2.4583555e-10	0.06363956	0.06363956	0	68389.125	68058.93	-2.637119e-05	636274.06	256964.02	-0.00021146616	261113.8	634112.44	-0.00014315765
0	0.6400095	0.6369112	-2.76565e-10	0.06328589	0.06328589	0	68359.73	68028.78	-3.128785e-05	636471.75	256371.17	-0.00026433272	260532.69	634308.1	-0.00013439289
0	0.6397344	0.6366293	-4.176411e-10	0.062932745	0.06293275	0	68330.336	67998.67	-4.3802993e-05	636667.06	255781.03	-0.00035538065	259954.22	634501.5	-0.00025490826
0	0.63945675	0.6363447	1.564408e-10	0.062579036	0.062579036	0	68300.67	67968.27	1.542044e-05	636863.9	255185.7	9.9859026e-05	259370.69	634696.3	9.056913e-05
0	0.6391774	0.63605845	-2.2907404e-10	0.062225346	0.062225346	0	68270.836	67937.7	-2.592422e-05	637060.75	254588	-0.00027020677	258784.8	634891.3	-5.8431695e-05
0	0.63889617	0.6357703	-2.0672535e-10	0.061871763	0.061871763	0	68240.81	67906.93	-2.3689374e-05	637258.3	253987.06	-0.00015859962	258195.72	635086.75	-0.00014461845
0	0.63861376	0.63548106	-2.6818422e-10	0.061518412	0.061518412	0	68210.64	67876.04	-2.9053006e-05	637455.2	253385	-0.00019384398	257605.52	635281.6	-0.00020158934
0	0.63833046	0.6351908	-2.0812214e-10	0.06116484	0.06116484	0	68180.38	67845.03	-2.0448846e-05	637652.8	252780.84	-0.00016447369	257013.3	635477.4	-0.000110289824
0	0.6380438	0.6348973	-3.57579e-10	0.060811125	0.060811125	0	68149.766	67813.67	-3.7098453e-05	637850.3	252172.08	-0.00027020677	256416.6	635673	-0.00024906508
0	0.6377562	0.6346027	-3.352303e-10	0.060457453	0.060457453	0	68119.04	67782.23	-3.8662845e-05	638049.56	251560.34	-0.0003406955	255816.9	635870.4	-0.0001519224
0	0.63746953	0.63430923	-3.0170727e-10	0.060104195	0.060104195	0	68088.414	67750.87	-3.218179e-05	638246.25	250952.38	-0.00018209587	255220.86	636065.2	-0.00026586422
0	0.63717926	0.634012	-3.2405595e-10	0.05975053	0.05975054	0	68057.414	67719.12	-3.218179e-05	638444.4	250337.83	-0.00021734023	254618.45	636261.44	-0.00018259905
0	0.6368866	0.63371235	-2.751682e-10	0.05939681	0.05939681	0	68026.16	67687.12	-2.9499975e-05	638642.6	249719.81	-0.00017034775	254012.6	636457.9	-0.00020451093
0	0.6365941	0.633413	-3.1218322e-10	0.059043642	0.059043642	0	67994.93	67655.15	-3.3969667e-05	638840.94	249102.25	-0.00022321429	253407.12	636654.3	-0.00021911885
0	0.6362999	0.63311195	-1.7320231e-10	0.058690004	0.058690004	0	67963.49	67622.98	-1.5196957e-05	639039.6	248481.42	-0.00015272557	252798.5	636851.3	-6.500526e-05
0	0.6360005	0.6328055	-4.113555e-10	0.058336258	0.058336258	0	67931.516	67590.24	-4.4249962e-05	639239.6	247852.2	-0.00030545113	252181.66	637049.44	-0.00031553116
0	0.6357052	0.6325033	-5.3776525e-11	0.057982642	0.057982642	0	67899.95	67557.97	-6.9280245e-06	639437.5	247230.61	-1.174812e-05	251572.23	637245.7	-8.983873e-05
0	0.6354032	0.63219434	7.682361e-11	0.05762936	0.057629365	0	67867.72	67524.97	8.045447e-06	639637	246598.11	9.9859026e-05	250952.11	637443.5	1.6068716e-05
0	0.635104	0.63188833	-3.2964312e-10	0.057275727	0.057275727	0	67835.766	67492.29	-3.3410957e-05	639835.6	245970.67	-0.00023496241	250336.92	637640.44	-0.00019355498
0	0.63479996	0.6315772	-4.4138657e-10	0.05692201	0.05692201	0	67803.27	67459.055	-4.894314e-05	640036.3	245333.83	-0.00029957708	249712.56	637839.5	-0.0003432862
0	0.63449484	0.6312652	-4.4138657e-10	0.056568377	0.056568377	0	67770.695	67425.73	-4.8272686e-05	640236	244696.77	-0.00030545113	249087.92	638037.5	-0.00031699194
0	0.6341901	0.6309536	-2.8424735e-10	0.056215093	0.056215093	0	67738.14	67392.445	-2.972346e-05	640434.2	244061.73	-0.00027608083	248465.27	638234.1	-0.00011905457
0	0.63388085	0.63063747	-3.6875333e-10	0.055861473	0.055861473	0	67705.12	67358.67	-3.8662845e-05	640635.4	243417.36	-0.0003406955	247833.47	638433.7	-0.00016141756
0	0.63357216	0.6303218	-3.2405595e-10	0.055507723	0.055507723	0	67672.14	67324.97	-3.7098453e-05	640834.2	242776.06	-0.00030545113	247204.69	638630.8	-0.00018113825
0	0.6332594	0.63000214	-5.1401977e-10	0.055154547	0.055154547	0	67638.74	67290.81	-5.7435558e-05	641034.1	242127.77	-0.0003524436	246569.03	638829.4	-0.00038564918
0	0.6329471	0.6296828	-2.961201e-10	0.054800924	0.054800924	0	67605.375	67256.72	-3.3969667e-05	641234.56	241479.62	-0.00031719924	245933.47	639028.25	-9.9333876e-05
0	0.63263	0.6293587	-3.4430944e-10	0.054447185	0.054447185	0	67571.516	67222.1	-3.7545422e-05	641435.7	240824.06	-0.00031719924	245290.66	639227.8	-0.00019939816
0	0.63231623	0.6290381	-3.6316616e-10	0.05409357	0.05409357	0	67537.99	67187.85	-3.93333e-05	641635	240175.03	-0.00033482144	244654.22	639425.7	-0.00019282459
0	0.6319957	0.62871057	-4.4697374e-10	0.053740256	0.053740256	0	67503.76	67152.87	-4.4249962e-05	641836.44	239514.38	-0.000293703	244006.39	639625.56	-0.00029508004
0	0.6316765	0.6283846	-2.8494576e-10	0.05338664	0.05338664	0	67469.67	67118.05	-2.9946945e-05	642036.8	238856.56	-0.00027608083	243361.38	639824.6	-0.0001322017
0	0.63135284	0.62805384	-3.6316616e-10	0.053032927	0.053032927	0	67435.09	67082.734	-3.843936e-05	642239.44	238190.27	-0.00027608083	242707.86	640025.8	-0.0002454131
0	0.6310315	0.6277256	-2.793586e-10	0.052679315	0.052679315	0	67400.77	67047.67	-3.0393914e-05	642438.56	237530.61	-0.00024671052	242060.98	640223.6	-0.00016360874
0	0.6307034	0.62739056	-6.9839645e-10	0.05232599	0.05232599	0	67365.72	67011.875	-7.5090844e-05	642640.56	236858.66	-0.0004992951	241402	640424.2	-0.0005244244
0	0.6303762	0.6270565	-1.2990174e-10	0.051972385	0.051972385	0	67330.78	66976.195	-1.1844687e-05	642842.7	236187.73	-0.00015859962	240744.02	640625.06	-2.1911885e-05
0	0.63004845	0.62672186	-3.743405e-10	0.051618643	0.051618643	0	67295.766	66940.46	-3.843936e-05	643043.44	235517.55	-0.00024083647	240086.7	640824.56	-0.00027755054
0	0.62971795	0.6263845	-4.0786352e-10	0.05126545	0.05126545	0	67260.48	66904.42	-4.603784e-05	643243.6	234843.98	-0.00041705827	239426.14	641023.5	-0.00018552062
0	0.62938285	0.6260424	-1.2571136e-11	0.050911836	0.050911836	0	67224.68	66867.88	-7.821963e-07	643446	234161.64	0	238756.92	641224.56	-3.79806e-05
0	0.6290483	0.62570095	-2.1231251e-10	0.050558098	0.050558098	0	67188.945	66831.414	-2.3242404e-05	643647.3	233481.14	-0.00012335526	238089.48	641424.7	-0.0001519224
0	0.6287139	0.62535983	-3.0170727e-10	0.0502045	0.0502045	0	67153.234	66794.984	-3.307573e-05	643848.5	232801.25	-0.00028782894	237422.56	641624.8	-0.00015265279
0	0.62837553	0.6250146	-5.307813e-10	0.049851157	0.049851157	0	67117.08	66758.1	-5.899995e-05	644050.3	232114.8	-0.0004111842	236749.2	641825.44	-0.0003622765
0	0.6280342	0.62466633	-1.0196588e-10	0.049497552	0.049497552	0	67080.62	66720.9	-1.3297337e-05	644253.4	231422.83	5.87406e-06	236070.47	642027.56	-0.00012562814
0	0.62769145	0.62431675	-2.178997e-10	0.049143843	0.049143843	0	67044.016	66683.56	-2.637119e-05	644455.6	230729.94	-0.00012335526	235390.81	642228.7	-0.00021400608
0	0.62734747	0.623966	-3.561822e-10	0.048790254	0.048790254	0	67007.28	66646.1	-3.843936e-05	644657.56	230035.52	-0.000293703	234709.62	642429.6	-0.00019282459
0	0.6270019	0.6236136	-2.7935858e-11	0.04843688	0.04843688	0	66970.375	66608.47	-1.8996196e-06	644858.7	229339.77	1.174812e-05	234027.11	642629.7	-5.69709e-05
0	0.6266512	0.62325597	-2.961201e-10	0.048083298	0.048083298	0	66932.91	66570.266	-3.173482e-05	645062.75	228633.55	-0.00037593985	233334.33	642832.75	-5.916209e-05
0	0.62630415	0.62290215	0	0.047729567	0.047729567	0	66895.836	66532.48	1.7878773e-06	645262.94	227936.67	-5.286654e-05	232650.64	643032.06	7.157883e-05
0	0.62595063	0.62254184	-2.172013e-10	0.047376335	0.047376335	0	66858.08	66493.984	-2.3745246e-05	645466.75	227226.84	-0.00017034775	231954.3	643235.06	-0.00016287835
0	0.6255966	0.622181	-3.4081746e-10	0.04702275	0.04702275	0	66820.266	66455.45	-3.7545422e-05	645669.3	226517.61	-0.00030545113	231258.45	643436.6	-0.00018698142
0	0.6252405	0.62181824	-2.9053293e-10	0.04666901	0.04666901	0	66782.234	66416.695	-3.1343723e-05	645871.75	225805.56	-0.00022321429	230559.86	643638.4	-0.00019355498
0	0.62488335	0.6214543	-3.7992767e-10	0.04631543	0.04631543	0	66744.086	66377.83	-4.1568146e-05	646073.3	225092.9	-0.00031719924	229860.66	643839.06	-0.00022715321
0	0.624523	0.62108713	-3.519918e-10	0.045962043	0.045962043	0	66705.59	66338.61	-3.5310575e-05	646275.75	224374.88	-0.00017034775	229156.14	644040.8	-0.00031187915
0	0.6241608	0.6207182	-3.2684955e-10	0.04560846	0.04560846	0	66666.91	66299.2	-3.2293534e-05	646478.25	223654.19	-0.00022908834	228449	644242.44	-0.00023080519
0	0.6237968	0.62034756	-2.5281952e-10	0.04525477	0.04525477	0	66628.03	66259.62	-2.7712098e-05	646681.1	222930.55	-0.00015272557	227738.94	644444.75	-0.00021327568
0	0.62342834	0.6199722	-3.8551484e-10	0.044901192	0.044901192	0	66588.67	66219.52	-3.978027e-05	646884.56	222199.81	-0.0003230733	227021.9	644647.6	-0.0002293444
0	0.6230621	0.6195993	-1.4526647e-10	0.044547785	0.044547785	0	66549.55	66179.7	-1.4749988e-05	647086.4	221474.06	-9.398496e-05	226309.75	644848.8	-0.000111020214
0	0.62269115	0.61922175	-4.916711e-10	0.04419421	0.04419421	0	66509.94	66139.36	-5.3412834e-05	647289.6	220740.33	-0.0004992951	225589.7	645051.5	-0.00021619727
0	0.6223189	0.6188429	-4.1065712e-10	0.043840487	0.04384049	0	66470.19	66098.91	-4.3356024e-05	647492.3	220005.3	-0.00035831766	224868.34	645253.7	-0.00020524132
0	0.62194335	0.61846066	-2.4024838e-10	0.043486908	0.043486908	0	66430.06	66058.08	-2.5477251e-05	647695.56	219264.89	-0.0001468515	224141.73	645456.4	-0.0001906334
0	0.6215647	0.6180754	-3.2964312e-10	0.043133657	0.043133657	0	66389.62	66016.92	-3.452838e-05	647900.25	218518.81	-0.00027020677	223409.44	645660.75	-0.00017383428
0	0.6211871	0.6176913	-3.128816e-10	0.04277993	0.04277993	0	66349.29	65975.9	-3.307573e-05	648102.6	217776.45	-0.0003436325	222680.78	645862.75	-7.961318e-05
0	0.62080574	0.6173034	-4.8329035e-10	0.04242636	0.04242636	0	66308.555	65934.47	-5.363632e-05	648305.6	217028.31	-0.00036419174	221946.53	646065.3	-0.00031626155
0	0.6204234	0.61691445	-5.2240057e-10	0.042072933	0.042072933	0	66267.71	65892.914	-5.4306773e-05	648507.5	216279.66	-0.0004111842	221211.72	646266.9	-0.00031845272
0	0.62003607	0.61652046	-2.6539065e-10	0.04171937	0.04171937	0	66226.35	65850.84	-2.9946945e-05	648710.75	215522.75	-0.00021734023	220468.84	646469.75	-0.0001701823
0	0.61964834	0.6161263	-3.0450084e-10	0.041365687	0.041365687	0	66184.93	65808.74	-3.2963988e-05	648914.9	214764.31	-0.0003230733	219724.27	646673.8	-0.00013439289
0	0.61925876	0.6157303	-2.1231251e-10	0.04101213	0.04101213	0	66143.32	65766.445	-2.1901496e-05	649117.8	214004.64	-5.8740603e-05	218978.47	646876.56	-0.00023664835
0	0.6188663	0.6153315	-3.6316616e-10	0.040658675	0.040658675	0	66101.41	65723.84	-3.7545422e-05	649320.9	213240.73	-0.00027608083	218228.52	647079.56	-0.00023226599
0	0.61847293	0.61493146	-4.8049675e-10	0.04030513	0.040305134	0	66059.38	65681.125	-5.184844e-05	649522.3	212476.97	-0.00046405074	217478.78	647280.8	-0.00020889331
0	0.6180757	0.6145279	-6.530007e-11	0.039951414	0.039951414	0	66016.96	65638.016	-6.5927975e-06	649725.6	211706.03	-1.174812e-05	216721.89	647484.2	-7.5230804e-05
0	0.61767644	0.6141223	-2.2802644e-10	0.039597865	0.039597865	0	65974.305	65594.68	-2.3689374e-05	649928.75	210932.45	-0.00019384398	215962.38	647687.25	-0.00013001052
0	0.61727566	0.6137152	-2.4024838e-10	0.039244566	0.039244566	0	65931.5	65551.2	-2.5477251e-05	650131.25	210157.31	-0.00028195488	215201.27	647889.9	-7.303961e-05
0	0.6168711	0.6133042	-1.7040873e-10	0.03889085	0.03889085	0	65888.3	65507.31	-1.966665e-05	650334.25	209376.36	-0.00018796993	214434.53	648092.9	-8.472596e-05
0	0.61646414	0.612891	-4.4487852e-10	0.0385373	0.0385373	0	65844.82	65463.18	-4.7378748e-05	650538.75	208590.52	-0.00041705827	213662.73	648297.7	-0.00017748628
0	0.61605644	0.61247706	-2.346612e-10	0.03818382	0.03818382	0	65801.28	65418.96	-2.7265129e-05	650740.44	207806.48	-0.00022321429	212892.92	648499.56	-9.6412296e-05
0	0.6156446	0.6120589	-4.0367315e-10	0.037830282	0.037830282	0	65757.29	65374.297	-4.2462085e-05	650943.5	207015.23	-0.00025258458	212115.94	648702.75	-0.00031114876
0	0.61523044	0.6116385	-3.91102e-10	0.037476566	0.037476562	0	65713.055	65329.39	-4.1121177e-05	651146.4	206220.83	-0.0003524436	211335.77	648905.94	-0.00018040785
0	0.6148154	0.61121744	-4.1065712e-10	0.03712308	0.03712308	0	65668.73	65284.42	-4.648481e-05	651350.2	205424.45	-0.00040531016	210553.5	649110.25	-0.00019574618
0	0.6143977	0.61079353	-1.3409211e-10	0.03676956	0.03676956	0	65624.1	65239.14	-1.3520822e-05	651551.5	204626.64	-2.9370301e-05	209769.98	649311.94	-0.00014607923
0	0.6139777	0.6103673	-3.2126238e-10	0.036416046	0.036416046	0	65579.234	65193.63	-3.262876e-05	651754.1	203824.22	-0.00032894738	208981.83	649515.1	-0.00012343696
0	0.61355484	0.6099385	-3.9214962e-10	0.03606233	0.03606233	0	65534.074	65147.816	-4.212686e-05	651956.9	203017.81	-0.00026433272	208189.72	649718.4	-0.0003067664
0	0.6131287	0.6095064	-4.916711e-10	0.03570882	0.03570882	0	65488.562	65101.664	-5.514484e-05	652159.8	202206.72	-0.0003994361	207392.92	649921.9	-0.0003045752
0	0.6127003	0.6090719	-3.91102e-10	0.03535547	0.035355467	0	65442.797	65055.25	-4.2462085e-05	652362	201392.94	-0.00025552162	206593.58	650124.7	-0.00031333996
0	0.61227065	0.6086364	-3.7992767e-10	0.03500176	0.03500176	0	65396.91	65008.75	-3.8551105e-05	652564.3	200577.47	-0.00022908834	205792.33	650327.75	-0.00027170737
0	0.6118372	0.60819703	-3.1846878e-10	0.034648247	0.034648247	0	65350.62	64961.812	-3.218179e-05	652766.9	199756.39	-0.00027020677	204985.67	650531.1	-0.00015484399
0	0.6113998	0.60775375	-1.4806005e-10	0.03429469	0.03429469	0	65303.9	64914.47	-1.6984834e-05	652970.8	198928.38	-0.00012335526	204172.1	650735.8	-8.8377936e-05
0	0.6109612	0.6073094	-1.6761514e-10	0.033941187	0.033941187	0	65257.062	64867.008	-1.6817221e-05	653172.94	198100.48	-0.0001762218	203358.67	650938.8	-6.7196444e-05
0	0.61052257	0.60686505	-2.6259706e-10	0.033587486	0.033587486	0	65210.207	64819.54	-3.0365978e-05	653373.44	197274.22	-0.00021146616	202546.75	651140.2	-0.00016360874
0	0.61007875	0.60641545	-4.2252984e-10	0.033234037	0.033234037	0	65162.812	64771.523	-4.559087e-05	653575.44	196439.17	-0.00032894738	201726.19	651343.2	-0.00023664835
0	0.6096329	0.6059639	-4.0227635e-10	0.032880444	0.032880444	0	65115.184	64723.285	-4.2462085e-05	653777.5	195601.06	-0.00032894738	200902.5	651546.3	-0.00023080519
0	0.6091821	0.6055073	-3.91102e-10	0.032526962	0.032526962	0	65067.03	64674.527	-4.2462085e-05	653979.56	194756	-0.00024671052	200072.11	651749.5	-0.0002863153
0	0.6087311	0.60505074	-1.8437667e-10	0.032173265	0.032173265	0	65018.867	64625.754	-2.0560588e-05	654181.1	193911.2	-0.0001468515	199241.78	651952.3	-0.00014461845
0	0.6082786	0.6045927	-6.112715e-10	0.03181978	0.03181978	0	64970.52	64576.836	-6.324616e-05	654382.4	193064.77	-0.00045817668	198409.72	652154.7	-0.00039149236
0	0.60781974	0.6041285	-3.4640463e-10	0.031466372	0.031466376	0	64921.516	64527.242	-3.737781e-05	654585.6	192207.42	-0.00016447369	197566.95	652359.4	-0.00034693818
0	0.60736084	0.6036643	-2.0951893e-10	0.031112673	0.031112673	0	64872.5	64477.668	-2.0560588e-05	654786.8	191352.08	-0.00027020677	196726.05	652561.94	-4.236298e-05
0	0.6068983	0.6031964	-1.7774189e-10	0.030759206	0.030759206	0	64823.09	64427.688	-2.0001877e-05	654988.25	190491.34	-0.00012922932	195879.88	652764.9	-0.00013147132
0	0.60643464	0.60272735	-4.693224e-10	0.030405562	0.030405562	0	64773.58	64377.59	-4.8663784e-05	655187.8	189630.8	-0.00031719924	195033.89	652965.94	-0.00031480074
0	0.60596675	0.60225415	-5.688439e-10	0.030052098	0.030052098	0	64723.598	64327.043	-5.989389e-05	655388.56	188763.1	-0.00050516916	194180.81	653168.25	-0.00031407035
0	0.60549605	0.60177815	-5.2240057e-10	0.029698405	0.029698405	0	64673.32	64276.215	-5.380393e-05	655589.4	187891.48	-0.00046992482	193323.77	653370.75	-0.00025563865
0	0.6050215	0.60129833	-1.8158308e-10	0.029345002	0.029345002	0	64622.637	64224.953	-2.0113619e-05	655790.1	187014.52	-0.00026433272	192461.5	653573.06	-2.9215846e-06
0	0.60454655	0.60081834	-1.3967929e-11	0.028991321	0.028991321	0	64571.902	64173.69	-2.2348465e-06	655990.25	186137.7	1.762218e-05	191599.14	653775.1	-3.5059016e-05
0	0.604065	0.60033184	-4.665288e-10	0.028637864	0.028637864	0	64520.47	64121.727	-5.0060564e-05	656192.5	185249.55	-0.00034656955	190725.61	653979.25	-0.0003242959
0	0.60358363	0.5998456	-1.6202797e-10	0.028284188	0.028284188	0	64469.055	64069.79	-1.688706e-05	656392.44	184364.06	-0.00018796993	189854.62	654181.25	-4.4554166e-05
0	0.60310006	0.599357	-1.11743434e-10	0.027930737	0.027930737	0	64417.4	64017.598	-9.833325e-06	656590.94	183476.64	-2.9370301e-05	188981.86	654381.56	-8.6186745e-05
0	0.6026102	0.5988624	-3.4640463e-10	0.027577274	0.027577274	0	64365.074	63964.773	-3.6595615e-05	656792.44	182577.66	-0.00028195488	188097.47	654585.3	-0.0002081629
0	0.60211957	0.59836704	-2.5334332e-10	0.027223593	0.027223593	0	64312.668	63911.867	-2.6524836e-05	656992.06	181679.44	-0.00019971805	187213.81	654787.06	-0.00015046161
0	0.60162675	0.5978694	-2.2628045e-10	0.026870128	0.026870128	0	64260.04	63858.715	-2.4136343e-05	657190.2	180779.6	-0.00023496241	186328.62	654987.4	-8.8377936e-05
0	0.60112864	0.59736675	-9.672791e-11	0.026516464	0.026516464	0	64206.83	63805.027	-1.0280294e-05	657390.7	179870.02	-9.398496e-05	185433.61	655190.3	-5.9892485e-05
0	0.60062855	0.5968621	-2.9891367e-10	0.026162995	0.026162995	0	64153.418	63751.12	-3.1790692e-05	657589.8	178959.06	-0.00021734023	184537.28	655391.9	-0.0001731039
0	0.600127	0.596356	-3.3732547e-10	0.025809322	0.025809322	0	64099.836	63697.055	-3.6204514e-05	657787.1	178047.77	-0.00027608083	183640.64	655591.56	-0.00020743252
0	0.59961957	0.5958443	-2.2628045e-10	0.025455918	0.025455918	0	64045.645	63642.418	-2.257195e-05	657987.25	177125.7	-0.00015272557	182733.1	655794.44	-0.00014023606
0	0.5991116	0.5953318	-4.525609e-10	0.02510225	0.02510225	0	63991.387	63587.676	-4.709939e-05	658184.3	176205.69	-0.00027020677	181827.73	655994.06	-0.0003615461
0	0.59859914	0.5948151	-1.1453702e-10	0.024748776	0.024748776	0	63936.656	63532.477	-1.2515141e-05	658382.06	175278.86	-7.048872e-05	180915.58	656194.44	-9.276031e-05
0	0.5980836	0.5942954	-3.5810277e-10	0.024395127	0.024395127	0	63881.59	63476.973	-3.762923e-05	658580.4	174347.16	-0.00018796993	179998.4	656395.56	-0.00029069767
0	0.5975652	0.5937729	-2.4985133e-10	0.024041649	0.024041649	0	63826.223	63421.164	-2.7712098e-05	658777.8	173412.2	-0.0002055921	179078.06	656595.94	-0.00017821667
0	0.5970417	0.5932457	-1.7040873e-10	0.023688167	0.023688167	0	63770.31	63364.848	-1.7878772e-05	658977.25	172468.53	-0.00022321429	178148.8	656798.5	-1.6068716e-05
0	0.5965182	0.59271806	-1.9275742e-10	0.023334505	0.023334505	0	63714.39	63308.49	-2.0532654e-05	659172.9	171528.33	-0.00019971805	177223.19	656997.1	-9.49515e-05
0	0.5959899	0.59218585	-4.295138e-10	0.022981022	0.022981022	0	63657.957	63251.65	-4.6764166e-05	659369.7	170580.25	-0.000487547	176289.72	657197	-0.00012416735
0	0.59545666	0.5916492	-2.6539065e-10	0.022627383	0.022627385	0	63601.004	63194.32	-2.8606037e-05	659568.2	169623.8	-0.00028195488	175347.64	657399	-9.56819e-05
0	0.5949234	0.5911119	-2.8215216e-10	0.022273893	0.022273893	0	63544.04	63136.938	-2.9499975e-05	659762.8	168670.86	-0.000293703	174409.36	657596.8	-6.6466055e-05
0	0.5943829	0.59056807	-3.0729444e-10	0.021920245	0.021920243	0	63486.316	63078.85	-3.276844e-05	659961.2	167704.56	-0.00019384398	173457.5	657798.6	-0.0002497955
0	0.59384364	0.5900252	-2.374548e-10	0.021566829	0.021566829	0	63428.723	63020.867	-2.681816e-05	660155	166744.14	-0.0002055921	172511.58	657996	-0.0001351233
0	0.59329677	0.58947515	-2.5700989e-10	0.02121318	0.02121318	0	63370.305	62962.125	-2.4974412e-05	660352.75	165769.61	-0.00026433272	171551.39	658197.4	-9.4221105e-05
0	0.5927499	0.5889249	-4.72116e-10	0.020859685	0.020859685	0	63311.887	62903.344	-5.2965865e-05	660546.4	164798.77	-0.00034656955	170595.06	658394.7	-0.00033013907
0	0.5921967	0.5883685	-1.8717025e-10	0.020506065	0.020506065	0	63252.812	62843.918	-1.966665e-05	660741.94	163817.39	-0.00014097744	169628.2	658593.94	-0.00014534884
0	0.59164065	0.58780956	-4.8608395e-10	0.020152565	0.020152567	0	63193.414	62784.22	-5.2016054e-05	660938.1	162831.55	-0.00042880638	168656.58	658794.44	-0.0002622122
0	0.5910818	0.5872478	-2.961201e-10	0.019798933	0.019798933	0	63133.73	62724.21	-2.9946945e-05	661132.56	161843.48	-0.00026433272	167682.86	658992.8	-0.00013439289
0	0.5905214	0.5866844	-1.9275742e-10	0.019445425	0.019445425	0	63073.87	62664.04	-2.4136343e-05	661325.06	160855.1	-0.00021734023	166708.88	659189.25	-8.0343576e-05
0	0.58995444	0.58611465	-2.0951893e-10	0.01909191	0.01909191	0	63013.31	62603.184	-2.0504718e-05	661519.25	159855.86	-0.00018209587	165724.05	659387.6	-0.00010809863
0	0.5893839	0.5855417	-2.0777294e-10	0.018738281	0.018738281	0	62952.38	62541.992	-2.4359828e-05	661714.3	158851.17	-0.00023496241	164733.47	659587.1	-6.573566e-05
0	0.5888129	0.58496803	-2.9053293e-10	0.018384783	0.018384783	0	62891.387	62480.71	-2.8606037e-05	661905.7	157849.12	-0.00032013629	163745.7	659782.9	-8.0343576e-05
0	0.58823395	0.58438694	-2.5421631e-10	0.018031165	0.018031165	0	62829.547	62418.64	-2.5840414e-05	662100.56	156832.81	-0.00027608083	162743.48	659982.4	-8.764754e-05
0	0.58765495	0.5838054	-3.6875333e-10	0.017677734	0.017677734	0	62767.695	62356.523	-3.9445044e-05	662291.44	155820.16	-0.00034656955	161745.16	660177.75	-0.00016872151
0	0.58707094	0.58321923	-2.346612e-10	0.017324124	0.017324124	0	62705.324	62293.918	-2.681816e-05	662483.6	154799.33	-0.00025258458	160738.48	660374.7	-8.180437e-05
0	0.586483	0.58262944	-3.6595973e-10	0.016970593	0.016970593	0	62642.523	62230.918	-3.8942202e-05	662675.56	153773.48	-0.00035831766	159726.66	660571.56	-0.00016653033
0	0.5858902	0.58203495	-2.5980348e-10	0.016617019	0.016617017	0	62579.207	62167.426	-2.8606037e-05	662868.7	152739.67	-0.00023496241	158706.69	660769.94	-0.00014315765
0	0.58529633	0.58143914	-3.0170727e-10	0.016263481	0.01626348	0	62515.773	62103.79	-3.1064366e-05	663058.3	151707.83	-0.00023202537	157688.92	660964.4	-0.00016360874
0	0.5846968	0.58083797	-3.3243672e-10	0.01590989	0.01590989	0	62451.746	62039.58	-3.762923e-05	663248.8	150667.16	-0.000293703	156662.31	661160.1	-0.00019574618
0	0.58409345	0.5802331	-2.0113818e-10	0.015556336	0.015556336	0	62387.305	61974.973	-1.9443165e-05	663439.4	149621.2	-0.00023496241	155630.27	661356.06	-2.9215847e-05
0	0.5834864	0.5796246	-2.4374036e-10	0.015202781	0.015202781	0	62322.45	61909.98	-2.7488613e-05	663629.4	148570.62	-0.00030545113	154593.55	661551.4	-8.0343576e-05
0	0.5828759	0.57901293	-3.0100886e-10	0.014849203	0.014849203	0	62257.246	61844.652	-3.1455467e-05	663819	147515.8	-0.0001762218	153552.44	661746.7	-0.00026586422
0	0.5822587	0.5783949	-2.9891367e-10	0.01449566	0.014495661	0	62191.33	61778.64	-3.173482e-05	664010.2	146450.28	-0.00026433272	152500.53	661943.56	-0.00015776558
0	0.5816401	0.5777756	-1.787895e-10	0.014142094	0.014142094	0	62125.258	61712.492	-2.1678012e-05	664199.06	145385.11	-0.00024671052	151448.89	662138.5	-2.6294261e-05
0	0.5810172	0.5771519	-2.9891367e-10	0.013788637	0.013788637	0	62058.723	61645.863	-3.251702e-05	664387.5	144314.17	-0.00034656955	150391.56	662332.8	-5.5510107e-05
0	0.5803907	0.5765243	-4.0786352e-10	0.013435064	0.013435064	0	61991.8	61578.83	-4.318841e-05	664573.7	143240.22	-0.00035831766	149331.61	662524.75	-0.0001906334
0	0.5797599	0.57589304	-2.2069328e-10	0.0130814975	0.0130814975	0	61924.43	61511.418	-2.4583313e-05	664761.6	142159.19	-0.00022908834	148263.97	662718.9	-9.860348e-05
0	0.5791241	0.57525706	-3.0729443e-11	0.012727959	0.012727959	0	61856.516	61443.477	-4.0227237e-06	664948.94	141071.58	-8.2236846e-05	147189.78	662912.5	2.7024658e-05
0	0.5784834	0.57461655	-4.4278334e-10	0.012374388	0.012374388	0	61788.082	61375.062	-4.5981968e-05	665137.44	139976.38	-0.00045817668	146107.66	663107.6	-0.00017091271
0	0.5778398	0.573973	-3.6595973e-10	0.0120208245	0.0120208245	0	61719.336	61306.332	-3.8662845e-05	665323.75	138879.14	-0.00031719924	145023.61	663300.56	-0.00021619727
0	0.57719177	0.5733252	-2.6469224e-10	0.0116672525	0.0116672525	0	61650.12	61237.145	-2.7712098e-05	665509.7	137776.19	-0.00019971805	143933.86	663493.2	-0.00017967746
0	0.576541	0.57267463	-2.367564e-10	0.011313693	0.011313693	0	61580.617	61167.637	-2.5309639e-05	665693.4	136671.48	-0.00027608083	142842.47	663683.44	-6.500526e-05
0	0.57588345	0.5720174	-3.6875333e-10	0.010960122	0.010960123	0	61510.38	61097.445	-3.9556784e-05	665878.5	135555.83	-0.0003524436	141740.03	663875.6	-0.00018552062
0	0.575221	0.5713562	-4.4697374e-11	0.01060659	0.01060659	0	61439.63	61026.816	-5.698859e-06	666065.2	134432.67	-0.00011160714	140629.44	664069.6	3.8710998e-05
0	0.5745573	0.57069314	-2.961201e-10	0.010253033	0.010253033	0	61368.74	60956	-3.0393914e-05	666247.44	133311.69	-0.00024671052	139521.48	664258.9	-0.00016506953
0	0.5738852	0.57002246	-3.4361106e-10	0.009899466	0.009899466	0	61296.957	60884.367	-3.6874968e-05	666433.06	132176	-0.00025845863	138398.36	664452.2	-0.00025490826
0	0.57321256	0.56935066	-2.4024838e-10	0.009545955	0.009545955	0	61225.094	60812.613	-2.7041644e-05	666614.4	131043.36	-0.00027020677	137278.62	664640.8	-5.2588523e-05
0	0.5725332	0.56867284	-1.8158308e-10	0.00919239	0.00919239	0	61152.54	60740.21	-1.8660969e-05	666797.25	129900.32	-0.00027608083	136148.2	664831.4	2.9946243e-05
0	0.57184756	0.56798935	-1.2012419e-10	0.008838868	0.008838867	0	61079.31	60667.207	-1.3632564e-05	666981.56	128747.45	-0.00012335526	135007.52	665023.75	-6.1353276e-05
0	0.5711609	0.5673041	-6.145889e-11	0.008485297	0.008485297	0	61005.97	60594.02	-7.374994e-06	667161.4	127597.086	-0.00012335526	133869.84	665211.25	4.0171788e-05
0	0.5704658	0.5666115	-5.0563903e-10	0.00813174	0.00813174	0	60931.727	60520.043	-5.3859803e-05	667344.8	126432.06	-0.00045230263	132716.75	665403.2	-0.00025125628
0	0.5697678	0.56591576	-3.380239e-10	0.007778168	0.007778168	0	60857.16	60445.74	-3.6651483e-05	667525.9	125265.18	-0.0003818139	131562	665592.44	-9.6412296e-05
0	0.56906486	0.5652153	-5.2240057e-10	0.0074246014	0.0074246014	0	60782.094	60370.918	-5.4865486e-05	667706.25	124092.195	-0.00043468046	130401.164	665781.2	-0.00031407035
0	0.568359	0.5645119	-3.8551484e-10	0.007071047	0.007071047	0	60706.695	60295.78	-4.0562467e-05	667884.25	122917.33	-0.00039356202	129238.484	665967.56	-0.00016872151