# t (s)	mx ()	my ()	mz ()	B_extx (T)	B_exty (T)	B_extz (T)	m_fullx (A/m)	m_fully (A/m)	m_fullz (A/m)	m_full.region1x (A/m)	m_full.region1y (A/m)	m_full.region1z (A/m)	m_full.region2x (A/m)	m_full.region2y (A/m)	m_full.region2z (A/m)
0	0.6241749	0.6241734	5.5280436e-10	0.07071087	0.07071087	0	108706.3	108706.04	9.625e-05	668007.2	205835.75	0.0006901879	205837.62	668007	7.7873796e-05
0	0.62386954	0.6238679	-8.1453295e-11	0.070357256	0.070357256	0	108653.12	108652.83	-1.796875e-05	668197.3	205218.06	-2.1980506e-05	205220.02	668197.06	-9.169011e-05
0	0.6235599	0.62355834	-3.1742828e-10	0.07000352	0.07000352	0	108599.195	108598.93	-5.40625e-05	668389.1	204592.8	-0.00021603698	204594.73	668388.9	-0.00022482919
0	0.6232484	0.6232468	-4.3721252e-11	0.06964992	0.06964992	0	108544.93	108544.66	-9.375e-06	668581.25	203964.45	0	203966.39	668581.06	-6.845358e-05
0	0.6229355	0.6229339	-4.3002546e-10	0.069296576	0.069296576	0	108490.44	108490.17	-7.375e-05	668773.3	203334.4	-0.00021729301	203336.36	668773.06	-0.00039690515
0	0.6226212	0.6226196	-3.1323583e-10	0.06894301	0.06894301	0	108435.7	108435.42	-5.53125e-05	668965.3	202702.45	-0.00019342845	202704.38	668965.06	-0.00028888666
0	0.6223052	0.6223036	-2.1621058e-10	0.06858927	0.06858927	0	108380.664	108380.41	-4e-05	669157.4	202068	-0.00011555466	202069.94	669157.1	-0.00021980506
0	0.62198776	0.6219862	-1.3655405e-10	0.068235666	0.068235666	0	108325.4	108325.13	-1.984375e-05	669349.25	201431.7	-6.719755e-05	201433.62	669349.06	-0.00010048231
0	0.6216684	0.62166685	-2.3238145e-10	0.06788232	0.06788232	0	108269.766	108269.484	-4.1875e-05	669541.44	200792.3	-0.00016391178	200794.23	669541.25	-0.00016705185
0	0.6213481	0.6213465	-2.7490488e-10	0.06752872	0.06752872	0	108213.984	108213.695	-4.75e-05	669733.3	200152.06	-0.00014067524	200154.02	669733.06	-0.00025371785
0	0.6210259	0.62102437	-8.2651136e-11	0.067174986	0.067174986	0	108157.87	108157.6	-1.4375e-05	669925.25	199509.14	-0.00012560289	199511.05	669925.06	1.0048231e-05
0	0.6207022	0.6207007	-2.395685e-10	0.06682176	0.06682176	0	108101.5	108101.22	-4.515625e-05	670117.1	198863.98	-0.00020912882	198865.92	670116.94	-0.00014883943
0	0.62037665	0.62037516	-1.9524833e-10	0.06646817	0.066468164	0	108044.8	108044.53	-3.0625e-05	670309.2	198216.2	-5.0241157e-05	198218.14	670309	-0.0002216891
0	0.62004995	0.6200484	-2.1621058e-10	0.066114426	0.066114426	0	107987.91	107987.63	-3.59375e-05	670500.94	197567.05	-0.00014004722	197569.02	670500.75	-0.00016830787
0	0.6197213	0.61971986	5.4501837e-11	0.06576085	0.06576085	0	107930.664	107930.4	1.234375e-05	670692.75	196915.1	0.00010236636	196917.05	670692.56	-1.31883035e-05
0	0.6193916	0.61939013	-1.940505e-10	0.06540747	0.06540747	0	107873.24	107872.984	-3e-05	670884.3	196261.98	-0.00010048231	196263.92	670884.2	-0.0001475834
0	0.6190596	0.61905813	-2.5514046e-10	0.065053925	0.065053925	0	107815.42	107815.15	-4.3125e-05	671076.3	195605.28	-0.00021603698	195607.19	671076.1	-0.00013565112
0	0.6187263	0.6187248	-1.5452169e-10	0.064700186	0.064700186	0	107757.375	107757.11	-3.03125e-05	671267.94	194946.97	-7.5361735e-05	194948.89	671267.8	-0.00013690715
0	0.6183917	0.61839014	-2.335793e-11	0.0643466	0.0643466	0	107699.086	107698.83	-2.5e-06	671459.4	194287.02	-7.033762e-05	194288.98	671459.2	3.2028736e-05
0	0.61805487	0.6180534	-1.7548393e-10	0.063993216	0.063993216	0	107640.43	107640.164	-3.359375e-05	671651.06	193623.8	-0.00014946745	193625.7	671650.9	-0.0001431873
0	0.61771685	0.61771524	-2.6352537e-10	0.06363963	0.06363963	0	107581.56	107581.3	-4.546875e-05	671842.44	192959.16	-0.00016453979	192961.11	671842.25	-0.00021792103
0	0.61737686	0.61737525	-2.8508654e-10	0.0632859	0.0632859	0	107522.34	107522.08	-4.609375e-05	672033.9	192291.72	-0.00020096463	192293.66	672033.7	-0.00021603698
0	0.6170349	0.6170335	-1.3655405e-10	0.062932655	0.062932655	0	107462.82	107462.555	-2.75e-05	672225.3	191621.66	-0.00015951568	191623.61	672225.1	-6.531351e-05
0	0.61668575	0.61668426	-9.702525e-11	0.06257908	0.06257908	0	107402.01	107401.73	-1.984375e-05	672420	190938.16	-9.3574155e-05	190940.11	672419.8	-7.159365e-05
0	0.61634696	0.61634535	-1.8806127e-10	0.062225346	0.062225346	0	107342.97	107342.72	-3.4375e-05	672607.75	190275.9	-0.0001607717	190277.84	672607.6	-0.000114926646
0	0.61600035	0.61599886	-1.9824294e-10	0.061871782	0.061871782	0	107282.625	107282.36	-3.40625e-05	672798.9	189599.73	-0.000118694734	189601.67	672798.7	-0.00013816319
0	0.6156519	0.61565053	-1.3176268e-10	0.061518367	0.061518367	0	107221.95	107221.695	-2e-05	672989.8	188920.97	-8.226989e-05	188922.92	672989.7	-0.00010487842
0	0.6153021	0.61530054	-2.934714e-10	0.061164834	0.061164834	0	107161.01	107160.76	-5.1875e-05	673180.8	188240.17	-0.00018086817	188242.11	673180.6	-0.0002260852
0	0.61495054	0.61494905	-1.2637238e-10	0.060811102	0.060811114	0	107099.78	107099.52	-2.5e-05	673371.5	187557.31	-0.00012937098	187559.25	673371.3	-6.028939e-05
0	0.61459607	0.6145945	-1.8386882e-10	0.06045754	0.06045754	0	107038.055	107037.79	-3.03125e-05	673562.56	186869.92	-0.0001475834	186871.88	673562.5	-0.00012371886
0	0.6142414	0.61424	-1.1918533e-10	0.060104124	0.060104124	0	106976.29	106976.04	-1.75e-05	673753	186183.12	-7.033762e-05	186185.05	673752.8	-0.000109274515
0	0.6138845	0.613883	2.7550379e-11	0.059750557	0.059750553	0	106914.12	106913.875	3.4375e-06	673943.44	185493.02	-5.65213e-05	185494.92	673943.3	5.2753214e-05
0	0.6135259	0.61352456	-3.7013334e-10	0.059396826	0.059396826	0	106851.69	106851.43	-6.4375e-05	674133.7	184800.72	-0.00026627813	184802.61	674133.5	-0.00028449055
0	0.6131652	0.6131638	-2.5993183e-10	0.05904356	0.05904356	0	106788.85	106788.61	-4.3125e-05	674324.06	184105.42	-0.00015574759	184107.34	674323.94	-0.00020473271
0	0.6127987	0.6127972	-1.1080044e-10	0.05868999	0.05868999	0	106725.016	106724.75	-2.4375e-05	674516.3	183399.92	-0.00014193128	183401.84	674516.2	-5.0241157e-05
0	0.6124385	0.61243695	-1.7368716e-10	0.058336265	0.058336265	0	106662.29	106662.02	-3.125e-05	674704.4	182707.55	-0.00016391178	182709.47	674704.25	-0.000102994374
0	0.61207265	0.6120712	-1.7488501e-10	0.057982713	0.057982713	0	106598.56	106598.32	-3.0625e-05	674894.2	182005.6	-0.00011053055	182007.48	674894.06	-0.00012937098
0	0.6117047	0.6117033	-8.085437e-11	0.057629272	0.05762927	0	106534.49	106534.234	-1.1875e-05	675084	181300.64	-7.5361735e-05	181302.55	675083.9	-2.2608521e-05
0	0.6113353	0.6113338	1.0600906e-10	0.0572757	0.0572757	0	106470.14	106469.89	1.390625e-05	675273.6	180593.78	8.855004e-05	180595.73	675273.56	3.642484e-05
0	0.6109638	0.61096233	-2.844876e-10	0.056922022	0.056922026	0	106405.46	106405.2	-4.25e-05	675463.06	179884.33	-0.00017584405	179886.22	675462.94	-0.00020473271
0	0.6105841	0.61058265	-2.138149e-10	0.05656847	0.05656847	0	106339.336	106339.086	-3.546875e-05	675655.56	179160.28	-0.00011743871	179162.2	675655.56	-0.00016328377
0	0.61021495	0.6102135	-3.6414413e-10	0.056215018	0.056215018	0	106275.03	106274.79	-5.84375e-05	675841.7	178457.38	-0.0002694182	178459.27	675841.56	-0.00021980506
0	0.6098383	0.6098369	-2.138149e-10	0.055861466	0.055861466	0	106209.445	106209.195	-3.75e-05	676030.5	177741.22	-0.00014067524	177743.14	676030.44	-0.00015763163
0	0.6094573	0.6094559	-1.940505e-10	0.05550775	0.05550775	0	106143.086	106142.85	-3.34375e-05	676220.2	177018.17	-0.00014381531	177020.1	676220.06	-0.00016328377
0	0.6090785	0.60907704	-2.1082029e-10	0.055154454	0.055154454	0	106077.11	106076.86	-3.796875e-05	676408	176300	-0.00014255928	176301.9	676407.94	-0.0001519795
0	0.6086958	0.60869443	1.437411e-11	0.054800894	0.054800894	0	106010.484	106010.21	2.5e-06	676596.44	175575.84	-7.5361735e-05	175577.75	676596.4	0.00010487842
0	0.6083112	0.6083098	-1.3655405e-10	0.05444719	0.05444719	0	105943.48	105943.23	-2.328125e-05	676784.75	174849.06	-0.0001130426	174850.98	676784.6	-9.797026e-05
0	0.6079252	0.6079238	-1.5032924e-10	0.05409365	0.05409365	0	105876.26	105876	-2.953125e-05	676972.56	174120.78	-0.00014507135	174122.69	676972.56	-7.8501806e-05
0	0.6075362	0.6075348	-1.323616e-10	0.053740162	0.053740162	0	105808.516	105808.26	-2.375e-05	677160.7	173388.2	-0.00011053055	173390.1	677160.56	-0.000106134445
0	0.60714525	0.6071438	-1.7907746e-10	0.05338662	0.05338662	0	105740.42	105740.17	-2.84375e-05	677348.56	172652.86	-0.00011806672	172654.73	677348.56	-0.00011555466
0	0.6067533	0.60675186	-1.5691737e-10	0.053032946	0.053032946	0	105672.15	105671.914	-3.234375e-05	677536	171916.73	-6.028939e-05	171918.66	677535.9	-0.00017835612
0	0.6063593	0.6063579	-3.04252e-10	0.05267941	0.052679416	0	105603.53	105603.29	-4.9375e-05	677723.06	171178.08	-0.00024618168	171179.95	677723	-0.00017647207
0	0.6059569	0.6059555	-1.5092816e-10	0.052325904	0.052325908	0	105533.45	105533.23	-2.296875e-05	677912.9	170424.88	-4.77291e-05	170426.77	677912.9	-0.00013313907
0	0.6055638	0.6055625	-1.2457563e-10	0.051972378	0.051972378	0	105464.99	105464.75	-2.3125e-05	678097.3	169690.2	-7.912982e-05	169692.1	678097.2	-9.420217e-05
0	0.605164	0.6051626	-1.3355944e-10	0.051618665	0.051618665	0	105395.35	105395.12	-2.3125e-05	678283.7	168943.98	-8.540997e-05	168945.88	678283.6	-0.00010990253
0	0.6047614	0.60476005	-1.9045697e-10	0.051265337	0.051265337	0	105325.25	105325.016	-3.609375e-05	678470.1	168193.97	-0.00018714831	168195.86	678470.06	-9.0434085e-05
0	0.6043573	0.604356	4.671586e-11	0.050911807	0.050911807	0	105254.87	105254.63	8.90625e-06	678656.1	167442.3	3.7680868e-06	167444.17	678656.06	6.2801446e-05
0	0.6039508	0.6039494	-3.1742827e-11	0.050558094	0.050558094	0	105184.07	105183.836	-3.75e-06	678842.06	166687.19	-5.777733e-05	166689.06	678842.06	4.0192925e-05
0	0.6035423	0.60354096	-3.4138511e-10	0.05020459	0.050204586	0	105112.94	105112.69	-5.09375e-05	679027.75	165929.62	-0.00021352492	165931.5	679027.7	-0.00023362138
0	0.6031317	0.60313034	-1.0780583e-11	0.04985105	0.04985105	0	105041.42	105041.164	-7.8125e-07	679213.1	165169.31	1.6328377e-05	165171.17	679213.1	-5.21252e-05
0	0.6027141	0.6027128	2.0363324e-11	0.04949753	0.04949753	0	104968.7	104968.46	1.875e-06	679400.4	164397.55	1.5072347e-05	164399.4	679400.4	2.386455e-05
0	0.6023043	0.60230285	-2.1621058e-10	0.049143866	0.049143866	0	104897.31	104897.06	-3.765625e-05	679583.1	163640.9	-0.00017081994	163642.78	679583.1	-0.0001431873
0	0.60188735	0.60188603	-5.9892126e-11	0.04879036	0.04879036	0	104824.71	104824.46	-8.59375e-06	679767.75	162872.7	-5.777733e-05	162874.56	679767.7	-1.695639e-05
0	0.60146844	0.601467	-3.916945e-10	0.0484368	0.0484368	0	104751.74	104751.5	-6.9375e-05	679952	162101.83	-0.00029391077	162103.7	679952.06	-0.0002863746
0	0.60104525	0.601044	-1.09003674e-10	0.048083294	0.048083294	0	104678.055	104677.805	-1.96875e-05	680136.75	161324.77	-0.00018212419	161326.61	680136.8	1.0048231e-05
0	0.6006245	0.60062313	-1.3655405e-10	0.047729596	0.047729596	0	104604.766	104604.53	-2.46875e-05	680319.56	160552.84	-9.54582e-05	160554.69	680319.56	-0.000102994374
0	0.6001986	0.60019726	-9.58274e-11	0.047376227	0.047376227	0	104530.586	104530.35	-1.75e-05	680503.2	159772.97	-0.00011806672	159774.81	680503.2	-7.5361736e-06
0	0.59977114	0.59976983	-2.0542999e-10	0.04702272	0.047022726	0	104456.15	104455.91	-3.625e-05	680686.3	158991.44	-0.00020975684	158993.3	680686.3	-8.7922024e-05
0	0.59934163	0.5993403	1.6769795e-10	0.046669014	0.046669014	0	104381.336	104381.11	2.8125e-05	680869	158207.4	0.00011806672	158209.25	680869	0.00014381531
0	0.59890944	0.5989082	-2.3298038e-10	0.04631553	0.04631553	0	104306.07	104305.836	-3.75e-05	681051.56	157419.81	-0.00027632638	157421.67	681051.6	-6.845358e-05
0	0.5984741	0.5984727	-1.1918533e-10	0.045961935	0.045961928	0	104230.234	104230.01	-1.703125e-05	681234.1	156627.66	-8.164188e-05	156629.5	681234.1	-6.531351e-05
0	0.5980394	0.59803814	-2.1082029e-10	0.04560844	0.04560844	0	104154.54	104154.33	-4.1875e-05	681415.3	155838.05	-0.00018966036	155839.89	681415.3	-0.00015260752
0	0.5976006	0.59759927	-1.1379504e-10	0.045254786	0.04525479	0	104078.12	104077.88	-2.3125e-05	681596.9	155042.1	-7.033762e-05	155043.94	681596.94	-0.00010990253
0	0.59715885	0.59715754	-2.455577e-10	0.0449013	0.044901308	0	104001.195	104000.96	-4.21875e-05	681778.3	154242.25	-0.00022985329	154244.08	681778.4	-0.00010801849
0	0.59671676	0.59671545	-2.7191024e-10	0.044547684	0.044547684	0	103924.18	103923.96	-4.828125e-05	681958.75	153442.8	-0.00017207596	153444.62	681958.8	-0.00018840434
0	0.5962714	0.59627014	-1.9045697e-10	0.044194214	0.04419421	0	103846.625	103846.4	-3.9375e-05	682139.2	152638.95	-0.00014569936	152640.78	682139.25	-0.00016328377
0	0.5958239	0.59582263	-1.8925912e-10	0.043840516	0.043840524	0	103768.68	103768.48	-3.125e-05	682319.1	151832.44	-0.00016391178	151834.23	682319.25	-9.54582e-05
0	0.5953714	0.5953702	-7.067271e-11	0.043487042	0.043487042	0	103689.89	103689.68	-1.265625e-05	682499.7	151018.52	-6.154542e-05	151020.34	682499.75	-4.082094e-05
0	0.59492224	0.594921	-6.2287814e-11	0.043133624	0.043133624	0	103611.67	103611.43	-1.0625e-05	682677.9	150211.45	-5.0241157e-05	150213.28	682677.94	-2.951668e-05
0	0.59446716	0.5944659	-4.0606862e-10	0.04277993	0.04277993	0	103532.4	103532.19	-7.40625e-05	682857	149395.23	-0.00035420017	149397.05	682857.06	-0.00025874196
0	0.5940102	0.5940089	-3.0604877e-10	0.042426456	0.042426456	0	103452.805	103452.59	-5.609375e-05	683035.56	148576.86	-0.00029265473	148578.69	683035.56	-0.0001475834
0	0.593551	0.5935497	-2.9107575e-10	0.042072807	0.042072807	0	103372.86	103372.63	-5e-05	683213.56	147756.1	-0.00021352492	147757.89	683213.7	-0.00021603698
0	0.59308916	0.5930879	-2.35975e-10	0.041719347	0.041719347	0	103292.4	103292.19	-3.84375e-05	683391.3	146931.62	-0.00020159264	146933.44	683391.44	-0.00013816319
0	0.59262526	0.59262407	-3.0964228e-10	0.041365713	0.041365713	0	103211.61	103211.4	-5.25e-05	683568.5	146105.02	-0.0003158913	146106.81	683568.6	-0.00013879119
0	0.5921588	0.5921576	-2.3238145e-10	0.041012257	0.041012257	0	103130.375	103130.17	-4.375e-05	683745.3	145275.2	-0.0001909164	145277.02	683745.4	-0.00017647207
0	0.5916904	0.5916892	-1.7069256e-10	0.04065857	0.04065857	0	103048.805	103048.59	-2.234375e-05	683921.56	144443.25	-5.2753214e-05	144445.03	683921.6	-0.00015825965
0	0.5912187	0.5912175	1.1978425e-11	0.04030513	0.04030513	0	102966.664	102966.445	0	684097.6	143606.8	-5.4009244e-05	143608.61	684097.7	7.912982e-05
0	0.5907453	0.590744	-4.2104165e-10	0.039951444	0.039951444	0	102884.195	102883.984	-7.25e-05	684273.06	142768.53	-0.0002989349	142770.31	684273.2	-0.00033221964
0	0.59026915	0.5902679	-4.3481685e-10	0.039597984	0.039597984	0	102801.266	102801.07	-7.828125e-05	684448.1	141926.94	-0.0002650221	141928.7	684448.2	-0.00035922427
0	0.58979034	0.58978915	-1.7069256e-10	0.03924453	0.03924453	0	102717.89	102717.69	-2.78125e-05	684622.7	141082.08	-0.00014946745	141083.84	684622.75	-7.096564e-05
0	0.5893092	0.589308	-1.6110982e-10	0.038890842	0.038890842	0	102634.09	102633.88	-2.875e-05	684796.8	140234.34	-8.7922024e-05	140236.12	684796.94	-0.00012434686
0	0.58882546	0.5888242	2.5753615e-11	0.038537383	0.03853738	0	102549.83	102549.625	6.875e-06	684970.44	139383.34	8.855004e-05	139385.11	684970.56	-4.2704985e-05
0	0.58833945	0.58833826	-1.5931306e-10	0.038183715	0.038183715	0	102465.21	102464.99	-3.03125e-05	685143.44	138530	1.0048231e-05	138531.75	685143.56	-0.00025057778
0	0.58785075	0.58784956	1.209821e-10	0.037830256	0.037830256	0	102380.086	102379.89	2.125e-05	685316.1	137673.14	0.00011053055	137674.89	685316.25	6.0917402e-05
0	0.5873594	0.58735824	-2.2759008e-11	0.037476573	0.03747657	0	102294.51	102294.305	-2.5e-06	685488.25	136813.2	1.8840434e-05	136814.94	685488.4	-3.7680868e-05
0	0.58686596	0.58686477	-2.3118361e-10	0.03712317	0.03712317	0	102208.57	102208.37	-3.8125e-05	685659.7	135950.84	-0.00016830787	135952.6	685659.9	-0.0001607717
0	0.58637	0.5863688	-1.7668178e-10	0.0367695	0.0367695	0	102122.195	102121.984	-2.8125e-05	685830.6	135085.55	-0.0001431873	135087.31	685830.75	-8.917806e-05
0	0.5858703	0.5858692	-2.9227357e-10	0.036416046	0.03641604	0	102035.17	102034.984	-5.265625e-05	686001.4	134215.38	-0.00025371785	134217.1	686001.5	-0.00018338022
0	0.58536893	0.58536774	-1.4134542e-10	0.036062367	0.036062367	0	101947.84	101947.65	-2.65625e-05	686171.2	133343.4	-0.00016642384	133345.16	686171.44	-4.3961012e-05
0	0.58486485	0.58486366	-9.163496e-11	0.0357089	0.0357089	0	101860.055	101859.86	-1.5625e-05	686340.6	132468.36	-6.028939e-05	132470.11	686340.75	-8.980607e-05
0	0.5843526	0.5843515	-2.084246e-10	0.035355434	0.035355434	0	101770.85	101770.65	-3.828125e-05	686511.3	131580.64	-0.00015951568	131582.39	686511.44	-0.00014067524
0	0.5838483	0.5838472	-2.0542999e-10	0.03500176	0.03500176	0	101683.016	101682.83	-3.53125e-05	686677.9	130708.05	-0.000111786576	130709.766	686678	-0.00017521603
0	0.5833363	0.58333516	-2.50948e-10	0.034648288	0.034648288	0	101593.86	101593.664	-4.4375e-05	686845.5	129823.61	-0.00030898312	129825.33	686845.7	-5.0241157e-05
0	0.58282125	0.5828202	-2.35975e-10	0.034294635	0.034294635	0	101504.14	101503.96	-3.734375e-05	687012.7	128935.37	-0.00018840434	128937.08	687012.8	-0.00013313907
0	0.5823037	0.5823027	-8.564574e-11	0.03394116	0.03394116	0	101414.02	101413.83	-1.40625e-05	687179.2	128044.42	-5.777733e-05	128046.125	687179.4	-3.3284767e-05
0	0.5817832	0.5817821	-1.2337778e-10	0.033587493	0.033587493	0	101323.37	101323.17	-2.375e-05	687345.1	127149.61	-4.2704985e-05	127151.31	687345.3	-0.00014381531
0	0.5812595	0.5812584	-3.0784553e-10	0.03323408	0.033234082	0	101232.16	101231.96	-5.21875e-05	687510.5	126251.01	-0.00031023915	126252.695	687510.75	-0.00013062701
0	0.58073395	0.5807328	-2.335793e-10	0.032880425	0.032880425	0	101140.61	101140.43	-3.84375e-05	687675.2	125350.625	-0.00018526427	125352.32	687675.4	-0.00014130326
0	0.5802059	0.58020484	-2.9107575e-10	0.032526962	0.032526962	0	101048.66	101048.48	-5.125e-05	687839	124447.52	-0.00013062701	124449.234	687839.25	-0.0002857466
0	0.5796745	0.57967347	-2.0003971e-10	0.0321733	0.0321733	0	100956.12	100955.94	-3.40625e-05	688002.44	123540.25	-0.00011806672	123541.914	688002.56	-0.00017584405
0	0.57914037	0.57913935	-1.0481122e-10	0.031819817	0.031819817	0	100863.08	100862.91	-1.609375e-05	688165.06	122629.805	-7.7873796e-05	122631.48	688165.25	-5.5893288e-05
0	0.57860345	0.5786023	-3.0904337e-10	0.031466328	0.031466328	0	100769.57	100769.38	-6e-05	688327.06	121715.984	-0.00018589228	121717.65	688327.4	-0.00025748592
0	0.5780632	0.5780621	-4.6116937e-11	0.031112673	0.031112673	0	100675.5	100675.32	-7.1875e-06	688488.56	120798.31	-3.642484e-05	120799.98	688488.8	-1.5072347e-05
0	0.57752115	0.57752013	-8.3848976e-11	0.030759184	0.030759184	0	100581.086	100580.91	-1.8125e-05	688649	119878.98	-0.0001601437	119880.63	688649.25	4.1448955e-05
0	0.5769747	0.57697374	-3.5935276e-11	0.030405551	0.030405551	0	100485.92	100485.76	-6.25e-06	688809.25	118953.83	-5.0241156e-06	118955.48	688809.4	-7.5361736e-06
0	0.57642674	0.5764257	3.5935276e-11	0.030052062	0.030052062	0	100390.46	100390.29	8.28125e-06	688968.3	118027.35	2.4492565e-05	118028.99	688968.56	2.2608521e-05
0	0.57587504	0.5758741	-1.4254327e-10	0.029698413	0.029698413	0	100294.414	100294.234	-2.609375e-05	689126.9	117096.59	-0.00012434686	117098.23	689127.1	-5.5265275e-05
0	0.5753202	0.57531923	-7.7260844e-11	0.029344995	0.029344993	0	100197.77	100197.6	-1.3125e-05	689284.9	116161.83	5.0241157e-05	116163.46	689285.06	-0.00015449156
0	0.57476294	0.5747619	-7.426624e-11	0.028991356	0.028991356	0	100100.72	100100.55	-7.65625e-06	689441.9	115224.64	7.5361736e-06	115226.266	689442.06	-7.284968e-05
0	0.5742025	0.5742015	-1.8686344e-10	0.028637854	0.02863785	0	100003.11	100002.945	-3.4375e-05	689598.25	114283.71	-0.00028009445	114285.336	689598.44	1.31883035e-05
0	0.57363915	0.5736382	-1.2457563e-10	0.028284235	0.028284235	0	99905	99904.83	-1.75e-05	689753.8	113339.53	-0.00015072347	113341.14	689754	6.2801445e-07
0	0.5730714	0.57307047	-3.4258296e-10	0.027930735	0.027930733	0	99806.12	99805.945	-5.5e-05	689908.9	112389.51	-0.00023550543	112391.12	689909.1	-0.0002260852
0	0.57250357	0.5725027	1.916548e-11	0.027577227	0.027577227	0	99707.24	99707.055	0	690062.5	111440.98	-0.0001042504	111442.586	690062.75	0.000102994374
0	0.5719314	0.57193047	-1.4194435e-10	0.02722359	0.02722359	0	99607.57	99607.41	-2.5e-05	690215.56	110486.77	-6.531351e-05	110488.375	690215.8	-0.00013188303
0	0.5713503	0.5713493	-2.371728e-10	0.026870081	0.026870081	0	99506.36	99506.195	-3.53125e-05	690369.5	109519.34	-0.00013062701	109520.93	690369.75	-0.00018840434
0	0.57077676	0.57077587	-1.0780583e-10	0.026516473	0.026516473	0	99406.48	99406.33	-1.703125e-05	690519.7	108566.23	-0.00013879119	108567.81	690519.94	-2.4492565e-05
0	0.5701949	0.57019395	-2.934714e-10	0.026162952	0.026162954	0	99305.14	99304.984	-5.1875e-05	690670.4	107600.84	-0.00015323552	107602.41	690670.7	-0.0002480657
0	0.5696092	0.5696084	-1.9884186e-10	0.025809333	0.025809333	0	99203.14	99202.99	-3.390625e-05	690820.4	106630.97	-0.00022922528	106632.55	690820.75	-7.5361735e-05
0	0.5690165	0.5690156	-4.168492e-10	0.025455903	0.025455903	0	99099.91	99099.75	-7.0625e-05	690970.7	105650.82	-0.00026125403	105652.38	690971	-0.0003083551
0	0.56843096	0.5684301	-1.239767e-10	0.025102295	0.025102293	0	98997.945	98997.78	-2.0625e-05	691117.44	104684.37	-6.342946e-05	104685.914	691117.75	-8.289791e-05
0	0.56783646	0.5678355	9.103603e-11	0.024748765	0.024748765	0	98894.39	98894.24	1.625e-05	691264.7	103704.734	8.7922024e-05	103706.28	691265	2.5748594e-05
0	0.56723905	0.5672382	-1.4014757e-10	0.02439518	0.02439518	0	98790.35	98790.195	-2.296875e-05	691411.06	102722.04	-0.0001651678	102723.58	691411.4	-2.386455e-05
0	0.56663805	0.5666372	-3.6713874e-10	0.024041647	0.024041647	0	98685.695	98685.53	-6.25e-05	691556.56	101735.21	-0.00017584405	101736.74	691556.8	-0.00034038385
0	0.56602925	0.5660284	-7.3667315e-11	0.02368811	0.023688113	0	98579.65	98579.5	-1.3125e-05	691702.2	100737.195	-0.00020033661	100738.72	691702.44	9.797026e-05
0	0.5654265	0.5654257	7.067271e-11	0.023334507	0.023334507	0	98474.69	98474.55	1.265625e-05	691844.7	99750.97	3.956491e-05	99752.47	691845	7.724578e-05
0	0.56481516	0.5648143	-4.731478e-11	0.022980964	0.022980964	0	98368.2	98368.06	-6.875e-06	691987.56	98752.125	-9.54582e-05	98753.63	691987.94	6.2801446e-05
0	0.5642015	0.56420064	-2.335793e-10	0.022627395	0.022627395	0	98261.33	98261.18	-4.3125e-05	692129.25	97751.36	-0.000173332	97752.85	692129.5	-0.00017458803
0	0.56358373	0.5635829	-1.4553787e-10	0.022273842	0.022273842	0	98153.734	98153.59	-2.328125e-05	692269.94	96745.71	-5.2753214e-05	96747.195	692270.3	-0.0001601437
0	0.5629635	0.56296265	-2.0962244e-10	0.021920258	0.021920262	0	98045.72	98045.586	-3.8125e-05	692409.7	95737.734	-0.00026376607	95739.22	692410.06	-7.033762e-05
0	0.56233907	0.5623383	-1.16190724e-10	0.021566812	0.021566812	0	97936.98	97936.836	-2.0625e-05	692548.5	94724.734	-3.830888e-05	94726.21	692548.8	-0.00011806672
0	0.56171155	0.5617108	-7.187055e-12	0.021213228	0.021213228	0	97827.69	97827.555	1.875e-06	692686.2	93708.484	-1.5072347e-05	93709.96	692686.6	4.647307e-05
0	0.5610805	0.5610798	-2.1501273e-10	0.020859674	0.02085967	0	97717.79	97717.66	-4.125e-05	692822.94	92688.33	-0.00032907957	92689.8	692823.3	-3.7680868e-06
0	0.56044304	0.5604423	-3.6294628e-10	0.020506129	0.020506129	0	97606.766	97606.625	-6.359375e-05	692959.25	91659.58	-0.00042893388	91661.04	692959.6	-0.0001130426
0	0.55980796	0.5598071	-2.2699116e-10	0.020152565	0.020152565	0	97496.16	97496.02	-3.78125e-05	693093.44	90636.266	-0.00021540896	90637.72	693093.75	-0.00010676246
0	0.55916625	0.5591655	-3.6534196e-11	0.019798992	0.019798992	0	97384.38	97384.266	-5.625e-06	693227	89604.32	-0.00016830787	89605.766	693227.3	0.00010487842
0	0.5585214	0.5585207	-2.761027e-10	0.019445421	0.019445421	0	97272.086	97271.95	-4.875e-05	693359.44	88569.125	-0.00023110933	88570.57	693359.8	-0.0001431873
0	0.5578697	0.5578689	-1.8506667e-10	0.019091858	0.019091858	0	97158.57	97158.46	-3.390625e-05	693491.4	87524.71	-0.00016139972	87526.13	693491.8	-0.00012309084
0	0.55722106	0.55722034	-5.8095362e-11	0.018738288	0.018738287	0	97045.625	97045.49	-1.5e-05	693621.06	86487.03	-0.00017584405	86488.445	693621.4	6.217343e-05
0	0.5565647	0.55656403	-1.06607986e-10	0.01838475	0.01838475	0	96931.305	96931.19	-1.84375e-05	693750.3	85438.84	-0.00014193128	85440.26	693750.75	1.2560289e-05
0	0.5559026	0.5559019	-2.755038e-10	0.018031184	0.018031184	0	96815.984	96815.875	-4.78125e-05	693878.7	84383.414	-0.00022734124	84384.81	693879.2	-0.00016579582
0	0.5552422	0.55524147	-3.7911715e-10	0.017677717	0.017677717	0	96700.97	96700.84	-6.75e-05	694005.2	83332.39	-0.00030647105	83333.78	694005.56	-0.00026313806
0	0.5545761	0.5545754	-1.3056484e-10	0.017324144	0.017324144	0	96584.96	96584.84	-1.71875e-05	694130.75	82274.336	-0.00014695538	82275.73	694131.25	-4.5217042e-05
0	0.553905	0.55390435	-2.7430594e-10	0.01697058	0.016970579	0	96468.1	96467.98	-4.5625e-05	694255.4	81210.234	-0.00034163988	81211.61	694255.9	-5.0869174e-05
0	0.55323124	0.5532305	-2.9107575e-10	0.016617041	0.016617043	0	96350.74	96350.64	-5.6875e-05	694378.7	80143.664	-0.00022859727	80145.03	694379.06	-0.00024052954
0	0.55255336	0.5525527	-1.7787961e-10	0.016263481	0.016263481	0	96232.695	96232.58	-2.625e-05	694500.75	79072.625	-0.00017458803	79073.984	694501.2	-6.531351e-05
0	0.5518718	0.5518712	1.8686344e-10	0.015909908	0.015909908	0	96113.99	96113.89	3.515625e-05	694621.56	77997.64	0.00011053055	77998.984	694622	0.00017207596
0	0.5511865	0.55118585	-8.5046824e-11	0.015556336	0.015556336	0	95994.63	95994.53	-1.75e-05	694741.2	76918.61	-7.033762e-05	76919.93	694741.6	-4.3961012e-05
0	0.5504926	0.550492	-2.1261705e-10	0.015202776	0.015202776	0	95873.79	95873.68	-3.78125e-05	694860.25	75828.08	-0.0002731863	75829.4	694860.6	-4.458903e-05
0	0.54980415	0.5498035	-1.1379504e-11	0.014849206	0.014849206	0	95753.9	95753.78	-2.65625e-06	694976.56	74748.03	-7.912982e-05	74749.34	694976.94	3.1400723e-05
0	0.5491068	0.54910624	2.0962244e-11	0.014495678	0.014495678	0	95632.445	95632.336	4.375e-06	695092.25	73655.92	-2.7004622e-05	73657.22	695092.75	7.7873796e-05
0	0.54840606	0.54840547	1.3655405e-10	0.014142117	0.014142117	0	95510.41	95510.29	2.25e-05	695206.6	72560.59	-5.5265275e-05	72561.88	695207.1	0.00026565013
0	0.54770106	0.54770046	-3.6833658e-10	0.0137886135	0.0137886135	0	95387.62	95387.516	-6.8125e-05	695319.9	71460.375	-0.00059661374	71461.66	695320.3	6.845358e-05
0	0.54699236	0.5469918	-2.1800735e-10	0.013435041	0.013435041	0	95264.19	95264.09	-3.625e-05	695431.5	70356.516	-0.00031149518	70357.79	695432	-4.3961013e-06
0	0.54627967	0.5462791	-1.9524833e-10	0.013081477	0.013081477	0	95140.06	95139.96	-3.4375e-05	695541.94	69248.35	-0.00015072347	69249.62	695542.3	-0.00014569936
0	0.54556227	0.54556173	-2.2160086e-11	0.012727952	0.012727952	0	95015.12	95015.03	-1.09375e-06	695650.94	68134.97	3.2656753e-05	68136.22	695651.4	-3.7052854e-05
0	0.54484147	0.544841	-2.9227357e-10	0.012374383	0.012374383	0	94889.59	94889.5	-4.9375e-05	695758.44	67018.375	-0.00037806472	67019.625	695758.94	-4.898513e-05
0	0.5441163	0.5441158	-1.1918533e-10	0.012020824	0.012020824	0	94763.305	94763.21	-1.65625e-05	695864.7	65896.945	-1.9468449e-05	65898.18	695865.2	-0.00010550643
0	0.5433875	0.54338694	-1.718904e-10	0.011667253	0.011667253	0	94636.36	94636.28	-2.71875e-05	695969.25	64771.9	-3.2656753e-05	64773.113	695969.8	-0.00020473271
0	0.5426543	0.54265386	2.0363324e-11	0.011313697	0.011313697	0	94508.68	94508.586	5e-06	696072.56	63642.24	-7.5361736e-06	63643.445	696073.06	6.217343e-05
0	0.5419167	0.5419162	-1.5571953e-11	0.010960129	0.010960131	0	94380.2	94380.12	-3.90625e-06	696174.4	62507.75	-0.000216665	62508.945	696174.94	0.00018840434
0	0.5411751	0.54117465	-2.6951457e-11	0.010606614	0.010606614	0	94251.07	94250.984	-5.9375e-06	696274.6	61369.426	-0.00023613343	61370.617	696275.25	0.00023833149
0	0.54042923	0.54042876	5.3303993e-11	0.010253064	0.010253064	0	94121.16	94121.07	6.875e-06	696373.44	60226.258	8.164188e-05	60227.43	696373.94	-2.5120578e-05
0	0.5396795	0.53967905	-3.1203798e-10	0.009899496	0.009899496	0	93990.586	93990.5	-5.1875e-05	696470.56	59079.508	-0.00032279943	59080.676	696471.2	-0.00012560289
0	0.538925	0.5389246	-1.5631846e-10	0.009545929	0.009545929	0	93859.17	93859.1	-2.5625e-05	696566.3	57927.55	-0.0001130426	57928.703	696566.75	-0.00010801849
0	0.5381662	0.53816575	-4.4320173e-11	0.009192375	0.009192375	0	93727.04	93726.95	-5e-06	696660.44	56771.176	2.4492565e-05	56772.312	696661.06	-3.6110832e-05
0	0.5374031	0.53740263	-3.5875383e-10	0.008838858	0.008838858	0	93594.125	93594.05	-6.4375e-05	696753	55610.285	-0.0005909616	55611.41	696753.5	4.3333e-05
0	0.536636	0.5366356	-3.0544986e-10	0.00848529	0.008485289	0	93460.53	93460.45	-5.203125e-05	696843.75	54445.51	-0.00019280043	54446.633	696844.4	-0.00024618168
0	0.53586423	0.5358639	-1.9644618e-10	0.008131741	0.008131741	0	93326.12	93326.05	-3.0625e-05	696932.94	53275.89	-0.000259998	53276.996	696933.5	0
0	0.5350872	0.53508687	-6.648026e-11	0.007778168	0.007778168	0	93190.8	93190.734	-1.125e-05	697020.7	52100.395	-3.4540797e-05	52101.49	697021.25	-4.5217042e-05
0	0.53430665	0.5343063	-2.1082029e-10	0.007424603	0.007424603	0	93054.84	93054.78	-3.796875e-05	697106.6	50921.656	-0.00014632737	50922.74	697107.2	-0.00014507135
0	0.533522	0.5335217	9.58274e-12	0.0070710587	0.0070710587	0	92918.2	92918.14	3.90625e-06	697190.6	49739.105	-4.1448955e-05	49740.176	697191.25	8.540997e-05
0	0.532732	0.53273165	-1.5631846e-10	0.0067175203	0.0067175203	0	92780.6	92780.55	-2.6875e-05	697273.2	48550.555	-0.00012057878	48551.61	697273.9	-7.975784e-05
0	0.53193736	0.53193694	-7.3667315e-11	0.006363976	0.006363976	0	92642.2	92642.14	-1.625e-05	697353.94	47357.24	-6.2801446e-05	47358.277	697354.6	-3.422679e-05
0	0.5311387	0.53113836	-3.940902e-10	0.006010412	0.006010412	0	92503.11	92503.06	-6.8125e-05	697432.9	46160.227	-0.00039941721	46161.254	697433.5	-0.00014601336