# t (s)	mx ()	my ()	mz ()	B_extx (T)	B_exty (T)	B_extz (T)	m_fullx (A/m)	m_fully (A/m)	m_fullz (A/m)	m_full.region1x (A/m)	m_full.region1y (A/m)	m_full.region1z (A/m)	m_full.region2x (A/m)	m_full.region2y (A/m)	m_full.region2z (A/m)
0	0.6420285	0.64202505	-4.3348833e-10	0.07071102	0.07071101	0	43943.285	43943.04	-2.888889e-05	633507.9	265328.88	-0.00027272728	265332	633506.1	-0.00025
0	0.64176667	0.6417663	-3.0344183e-10	0.07035683	0.07035684	0	43925.37	43925.34	-1.3333333e-05	633704.6	264768.22	-0.00013636364	264768.7	633704.56	-0.00013636364
0	0.64150083	0.6415006	-1.5172091e-10	0.07000351	0.07000351	0	43907.17	43907.152	-8.888889e-06	633908.6	264192.25	-0.00020454546	264192.6	633908.6	4.5454544e-05
0	0.6412353	0.64123493	-1.7339533e-10	0.06965025	0.069650255	0	43888.98	43888.97	-6.6666666e-06	634110.06	263618.88	-4.5454544e-05	263619.22	634110.06	-0.000125
0	0.6409676	0.6409674	-3.0344183e-10	0.06929627	0.06929627	0	43870.67	43870.652	-2.1111111e-05	634313.2	263041.2	-0.00020454546	263041.53	634313.1	-0.00026136363
0	0.6406978	0.6406976	-2.1674416e-10	0.06894302	0.06894302	0	43852.207	43852.195	-1.3333333e-05	634517.8	262458.75	-0.00020454546	262459.06	634517.8	-0.000113636364
0	0.64042693	0.6404267	-2.1674416e-10	0.06858968	0.06858968	0	43833.664	43833.65	-1.3333333e-05	634721.75	261875.6	-0.00013636364	261875.94	634721.75	-0.00017045454
0	0.64015514	0.64015496	-1.9506975e-10	0.068235524	0.068235524	0	43815.062	43815.055	-2e-05	634925.5	261291.45	-0.00025	261291.75	634925.5	-0.000113636364
0	0.6398819	0.6398817	-2.60093e-10	0.06788243	0.06788243	0	43796.363	43796.348	-1.6666667e-05	635129.5	260704.84	-0.00020454546	260705.14	635129.5	-0.00022727273
0	0.63960695	0.6396067	-1.300465e-10	0.06752828	0.06752828	0	43777.54	43777.527	-8.888889e-06	635333.94	260115.44	-6.818182e-05	260115.73	635333.94	-0.00013636364
0	0.63933134	0.63933116	-4.3348833e-10	0.06717495	0.06717495	0	43758.68	43758.664	-3e-05	635537.44	259526.12	-0.00025	259526.42	635537.44	-0.00035227273
0	0.6390516	0.6390514	-3.6846506e-10	0.06682192	0.06682192	0	43739.527	43739.52	-1.7777778e-05	635742.94	258928.92	-0.00018181818	258929.22	635742.94	-0.00027272728
0	0.63877326	0.6387731	-2.60093e-10	0.06646778	0.06646778	0	43720.477	43720.47	-1.5555555e-05	635947.8	258334.47	-0.00027272728	258334.77	635947.8	-0.00013636364
0	0.63849115	0.63849103	-4.3348833e-10	0.066114426	0.066114426	0	43701.17	43701.156	-3.4444445e-05	636153.75	257733.52	-0.00040909092	257733.84	636153.8	-0.0002840909
0	0.6382084	0.63820815	-4.9851157e-10	0.06576115	0.06576115	0	43681.81	43681.8	-3.3333334e-05	636360.7	257130.66	-0.0004318182	257130.94	636360.75	-0.00027272728
0	0.6379261	0.63792586	-2.60093e-10	0.0654072	0.0654072	0	43662.496	43662.484	-1.7777778e-05	636564.8	256531.44	-0.00020454546	256531.72	636564.8	-0.0002159091
0	0.6376401	0.63764	-2.60093e-10	0.065053925	0.065053925	0	43642.926	43642.91	-1.5555555e-05	636771.44	255924.5	-0.00018181818	255924.78	636771.44	-0.00025
0	0.63735074	0.63735056	-8.669766e-11	0.064700566	0.064700566	0	43623.117	43623.11	-6.6666666e-06	636980.06	255310.73	-9.090909e-05	255311.03	636980.06	-0.000113636364
0	0.63706315	0.63706297	-2.8176741e-10	0.06434645	0.06434645	0	43603.43	43603.418	-1.7777778e-05	637186.25	254701.83	-0.00015909091	254702.12	637186.3	-0.00017045454
0	0.6367739	0.63677365	-1.7339533e-10	0.06399335	0.06399335	0	43583.633	43583.62	-1.1111111e-05	637391.94	254091.17	-6.818182e-05	254091.42	637391.94	-0.00010227273
0	0.6364797	0.6364795	-3.0344183e-10	0.06363923	0.06363923	0	43563.492	43563.484	-2.2222222e-05	637601.25	253469.92	-0.00018181818	253470.2	637601.3	-0.00022727273
0	0.6361871	0.6361869	-2.60093e-10	0.06328586	0.063285865	0	43543.47	43543.457	-1.5555555e-05	637808.3	252853.25	-0.00020454546	252853.5	637808.44	-0.000125
0	0.6358916	0.63589156	-3.0344183e-10	0.06293283	0.062932834	0	43523.254	43523.246	-1.5555555e-05	638016.3	252231.77	-0.00022727273	252232.03	638016.44	-0.0002159091
0	0.63559586	0.6355958	-4.3348833e-10	0.06257872	0.06257872	0	43503.008	43503	-2.4444444e-05	638222.94	251611.1	-0.00031818182	251611.34	638222.94	-0.00027272728
0	0.6352966	0.6352964	-2.1674416e-10	0.062225346	0.062225346	0	43482.523	43482.508	-2.2222222e-05	638431.6	250983.4	-0.00027272728	250983.64	638431.6	-0.00018181818
0	0.63499683	0.6349967	-2.1674416e-10	0.06187203	0.06187203	0	43462.004	43461.996	-1.4444445e-05	638640.2	250355.16	-0.00013636364	250355.4	638640.25	-0.00023863636
0	0.6346948	0.6346947	-1.300465e-10	0.06151815	0.06151815	0	43441.34	43441.324	-8.888889e-06	638849.3	249723.16	-6.818182e-05	249723.42	638849.44	-0.00013636364
0	0.6343914	0.6343913	-2.60093e-10	0.06116485	0.061164845	0	43420.58	43420.566	-1.7777778e-05	639058.3	249089.53	-0.00015909091	249089.81	639058.3	-0.00023863636
0	0.63408613	0.634086	-1.7339533e-10	0.060811453	0.060811453	0	43399.668	43399.664	-1.7777778e-05	639267.6	248452.7	-0.00015909091	248452.95	639267.75	-0.00014772727
0	0.633778	0.63377786	-3.0344183e-10	0.06045737	0.06045737	0	43378.58	43378.57	-2.2222222e-05	639477.8	247811.12	-0.0003409091	247811.34	639477.9	-0.00022727273
0	0.63346833	0.6334682	-3.4679065e-10	0.060104262	0.06010426	0	43357.383	43357.38	-2.2222222e-05	639689.25	247166.16	-0.00027272728	247166.42	639689.4	-0.00026136363
0	0.6331602	0.6331601	-3.901395e-10	0.05975018	0.05975018	0	43336.305	43336.293	-2.4444444e-05	639897.25	246526.95	-0.0003409091	246527.14	639897.25	-0.00020454546
0	0.6328481	0.63284796	-1.9506975e-10	0.05939679	0.05939679	0	43314.938	43314.926	-1.7777778e-05	640107.75	245879.31	-0.00020454546	245879.55	640107.8	-0.00015909091
0	0.63253295	0.63253295	-3.0344183e-10	0.059043735	0.059043735	0	43293.367	43293.367	-2.4444444e-05	640320	245226.03	-0.00025	245226.27	640320.06	-0.00025
0	0.6322174	0.63221735	-2.60093e-10	0.05868968	0.058689676	0	43271.77	43271.758	-2.2222222e-05	640530.75	244573.42	-0.00025	244573.61	640530.8	-0.00015909091
0	0.63190126	0.6319012	-1.9506975e-10	0.05833626	0.05833626	0	43250.13	43250.125	-1.5555555e-05	640740.1	243921.39	-0.00013636364	243921.6	640740.25	-0.000113636364
0	0.631582	0.63158196	-3.4679065e-10	0.057982918	0.057982918	0	43228.28	43228.277	-2.2222222e-05	640951.44	243263.25	-0.00025	243263.44	640951.5	-0.00022727273
0	0.6312603	0.6312603	-3.4679065e-10	0.057629094	0.057629097	0	43206.26	43206.254	-2.6666667e-05	641163.25	242600.95	-0.00020454546	242601.17	641163.4	-0.0002840909
0	0.6309381	0.63093805	-2.1674416e-10	0.05727574	0.05727574	0	43184.21	43184.207	-1.5555555e-05	641375.06	241938.11	-0.00015909091	241938.3	641375.1	-0.00020454546
0	0.6306114	0.6306114	-2.1674416e-10	0.05692233	0.05692233	0	43161.855	43161.85	-1.7777778e-05	641588.94	241266.89	-0.00013636364	241267.06	641589.06	-0.0002159091
0	0.630287	0.630287	-1.9506975e-10	0.05656829	0.05656829	0	43139.645	43139.645	-1.7777778e-05	641799.1	240602.55	-0.00018181818	240602.72	641799.2	-0.00017045454
0	0.6299587	0.6299587	-2.1674416e-10	0.05621516	0.056215163	0	43117.176	43117.176	-1.7777778e-05	642011.8	239930.28	-9.090909e-05	239930.47	642011.8	-0.00022727273
0	0.6296287	0.6296288	-3.0344183e-10	0.05586114	0.05586114	0	43094.59	43094.586	-2.2222222e-05	642224.1	239255.83	-0.00013636364	239256.05	642224.4	-0.00023863636
0	0.6292965	0.6292965	-2.60093e-10	0.055507697	0.055507697	0	43071.85	43071.844	-1.8888888e-05	642437.6	238577.34	-0.00018181818	238577.5	642437.75	-0.00023863636
0	0.6289628	0.6289628	-2.60093e-10	0.055154644	0.055154644	0	43049.01	43049.004	-2.4444444e-05	642650.5	237897.27	-0.000113636364	237897.45	642650.6	-0.00022727273
0	0.6286259	0.62862587	-2.60093e-10	0.05480063	0.05480063	0	43025.953	43025.95	-1.5555555e-05	642865.2	237210.95	-0.00018181818	237211.14	642865.3	-0.00022727273
0	0.62828815	0.62828815	-3.0344183e-10	0.054447178	0.054447178	0	43002.836	43002.84	-2.2222222e-05	643078.75	236524.6	-0.00029545455	236524.7	643078.94	-0.0002159091
0	0.6279486	0.6279485	-3.901395e-10	0.054093797	0.0540938	0	42979.586	42979.586	-2.2222222e-05	643292.6	235835.19	-0.00027272728	235835.34	643292.75	-0.00022727273
0	0.6276079	0.62760794	-3.2511624e-10	0.05374004	0.05374004	0	42956.277	42956.277	-2.2222222e-05	643505.3	235145.61	-0.00022727273	235145.75	643505.44	-0.00019318181
0	0.6272647	0.6272646	-3.0344183e-10	0.053386655	0.053386655	0	42932.785	42932.777	-1.1111111e-05	643719.25	234451.16	-0.00027272728	234451.3	643719.4	-9.090909e-05
0	0.6269188	0.62691873	-4.3348833e-10	0.053033203	0.053033207	0	42909.1	42909.105	-2.4444444e-05	643933.6	233752.4	-0.00025	233752.53	643933.8	-0.00027272728
0	0.6265713	0.62657136	-3.4679065e-10	0.052679215	0.05267922	0	42885.33	42885.324	-2.6666667e-05	644148.6	233051.14	-0.00036363635	233051.28	644148.75	-0.00017045454
0	0.62622106	0.62622094	-3.4679065e-10	0.05232607	0.05232607	0	42861.355	42861.348	-2e-05	644364.7	232344.55	-0.00022727273	232344.69	644364.9	-0.00015909091
0	0.62586987	0.62587	-3.0344183e-10	0.051972095	0.051972095	0	42837.32	42837.32	-2e-05	644579.44	231638.31	-0.00022727273	231638.45	644579.6	-0.00020454546
0	0.6255163	0.62551636	-2.60093e-10	0.051618617	0.051618617	0	42813.113	42813.117	-1.1111111e-05	644794.94	230927.78	-0.00018181818	230927.88	644795.1	-0.00010227273
0	0.62516093	0.62516105	-2.8176741e-10	0.051265545	0.05126554	0	42788.797	42788.8	-1.8888888e-05	645010.1	230215.12	-0.00027272728	230215.19	645010.3	-0.0002159091
0	0.62480336	0.6248034	-2.1674416e-10	0.050911587	0.050911587	0	42764.32	42764.32	-1.3333333e-05	645225.8	229498.77	-0.00018181818	229498.88	645225.94	-0.00018181818
0	0.62444395	0.624444	-2.60093e-10	0.050558094	0.050558094	0	42739.723	42739.723	-1.7777778e-05	645441.4	228780.03	-0.00025	228780.12	645441.56	-0.00018181818
0	0.6240835	0.62408364	-3.4679065e-10	0.05020468	0.05020468	0	42715.05	42715.055	-2.888889e-05	645655.75	228061.11	-0.0003409091	228061.23	645655.94	-0.00025
0	0.6237197	0.62371975	-1.300465e-10	0.04985099	0.04985099	0	42690.145	42690.156	-6.6666666e-06	645872.1	227335.4	-6.818182e-05	227335.47	645872.25	-4.5454544e-05
0	0.62335193	0.623352	-1.300465e-10	0.04949757	0.04949757	0	42664.973	42664.984	-1.3333333e-05	646090.3	226602.33	-0.00015909091	226602.42	646090.44	-0.00010227273
0	0.6229848	0.62298495	-2.384186e-10	0.049144074	0.049144074	0	42639.855	42639.86	-2e-05	646304.94	225873.83	-0.00022727273	225873.89	646305.1	-0.0002159091
0	0.62261504	0.62261516	-4.3348833e-10	0.04879015	0.048790142	0	42614.543	42614.547	-3.111111e-05	646522.06	225138.98	-0.00029545455	225139.06	646522.25	-0.00031818182
0	0.62224346	0.6222436	-2.60093e-10	0.04843698	0.048436973	0	42589.11	42589.117	-2e-05	646738.7	224402.17	-0.00017045454	224402.22	646738.9	-0.00010227273
0	0.62186724	0.62186736	-3.0344183e-10	0.048083067	0.048083063	0	42563.36	42563.367	-2.2222222e-05	646957.5	223656.69	-0.00020454546	223656.73	646957.6	-0.00026136363
0	0.6214917	0.6214918	-4.3348833e-10	0.04772954	0.04772954	0	42537.652	42537.66	-3e-05	647172.94	222915.33	-0.00036363635	222915.38	647173.2	-0.00027272728
0	0.6211119	0.6211121	-3.0344183e-10	0.047376454	0.04737645	0	42511.664	42511.676	-2.2222222e-05	647392.1	222164.64	-0.00019318181	222164.67	647392.3	-0.00023863636
0	0.6207329	0.6207331	-3.901395e-10	0.047022562	0.047022562	0	42485.72	42485.734	-2.7777778e-05	647607.44	221418.64	-0.00040909092	221418.69	647607.7	-0.00015909091
0	0.6203496	0.62034976	-1.7339533e-10	0.04666901	0.04666901	0	42459.49	42459.496	-1.7777778e-05	647825.7	220663.77	-0.000113636364	220663.77	647825.94	-0.00031818182
0	0.6199629	0.61996305	-4.9851157e-10	0.046315547	0.046315547	0	42433.016	42433.03	-2.888889e-05	648045.06	219902.95	-0.00031818182	219902.95	648045.3	-0.00022727273
0	0.61957514	0.61957526	-3.901395e-10	0.045961957	0.045961954	0	42406.477	42406.49	-2.7777778e-05	648263.25	219141.98	-0.00031818182	219142	648263.44	-0.00022727273
0	0.61918527	0.6191855	-2.1674416e-10	0.04560848	0.04560848	0	42379.797	42379.805	-1.7777778e-05	648481.3	218378.14	-0.00020454546	218378.12	648481.56	-0.000113636364
0	0.61879444	0.61879456	-3.4679065e-10	0.04525493	0.04525493	0	42353.04	42353.055	-2e-05	648698.06	217614.16	-0.00031818182	217614.16	648698.25	-0.0002159091
0	0.6183993	0.6183995	-1.9506975e-10	0.044901077	0.04490108	0	42326.004	42326.016	-1.2222222e-05	648916.9	216842.28	-0.00022727273	216842.28	648917.06	-0.000113636364
0	0.61800104	0.6180012	-2.60093e-10	0.044547882	0.044547882	0	42298.74	42298.75	-2e-05	649137.1	216064.33	-0.00025	216064.28	649137.4	-9.090909e-05
0	0.6176024	0.61760265	-4.1181392e-10	0.044194046	0.044194046	0	42271.45	42271.465	-2.4444444e-05	649355.75	215287.62	-0.00031818182	215287.6	649356.06	-0.00023863636
0	0.6172018	0.61720204	-3.4679065e-10	0.04384046	0.04384046	0	42244.027	42244.05	-2.888889e-05	649573.1	214509.38	-0.00027272728	214509.33	649573.44	-0.00026136363
0	0.61679804	0.6167982	-2.60093e-10	0.043486953	0.043486953	0	42216.395	42216.418	-1.3333333e-05	649792.4	213724.83	-0.000113636364	213724.78	649792.7	-0.00022727273
0	0.616391	0.6163913	-3.4679065e-10	0.04313354	0.04313354	0	42188.535	42188.555	-1.7777778e-05	650011.44	212936.05	-0.00015909091	212935.95	650011.7	-0.00026136363
0	0.61598253	0.6159827	-2.60093e-10	0.042779926	0.04277993	0	42160.58	42160.598	-1.6666667e-05	650231.06	212144.45	-0.00022727273	212144.39	650231.3	-0.00013636364
0	0.61557007	0.6155704	-2.8176741e-10	0.042426396	0.042426396	0	42132.348	42132.37	-2e-05	650452.25	211345.84	-0.00018181818	211345.78	650452.6	-0.00025
0	0.61515796	0.6151582	-1.7339533e-10	0.042072926	0.042072926	0	42104.14	42104.164	-1.5555555e-05	650670.25	210550.95	-0.00027272728	210550.86	650670.56	-7.9545454e-05
0	0.6147399	0.61474025	-2.60093e-10	0.041719392	0.041719392	0	42075.53	42075.55	-2.1111111e-05	650892	209743.94	-0.00013636364	209743.83	650892.3	-0.00027272728
0	0.6143212	0.61432153	-1.7339533e-10	0.04136578	0.04136578	0	42046.88	42046.902	-1.4444445e-05	651112	208937.89	-0.00019318181	208937.78	651112.3	-6.818182e-05
0	0.6139007	0.613901	-3.2511624e-10	0.041012008	0.041012008	0	42018.094	42018.11	-2.2222222e-05	651331.94	208129.23	-0.00023863636	208129.11	651332.1	-0.00026136363
0	0.61347836	0.6134787	-3.4679065e-10	0.04065878	0.04065878	0	41989.184	41989.207	-2.6666667e-05	651550	207319.78	-0.0003409091	207319.67	651550.4	-0.00025
0	0.61305034	0.6130507	-4.768372e-10	0.04030504	0.04030504	0	41959.887	41959.91	-3.111111e-05	651772.6	206498	-0.00047727273	206497.86	651773	-0.00027272728
0	0.6126233	0.61262363	-3.4679065e-10	0.03995138	0.039951384	0	41930.66	41930.684	-3.111111e-05	651991.25	205681.53	-0.00030681817	205681.36	651991.5	-0.00025
0	0.61219126	0.6121917	-3.4679065e-10	0.03959781	0.039597806	0	41901.094	41901.113	-2.1111111e-05	652211.94	204856.06	-9.090909e-05	204855.88	652212.2	-0.0003409091
0	0.6117572	0.6117575	-3.0344183e-10	0.039244533	0.039244525	0	41871.38	41871.406	-1.7777778e-05	652432.9	204027.38	-0.00030681817	204027.19	652433.1	-0.00013636364
0	0.61132056	0.6113209	-1.300465e-10	0.038890842	0.038890846	0	41841.496	41841.52	-1.3333333e-05	652653.2	203195.77	-0.00010227273	203195.58	652653.5	-9.090909e-05
0	0.6108806	0.610881	-2.60093e-10	0.038537253	0.038537253	0	41811.383	41811.414	-1.4444445e-05	652876.06	202356.98	-0.00013636364	202356.78	652876.4	-0.0002159091
0	0.61044025	0.6104406	-1.7339533e-10	0.038183905	0.038183905	0	41781.24	41781.27	-1.3333333e-05	653095.25	201521.34	-0.000125	201521.11	653095.56	-9.090909e-05
0	0.6099952	0.6099956	-3.4679065e-10	0.03783031	0.037830308	0	41750.773	41750.81	-2.2222222e-05	653316.5	200676.86	-0.00032954547	200676.62	653316.94	-0.000113636364
0	0.60954696	0.60954744	-3.901395e-10	0.03747658	0.037476584	0	41720.105	41720.137	-2.3333334e-05	653539.5	199826.5	-0.00027272728	199826.27	653539.9	-0.00018181818
0	0.6090977	0.6090982	-2.60093e-10	0.03712295	0.037122946	0	41689.35	41689.387	-2e-05	653759.4	198977.75	-0.000113636364	198977.52	653759.75	-0.00027272728
0	0.6086449	0.6086453	-3.4679065e-10	0.036769673	0.03676968	0	41658.36	41658.395	-2.2222222e-05	653980.44	198122.69	-0.00027272728	198122.45	653980.9	-0.00023863636
0	0.60819036	0.60819083	-3.4679065e-10	0.03641605	0.03641605	0	41627.246	41627.28	-2.2222222e-05	654201.7	197264.94	-0.00022727273	197264.69	654202.1	-0.00022727273
0	0.6077308	0.6077312	-2.8176741e-10	0.036062293	0.036062293	0	41595.793	41595.83	-1.8888888e-05	654423.9	196399.47	-0.00027272728	196399.17	654424.3	-0.000113636364
0	0.6072698	0.60727024	-1.5172091e-10	0.035708673	0.035708673	0	41564.242	41564.273	-1.3333333e-05	654645.7	195532.22	-0.00022727273	195531.92	654646.1	1.1363636e-05
0	0.6068057	0.6068062	-3.4679065e-10	0.03535551	0.035355505	0	41532.48	41532.516	-2.3333334e-05	654867.56	194660.8	-0.00025	194660.47	654867.94	-0.00018181818
0	0.606339	0.6063395	-2.60093e-10	0.035001755	0.035001755	0	41500.535	41500.57	-1.7777778e-05	655089.3	193785.53	-0.00013636364	193785.2	655089.8	-0.00025
0	0.60586977	0.6058703	-8.669766e-11	0.034648135	0.034648135	0	41468.418	41468.453	-4.4444446e-06	655311.44	192906.52	-5.6818182e-05	192906.17	655311.94	-4.5454544e-05
0	0.6053955	0.60539615	-3.2511624e-10	0.03429484	0.03429484	0	41435.965	41436.004	-2e-05	655535.3	192018.83	-0.00025	192018.45	655535.7	-0.00023863636
0	0.60492015	0.60492074	-1.300465e-10	0.033941217	0.033941217	0	41403.426	41403.47	-1.3333333e-05	655757.5	191131.1	-0.00015909091	191130.72	655757.94	-9.090909e-05
0	0.60444146	0.6044422	-3.0344183e-10	0.033587474	0.033587474	0	41370.66	41370.707	-2e-05	655979.9	190238.66	-0.00038636362	190238.27	655980.4	-0.000113636364
0	0.6039611	0.60396177	-3.6846506e-10	0.03323389	0.03323389	0	41337.79	41337.83	-2.2222222e-05	656200.4	189345.64	-0.0003409091	189345.25	656200.9	-0.000113636364
0	0.6034765	0.6034772	-2.60093e-10	0.032880574	0.032880574	0	41304.613	41304.656	-2e-05	656422.56	188444.9	-0.00042045454	188444.5	656423.1	-6.818182e-05
0	0.6029887	0.6029894	-2.8176741e-10	0.032526962	0.032526962	0	41271.227	41271.277	-2.1111111e-05	656645.2	187539.52	-0.00036363635	187539.08	656645.56	-9.090909e-05
0	0.6024984	0.602499	-3.4679065e-10	0.032173224	0.032173224	0	41237.668	41237.715	-2.5555555e-05	656867.8	186630.33	-0.00031818182	186629.9	656868.4	-0.00019318181
0	0.60200506	0.6020058	-2.60093e-10	0.031819616	0.031819616	0	41203.902	41203.95	-2.2222222e-05	657090.1	185717.45	-0.00022727273	185716.98	657090.6	-0.00022727273
0	0.6015066	0.60150725	-1.7339533e-10	0.031466417	0.031466417	0	41169.785	41169.832	-1.5555555e-05	657315.1	184794.58	-0.00019318181	184794.1	657315.6	-9.090909e-05
0	0.6010062	0.601007	-3.0344183e-10	0.03111267	0.03111267	0	41135.535	41135.59	-1.5555555e-05	657538.06	183871.25	-0.00027272728	183870.75	657538.5	-0.00010227273
0	0.6005048	0.6005055	-1.300465e-10	0.030759076	0.030759076	0	41101.215	41101.26	-8.888889e-06	657758.8	182948.4	-0.00010227273	182947.88	657759.4	-0.00013636364
0	0.5999984	0.5999991	-3.0344183e-10	0.030405726	0.030405726	0	41066.56	41066.613	-2.4444444e-05	657981.56	182016.77	-0.00029545455	182016.23	657982.06	-0.00020454546
0	0.5994887	0.59948945	-3.0344183e-10	0.030052131	0.030052131	0	41031.668	41031.723	-1.7777778e-05	658204.7	181080.11	-0.00020454546	181079.56	658205.1	-0.00017045454
0	0.5989758	0.59897655	-3.901395e-10	0.029698394	0.02969839	0	40996.562	40996.617	-2.4444444e-05	658427.7	180138.97	-0.00030681817	180138.39	658428.25	-0.00025
0	0.59845966	0.5984605	-3.4679065e-10	0.029344838	0.029344838	0	40961.24	40961.3	-2.4444444e-05	658651.1	179193	-0.00027272728	179192.4	658651.6	-0.0002840909
0	0.5979399	0.5979407	-1.9506975e-10	0.028991459	0.028991459	0	40925.66	40925.715	-1.5555555e-05	658874.3	178242.12	-0.00020454546	178241.5	658874.94	-0.00013636364
0	0.59741616	0.597417	-1.9506975e-10	0.02863787	0.02863787	0	40889.812	40889.867	-1.5555555e-05	659099.25	177284.03	-0.00019318181	177283.39	659099.75	-0.000113636364
0	0.59689105	0.59689194	-1.0837208e-10	0.028284146	0.028284146	0	40853.88	40853.938	-4.4444446e-06	659320.44	176327.62	-0.00022727273	176326.98	659321.06	9.090909e-05
0	0.5963612	0.5963621	-3.901395e-10	0.02793057	0.02793057	0	40817.61	40817.67	-2.2222222e-05	659544.2	175362.25	-0.00027272728	175361.58	659544.7	-0.00023863636
0	0.59582764	0.59582853	-8.669766e-11	0.027577322	0.027577322	0	40781.09	40781.156	-4.4444446e-06	659769.1	174390.27	-6.818182e-05	174389.58	659769.6	-9.090909e-05
0	0.59529215	0.5952931	-2.1674416e-10	0.027223589	0.027223589	0	40744.44	40744.504	-1.1111111e-05	659990.9	173418.83	-0.00022727273	173418.14	659991.56	-5.6818182e-05
0	0.5947522	0.59475315	-2.8176741e-10	0.02687002	0.02687002	0	40707.484	40707.55	-2.1111111e-05	660214.25	172439.48	-0.00031818182	172438.77	660215	-7.9545454e-05
0	0.5942086	0.5942096	-2.60093e-10	0.026516603	0.026516603	0	40670.28	40670.344	-1.1111111e-05	660437.9	171454.95	-0.00017045454	171454.2	660438.5	-0.00013636364
0	0.5936616	0.59366256	-2.384186e-10	0.026163034	0.026163034	0	40632.84	40632.906	-2e-05	660661.25	170465.73	-0.00035227273	170464.97	660661.94	-0.00013636364
0	0.5931101	0.59311104	-4.3348833e-10	0.025809309	0.025809309	0	40595.086	40595.156	-3e-05	660886.8	169468.08	-0.00047727273	169467.28	660887.44	-0.000125
0	0.5925555	0.5925566	-2.60093e-10	0.025455792	0.025455793	0	40557.137	40557.203	-1.7777778e-05	661110.56	168468	-0.00035227273	168467.2	661111.2	-6.818182e-05
0	0.59199905	0.5920002	-3.0344183e-10	0.02510234	0.02510234	0	40519.05	40519.13	-2.4444444e-05	661332.5	167467.05	-0.00022727273	167466.22	661333.25	-0.0002840909
0	0.5914377	0.59143883	-2.1674416e-10	0.024748785	0.024748785	0	40480.625	40480.703	-1.5555555e-05	661555.94	166457.73	-0.00013636364	166456.88	661556.6	-0.00020454546
0	0.5908719	0.590873	-2.1674416e-10	0.024395075	0.024395075	0	40441.902	40441.98	-1.1111111e-05	661779.94	165441.58	-0.00022727273	165440.69	661780.7	-2.2727272e-05
0	0.5903028	0.59030396	-2.384186e-10	0.024041532	0.024041533	0	40402.95	40403.03	-1.3333333e-05	662003.8	164421.03	-0.00020454546	164420.12	662004.6	-6.818182e-05
0	0.5897301	0.5897313	-3.0344183e-10	0.023688225	0.023688227	0	40363.75	40363.83	-2e-05	662227.44	163395.53	-0.00038636362	163394.58	662228.1	-0.000113636364
0	0.58915174	0.58915293	-3.0344183e-10	0.023334505	0.023334505	0	40324.164	40324.246	-1.3333333e-05	662453.8	162359.55	-0.00027272728	162358.6	662454.6	-0.00013636364
0	0.5885706	0.58857185	-2.384186e-10	0.022980977	0.022980979	0	40284.387	40284.47	-1.5555555e-05	662678	161321.77	-0.00018181818	161320.77	662678.75	-0.00015909091
0	0.5879877	0.58798885	-2.1674416e-10	0.022627465	0.022627465	0	40244.484	40244.57	-1.6666667e-05	662899.8	160283.86	-0.00029545455	160282.83	662900.6	-0.00010227273
0	0.5873994	0.5874007	-1.7339533e-10	0.02227394	0.022273941	0	40204.223	40204.316	-1.1111111e-05	663123.94	159236.27	-0.00017045454	159235.23	663124.7	-4.5454544e-05
0	0.58680636	0.5868076	-3.0344183e-10	0.02192023	0.02192023	0	40163.633	40163.72	-1.5555555e-05	663348.7	158181.28	-0.00022727273	158180.22	663349.44	-0.00015909091
0	0.5862094	0.58621085	-2.1674416e-10	0.02156677	0.02156677	0	40122.78	40122.875	-1.3333333e-05	663572.9	157121.48	-0.00022727273	157120.38	663573.75	-0.00010227273
0	0.58560747	0.5856089	-2.384186e-10	0.021213198	0.021213202	0	40081.582	40081.67	-1.1111111e-05	663799	156052.64	-0.00022727273	156051.53	663799.75	-6.818182e-05
0	0.58500373	0.58500504	-3.0344183e-10	0.020859696	0.020859698	0	40040.254	40040.348	-2.1111111e-05	664021.8	154984.53	-0.00030681817	154983.36	664022.56	-0.00014772727
0	0.584395	0.5843964	-3.901395e-10	0.020506004	0.020506004	0	39998.59	39998.69	-2.3333334e-05	664245.75	153908.45	-0.0003409091	153907.27	664246.56	-0.00019318181
0	0.5837808	0.58378226	-2.8176741e-10	0.02015252	0.02015252	0	39956.555	39956.652	-1.7777778e-05	664471.06	152823.27	-0.000375	152822.05	664471.94	-4.5454544e-05
0	0.5831637	0.5831652	-1.9506975e-10	0.019798905	0.019798905	0	39914.312	39914.418	-1.7777778e-05	664695.1	151735.36	-0.00017045454	151734.08	664695.94	-0.000113636364
0	0.58254164	0.5825432	-3.6846506e-10	0.019445423	0.019445421	0	39871.74	39871.844	-2.1111111e-05	664919.94	150639.66	-0.0003409091	150638.36	664920.75	-0.00014772727
0	0.5819151	0.5819167	-2.60093e-10	0.019091953	0.019091953	0	39828.85	39828.96	-1.5555555e-05	665144.8	149537.62	-0.00030681817	149536.3	665145.75	-4.5454544e-05
0	0.58128256	0.58128417	-2.384186e-10	0.018738292	0.018738292	0	39785.562	39785.676	-1.5555555e-05	665371.75	148425.25	-0.00027272728	148423.9	665372.6	-0.000113636364
0	0.5806472	0.5806488	-2.8176741e-10	0.01838484	0.01838484	0	39742.074	39742.188	-1.5555555e-05	665596.9	147310.52	-0.00027272728	147309.16	665597.75	-5.6818182e-05
0	0.58000726	0.5800089	-3.4679065e-10	0.018031146	0.018031146	0	39698.273	39698.39	-2.2222222e-05	665821.94	146189.64	-0.00029545455	146188.22	665822.9	-0.00018181818
0	0.5793641	0.5793658	-3.4679065e-10	0.017677752	0.017677754	0	39654.258	39654.37	-2.4444444e-05	666045.25	145066	-0.00027272728	145064.52	666046.25	-0.00025
0	0.5787151	0.5787168	-3.901395e-10	0.017324068	0.017324068	0	39609.832	39609.95	-2.7777778e-05	666270.4	143932.3	-0.0004318182	143930.8	666271.3	-0.00014772727
0	0.5780594	0.57806116	-4.3348833e-10	0.016970608	0.016970608	0	39564.953	39565.07	-3.111111e-05	666498.1	142786.53	-0.00040909092	142785.02	666499.06	-0.00015909091
0	0.57740223	0.5774041	-3.2511624e-10	0.016616944	0.016616944	0	39519.973	39520.1	-2.2222222e-05	666721.6	141643.06	-0.00032954547	141641.48	666722.7	-0.00010227273
0	0.576739	0.57674086	-4.3348833e-10	0.016263481	0.016263481	0	39474.582	39474.707	-2.6666667e-05	666947.6	140488.55	-0.00036363635	140486.94	666948.6	-0.00020454546
0	0.5760701	0.576072	-3.0344183e-10	0.015909808	0.015909808	0	39428.797	39428.926	-1.7777778e-05	667173.3	139326.52	-0.00025	139324.86	667174.25	-0.00015909091
0	0.5753966	0.5753985	-3.901395e-10	0.015556335	0.015556336	0	39382.7	39382.836	-2.888889e-05	667399.4	138157.55	-0.0003409091	138155.84	667400.44	-0.00023863636
0	0.57471806	0.57472	-2.384186e-10	0.015202863	0.015202863	0	39336.266	39336.395	-1.6666667e-05	667625.56	136981.47	-0.00017045454	136979.72	667626.6	-0.00013636364
0	0.5740347	0.5740368	-2.1674416e-10	0.014849197	0.014849197	0	39289.49	39289.625	-1.7777778e-05	667851.75	135798.58	-0.00025	135796.8	667852.8	-9.090909e-05
0	0.5733454	0.57334745	-2.8176741e-10	0.0144957295	0.0144957295	0	39242.31	39242.453	-1.5555555e-05	668078.56	134606.73	-0.00020454546	134604.89	668079.75	-0.00017045454
0	0.57265115	0.5726533	-2.1674416e-10	0.014142074	0.014142073	0	39194.79	39194.934	-1.5555555e-05	668305.75	133407.73	-0.00023863636	133405.84	668306.75	-9.090909e-05
0	0.57195187	0.5719541	-3.0344183e-10	0.013788661	0.013788661	0	39146.93	39147.08	-1.7777778e-05	668532.7	132201.9	-0.00030681817	132199.97	668533.75	-9.090909e-05
0	0.57124525	0.5712474	-2.8176741e-10	0.01343501	0.01343501	0	39098.56	39098.71	-2.4444444e-05	668762.2	130983.125	-0.0002840909	130981.14	668763.3	-0.00013636364
0	0.5705368	0.57053906	-3.0344183e-10	0.013081517	0.013081517	0	39050.07	39050.234	-1.8888888e-05	668987.3	129766.234	-0.00040909092	129764.21	668988.44	3.409091e-05
0	0.56981874	0.5698211	-2.384186e-10	0.012727897	0.012727897	0	39000.926	39001.082	-1.4444445e-05	669217.6	128530.66	-0.00018181818	128528.57	669218.75	-0.000113636364
0	0.56909704	0.56909937	-3.2511624e-10	0.012374393	0.012374393	0	38951.53	38951.695	-2e-05	669445.9	127292.08	-0.0002159091	127289.945	669447.1	-0.00018181818
0	0.5683695	0.56837195	-3.4679065e-10	0.012020767	0.012020766	0	38901.734	38901.902	-2.3333334e-05	669674.4	126045.19	-0.00032954547	126043.01	669675.5	-0.00019318181
0	0.5676378	0.56764024	-2.60093e-10	0.0116672525	0.0116672525	0	38851.656	38851.824	-1.1111111e-05	669901.25	124793.914	-0.00019318181	124791.66	669902.44	-6.818182e-05
0	0.5668985	0.566901	-2.8176741e-10	0.011313733	0.011313733	0	38801.055	38801.227	-1.7777778e-05	670130.4	123529.81	-0.00027272728	123527.49	670131.7	-0.00013636364
0	0.56615335	0.56615597	-3.2511624e-10	0.010960115	0.010960115	0	38750.055	38750.227	-2.5555555e-05	670359.75	122257.35	-0.00036363635	122254.984	670360.94	-0.00023863636
0	0.56540173	0.5654044	-3.0344183e-10	0.010606601	0.010606599	0	38698.61	38698.793	-2.2222222e-05	670589.9	120975.05	-0.00038636362	120972.62	670591.1	-9.090909e-05
0	0.5646439	0.5646466	-1.5172091e-10	0.010253002	0.010253002	0	38646.74	38646.926	-1.1111111e-05	670820.2	119683.77	-0.00023863636	119681.266	670821.5	-4.5454544e-05
0	0.5638796	0.56388235	-2.384186e-10	0.009899452	0.009899451	0	38594.42	38594.613	-2.1111111e-05	671051.2	118382.76	-0.00027272728	118380.195	671052.5	-0.000113636364
0	0.5631087	0.56311154	-5.418604e-10	0.009545976	0.009545976	0	38541.656	38541.86	-3.7777776e-05	671282.75	117072.03	-0.00040909092	117069.41	671284.2	-0.0003409091
0	0.56232893	0.56233174	-2.1674416e-10	0.009192418	0.00919242	0	38488.28	38488.484	-1.3333333e-05	671517.44	115745.67	-0.00015909091	115742.96	671518.8	-0.00014772727
0	0.5615463	0.5615494	-2.384186e-10	0.008838877	0.008838876	0	38434.727	38434.934	-1.5555555e-05	671747.94	114419.734	-0.00022727273	114416.945	671749.4	-6.818182e-05
0	0.5607551	0.5607582	-4.1181392e-10	0.008485304	0.008485304	0	38380.57	38380.777	-2.4444444e-05	671981.25	113078.75	-0.0003409091	113075.9	671982.6	-0.00018181818
0	0.55995667	0.55995977	-2.384186e-10	0.008131741	0.008131741	0	38325.926	38326.137	-1.7777778e-05	672215.25	111726.95	-0.00026136363	111724.01	672216.75	-5.6818182e-05
0	0.5591486	0.55915177	-3.901395e-10	0.0077781677	0.0077781677	0	38270.617	38270.836	-3.111111e-05	672452.44	110358.63	-0.0004318182	110355.62	672453.94	-0.00020454546
0	0.55833817	0.55834144	-3.0344183e-10	0.0074245986	0.0074245986	0	38215.137	38215.367	-2e-05	672685.3	108991.17	-0.00029545455	108988.07	672686.8	-0.00013636364
0	0.5575148	0.5575182	-3.2511624e-10	0.0070710364	0.007071037	0	38158.793	38159.023	-2e-05	672924.56	107599.375	-0.00040909092	107596.17	672926.06	-0.00013636364
0	0.556688	0.55669147	-4.1181392e-10	0.006717505	0.006717505	0	38102.203	38102.438	-2.7777778e-05	673159.5	106206.95	-0.00047727273	106203.68	673161.06	-0.00013636364