//mumax 3.10 [windows_amd64 go1.11.6(gc) CUDA-11.0]
//GPU info: NVIDIA GeForce RTX 3090(24575MB), CUDA Driver 12.0, cc=8.6, using cc=80 PTX
//(c) Arne Vansteenkiste, Dynamat LAB, Ghent University, Belgium
//This is free software without any warranty. See license.txt
//********************************************************************//
//  If you use mumax in any work or publication,                      //
//  we kindly ask you to cite the references in references.bib        //
//********************************************************************//
//output directory: r1;p0.8;a3.2e-07;l1.8000000000000002e-07;s2.out/
randSeed(2)
ThermSeed(2)
resolution := 2e-09
zResolution := 5e-09
a := 3.2e-07
gridSize := 320
gridDepth := 5
SetCellsize(resolution, resolution, zResolution)
SetGridsize(gridSize, gridSize, gridDepth)
SetPBC(16, 16, 0)
//resizing...
Msat = 700e3
Aex = 13e-12
alpha = 0.2
Bmax := 0.1
Bstep := Bmax / 500.0
TableAdd(B_ext)
TableAdd(m_full)
islandWidth := 8e-08
islandLength := 1.8000000000000002e-07
ellipseConstant := 7.200000000000001e-08
hIsland := rect(islandLength-2*ellipseConstant, islandWidth)
hIsland = hIsland.add(ellipse(ellipseConstant*2, islandWidth).transl(islandLength/2-ellipseConstant, 0, 0))
hIsland = hIsland.add(ellipse(ellipseConstant*2, islandWidth).transl(-islandLength/2+ellipseConstant, 0, 0))
hIsland = hIsland.sub(rect(1e-08, -3.4596807705436646e-09).transl(-8.020198508040267e-08, -2.0145405474849598e-08, 0))
hIsland = hIsland.add(rect(1e-08, 4.5119330269814207e-10).transl(-1.7281783688192845e-08, -4e-08, 0))
hIsland = hIsland.sub(rect(1e-08, -3.330077724891995e-09).transl(-1.1254532663004134e-08, -4e-08, 0))
hIsland = hIsland.sub(rect(1e-08, -2.218975763628356e-09).transl(7.538447727880862e-08, -2.4158822273729994e-08, 0))
hIsland = hIsland.sub(rect(1e-08, -6.9172864037144184e-09).transl(-4.394811586298056e-08, -3.7312061082313444e-08, 0))
hIsland = hIsland.sub(rect(1e-08, -5.8686128623735675e-09).transl(-5.77704006166022e-08, -3.334405029014222e-08, 0))
hIsland = hIsland.sub(rect(1e-08, -1.7403163425329837e-09).transl(-1.818490066701262e-08, -3.9999868100644175e-08, 0))
hIsland = hIsland.add(rect(1e-08, 5.850544012254278e-09).transl(-7.119773915176684e-08, -2.695446863442822e-08, 0))
hIsland = hIsland.add(rect(1e-08, 1.3136354255586683e-09).transl(1.1845905899525192e-08, -4e-08, 0))
hIsland = hIsland.sub(rect(1e-08, -3.2612365660886848e-09).transl(-8.718955767918914e-08, -1.1066648652347006e-08, 0))
hIsland = hIsland.sub(rect(1e-08, -4.434879860148085e-09).transl(-1.7813852823942534e-08, -4e-08, 0))
hIsland = hIsland.sub(rect(1e-08, -5.564467313169811e-09).transl(4.094535216945964e-08, -3.7914421235179144e-08, 0))
hIsland = hIsland.sub(rect(1e-08, -2.0413257471729944e-09).transl(6.9208150994740705e-09, -4e-08, 0))
hIsland = hIsland.add(rect(1e-08, 1.9449216909912682e-09).transl(-7.377165185333642e-08, -2.5297750653621152e-08, 0))
hIsland = hIsland.add(rect(1e-08, 3.4419602482034545e-10).transl(6.848746845973034e-08, -2.851800129205666e-08, 0))
hIsland = hIsland.sub(rect(1e-08, -1.7207567066099967e-09).transl(5.2058450400464995e-08, -3.5241766205507673e-08, 0))
hIsland = hIsland.sub(rect(1e-08, -8.272977262515206e-09).transl(7.74412987863013e-08, -2.2571778502199668e-08, 0))
hIsland = hIsland.add(rect(1e-08, 3.1747015843893924e-09).transl(4.440119828563116e-08, -3.721383292309488e-08, 0))
hIsland = hIsland.add(rect(1e-08, 2.1069385590498147e-09).transl(-4.550269223689313e-08, -3.696679323911612e-08, 0))
hIsland = hIsland.sub(rect(1e-08, -8.984565294936311e-10).transl(-6.571173422803931e-08, -2.995670959362584e-08, 0))
hIsland = hIsland.sub(rect(1e-08, -2.67275879560971e-09).transl(3.832305022053502e-08, -3.8373463815850965e-08, 0))
hIsland = hIsland.sub(rect(1e-08, -5.16873154872871e-10).transl(4.627144093814276e-08, -3.678736710870275e-08, 0))
hIsland = hIsland.sub(rect(1e-08, -2.9398325195207752e-09).transl(-8.142494945204183e-08, -1.8931942657308335e-08, 0))
hIsland = hIsland.sub(rect(1e-08, -3.1327113869954288e-09).transl(1.611062106417465e-08, -4e-08, 0))
hIsland = hIsland.sub(rect(1e-08, -1.9603795622361764e-09).transl(-4.498574467885375e-08, -3.7084195096635774e-08, 0))
hIsland = hIsland.sub(rect(1e-08, -3.348731190729296e-09).transl(4.600963627224325e-08, -3.68491263104655e-08, 0))
hIsland = hIsland.sub(rect(1e-08, -2.952907118727182e-09).transl(8.896993762563888e-08, -6.74188935247586e-09, 0))
hIsland = hIsland.add(rect(1e-08, 4.582225323864069e-09).transl(-3.70889603392648e-08, -3.856856806176731e-08, 0))
hIsland = hIsland.sub(rect(1e-08, -3.1145016076754664e-09).transl(8.32686435318635e-09, -4e-08, 0))
hIsland = hIsland.sub(rect(1e-08, -3.4398066160540997e-09).transl(5.6029174625011875e-08, -3.396522312447205e-08, 0))
hIsland = hIsland.sub(rect(1e-08, -1.9652540333791064e-09).transl(6.314289854551622e-08, -3.1161262706933156e-08, 0))
hIsland = hIsland.sub(rect(1e-08, -8.506369161177127e-09).transl(3.7176066632791543e-08, -3.855522921929913e-08, 0))
hIsland = hIsland.sub(rect(1e-08, -4.865024917614014e-09).transl(1.13995633890169e-08, -4e-08, 0))
hIsland = hIsland.sub(rect(1e-08, -2.8408089510391518e-09).transl(2.3685076800014877e-08, -3.987511330444808e-08, 0))
hIsland = hIsland.add(rect(1e-08, 2.2867892968219798e-10).transl(-5.829702171864266e-09, -4e-08, 0))
hIsland = hIsland.sub(rect(1e-08, -3.275385089221088e-09).transl(6.831238567110603e-08, -2.8613343214343487e-08, 0))
hIsland = hIsland.add(rect(1e-08, 4.201462155487434e-09).transl(-1.954414723063648e-08, -3.999079990389965e-08, 0))
hIsland = hIsland.sub(rect(1e-08, -9.211084221761597e-10).transl(-1.2889909185283394e-08, -4e-08, 0))
hIsland = hIsland.add(rect(1e-08, 5.340920871651622e-09).transl(1.3944192080497211e-08, -4e-08, 0))
hIsland = hIsland.sub(rect(1e-08, -4.210631132755688e-09).transl(6.055128300012188e-08, -3.2267154089540174e-08, 0))
hIsland = hIsland.sub(rect(1e-08, -5.5953684531961306e-09).transl(-6.180159827372342e-08, -3.174658525754564e-08, 0))
hIsland = hIsland.add(rect(1e-08, 1.1500924784551014e-09).transl(-6.976041761562479e-08, -2.780476005220205e-08, 0))
hIsland = hIsland.sub(rect(1e-08, -1.086158800455706e-09).transl(-4.1467265912209994e-08, -3.78156975970935e-08, 0))
hIsland = hIsland.add(rect(1e-08, 2.671569691905433e-09).transl(2.828370926645787e-08, -3.9589893505991286e-08, 0))
hIsland = hIsland.sub(rect(1e-08, -4.585465708349473e-09).transl(7.266715387156011e-08, -2.6031215162460475e-08, 0))
hIsland = hIsland.sub(rect(1e-08, -2.326787578439721e-09).transl(2.0398163139004543e-08, -3.997780562332549e-08, 0))
hIsland = hIsland.sub(rect(1e-08, -6.786764217394126e-09).transl(5.6269405429410605e-08, -3.3881841744871335e-08, 0))
hIsland = hIsland.add(rect(1e-08, 2.456024592564043e-09).transl(4.720074856838445e-08, -3.656263137803132e-08, 0))
hIsland = hIsland.add(rect(1e-08, 2.1745363386857573e-09).transl(-3.735309598039454e-08, -3.85279186730326e-08, 0))
hIsland = hIsland.add(rect(1e-08, 2.54016679316685e-10).transl(-6.833840555425863e-09, -4e-08, 0))
hIsland = hIsland.add(rect(1e-08, 5.513480755856535e-10).transl(-5.101983114993373e-08, -3.5545531359635736e-08, 0))
hIsland = hIsland.add(rect(1e-08, 8.335752651178225e-09).transl(-1.7373289054846226e-08, -4e-08, 0))
hIsland = hIsland.add(rect(1e-08, 1.7519815874897455e-09).transl(-3.35642970693316e-08, -3.905422258171607e-08, 0))
hIsland = hIsland.sub(rect(1e-08, -1.1829487585674663e-09).transl(8.861804271442891e-08, -7.799415204080815e-09, 0))
hIsland = hIsland.sub(rect(1e-08, -4.807977274398095e-09).transl(3.1942648990830293e-08, -3.924284372568518e-08, 0))
hIsland = hIsland.sub(rect(1e-08, -3.759855886013506e-09).transl(8.334777270835958e-08, -1.6792750879954937e-08, 0))
hIsland = hIsland.add(rect(1e-08, 4.394779494567867e-09).transl(3.9954969162697436e-08, -3.8094989014081973e-08, 0))
hIsland = hIsland.add(rect(1e-08, 4.6210477976688324e-11).transl(4.3070701801970665e-08, -3.749674846461655e-08, 0))
hIsland = hIsland.sub(rect(1e-08, -5.049620470543596e-09).transl(7.163037348116068e-08, -2.6688550281592517e-08, 0))
hIsland = hIsland.add(rect(1e-08, 4.517674959013532e-09).transl(1.897096355387019e-08, -3.999636260381847e-08, 0))
hIsland = hIsland.sub(rect(1e-08, -1.293833528292888e-09).transl(5.492474137527036e-08, -3.4339281552202266e-08, 0))
hIsland = hIsland.sub(rect(1e-08, -9.809973493319255e-10).transl(6.298518891029395e-08, -3.1231576192248324e-08, 0))
hIsland = hIsland.sub(rect(1e-08, -2.431165963765527e-09).transl(7.990441543403392e-08, -2.0426345776497378e-08, 0))
hIsland = hIsland.add(rect(1e-08, 1.9235457864167414e-09).transl(7.437955507638465e-08, -2.4878381768937908e-08, 0))
hIsland = hIsland.sub(rect(1e-08, -5.058433098944363e-10).transl(7.692849103810854e-08, -2.298303818984052e-08, 0))
hIsland = hIsland.sub(rect(1e-08, -2.758449019081237e-09).transl(-5.7113366789068267e-08, -3.35830669892196e-08, 0))
hIsland = hIsland.sub(rect(1e-08, -1.1745994512624214e-09).transl(3.8470178395132966e-08, -3.8349319518772575e-08, 0))
hIsland = hIsland.sub(rect(1e-08, -1.1479945622124392e-09).transl(7.289121450622349e-08, -2.5885279731923436e-08, 0))
hIsland = hIsland.add(rect(1e-08, 5.214441014328048e-09).transl(7.292877141294428e-09, -4e-08, 0))
hIsland = hIsland.sub(rect(1e-08, -2.2726109495325718e-09).transl(-3.409389797757853e-08, -3.898791537956636e-08, 0))
hIsland = hIsland.sub(rect(1e-08, -3.3671225356857576e-09).transl(3.4937434232442493e-08, -3.8877471822577855e-08, 0))
hIsland = hIsland.sub(rect(1e-08, -6.7566613252602034e-09).transl(-3.032236194322358e-08, -3.940984161466083e-08, 0))
hIsland = hIsland.add(rect(1e-08, 3.4126189035214595e-10).transl(-2.1312522765876008e-08, -3.995764421421591e-08, 0))
hIsland = hIsland.add(rect(1e-08, 3.922107965496656e-09).transl(-4.025948533631298e-08, -3.8040407822920284e-08, 0))
hIsland = hIsland.add(rect(1e-08, 3.472311900320258e-09).transl(-4.165458823058227e-08, -3.777965867720255e-08, 0))
hIsland = hIsland.add(rect(1e-08, 2.521450174210035e-09).transl(2.1232887677206947e-08, -3.995965726871153e-08, 0))
hIsland = hIsland.sub(rect(1e-08, -7.0971768332597205e-09).transl(-5.488259642575814e-08, -3.435325779695111e-08, 0))
hIsland = hIsland.sub(rect(1e-08, -8.328625308043849e-10).transl(7.971287824505968e-08, -2.060445129534477e-08, 0))
hIsland = hIsland.add(rect(1e-08, 4.952648334428869e-09).transl(-4.434904110022862e-08, -3.722524047919763e-08, 0))
hIsland = hIsland.add(rect(1e-08, 1.2722881356671084e-10).transl(-5.060982435553933e-08, -3.566216376690157e-08, 0))
hIsland = hIsland.sub(rect(1e-08, -2.0331595529717124e-09).transl(-6.120359975561957e-08, -3.199850000417761e-08, 0))
hIsland = hIsland.add(rect(1e-08, 3.1482601076146786e-09).transl(-8.903317081376365e-08, -6.533121787549206e-09, 0))
hIsland = hIsland.add(rect(1e-08, 1.2689764619369163e-08).transl(7.558715507282787e-08, -2.4009511815073866e-08, 0))
hIsland = hIsland.sub(rect(1e-08, -5.226788329044144e-09).transl(8.947060586059415e-08, -4.84170723893267e-09, 0))
hIsland = hIsland.sub(rect(1e-08, -1.638448371499034e-10).transl(4.284515395036346e-08, -3.7543054811277335e-08, 0))
hIsland = hIsland.sub(rect(1e-08, -7.369367552526076e-10).transl(-5.198907894778539e-09, -4e-08, 0))
hIsland = hIsland.add(rect(1e-08, 3.012302792969454e-09).transl(-8.267547284646227e-08, -1.7577721696133003e-08, 0))
hIsland = hIsland.sub(rect(1e-08, -6.510955603756719e-09).transl(3.2066364954586346e-09, -4e-08, 0))
hIsland = hIsland.sub(rect(1e-08, -1.6435443912722294e-09).transl(7.265014292022492e-08, -2.6042237053303028e-08, 0))
hIsland = hIsland.add(rect(1e-08, 2.8112960791754584e-09).transl(-6.413914392674066e-08, -3.070759847709868e-08, 0))
hIsland = hIsland.sub(rect(1e-08, -4.647218033534593e-09).transl(-3.487923793193892e-08, -3.8885282875818274e-08, 0))
hIsland = hIsland.sub(rect(1e-08, -3.2951934444874433e-09).transl(6.01999832442737e-08, -3.240923419594482e-08, 0))
hIsland = hIsland.add(rect(1e-08, 1.1820748989154094e-09).transl(3.894934327524811e-08, -3.826937101819598e-08, 0))
hIsland = hIsland.add(rect(1e-08, 8.972972641402002e-10).transl(-5.01886189284194e-08, -3.5780075890137694e-08, 0))
hIsland = hIsland.sub(rect(1e-08, -3.4253059574802526e-09).transl(3.1351076184407475e-08, -3.9306286858992463e-08, 0))
hIsland = hIsland.add(rect(1e-08, 5.813747999300966e-09).transl(2.8653841137234933e-08, -3.955967390008463e-08, 0))
hIsland = hIsland.sub(rect(1e-08, -3.44206598739351e-09).transl(6.283887990003927e-08, -3.129644622130903e-08, 0))
hIsland = hIsland.add(rect(1e-08, 9.060719383253261e-10).transl(6.943040908870956e-08, -2.799312647648329e-08, 0))
hIsland = hIsland.add(rect(1e-08, 9.532312040024134e-09).transl(4.980637959642373e-08, -3.588542388230084e-08, 0))
hIsland = hIsland.sub(rect(1e-08, -6.525550379066679e-09).transl(2.4097703215022864e-08, -3.9856292838879134e-08, 0))
hIsland = hIsland.sub(rect(1e-08, -5.672381605987895e-09).transl(-1.7501703035083974e-08, 4e-08, 0))
hIsland = hIsland.sub(rect(1e-08, -4.658101962981576e-09).transl(3.399258147743284e-09, 4e-08, 0))
hIsland = hIsland.sub(rect(1e-08, -5.436543346590697e-09).transl(2.3513630869643965e-08, 3.98825431142147e-08, 0))
hIsland = hIsland.sub(rect(1e-08, -2.269607799520348e-09).transl(7.790661652314229e-09, 4e-08, 0))
hIsland = hIsland.sub(rect(1e-08, -3.428580203306724e-09).transl(-8.083962550528376e-08, 1.952508252583445e-08, 0))
hIsland = hIsland.sub(rect(1e-08, -3.879623660629885e-09).transl(9.970454984019584e-09, 4e-08, 0))
hIsland = hIsland.sub(rect(1e-08, -4.961802531468615e-10).transl(-2.1827841264239744e-08, 3.994343079866619e-08, 0))
hIsland = hIsland.add(rect(1e-08, 9.25228370073593e-10).transl(1.1852478083381135e-08, 4e-08, 0))
hIsland = hIsland.sub(rect(1e-08, -2.423464194635709e-10).transl(2.938569751247609e-08, 3.949670205076823e-08, 0))
hIsland = hIsland.sub(rect(1e-08, -1.0640744281271499e-09).transl(-7.906197167406804e-08, 2.1194539939171164e-08, 0))
hIsland = hIsland.add(rect(1e-08, 5.4780269984766715e-09).transl(-3.8734354482939344e-08, 3.830549127452431e-08, 0))
hIsland = hIsland.sub(rect(1e-08, -3.4374522457247508e-09).transl(-2.653938544542059e-08, 3.971767221887467e-08, 0))
hIsland = hIsland.add(rect(1e-08, 2.173487722018972e-09).transl(-8.922986480271231e-08, 5.834824153076369e-09, 0))
hIsland = hIsland.add(rect(1e-08, 2.6725257609228898e-09).transl(-5.224262908993118e-08, 3.518663797053603e-08, 0))
hIsland = hIsland.add(rect(1e-08, 2.4388420341104263e-09).transl(3.9831919928789235e-08, 3.8116809066370456e-08, 0))
hIsland = hIsland.add(rect(1e-08, 2.385522688792978e-09).transl(-8.186777549544341e-08, 1.846674733622941e-08, 0))
hIsland = hIsland.add(rect(1e-08, 8.187488406582114e-09).transl(5.177221720244896e-08, 3.532668239827662e-08, 0))
hIsland = hIsland.sub(rect(1e-08, -6.9122321292048975e-09).transl(1.6917532132405943e-08, 4e-08, 0))
hIsland = hIsland.add(rect(1e-08, 4.730658602462332e-09).transl(2.892539363130166e-08, 3.953680803386278e-08, 0))
hIsland = hIsland.sub(rect(1e-08, -2.590858899780773e-09).transl(-5.581426211468155e-08, 3.4039200262989094e-08, 0))
hIsland = hIsland.sub(rect(1e-08, -6.921814338106546e-09).transl(-2.3579539218223373e-08, 3.987971397931159e-08, 0))
hIsland = hIsland.sub(rect(1e-08, -2.587652882072978e-09).transl(-6.590842465814085e-08, 2.985966583983205e-08, 0))
hIsland = hIsland.add(rect(1e-08, 7.270455806839214e-09).transl(1.9929731691917455e-08, 3.998563065821197e-08, 0))
hIsland = hIsland.add(rect(1e-08, 2.7466871115727354e-10).transl(-6.826339793758089e-08, 2.863990367729202e-08, 0))
hIsland = hIsland.sub(rect(1e-08, -2.3877706530239363e-09).transl(5.471408871335561e-09, 4e-08, 0))
hIsland = hIsland.sub(rect(1e-08, -1.4461351715127056e-10).transl(8.957829081268018e-08, 4.322932115916539e-09, 0))
hIsland = hIsland.add(rect(1e-08, 5.050595063231834e-09).transl(7.222074965026159e-08, 2.6317800783409e-08, 0))
hIsland = hIsland.sub(rect(1e-08, -2.0906439133242598e-09).transl(-7.609699869114633e-08, 2.362737180648268e-08, 0))
hIsland = hIsland.sub(rect(1e-08, -4.7871036711511944e-09).transl(2.6579585957264155e-08, 3.9714998196260645e-08, 0))
hIsland = hIsland.add(rect(1e-08, 4.126938841471379e-10).transl(-1.57976515066781e-08, 4e-08, 0))
hIsland = hIsland.sub(rect(1e-08, -8.09227086731329e-11).transl(2.589586822503039e-08, 3.9758744922735667e-08, 0))
hIsland = hIsland.add(rect(1e-08, 2.9574211498006597e-09).transl(1.8724695697558852e-08, 3.9997973776403753e-08, 0))
hIsland = hIsland.add(rect(1e-08, 2.743267554853084e-09).transl(4.4226220559171625e-08, 3.725200034061343e-08, 0))
hIsland = hIsland.sub(rect(1e-08, -2.528317135821821e-09).transl(8.891148831008626e-08, 6.929112533997163e-09, 0))
hIsland = hIsland.sub(rect(1e-08, -6.785420189337822e-09).transl(-7.004312669324029e-08, 2.764140392795631e-08, 0))
hIsland = hIsland.add(rect(1e-08, 2.722436634415941e-10).transl(7.842723020751839e-08, 2.1748774972224585e-08, 0))
hIsland = hIsland.sub(rect(1e-08, -3.249402367336499e-09).transl(-6.7663455191999e-08, 2.8961134121909935e-08, 0))
hIsland = hIsland.add(rect(1e-08, 3.2929915923477674e-09).transl(-5.834745152864551e-08, 3.312939071829286e-08, 0))
hIsland = hIsland.sub(rect(1e-08, -2.2327685236264226e-09).transl(-2.9327486845350738e-08, 3.950186759832605e-08, 0))
hIsland = hIsland.add(rect(1e-08, 2.443884872103353e-09).transl(6.087732266956464e-09, 4e-08, 0))
hIsland = hIsland.add(rect(1e-08, 8.980402254597955e-10).transl(5.4140165623678614e-08, 3.459594115873071e-08, 0))
hIsland = hIsland.add(rect(1e-08, 2.5393987848123702e-09).transl(7.202169647423804e-08, 2.6443839337412216e-08, 0))
hIsland = hIsland.add(rect(1e-08, 4.9491750083054034e-09).transl(-3.9488873796556176e-08, 3.817692852080452e-08, 0))
hIsland = hIsland.add(rect(1e-08, 2.3213573434529493e-09).transl(2.7044906873653014e-08, 3.968311851345306e-08, 0))
hIsland = hIsland.sub(rect(1e-08, -8.695926273027632e-09).transl(-7.067520153876157e-08, 2.726936475179267e-08, 0))
hIsland = hIsland.sub(rect(1e-08, -2.658530988521013e-09).transl(4.586657703733856e-08, 3.688258766556447e-08, 0))
hIsland = hIsland.add(rect(1e-08, 5.728452894045681e-09).transl(-3.311445170444466e-08, 3.9108717373377816e-08, 0))
hIsland = hIsland.add(rect(1e-08, 3.4431564750025416e-09).transl(-6.23477796557064e-08, 3.1511679392741025e-08, 0))
hIsland = hIsland.sub(rect(1e-08, -3.2479691081056744e-09).transl(2.626013787518572e-08, 3.973589555762314e-08, 0))
hIsland = hIsland.add(rect(1e-08, 2.8556665315332893e-09).transl(3.339693164049151e-08, 3.907469301972585e-08, 0))
hIsland = hIsland.add(rect(1e-08, 1.952593888862784e-09).transl(5.517401245722103e-08, 3.4256173625043537e-08, 0))
hIsland = hIsland.sub(rect(1e-08, -1.54747588262355e-09).transl(-2.4411839313566494e-08, 3.984107439355029e-08, 0))
hIsland = hIsland.sub(rect(1e-08, -7.35230731380949e-09).transl(1.4593460893822046e-08, 4e-08, 0))
hIsland = hIsland.sub(rect(1e-08, -3.751616751792211e-09).transl(7.592133321647399e-08, 2.376011258667643e-08, 0))
hIsland = hIsland.sub(rect(1e-08, -3.0116127703442062e-09).transl(5.970248443831715e-08, 3.260738570274954e-08, 0))
hIsland = hIsland.add(rect(1e-08, 5.5290819420831916e-09).transl(-8.949702310153796e-08, 4.7197930882322735e-09, 0))
hIsland = hIsland.add(rect(1e-08, 1.525496233822149e-11).transl(-5.110207577395183e-10, 4e-08, 0))
hIsland = hIsland.sub(rect(1e-08, -5.4821208414489e-09).transl(-1.2010859996595043e-08, 4e-08, 0))
hIsland = hIsland.sub(rect(1e-08, -2.712625553891586e-09).transl(-7.772457131638847e-08, 2.2339797164889484e-08, 0))
hIsland = hIsland.sub(rect(1e-08, -5.973550729984647e-10).transl(-5.930276846654639e-08, 3.2764033450761396e-08, 0))
hIsland = hIsland.add(rect(1e-08, 5.4364798823195634e-09).transl(-2.1118311973487443e-08, 3.996246746248441e-08, 0))
hIsland = hIsland.add(rect(1e-08, 1.8738809434885966e-10).transl(5.989324269724419e-09, 4e-08, 0))
hIsland = hIsland.add(rect(1e-08, 6.545171008934188e-10).transl(4.421443979137037e-08, 3.725455952882292e-08, 0))
hIsland = hIsland.sub(rect(1e-08, -2.762819688921842e-09).transl(1.5173778762423927e-10, 4e-08, 0))
hIsland = hIsland.sub(rect(1e-08, -2.1979556841812796e-09).transl(6.638462633754024e-08, 2.9621730085604136e-08, 0))
hIsland = hIsland.sub(rect(1e-08, -5.322797634941774e-10).transl(-1.7690396111896747e-08, 4e-08, 0))
hIsland = hIsland.sub(rect(1e-08, -5.169360719240814e-09).transl(2.691816356332761e-09, 4e-08, 0))
hIsland = hIsland.add(rect(1e-08, 4.872326758672016e-10).transl(-5.5449343997358613e-08, 3.4163489618175775e-08, 0))
hIsland = hIsland.add(rect(1e-08, 7.377048639559634e-10).transl(-4.712912910347022e-08, 3.6580259457772465e-08, 0))
hIsland = hIsland.sub(rect(1e-08, -5.082107008651839e-09).transl(-4.614068243062711e-08, 3.681829755260835e-08, 0))
hIsland = hIsland.add(rect(1e-08, 2.495814520611222e-09).transl(-1.0813967052831516e-08, 4e-08, 0))
hIsland = hIsland.add(rect(1e-08, 6.839612726183227e-09).transl(1.0646214394508358e-09, 4e-08, 0))
hIsland = hIsland.sub(rect(1e-08, -7.80074638785494e-09).transl(7.670322331909686e-08, 2.3160281373881432e-08, 0))
hIsland = hIsland.add(rect(1e-08, 1.6189205268527063e-09).transl(-2.9571948438666603e-08, 3.947999184355192e-08, 0))
hIsland = hIsland.sub(rect(1e-08, -8.290244581051154e-09).transl(-7.395453637899846e-08, 2.5172797012806187e-08, 0))
hIsland = hIsland.sub(rect(1e-08, -7.71915004970064e-09).transl(8.618333437159422e-08, 1.2850432499463403e-08, 0))
hIsland = hIsland.add(rect(1e-08, 3.853820942926948e-09).transl(-7.233115738034882e-08, 2.6247429843088064e-08, 0))
hIsland = hIsland.sub(rect(1e-08, -1.6475652572296566e-09).transl(-8.22595548977402e-08, 1.8042384977098387e-08, 0))
hIsland = hIsland.add(rect(1e-08, 1.3445845042046284e-09).transl(-3.1496261500358734e-08, 3.929098051525286e-08, 0))
hIsland = hIsland.add(rect(1e-08, 3.337234487358386e-09).transl(6.63378980636573e-08, 2.9645266994603372e-08, 0))
hIsland = hIsland.sub(rect(1e-08, -1.9382389292041026e-09).transl(3.196884815229617e-08, 3.923996797680139e-08, 0))
hIsland = hIsland.add(rect(1e-08, 3.2133346596774068e-09).transl(-6.096588623228468e-08, 3.2097135656762784e-08, 0))
hIsland = hIsland.add(rect(1e-08, 3.1948891308297837e-09).transl(-8.557573436567595e-08, 1.3805529006676942e-08, 0))
hIsland = hIsland.sub(rect(1e-08, -6.881120420906165e-09).transl(-5.3563950013834887e-08, 3.4779754378571766e-08, 0))
hIsland = hIsland.sub(rect(1e-08, -2.1063871665762616e-09).transl(-1.0106077402841259e-08, 4e-08, 0))
hIsland = hIsland.sub(rect(1e-08, -2.508745246427424e-09).transl(-6.305801339562601e-08, 3.119915829051979e-08, 0))
hIsland = hIsland.sub(rect(1e-08, -2.495118452427509e-11).transl(4.480801748302583e-08, 3.712395901450203e-08, 0))
hIsland = hIsland.add(rect(1e-08, 1.6186652614828027e-09).transl(-4.147788271360136e-08, 3.7813663606364595e-08, 0))
hIsland = hIsland.add(rect(1e-08, 1.8190075298048913e-09).transl(2.991116776564966e-08, 3.9448842018002005e-08, 0))
hIsland = hIsland.sub(rect(1e-08, -1.5306626656845963e-09).transl(-2.8985670075008764e-08, 3.9531652628859886e-08, 0))
hIsland = hIsland.add(rect(1e-08, 4.310343881179349e-09).transl(-6.279480658993265e-08, 3.131591962215108e-08, 0))
hIsland = hIsland.sub(rect(1e-08, -9.620736824845623e-10).transl(1.3917294838379698e-08, 4e-08, 0))
hIsland = hIsland.sub(rect(1e-08, -4.357459358213672e-09).transl(-1.8929388047996144e-08, 3.999666744549793e-08, 0))
hIsland = hIsland.add(rect(1e-08, 1.2173149293463032e-09).transl(1.5743847642612e-08, 4e-08, 0))
hIsland = hIsland.add(rect(1e-08, 3.5398466812536117e-09).transl(6.103047407669236e-08, 3.207041972308033e-08, 0))
hIsland = hIsland.add(rect(1e-08, 1.8615871205717811e-09).transl(-5.554010507005647e-08, 3.4132731617820646e-08, 0))
hIsland = hIsland.add(rect(1e-08, 9.529812657495415e-10).transl(2.2614578131868973e-08, 3.9917761404089926e-08, 0))
hIsland = hIsland.sub(rect(1e-08, -3.797297302554331e-09).transl(-7.99848526154966e-08, 2.0350918672465934e-08, 0))
hIsland = hIsland.add(rect(1e-08, 1.9877609036501103e-09).transl(7.234559333922604e-08, 2.6238204196300298e-08, 0))
hIsland = hIsland.add(rect(1e-08, 2.9965176663456712e-09).transl(4.583787424208822e-08, 3.6889276929358345e-08, 0))
vIsland := hIsland.rotz(pi / 2)
vIslands := Universe().Inverse()
hIslands := Universe().Inverse()
hIslands = hIslands.add(hIsland.transl(-a/2, a, 0))
hIslands = hIslands.add(hIsland.transl(-a/2, -a, 0))
hIslands = hIslands.add(hIsland.transl(a/2, a, 0))
hIslands = hIslands.add(hIsland.transl(a/2, -a, 0))
hIslands = hIslands.add(hIsland.transl(-a/2, 0, 0))
hIslands = hIslands.add(hIsland.transl(a/2, 0, 0))
vIslands = vIslands.add(vIsland.transl(-a, a/2, 0))
vIslands = vIslands.add(vIsland.transl(a, a/2, 0))
vIslands = vIslands.add(vIsland.transl(-a, -a/2, 0))
vIslands = vIslands.add(vIsland.transl(a, -a/2, 0))
vIslands = vIslands.add(vIsland.transl(0, a/2, 0))
vIslands = vIslands.add(vIsland.transl(0, -a/2, 0))
DefRegion(1, hIslands)
DefRegion(2, vIslands)
TableAdd(m_full.Region(1))
TableAdd(m_full.Region(2))
setgeom(hIslands.add(vIslands))
save(m)
r2o2 := sqrt(2) / 2
m = RandomMagSeed(4)
B_ext = vector(Bmax*r2o2, Bmax*r2o2, 0)
relax()
minimize()
for B := Bmax; B >= -Bmax; B -= Bstep {
	B_ext = vector(B*r2o2, B*r2o2, 0)
	minimize()
	tablesave()
}
//********************************************************************//
//Please cite the following references, relevant for your simulation. //
//See bibtex file in output folder for justification.                 //
//********************************************************************//
//   * Vansteenkiste et al., AIP Adv. 4, 107133 (2014).
//   * Exl et al., J. Appl. Phys. 115, 17D118 (2014).
