# t (s)	mx ()	my ()	mz ()	B_extx (T)	B_exty (T)	B_extz (T)	m_fullx (A/m)	m_fully (A/m)	m_fullz (A/m)	m_full.region1x (A/m)	m_full.region1y (A/m)	m_full.region1z (A/m)	m_full.region2x (A/m)	m_full.region2y (A/m)	m_full.region2z (A/m)
0	0.6592384	0.65431434	-2.7950475e-10	0.07071097	0.07071097	0	49416.727	49047.617	-1.89754e-05	614409.44	304007.1	-0.00028276513	308524.34	612033	-7.162977e-05
0	0.6591512	0.65421796	-3.4651207e-10	0.070569366	0.070569366	0	49410.195	49040.387	-2.5932055e-05	614495.06	303791.12	-0.00029167588	308316.62	612114	-0.00019264531
0	0.65906346	0.65411687	-4.395866e-10	0.07042761	0.07042761	0	49403.61	49032.82	-2.9235362e-05	614584.75	303566.8	-0.0003498935	308104	612196.9	-0.00019612207
0	0.6589755	0.6540155	-1.4125699e-10	0.07028633	0.07028633	0	49397.01	49025.21	-1.579105e-05	614674.75	303341.66	-0.00018600568	307890.9	612280	-0.00010891662
0	0.6588872	0.6539136	-2.0348971e-10	0.07014479	0.07014479	0	49390.4	49017.574	-2.1194368e-05	614764.9	303115.97	-0.00019523082	307677.3	612363.1	-0.00020060677
0	0.65879893	0.65381175	-8.702258e-11	0.07000352	0.07000352	0	49383.78	49009.938	2.3537534e-06	614854.8	302890.16	-7.5175325e-05	307463.56	612446.1	0.00011913531
0	0.6587103	0.65370935	-2.3287807e-11	0.06986232	0.06986232	0	49377.14	49002.27	-4.5300985e-06	614945.1	302663.72	-5.8624908e-05	307249.34	612529.4	-2.5981686e-05
0	0.6586215	0.6536067	-2.3318253e-10	0.0697207	0.0697207	0	49370.48	48994.574	-1.8914103e-05	615035.5	302436.72	-0.00013837904	307034.53	612612.75	-0.00021487106
0	0.65853244	0.6535039	-4.2170714e-10	0.06957944	0.06957944	0	49363.805	48986.867	-3.3000346e-05	615125.9	302209.4	-0.0002505181	306819.5	612696.1	-0.00036581437
0	0.6584432	0.6534009	-2.280614e-10	0.0694377	0.0694377	0	49357.117	48979.145	-1.3545779e-05	615216.25	301981.84	-0.00022823426	306604.28	612779.4	-2.4754114e-05
0	0.65835387	0.6532976	-6.027848e-10	0.069296405	0.069296405	0	49350.418	48971.406	-4.2789034e-05	615306.6	301753.94	-0.00042895283	306388.72	612862.75	-0.00037019848
0	0.6582641	0.653194	-3.2057157e-10	0.06915487	0.06915487	0	49343.695	48963.633	-2.3858438e-05	615397.25	301525.34	-0.00025091344	306172.47	612946.3	-0.0001946798
0	0.65817416	0.6530899	-1.9132831e-10	0.0690136	0.0690136	0	49336.95	48955.836	-2.0873207e-05	615488.1	301295.88	-0.00016698892	305955.56	613030	-0.0002228505
0	0.65808403	0.6529858	-4.623218e-10	0.06887232	0.06887232	0	49330.195	48948.023	-3.5513618e-05	615578.94	301066.56	-0.00039427436	305738.75	613113.6	-0.00026899736
0	0.65799385	0.6528815	-4.0372156e-10	0.06873079	0.06873079	0	49323.43	48940.21	-2.6369933e-05	615669.6	300836.94	-0.0002905301	305521.72	613197.06	-0.00020196915
0	0.65790325	0.6527768	-4.9064675e-10	0.0685895	0.0685895	0	49316.65	48932.355	-3.8790084e-05	615760.5	300606.53	-0.00034910638	305303.94	613280.8	-0.0003753584
0	0.6578124	0.6526715	-4.0624773e-10	0.068447776	0.068447776	0	49309.836	48924.473	-3.1832158e-05	615851.9	300375.3	-0.00034613608	305085.5	613364.8	-0.00024837864
0	0.6577216	0.65256643	-2.249437e-10	0.0683065	0.0683065	0	49303.023	48916.598	-2.2620403e-05	615942.7	300144.7	-0.00025607322	304867.47	613448.44	-0.00016639777
0	0.65763026	0.6524609	-4.837822e-10	0.06816496	0.06816496	0	49296.18	48908.68	-3.5137775e-05	616034	299912.72	-0.00038012076	304648.34	613532.44	-0.00027613147
0	0.657539	0.65235525	-2.4893174e-10	0.068023674	0.068023674	0	49289.336	48900.76	-1.6947834e-05	616125.06	299681.1	-0.00016538409	304429.44	613616.25	-0.0001511429
0	0.6574473	0.65224904	-5.1738686e-10	0.067882404	0.067882404	0	49282.46	48892.8	-3.7465732e-05	616216.56	299448.25	-0.00039898057	304209.56	613700.3	-0.0003007499
0	0.6573554	0.65214264	-4.309766e-10	0.067740865	0.067740865	0	49275.574	48884.82	-2.5885669e-05	616308.06	299215.25	-0.00031528118	303989.53	613784.4	-0.00016817369
0	0.65726334	0.6520362	-4.1768347e-10	0.06759956	0.06759956	0	49268.676	48876.844	-3.2409123e-05	616399.3	298982.16	-0.00022784002	303769.38	613868.44	-0.00037745043
0	0.65717095	0.65192884	-1.3417738e-10	0.06745787	0.06745787	0	49261.75	48868.805	-8.304998e-06	616491.3	298747.62	-0.00013092857	303548	613952.9	-2.4180115e-05
0	0.6570783	0.65182173	-3.9239603e-10	0.067316584	0.067316584	0	49254.81	48860.77	-2.7515216e-05	616582.9	298513.38	-0.00037807378	303326.78	614037.06	-0.0001358154
0	0.6569856	0.6517142	-4.274117e-11	0.067174956	0.067174956	0	49247.85	48852.71	-3.9751944e-06	616674.7	298278.56	-8.7323104e-05	303105.12	614121.4	1.3080205e-05
0	0.65689266	0.6516065	-3.243156e-10	0.06703376	0.06703376	0	49240.887	48844.64	-2.4021667e-05	616766.5	298043.53	-0.00020382844	302883.28	614205.6	-0.00024481333
0	0.6567995	0.6514984	-2.7783695e-10	0.06689248	0.06689248	0	49233.902	48836.535	-1.8008728e-05	616858.4	297807.75	-0.00019737454	302660.88	614290.06	-0.00013896631
0	0.6567061	0.6513902	-3.9964052e-10	0.06675091	0.06675091	0	49226.902	48828.418	-2.8827644e-05	616950.3	297571.84	-0.0002835836	302438.2	614374.44	-0.00025481722
0	0.65661234	0.65128154	-3.8482154e-10	0.06660963	0.06660963	0	49219.883	48820.27	-2.9693596e-05	617042.5	297335.06	-0.00027573912	302214.8	614459	-0.0002788347
0	0.65651846	0.6511725	-5.293893e-10	0.066467956	0.066467956	0	49212.84	48812.113	-4.2304637e-05	617134.7	297098	-0.00045780835	301991.16	614543.56	-0.00033229613
0	0.65642434	0.6510634	-1.6763725e-10	0.06632633	0.06632633	0	49205.785	48803.92	-1.0853095e-05	617226.9	296860.56	-0.000113435985	301767.25	614628.2	-8.926234e-05
0	0.65633005	0.65095377	-4.980775e-10	0.06618504	0.06618504	0	49198.715	48795.71	-3.7504196e-05	617319.25	296622.5	-0.00032851452	301542.78	614712.8	-0.00037193435
0	0.65623534	0.6508438	-3.7427722e-10	0.06604385	0.06604385	0	49191.617	48787.465	-2.2608945e-05	617411.9	296383.7	-0.0002997426	301317.62	614797.75	-0.00012251442
0	0.6561405	0.6507339	-2.4296756e-10	0.06590254	0.06590254	0	49184.51	48779.223	-1.6264667e-05	617504.25	296144.94	-0.00020020806	301092.47	614882.5	-0.00010355974
0	0.6560456	0.6506236	-3.0817107e-10	0.065760985	0.065760985	0	49177.4	48770.957	-2.8102566e-05	617596.8	295905.78	-0.0003008179	300867.06	614967.25	-0.00022404101
0	0.6559503	0.6505129	-3.6458436e-10	0.0656197	0.0656197	0	49170.242	48762.656	-2.6240905e-05	617689.6	295665.75	-0.00030610058	300640.8	615052.25	-0.00018398886
0	0.6558548	0.65040195	-3.3664582e-10	0.06547804	0.06547804	0	49163.09	48754.34	-3.173551e-05	617782.25	295425.53	-0.00036449084	300414.4	615137.1	-0.00022821891
0	0.655759	0.6502905	-1.606374e-10	0.06533641	0.06533641	0	49155.9	48745.992	-1.6166372e-05	617875.3	295184.4	-9.451747e-05	300187.22	615222.3	-0.00020741452
0	0.655663	0.65017897	-3.849163e-10	0.06519513	0.06519513	0	49148.715	48737.63	-3.129728e-05	617968.2	294943.22	-0.00035980824	299960.06	615307.3	-0.00022471687
0	0.6555668	0.6500671	-2.0588671e-10	0.06505393	0.06505393	0	49141.508	48729.242	-1.03004295e-05	618061.2	294701.53	-0.00019447762	299732.34	615392.5	2.1011817e-06
0	0.65547043	0.649955	-1.03815e-10	0.06491261	0.06491261	0	49134.273	48720.836	-8.310683e-06	618154.25	294459.38	-0.00013031681	299504.28	615477.6	-2.4898047e-05
0	0.6553737	0.6498426	-2.8254654e-10	0.064771056	0.064771056	0	49127.03	48712.414	-2.3754896e-05	618247.44	294216.8	-0.00020576145	299275.8	615562.75	-0.00023789796
0	0.6552767	0.6497298	-2.2462396e-10	0.06462978	0.06462978	0	49119.758	48703.96	-1.6230248e-05	618340.7	293973.56	-0.00024832028	299046.7	615648.2	-5.4804666e-05
0	0.6551797	0.64961684	-1.3756954e-10	0.06448806	0.06448806	0	49112.477	48695.49	-1.04153605e-05	618434	293730.03	-8.859069e-05	298817.44	615733.44	-0.00010593226
0	0.65508235	0.6495035	-1.06413545e-10	0.0643465	0.0643465	0	49105.18	48686.992	-1.2124995e-05	618527.4	293486.16	-0.00015697574	298587.88	615818.8	-6.947728e-05
0	0.65498453	0.64938974	-1.404726e-10	0.064205214	0.064205214	0	49097.85	48678.465	-7.072057e-06	618620.9	293241.3	-0.00016587532	298357.34	615904.3	3.3793716e-05
0	0.6548868	0.64927584	-2.745759e-11	0.06406398	0.06406398	0	49090.527	48669.93	-5.3133563e-06	618714.44	292996.44	-8.613102e-05	298126.97	615989.75	-1.3104121e-05
0	0.6547886	0.6491617	-2.6603328e-10	0.063922696	0.063922696	0	49083.17	48661.367	-2.2221862e-05	618808.1	292750.94	-0.00019132571	297896	616075.3	-0.00022370194
0	0.65469176	0.64904994	-4.232553e-10	0.06378113	0.06378113	0	49075.906	48653	-3.058999e-05	618898.8	292511.22	-0.00030329463	297669.5	616158.75	-0.0002680207
0	0.6545915	0.64893204	-2.9169386e-10	0.06363943	0.06363943	0	49068.387	48644.16	-2.2828594e-05	618995.8	292258.1	-0.000235724	297432.12	616246.75	-0.00019063528
0	0.6544927	0.6488169	-2.780172e-10	0.06349815	0.06349815	0	49060.99	48635.523	-2.0048485e-05	619089.8	292011.16	-0.0002517565	297200.06	616332.44	-0.00012267996
0	0.65439373	0.64870155	-2.9957894e-10	0.063356586	0.063356586	0	49053.57	48626.88	-2.4539539e-05	619183.6	291764.06	-0.00026038615	296967.62	616418.1	-0.00019792767
0	0.65429443	0.6485858	-1.9734417e-10	0.06321526	0.06321526	0	49046.13	48618.203	-1.5791302e-05	619277.6	291516.25	-0.00021488465	296734.66	616503.9	-8.004233e-05
0	0.6541949	0.6484698	-2.591945e-10	0.06307407	0.06307407	0	49038.668	48609.508	-1.797907e-05	619371.75	291267.94	-0.0001402735	296501.2	616589.7	-0.0001955134
0	0.65409493	0.6483532	-2.6806402e-10	0.062932774	0.062932774	0	49031.168	48600.77	-2.1351025e-05	619466.06	291018.66	-0.00022990441	296266.8	616675.75	-0.000168859
0	0.6539949	0.6482364	-4.997468e-10	0.06279112	0.06279112	0	49023.676	48592.016	-3.737456e-05	619560.44	290769.22	-0.00036606446	296032.44	616761.75	-0.00033196324
0	0.6538946	0.6481195	-4.899176e-10	0.06264953	0.06264953	0	49016.152	48583.246	-3.0072672e-05	619654.75	290519.47	-0.00029525577	295797.7	616847.8	-0.00026639784
0	0.653794	0.648002	-5.228995e-10	0.06250824	0.06250824	0	49008.617	48574.438	-3.641385e-05	619749.44	290268.8	-0.0004244183	295562.22	616933.94	-0.00025566667
0	0.6536931	0.64788425	-2.1532473e-10	0.062366635	0.062366635	0	49001.04	48565.613	-1.9395924e-05	619844	290017.72	-0.00020839734	295326.2	617020.2	-0.00015385155
0	0.6535924	0.6477665	-4.1240467e-10	0.06222535	0.06222535	0	48993.492	48556.785	-2.9787037e-05	619938.5	289766.94	-0.00036915552	295090.78	617106.1	-0.00018716346
0	0.653491	0.64764816	-3.2817735e-10	0.06208415	0.06208415	0	48985.906	48547.918	-1.8918689e-05	620033.2	289515.1	-0.00016207257	294854.25	617192.4	-0.0001912632
0	0.65338933	0.6475294	-3.360426e-10	0.061942477	0.061942477	0	48978.273	48539.016	-2.190665e-05	620128.2	289262.38	-0.00028251653	294616.84	617278.8	-0.00012662403
0	0.6532877	0.64741075	-4.8290244e-10	0.061801177	0.061801177	0	48970.66	48530.117	-3.433081e-05	620222.9	289009.94	-0.0003869553	294379.94	617364.94	-0.0002542256
0	0.6531856	0.6472914	-1.6884119e-10	0.061659623	0.061659623	0	48963.008	48521.17	-1.2928873e-05	620317.9	288756.5	-0.0001934178	294142	617451.4	-4.8048878e-05
0	0.6530844	0.64717454	-3.4332975e-10	0.06151831	0.06151831	0	48955.418	48512.42	-2.5298865e-05	620410.06	288508.53	-0.0003970529	293908.06	617535.94	-7.544251e-05
0	0.65298074	0.6470519	-4.7162885e-11	0.06137672	0.06137672	0	48947.65	48503.227	-8.73364e-06	620508.06	288248.28	-7.8639074e-05	293665	617624.4	-8.447516e-05
0	0.65287787	0.6469316	-4.311996e-10	0.061235435	0.061235435	0	48939.938	48494.207	-3.343131e-05	620603.3	287993.34	-0.00034510167	293425.66	617711	-0.00027927975
0	0.6527748	0.6468111	-2.1929729e-10	0.061094135	0.061094135	0	48932.215	48485.17	-1.683901e-05	620698.56	287738.06	-0.00017599223	293186.16	617797.56	-0.00013850232
0	0.6526715	0.6466901	-1.9398506e-10	0.06095255	0.06095255	0	48924.47	48476.1	-1.727489e-05	620794.06	287481.9	-0.00017888175	292946	617884.3	-0.00014375354
0	0.652568	0.646569	-3.9550874e-10	0.06081125	0.06081125	0	48916.71	48467.027	-2.9716826e-05	620889.4	287225.84	-0.00032894633	292705.78	617970.8	-0.00022606141
0	0.6524641	0.64644754	-1.6637636e-10	0.06066969	0.06066969	0	48908.918	48457.918	-1.7356639e-05	620985	286968.88	-0.00023215273	292464.72	618057.6	-9.200932e-05
0	0.65236014	0.6463257	-3.5044392e-10	0.060528405	0.060528405	0	48901.12	48448.777	-2.3054428e-05	621080.7	286711.4	-0.00024379454	292223.44	618144.44	-0.00018678253
0	0.6522557	0.6462034	-4.07674e-10	0.060386807	0.060386807	0	48893.3	48439.625	-3.166624e-05	621176.3	286453.56	-0.0003269489	291981.66	618231.25	-0.00026446712
0	0.65215117	0.64608103	-2.556874e-10	0.060245506	0.060245506	0	48885.46	48430.445	-1.8535919e-05	621272	286195.34	-0.00022854163	291739.66	618318.1	-0.00011764531
0	0.6520464	0.64595824	-6.464026e-11	0.06010422	0.06010422	0	48877.613	48421.24	-1.0078336e-06	621367.9	285936.5	-2.5430409e-06	291497.1	618405	-1.627981e-05
0	0.6519413	0.64583504	4.104986e-12	0.05996261	0.05996261	0	48869.734	48412.008	8.968054e-08	621463.8	285677.1	3.538678e-06	291254.06	618492	-1.8637552e-06
0	0.65183574	0.6457114	-1.5073022e-10	0.059821296	0.059821296	0	48861.82	48402.742	-1.1490174e-05	621559.94	285416.78	-0.00021281301	291010.12	618579.2	-1.7837433e-06
0	0.65173	0.6455875	-3.149517e-10	0.059679788	0.059679788	0	48853.89	48393.45	-2.6273872e-05	621656	285156.2	-0.00024666716	290765.9	618666.4	-0.000244038
0	0.65162444	0.6454636	-2.6447428e-10	0.05953849	0.05953849	0	48845.98	48384.156	-1.9361305e-05	621752.1	284895.72	-0.00019988608	290522.12	618753.25	-0.0001617162
0	0.65151817	0.64533895	-1.7312596e-10	0.059396796	0.059396796	0	48838.016	48374.82	-1.8033696e-05	621848.4	284634.06	-0.00014481861	290277.03	618840.44	-0.00019198853
0	0.6514117	0.6452141	-3.9865036e-10	0.059255593	0.059255593	0	48830.04	48365.457	-2.4524319e-05	621944.8	284371.9	-0.0002685388	290031.6	618927.75	-0.00018949076
0	0.6513048	0.6450888	-5.376467e-10	0.05911429	0.05911429	0	48822.02	48356.07	-4.1997668e-05	622041.2	284109.25	-0.00044816057	289785.6	619015.06	-0.00033621083
0	0.651198	0.6449634	-4.30836e-10	0.058972668	0.058972668	0	48814.01	48346.668	-2.8564307e-05	622137.7	283846.34	-0.00034326475	289539.56	619102.44	-0.00019021783
0	0.65109104	0.6448376	-4.5980456e-10	0.058831364	0.058831364	0	48805.996	48337.24	-3.6002275e-05	622234.2	283583.03	-0.00040449572	289293.28	619189.7	-0.00026790242
0	0.6509834	0.6447114	-4.6065252e-10	0.05868988	0.05868988	0	48797.938	48327.777	-3.6225294e-05	622330.8	283318.88	-0.00039815847	289046.06	619277.06	-0.00027840486
0	0.6508757	0.6445848	-1.3530778e-10	0.05854817	0.05854817	0	48789.855	48318.29	-1.2829519e-05	622427.6	283054.06	-0.00010682485	288798.34	619364.56	-0.00013278626
0	0.6507676	0.6444579	-3.653819e-10	0.05840688	0.05840688	0	48781.758	48308.77	-2.4208717e-05	622524.5	282788.75	-0.00030370188	288550.25	619452.2	-0.00014843336
0	0.6506593	0.6443306	-3.9664924e-10	0.05826568	0.05826568	0	48773.633	48299.227	-3.1644377e-05	622621.5	282522.94	-0.00028515395	288301.56	619539.9	-0.0003058537
0	0.65055096	0.6442032	-3.200241e-10	0.058124352	0.058124352	0	48765.51	48289.68	-2.9607207e-05	622718.25	282257.22	-0.00031784066	288053.12	619627.25	-0.00023511972
0	0.650442	0.6440751	-4.2560933e-10	0.057982735	0.057982735	0	48757.35	48280.08	-2.8907054e-05	622815.44	281990.12	-0.00026623762	287803.47	619715	-0.00027364632
0	0.650333	0.64394695	-4.955879e-10	0.05784144	0.05784144	0	48749.176	48270.473	-3.6436082e-05	622912.5	281723	-0.00040145175	287553.75	619802.7	-0.00027904843
0	0.6502236	0.64381826	-5.0953486e-10	0.057699878	0.057699878	0	48740.977	48260.83	-3.988474e-05	623009.75	281455.06	-0.00032917302	287303.38	619890.44	-0.0004157361
0	0.65011394	0.64368916	-2.0948403e-10	0.057558257	0.057558257	0	48732.75	48251.152	-1.352275e-05	623107.1	281186.56	-0.00016964812	287052.38	619978.25	-8.291015e-05
0	0.6500039	0.6435599	-4.6569887e-10	0.057416957	0.057416957	0	48724.51	48241.457	-3.2681877e-05	623204.5	280917.6	-0.00031451238	286801.12	620066.2	-0.00029587222
0	0.64989394	0.64343023	-5.0744614e-10	0.05727573	0.05727573	0	48716.258	48231.742	-3.9749382e-05	623301.8	280648.38	-0.0004242863	286549.7	620154	-0.00031809488
0	0.6497832	0.6433001	-1.0555991e-10	0.05713443	0.05713443	0	48707.96	48221.984	-7.562862e-06	623399.44	280378.06	-0.00013013605	286297.03	620242	-1.1112086e-05
0	0.6496726	0.6431698	-2.2997311e-10	0.05699281	0.05699281	0	48699.67	48212.22	-1.82549e-05	623497	280107.72	-0.00021818804	286044.62	620329.94	-0.00012275041
0	0.64956164	0.643039	-3.8152156e-10	0.056851286	0.056851286	0	48691.35	48202.414	-2.7009175e-05	623594.8	279836.47	-0.00028905895	285791.44	620418.06	-0.00021537917
0	0.64945024	0.64290786	-4.405278e-10	0.056709964	0.056709964	0	48683.004	48192.586	-3.5756333e-05	623692.44	279564.97	-0.0004098555	285537.9	620506.06	-0.00025794932
0	0.6493388	0.64277637	-1.5387425e-10	0.056568343	0.056568343	0	48674.65	48182.727	-1.0232679e-05	623790.3	279292.75	-0.00015364343	285283.94	620594.2	-3.7467686e-05
0	0.6492269	0.64264464	-1.4785095e-10	0.05642702	0.05642702	0	48666.26	48172.85	-1.2360835e-05	623888.1	279020.2	-0.00019534316	285029.47	620682.25	-3.551454e-05
0	0.6491148	0.64251244	-2.894161e-10	0.05628581	0.05628581	0	48657.855	48162.945	-2.341592e-05	623986.2	278746.88	-0.00023772342	284774.53	620770.44	-0.00019960507
0	0.6490023	0.64237976	-4.650663e-10	0.056144506	0.056144506	0	48649.43	48152.996	-3.8056158e-05	624084.4	278472.84	-0.00040432127	284518.9	620858.8	-0.0003064363
0	0.6488895	0.6422468	-4.4688334e-10	0.056002766	0.056002766	0	48640.97	48143.027	-3.42918e-05	624182.56	278198.4	-0.00038182677	284262.78	620947.2	-0.0002586256
0	0.6487768	0.6421136	-2.1749759e-10	0.055861373	0.055861373	0	48632.52	48133.05	-1.37598345e-05	624280.7	277923.75	-0.00025545116	284006.75	621035.44	-1.5350107e-06
0	0.6486633	0.6419799	-4.9449472e-11	0.05572006	0.05572006	0	48624.01	48123.023	-9.7506145e-06	624379.06	277647.94	-0.00015414451	283749.5	621123.94	-2.7963286e-05
0	0.6485496	0.6418458	-3.579696e-10	0.05557843	0.05557843	0	48615.496	48112.97	-2.5869445e-05	624477.5	277371.78	-0.00033148893	283492.03	621212.4	-0.00015166297
0	0.64843625	0.6417116	-1.2088122e-10	0.055437095	0.055437095	0	48606.992	48102.914	-5.8292358e-06	624575.94	277095.62	-7.1767085e-05	283234.8	621300.6	-3.7102905e-05
0	0.648322	0.6415769	-3.8785217e-10	0.055295892	0.055295892	0	48598.43	48092.81	-2.9887087e-05	624674.5	276818.38	-0.0002970131	282976.38	621389.2	-0.00026117446
0	0.6482076	0.6414417	-2.7602373e-10	0.055154584	0.055154584	0	48589.855	48082.68	-2.1723643e-05	624773.1	276540.66	-0.0002531091	282717.62	621477.7	-0.00015261355
0	0.64809304	0.64130616	-1.07162376e-10	0.05501284	0.05501284	0	48581.26	48072.523	-7.1218506e-06	624871.8	276262.3	-0.00010043325	282458.4	621566.44	-3.257832e-05
0	0.647978	0.64117026	-1.4664547e-10	0.054871462	0.054871462	0	48572.64	48062.336	-1.0749076e-05	624970.56	275983.38	-0.00018659786	282198.56	621655	-1.4157756e-05
0	0.64786273	0.64103407	-2.3530727e-10	0.05473016	0.05473016	0	48564.004	48052.12	-1.3395399e-05	625069.5	275704	-0.00017446984	281938.4	621743.75	-7.570995e-05
0	0.6477473	0.64089733	-4.813334e-10	0.054588504	0.054588504	0	48555.344	48041.875	-3.5941328e-05	625168.56	275423.8	-0.00040760764	281677.62	621832.44	-0.0002636522
0	0.6476312	0.64076036	-3.8336279e-10	0.05444718	0.05444718	0	48546.65	48031.61	-3.273659e-05	625267.44	275143.34	-0.00029211852	281416.3	621921.25	-0.00031928788
0	0.64751524	0.6406231	-2.4547528e-10	0.054305978	0.054305978	0	48537.957	48021.32	-1.5486678e-05	625366.44	274862.38	-0.00024053128	281154.9	622009.94	-4.8706366e-05
0	0.647399	0.64048535	-4.065283e-10	0.054164223	0.054164223	0	48529.242	48010.992	-2.5893376e-05	625465.7	274580.8	-0.0002643602	280892.97	622098.6	-0.00021923866
0	0.64728224	0.6403472	-1.03133224e-10	0.0540229	0.0540229	0	48520.49	48000.633	-1.0477425e-05	625564.9	274298.47	-0.00012094319	280630.22	622187.6	-7.4738935e-05
0	0.6471653	0.6402087	-5.239391e-10	0.053881556	0.053881556	0	48511.715	47990.254	-3.841278e-05	625664.1	274015.62	-0.0003959616	280367.2	622276.5	-0.00032145646
0	0.64704776	0.64006966	-2.6056943e-10	0.053740222	0.053740222	0	48502.918	47979.836	-1.8059449e-05	625763.75	273731.84	-0.00014621626	280103.2	622365.7	-0.00019107187
0	0.6469304	0.63993037	-2.3862662e-10	0.053598575	0.053598575	0	48494.113	47969.395	-2.0379852e-05	625863.1	273447.97	-0.0002578496	279839.25	622454.6	-0.00012277563
0	0.64681256	0.6397909	-5.548409e-10	0.053457268	0.053457268	0	48485.285	47958.93	-4.6429777e-05	625962.6	273163.6	-0.00044569134	279574.9	622543.6	-0.00042145653
0	0.64669424	0.63965064	-9.1709855e-11	0.053315945	0.053315945	0	48476.414	47948.426	-4.5019524e-06	626062.25	272878.22	-6.227246e-05	279309.62	622632.75	-2.1808459e-05
0	0.6465757	0.6395102	-5.7568694e-10	0.0531743	0.0531743	0	48467.523	47937.895	-3.8944905e-05	626162	272592.44	-0.00042408425	279043.94	622721.94	-0.000303272
0	0.6464571	0.63936937	-3.9955428e-10	0.053032976	0.053032976	0	48458.625	47927.336	-2.6536767e-05	626261.9	272306.06	-0.00026000972	278777.9	622811.06	-0.00023560545
0	0.646338	0.63922817	-1.3936564e-10	0.052891634	0.052891634	0	48449.707	47916.754	-1.03702305e-05	626361.75	272019.22	-0.00012859998	278511.47	622900.25	-6.508011e-05
0	0.64621866	0.63908654	-3.700881e-10	0.05275032	0.05275032	0	48440.76	47906.137	-2.984558e-05	626461.6	271731.72	-0.00027047232	278244.44	622989.5	-0.00028694002
0	0.6460989	0.63894457	-2.6057617e-10	0.05260866	0.05260866	0	48431.79	47895.492	-1.8563844e-05	626561.6	271443.62	-0.00026237595	277976.9	623078.75	-8.433253e-05
0	0.645979	0.6388021	-4.0369155e-10	0.05246734	0.05246734	0	48422.793	47884.816	-2.7186567e-05	626661.8	271154.88	-0.0003328304	277708.8	623168.1	-0.00017492077
0	0.6458587	0.6386593	-1.9799241e-10	0.052326016	0.052326016	0	48413.78	47874.113	-1.3399418e-05	626761.94	270865.66	-0.00019548845	277440.3	623257.44	-5.47664e-05
0	0.6457381	0.6385161	-1.9879247e-10	0.052184362	0.052184362	0	48404.75	47863.375	-1.0347864e-05	626862.2	270575.7	-8.213802e-05	277171.25	623346.8	-0.00011112434
0	0.6456172	0.6383725	9.8753186e-11	0.052043013	0.052043013	0	48395.68	47852.6	7.3079486e-06	626962.56	270285.06	5.4181965e-07	276901.53	623436.4	0.00013594542
0	0.6454961	0.63822854	-3.773039e-10	0.051901728	0.051901728	0	48386.594	47841.82	-2.247437e-05	627062.8	269994.22	-0.0003779935	276631.62	623525.7	-4.1750118e-05
0	0.64537454	0.63808405	-3.9096992e-10	0.051760413	0.051760413	0	48377.49	47830.984	-4.0449864e-05	627163.44	269702.28	-0.0004152088	276360.9	623615.3	-0.00034025492
0	0.64525276	0.6379392	-5.482224e-10	0.05161863	0.05161863	0	48368.355	47820.133	-3.7345108e-05	627263.94	269410.1	-0.000489705	276089.94	623704.8	-0.00020777261
0	0.64513063	0.63779396	-1.59067e-10	0.051477425	0.051477425	0	48359.2	47809.242	-1.843225e-05	627364.6	269117.12	-0.00019234864	275818.28	623794.5	-0.00015190213
0	0.64500815	0.63764834	-4.9927884e-10	0.0513361	0.0513361	0	48350.023	47798.324	-4.0032963e-05	627465.3	268823.56	-0.00045461478	275546.1	623884.06	-0.00029306268
0	0.64488536	0.63750225	-4.3930184e-10	0.0511944	0.0511944	0	48340.82	47787.38	-3.6724454e-05	627566.1	268529.38	-0.00036717948	275273.38	623973.8	-0.0003187065
0	0.64476234	0.63735586	-8.2867824e-11	0.051053077	0.051053077	0	48331.6	47776.402	-4.047825e-06	627666.9	268234.78	-5.1526244e-05	275000.38	624063.5	-2.4073142e-05
0	0.6446391	0.6372088	-1.2945796e-10	0.050911825	0.050911825	0	48322.35	47765.383	-6.3458674e-06	627768.06	267939.1	-6.985492e-05	274726.56	624153.25	-4.866397e-05
0	0.64451545	0.63706183	-2.723094e-10	0.050770037	0.050770037	0	48313.094	47754.36	-2.4619938e-05	627868.8	267643.62	-0.00030099874	274452.84	624242.9	-0.00015881665
0	0.6443915	0.63691413	-4.0477954e-10	0.050628714	0.050628714	0	48303.793	47743.29	-3.3655007e-05	627969.94	267347.1	-0.00032649422	274178.16	624332.7	-0.0003020651
0	0.644267	0.63676596	-1.9566387e-10	0.0504875	0.0504875	0	48294.47	47732.184	-1.6215781e-05	628071.1	267049.72	-0.00015830852	273902.75	624422.6	-0.00014454625
0	0.6441425	0.6366175	-1.12398924e-10	0.050346155	0.050346155	0	48285.137	47721.05	-8.236852e-06	628172.3	266752	-0.0001850194	273627.2	624512.56	3.1183437e-05
0	0.6440176	0.6364685	-4.1075907e-10	0.050204474	0.050204474	0	48275.77	47709.89	-3.078927e-05	628273.7	266453.62	-0.0003246472	273351.03	624602.3	-0.00025039003
0	0.6438924	0.63631904	-4.11113e-10	0.05006314	0.05006314	0	48266.383	47698.684	-2.895039e-05	628375.06	266154.4	-0.0003780124	273074.22	624692.4	-0.00016268085
0	0.6437668	0.6361694	-4.835611e-10	0.049921803	0.049921803	0	48256.965	47687.46	-3.0356216e-05	628476.5	265854.78	-0.0003686982	272797	624782.4	-0.00019825106
0	0.64364094	0.63601935	-3.1039837e-10	0.049780127	0.049780127	0	48247.54	47676.215	-2.1183057e-05	628578	265554.78	-0.00033205363	272519.44	624872.3	-6.357272e-05
0	0.6435149	0.6358687	-1.495952e-10	0.049638797	0.049638797	0	48238.086	47664.93	-1.2123315e-05	628679.5	265253.97	-0.00015599003	272241.22	624962.3	-7.043163e-05
0	0.64338833	0.63571763	-5.156206e-10	0.04949756	0.04949756	0	48228.598	47653.598	-4.1124553e-05	628781.4	264952.25	-0.0004175001	271962.34	625052.3	-0.00035056454
0	0.6432615	0.63556623	-4.7396276e-10	0.04935623	0.04935623	0	48219.09	47642.254	-3.197129e-05	628883	264650.16	-0.0003140954	271683	625142.5	-0.0002830178
0	0.6431344	0.6354143	-5.4270893e-10	0.04921455	0.04921455	0	48209.56	47630.863	-4.6823647e-05	628984.9	264347.38	-0.00045743503	271403.22	625232.7	-0.00041706886
0	0.6430069	0.635262	-3.9722947e-10	0.049073216	0.049073216	0	48200.01	47619.445	-3.4473935e-05	629086.75	264043.94	-0.0004183428	271122.94	625322.8	-0.00022551122
0	0.642879	0.63510925	-4.85193e-10	0.04893189	0.04893189	0	48190.414	47608	-3.3034186e-05	629188.75	263739.88	-0.0003276024	270841.8	625413.06	-0.00028936213
0	0.6427508	0.63495606	-1.876118e-10	0.048790213	0.048790213	0	48180.805	47596.508	-1.5717203e-05	629290.8	263435.1	-0.00023140166	270560.28	625503.4	-6.214141e-05
0	0.6426224	0.6348025	-1.7077781e-10	0.048648853	0.048648853	0	48171.19	47585.004	-8.850795e-06	629392.9	263129.9	-0.00014344316	270278.53	625593.56	-2.1859118e-05
0	0.6424936	0.6346484	-2.358755e-10	0.04850764	0.04850764	0	48161.535	47573.453	-1.8660154e-05	629495.06	262823.94	-0.00022078346	269996.06	625683.9	-0.00012772376
0	0.64236444	0.6344938	-3.835315e-10	0.048366304	0.048366304	0	48151.85	47561.867	-3.1372947e-05	629597.44	262517.1	-0.0003305203	269712.84	625774.25	-0.00025541795
0	0.64223516	0.6343391	-3.3151318e-10	0.048224516	0.048224516	0	48142.156	47550.266	-2.7050392e-05	629699.6	262210.16	-0.000279138	269429.6	625864.6	-0.0002260699
0	0.64210534	0.63418365	-4.8838006e-10	0.0480833	0.0480833	0	48132.43	47538.617	-3.5343848e-05	629802.1	261902.14	-0.00037438955	269145.38	625954.94	-0.0002857115
0	0.64197516	0.63402784	-4.732687e-10	0.047941964	0.047941964	0	48122.664	47526.938	-3.019614e-05	629904.6	261593.52	-0.00033773438	268860.62	626045.44	-0.00022622524
0	0.64184475	0.6338716	-3.1065825e-10	0.04780026	0.04780026	0	48112.895	47515.223	-2.5918973e-05	630007.1	261284.38	-0.00029120952	268575.5	626135.9	-0.00019286736
0	0.641714	0.63371503	-3.749903e-10	0.04765894	0.04765894	0	48103.09	47503.484	-2.8127886e-05	630109.7	260974.73	-0.00035385834	268289.88	626226.3	-0.00017147341
0	0.64158297	0.633558	-1.9098051e-10	0.047517724	0.047517724	0	48093.266	47491.71	-1.20284385e-05	630212.4	260664.27	-0.00017935524	268003.72	626316.9	-4.5294448e-05
0	0.64145154	0.6334004	-2.5331798e-10	0.047376387	0.047376387	0	48083.414	47479.9	-1.6135526e-05	630315.2	260353.03	-0.00021692386	267716.94	626407.4	-8.443203e-05
0	0.6413197	0.63324237	-3.4138145e-10	0.047234587	0.047234587	0	48073.535	47468.055	-2.4228118e-05	630418	260041.34	-0.00024359098	267429.62	626497.94	-0.00020890658
0	0.6411876	0.63308376	-3.467198e-10	0.047093373	0.047093373	0	48063.633	47456.17	-2.2302751e-05	630521	259728.72	-0.00023449745	267141.62	626588.7	-0.00018204091
0	0.64105517	0.6329248	-6.6530265e-10	0.04695201	0.04695201	0	48053.707	47444.258	-5.1109684e-05	630623.94	259415.66	-0.0005588648	266853.28	626679.25	-0.0003956876
0	0.6409225	0.63276565	-3.575647e-10	0.046810348	0.046810348	0	48043.758	47432.32	-2.9188255e-05	630726.94	259102	-0.000328425	266564.44	626769.8	-0.00021671079
0	0.6407893	0.63260573	-3.7462233e-10	0.04666901	0.04666901	0	48033.773	47420.336	-2.8284336e-05	630830.1	258787.47	-0.0002875934	266274.84	626860.5	-0.00024066033
0	0.6406558	0.63244534	-6.073436e-10	0.046527795	0.046527795	0	48023.773	47408.32	-4.2224816e-05	630933.4	258472.28	-0.00040885597	265984.75	626951.3	-0.00037975772
0	0.64052194	0.6322847	-1.5555827e-10	0.046386022	0.046386022	0	48013.734	47396.266	-1.62217e-05	631036.6	258156.5	-0.00015382383	265694.1	627042.06	-0.0001491415
0	0.64038783	0.6321235	-1.6677049e-10	0.046244673	0.046244673	0	48003.684	47384.188	-1.3311534e-05	631139.94	257840.14	-0.00013988905	265403.06	627132.8	-0.000108724416
0	0.6402533	0.6319618	-2.4007746e-10	0.046103455	0.046103455	0	47993.594	47372.07	-1.9482977e-05	631243.4	257522.98	-0.00027756885	265111.22	627223.7	-8.630587e-05
0	0.6401186	0.6317998	-3.6141262e-10	0.045962088	0.045962088	0	47983.496	47359.92	-2.042359e-05	631346.75	257205.34	-0.00024604765	264819.16	627314.44	-0.00013539447
0	0.6399831	0.6316371	-2.7944363e-10	0.045820434	0.045820434	0	47973.348	47347.727	-2.3883424e-05	631450.4	256886.61	-0.00023501807	264526	627405.3	-0.0002110418
0	0.63984776	0.631474	-1.5903223e-10	0.045679096	0.045679096	0	47963.195	47335.5	-1.7306447e-05	631554.2	256567.42	-0.00020770749	264232.75	627496.25	-0.00011551716
0	0.6397119	0.6313106	-4.1237305e-11	0.04553775	0.04553775	0	47953.01	47323.25	-9.462808e-06	631657.75	256247.75	-0.00011314007	263938.88	627587.06	-6.3592495e-05
0	0.6395757	0.63114667	-1.9229746e-10	0.045396097	0.045396097	0	47942.805	47310.96	-1.8495013e-05	631761.5	255927.36	-0.00019457446	263644.56	627678	-0.0001508485
0	0.63943917	0.63098216	-4.0513544e-11	0.04525476	0.04525476	0	47932.566	47298.633	-3.290415e-06	631865.4	255606.1	-9.775464e-05	263349.44	627768.94	3.6301048e-05
0	0.6393021	0.6308172	-1.2294228e-10	0.04511351	0.04511351	0	47922.3	47286.258	-1.2826034e-05	631969.3	255283.95	-0.00015974721	263053.6	627859.94	-7.979881e-05