# t (s)	mx ()	my ()	mz ()	B_extx (T)	B_exty (T)	B_extz (T)	m_fullx (A/m)	m_fully (A/m)	m_fullz (A/m)	m_full.region1x (A/m)	m_full.region1y (A/m)	m_full.region1z (A/m)	m_full.region2x (A/m)	m_full.region2y (A/m)	m_full.region2z (A/m)
0	0.63636726	0.63636583	-3.960503e-10	0.070710704	0.070710704	0	109415.41	109415.15	-6.7212975e-05	659086.94	231825.34	-0.00019037409	231827.28	659086.94	-0.00035687812
0	0.6360719	0.6360691	-3.752989e-10	0.07035722	0.07035722	0	109364.61	109364.13	-6.184041e-05	659310.75	231186.56	-0.00028902906	231189.9	659310.3	-0.0002249771
0	0.6357714	0.63576853	-3.5623807e-10	0.07000352	0.07000352	0	109312.945	109312.45	-6.051954e-05	659536.8	230539.66	-0.00031776325	230543.08	659536.3	-0.00019869237
0	0.6354685	0.6354656	-3.5393405e-10	0.06965005	0.06965005	0	109260.85	109260.375	-6.146596e-05	659763.56	229888.83	-0.0002820278	229892.22	659763.06	-0.00020567203
0	0.63516384	0.635161	-1.4442628e-10	0.06929643	0.06929643	0	109208.48	109208	-2.2642307e-05	659990.56	229235.42	-9.416363e-05	229238.81	659990	-0.00010271048
0	0.63485783	0.634855	-4.5806053e-10	0.068942994	0.068942994	0	109155.86	109155.375	-7.855054e-05	660217.3	228580.19	-0.0003953854	228583.61	660216.8	-0.00026534763
0	0.63455	0.63454735	-1.7665192e-10	0.06858929	0.06858929	0	109102.96	109102.47	-3.0496847e-05	660444.3	227922.48	-8.251646e-05	227925.89	660443.8	-0.0001509587
0	0.63424057	0.6342378	-2.871229e-10	0.06823583	0.06823583	0	109049.74	109049.26	-4.867479e-05	660671.5	227261.98	-0.00023633485	227265.36	660670.94	-0.00015168182
0	0.63392884	0.6339261	-3.9886544e-10	0.067882195	0.067882195	0	108996.15	108995.66	-6.97951e-05	660899.06	226597.9	-0.00023988677	226601.31	660898.56	-0.00033402434
0	0.63361573	0.633613	-1.6578067e-10	0.06752872	0.06752872	0	108942.305	108941.82	-3.0580566e-05	661126.6	225932	-0.00015089754	225935.4	661126.1	-0.00010658123
0	0.63330126	0.63329846	-5.793352e-10	0.06717502	0.06717502	0	108888.23	108887.74	-9.64804e-05	661354.1	225264.19	-0.00046177505	225267.56	661353.7	-0.00036957068
0	0.6329844	0.6329816	1.5611469e-10	0.066821605	0.066821605	0	108833.74	108833.28	2.3877714e-05	661582.06	224592.7	0.00016870131	224596.12	661581.5	7.000724e-05
0	0.6326658	0.632663	-4.0899728e-10	0.066468135	0.066468135	0	108778.98	108778.49	-6.8292844e-05	661810.2	223918.58	-0.00035557488	223921.97	661809.6	-0.00020947638
0	0.63234544	0.6323427	-4.443955e-11	0.06611443	0.06611443	0	108723.9	108723.42	-1.0391392e-05	662038.25	223241.98	7.218338e-05	223245.38	662037.8	-0.00013226704
0	0.632023	0.63202024	-2.9202823e-10	0.065760985	0.065760985	0	108668.46	108667.99	-5.341844e-05	662266.8	222562.1	-0.000232849	222565.5	662266.2	-0.00022513448
0	0.63170004	0.6316971	-3.0135325e-10	0.06540732	0.06540732	0	108612.91	108612.42	-5.03487e-05	662494.56	221882	-0.00025771692	221885.39	662494	-0.00018004766
0	0.63137376	0.63137096	-3.8834316e-10	0.0650539	0.0650539	0	108556.83	108556.35	-6.600341e-05	662723.4	221196.48	-0.0003686528	221199.89	662722.9	-0.00016362488
0	0.63104635	0.6310436	-5.3665455e-10	0.064700216	0.064700216	0	108500.54	108500.05	-9.183827e-05	662951.8	220509.73	-0.00039401936	220513.12	662951.4	-0.00036636193
0	0.6307152	0.63071245	-1.00415204e-10	0.06434676	0.06434676	0	108443.59	108443.11	-2.161241e-05	663181.56	219816.25	-0.000101430116	219819.66	663181.2	-3.4860495e-05
0	0.6303796	0.6303768	-2.2346418e-10	0.0639931	0.0639931	0	108385.89	108385.41	-3.916172e-05	663413.4	219114.67	-0.00010744395	219118.1	663412.9	-0.00020313224
0	0.6300511	0.6300484	-3.089558e-10	0.06363964	0.06363964	0	108329.43	108328.945	-5.1405066e-05	663638.94	218429.3	-0.00014545141	218432.69	663638.5	-0.0002726888
0	0.6297172	0.6297143	-2.8758246e-10	0.06328595	0.06328595	0	108272	108271.52	-4.858863e-05	663867.25	217733.33	-0.0001477831	217736.73	663866.9	-0.00024627626
0	0.62938017	0.6293775	-1.026086e-10	0.0629325	0.0629325	0	108214.055	108213.586	-1.9327217e-05	664096.3	217032.56	-2.4236337e-05	217035.97	664095.9	-0.00012899362
0	0.6290415	0.6290387	-4.5070843e-11	0.06257904	0.06257904	0	108155.82	108155.336	-6.068971e-06	664325.3	216329.25	-9.750352e-05	216332.69	664325	4.7064488e-05
0	0.62870055	0.6286978	-2.2939768e-10	0.062225346	0.062225346	0	108097.195	108096.73	-3.8958064e-05	664554.7	215622.73	-9.961609e-05	215626.12	664554.3	-0.0002161633
0	0.6283568	0.62835413	-2.3292085e-10	0.06187191	0.06187191	0	108038.11	108037.65	-4.0849143e-05	664784.44	214911.69	-0.00026363594	214915.1	664784.1	-4.989752e-05
0	0.62801296	0.62801015	-3.1260194e-10	0.061518222	0.061518222	0	107978.984	107978.51	-5.1156196e-05	665013.4	214201.33	-0.0001896409	214204.7	665012.94	-0.00025259217
0	0.6276663	0.62766355	4.991499e-11	0.061164826	0.061164826	0	107919.375	107918.89	1.1252745e-05	665242.8	213486.53	0.00017084976	213489.9	665242.5	-8.0449405e-05
0	0.6273149	0.6273122	-9.3578936e-11	0.060811136	0.060811136	0	107858.96	107858.49	-1.694809e-05	665474	212763.5	6.728544e-05	212766.94	665473.56	-0.00019531789
0	0.6269669	0.6269641	-1.6206872e-10	0.060457677	0.060457677	0	107799.11	107798.64	-2.863668e-05	665701.9	212048.27	-0.0001508006	212051.67	665701.56	-7.4754294e-05
0	0.62661403	0.62661135	-2.633522e-10	0.06010401	0.06010401	0	107738.44	107737.984	-3.987103e-05	665931.6	211324.61	-0.00025860214	211328.05	665931.25	-6.800596e-05
0	0.62625945	0.6262568	-2.228048e-11	0.05975055	0.05975055	0	107677.49	107677.02	-5.7665816e-06	666161.25	210598.61	5.4818833e-05	210602.02	666160.8	-8.1990846e-05
0	0.6259026	0.6258999	-2.1913633e-10	0.059396874	0.059396874	0	107616.125	107615.664	-3.6072834e-05	666390.94	209869.28	-0.00019820497	209872.64	666390.6	-9.9176e-05
0	0.62554383	0.6255411	-5.762083e-10	0.059043404	0.059043404	0	107554.43	107553.98	-9.9882425e-05	666620.75	209137.17	-0.00050133746	209140.58	666620.4	-0.00032717126
0	0.62518245	0.62517977	3.1631492e-10	0.05868994	0.05868994	0	107492.32	107491.87	5.4954533e-05	666850.8	208401.4	0.0004656274	208404.78	666850.44	2.1617832e-06
0	0.62481976	0.624817	-3.4968253e-10	0.05833627	0.05833627	0	107429.94	107429.484	-6.0655417e-05	667080.4	207663.81	-0.00027495195	207667.23	667080.06	-0.00023479323
0	0.624453	0.6244503	-2.4339294e-10	0.057982814	0.057982814	0	107366.9	107366.43	-3.9825823e-05	667311.1	206919.72	-0.0002569381	206923.14	667310.8	-0.00010917753
0	0.6240876	0.6240849	-2.456334e-10	0.057629142	0.057629142	0	107304.06	107303.61	-4.335048e-05	667540	206179.12	-0.0002469799	206182.53	667539.7	-8.9087436e-05
0	0.6237183	0.6237157	1.13934216e-10	0.057275668	0.057275668	0	107240.57	107240.11	1.7574956e-05	667769.94	205432.39	0.00012263785	205435.8	667769.5	6.0587132e-05
0	0.6233466	0.62334394	-4.8378834e-10	0.056922063	0.056922063	0	107176.664	107176.195	-8.625623e-05	667999.9	204681.95	-0.0004957384	204685.36	667999.5	-0.00022966607
0	0.62297195	0.6229692	-1.6289678e-10	0.0565686	0.0565686	0	107112.234	107111.76	-2.9006113e-05	668230.4	203926.86	-6.2640993e-06	203930.25	668230	-0.00021873963
0	0.62259734	0.6225947	2.3029666e-10	0.056214936	0.056214936	0	107047.84	107047.375	4.1705072e-05	668459.5	203173.36	0.00019037306	203176.75	668459.25	0.00015734335
0	0.6222194	0.6222168	-1.2009808e-10	0.05586146	0.05586146	0	106982.85	106982.4	-1.8707919e-05	668689.4	202414.39	-0.000105637715	202417.8	668689.06	-4.817183e-05
0	0.62183934	0.6218367	-1.3954618e-10	0.055507805	0.055507805	0	106917.51	106917.055	-2.5918593e-05	668919.1	201652.56	9.3312365e-06	201655.95	668918.9	-0.00022431138
0	0.6214498	0.62144715	-2.4241095e-10	0.055154327	0.055154327	0	106850.53	106850.06	-4.4860106e-05	669153.1	200873.27	-0.00016867243	200876.62	669152.9	-0.00021600771
0	0.621064	0.62106144	-1.5946738e-10	0.054800846	0.054800846	0	106784.2	106783.74	-2.9642824e-05	669383.8	200102.5	-0.00030431934	200105.89	669383.4	8.3031635e-05
0	0.6206853	0.6206828	-4.2261078e-10	0.05444718	0.05444718	0	106719.08	106718.625	-7.3436466e-05	669608.5	199347.53	-0.0003247431	199350.89	669608.3	-0.0002838051
0	0.62029624	0.6202936	-3.0569963e-10	0.054093722	0.054093722	0	106652.18	106651.73	-5.4298194e-05	669838.25	198573.08	-0.0002871739	198576.47	669838	-0.00015549755
0	0.61990494	0.61990225	-1.7481872e-10	0.053740054	0.053740054	0	106584.9	106584.445	-2.7083282e-05	670067.94	197795.55	-0.00026984283	197798.92	670067.6	5.0004208e-05
0	0.6195107	0.6195081	-1.8274673e-10	0.053386588	0.053386588	0	106517.11	106516.664	-3.175697e-05	670297.75	197013.81	-0.00012330791	197017.19	670297.5	-0.00014084198
0	0.6191151	0.61911255	-3.334748e-10	0.053032987	0.053032987	0	106449.1	106448.664	-6.0249753e-05	670527.06	196230.64	-0.00023395872	196234.03	670526.8	-0.00025792271
0	0.6187122	0.61870956	-1.3853044e-10	0.05267951	0.05267951	0	106379.82	106379.38	-1.9101812e-05	670759	195434.6	-0.00010680408	195437.98	670758.8	-6.295937e-05
0	0.6183165	0.61831385	-3.5036177e-10	0.05232584	0.05232584	0	106311.77	106311.33	-5.708266e-05	670985.8	194653.8	-0.00030562523	194657.14	670985.56	-0.00022431184
0	0.61791354	0.61791086	5.72847e-11	0.05197238	0.05197238	0	106242.516	106242.06	9.178556e-06	671215	193860.52	0.00011892997	193863.86	671214.9	-3.2815486e-05
0	0.6175078	0.61750525	-3.654944e-10	0.051618718	0.051618718	0	106172.75	106172.305	-6.53964e-05	671444.5	193063.11	-0.00035592684	193066.45	671444.3	-0.00017881008
0	0.6171001	0.6170975	-3.066179e-10	0.05126525	0.05126525	0	106102.65	106102.195	-5.2189574e-05	671673.56	192263.14	-0.00024103279	192266.5	671673.4	-0.00019359306
0	0.61668307	0.61668044	-2.1339196e-10	0.05091175	0.05091175	0	106030.93	106030.49	-4.2473013e-05	671906.4	191446.47	-0.00016561127	191449.83	671906.1	-0.00017551305
0	0.6162776	0.6162751	-3.1608596e-10	0.0505581	0.0505581	0	105961.24	105960.8	-5.7165184e-05	672131.3	190654	-0.00028196574	190657.33	672131.2	-0.00015428248
0	0.6158625	0.61586	-4.1028028e-10	0.050204627	0.050204627	0	105889.87	105889.42	-7.125819e-05	672360.25	189843.94	-0.00021217235	189847.3	672359.94	-0.00036679965
0	0.6154452	0.61544263	-6.002601e-11	0.049850974	0.049850974	0	105818.11	105817.664	-1.0010694e-05	672588.8	189031.06	-8.353083e-05	189034.42	672588.7	-2.121986e-06
0	0.6150252	0.61502266	-2.3494579e-10	0.049497493	0.049497493	0	105745.9	105745.45	-3.8497e-05	672817.3	188214.58	-0.00012526166	188217.9	672817.1	-0.0002130059
0	0.6146032	0.6146007	1.1410101e-10	0.049143914	0.049143914	0	105673.34	105672.91	2.1477097e-05	673045.56	187395.62	-2.5587713e-05	187398.97	673045.4	0.00021950393
0	0.6141777	0.61417526	3.970708e-11	0.04879043	0.04879043	0	105600.195	105599.76	5.5944583e-06	673274.1	186571.42	-1.2712715e-05	186574.72	673273.94	7.782698e-05
0	0.61375046	0.613748	-1.8320356e-10	0.04843677	0.04843677	0	105526.734	105526.305	-3.160629e-05	673502.2	185745.28	-0.00013372111	185748.58	673501.94	-0.00011912848
0	0.6133199	0.61331743	3.8017395e-11	0.04808329	0.04808329	0	105452.68	105452.27	6.962612e-06	673730.4	184914.2	-4.0953455e-05	184917.53	673730.1	0.00010169149
0	0.612888	0.61288553	-3.8088332e-10	0.04772965	0.04772965	0	105378.414	105378.01	-6.65902e-05	673957.9	184082.03	-0.0002673985	184085.33	673957.7	-0.0002677384
0	0.61245304	0.61245054	-4.402415e-10	0.047376156	0.047376156	0	105303.65	105303.23	-7.465081e-05	674185.4	183245.6	-0.0004574917	183248.94	674185.2	-0.0001774552
0	0.61201537	0.61201286	-2.7520933e-10	0.04702266	0.04702266	0	105228.39	105227.97	-4.8012196e-05	674412.7	182405.47	-0.000119847544	182408.78	674412.56	-0.0002643171
0	0.611575	0.6115725	-4.2072992e-10	0.046669014	0.046669014	0	105152.67	105152.24	-7.876357e-05	674640.06	181561.66	-0.00045926598	181564.97	674639.94	-0.00016088093
0	0.6111321	0.61112964	-2.9547217e-10	0.046315536	0.046315536	0	105076.52	105076.1	-5.0579747e-05	674867	180714.66	-0.00012890404	180717.97	674866.8	-0.00027159578
0	0.6106867	0.6106843	-4.1618328e-10	0.045961887	0.045961887	0	104999.96	104999.54	-7.043125e-05	675093.6	179864.56	-0.00027928842	179867.86	675093.5	-0.00030179872
0	0.6102383	0.6102359	-2.0946253e-10	0.045608394	0.045608394	0	104922.85	104922.43	-3.466524e-05	675320.3	179010	-0.00019142452	179013.28	675320.2	-9.8562e-05
0	0.6097872	0.60978484	-3.961192e-10	0.04525483	0.04525483	0	104845.305	104844.9	-6.640954e-05	675546.7	178152.25	-0.00032412133	178155.55	675546.6	-0.0002456
0	0.609334	0.6093315	-5.201951e-10	0.044901334	0.044901334	0	104767.36	104766.945	-9.240379e-05	675772.7	177291.55	-0.0005182947	177294.83	675772.6	-0.00027423518
0	0.60886985	0.6088674	-5.246662e-10	0.044547696	0.044547696	0	104687.57	104687.14	-8.921068e-05	676002.44	176412.12	-0.00036483054	176415.39	676002.3	-0.00039209117
0	0.60841846	0.6084161	-2.2668126e-10	0.04419421	0.04419421	0	104609.945	104609.54	-3.779497e-05	676224.25	175558.31	-0.00022344741	175561.58	676224.2	-8.464697e-05
0	0.6079489	0.6079465	-4.912872e-10	0.04384058	0.04384058	0	104529.22	104528.8	-8.266402e-05	676453.4	174671.73	-0.00031935333	174675.02	676453.4	-0.00038400036
0	0.60749197	0.60748965	-2.5899435e-10	0.043487065	0.043487065	0	104450.66	104450.24	-4.3978183e-05	676674.6	173810.77	-1.953458e-05	173814.02	676674.56	-0.00035324285
0	0.60702515	0.6070228	-4.5405086e-11	0.04313356	0.04313356	0	104370.39	104369.984	-6.2721856e-06	676899.2	172932.86	-9.378709e-05	172936.11	676899.06	4.030535e-05
0	0.6065546	0.60655236	-3.3043862e-10	0.042779934	0.042779934	0	104289.484	104289.07	-5.7782763e-05	677123.8	172049.36	-0.00035049912	172052.58	677123.75	-0.00012710584
0	0.60608166	0.60607934	-5.7307437e-10	0.04242642	0.04242642	0	104208.18	104207.77	-9.8183664e-05	677347.94	171163.23	-0.000411254	171166.45	677347.94	-0.00040333043
0	0.6056053	0.6056031	-3.8796885e-10	0.04207281	0.04207281	0	104126.28	104125.89	-6.4560176e-05	677572	170272.31	-0.00035189235	170275.53	677572	-0.00017887187
0	0.60512704	0.6051246	1.5100038e-10	0.041719295	0.041719295	0	104044.016	104043.62	2.2665177e-05	677795.44	169379.08	-2.7282852e-06	169382.3	677795.5	0.00018987039
0	0.60464513	0.60464275	3.4434414e-11	0.041365758	0.041365758	0	103961.18	103960.766	8.9325495e-06	678018.75	168481.19	-8.532716e-08	168484.39	678018.8	7.483137e-05
0	0.60416037	0.60415804	-1.2327009e-10	0.041012242	0.041012242	0	103877.82	103877.43	-1.958439e-05	678241.7	167579.62	-0.00012977823	167582.81	678241.75	-4.7667898e-05
0	0.6036728	0.6036705	-1.6132976e-10	0.040658627	0.040658627	0	103794	103793.62	-3.0554005e-05	678464.25	166674.5	-7.332212e-05	166677.69	678464.3	-0.00016811493
0	0.6031829	0.60318065	-3.803853e-10	0.040305126	0.040305126	0	103709.766	103709.37	-6.725777e-05	678686.25	165766.67	-0.00047696495	165769.89	678686.3	-7.637972e-05
0	0.602689	0.6026868	-3.2085898e-10	0.03995151	0.03995151	0	103624.86	103624.45	-5.4380238e-05	678908.25	164853.31	-0.00010208812	164856.52	678908.25	-0.00035544691
0	0.6021908	0.6021885	3.2664463e-10	0.039597988	0.039597988	0	103539.18	103538.78	5.6594607e-05	679130.5	163933.47	3.730227e-05	163936.67	679130.44	0.0004606089
0	0.60169303	0.6016909	-2.8619537e-10	0.03924446	0.03924446	0	103453.6	103453.22	-4.915758e-05	679350.56	163016.48	-0.00012250664	163019.64	679350.7	-0.00029486703
0	0.60119075	0.60118854	-1.1468188e-11	0.03889085	0.03889085	0	103367.24	103366.85	-1.2690825e-06	679571.2	162092.69	-7.4165923e-06	162095.84	679571.3	-1.2816333e-05
0	0.600685	0.60068274	-3.4359354e-10	0.03853732	0.03853732	0	103280.27	103279.91	-6.0664355e-05	679791.5	161164.34	-0.00033592613	161167.5	679791.56	-0.00017264107
0	0.6001766	0.6001743	-3.3068098e-10	0.03818373	0.03818373	0	103192.85	103192.47	-5.7908637e-05	680011.25	160232.69	-0.00042080306	160235.84	680011.3	-4.7973277e-05
0	0.599665	0.5996628	-1.9226898e-10	0.0378302	0.0378302	0	103104.9	103104.53	-3.809545e-05	680230.56	159297.25	-0.00013977454	159300.42	680230.56	-0.00015433284
0	0.59914964	0.5991475	-1.0939692e-10	0.03747659	0.03747659	0	103016.3	103015.93	-2.0144887e-05	680449.5	158356.84	-0.00018935058	158360	680449.7	4.1185875e-05
0	0.59863216	0.59862995	5.8189276e-11	0.037123155	0.037123155	0	102927.32	102926.945	1.1809595e-05	680667.8	157414.03	-0.000108560635	157417.16	680667.94	0.00018019653
0	0.5981105	0.59810835	-2.3059944e-10	0.036769558	0.036769558	0	102837.61	102837.234	-3.9077044e-05	680886.06	156465.5	-0.000247526	156468.67	680886.06	-9.044053e-05
0	0.59758615	0.5975841	-3.3904296e-11	0.036416043	0.036416043	0	102747.48	102747.1	-6.9217804e-06	681103.44	155514.16	-0.00024591465	155517.27	681103.56	0.00019122499
0	0.5970589	0.5970566	-3.8774248e-10	0.036062438	0.036062438	0	102656.8	102656.44	-6.4807864e-05	681320.44	154558.83	-0.0003742912	154561.94	681320.56	-0.00017217509
0	0.59652126	0.5965191	-6.16421e-11	0.035708897	0.035708897	0	102564.36	102564.016	-1.23630525e-05	681539.6	153587.11	-3.0555807e-06	153590.2	681539.7	-8.389854e-05
0	0.5959943	0.59599227	-2.3676008e-10	0.035355352	0.035355352	0	102473.77	102473.39	-4.131614e-05	681752.6	152636.28	-0.00027695287	152639.38	681752.8	-5.907809e-05
0	0.59545624	0.59545416	-5.710671e-10	0.03500176	0.03500176	0	102381.26	102380.9	-9.919289e-05	681968.4	151667.27	-0.0005746711	151670.38	681968.5	-0.00024466997
0	0.5949153	0.5949133	-5.129272e-10	0.034648214	0.034648214	0	102288.26	102287.89	-9.091249e-05	682183.3	150695.11	-0.00040029085	150698.19	682183.44	-0.0003560947
0	0.59437126	0.59436923	-5.97228e-11	0.034294646	0.034294646	0	102194.72	102194.37	-8.164343e-06	682397.7	149719.12	-1.6322754e-05	149722.19	682397.8	-4.4408494e-05
0	0.59382385	0.5938218	-3.858845e-10	0.033941098	0.033941098	0	102100.6	102100.25	-6.455851e-05	682611.5	148738.97	-0.0001778066	148742.03	682611.6	-0.00033802993
0	0.5932739	0.5932718	-2.1642646e-10	0.03358751	0.03358751	0	102006.04	102005.67	-3.6093927e-05	682824.3	147756	-0.00017362401	147759.06	682824.56	-0.00011250492
0	0.59271234	0.5927103	-1.6457367e-10	0.033234067	0.033234067	0	101909.484	101909.13	-2.7809236e-05	683039.7	146754.58	-0.00012637913	146757.62	683039.94	-0.00010967049
0	0.5921612	0.59215915	-2.568991e-10	0.032880493	0.032880493	0	101814.7	101814.37	-4.0797964e-05	683249.25	145773.38	-0.00020991047	145776.4	683249.5	-0.00013335566
0	0.59160006	0.5915981	-4.7298415e-10	0.03252695	0.03252695	0	101718.24	101717.89	-7.9105106e-05	683460.7	144776.39	-0.0003371053	144779.42	683460.9	-0.00032042136
0	0.59103525	0.59103316	-2.1613558e-10	0.03217338	0.03217338	0	101621.12	101620.766	-3.9768307e-05	683671.5	143774.73	-0.00022801507	143777.77	683671.7	-9.733912e-05
0	0.59046704	0.59046507	-3.096896e-10	0.03181982	0.03181982	0	101523.43	101523.09	-5.2554475e-05	683881.7	142769.34	-0.0002148157	142772.33	683881.8	-0.00023560852
0	0.5898962	0.5898942	-4.8288173e-10	0.03146625	0.03146625	0	101425.28	101424.94	-8.51527e-05	684090.8	141760.89	-0.00025045	141763.89	684091	-0.00045016553
0	0.58932024	0.5893183	-6.393348e-10	0.031112673	0.031112673	0	101326.24	101325.914	-0.000110116125	684299.9	140745.52	-0.00060955266	140748.5	684300.06	-0.0002857753
0	0.5887416	0.58873963	-7.813624e-11	0.030759111	0.030759111	0	101226.74	101226.42	-1.6019269e-05	684507.94	139727.38	-0.00015379116	139730.36	684508.1	4.0093375e-05
0	0.58815914	0.5881571	-2.4724117e-10	0.030405568	0.030405568	0	101126.59	101126.27	-4.1799223e-05	684715.25	138704.4	-0.00015597374	138707.36	684715.56	-0.00020699615
0	0.5875727	0.5875708	-1.1320432e-11	0.030052004	0.030052004	0	101025.766	101025.45	-1.634121e-06	684922.06	137676.69	-7.740982e-05	137679.66	684922.3	6.9233785e-05
0	0.58698314	0.58698124	-3.331034e-10	0.029698437	0.029698437	0	100924.41	100924.08	-5.4002252e-05	685127.94	136645.5	-0.00021932725	136648.42	685128.2	-0.00021236723
0	0.58639026	0.5863884	-1.4390237e-11	0.02934497	0.02934497	0	100822.484	100822.16	-3.4699488e-06	685332.94	135610.56	5.8659425e-05	135613.47	685333.2	-6.200387e-05
0	0.5857864	0.5857846	-1.7323028e-10	0.028991407	0.028991407	0	100718.67	100718.35	-3.0142552e-05	685539.6	134558.56	-0.00029667057	134561.48	685539.9	5.8973834e-05
0	0.5851913	0.58518934	-6.2039907e-10	0.028637834	0.028637834	0	100616.336	100616.016	-0.000107015134	685741.25	133523.56	-0.0006870503	133526.47	685741.75	-0.00020152096
0	0.5845869	0.5845851	-1.3695776e-10	0.0282843	0.0282843	0	100512.414	100512.09	-2.3604474e-05	685944	132474.7	-0.00018583964	132477.6	685944.4	-6.1366245e-07
0	0.58397806	0.5839763	2.0328342e-10	0.02793073	0.02793073	0	100407.73	100407.41	3.1228778e-05	686146.25	131420.2	0.00023971374	131423.05	686146.5	4.5187327e-05
0	0.5833655	0.5833637	-1.4331658e-10	0.027577164	0.027577164	0	100302.41	100302.1	-2.1256266e-05	686347.44	130361.3	-0.00016190442	130364.19	686347.9	-4.0056857e-05
0	0.58274287	0.5827411	-5.6193783e-10	0.02722359	0.02722359	0	100195.336	100195.04	-9.699659e-05	686550.06	129287.06	-0.00031302503	129289.9	686550.44	-0.00047588724
0	0.5821284	0.5821267	-2.7841016e-10	0.026870027	0.026870027	0	100089.71	100089.41	-4.6803503e-05	686747.7	128229.27	-0.0002466857	128232.1	686748.06	-0.00015497948
0	0.58150536	0.58150357	-5.014019e-10	0.026516493	0.026516493	0	99982.58	99982.27	-8.289486e-05	686946.1	127158.555	-0.00020354585	127161.38	686946.5	-0.00049723167
0	0.5808772	0.5808755	-1.281848e-10	0.02616292	0.02616292	0	99874.586	99874.27	-1.5322832e-05	687143.94	126081.35	-0.00029814814	126084.164	687144.3	0.0001581452
0	0.5802449	0.58024323	-3.991848e-10	0.025809359	0.025809359	0	99765.87	99765.57	-7.233837e-05	687340.9	124999.24	-0.00018904568	125002.03	687341.25	-0.00037619428
0	0.5796091	0.5796073	-8.433888e-10	0.025455875	0.025455875	0	99656.54	99656.25	-0.00014141655	687536.8	123913.15	-0.0006936717	123915.94	687537.1	-0.00048282504
0	0.57896876	0.57896715	-9.195385e-11	0.025102314	0.025102314	0	99546.445	99546.16	-1.6437665e-05	687731.94	122821.625	-7.8438745e-05	122824.4	687732.25	-5.6267967e-05
0	0.5783249	0.57832325	1.755348e-13	0.024748746	0.024748746	0	99435.74	99435.45	5.792033e-06	687925.9	121726.21	-0.00012190196	121728.95	687926.3	0.00017127332
0	0.5776765	0.57767487	-3.0950395e-10	0.024395214	0.024395214	0	99324.24	99323.97	-5.718302e-05	688119	120625.266	-0.00041752998	120628	688119.4	-3.892254e-05
0	0.5770245	0.5770229	-2.3815486e-10	0.024041645	0.024041645	0	99212.14	99211.86	-3.7482267e-05	688311.06	119520.48	-0.00046996528	119523.21	688311.44	0.0001605902
0	0.5763673	0.5763657	-2.4639352e-10	0.023688078	0.023688078	0	99099.16	99098.88	-4.063221e-05	688502.3	118409.234	-0.00021266495	118411.945	688502.75	-8.6476255e-05
0	0.57570744	0.5757059	-1.7571672e-10	0.023334507	0.023334507	0	98985.71	98985.42	-2.9330164e-05	688692.1	117295.66	-0.000119203956	117298.35	688692.5	-0.000113637696
0	0.57504135	0.57503974	-1.2043491e-10	0.022980943	0.022980943	0	98871.18	98870.9	-1.9980487e-05	688881.3	116173.84	-7.244673e-05	116176.516	688881.8	-7.0284295e-05
0	0.57437253	0.5743709	-5.1544896e-10	0.022627415	0.022627415	0	98756.18	98755.92	-8.866652e-05	689069.25	115049.6	-0.00040228813	115052.26	689069.75	-0.00033705548
0	0.5736985	0.5736969	4.7588586e-11	0.022273848	0.022273848	0	98640.29	98640.02	1.0877725e-05	689256.25	113918.95	-4.699136e-05	113921.59	689256.75	0.00014436727
0	0.57302064	0.5730191	-2.1917174e-10	0.02192029	0.02192029	0	98523.734	98523.48	-3.955672e-05	689442	112784.164	-0.00040701387	112786.81	689442.5	9.347492e-05
0	0.5723315	0.57233	-4.864877e-10	0.02156678	0.02156678	0	98405.25	98404.99	-8.04632e-05	689628.5	111632.984	-0.00039268465	111635.61	689629	-0.00028902487
0	0.57165146	0.5716501	-3.372389e-10	0.02121321	0.02121321	0	98288.33	98288.08	-5.6374727e-05	689810.3	110499.32	-0.00031181896	110501.92	689810.8	-0.00016227075
0	0.57096106	0.57095957	2.4685307e-10	0.020859648	0.020859648	0	98169.61	98169.35	4.3898286e-05	689992.4	109350.43	5.409123e-05	109353.04	689992.94	0.000304331
0	0.57026505	0.57026356	-1.04449824e-10	0.020506121	0.020506121	0	98049.945	98049.69	-2.00191e-05	690173.6	108194.77	-0.00050021743	108197.36	690174.25	0.0003656611
0	0.5695645	0.5695631	2.7126534e-11	0.020152563	0.020152563	0	97929.51	97929.25	6.869629e-06	690353.7	107034.055	-7.829666e-05	107036.6	690354.3	0.00013060847
0	0.5688607	0.56885934	-4.6268445e-10	0.019798994	0.019798994	0	97808.48	97808.25	-7.995532e-05	690532.3	105870.18	-0.00040730866	105872.72	690532.8	-0.00023203771
0	0.5681507	0.5681493	-2.46375e-10	0.019445425	0.019445425	0	97686.414	97686.18	-4.1652005e-05	690710	104698.44	-0.00022994523	104700.96	690710.56	-0.00010439349
0	0.56743693	0.5674356	-1.7085565e-10	0.019091865	0.019091865	0	97563.68	97563.45	-2.6556172e-05	690886.25	103522.98	-0.00016657976	103525.47	690886.8	-6.671392e-05
0	0.5667189	0.5667176	-3.4140274e-10	0.018738296	0.018738296	0	97440.234	97440	-6.0297127e-05	691061	102342.99	-0.00026219044	102345.48	691061.7	-0.00021985997
0	0.56599575	0.5659944	-1.4219055e-10	0.018384779	0.018384779	0	97315.89	97315.68	-2.4681927e-05	691234.6	101156.87	-0.00019493554	101159.34	691235.4	6.4889364e-06
0	0.56526697	0.5652658	-3.1307165e-10	0.018031219	0.018031219	0	97190.61	97190.37	-5.062174e-05	691407.1	99964.16	-0.00025924545	99966.59	691407.94	-0.00017259465
0	0.56453437	0.5645331	-2.4358432e-10	0.017677676	0.017677676	0	97064.64	97064.42	-4.37596e-05	691578.1	98767.62	-0.00013422311	98770.06	691578.75	-0.00020118366
0	0.56379217	0.5637909	1.8604807e-10	0.017324107	0.017324107	0	96937	96936.78	2.7924061e-05	691748.8	97557.79	1.1731771e-05	97560.22	691749.44	0.0002548576
0	0.5630547	0.5630534	-3.4038586e-10	0.016970549	0.016970549	0	96810.23	96810.01	-6.468872e-05	691915.8	96358.234	-0.00045700296	96360.64	691916.6	-6.1015893e-05
0	0.5623012	0.56229997	-6.531705e-10	0.016617034	0.016617034	0	96680.67	96680.445	-0.00010970767	692084.1	95135.21	-0.00037608165	95137.586	692084.75	-0.0005684784
0	0.56155497	0.5615538	2.0010577e-11	0.016263476	0.016263476	0	96552.36	96552.14	4.68117e-06	692248.2	93926.47	0.00014115963	93928.836	692248.8	-0.00012406574
0	0.5607984	0.56079715	-9.075285e-11	0.01590991	0.01590991	0	96422.27	96422.08	-1.7891503e-05	692411.9	92703.51	-0.0001317774	92705.85	692412.6	-1.6019242e-06
0	0.560036	0.5600348	4.7164474e-11	0.015556336	0.015556336	0	96291.19	96290.99	8.962415e-06	692574.4	91473.63	-6.222349e-05	91475.945	692575.1	0.00018282895
0	0.5592693	0.5592682	-2.838039e-10	0.015202784	0.015202784	0	96159.375	96159.17	-4.3269167e-05	692735.1	90239.66	-6.892733e-05	90241.95	692735.9	-0.0002866112
0	0.5584965	0.5584954	-1.2167671e-10	0.014849219	0.014849219	0	96026.49	96026.305	-1.9603243e-05	692894.5	88998.29	-0.00033957502	89000.56	692895.25	0.00014412774
0	0.55771977	0.55771863	3.3020262e-10	0.014495703	0.014495703	0	95892.94	95892.74	5.7171794e-05	693052.2	87753.15	0.00011861928	87755.414	693053	0.00036249316
0	0.5569369	0.55693597	1.5335675e-11	0.01414215	0.01414215	0	95758.37	95758.18	5.5219575e-06	693208.44	86501.17	-0.00026467332	86503.414	693209.2	0.00029318442
0	0.5561491	0.5561481	-3.3186298e-10	0.013788582	0.013788582	0	95622.89	95622.71	-5.753608e-05	693363	85243.53	-0.00031482932	85245.74	693363.75	-0.00013179219
0	0.55535626	0.55535525	-3.8876144e-10	0.013435014	0.013435014	0	95486.56	95486.38	-6.976872e-05	693515.94	83980.66	-0.00036082117	83982.87	693516.6	-0.00018009201
0	0.55455786	0.55455685	-1.0705762e-10	0.01308146	0.01308146	0	95349.29	95349.12	-1.9826233e-05	693667.1	82711.68	-0.00026870795	82713.86	693667.9	9.2236565e-05
0	0.55375427	0.5537533	-2.33106e-10	0.012727938	0.012727938	0	95211.13	95210.96	-3.8553313e-05	693816.75	81437.15	-0.0002856726	81439.31	693817.5	-3.277382e-05
0	0.5529454	0.5529445	-3.041696e-10	0.012374373	0.012374373	0	95072.06	95071.88	-5.1836385e-05	693964.56	80156.98	-0.00025426035	80159.11	693965.25	-0.00018983478
0	0.55213106	0.55213004	-2.9360034e-10	0.012020823	0.012020823	0	94932.03	94931.875	-4.9033537e-05	694110.56	78870.734	-0.00023129882	78872.85	694111.4	-0.0001741235
0	0.5513113	0.5513105	2.3274441e-10	0.011667253	0.011667253	0	94791.1	94790.945	4.3198594e-05	694254.9	77578.96	-2.4460549e-05	77581.05	694255.7	0.00037684897
0	0.5504868	0.5504859	8.67801e-11	0.011313708	0.011313708	0	94649.32	94649.18	1.4901216e-05	694397.1	76282.234	-7.695324e-06	76284.31	694398.06	0.00014524643
0	0.5496551	0.5496542	4.5086115e-11	0.010960145	0.010960145	0	94506.31	94506.18	7.816553e-06	694538.06	74977.04	-7.55709e-05	74979.08	694538.94	0.00013530185
0	0.5488182	0.54881746	-8.975033e-10	0.010606605	0.010606605	0	94362.43	94362.29	-0.00015628217	694676.9	73666.664	-0.0006459832	73668.69	694677.7	-0.00064877723
0	0.54797614	0.5479753	-1.8947267e-10	0.010253061	0.010253061	0	94217.65	94217.51	-3.3273394e-05	694813.7	72350.91	-0.00021198973	72352.91	694814.6	-5.7431564e-05
0	0.54712856	0.54712784	-1.8245291e-10	0.009899497	0.009899497	0	94071.914	94071.79	-3.0108258e-05	694948.7	71029.4	-0.00035133547	71031.375	694949.5	9.9937926e-05
0	0.5462754	0.54627466	-1.476826e-11	0.0095459325	0.0095459325	0	93925.23	93925.1	-1.2903679e-06	695081.7	69701.99	-3.2232176e-05	69703.945	695082.5	2.3475191e-05
0	0.54541534	0.54541457	2.4696209e-11	0.009192389	0.009192389	0	93777.34	93777.23	6.7221317e-06	695212.75	68366.77	-0.00011607459	68368.71	695213.7	0.0001946493
0	0.5445511	0.5445503	-4.326975e-10	0.008838838	0.008838838	0	93628.734	93628.625	-7.491888e-05	695341.6	67027.92	-0.00040961674	67029.83	695342.5	-0.00023759164
0	0.54367924	0.54367864	1.4759314e-11	0.008485274	0.008485274	0	93478.85	93478.72	5.546894e-06	695468.75	65680.35	-0.00027020773	65682.24	695469.7	0.00037184067
0	0.542802	0.5428013	9.8619585e-11	0.008131738	0.008131738	0	93328.016	93327.91	1.976057e-05	695593.6	64327.293	3.4159966e-05	64329.15	695594.6	9.563104e-05
0	0.5419189	0.5419182	-3.759631e-10	0.007778168	0.007778168	0	93176.18	93176.06	-6.1788945e-05	695716.4	62968.176	-0.0005308252	62970.004	695717.3	1.6315013e-05
0	0.5410294	0.5410288	-1.8182575e-10	0.0074246093	0.0074246093	0	93023.26	93023.13	-3.551537e-05	695837.1	61602.32	-0.00032937867	61604.137	695838.2	3.8907045e-05
0	0.54013455	0.5401339	-7.888296e-11	0.007071075	0.007071075	0	92869.38	92869.28	-1.481489e-05	695955.6	60231.016	-0.00018531957	60232.79	695956.5	6.681153e-05
0	0.53923273	0.5392322	-2.9325659e-10	0.006717507	0.006717507	0	92714.336	92714.234	-5.1217266e-05	696071.9	58852.273	-0.00015092004	58854.03	696072.9	-0.00026331923