# t (s)	mx ()	my ()	mz ()	B_extx (T)	B_exty (T)	B_extz (T)	m_fullx (A/m)	m_fully (A/m)	m_fullz (A/m)	m_full.region1x (A/m)	m_full.region1y (A/m)	m_full.region1z (A/m)	m_full.region2x (A/m)	m_full.region2y (A/m)	m_full.region2z (A/m)
0	0.6480747	0.6480753	-5.936618e-10	0.07071097	0.07071097	0	51777.94	51777.98	-4.6076006e-05	634275.2	273030.03	-0.0004622032	273029.38	634275.4	-0.00034518645
0	0.6479788	0.6479787	-1.641498e-10	0.070569366	0.070569366	0	51770.277	51770.27	-1.3120271e-05	634357	272813.44	-0.00013574299	272813.28	634356.75	-9.416346e-05
0	0.64787835	0.64787817	-6.2448074e-10	0.07042761	0.07042761	0	51762.258	51762.242	-5.1971932e-05	634445.5	272584.3	-0.0004293607	272584.25	634445.1	-0.0004813432
0	0.6477776	0.6477774	-3.014761e-10	0.07028633	0.07028633	0	51754.2	51754.188	-1.9284142e-05	634533.7	272354.97	-0.00021725887	272354.94	634533.3	-0.00012065704
0	0.6476765	0.6476763	-1.8313998e-10	0.07014479	0.07014479	0	51746.13	51746.113	-1.4863834e-05	634621.56	272125.62	-6.3056665e-05	272125.6	634621.2	-0.00019740222
0	0.64757544	0.6475753	-6.462775e-10	0.07000352	0.07000352	0	51738.055	51738.04	-4.0220108e-05	634709.4	271896.28	-0.0003470756	271896.22	634709.06	-0.0003577011
0	0.64747405	0.6474739	-4.0919032e-10	0.06986232	0.06986232	0	51729.96	51729.938	-2.7778873e-05	634797.94	271665.84	-0.00031898273	271665.8	634797.6	-0.0001677863
0	0.6473712	0.647371	-2.4595534e-10	0.0697207	0.0697207	0	51721.73	51721.72	-3.178446e-05	634887.06	271432.7	-0.0002521112	271432.66	634886.75	-0.00030484775
0	0.6472702	0.64727	-2.603922e-10	0.06957944	0.06957944	0	51713.668	51713.652	-2.9470835e-05	634974.75	271203.66	-0.00021289918	271203.62	634974.4	-0.0003035181
0	0.6471683	0.64716816	-5.312281e-10	0.0694377	0.0694377	0	51705.527	51705.508	-4.9409864e-05	635062.94	270972.78	-0.0004703206	270972.75	635062.6	-0.00039548823
0	0.64706564	0.6470654	-2.873155e-10	0.069296405	0.069296405	0	51697.316	51697.297	-2.1516065e-05	635151.7	270740.1	-0.00019980934	270740.06	635151.4	-0.00017721656
0	0.64696324	0.646963	-1.8824692e-10	0.06915487	0.06915487	0	51689.137	51689.13	-1.529704e-05	635240.06	270508.5	-0.00020124909	270508.47	635239.7	-6.680086e-05
0	0.6468603	0.64686006	-3.0552572e-10	0.0690136	0.0690136	0	51680.914	51680.895	-1.8940844e-05	635329	270275.38	-0.00022108069	270275.3	635328.7	-0.00011081961
0	0.646757	0.6467569	-4.4280135e-10	0.06887232	0.06887232	0	51672.67	51672.65	-3.6974743e-05	635417.4	270042.6	-0.00024208972	270042.53	635417	-0.00040581851
0	0.6466539	0.6466537	-3.7969114e-10	0.06873079	0.06873079	0	51664.434	51664.414	-3.5353813e-05	635506.25	269809.38	-0.00030874106	269809.3	635505.9	-0.0003107636
0	0.6465501	0.64654994	-3.9307732e-10	0.0685895	0.0685895	0	51656.133	51656.117	-3.0282405e-05	635595.2	269574.9	-0.00034532123	269574.84	635594.8	-0.00018531717
0	0.6464467	0.6464466	-1.7491424e-10	0.068447776	0.068447776	0	51647.875	51647.86	-1.6193188e-05	635683.56	269341.9	-9.496725e-05	269341.88	635683.2	-0.0001887859
0	0.6463422	0.64634204	-1.750073e-10	0.0683065	0.0683065	0	51639.523	51639.51	-1.2517358e-05	635772.8	269106.34	-5.2512845e-05	269106.34	635772.5	-0.00016682874
0	0.646238	0.6462378	-9.984034e-11	0.06816496	0.06816496	0	51631.195	51631.188	-8.528812e-06	635861.75	268871.5	-5.7992656e-05	268871.4	635861.44	-9.1457674e-05
0	0.6461336	0.64613336	-1.893228e-10	0.068023674	0.068023674	0	51622.85	51622.836	-4.3880664e-06	635950.25	268636.75	-0.00015412355	268636.72	635949.94	7.72315e-05
0	0.64602935	0.6460292	-2.9011768e-10	0.067882404	0.067882404	0	51614.53	51614.516	-2.344847e-05	636039.6	268401.56	-0.00020257312	268401.53	636039.25	-0.00020831429
0	0.6459236	0.6459234	-2.7168526e-10	0.067740865	0.067740865	0	51606.086	51606.062	-3.0259747e-05	636128.44	268164.66	-0.00021310544	268164.66	636128.06	-0.00031713597
0	0.6458174	0.64581716	-2.0734954e-10	0.06759956	0.06759956	0	51597.598	51597.582	-2.0196869e-05	636219.5	267924.9	-0.00015887535	267924.88	636219.2	-0.00019503426
0	0.6457133	0.64571303	-3.091152e-10	0.06745787	0.06745787	0	51589.273	51589.258	-2.450724e-05	636307.8	267690.75	-0.0002419675	267690.75	636307.5	-0.00018747279
0	0.64560753	0.64560735	-1.856456e-10	0.067316584	0.067316584	0	51580.824	51580.812	-1.6313194e-05	636397.06	267453.56	-0.00018514186	267453.56	636396.7	-0.000100714125
0	0.64550173	0.6455015	-7.141185e-11	0.067174956	0.067174956	0	51572.38	51572.36	-4.1834505e-06	636486.44	267216.03	2.0189202e-05	267216	636486.06	-9.349578e-05
0	0.6453943	0.64539415	-4.789476e-10	0.06703376	0.06703376	0	51563.8	51563.78	-4.1794385e-05	636577	266975.2	-0.00039831095	266975.2	636576.7	-0.00033405182
0	0.6452894	0.6452892	-4.782622e-10	0.06689248	0.06689248	0	51555.406	51555.395	-3.8830603e-05	636665.4	266739.84	-0.00035022522	266739.8	636665	-0.00033020324
0	0.6451806	0.64518034	-2.6390407e-10	0.06675091	0.06675091	0	51546.715	51546.7	-1.5691981e-05	636756.9	266496.03	-0.00014031374	266496	636756.56	-0.00013465677
0	0.64507544	0.6450752	-1.6671015e-10	0.06660963	0.06660963	0	51538.316	51538.297	-1.3690599e-05	636844.9	266260.8	-8.950788e-05	266260.8	636844.56	-0.0001503924
0	0.6449675	0.6449673	-4.0153553e-10	0.066467956	0.066467956	0	51529.7	51529.676	-3.374655e-05	636935.44	266019.16	-0.0003691199	266019.12	636935.1	-0.0002222207
0	0.64485896	0.6448588	-4.0415968e-10	0.06632633	0.06632633	0	51521.02	51521	-3.139092e-05	637026.4	265776.3	-0.00023493762	265776.28	637025.94	-0.00031512536
0	0.64475244	0.64475214	-1.3280328e-10	0.06618504	0.06618504	0	51512.508	51512.49	-1.0611091e-05	637115.3	265538.1	-7.152242e-05	265538.06	637115	-0.00011441567
0	0.64464486	0.6446445	-1.5965017e-10	0.06604385	0.06604385	0	51503.902	51503.887	-9.616376e-06	637205	265297.66	6.8865484e-06	265297.6	637204.7	-0.00017539425
0	0.6445371	0.64453685	-4.78783e-10	0.06590254	0.06590254	0	51495.305	51495.28	-3.743039e-05	637294.75	265057.25	-0.00031320573	265057.22	637294.3	-0.0003426868
0	0.64442796	0.6444277	-2.8481156e-10	0.065760985	0.065760985	0	51486.586	51486.566	-2.7253374e-05	637384.25	264814.88	-0.00029119768	264814.84	637383.94	-0.00018636306
0	0.64431775	0.6443176	-2.0741109e-10	0.0656197	0.0656197	0	51477.777	51477.76	-2.0999432e-05	637476.8	264568.16	-0.00011708898	264568.1	637476.4	-0.00025088398
0	0.6442106	0.6442103	-3.18449e-10	0.06547804	0.06547804	0	51469.21	51469.195	-2.6857673e-05	637565.44	264329.28	-3.6811725e-05	264329.25	637565.2	-0.00043381512
0	0.64410186	0.6441017	-3.8369785e-10	0.06533641	0.06533641	0	51460.54	51460.51	-3.0477444e-05	637655.3	264087.3	-0.0002821227	264087.3	637655.06	-0.0002519334
0	0.64399177	0.6439916	-2.8248298e-10	0.06519513	0.06519513	0	51451.74	51451.71	-2.3497416e-05	637746	263842.44	-0.00022843563	263842.47	637745.7	-0.00018330946
0	0.6438821	0.6438819	-2.655785e-10	0.06505393	0.06505393	0	51442.977	51442.95	-2.2421727e-05	637836.75	263598.25	-0.00017689276	263598.2	637836.4	-0.00021600306
0	0.64377177	0.6437715	-4.688565e-10	0.06491261	0.06491261	0	51434.16	51434.133	-3.7399346e-05	637927.8	263352.66	-0.00033622645	263352.6	637927.44	-0.00031912207
0	0.643662	0.6436616	-2.3068912e-10	0.064771056	0.064771056	0	51425.38	51425.367	-1.50662845e-05	638018.1	263108.62	-7.7094825e-05	263108.6	638017.7	-0.0001869116
0	0.6435516	0.64355135	-3.5225195e-10	0.06462978	0.06462978	0	51416.562	51416.55	-2.2374934e-05	638107.8	262864.44	-0.00025121684	262864.47	638107.44	-0.00014085902
0	0.6434386	0.64343834	-2.0142026e-10	0.06448806	0.06448806	0	51407.54	51407.52	-1.8378225e-05	638201.06	262613	-0.0001982385	262613	638200.7	-0.00012380304
0	0.6433297	0.6433294	-3.832937e-10	0.0643465	0.0643465	0	51398.836	51398.816	-2.6346685e-05	638290.1	262371.4	-0.00024500777	262371.4	638289.75	-0.00021666501
0	0.6432183	0.643218	-2.7526573e-10	0.064205214	0.064205214	0	51389.938	51389.914	-1.9357909e-05	638381.1	262124.45	-0.00020337758	262124.45	638380.8	-0.00013583097
0	0.6431058	0.6431055	-2.7660735e-10	0.06406398	0.06406398	0	51380.945	51380.93	-2.1158745e-05	638472.9	261875.16	-7.657676e-05	261875.16	638472.56	-0.00029418783
0	0.6429951	0.6429949	-3.3941894e-10	0.063922696	0.063922696	0	51372.105	51372.09	-3.688108e-05	638563	261630.17	-0.0003477439	261630.17	638562.6	-0.0002985231
0	0.6428834	0.64288324	-3.5248213e-10	0.06378113	0.06378113	0	51363.188	51363.164	-2.0932002e-05	638653.1	261383.69	-0.00019773746	261383.69	638652.75	-0.00016905392
0	0.6427693	0.64276904	-1.4553948e-10	0.06363943	0.06363943	0	51354.066	51354.04	-1.0732481e-05	638746.44	261130.62	-0.00011950062	261130.6	638745.94	-6.8564594e-05
0	0.6426585	0.64265823	-4.02832e-10	0.06349815	0.06349815	0	51345.21	51345.19	-3.094861e-05	638835.7	260886.16	-0.00026134946	260886.12	638835.4	-0.00028096285
0	0.6425452	0.64254504	-1.8792087e-10	0.063356586	0.063356586	0	51336.168	51336.145	-1.0134261e-05	638927.4	260636.02	-0.00016362571	260636.02	638927	-1.39568965e-05
0	0.64243215	0.6424319	-5.680517e-10	0.06321526	0.06321526	0	51327.133	51327.105	-4.6238627e-05	639018.44	260386.58	-0.00042209137	260386.55	639018.06	-0.0003881479
0	0.642319	0.6423187	-4.2766293e-10	0.06307407	0.06307407	0	51318.094	51318.07	-3.0102103e-05	639110.06	260136.55	-0.0003107642	260136.58	639109.75	-0.00021671479
0	0.6422052	0.6422049	-2.437087e-10	0.062932774	0.062932774	0	51308.992	51308.977	-2.0195273e-05	639201.4	259885.81	-0.00023357957	259885.83	639201.06	-0.00012030209
0	0.6420911	0.6420908	-2.814444e-10	0.06279112	0.06279112	0	51299.883	51299.863	-2.3162358e-05	639293.25	259634.34	-0.00020657685	259634.38	639292.8	-0.00019929702
0	0.6419771	0.64197683	2.7668822e-11	0.06264953	0.06264953	0	51290.773	51290.754	2.8427608e-06	639385.06	259382.98	-9.099666e-05	259382.95	639384.7	0.00014081034
0	0.64186245	0.6418623	-4.2975803e-10	0.06250824	0.06250824	0	51281.62	51281.6	-3.2832897e-05	639476.7	259130.89	-0.0003972586	259130.86	639476.25	-0.00017807209
0	0.6417485	0.6417482	-2.7869265e-10	0.062366635	0.062366635	0	51272.508	51272.49	-2.7070022e-05	639567.9	258880.02	-0.00019403304	258880.02	639567.5	-0.00028031482
0	0.64163107	0.64163077	-3.8188083e-10	0.06222535	0.06222535	0	51263.13	51263.1	-3.144021e-05	639661.7	258621.8	-0.00029676384	258621.83	639661.25	-0.00025416276
0	0.64151794	0.6415176	-3.4539765e-10	0.06208415	0.06208415	0	51254.082	51254.06	-3.068872e-05	639751.6	258373.38	-0.00023275979	258373.38	639751.25	-0.0003049985
0	0.6414026	0.6414023	-2.8912714e-10	0.061942477	0.061942477	0	51244.867	51244.848	-2.3621049e-05	639843.4	258120.2	-0.00013309818	258120.23	639843	-0.00028081334
0	0.6412859	0.6412856	-3.173659e-10	0.061801177	0.061801177	0	51235.547	51235.523	-2.1251002e-05	639935.2	257865	-0.0002219477	257865	639934.8	-0.00015043351
0	0.6411704	0.64117014	-8.867796e-11	0.061659623	0.061659623	0	51226.324	51226.3	-1.2969668e-05	640027.4	257611.16	-0.00017005982	257611.19	640027.06	-5.7207606e-05
0	0.64105403	0.64105374	-7.998307e-11	0.06151831	0.06151831	0	51217.027	51217.008	-1.0093797e-05	640119.9	257355.84	-0.00013882082	257355.84	640119.5	-3.8052727e-05
0	0.6409374	0.6409371	-3.1342184e-10	0.06137672	0.06137672	0	51207.7	51207.68	-2.8071629e-05	640212.3	257099.98	-0.00024474703	257100	640211.94	-0.000247152
0	0.6408206	0.6408204	-3.9722947e-10	0.061235435	0.061235435	0	51198.383	51198.36	-2.5585901e-05	640304	256844.94	-0.0002869526	256844.94	640303.56	-0.00016138903
0	0.6407038	0.64070356	-3.7771047e-10	0.061094135	0.061094135	0	51189.043	51189.023	-2.5813843e-05	640395.94	256589.38	-0.00032276713	256589.38	640395.56	-0.00012956874
0	0.64058614	0.64058584	-3.6334366e-10	0.06095255	0.06095255	0	51179.637	51179.617	-2.6362297e-05	640488.56	256332	-0.00021700568	256332.03	640488.1	-0.0002449407
0	0.6404688	0.6404684	-4.053973e-10	0.06081125	0.06081125	0	51170.26	51170.24	-3.47941e-05	640580.94	256075.3	-0.0002886172	256075.3	640580.56	-0.0003210796
0	0.64035	0.6403497	-2.5004773e-10	0.06066969	0.06066969	0	51160.773	51160.746	-1.5747928e-05	640673.44	255816.56	-0.00016571958	255816.56	640673	-0.00011023129
0	0.6402308	0.6402305	-4.17915e-10	0.060528405	0.060528405	0	51151.25	51151.227	-3.280939e-05	640767.75	255555.33	-0.0003516027	255555.36	640767.3	-0.00022331605
0	0.6401136	0.6401133	-3.7985906e-10	0.060386807	0.060386807	0	51141.883	51141.86	-3.0015817e-05	640859.06	255299.9	-0.00024033552	255299.95	640858.7	-0.00028563148
0	0.6399946	0.63999426	-1.5250712e-10	0.060245506	0.060245506	0	51132.383	51132.35	-1.4258067e-05	640951.25	255041.16	-0.00021850232	255041.16	640950.8	-3.1341715e-05
0	0.6398744	0.63987416	-2.6280064e-10	0.06010422	0.06010422	0	51122.78	51122.758	-1.9564977e-05	641045.6	254778.53	-0.0002220502	254778.56	641045.2	-0.00012078678
0	0.6397559	0.6397556	-2.4444702e-10	0.05996261	0.05996261	0	51113.316	51113.29	-2.1482716e-05	641137.7	254520.62	-0.0002129228	254520.66	641137.4	-0.00016351874
0	0.63963664	0.6396364	-3.611168e-10	0.059821296	0.059821296	0	51103.78	51103.758	-2.7411064e-05	641230.3	254260.89	-0.0002146521	254260.95	641229.94	-0.00026567184
0	0.6395165	0.63951623	-1.6693476e-10	0.059679788	0.059679788	0	51094.18	51094.156	-1.936044e-05	641323.5	253999.58	-0.00018711784	253999.64	641322.94	-0.00015213502
0	0.6393962	0.6393959	-2.0578372e-10	0.05953849	0.05953849	0	51084.57	51084.547	-1.2100327e-05	641416.5	253738.11	-9.972112e-05	253738.14	641416.06	-0.000112312846
0	0.63927555	0.63927525	-4.28315e-10	0.059396796	0.059396796	0	51074.934	51074.91	-3.4979705e-05	641509.8	253476.03	-0.0003215414	253476.03	641509.4	-0.00029140778
0	0.6391546	0.63915426	-2.3945912e-10	0.059255593	0.059255593	0	51065.27	51065.242	-6.2622325e-06	641602.06	253214.28	-8.469478e-05	253214.39	641601.7	-2.5038285e-05
0	0.63903326	0.6390329	-9.2409656e-11	0.05911429	0.05911429	0	51055.574	51055.543	1.4108373e-07	641696.4	252950.05	1.5110893e-05	252950.06	641696.06	-1.2638684e-05
0	0.6389113	0.63891095	-1.8461162e-10	0.058972668	0.058972668	0	51045.832	51045.805	-1.8078325e-05	641790.25	252685.5	-0.00016978224	252685.55	641789.9	-0.00014700415
0	0.63879067	0.6387903	-3.0814792e-10	0.058831364	0.058831364	0	51036.195	51036.164	-2.6986378e-05	641882.56	252424.27	-0.00028813985	252424.3	641882.1	-0.00018474233
0	0.63866884	0.63866854	-1.2589978e-10	0.05868988	0.05868988	0	51026.46	51026.434	-1.938499e-05	641975.6	252160.73	-0.00012364231	252160.77	641975.2	-0.00021604079
0	0.6385462	0.6385458	-5.43557e-10	0.05854817	0.05854817	0	51016.664	51016.637	-3.7693146e-05	642068.7	251896	-0.0002473238	251896.03	642068.25	-0.0004131729
0	0.63842356	0.6384232	-3.4311945e-10	0.05840688	0.05840688	0	51006.86	51006.836	-2.4435634e-05	642162.3	251630.5	-0.00016887418	251630.56	642161.9	-0.0002593113
0	0.63830036	0.6383	-3.2299036e-10	0.05826568	0.05826568	0	50997.02	50996.99	-2.78425e-05	642256.3	251364.05	-0.00016217903	251364.08	642256	-0.00032570498
0	0.6381779	0.6381775	-2.171867e-10	0.058124352	0.058124352	0	50987.24	50987.207	-1.8247378e-05	642350.25	251098.66	-0.00011647717	251098.7	642349.9	-0.00020327156
0	0.6380548	0.6380545	-1.7105935e-10	0.057982735	0.057982735	0	50977.4	50977.375	-1.4353724e-05	642443.4	250833.34	-0.00010861883	250833.38	642442.94	-0.00014290141
0	0.63792914	0.6379288	-2.0844067e-10	0.05784144	0.05784144	0	50967.363	50967.336	-1.2800214e-05	642539.44	250561.27	-0.00011584562	250561.33	642539.06	-0.000108452456
0	0.63780713	0.63780665	-2.8197683e-10	0.057699878	0.057699878	0	50957.61	50957.582	-2.4043049e-05	642631.2	250298.67	-0.00022909364	250298.73	642630.8	-0.0001922126
0	0.63768107	0.63768077	-2.2810215e-10	0.057558257	0.057558257	0	50947.54	50947.516	-1.8113167e-05	642726.94	250026.44	-9.551089e-05	250026.47	642726.56	-0.00022188605
0	0.63755846	0.6375581	-2.3352958e-10	0.057416957	0.057416957	0	50937.746	50937.715	-1.5439891e-05	642819	249762.72	-0.000107722655	249762.77	642818.56	-0.00016283046
0	0.6374328	0.6374325	-3.9440062e-10	0.05727573	0.05727573	0	50927.703	50927.68	-2.828302e-05	642913.25	249492.61	-0.00027200242	249492.67	642912.9	-0.00022360083
0	0.6373078	0.6373075	-1.78752e-10	0.05713443	0.05713443	0	50917.715	50917.688	-1.7355884e-05	643007.25	249223.69	-0.00014431165	249223.75	643006.8	-0.00015981542
0	0.63718224	0.63718194	-2.386961e-10	0.05699281	0.05699281	0	50907.688	50907.656	-2.0939027e-05	643101.3	248953.7	-3.516187e-05	248953.78	643100.94	-0.00033175258
0	0.6370562	0.6370558	-4.909014e-10	0.056851286	0.056851286	0	50897.61	50897.586	-4.019928e-05	643196	248682.53	-0.0003338643	248682.61	643195.56	-0.00037054747
0	0.6369303	0.6369299	-2.3576904e-10	0.056709964	0.056709964	0	50887.555	50887.53	-1.7256834e-05	643290.4	248412.02	-0.0001358556	248412.08	643289.9	-0.00016653581
0	0.6368037	0.6368033	-4.8877313e-10	0.056568343	0.056568343	0	50877.44	50877.41	-3.3193846e-05	643384.8	248140.2	-0.00035633633	248140.25	643384.44	-0.00022531928
0	0.63667715	0.6366768	-2.969014e-10	0.05642702	0.05642702	0	50867.332	50867.305	-2.4502358e-05	643479.3	247868.62	-0.00017442027	247868.67	643478.9	-0.0002549344
0	0.6365485	0.63654816	-1.7333449e-10	0.05628581	0.05628581	0	50857.055	50857.03	-1.3915478e-05	643575.7	247592.19	-0.00015765	247592.25	643575.25	-8.619084e-05
0	0.63642293	0.63642246	-2.9791142e-10	0.056144506	0.056144506	0	50847.016	50846.984	-1.8933939e-05	643668.75	247323.16	-0.00017990495	247323.27	643668.25	-0.00015187437
0	0.6362951	0.6362946	-4.2586268e-10	0.056002766	0.056002766	0	50836.8	50836.773	-3.5931684e-05	643763.25	247049.72	-0.00024385069	247049.8	643762.9	-0.00038577997
0	0.6361678	0.6361674	-5.5227756e-10	0.055861373	0.055861373	0	50826.637	50826.613	-3.829589e-05	643857.44	246777.42	-0.00031851899	246777.48	643857	-0.00035253976
0	0.6360389	0.6360385	-3.7147865e-10	0.05572006	0.05572006	0	50816.34	50816.312	-2.5793404e-05	643952.4	246502.05	-0.0002430008	246502.12	643951.9	-0.00020897687
0	0.6359098	0.63590944	-1.4688824e-10	0.05557843	0.05557843	0	50806.023	50806	-5.7310463e-06	644047.6	246226.11	-7.778833e-05	246226.14	644047.1	-2.2636761e-05
0	0.63578147	0.63578105	-3.612073e-10	0.055437095	0.055437095	0	50795.77	50795.74	-3.170249e-05	644142.9	245951.11	-0.0002861031	245951.17	644142.3	-0.00026941943
0	0.6356523	0.6356518	-3.291208e-10	0.055295892	0.055295892	0	50785.45	50785.418	-2.81137e-05	644237.7	245675.42	-0.00023492673	245675.5	644237.25	-0.00025770953
0	0.63552314	0.6355227	-2.393363e-10	0.055154584	0.055154584	0	50775.133	50775.1	-1.6126005e-05	644332.3	245400.02	-0.00022805041	245400.1	644331.9	-5.4525488e-05
0	0.6353909	0.6353904	-4.4687706e-10	0.05501284	0.05501284	0	50764.566	50764.535	-2.7725828e-05	644429.94	245117.19	-0.0002479817	245117.3	644429.5	-0.00023785785
0	0.63526297	0.6352625	-2.6066352e-10	0.054871462	0.054871462	0	50754.336	50754.305	-1.51076065e-05	644522.94	244844.97	-7.396391e-05	244845.08	644522.56	-0.00019076659
0	0.6351323	0.6351319	-5.6001388e-11	0.05473016	0.05473016	0	50743.914	50743.88	-1.5451966e-06	644618.06	244567.12	3.481179e-05	244567.2	644617.6	-6.188826e-05
0	0.63500136	0.635001	-3.2672492e-10	0.054588504	0.054588504	0	50733.445	50733.418	-2.566161e-05	644713.44	244288.42	-0.00028581524	244288.5	644712.9	-0.00016385298
0	0.6348702	0.6348698	-8.33149e-11	0.05444718	0.05444718	0	50722.97	50722.938	-9.031134e-06	644808.8	244009.28	-0.00014640165	244009.39	644808.44	-1.1850857e-05
0	0.6347376	0.6347372	-2.134809e-10	0.054305978	0.054305978	0	50712.375	50712.344	-2.59267e-05	644906.2	243726.38	-0.0003147304	243726.48	644905.7	-0.00013958303
0	0.6346074	0.63460696	-9.1661505e-11	0.054164223	0.054164223	0	50701.977	50701.94	-4.3363243e-06	645000.2	243450.11	-5.7775822e-05	243450.22	644999.75	-1.820957e-05
0	0.6344753	0.6344749	-1.6603216e-10	0.0540229	0.0540229	0	50691.418	50691.383	-2.1214426e-05	645095.6	243169.72	-0.00013277783	243169.8	645095.1	-0.00023896243
0	0.634343	0.6343426	-1.1825685e-10	0.053881556	0.053881556	0	50680.85	50680.82	-7.1038558e-06	645191.1	242889.02	-0.00018233366	242889.12	645190.6	5.785284e-05
0	0.63421035	0.6342099	-2.0672279e-10	0.053740222	0.053740222	0	50670.25	50670.22	-1.031642e-05	645286.7	242607.72	-0.00013840002	242607.81	645286.2	-4.2374555e-05
0	0.6340767	0.6340763	-2.1378549e-10	0.053598575	0.053598575	0	50659.574	50659.54	-1.7312565e-05	645382.9	242324.5	-0.00015338144	242324.61	645382.44	-0.00014998655
0	0.63394386	0.6339434	-2.4057586e-10	0.053457268	0.053457268	0	50648.95	50648.92	-2.1773214e-05	645478.3	242042.94	-0.00022152557	242043.02	645477.9	-0.00016000636
0	0.63380826	0.63380784	-2.8085143e-10	0.053315945	0.053315945	0	50638.12	50638.094	-2.8367887e-05	645576.75	241754.73	-0.00027222597	241754.84	645576.25	-0.00022486437
0	0.6336766	0.63367623	-5.280408e-10	0.0531743	0.0531743	0	50627.605	50627.574	-4.4489847e-05	645670.25	241476.89	-0.00037067573	241477	645669.8	-0.00040891964
0	0.63354206	0.63354164	-2.6955838e-10	0.053032976	0.053032976	0	50616.855	50616.82	-1.59905e-05	645766.25	241192.52	-0.00021841761	241192.66	645765.75	-6.1783816e-05
0	0.6334069	0.63340646	-3.9232248e-10	0.052891634	0.052891634	0	50606.055	50606.023	-2.4549892e-05	645862.56	240907.03	-0.00017265113	240907.14	645862.1	-0.00025753654
0	0.63327247	0.63327205	-3.6799863e-10	0.05275032	0.05275032	0	50595.32	50595.285	-2.7046266e-05	645958.7	240622.75	-0.00026048886	240622.86	645958.2	-0.00021344272
0	0.6331364	0.633136	-2.0527145e-10	0.05260866	0.05260866	0	50584.45	50584.414	-1.7114204e-05	646055.5	240335.38	-0.00021094395	240335.48	646055	-8.894813e-05
0	0.6329996	0.6329991	-3.4542036e-10	0.05246734	0.05246734	0	50573.516	50573.477	-2.5230973e-05	646153.7	240045.61	-0.00026238916	240045.75	646153.2	-0.00017973303
0	0.6328656	0.63286525	-3.6575373e-10	0.052326016	0.052326016	0	50562.81	50562.777	-2.707974e-05	646247.7	239763.98	-0.0002791053	239764.1	646247.25	-0.00019541287
0	0.6327288	0.63272834	-3.8476566e-10	0.052184362	0.052184362	0	50551.88	50551.84	-3.58065e-05	646344.94	239475.22	-0.00038022758	239475.33	646344.5	-0.0002472095
0	0.6325923	0.6325919	-3.4664632e-10	0.052043013	0.052043013	0	50540.977	50540.945	-3.0363653e-05	646441	239188.19	-0.0002588972	239188.33	646440.44	-0.00027316497
0	0.6324552	0.6324547	-4.724908e-10	0.051901728	0.051901728	0	50530.02	50529.984	-3.718381e-05	646537.9	238899.28	-0.00034745093	238899.42	646537.4	-0.0003041207
0	0.6323185	0.6323181	-3.6367984e-10	0.051760413	0.051760413	0	50519.098	50519.066	-2.9095589e-05	646634.1	238611.66	-0.00031089745	238611.77	646633.56	-0.00019894441
0	0.63217854	0.6321781	-1.7217079e-10	0.05161863	0.05161863	0	50507.918	50507.883	-1.1885361e-05	646733.1	238316.72	-0.00013426607	238316.83	646732.7	-7.4001044e-05
0	0.63204235	0.63204193	-6.505669e-10	0.051477425	0.051477425	0	50497.04	50497.004	-5.3703938e-05	646828.25	238030.97	-0.0005334344	238031.08	646827.75	-0.00040761937
0	0.6319022	0.63190174	-1.7113085e-10	0.0513361	0.0513361	0	50485.844	50485.805	-1.0941047e-05	646926.9	237736.06	-0.0001448134	237736.22	646926.44	-4.6906498e-05
0	0.63176525	0.6317648	-2.822467e-10	0.0511944	0.0511944	0	50474.9	50474.863	-1.9998928e-05	647021.9	237449.34	-0.0002086678	237449.5	647021.4	-0.00014177333
0	0.63162535	0.63162494	-3.521501e-10	0.051053077	0.051053077	0	50463.727	50463.688	-2.5233667e-05	647118.56	237156.86	-0.00026016432	237156.97	647118.06	-0.00018200513
0	0.63148534	0.6314849	-3.252609e-10	0.050911825	0.050911825	0	50452.535	50452.5	-2.1231343e-05	647217.75	236861.61	-0.00022405462	236861.77	647217.25	-0.00014798211
0	0.63134545	0.631345	-3.4902353e-10	0.050770037	0.050770037	0	50441.355	50441.32	-2.6292168e-05	647315	236568.48	-0.0002650174	236568.6	647314.5	-0.0001957001
0	0.6312072	0.63120675	-3.4973516e-10	0.050628714	0.050628714	0	50430.316	50430.277	-3.536379e-05	647409.7	236280.31	-0.0002991442	236280.44	647409.2	-0.00032053536
0	0.6310668	0.6310664	-2.008586e-10	0.0504875	0.0504875	0	50419.098	50419.06	-1.928275e-05	647507.4	235986.08	-0.00030161478	235986.22	647506.9	-3.627675e-05
0	0.6309261	0.6309256	-1.5255384e-10	0.050346155	0.050346155	0	50407.85	50407.81	-1.8311384e-05	647604.56	235691.75	-0.00022846893	235691.92	647604.1	-9.240135e-05
0	0.630785	0.6307845	-2.7531022e-10	0.050204474	0.050204474	0	50396.58	50396.543	-1.767957e-05	647702.2	235396.58	-0.00022905676	235396.73	647701.8	-8.074225e-05
0	0.6306415	0.63064104	-3.5327968e-10	0.05006314	0.05006314	0	50385.113	50385.074	-2.7363572e-05	647801.94	235096	-0.00021525439	235096.16	647801.44	-0.00026423734
0	0.6305021	0.6305016	-1.787164e-10	0.049921803	0.049921803	0	50373.977	50373.945	-1.2279564e-05	647897	234805.89	-8.1072016e-05	234806.02	647896.5	-0.00013410272
0	0.6303601	0.6303596	-5.197903e-10	0.049780127	0.049780127	0	50362.63	50362.598	-3.6862923e-05	647994.3	234509.72	-0.00033851087	234509.86	647993.75	-0.00030743788
0	0.63021725	0.6302167	-2.8743016e-10	0.049638797	0.049638797	0	50351.215	50351.176	-2.4084005e-05	648092	234211.9	-0.00027799603	234212.08	648091.5	-0.00014402787
0	0.63007456	0.630074	-2.9844333e-10	0.04949756	0.04949756	0	50339.82	50339.777	-2.5741698e-05	648189.7	233914.48	-0.00020203184	233914.64	648189.1	-0.00024903976
0	0.62993073	0.62993026	-1.2579511e-10	0.04935623	0.04935623	0	50328.324	50328.29	-7.899066e-06	648288	233614.86	-5.9530415e-05	233615	648287.5	-7.888488e-05
0	0.62978786	0.6297874	-4.968048e-10	0.04921455	0.04921455	0	50316.914	50316.88	-3.9412735e-05	648385.75	233317.14	-0.00030172203	233317.31	648385.2	-0.00038890712
0	0.62964207	0.62964153	-1.2811577e-10	0.049073216	0.049073216	0	50305.266	50305.223	-1.6114678e-05	648485.8	233012.88	-0.00014057379	233013	648485.3	-0.00014180363
0	0.6294979	0.6294974	-1.6330011e-10	0.04893189	0.04893189	0	50293.746	50293.703	-1.21358e-05	648583.9	232713.06	-0.00014837568	232713.23	648583.3	-6.427987e-05
0	0.62935275	0.6293522	-3.0213074e-10	0.048790213	0.048790213	0	50282.15	50282.113	-2.7220469e-05	648682.1	232411.58	-0.0002917658	232411.75	648681.6	-0.00018521835
0	0.6292082	0.6292077	-1.5483201e-10	0.048648853	0.048648853	0	50270.6	50270.56	-1.5468355e-05	648780.06	232111.25	-0.00011940808	232111.42	648779.56	-0.0001516438
0	0.6290629	0.6290624	-2.1888152e-10	0.04850764	0.04850764	0	50258.99	50258.953	-2.7454098e-05	648878.25	231809.61	-0.0002541777	231809.78	648877.7	-0.00022690033
0	0.6289189	0.62891835	-3.3531e-10	0.048366304	0.048366304	0	50247.49	50247.445	-2.9006467e-05	648974.4	231511.83	-0.00022218256	231512	648973.94	-0.0002860976
0	0.6287729	0.6287724	-3.4645317e-10	0.048224516	0.048224516	0	50235.82	50235.78	-3.1300984e-05	649072.56	231209.34	-0.0001722864	231209.5	649072	-0.00037620054
0	0.6286254	0.6286248	-3.0085598e-10	0.0480833	0.0480833	0	50224.035	50223.992	-2.6105132e-05	649171.4	230903.89	-0.00031127007	230904.06	649170.9	-0.00014617002
0	0.628479	0.62847847	-2.9308148e-10	0.047941964	0.047941964	0	50212.344	50212.305	-2.8526609e-05	649269.7	230600.83	-0.0002520189	230601	649269.06	-0.0002478527
0	0.6283324	0.6283319	-1.9075332e-10	0.04780026	0.04780026	0	50200.625	50200.582	-1.0633914e-05	649368.25	230296.92	-0.00017201761	230297.11	649367.6	-1.4320414e-05
0	0.6281849	0.6281843	-3.4420553e-10	0.04765894	0.04765894	0	50188.84	50188.8	-3.097441e-05	649466.5	229992.12	-0.00042424642	229992.3	649465.94	-0.00011851795
0	0.62803596	0.6280354	-3.259645e-10	0.047517724	0.047517724	0	50176.945	50176.906	-2.9251842e-05	649565.94	229684.23	-0.0003047176	229684.44	649565.4	-0.00020786225
0	0.62788653	0.62788606	-2.475936e-10	0.047376387	0.047376387	0	50165.008	50164.96	-2.1142147e-05	649666.56	229374.36	-0.00030265536	229374.55	649665.94	-6.781838e-05
0	0.62774014	0.6277397	-1.4782467e-10	0.047234587	0.047234587	0	50153.312	50153.273	-1.1870778e-05	649762.94	229073.1	-0.0001344283	229073.31	649762.4	-7.3583265e-05
0	0.62758905	0.62758845	-3.1776445e-10	0.047093373	0.047093373	0	50141.24	50141.195	-2.8369448e-05	649864.2	228760.23	-0.0003020264	228760.42	649863.56	-0.00019509127
0	0.62744075	0.6274402	-3.643953e-10	0.04695201	0.04695201	0	50129.39	50129.35	-3.1283187e-05	649961	228455.77	-0.00024412523	228455.97	649960.5	-0.00030404987
0	0.62728965	0.6272891	-3.9158674e-10	0.046810348	0.046810348	0	50117.316	50117.273	-2.5925843e-05	650062.3	228143.02	-0.00019972381	228143.23	650061.7	-0.0002545746
0	0.62714154	0.627141	-2.3961766e-10	0.04666901	0.04666901	0	50105.49	50105.44	-1.7162185e-05	650159.1	227838.86	-0.0002128833	227839.06	650158.5	-8.784957e-05
0	0.6269908	0.6269902	-3.6966263e-10	0.046527795	0.046527795	0	50093.434	50093.395	-2.5719195e-05	650258.3	227528.53	-0.00032005482	227528.7	650257.75	-0.00013062247
0	0.6268401	0.6268396	-5.012675e-10	0.046386022	0.046386022	0	50081.406	50081.363	-3.947463e-05	650357.25	227218.73	-0.00036831762	227218.92	650356.7	-0.00032339618
0	0.6266885	0.62668794	-4.682023e-10	0.046244673	0.046244673	0	50069.28	50069.242	-4.367219e-05	650456.6	226906.92	-0.00045946875	226907.14	650456	-0.00030579878
0	0.6265367	0.6265363	-1.268599e-10	0.046103455	0.046103455	0	50057.168	50057.13	-1.13492e-05	650555.94	226595.33	-6.385045e-05	226595.55	650555.44	-0.00013502152
0	0.6263843	0.6263838	-2.0859883e-10	0.045962088	0.045962088	0	50044.99	50044.945	-2.1585347e-05	650655.75	226282.17	-0.00024730482	226282.38	650655.06	-0.00013093509
0	0.6262322	0.6262317	-1.8922515e-10	0.045820434	0.045820434	0	50032.832	50032.79	-2.3380602e-05	650755.1	225969.72	-7.0450835e-05	225969.94	650754.6	-0.00033924734
0	0.6260789	0.62607837	-2.457343e-10	0.045679096	0.045679096	0	50020.586	50020.54	-2.038886e-05	650854.6	225655.61	-0.00030004364	225655.84	650854	-5.7230252e-05
0	0.625926	0.62592536	-4.208123e-10	0.04553775	0.04553775	0	50008.367	50008.324	-3.0372274e-05	650954.6	225341.58	-0.00026323745	225341.8	650954.06	-0.00026897574
0	0.62577015	0.6257697	-2.3767255e-10	0.045396097	0.045396097	0	49995.918	49995.87	-2.2608645e-05	651056.7	225021.34	-0.00030561272	225021.58	651056	-9.055847e-05
0	0.62561864	0.6256181	-1.3153285e-10	0.04525476	0.04525476	0	49983.812	49983.76	-1.0595538e-05	651153.8	224712.02	-0.000137817	224712.23	651153.25	-4.784854e-05
0	0.62546235	0.62546176	-3.1952313e-10	0.04511351	0.04511351	0	49971.32	49971.277	-2.5265996e-05	651255.9	224391.11	-0.00023773688	224391.34	651255.3	-0.00020499897