# t (s)	mx ()	my ()	mz ()	B_extx (T)	B_exty (T)	B_extz (T)	m_fullx (A/m)	m_fully (A/m)	m_fullz (A/m)	m_full.region1x (A/m)	m_full.region1y (A/m)	m_full.region1z (A/m)	m_full.region2x (A/m)	m_full.region2y (A/m)	m_full.region2z (A/m)
0	0.65610105	0.6560968	1.1232031e-10	0.07071093	0.07071093	0	54337.023	54336.67	5.573722e-06	619890.75	298647.3	8.636935e-05	298650.78	619888.25	2.9444096e-05
0	0.6558772	0.65587634	-2.3212864e-10	0.07035715	0.07035715	0	54318.473	54318.414	-2.0669218e-05	620097.9	298129.62	-0.00025910803	298130.06	620097.25	-0.0001138505
0	0.65564793	0.65564734	-2.9203281e-10	0.07000352	0.07000352	0	54299.5	54299.453	-2.322384e-05	620313.3	297593.38	-0.00025125628	297593.7	620312.9	-0.00014918341
0	0.65541846	0.65541786	-3.3696093e-10	0.06964999	0.06964998	0	54280.496	54280.445	-2.5081748e-05	620529.8	297055.78	-0.00037688442	297056.12	620529.25	-0.00010207287
0	0.6551869	0.65518636	-3.893771e-10	0.069296524	0.069296524	0	54261.32	54261.266	-3.2513377e-05	620746.7	296514.7	-0.00028266333	296515	620746.1	-0.00028266333
0	0.65495366	0.654953	-3.7440104e-10	0.06894301	0.06894301	0	54242	54241.945	-3.1584423e-05	620963.75	295971.12	-0.00043184674	295971.4	620963.1	-0.0001923681
0	0.6547194	0.6547187	-7.675221e-11	0.06858937	0.06858937	0	54222.598	54222.543	-1.2076397e-05	621181.6	295425.22	-7.066583e-05	295425.5	621181.06	-0.0001138505
0	0.6544841	0.6544835	-1.3852838e-10	0.0682356	0.0682356	0	54203.11	54203.055	-1.300535e-05	621398.94	294878.28	-9.4221105e-05	294878.62	621398.44	-0.00010599874
0	0.65424746	0.6542468	-4.4928125e-10	0.067882374	0.067882374	0	54183.52	54183.46	-4.2731866e-05	621617.44	294328.66	-0.000455402	294329	621616.9	-0.00027873743
0	0.6540089	0.65400827	-3.0513683e-10	0.06752862	0.06752862	0	54163.754	54163.703	-2.2294887e-05	621836.56	293775.56	-0.00027481155	293775.88	621835.94	-0.00016881281
0	0.6537692	0.6537686	-3.4632094e-10	0.06717496	0.06717496	0	54143.914	54143.855	-2.60107e-05	622055.5	293221.12	-0.00018844221	293221.47	622054.9	-0.0002669598
0	0.6535275	0.65352684	-4.5864126e-10	0.06682184	0.066821836	0	54123.895	54123.836	-3.9945007e-05	622275.7	292662.53	-0.0003219221	292662.84	622275.06	-0.0003808103
0	0.65328467	0.6532841	-2.6769675e-10	0.066468105	0.066468105	0	54103.78	54103.727	-2.6939655e-05	622495.9	292102.34	-0.00029051508	292102.7	622495.3	-0.00021984924
0	0.6530401	0.65303946	-8.6112235e-11	0.066114426	0.066114426	0	54083.527	54083.47	-1.1147444e-05	622716.56	291539.25	-6.281407e-05	291539.62	622715.94	-7.066583e-05
0	0.6527953	0.6527946	-2.583367e-10	0.06576086	0.06576086	0	54063.246	54063.188	-2.322384e-05	622936.6	290976.34	-0.00027481155	290976.72	622936.06	-0.000117776384
0	0.6525475	0.65254676	-1.6473646e-10	0.06540747	0.06540747	0	54042.727	54042.67	-1.4863258e-05	623158.56	290407.6	-7.851759e-05	290407.94	623157.94	-0.00021984924
0	0.65229875	0.652298	-4.8672136e-11	0.065053925	0.06505393	0	54022.12	54022.066	-1.2076397e-05	623379.8	289838.06	-4.7110552e-05	289838.38	623379.25	-0.00012955401
0	0.65204763	0.652047	-4.1184115e-11	0.06470022	0.06470022	0	54001.33	54001.27	0	623601.7	289264.7	-1.5703517e-05	289265	623601.06	-4.3184675e-05
0	0.6517969	0.65179616	-2.4336066e-10	0.06434654	0.06434654	0	53980.56	53980.504	-1.7650118e-05	623824.7	288690.56	-0.00025125628	288690.94	623824	-0.00015703517
0	0.65154403	0.6515433	-4.380492e-10	0.063993275	0.063993275	0	53959.617	53959.56	-3.622919e-05	624047.8	288113.53	-0.00027481155	288113.84	624047.1	-0.0004004397
0	0.6512889	0.65128815	-3.8001705e-10	0.063639596	0.063639596	0	53938.492	53938.426	-2.9726516e-05	624271.56	287532.5	-0.0003062186	287532.88	624270.94	-0.00031407035
0	0.6510331	0.6510324	-2.6208072e-10	0.06328589	0.06328589	0	53917.312	53917.25	-1.9508027e-05	624494.6	286951.3	-7.066583e-05	286951.7	624494	-0.00027481155
0	0.65077436	0.6507737	-1.4976041e-10	0.06293273	0.06293273	0	53895.88	53895.824	-9.289536e-06	624719.5	286364.25	-0.00014133166	286364.62	624719	-7.851759e-05
0	0.6505152	0.6505144	-4.006091e-10	0.06257908	0.06257908	0	53874.41	53874.348	-3.622919e-05	624944.06	285776.8	-0.00036903267	285777.22	624943.3	-0.00021984924
0	0.6502545	0.6502538	-8.236823e-11	0.06222535	0.06222535	0	53852.83	53852.76	-8.360583e-06	625169	285186.94	-0.00014133166	285187.3	625168.3	-4.7110552e-05
0	0.6499916	0.6499908	-2.8454478e-10	0.06187173	0.06187173	0	53831.055	53830.99	-2.1365933e-05	625394.8	284593.12	-0.00024340452	284593.5	625394.1	-0.00017666457
0	0.64972705	0.6497263	-2.4336066e-10	0.061518446	0.061518446	0	53809.137	53809.08	-2.0436979e-05	625620.75	283996.62	-0.00014918341	283997	625620.1	-0.00023555277
0	0.64946073	0.64946	-9.734427e-11	0.06116484	0.061164834	0	53787.086	53787.023	-5.573722e-06	625846.2	283398.47	-7.851759e-06	283398.84	625845.5	-0.0001138505
0	0.6491936	0.64919287	-1.4976041e-10	0.06081109	0.06081109	0	53764.96	53764.902	-9.289536e-06	626074.06	282796.56	-8.636935e-05	282796.97	626073.44	-0.00014525754
0	0.6489243	0.64892346	-9.734427e-11	0.060457464	0.060457464	0	53742.652	53742.598	-1.1147444e-05	626301.44	282192.2	-0.00016488694	282192.6	626300.8	-8.244347e-05
0	0.64865345	0.6486527	-1.3852838e-10	0.060104188	0.060104188	0	53720.23	53720.168	-1.3934305e-05	626528.8	281585.62	-0.00025125628	281586	626528.1	-3.1407035e-05
0	0.64838064	0.6483799	-4.6051327e-10	0.05975055	0.05975055	0	53697.64	53697.574	-4.1802912e-05	626757.1	280975.38	-0.00044755026	280975.78	626756.44	-0.00036903267
0	0.6481042	0.64810336	-6.2899375e-10	0.059396807	0.059396807	0	53674.734	53674.668	-5.387931e-05	626987.25	280358.1	-0.0005731784	280358.53	626986.56	-0.00041221734
0	0.6478302	0.6478294	-3.4819297e-10	0.059043642	0.059043646	0	53652.043	53651.99	-2.4152794e-05	627214.94	279746.94	-0.00018844221	279747.34	627214.1	-0.00022377513
0	0.64755243	0.64755166	-3.1824088e-10	0.058690004	0.058690004	0	53629.043	53628.98	-2.786861e-05	627443.4	279129.6	-0.000455402	279130.03	627442.75	-0.00010207287
0	0.64727384	0.64727306	-2.4710467e-10	0.05833626	0.05833626	0	53605.97	53605.902	-2.4152794e-05	627673.2	278509.75	-0.00027481155	278510.2	627672.5	-0.00013740578
0	0.6469915	0.6469908	-3.2385689e-10	0.057982642	0.057982642	0	53582.594	53582.523	-2.9726516e-05	627903.9	277883.8	-0.0003219221	277884.25	627903.2	-0.00019629397
0	0.64670944	0.6467086	-2.9952082e-10	0.057629347	0.057629347	0	53559.23	53559.16	-2.322384e-05	628133.8	277258.94	-0.0003062186	277259.34	628133.1	-0.00020414573
0	0.64642507	0.6464242	-5.9342564e-10	0.057275724	0.057275724	0	53535.676	53535.605	-5.0163497e-05	628363.56	276631	-0.00048680903	276631.47	628362.94	-0.00040436556
0	0.6461387	0.6461379	-1.067043e-10	0.05692201	0.05692201	0	53511.96	53511.9	-1.4863258e-05	628596.06	275997.72	-0.00018844221	275998.2	628595.25	-3.1407035e-05
0	0.64585066	0.64584976	-1.7222447e-10	0.05656839	0.05656839	0	53488.11	53488.04	-1.300535e-05	628827.7	275362.72	-0.0001727387	275363.2	628826.94	2.7481155e-05
0	0.6455577	0.6455568	-4.6425727e-10	0.05621509	0.05621509	0	53463.844	53463.773	-3.5300236e-05	629061.94	274718.28	-0.00047110554	274718.78	629061.25	-0.00021984924
0	0.64526826	0.6452673	-5.5972954e-10	0.05586147	0.05586147	0	53439.875	53439.797	-4.366082e-05	629292.4	274082.62	-0.0005339196	274083.12	629291.75	-0.00029444095
0	0.6449754	0.6449745	2.9952082e-11	0.05550773	0.05550773	0	53415.62	53415.55	9.289536e-07	629525.25	273439.84	4.7110552e-05	273440.3	629524.56	-3.9258794e-05
0	0.64467996	0.64467895	-2.6956876e-10	0.055154543	0.055154543	0	53391.15	53391.08	-1.7650118e-05	629757.6	272793.8	-0.00010207287	272794.3	629756.8	-0.00023162688
0	0.6443798	0.6443789	-8.536344e-10	0.054800924	0.054800924	0	53366.285	53366.22	-7.245838e-05	629992.56	272138.62	-0.00065954775	272139.1	629991.75	-0.0006477701
0	0.6440832	0.64408237	-5.484975e-10	0.054447185	0.054447185	0	53341.734	53341.656	-4.2731866e-05	630226.8	271489.2	-0.00036903267	271489.7	630226.06	-0.00039258794
0	0.6437827	0.6437817	-4.1184114e-10	0.054093573	0.054093573	0	53316.84	53316.766	-3.5300236e-05	630460.44	270834.7	-0.00023555277	270835.2	630459.75	-0.0003062186
0	0.6434791	0.6434782	-5.6160155e-12	0.053740244	0.053740244	0	53291.7	53291.625	-5.573722e-06	630696.4	270173.84	4.7110552e-05	270174.38	630695.6	-5.8888192e-05
0	0.64317524	0.64317423	-7.488021e-12	0.053386644	0.053386644	0	53266.53	53266.457	-9.289536e-07	630930.6	269514.1	5.496231e-05	269514.6	630929.9	-6.673995e-05
0	0.64286774	0.6428668	-3.3415293e-10	0.05303293	0.05303293	0	53241.066	53240.99	-2.9726516e-05	631167.1	268847.22	-0.00028266333	268847.75	631166.3	-0.00018844221
0	0.6425586	0.6425577	-4.680013e-11	0.05267932	0.05267932	0	53215.465	53215.39	-5.573722e-06	631401.9	268179.56	-1.5703517e-05	268180.1	631401.1	-5.496231e-05
0	0.64224905	0.64224803	-2.9390482e-10	0.05232598	0.052325983	0	53189.824	53189.75	-3.1584423e-05	631639	267509	-0.00028266333	267509.56	631638.25	-0.00025910803
0	0.64193654	0.64193565	-3.0139283e-10	0.05197239	0.051972385	0	53163.95	53163.863	-2.0436979e-05	631874.94	266835.66	-0.00021199748	266836.22	631874.1	-0.00019629397
0	0.6416222	0.6416211	-5.372655e-10	0.05161865	0.05161865	0	53137.906	53137.832	-4.0873958e-05	632112.8	266157.6	-0.0003062186	266158.1	632112	-0.0004396985
0	0.6413036	0.6413026	-2.0966458e-10	0.051265437	0.051265437	0	53111.53	53111.445	-2.1365933e-05	632352.4	265472.12	-7.066583e-05	265472.7	632351.5	-0.00024340452
0	0.6409867	0.64098567	-4.286892e-10	0.05091183	0.050911825	0	53085.28	53085.195	-3.5300236e-05	632589.25	264791.47	-0.00032977387	264792.1	632588.44	-0.0003062186
0	0.6406662	0.6406651	-5.073134e-10	0.050558098	0.050558105	0	53058.74	53058.656	-4.1802912e-05	632827.4	264104.62	-0.0003454774	264105.22	632826.6	-0.0003611809
0	0.6403442	0.64034325	-2.190246e-10	0.050204515	0.050204515	0	53032.07	53031.992	-1.7650118e-05	633065.5	263415.88	-0.00012562814	263416.4	633064.6	-0.00018059045
0	0.6400186	0.64001757	-3.5193698e-10	0.04985114	0.04985114	0	53005.11	53005.023	-3.344233e-05	633305.9	262719.62	-0.00035332915	262720.22	633305	-0.00019629397
0	0.6396925	0.6396914	-3.63169e-10	0.049497545	0.049497545	0	52978.098	52978.016	-3.065547e-05	633544.3	262024.56	-0.00039258794	262025.14	633543.44	-0.00014525754
0	0.63936204	0.639361	6.364818e-11	0.049143855	0.049143855	0	52950.74	52950.656	4.644768e-06	633785.9	261320.48	2.3555276e-05	261321.06	633785	8.636935e-05
0	0.6390328	0.6390318	-2.517847e-10	0.04879026	0.048790265	0	52923.473	52923.38	-1.9508027e-05	634024.94	260620.48	-0.00029836682	260621.06	634024	-0.00016488694
0	0.6387002	0.6386991	5.5598554e-10	0.04843688	0.048436876	0	52895.914	52895.824	5.109245e-05	634264.2	259915.38	0.0003847362	259915.98	634263.44	0.0004946608
0	0.6383646	0.6383636	-1.7503249e-10	0.048083298	0.048083298	0	52868.13	52868.035	-1.904355e-05	634506.94	259202.92	-0.000227701	259203.55	634506.06	-9.029522e-05
0	0.6380279	0.63802683	-1.3478438e-10	0.04772957	0.04772957	0	52840.242	52840.156	-1.5792211e-05	634746.75	258491.78	-0.00023555277	258492.44	634745.8	3.9258794e-06
0	0.6376886	0.6376875	-3.0794486e-10	0.04737633	0.04737633	0	52812.14	52812.055	-2.4152794e-05	634989.1	257774.31	-0.00016488694	257774.9	634988.25	-0.00031014447
0	0.63734716	0.637346	-3.0513683e-10	0.047022745	0.047022745	0	52783.863	52783.777	-1.9972504e-05	635231.3	257054.08	-0.0001727387	257054.72	635230.44	-0.00019629397
0	0.6370026	0.63700134	-2.574007e-10	0.04666901	0.046669006	0	52755.316	52755.23	-2.2294887e-05	635473.4	256329.48	-0.000117776384	256330.14	635472.44	-0.0002669598
0	0.6366573	0.6366562	-2.3961666e-10	0.046315443	0.046315443	0	52726.73	52726.637	-1.7185643e-05	635716.8	255602.78	-8.636935e-05	255603.42	635715.9	-0.00018451634
0	0.63630724	0.63630617	-3.2760092e-10	0.04596203	0.04596203	0	52697.746	52697.645	-2.60107e-05	635961.6	254867.88	-0.0003219221	254868.52	635960.75	-0.00012562814
0	0.6359578	0.63595665	-1.0483229e-10	0.045608457	0.045608457	0	52668.797	52668.703	-1.1147444e-05	636204.4	254135.83	-9.4221105e-05	254136.48	636203.5	-9.4221105e-05
0	0.6356053	0.6356041	-2.3961666e-10	0.045254774	0.045254774	0	52639.598	52639.504	-1.9972504e-05	636448.4	253398.27	-0.00023555277	253398.95	636447.44	-0.00014918341
0	0.63524914	0.6352479	-2.564647e-10	0.0449012	0.044901196	0	52610.105	52610.008	-2.0901456e-05	636693.6	252654.4	-0.00021984924	252655.06	636692.6	-0.00019629397
0	0.6348941	0.6348929	-3.2385689e-10	0.044547774	0.044547774	0	52580.71	52580.613	-2.5081748e-05	636936.2	251914.97	-0.00023555277	251915.62	636935.2	-0.0002473304
0	0.6345335	0.6345323	-2.6956876e-10	0.044194214	0.04419421	0	52550.84	52550.746	-2.322384e-05	637182.2	251163.98	-0.00018844221	251164.67	637181.3	-0.00022377513
0	0.634172	0.63417095	-3.5661699e-10	0.043840494	0.043840494	0	52520.91	52520.812	-2.6823536e-05	637426.6	250413.61	-0.0003611809	250414.31	637425.7	-0.0001334799
0	0.6338059	0.6338047	-5.091854e-10	0.043486923	0.043486923	0	52490.58	52490.48	-3.3906806e-05	637673.2	249654.33	-0.00041614322	249655.05	637672.2	-0.00027873743
0	0.63344175	0.6334405	-3.65041e-10	0.043133654	0.043133654	0	52460.426	52460.33	-3.20489e-05	637917.9	248899.89	-0.00025125628	248900.6	637916.94	-0.0002669598
0	0.6330699	0.6330687	-3.2011288e-10	0.042779934	0.042779934	0	52429.63	52429.53	-2.786861e-05	638167.5	248129.64	-0.00025910803	248130.36	638166.5	-0.00029051508
0	0.6327	0.6326988	-5.8968164e-10	0.042426366	0.042426366	0	52398.992	52398.9	-4.5983204e-05	638413.2	247366.14	-0.00048680903	247366.84	638412.2	-0.00039258794
0	0.6323263	0.63232505	-4.7642534e-10	0.04207292	0.04207292	0	52368.047	52367.938	-4.226739e-05	638660.1	246595.86	-0.00040829147	246596.6	638659.1	-0.00035332915
0	0.63195103	0.6319498	-1.9468854e-10	0.041719366	0.041719366	0	52336.96	52336.855	-2.0901456e-05	638906.25	245824.38	-0.00028266333	245825.12	638905.25	-8.636935e-05
0	0.63157207	0.6315708	-2.4616867e-10	0.041365687	0.041365687	0	52305.58	52305.473	-2.322384e-05	639153.94	245046.14	-0.00029836682	245046.92	639152.9	-0.00012170226
0	0.6311877	0.6311863	-1.2729635e-10	0.041012146	0.041012146	0	52273.742	52273.637	-1.300535e-05	639403.75	244258.11	-0.00018059045	244258.86	639402.75	-5.8888192e-05
0	0.6308041	0.63080275	-4.5302526e-10	0.040658668	0.040658668	0	52241.98	52241.875	-4.3196345e-05	639653.94	243470.95	-0.00040829147	243471.77	639652.94	-0.000325848
0	0.63041854	0.6304172	-2.527207e-10	0.04030513	0.04030513	0	52210.05	52209.94	-2.5081748e-05	639902.5	242682.64	-0.00029051508	242683.44	639901.44	-0.00021984924
0	0.63003105	0.6300298	-1.7596849e-10	0.039951418	0.039951418	0	52177.96	52177.855	-1.02184895e-05	640150.5	241892.25	-0.00010207287	241893.05	640149.5	-8.636935e-05
0	0.6296394	0.6296381	-3.63169e-10	0.039597884	0.039597884	0	52145.52	52145.41	-2.9262039e-05	640400.6	241093.72	-0.0003219221	241094.53	640399.56	-0.00025518215
0	0.6292466	0.62924534	-4.1090514e-10	0.03924456	0.03924456	0	52112.992	52112.883	-4.0409483e-05	640648.75	240295.75	-0.0004396985	240296.56	640647.7	-0.00025910803
0	0.62884724	0.6288459	-5.9904165e-11	0.038890846	0.038890846	0	52079.914	52079.805	-4.1802914e-06	640900.25	239485.06	-7.851759e-05	239485.88	640899.2	-6.673995e-05
0	0.6284489	0.6284475	-1.8813652e-10	0.038537316	0.038537316	0	52046.92	52046.81	-2.0901456e-05	641152	238675.48	-0.00020414573	238676.33	641151.06	-0.00018844221
0	0.6280475	0.62804615	-2.9952082e-10	0.03818381	0.03818381	0	52013.69	52013.57	-3.0190993e-05	641402.75	237862.94	-0.00029836682	237863.78	641401.7	-0.00025125628
0	0.6276431	0.6276417	-3.968651e-10	0.03783028	0.03783028	0	51980.19	51980.082	-2.9726516e-05	641653.94	237045.53	-0.0003062186	237046.42	641652.94	-0.00021199748
0	0.62723744	0.627236	-1.3291236e-10	0.03747657	0.03747657	0	51946.6	51946.48	-6.0381985e-06	641903.3	236228.23	-6.281407e-05	236229.11	641902.25	-0.00010992462
0	0.62682515	0.6268238	-3.0700884e-10	0.037123095	0.037123095	0	51912.45	51912.332	-2.2759365e-05	642158.25	235396.06	-0.00012562814	235396.94	642157.2	-0.00031407035
0	0.62641346	0.626412	-6.364818e-11	0.03676955	0.03676955	0	51878.355	51878.234	-7.431629e-06	642410.06	234567.84	-1.5703517e-05	234568.78	642408.94	-6.281407e-05
0	0.6259973	0.6259958	-8.985625e-11	0.036416046	0.036416046	0	51843.887	51843.76	-6.9671523e-06	642663.1	233732.12	-1.5703517e-05	233733.05	642662	-5.8888192e-05
0	0.62557966	0.6255783	1.9656055e-11	0.036062334	0.036062334	0	51809.3	51809.18	9.289536e-07	642915.8	232894.84	-0.00010207287	232895.78	642914.6	1.5703517e-05
0	0.6251586	0.6251571	-9.640826e-11	0.035708837	0.035708837	0	51774.434	51774.312	-5.1092447e-06	643167.44	232053.69	-3.1407035e-05	232054.62	643166.3	-8.636935e-05
0	0.62473625	0.6247348	-3.2947292e-10	0.035355467	0.035355467	0	51739.457	51739.332	-2.4617271e-05	643419.94	231209.89	-0.000455402	231210.84	643418.75	-7.066583e-05
0	0.62430835	0.62430686	-5.9904165e-10	0.03500176	0.03500176	0	51704.016	51703.895	-4.9234543e-05	643676.7	230354.06	-0.0005103643	230355.05	643675.6	-0.0003611809
0	0.62387896	0.6238775	-5.962337e-10	0.034648262	0.034648262	0	51668.46	51668.332	-5.1556926e-05	643930.94	229498.69	-0.00059673365	229499.69	643929.75	-0.00033762562
0	0.6234467	0.6234453	-1.4788841e-10	0.034294683	0.034294683	0	51632.66	51632.535	-1.300535e-05	644185.3	228639.1	-0.00021984924	228640.1	644184.25	-4.3184675e-05
0	0.62301254	0.62301105	-4.034171e-10	0.033941187	0.033941187	0	51596.7	51596.57	-3.483576e-05	644438.1	227778.47	-0.00042399496	227779.44	644437	-0.00025125628
0	0.62257415	0.62257254	-3.8048506e-10	0.03358748	0.03358748	0	51560.39	51560.258	-3.20489e-05	644693.3	226909.47	-0.0003611809	226910.5	644692.06	-0.00023555277
0	0.6221337	0.62213206	-3.968651e-10	0.033234052	0.033234052	0	51523.914	51523.78	-3.4603523e-05	644948.75	226037.33	-0.00027481155	226038.31	644947.6	-0.00028266333
0	0.62169	0.6216884	-4.0996914e-10	0.03288043	0.03288043	0	51487.164	51487.03	-3.344233e-05	645204.5	225160.39	-0.00043184674	225161.42	645203.3	-0.00016488694
0	0.6212419	0.62124044	-2.162166e-10	0.032526962	0.032526966	0	51450.06	51449.926	-1.9972504e-05	645461.06	224276.66	-0.00018844221	224277.69	645459.8	-0.00018451634
0	0.62078935	0.6207878	-1.3291236e-10	0.03217327	0.03217327	0	51412.582	51412.445	-1.1147444e-05	645720.7	223383.34	-0.0001334799	223384.39	645719.5	-2.3555276e-05
0	0.62033856	0.62033695	-4.043531e-10	0.031819798	0.031819798	0	51375.246	51375.113	-3.2513377e-05	645974.44	222498.47	-0.00048680903	222499.56	645973.3	-0.00018451634
0	0.6198813	0.61987966	-2.3493665e-10	0.031466365	0.031466365	0	51337.375	51337.234	-2.1365933e-05	646231.94	221600.81	-0.00014918341	221601.9	646230.6	-0.00029444095
0	0.6194209	0.6194192	-2.2464063e-10	0.031112675	0.031112675	0	51299.25	51299.11	-2.2759365e-05	646491.94	220696.23	-0.00027481155	220697.34	646490.6	-8.636935e-05
0	0.6189602	0.61895853	-2.6208072e-10	0.030759223	0.030759223	0	51261.094	51260.953	-1.6721166e-05	646747.1	219796.1	-0.00028266333	219797.22	646745.9	-0.00010599874
0	0.61849356	0.6184918	-3.60361e-10	0.030405547	0.030405546	0	51222.44	51222.297	-2.9726516e-05	647005.44	218884.34	-0.00035332915	218885.47	647004.2	-0.00023555277
0	0.6180233	0.61802155	-2.7705677e-10	0.030052094	0.030052094	0	51183.5	51183.355	-2.4617271e-05	647266.56	217965	-0.00029051508	217966.16	647265.25	-0.00010992462
0	0.617553	0.61755127	-7.768822e-11	0.029698402	0.029698404	0	51144.555	51144.406	-6.9671523e-06	647522.75	217050.36	-0.00016488694	217051.5	647521.4	3.9258794e-06
0	0.61707526	0.6170735	-5.522415e-11	0.029345002	0.029345002	0	51104.98	51104.836	-8.360583e-06	647782.75	216121.38	-3.1407035e-05	216122.56	647781.5	-3.9258794e-05
0	0.6165978	0.6165959	-2.2464063e-10	0.028991321	0.028991321	0	51065.434	51065.28	-1.9972504e-05	648041.7	215193.89	-0.00018059045	215195.1	648040.3	-0.00016881281
0	0.6161156	0.6161137	-2.6020872e-10	0.028637862	0.02863786	0	51025.504	51025.355	-1.6721166e-05	648301.1	214259.4	-0.00028266333	214260.6	648299.9	-1.9629397e-05
0	0.61562735	0.61562544	-1.797125e-10	0.028284196	0.028284194	0	50985.066	50984.918	-1.4398781e-05	648562.75	213314.25	-0.00020414573	213315.48	648561.4	-7.851759e-05
0	0.6151405	0.6151387	-2.564647e-10	0.027930735	0.027930735	0	50944.76	50944.605	-1.8579072e-05	648822.6	212372.97	-0.00023555277	212374.23	648821.2	-0.00014133166
0	0.61464673	0.6146449	-2.0966458e-10	0.027577272	0.027577272	0	50903.86	50903.707	-1.8114595e-05	649085.9	211418.3	-0.00028266333	211419.55	649084.5	-8.636935e-05
0	0.6141522	0.6141503	-3.4164095e-11	0.027223593	0.027223593	0	50862.9	50862.742	-7.896106e-06	649344.4	210467.39	-0.00020414573	210468.66	649343	1.1777638e-05
0	0.6136522	0.61365026	-1.4976041e-10	0.026870122	0.026870122	0	50821.496	50821.34	-1.4863258e-05	649608.4	209503.5	-0.00014133166	209504.78	649606.94	-0.00016881281
0	0.61315167	0.6131498	-4.949114e-10	0.026516465	0.026516465	0	50780.043	50779.88	-3.9016053e-05	649867.2	208543.9	-0.0005103643	208545.19	649865.75	-0.00020021985
0	0.6126428	0.61264086	-3.1590086e-10	0.026162991	0.02616299	0	50737.9	50737.734	-2.322384e-05	650132.56	207565.94	-0.00029836682	207567.28	650131.25	-0.0001727387
0	0.6121355	0.61213356	-6.0372166e-11	0.025809323	0.025809323	0	50695.883	50695.715	-6.502675e-06	650391.9	206596.48	-0.00010207287	206597.83	650390.44	-7.4591706e-05
0	0.6116216	0.61161965	-1.8720052e-10	0.025455913	0.025455913	0	50653.324	50653.16	-1.5327734e-05	650654.9	205614.03	-0.00029836682	205615.4	650653.4	-5.8888192e-05
0	0.61110276	0.6111007	-3.968651e-10	0.025102256	0.025102256	0	50610.355	50610.184	-3.344233e-05	650918.5	204623.95	-0.00036903267	204625.31	650917.06	-0.00023555277
0	0.6105825	0.61058044	-3.6012698e-10	0.024748772	0.024748772	0	50567.26	50567.094	-3.1584423e-05	651181.8	203632.2	-0.00047895728	203633.62	651180.4	-0.00016096105
0	0.6100573	0.6100552	-3.7229503e-10	0.02439513	0.024395132	0	50523.77	50523.598	-3.0190993e-05	651446	202632.73	-0.00037688442	202634.12	651444.56	-0.000227701
0	0.6095278	0.60952574	-1.7292648e-10	0.024041649	0.024041649	0	50479.918	50479.746	-1.34698275e-05	651713.06	201624.42	-7.066583e-05	201625.88	651711.6	-0.00015703517
0	0.6089966	0.6089946	-6.3203576e-10	0.023688165	0.023688165	0	50435.926	50435.75	-4.9699018e-05	651977.2	200616.58	-0.00055747485	200618.03	651975.8	-0.00040436556
0	0.6084608	0.6084587	-1.4976041e-10	0.023334505	0.023334503	0	50391.547	50391.37	-1.02184895e-05	652242.25	199601.36	-0.00010207287	199602.84	652240.8	-5.8888192e-05
0	0.6079222	0.60792005	-3.968651e-10	0.022981014	0.022981014	0	50346.945	50346.766	-3.344233e-05	652504.94	198584.58	-0.00051821605	198586.1	652503.44	-0.000117776384
0	0.6073786	0.6073764	-2.6956876e-10	0.022627387	0.022627387	0	50301.92	50301.74	-2.4152794e-05	652770.75	197557.73	-0.00037688442	197559.27	652769.2	-5.1036433e-05
0	0.60682935	0.6068272	-2.527207e-10	0.022273887	0.022273887	0	50256.44	50256.254	-2.4152794e-05	653039.6	196520.02	-0.00025910803	196521.55	653038.06	-0.00018844221
0	0.60627997	0.6062778	-3.992051e-10	0.021920247	0.021920247	0	50210.945	50210.76	-3.3906806e-05	653302.7	195487.88	-0.0003847362	195489.44	653301.06	-0.0002473304
0	0.60572207	0.60571986	-2.4429667e-10	0.021566827	0.021566823	0	50164.742	50164.555	-1.9508027e-05	653572.75	194436.62	-0.00037688442	194438.22	653571.1	3.9258794e-06
0	0.6051646	0.6051624	-2.0217655e-10	0.021213183	0.021213183	0	50118.574	50118.387	-1.9972504e-05	653836.56	193392.36	-0.00021984924	193393.98	653834.94	-7.851759e-05
0	0.6046008	0.6045985	-2.4289268e-10	0.020859683	0.020859683	0	50071.87	50071.676	-1.9508027e-05	654104.44	192334.95	-0.0003219221	192336.6	654102.9	-5.496231e-05
0	0.60403156	0.6040293	-7.17446e-10	0.020506073	0.020506073	0	50024.734	50024.547	-5.573722e-05	654372.6	191269.97	-0.0005731784	191271.6	654371.06	-0.00044755026
0	0.6034592	0.6034568	-5.456895e-10	0.020152565	0.020152565	0	49977.32	49977.133	-4.5983204e-05	654640.94	190200.19	-0.00044755026	190201.89	654639.3	-0.00035332915
0	0.60288376	0.6028814	-4.2260517e-10	0.019798942	0.019798942	0	49929.668	49929.473	-3.1584423e-05	654909.8	189125.72	-0.0003454774	189127.44	654908.25	-0.00022377513
0	0.6023018	0.6022995	-1.1232031e-10	0.019445423	0.019445423	0	49881.477	49881.277	-8.825059e-06	655179.4	188041.48	-7.851759e-05	188043.22	655177.75	-7.066583e-05
0	0.60171723	0.60171473	-2.3704266e-10	0.019091904	0.019091904	0	49833.055	49832.86	-1.6721166e-05	655448.9	186953.42	-0.00023555277	186955.19	655447.25	-0.0001236652
0	0.6011277	0.60112524	-3.3789693e-10	0.018738285	0.018738285	0	49784.24	49784.035	-2.6475178e-05	655719.2	185857.83	-0.00028266333	185859.61	655717.5	-0.00023358982
0	0.6005331	0.6005306	-3.61765e-10	0.018384775	0.018384775	0	49734.99	49734.785	-2.7404132e-05	655990.3	184754.23	-0.0003454774	184756.05	655988.6	-0.00017862751
0	0.5999351	0.5999326	-3.1239086e-10	0.018031167	0.018031167	0	49685.47	49685.258	-2.8333086e-05	656260.75	183646.48	-0.0003847362	183648.33	656259.1	-0.00013936871
0	0.59933275	0.5993301	-5.4522153e-10	0.017677734	0.017677732	0	49635.582	49635.37	-4.3196345e-05	656531.75	182532.12	-0.0006438442	182533.98	656530	-0.00018451634
0	0.5987252	0.5987226	-5.374995e-10	0.017324131	0.017324131	0	49585.26	49585.047	-4.226739e-05	656804.06	181409.22	-0.00041614322	181411.14	656802.3	-0.0003651068
0	0.5981122	0.59810954	-4.1932915e-10	0.016970593	0.016970593	0	49534.5	49534.285	-3.20489e-05	657077.2	180278	-0.00047110554	180279.9	657075.44	-0.0001727387
0	0.59749615	0.5974936	-2.4336066e-10	0.016617026	0.016617026	0	49483.484	49483.26	-1.904355e-05	657349.6	179143.14	-0.00021984924	179145.06	657347.8	-0.00012562814
0	0.5968738	0.59687114	-3.5006498e-10	0.016263481	0.016263481	0	49431.945	49431.72	-2.60107e-05	657623.25	177998.19	-0.00027873743	178000.14	657621.44	-0.00024340452
0	0.596247	0.5962443	-2.6652675e-10	0.015909899	0.015909899	0	49380.03	49379.8	-2.183041e-05	657897.75	176846.12	-0.00031407035	176848.11	657895.9	-6.673995e-05
0	0.5956159	0.5956132	-1.5373842e-10	0.015556337	0.015556337	0	49327.766	49327.54	-1.7185643e-05	658171.94	175688.31	-0.00023947864	175690.34	658170.1	-3.3369975e-05
0	0.5949794	0.59497666	-2.3540464e-10	0.015202773	0.015202773	0	49275.047	49274.816	-1.904355e-05	658447.5	174521.69	-0.0001923681	174523.73	658445.6	-0.00014918341
0	0.594336	0.5943332	-2.9858482e-10	0.014849202	0.014849201	0	49221.758	49221.527	-2.5546226e-05	658726.44	173341.77	-0.0002669598	173343.88	658724.7	-0.0001531093
0	0.5936916	0.5936887	-1.797125e-10	0.014495661	0.014495661	0	49168.39	49168.164	-1.1147444e-05	658999.56	172166.6	-0.00037688442	172168.73	658997.7	0.00010599874
0	0.5930385	0.5930357	-2.9764882e-10	0.014142097	0.014142097	0	49114.31	49114.07	-2.5546226e-05	659279.6	170972.17	-0.00036903267	170974.34	659277.7	-0.00012759108
0	0.5923818	0.5923789	-4.4928125e-10	0.013788636	0.013788636	0	49059.914	49059.676	-4.1802912e-05	659557.1	169775.19	-0.0003808103	169777.36	659555.3	-0.0003611809
0	0.59172225	0.59171927	-5.059094e-10	0.013435061	0.013435061	0	49005.297	49005.047	-4.4125296e-05	659831.3	168577.62	-0.00040436556	168579.86	659829.4	-0.000390625
0	0.59105194	0.59104896	-1.7596849e-10	0.013081495	0.013081496	0	48949.79	48949.535	-1.4398781e-05	660114.44	167356.08	-0.00021199748	167358.34	660112.44	-0.00013544284
0	0.5903794	0.59037644	-4.1184114e-10	0.012727956	0.012727956	0	48894.082	48893.836	-3.5300236e-05	660393.94	166134.94	-0.00055747485	166137.22	660392	-6.281407e-05
0	0.5897033	0.58970034	-5.3352145e-10	0.012374386	0.012374386	0	48838.094	48837.844	-4.2731866e-05	660670.7	164911.64	-0.0005496231	164913.97	660668.8	-0.00030229273
0	0.5890196	0.5890165	-3.6691303e-10	0.0120208245	0.0120208245	0	48781.465	48781.215	-2.8333086e-05	660951.6	163673.53	-0.0002669598	163675.9	660949.6	-0.00020414573
0	0.58832765	0.5883244	-6.3835376e-10	0.0116672525	0.0116672525	0	48724.156	48723.89	-5.20214e-05	661236.94	162419.17	-0.0006556219	162421.58	661235	-0.00030425566
0	0.58763444	0.5876313	-2.873528e-10	0.011313694	0.011313694	0	48666.75	48666.492	-2.4152794e-05	661516	161169.75	-0.0003454774	161172.2	661514.06	-6.085113e-05
0	0.5869333	0.5869301	-6.1776173e-10	0.0109601235	0.0109601235	0	48608.684	48608.418	-4.644768e-05	661799.1	159905	-0.00050251256	159907.48	661797.2	-0.00040240263
0	0.586224	0.5862208	-3.7206102e-10	0.010606592	0.010606592	0	48549.945	48549.676	-3.344233e-05	662087.4	158623.8	-0.00042792087	158626.28	662085.3	-0.0001432946
0	0.58551085	0.5855076	-2.6020872e-10	0.010253036	0.010253036	0	48490.88	48490.605	-2.2759365e-05	662372.6	157340	-0.00037295854	157342.55	662370.56	-8.0480524e-05
0	0.5847942	0.58479095	-4.4928125e-10	0.009899471	0.009899471	0	48431.535	48431.258	-3.5300236e-05	662654.7	156054.66	-0.00025518215	156057.27	662652.6	-0.0004396985
0	0.5840688	0.58406544	-3.8282505e-10	0.009545952	0.009545952	0	48371.45	48371.168	-3.065547e-05	662941.75	154751.88	-0.00024340452	154754.52	662939.7	-0.0003062186
0	0.5833363	0.58333284	-5.756416e-10	0.009192388	0.009192388	0	48310.79	48310.51	-4.7376634e-05	663230.3	153437.8	-0.00052606786	153440.47	663228.25	-0.00031014447
0	0.5825962	0.5825928	-5.887456e-10	0.008838866	0.008838867	0	48249.496	48249.207	-4.7841113e-05	663523.25	152108.72	-0.0005771043	152111.44	663521.1	-0.00033369975
0	0.5818515	0.58184797	3.3696095e-11	0.008485297	0.008485297	0	48187.816	48187.523	4.644768e-07	663813.6	150775.61	-0.00021984924	150778.38	663811.5	0.0002473304
0	0.5811022	0.5810987	-2.6582472e-10	0.008131741	0.008131742	0	48125.76	48125.473	-1.9508027e-05	664101.3	149438.9	-0.00031014447	149441.72	664099.2	-8.0480524e-05
0	0.5803419	0.58033836	-3.4632094e-10	0.0077781687	0.0077781687	0	48062.797	48062.496	-2.6939655e-05	664397.56	148078.22	-0.0003651068	148081.08	664395.4	-0.00014525754
0	0.57957923	0.5795756	-3.3883293e-10	0.007424601	0.0074246004	0	47999.637	47999.336	-3.0190993e-05	664687.7	146720.36	-0.00043184674	146723.27	664685.56	-0.000111887566
0	0.5788047	0.578801	-3.6691303e-10	0.007071049	0.0070710485	0	47935.492	47935.188	-3.065547e-05	664986.56	145337.03	-0.000325848	145340	664984.44	-0.00021592337