//mumax 3.10 [windows_amd64 go1.11.6(gc) CUDA-11.0]
//GPU info: NVIDIA GeForce RTX 3090(24575MB), CUDA Driver 12.0, cc=8.6, using cc=80 PTX
//(c) Arne Vansteenkiste, Dynamat LAB, Ghent University, Belgium
//This is free software without any warranty. See license.txt
//********************************************************************//
//  If you use mumax in any work or publication,                      //
//  we kindly ask you to cite the references in references.bib        //
//********************************************************************//
//output directory: r1;p0.1;a5.12e-07;l1.8000000000000002e-07;s1.out/
randSeed(1)
ThermSeed(1)
resolution := 2e-09
zResolution := 5e-09
a := 5.12e-07
gridSize := 512
gridDepth := 5
SetCellsize(resolution, resolution, zResolution)
SetGridsize(gridSize, gridSize, gridDepth)
SetPBC(16, 16, 0)
//resizing...
Msat = 700e3
Aex = 13e-12
alpha = 0.2
Bmax := 0.1
Bstep := Bmax / 500.0
TableAdd(B_ext)
TableAdd(m_full)
islandWidth := 8e-08
islandLength := 1.8000000000000002e-07
ellipseConstant := 9.000000000000001e-09
hIsland := rect(islandLength-2*ellipseConstant, islandWidth)
hIsland = hIsland.add(ellipse(ellipseConstant*2, islandWidth).transl(islandLength/2-ellipseConstant, 0, 0))
hIsland = hIsland.add(ellipse(ellipseConstant*2, islandWidth).transl(-islandLength/2+ellipseConstant, 0, 0))
hIsland = hIsland.sub(rect(1e-08, -6.4264330766189e-09).transl(5.3970045586898916e-08, -4e-08, 0))
hIsland = hIsland.add(rect(1e-08, 2.7509781280567737e-09).transl(-7.917632677424752e-08, -4e-08, 0))
hIsland = hIsland.sub(rect(1e-08, -4.250226939662454e-09).transl(-2.6449774228845713e-08, -4e-08, 0))
hIsland = hIsland.sub(rect(1e-08, -1.3237366802841987e-09).transl(-6.311238160452912e-08, -4e-08, 0))
hIsland = hIsland.sub(rect(1e-08, -6.651626815456613e-09).transl(6.816725202904806e-08, -4e-08, 0))
hIsland = hIsland.sub(rect(1e-08, -3.776141343615186e-09).transl(-6.545388722980119e-08, -4e-08, 0))
hIsland = hIsland.sub(rect(1e-08, -7.220513660924247e-09).transl(-4.764396834293203e-08, -4e-08, 0))
hIsland = hIsland.add(rect(1e-08, 6.569399206971669e-10).transl(2.0114160272003523e-08, -4e-08, 0))
hIsland = hIsland.add(rect(1e-08, 3.762294705053229e-09).transl(-5.490545400003807e-08, -4e-08, 0))
hIsland = hIsland.sub(rect(1e-08, -5.052679861892938e-09).transl(-4.080050595375992e-08, -4e-08, 0))
hIsland = hIsland.add(rect(1e-08, 4.79030151331146e-09).transl(8.225999267214555e-08, -3.9606064747248626e-08, 0))
hIsland = hIsland.sub(rect(1e-08, -2.3893352259978504e-09).transl(1.0185550786663511e-08, -4e-08, 0))
hIsland = hIsland.sub(rect(1e-08, -1.850999268217066e-09).transl(5.8000254287802696e-08, -4e-08, 0))
hIsland = hIsland.add(rect(1e-08, 7.954256176404359e-10).transl(6.897913781594678e-08, -4e-08, 0))
hIsland = hIsland.add(rect(1e-08, 1.1246046487946149e-09).transl(8.200584963566986e-08, -3.9749404284172914e-08, 0))
hIsland = hIsland.add(rect(1e-08, 1.0445950252027494e-09).transl(-4.101779296738894e-08, -4e-08, 0))
hIsland = hIsland.add(rect(1e-08, 2.965981150880882e-09).transl(-6.417835710965808e-09, -4e-08, 0))
hIsland = hIsland.sub(rect(1e-08, -1.8664701693849315e-09).transl(-1.7687902239954727e-08, -4e-08, 0))
hIsland = hIsland.sub(rect(1e-08, -3.6660485234772516e-09).transl(-5.428945119969661e-08, -4e-08, 0))
hIsland = hIsland.sub(rect(1e-08, -8.204727776419493e-09).transl(7.115740509294592e-08, -4e-08, 0))
hIsland = hIsland.sub(rect(1e-08, -7.630065846735452e-09).transl(-5.299277672517868e-08, -4e-08, 0))
hIsland = hIsland.sub(rect(1e-08, -3.3071602246394196e-09).transl(-2.6138681824416983e-08, -4e-08, 0))
hIsland = hIsland.sub(rect(1e-08, -4.2394687711772395e-09).transl(7.742317527229056e-08, -4e-08, 0))
hIsland = hIsland.add(rect(1e-08, 3.5414191906827556e-09).transl(-4.423398381129519e-08, -4e-08, 0))
hIsland = hIsland.add(rect(1e-08, 1.3419852279306932e-09).transl(-5.240391949652051e-08, -4e-08, 0))
hIsland = hIsland.add(rect(1e-08, 4.889208156080024e-09).transl(-1.0622594899844113e-08, -4e-08, 0))
hIsland = hIsland.add(rect(1e-08, 6.924205537053862e-09).transl(2.6460722331217727e-08, -4e-08, 0))
hIsland = hIsland.add(rect(1e-08, 4.204531305617536e-09).transl(-4.389320972265619e-08, -4e-08, 0))
hIsland = hIsland.add(rect(1e-08, 2.8235683056176386e-09).transl(4.9574700167637153e-08, -4e-08, 0))
hIsland = hIsland.sub(rect(1e-08, -3.4977380357177177e-09).transl(8.449373649465989e-08, -3.6863124953681685e-08, 0))
hIsland = hIsland.add(rect(1e-08, 3.4353310346048547e-09).transl(-2.3958280494126323e-08, -4e-08, 0))
hIsland = hIsland.sub(rect(1e-08, -4.613812306587207e-09).transl(6.885833079577027e-08, -4e-08, 0))
hIsland = hIsland.sub(rect(1e-08, -4.011845592326766e-09).transl(-1.626682165964849e-08, -4e-08, 0))
hIsland = hIsland.sub(rect(1e-08, -1.3670768216903584e-09).transl(-5.3983519743474e-08, -4e-08, 0))
hIsland = hIsland.sub(rect(1e-08, -3.3481267613971363e-09).transl(-8.223209482144354e-08, -3.9623398088359146e-08, 0))
hIsland = hIsland.sub(rect(1e-08, -2.5245253169238936e-09).transl(1.4324192807243745e-08, -4e-08, 0))
hIsland = hIsland.sub(rect(1e-08, -3.0695037521782728e-09).transl(9.432826514078358e-09, -4e-08, 0))
hIsland = hIsland.add(rect(1e-08, 2.8778983341941634e-09).transl(-4.598756285041507e-08, -4e-08, 0))
hIsland = hIsland.add(rect(1e-08, 2.467965166788966e-10).transl(7.94562497494908e-08, -4e-08, 0))
hIsland = hIsland.sub(rect(1e-08, -5.43254386274301e-10).transl(-2.2087996068366204e-08, -4e-08, 0))
hIsland = hIsland.sub(rect(1e-08, -5.572688052764351e-09).transl(-3.833544882696976e-08, -4e-08, 0))
hIsland = hIsland.sub(rect(1e-08, -2.4399167474721317e-09).transl(-1.8575347015583137e-08, -4e-08, 0))
hIsland = hIsland.add(rect(1e-08, 3.866618539592282e-09).transl(-4.853471274183159e-08, -4e-08, 0))
hIsland = hIsland.add(rect(1e-08, 4.507150066620903e-10).transl(-5.6550204470163656e-08, -4e-08, 0))
hIsland = hIsland.add(rect(1e-08, 5.700718322854781e-09).transl(5.875646571464214e-08, -4e-08, 0))
hIsland = hIsland.add(rect(1e-08, 1.950885913693144e-09).transl(-2.8388981892628758e-08, -4e-08, 0))
hIsland = hIsland.sub(rect(1e-08, -4.2268027196726185e-09).transl(1.8459991648182277e-08, -4e-08, 0))
hIsland = hIsland.sub(rect(1e-08, -6.747636712924983e-10).transl(1.2070485596806604e-08, -4e-08, 0))
hIsland = hIsland.sub(rect(1e-08, -4.791214250300272e-09).transl(-2.7856756081307908e-08, -4e-08, 0))
hIsland = hIsland.add(rect(1e-08, 5.105218058344485e-09).transl(-2.846619782442884e-08, -4e-08, 0))
hIsland = hIsland.add(rect(1e-08, 2.5251103408224897e-09).transl(-1.1131860622254826e-08, -4e-08, 0))
hIsland = hIsland.sub(rect(1e-08, -1.4210701034797292e-09).transl(-7.340357704580439e-08, -4e-08, 0))
hIsland = hIsland.add(rect(1e-08, 2.8938119432721548e-09).transl(5.9370899609226184e-08, -4e-08, 0))
hIsland = hIsland.add(rect(1e-08, 4.814527454214844e-09).transl(1.767006721328605e-08, -4e-08, 0))
hIsland = hIsland.sub(rect(1e-08, -1.0893155542509845e-09).transl(-1.803513023955493e-08, -4e-08, 0))
hIsland = hIsland.add(rect(1e-08, 4.0744764979216277e-11).transl(-7.398496026329233e-08, -4e-08, 0))
hIsland = hIsland.sub(rect(1e-08, -1.2468091918680733e-09).transl(-3.689327039948647e-08, -4e-08, 0))
hIsland = hIsland.sub(rect(1e-08, -2.7823622434061945e-09).transl(1.2441126458375485e-08, -4e-08, 0))
hIsland = hIsland.add(rect(1e-08, 4.205005401555621e-09).transl(1.736081315561736e-08, -4e-08, 0))
hIsland = hIsland.sub(rect(1e-08, -3.908334224828514e-09).transl(-6.728770591628148e-08, -4e-08, 0))
hIsland = hIsland.sub(rect(1e-08, -5.228555960956722e-09).transl(2.8514489186265867e-08, -4e-08, 0))
hIsland = hIsland.sub(rect(1e-08, -1.70699964331805e-09).transl(-6.04050792705901e-08, -4e-08, 0))
hIsland = hIsland.add(rect(1e-08, 6.632416377578125e-09).transl(-4.0164619694081386e-08, -4e-08, 0))
hIsland = hIsland.add(rect(1e-08, 2.144694883111409e-09).transl(-8.036981562596725e-08, -4e-08, 0))
hIsland = hIsland.sub(rect(1e-08, -6.367046802511396e-10).transl(5.502752610487214e-08, -4e-08, 0))
hIsland = hIsland.sub(rect(1e-08, -8.070400972589644e-10).transl(-1.3193467529993483e-08, -4e-08, 0))
hIsland = hIsland.sub(rect(1e-08, -2.211311559226158e-09).transl(-6.558792750487098e-08, -4e-08, 0))
hIsland = hIsland.add(rect(1e-08, 3.5563208047780238e-09).transl(-7.56920714885511e-08, -4e-08, 0))
hIsland = hIsland.add(rect(1e-08, 1.9526867205999426e-09).transl(3.912692345564064e-08, -4e-08, 0))
hIsland = hIsland.add(rect(1e-08, 2.4524704311794943e-10).transl(-6.350681519411754e-08, -4e-08, 0))
hIsland = hIsland.add(rect(1e-08, 2.165554311013137e-09).transl(2.776280770158746e-09, -4e-08, 0))
hIsland = hIsland.add(rect(1e-08, 1.0595467875341067e-09).transl(-4.764309396480635e-08, -4e-08, 0))
hIsland = hIsland.sub(rect(1e-08, -2.1360784127794725e-09).transl(5.371957882301534e-08, -4e-08, 0))
hIsland = hIsland.add(rect(1e-08, 4.952037091853367e-09).transl(-6.237570515908716e-08, -4e-08, 0))
hIsland = hIsland.add(rect(1e-08, 1.6664716556345908e-09).transl(3.092061985070021e-08, -4e-08, 0))
hIsland = hIsland.sub(rect(1e-08, -1.8163197405333413e-09).transl(-6.279238353513276e-08, -4e-08, 0))
hIsland = hIsland.sub(rect(1e-08, -4.5328799551556875e-09).transl(-8.575888622162447e-08, -3.395072738496272e-08, 0))
hIsland = hIsland.add(rect(1e-08, 8.63605633227362e-09).transl(-6.550084963587606e-08, -4e-08, 0))
hIsland = hIsland.sub(rect(1e-08, -1.1990671042741454e-09).transl(-7.419562802745648e-08, -4e-08, 0))
hIsland = hIsland.add(rect(1e-08, 4.953358481036634e-09).transl(2.7288269224222177e-08, -4e-08, 0))
hIsland = hIsland.sub(rect(1e-08, -4.033341992524538e-09).transl(-6.185886179956756e-08, -4e-08, 0))
hIsland = hIsland.add(rect(1e-08, 6.374490626722289e-09).transl(1.9264873402639504e-08, -4e-08, 0))
hIsland = hIsland.add(rect(1e-08, 1.2609742373429452e-09).transl(-4.8176806689203485e-08, -4e-08, 0))
hIsland = hIsland.sub(rect(1e-08, -1.962642946373641e-10).transl(4.77353401422169e-08, -4e-08, 0))
hIsland = hIsland.sub(rect(1e-08, -2.118061214560144e-09).transl(4.1749276482897196e-08, -4e-08, 0))
hIsland = hIsland.sub(rect(1e-08, -4.89171023278579e-10).transl(4.5661233831037523e-08, -4e-08, 0))
hIsland = hIsland.sub(rect(1e-08, -3.0088655174491285e-09).transl(1.0340957968390245e-08, -4e-08, 0))
hIsland = hIsland.add(rect(1e-08, 2.2099464031048653e-09).transl(4.461778395725408e-08, -4e-08, 0))
hIsland = hIsland.add(rect(1e-08, 2.254318165884099e-10).transl(8.287806104719934e-08, -3.91194149525776e-08, 0))
hIsland = hIsland.sub(rect(1e-08, -2.226697292731294e-09).transl(2.9430120243683893e-08, -4e-08, 0))
hIsland = hIsland.sub(rect(1e-08, -5.403382814534915e-09).transl(-8.623565201601056e-08, -3.253501755423247e-08, 0))
hIsland = hIsland.sub(rect(1e-08, -2.958751700235084e-10).transl(-1.226487838601829e-08, -4e-08, 0))
hIsland = hIsland.add(rect(1e-08, 2.4103571943235337e-09).transl(2.1604598082023492e-08, -4e-08, 0))
hIsland = hIsland.sub(rect(1e-08, -1.0506786512906147e-09).transl(1.543558453774962e-08, -4e-08, 0))
hIsland = hIsland.add(rect(1e-08, 7.214872528876832e-10).transl(-1.298774271816116e-08, -4e-08, 0))
hIsland = hIsland.sub(rect(1e-08, -2.7872877636107668e-09).transl(7.398901158743974e-08, -4e-08, 0))
hIsland = hIsland.sub(rect(1e-08, -1.7633326760245324e-09).transl(6.726357323548297e-08, -4e-08, 0))
hIsland = hIsland.add(rect(1e-08, 2.689781576104655e-09).transl(-6.24448443902656e-08, -4e-08, 0))
hIsland = hIsland.sub(rect(1e-08, -5.4649780507671414e-09).transl(-4.21549566856121e-09, -4e-08, 0))
hIsland = hIsland.sub(rect(1e-08, -4.26586303545307e-09).transl(-2.759641097586803e-08, -4e-08, 0))
hIsland = hIsland.add(rect(1e-08, 2.514356461910229e-09).transl(3.562433419829859e-08, 4e-08, 0))
hIsland = hIsland.add(rect(1e-08, 4.5618593675478e-09).transl(-3.280410902783666e-08, 4e-08, 0))
hIsland = hIsland.add(rect(1e-08, 4.061126619590723e-09).transl(-5.340217426091777e-08, 4e-08, 0))
hIsland = hIsland.sub(rect(1e-08, -7.672698710081747e-09).transl(-3.06789731918142e-08, 4e-08, 0))
hIsland = hIsland.sub(rect(1e-08, -5.401072732402615e-10).transl(-4.975740082003496e-08, 4e-08, 0))
hIsland = hIsland.sub(rect(1e-08, -3.6615390508246013e-10).transl(-5.335802383658649e-09, 4e-08, 0))
hIsland = hIsland.sub(rect(1e-08, -1.511994101295776e-09).transl(1.597656157209371e-08, 4e-08, 0))
hIsland = hIsland.sub(rect(1e-08, -1.4205040649632637e-09).transl(5.449391853241069e-08, 4e-08, 0))
hIsland = hIsland.sub(rect(1e-08, -4.857558277940563e-09).transl(7.850502572260358e-09, 4e-08, 0))
hIsland = hIsland.sub(rect(1e-08, -3.4478537638146625e-09).transl(-5.928425708089501e-08, 4e-08, 0))
hIsland = hIsland.sub(rect(1e-08, -5.685919522632323e-10).transl(-5.006655076704702e-09, 4e-08, 0))
hIsland = hIsland.sub(rect(1e-08, -3.1976716352670695e-09).transl(-2.4925162506255617e-08, 4e-08, 0))
hIsland = hIsland.add(rect(1e-08, 2.6379961938280723e-09).transl(-7.290321885940262e-08, 4e-08, 0))
hIsland = hIsland.add(rect(1e-08, 8.750483964628818e-10).transl(7.076952096640509e-08, 4e-08, 0))
hIsland = hIsland.sub(rect(1e-08, -1.0952423484061954e-09).transl(5.6678755705290387e-08, 4e-08, 0))
hIsland = hIsland.sub(rect(1e-08, -4.40559253061597e-09).transl(-1.1335084760436774e-09, 4e-08, 0))
hIsland = hIsland.add(rect(1e-08, 6.598496542389718e-09).transl(1.1748801512862463e-08, 4e-08, 0))
hIsland = hIsland.sub(rect(1e-08, -2.9246433783577153e-09).transl(6.499181496930926e-08, 4e-08, 0))
hIsland = hIsland.add(rect(1e-08, 3.334651214685985e-09).transl(9.700625156333038e-09, 4e-08, 0))
hIsland = hIsland.add(rect(1e-08, 6.264519726895656e-10).transl(2.247016971270953e-08, 4e-08, 0))
hIsland = hIsland.add(rect(1e-08, 2.769661383069418e-10).transl(-6.313374088109532e-08, 4e-08, 0))
hIsland = hIsland.sub(rect(1e-08, -6.0372415063193826e-09).transl(-6.648609501493926e-08, 4e-08, 0))
hIsland = hIsland.add(rect(1e-08, 1.910057768673014e-09).transl(7.767964526511943e-08, 4e-08, 0))
hIsland = hIsland.add(rect(1e-08, 3.607008038328383e-09).transl(-2.4841240940752882e-09, 4e-08, 0))
hIsland = hIsland.add(rect(1e-08, 5.152520624745931e-09).transl(8.022586860719172e-08, 4e-08, 0))
hIsland = hIsland.add(rect(1e-08, 5.8142565717524e-09).transl(1.0282774246688513e-08, 4e-08, 0))
hIsland = hIsland.sub(rect(1e-08, -8.149812038692197e-10).transl(7.13946633262793e-08, 4e-08, 0))
hIsland = hIsland.sub(rect(1e-08, -1.8597291461588223e-09).transl(7.87637370701e-08, 4e-08, 0))
hIsland = hIsland.sub(rect(1e-08, -1.1725363402663737e-09).transl(-2.5045476443073568e-09, 4e-08, 0))
hIsland = hIsland.sub(rect(1e-08, -3.6140119952830644e-09).transl(-2.6000997870772645e-08, 4e-08, 0))
hIsland = hIsland.add(rect(1e-08, 3.3069000727332532e-09).transl(6.88363109067424e-08, 4e-08, 0))
hIsland = hIsland.sub(rect(1e-08, -2.0708652472438084e-10).transl(-5.227431226094478e-08, 4e-08, 0))
hIsland = hIsland.sub(rect(1e-08, -4.137118853845661e-09).transl(4.172542772326695e-08, 4e-08, 0))
hIsland = hIsland.sub(rect(1e-08, -5.8391477710389254e-09).transl(-1.8013982216418843e-08, 4e-08, 0))
hIsland = hIsland.add(rect(1e-08, 3.706619533290474e-09).transl(8.916130000289539e-08, 1.6861487867064384e-08, 0))
hIsland = hIsland.sub(rect(1e-08, -1.5306640987235766e-09).transl(-1.660026171926889e-08, 4e-08, 0))
hIsland = hIsland.add(rect(1e-08, 5.462948656682061e-10).transl(1.1143822600692499e-08, 4e-08, 0))
hIsland = hIsland.sub(rect(1e-08, -1.721673165681395e-10).transl(-2.388279795117756e-08, 4e-08, 0))
hIsland = hIsland.sub(rect(1e-08, -6.042933609330196e-10).transl(-8.049462461890369e-08, 4e-08, 0))
hIsland = hIsland.sub(rect(1e-08, -9.249213772013285e-09).transl(2.976643322537809e-08, 4e-08, 0))
hIsland = hIsland.add(rect(1e-08, 1.9960919523911257e-09).transl(-6.968483674607435e-08, 4e-08, 0))
hIsland = hIsland.add(rect(1e-08, 3.858364972729445e-09).transl(-8.255925790376194e-08, 3.939510900006536e-08, 0))
hIsland = hIsland.add(rect(1e-08, 1.8126911752941386e-09).transl(7.908981128056641e-08, 4e-08, 0))
hIsland = hIsland.add(rect(1e-08, 3.5580763813935055e-10).transl(3.281601878013723e-08, 4e-08, 0))
hIsland = hIsland.sub(rect(1e-08, -1.1958161885908053e-09).transl(4.652038777077478e-08, 4e-08, 0))
hIsland = hIsland.sub(rect(1e-08, -7.371740340948171e-09).transl(-5.9190271949860795e-08, 4e-08, 0))
hIsland = hIsland.sub(rect(1e-08, -4.3938128742416717e-10).transl(-7.679763845016272e-08, 4e-08, 0))
hIsland = hIsland.add(rect(1e-08, 3.311360632690579e-11).transl(8.428432688482868e-08, 3.724147347301549e-08, 0))
hIsland = hIsland.add(rect(1e-08, 5.292512985967273e-10).transl(5.950077484982199e-08, 4e-08, 0))
hIsland = hIsland.add(rect(1e-08, 1.3388976335828358e-10).transl(-6.452571539675452e-08, 4e-08, 0))
hIsland = hIsland.add(rect(1e-08, 2.6538480965711396e-09).transl(-5.8103118612182414e-08, 4e-08, 0))
hIsland = hIsland.add(rect(1e-08, 7.934416818693695e-09).transl(-5.6658400748013974e-08, 4e-08, 0))
hIsland = hIsland.add(rect(1e-08, 5.5458530312825744e-09).transl(4.16739431829474e-08, 4e-08, 0))
hIsland = hIsland.sub(rect(1e-08, -1.860593185722215e-09).transl(-1.7307676213797232e-09, 4e-08, 0))
hIsland = hIsland.sub(rect(1e-08, -8.10723065940361e-09).transl(-4.7035769749639836e-08, 4e-08, 0))
hIsland = hIsland.sub(rect(1e-08, -7.106435698758808e-09).transl(-8.05153106437603e-10, 4e-08, 0))
hIsland = hIsland.sub(rect(1e-08, -3.343610757576571e-09).transl(6.087573432927877e-08, 4e-08, 0))
hIsland = hIsland.add(rect(1e-08, 7.236399372305311e-09).transl(-6.024815344956841e-08, 4e-08, 0))
hIsland = hIsland.add(rect(1e-08, 2.2681337157867266e-10).transl(1.96893501713048e-08, 4e-08, 0))
hIsland = hIsland.sub(rect(1e-08, -1.205898671504081e-09).transl(-8.926647758623546e-08, 1.5817070519773775e-08, 0))
hIsland = hIsland.sub(rect(1e-08, -5.412973685030104e-09).transl(2.2728197471438584e-08, 4e-08, 0))
hIsland = hIsland.sub(rect(1e-08, -5.781519045963169e-09).transl(-3.639322478948282e-08, 4e-08, 0))
hIsland = hIsland.sub(rect(1e-08, -4.456913807864977e-09).transl(2.724460695064026e-08, 4e-08, 0))
hIsland = hIsland.add(rect(1e-08, 3.4913254523049735e-09).transl(5.860362466771051e-08, 4e-08, 0))
hIsland = hIsland.add(rect(1e-08, 4.858179948402963e-09).transl(5.255489828235892e-08, 4e-08, 0))
hIsland = hIsland.sub(rect(1e-08, -6.012156241206995e-09).transl(-5.558138499572356e-09, 4e-08, 0))
hIsland = hIsland.add(rect(1e-08, 3.175602426597875e-09).transl(-3.061421408695099e-08, 4e-08, 0))
hIsland = hIsland.sub(rect(1e-08, -7.274565219585733e-09).transl(-4.282759487697945e-09, 4e-08, 0))
hIsland = hIsland.sub(rect(1e-08, -5.018956680145152e-09).transl(-1.1216894107560902e-08, 4e-08, 0))
hIsland = hIsland.sub(rect(1e-08, -4.829414533136385e-09).transl(1.6539780156898306e-08, 4e-08, 0))
hIsland = hIsland.sub(rect(1e-08, -3.4972616152318213e-09).transl(3.8920492141007975e-08, 4e-08, 0))
hIsland = hIsland.sub(rect(1e-08, -3.882967634265642e-09).transl(6.46390380379563e-08, 4e-08, 0))
hIsland = hIsland.add(rect(1e-08, 7.542882454000986e-09).transl(3.027846229603781e-08, 4e-08, 0))
hIsland = hIsland.sub(rect(1e-08, -3.1881433961970694e-09).transl(1.0309236899110716e-08, 4e-08, 0))
hIsland = hIsland.sub(rect(1e-08, -1.2983893942691262e-09).transl(-6.697946591281024e-09, 4e-08, 0))
hIsland = hIsland.add(rect(1e-08, 1.835974315547569e-10).transl(7.266568438540551e-08, 4e-08, 0))
hIsland = hIsland.add(rect(1e-08, 5.981794894190715e-10).transl(3.962994907873771e-08, 4e-08, 0))
hIsland = hIsland.sub(rect(1e-08, -4.152389738217186e-09).transl(-5.4219939535681446e-08, 4e-08, 0))
hIsland = hIsland.sub(rect(1e-08, -3.155573447966245e-10).transl(3.575283385481749e-08, 4e-08, 0))
hIsland = hIsland.sub(rect(1e-08, -1.5667002895976006e-10).transl(5.637532528022165e-09, 4e-08, 0))
hIsland = hIsland.add(rect(1e-08, 4.236685136841724e-10).transl(2.5134627922257285e-08, 4e-08, 0))
hIsland = hIsland.sub(rect(1e-08, -9.037435319448237e-10).transl(2.3031124375586932e-08, 4e-08, 0))
hIsland = hIsland.sub(rect(1e-08, -5.554897668894149e-10).transl(1.6131401732552275e-08, 4e-08, 0))
hIsland = hIsland.add(rect(1e-08, 3.631676169011969e-09).transl(-7.324925798429459e-08, 4e-08, 0))
hIsland = hIsland.sub(rect(1e-08, -5.85312539181729e-10).transl(-7.61580096271659e-08, 4e-08, 0))
hIsland = hIsland.add(rect(1e-08, 1.402514043852554e-09).transl(3.3311942608530335e-08, 4e-08, 0))
hIsland = hIsland.sub(rect(1e-08, -3.4933950678096478e-09).transl(2.4322686664089472e-08, 4e-08, 0))
hIsland = hIsland.add(rect(1e-08, 4.444157107152248e-09).transl(-6.559868854405919e-08, 4e-08, 0))
hIsland = hIsland.sub(rect(1e-08, -6.437885417522895e-09).transl(6.397421650696489e-08, 4e-08, 0))
hIsland = hIsland.sub(rect(1e-08, -2.7648746723320936e-09).transl(-1.7979796414638517e-08, 4e-08, 0))
hIsland = hIsland.add(rect(1e-08, 9.740036426194254e-09).transl(1.8153138744837643e-08, 4e-08, 0))
hIsland = hIsland.sub(rect(1e-08, -4.665834721158062e-10).transl(3.178445005939766e-08, 4e-08, 0))
hIsland = hIsland.sub(rect(1e-08, -2.754745423660313e-09).transl(-1.6699087645431993e-09, 4e-08, 0))
hIsland = hIsland.add(rect(1e-08, 6.919550624608517e-09).transl(9.359911447890105e-09, 4e-08, 0))
hIsland = hIsland.sub(rect(1e-08, -9.878040107106144e-09).transl(1.0845752444124008e-08, 4e-08, 0))
hIsland = hIsland.add(rect(1e-08, 1.91850558363108e-09).transl(6.189090918900232e-08, 4e-08, 0))
hIsland = hIsland.sub(rect(1e-08, -2.607536311164822e-09).transl(-6.654645045091852e-08, 4e-08, 0))
hIsland = hIsland.sub(rect(1e-08, -3.108266914985362e-10).transl(-3.090078066472246e-08, 4e-08, 0))
hIsland = hIsland.add(rect(1e-08, 5.892745452693052e-09).transl(-3.319826312868015e-08, 4e-08, 0))
hIsland = hIsland.add(rect(1e-08, 4.812438746289708e-09).transl(1.1065590389366669e-08, 4e-08, 0))
vIsland := hIsland.rotz(pi / 2)
vIslands := Universe().Inverse()
hIslands := Universe().Inverse()
hIslands = hIslands.add(hIsland.transl(-a/2, a, 0))
hIslands = hIslands.add(hIsland.transl(-a/2, -a, 0))
hIslands = hIslands.add(hIsland.transl(a/2, a, 0))
hIslands = hIslands.add(hIsland.transl(a/2, -a, 0))
hIslands = hIslands.add(hIsland.transl(-a/2, 0, 0))
hIslands = hIslands.add(hIsland.transl(a/2, 0, 0))
vIslands = vIslands.add(vIsland.transl(-a, a/2, 0))
vIslands = vIslands.add(vIsland.transl(a, a/2, 0))
vIslands = vIslands.add(vIsland.transl(-a, -a/2, 0))
vIslands = vIslands.add(vIsland.transl(a, -a/2, 0))
vIslands = vIslands.add(vIsland.transl(0, a/2, 0))
vIslands = vIslands.add(vIsland.transl(0, -a/2, 0))
DefRegion(1, hIslands)
DefRegion(2, vIslands)
TableAdd(m_full.Region(1))
TableAdd(m_full.Region(2))
setgeom(hIslands.add(vIslands))
save(m)
r2o2 := sqrt(2) / 2
m = RandomMagSeed(4)
B_ext = vector(Bmax*r2o2, Bmax*r2o2, 0)
relax()
minimize()
for B := Bmax; B >= -Bmax; B -= Bstep {
	B_ext = vector(B*r2o2, B*r2o2, 0)
	minimize()
	tablesave()
}
//********************************************************************//
//Please cite the following references, relevant for your simulation. //
//See bibtex file in output folder for justification.                 //
//********************************************************************//
//   * Vansteenkiste et al., AIP Adv. 4, 107133 (2014).
//   * Exl et al., J. Appl. Phys. 115, 17D118 (2014).
