# t (s)	mx ()	my ()	mz ()	B_extx (T)	B_exty (T)	B_extz (T)	m_fullx (A/m)	m_fully (A/m)	m_fullz (A/m)	m_full.region1x (A/m)	m_full.region1y (A/m)	m_full.region1z (A/m)	m_full.region2x (A/m)	m_full.region2y (A/m)	m_full.region2z (A/m)
0	0.6405677	0.6405665	-6.2741734e-10	0.07071087	0.07071087	0	92011.15	92010.984	-9.09375e-05	651503.94	245289.81	-0.00049342104	245290.84	651503.3	-0.0004210831
0	0.6404588	0.64045703	-3.6308873e-10	0.070569105	0.07056911	0	91995.51	91995.25	-5e-05	651593.94	245046.8	-0.00011574074	245048.36	651593.06	-0.0003483644
0	0.6403463	0.64034444	-1.2199781e-10	0.07042789	0.07042789	0	91979.34	91979.08	-1.875e-05	651687.5	244795.77	-0.00015838207	244797.36	651686.56	-1.2563962e-05
0	0.64023244	0.64023066	-2.6142388e-10	0.07028652	0.07028652	0	91963	91962.73	-3.625e-05	651782	244541.83	-0.00014619883	244543.47	651781	-0.00022538986
0	0.6401192	0.6401174	-1.9171084e-10	0.070144884	0.070144884	0	91946.74	91946.47	-2.8125e-05	651876	244289.39	-7.0053604e-05	244291.02	651875	-0.0001880787
0	0.6400062	0.6400043	-3.5146988e-10	0.07000352	0.07000352	0	91930.484	91930.23	-4.984375e-05	651969.44	244037.61	-0.00024366472	244039.23	651968.5	-0.00024594908
0	0.6398912	0.63988936	-6.680832e-11	0.06986229	0.06986229	0	91913.98	91913.71	-1e-05	652064.1	243781.9	-4.8732945e-05	243783.56	652063.1	-7.3099414e-05
0	0.63977766	0.63977575	-1.9752026e-10	0.069720544	0.069720544	0	91897.65	91897.38	-3.25e-05	652158	243529	-0.00025584796	243530.62	652157.06	-6.243908e-05
0	0.63966227	0.6396603	1.5975904e-10	0.06957919	0.069579184	0	91881.086	91880.82	2.4375e-05	652252.8	243272.66	0.00019188596	243274.28	652251.94	9.746589e-05
0	0.63954806	0.63954616	-3.4566047e-10	0.069437966	0.069437966	0	91864.68	91864.414	-4.9375e-05	652346.75	243018.83	-0.0001675195	243020.47	652345.8	-0.00028630605
0	0.6394332	0.6394313	-2.8756628e-10	0.069296576	0.069296576	0	91848.18	91847.91	-4e-05	652441.3	242763.5	-0.00025584796	242765.16	652440.3	-0.00013668068
0	0.6393176	0.6393157	-2.9047098e-10	0.06915496	0.06915496	0	91831.586	91831.32	-4.125e-05	652535.7	242507.3	-0.0002680312	242508.95	652534.7	-0.0001370614
0	0.6392024	0.6392005	-3.253275e-10	0.069013596	0.069013596	0	91815.03	91814.766	-4.8125e-05	652630.06	242251.8	-0.00018884016	242253.42	652629.06	-0.00026193957
0	0.63908625	0.6390844	-2.2656736e-10	0.068872236	0.068872236	0	91798.34	91798.08	-2.75e-05	652724.94	241994.12	-0.00017970274	241995.78	652724	-0.00010393823
0	0.6389701	0.6389681	-4.1537349e-10	0.06873064	0.06873064	0	91781.664	91781.4	-5.46875e-05	652819.5	241736.9	-0.0002406189	241738.58	652818.56	-0.00034227278
0	0.63885367	0.63885176	-8.423658e-11	0.06858927	0.06858927	0	91764.94	91764.67	-8.125e-06	652914.2	241479.36	-2.7412281e-05	241481.03	652913.1	-0.00011574074
0	0.63873726	0.6387354	1.1618839e-10	0.06844801	0.06844801	0	91748.22	91747.95	1.875e-05	653008.8	241221.69	-3.35039e-05	241223.39	653007.9	0.00021054155
0	0.6386198	0.63861793	-2.323768e-11	0.06830665	0.06830665	0	91731.34	91731.07	-1.875e-06	653104	240962.08	-2.4366473e-05	240963.72	653103	6.8530703e-06
0	0.6385027	0.6385009	-5.2284777e-11	0.06816504	0.06816504	0	91714.54	91714.266	-7.5e-06	653198.75	240703.47	-6.091618e-05	240705.17	653197.75	-3.6549707e-05
0	0.6383856	0.6383837	-4.5023002e-10	0.068023674	0.068023674	0	91697.7	91697.43	-6.6875e-05	653293.44	240444.69	-0.00031676414	240446.36	653292.44	-0.00032133286
0	0.63826764	0.6382657	-3.7761227e-10	0.06788232	0.06788232	0	91680.766	91680.49	-5.40625e-05	653388.3	240184.77	-0.00031676414	240186.44	653387.3	-0.00022386695
0	0.6381489	0.63814694	-4.2989703e-10	0.067740716	0.067740716	0	91663.71	91663.43	-6.5e-05	653483.94	239922.8	-0.00024366472	239924.47	653482.94	-0.00038377193
0	0.63803166	0.63802975	-4.850865e-10	0.06759932	0.06759932	0	91646.875	91646.586	-7.4375e-05	653578.4	239664.25	-0.00035026803	239665.98	653577.4	-0.00038567555
0	0.63791215	0.6379102	-3.3694633e-10	0.06745809	0.06745809	0	91629.69	91629.414	-4.9375e-05	653674.2	239401.05	-0.00019493178	239402.72	653673.2	-0.00031752558
0	0.63779354	0.6377916	-3.4566047e-10	0.067316726	0.067316726	0	91612.664	91612.38	-4.4375e-05	653769.3	239139.95	-0.00026193957	239141.62	653768.25	-0.00021929825
0	0.6376747	0.6376728	-4.4151588e-10	0.067174986	0.067174986	0	91595.59	91595.31	-6.5625e-05	653864.25	238878.67	-0.00025889376	238880.36	653863.25	-0.00037120798
0	0.63755506	0.63755304	-1.7137788e-10	0.06703377	0.06703377	0	91578.4	91578.13	-2.625e-05	653959.44	238615.92	-0.00015838207	238617.66	653958.4	-8.147539e-05
0	0.6374349	0.63743293	-4.2989703e-10	0.066892385	0.066892385	0	91561.14	91560.86	-6.4375e-05	654055	238352.05	-0.00036549708	238353.73	654054.06	-0.00029239766
0	0.6373153	0.63731337	-3.1370867e-10	0.06675075	0.06675076	0	91543.97	91543.69	-4.4375e-05	654150.3	238089.33	-0.00028935185	238091.03	654149.4	-0.00018122564
0	0.63719463	0.6371927	-2.3237678e-10	0.0666094	0.0666094	0	91526.63	91526.37	-2.75e-05	654246.06	237824.75	-0.00017970274	237826.47	654245.06	-0.00014467593
0	0.6370742	0.6370722	-1.9461556e-10	0.066468164	0.06646816	0	91509.33	91509.05	-2.9375e-05	654341.75	237560.36	-0.00019493178	237562.06	654340.75	-0.00012183236
0	0.6369536	0.6369517	-2.8175684e-10	0.06632643	0.06632643	0	91492.02	91491.75	-4.1875e-05	654436.94	237296.48	-0.0002741228	237298.2	654435.94	-0.00017246894
0	0.63683146	0.63682956	-2.0042497e-10	0.06618507	0.06618507	0	91474.48	91474.195	-2.625e-05	654533.3	237029.03	-0.000109649125	237030.75	654532.3	-0.00013515777
0	0.63671064	0.6367086	-1.7428259e-10	0.06604384	0.06604384	0	91457.11	91456.83	-2.5625e-05	654628.8	236764.31	-0.00012183236	236766.06	654627.8	-0.0001340156
0	0.63658875	0.63658684	-2.5561447e-10	0.065902434	0.065902434	0	91439.62	91439.336	-3.9375e-05	654724.5	236498.11	-0.00015533625	236499.84	654723.44	-0.00019188596
0	0.6364667	0.63646483	1.7428259e-10	0.06576085	0.06576085	0	91422.086	91421.8	2.625e-05	654820.25	236231.45	0.000106603315	236233.2	654819.2	0.00014962537
0	0.6363448	0.6363428	-2.3237678e-10	0.065619476	0.06561948	0	91404.56	91404.29	-2.8125e-05	654916	235964.95	-0.00014619883	235966.7	654915	-0.00014010721
0	0.636222	0.6362201	-2.1785324e-10	0.06547824	0.06547825	0	91386.93	91386.66	-3.125e-05	655012.2	235696.98	-0.00022538986	235698.72	655011.06	-9.365863e-05
0	0.63609916	0.6360972	-3.3985104e-10	0.06533652	0.065336525	0	91369.28	91369	-4.9375e-05	655108	235429.08	-0.00031676414	235430.83	655106.94	-0.00016142787
0	0.6359759	0.63597393	-7.842717e-11	0.06519514	0.06519514	0	91351.586	91351.3	-7.5e-06	655203.9	235160.61	-0.00012183236	235162.34	655202.94	2.855446e-05
0	0.63585234	0.6358503	-3.3694633e-10	0.06505392	0.06505392	0	91333.81	91333.54	-5e-05	655300.3	234891.2	-0.0003045809	234892.95	655299.3	-0.00017817982
0	0.63572866	0.63572663	-2.6142388e-10	0.06491251	0.06491251	0	91316.06	91315.77	-3.84375e-05	655396.2	234622.12	-0.00021929825	234623.9	655395.2	-0.00020749573
0	0.63560486	0.63560283	-3.9213582e-10	0.06477093	0.06477093	0	91298.27	91297.984	-5.875e-05	655492.25	234352.8	-0.0002345273	234354.55	655491.2	-0.0003045809
0	0.63548034	0.6354783	-4.0665936e-11	0.06462956	0.06462956	0	91280.39	91280.09	-5e-06	655588.6	234082.06	-1.2183236e-05	234083.81	655587.6	-5.2159477e-05
0	0.63535434	0.6353523	-2.5270974e-10	0.06448818	0.06448818	0	91262.3	91262.016	-3.78125e-05	655685.5	233808.77	-0.00021929825	233810.56	655684.44	-0.00013096978
0	0.63523024	0.6352283	1.161884e-11	0.0643466	0.0643466	0	91244.484	91244.19	2.5e-06	655781.56	233539.06	1.2183236e-05	233540.84	655780.5	1.5990498e-05
0	0.6351051	0.6351031	-3.7470757e-10	0.06420524	0.06420524	0	91226.5	91226.21	-5.1875e-05	655878.1	233267.3	-0.00024366472	233269.1	655877.06	-0.00026726973
0	0.6349793	0.6349773	-2.1494852e-10	0.064063966	0.064063966	0	91208.414	91208.14	-3e-05	655974.6	232994.58	-0.00015838207	232996.38	655973.6	-0.00016066643
0	0.6348535	0.6348514	-3.3113692e-10	0.063922584	0.063922584	0	91190.34	91190.055	-4.5625e-05	656071.2	232721.81	-0.00016142787	232723.64	656070.1	-0.0002809759
0	0.6347277	0.6347257	-2.672333e-10	0.063781016	0.063781016	0	91172.28	91171.984	-3.9375e-05	656167.5	232449.45	-0.00024671052	232451.19	656166.44	-0.00015076755
0	0.6346009	0.63459885	-3.2242278e-10	0.06363963	0.06363963	0	91154.07	91153.77	-4.625e-05	656264.25	232175.19	-0.00020711501	232176.98	656263.2	-0.00023795382
0	0.63447386	0.63447183	-5.8094196e-11	0.06349825	0.06349825	0	91135.81	91135.54	-1.875e-06	656361.2	231900.39	-6.091618e-05	231902.22	656360.1	-1.8274854e-05
0	0.6343469	0.6343448	2.6142389e-11	0.06335668	0.06335668	0	91117.58	91117.29	2.5e-06	656457.9	231625.88	0	231627.67	656456.9	6.320054e-05
0	0.63421965	0.6342176	-3.4856518e-10	0.06321527	0.06321527	0	91099.31	91099.02	-4.90625e-05	656554.7	231350.94	-0.00020711501	231352.8	656553.6	-0.000275265
0	0.63409233	0.63409036	-1.8590143e-10	0.063074045	0.06307404	0	91081.03	91080.734	-3e-05	656651.06	231076.38	-0.00024366472	231078.22	656650.06	-6.70078e-05
0	0.6339634	0.6339613	-1.5104491e-10	0.062932655	0.062932655	0	91062.5	91062.2	-2e-05	656748.4	230798.5	-0.000100511694	230800.27	656747.4	-9.556226e-05
0	0.63383496	0.6338329	-2.0913911e-10	0.062790945	0.062790945	0	91044.055	91043.76	-3.0625e-05	656845.56	230521.61	-0.00018274854	230523.44	656844.5	-0.00011688292
0	0.633707	0.633705	-4.0084994e-10	0.062649705	0.062649705	0	91025.69	91025.39	-5.5625e-05	656942.3	230245.67	-0.00024975633	230247.52	656941.3	-0.0002984893
0	0.6335772	0.6335752	-1.2199781e-10	0.06250833	0.06250833	0	91007.04	91006.75	-1.9375e-05	657039.75	229966.6	-3.045809e-05	229968.42	657038.75	-0.00013591922
0	0.63344836	0.63344634	-8.423658e-11	0.06236674	0.06236674	0	90988.516	90988.234	-1.1875e-05	657136.8	229689.03	-9.746589e-05	229690.86	657135.8	-7.8048855e-05
0	0.633319	0.63331693	-1.2780724e-10	0.062225346	0.062225346	0	90969.94	90969.64	-1.75e-05	657233.8	229410.94	-6.396199e-05	229412.78	657232.75	-0.00012906616
0	0.63318944	0.63318735	-1.6266374e-10	0.06208412	0.06208412	0	90951.33	90951.02	-2.625e-05	657330.9	229132.47	-2.4366473e-05	229134.33	657329.9	-0.00021282591
0	0.6330576	0.6330555	-4.1827822e-10	0.061942417	0.061942413	0	90932.39	90932.1	-5.65625e-05	657428.94	228849.83	-0.00029239766	228851.7	657427.8	-0.00026460466
0	0.63292855	0.63292646	-2.7013802e-10	0.06180102	0.06180102	0	90913.87	90913.57	-4.25e-05	657525.5	228572.72	-0.00021016081	228574.6	657524.44	-0.00017018458
0	0.63279736	0.6327953	-4.6184886e-10	0.061659794	0.06165979	0	90895.016	90894.72	-6.625e-05	657622.9	228291.5	-0.00030305798	228293.34	657621.9	-0.00032856665
0	0.63266593	0.6326638	-6.477503e-10	0.061518367	0.061518367	0	90876.12	90875.82	-9.125e-05	657720.6	228009.67	-0.0004507797	228011.52	657719.56	-0.0004488761
0	0.6325349	0.63253284	-3.6599343e-10	0.061376806	0.061376818	0	90857.32	90857.01	-5.0625e-05	657818.06	227728.92	-0.000271077	227730.81	657817.06	-0.00024975633
0	0.63240224	0.63240016	-8.714129e-12	0.061235428	0.061235435	0	90838.266	90837.95	-1.5625e-06	657915.9	227445.47	-6.243908e-05	227447.36	657914.8	5.0636572e-05
0	0.632271	0.6322689	-9.876013e-11	0.061094042	0.061094042	0	90819.4	90819.11	-1.25e-05	658013.1	227164.42	-9.746589e-05	227166.3	658012.1	-2.2843567e-05
0	0.6321386	0.6321365	-2.4690033e-10	0.06095251	0.060952503	0	90800.39	90800.09	-3.46875e-05	658110.75	226881.47	-0.0001370614	226883.34	658109.75	-0.00017665692
0	0.6320056	0.6320035	-1.5685434e-10	0.060811114	0.060811102	0	90781.27	90780.98	-2.65625e-05	658208.75	226597.23	-7.6145225e-05	226599.12	658207.7	-0.0001777991
0	0.6318724	0.63187027	-3.4275577e-10	0.06066984	0.06066984	0	90762.16	90761.85	-5.09375e-05	658306.5	226312.98	-0.00028478313	226314.9	658305.44	-0.0002539443
0	0.6317391	0.63173693	-6.9713034e-11	0.060528446	0.060528446	0	90743.01	90742.7	-1.125e-05	658404.2	226028.64	-0.00011574074	226030.53	658403.2	1.8274854e-05
0	0.6316052	0.6316032	-3.1951808e-10	0.0603869	0.060386896	0	90723.79	90723.484	-4.53125e-05	658502.2	225743.27	-0.00028021442	225745.17	658501.1	-0.00019455104
0	0.6314717	0.6314696	-3.4856518e-10	0.060245506	0.060245506	0	90704.6	90704.29	-5.1875e-05	658599.56	225458.9	-0.00036549708	225460.83	658598.5	-0.00012602034
0	0.6313362	0.63133407	-9.876013e-11	0.060104124	0.060104124	0	90685.13	90684.83	-1.625e-05	658698.3	225170.4	-6.396199e-05	225172.31	658697.3	-6.70078e-05
0	0.6312025	0.6312004	-2.2075794e-10	0.059962578	0.05996258	0	90665.92	90665.62	-3e-05	658795.6	224885.89	-0.0002055921	224887.8	658794.6	-0.000107745494
0	0.63106716	0.6310651	-3.1951808e-10	0.059821147	0.059821147	0	90646.484	90646.18	-4.59375e-05	658893.94	224598.16	-0.0002680312	224600.11	658892.9	-0.00018769798
0	0.6309315	0.6309294	-3.6308873e-10	0.059679918	0.05967991	0	90627.01	90626.7	-5.21875e-05	658992.1	224310.22	-0.0001675195	224312.17	658991	-0.00032285575
0	0.63079596	0.63079375	-4.0665937e-10	0.05953851	0.05953851	0	90607.52	90607.23	-5.5625e-05	659090.3	224022.06	-0.000335039	224024	659089.3	-0.00024404544
0	0.6306601	0.630658	-3.6018402e-10	0.059396826	0.059396826	0	90588.016	90587.71	-4.8125e-05	659188.3	223733.92	-0.00023148148	223735.86	659187.25	-0.00022120187
0	0.6305237	0.63052154	-3.7470757e-10	0.059255593	0.059255596	0	90568.43	90568.11	-5.5625e-05	659286.44	223444.73	-0.00032894738	223446.66	659285.44	-0.0002375731
0	0.6303866	0.6303845	-3.7180287e-10	0.059114188	0.059114188	0	90548.75	90548.43	-5.375e-05	659385.1	223154.25	-0.0002984893	223156.17	659384.06	-0.00023719238
0	0.6302496	0.63024753	-2.8175684e-10	0.058972627	0.058972627	0	90529.055	90528.75	-3.90625e-05	659483.56	222864.02	-0.00014619883	222865.97	659482.5	-0.00024556834
0	0.6301126	0.63011044	-4.0084994e-10	0.058831234	0.058831234	0	90509.36	90509.055	-5.6875e-05	659581.6	222574.08	-0.00031676414	222576.03	659580.5	-0.00022538986
0	0.62997377	0.62997156	-2.381862e-10	0.05868999	0.05868999	0	90489.44	90489.12	-3.3125e-05	659680.7	222280.7	-0.00021016081	222282.66	659679.5	-0.00011574074
0	0.6298362	0.62983406	-2.962804e-10	0.0585483	0.0585483	0	90469.664	90469.37	-4.25e-05	659778.9	221989.84	-0.00029239766	221991.83	659777.8	-0.0001705653
0	0.62969834	0.6296962	-2.8756628e-10	0.058406904	0.058406904	0	90449.88	90449.56	-4.28125e-05	659877.06	221698.69	-9.442008e-05	221700.67	659876	-0.00031828703
0	0.6295585	0.62955636	6.390362e-11	0.058265664	0.058265664	0	90429.79	90429.47	6.5625e-06	659976.2	221403.77	4.2641324e-05	221405.72	659975.2	1.865558e-05
0	0.62942	0.6294178	-3.8342168e-10	0.05812423	0.05812423	0	90409.88	90409.58	-5.40625e-05	660074.6	221111.31	-0.00041423002	221113.27	660073.6	-0.0001107913
0	0.6292812	0.629279	-4.850865e-10	0.057982713	0.057982713	0	90389.95	90389.65	-6.8125e-05	660172.75	220818.98	-0.00039595517	220820.95	660171.6	-0.0003106725
0	0.6291401	0.62913793	-1.6266374e-10	0.057841305	0.05784131	0	90369.68	90369.375	-2.34375e-05	660272.3	220521.84	-4.8732945e-05	220523.8	660271.25	-0.00018465216
0	0.62900084	0.6289987	-5.4608545e-10	0.057699904	0.057699904	0	90349.69	90349.38	-7.75e-05	660370.5	220228.67	-0.0002984893	220230.66	660369.44	-0.0004515412
0	0.6288595	0.6288574	-4.5894413e-10	0.057558395	0.057558388	0	90329.38	90329.07	-6.0625e-05	660470	219931.38	-0.0003426535	219933.38	660468.94	-0.00026193957
0	0.62871945	0.6287173	-4.0956408e-10	0.057416987	0.057416987	0	90309.266	90308.95	-5.875e-05	660568.44	219636.84	-0.00036702	219638.88	660567.4	-0.00020711501
0	0.6285782	0.628576	-3.3985104e-10	0.0572757	0.05727571	0	90288.97	90288.65	-4.75e-05	660667.4	219340.03	-0.0002984893	219342	660666.4	-0.000179322
0	0.6284369	0.6284347	1.0166484e-10	0.0571343	0.0571343	0	90268.68	90268.37	1.1875e-05	660766.2	219043.38	3.045809e-05	219045.38	660765.1	7.3099414e-05
0	0.6282951	0.628293	-1.04569554e-10	0.05699279	0.05699279	0	90248.31	90248.01	-1.5e-05	660865.1	218746.06	-9.442008e-05	218748.08	660864.06	-4.416423e-05
0	0.628152	0.62814987	-4.3861118e-10	0.056851387	0.056851387	0	90227.75	90227.445	-6.4375e-05	660964.56	218446.3	-0.0003411306	218448.3	660963.44	-0.00030229654
0	0.6280089	0.62800676	-1.7428259e-10	0.05670998	0.05670998	0	90207.2	90206.89	-2.46875e-05	661064.1	218146.44	-0.00011574074	218148.42	661063	-0.00015229045
0	0.627867	0.62786484	-8.7141294e-11	0.05656847	0.05656847	0	90186.82	90186.51	-1.03125e-05	661162.75	217849.06	-6.091618e-05	217851.08	661161.7	-3.8834063e-05
0	0.62772393	0.6277217	-3.0499453e-10	0.05642703	0.05642703	0	90166.27	90165.945	-4.34375e-05	661261.75	217549.72	-0.0001340156	217551.75	661260.7	-0.00030534234
0	0.62757903	0.62757677	-2.8756628e-10	0.056285787	0.056285787	0	90145.445	90145.13	-4.125e-05	661361.75	217246.84	-0.00018579434	217248.86	661360.7	-0.00021320663
0	0.6274352	0.627433	-5.257525e-10	0.05614437	0.056144364	0	90124.78	90124.47	-7.5625e-05	661460.9	216946.38	-0.00031980994	216948.45	661459.8	-0.0003891021
0	0.6272914	0.6272891	-2.643286e-10	0.056002706	0.056002706	0	90104.125	90103.805	-4e-05	661560.06	216645.77	-0.00026346248	216647.81	661559	-0.00013477704
0	0.627147	0.6271448	-2.9337568e-10	0.055861473	0.05586147	0	90083.39	90083.086	-4.21875e-05	661659.1	216344.66	-0.00020254629	216346.7	661658.06	-0.00023148148
0	0.62700105	0.62699884	-1.4233079e-10	0.055720054	0.055720054	0	90062.43	90062.11	-1.78125e-05	661759.1	216040.34	-0.000109649125	216042.39	661758	-5.787037e-05
0	0.626856	0.62685376	-2.1785324e-10	0.05557856	0.05557856	0	90041.6	90041.28	-3.1875e-05	661858.3	215738.06	-0.00012183236	215740.08	661857.3	-0.0002040692
0	0.62671065	0.6267085	-3.5437459e-10	0.055437103	0.05543711	0	90020.72	90020.414	-4.96875e-05	661957.44	215435.5	-0.00035331384	215437.55	661956.4	-0.00017665692
0	0.6265636	0.62656134	-3.5727932e-10	0.05529586	0.05529586	0	89999.59	89999.266	-5e-05	662057.5	215129.42	-0.00028478313	215131.5	662056.44	-0.00025204069
0	0.62641686	0.62641466	-2.8175684e-10	0.055154454	0.055154454	0	89978.52	89978.195	-3.875e-05	662157.1	214824.45	-0.00021929825	214826.48	662156.06	-0.00014657955
0	0.6262708	0.6262685	-2.672333e-10	0.055012785	0.05501279	0	89957.54	89957.21	-4.03125e-05	662256.4	214520.61	-0.0002375731	214522.7	662255.4	-0.00014619883
0	0.6261226	0.62612045	-3.863264e-10	0.054871544	0.054871544	0	89936.26	89935.93	-5.53125e-05	662356.4	214213.22	-0.00042641326	214215.28	662355.3	-0.00013972649
0	0.62597567	0.62597346	-1.3652136e-10	0.05473013	0.054730132	0	89915.15	89914.83	-1.96875e-05	662455.9	213907.98	-7.9191035e-05	213910.08	662454.8	-0.00010888767
0	0.62582743	0.62582517	-2.672333e-10	0.054588605	0.054588605	0	89893.86	89893.53	-3.78125e-05	662555.7	213600.72	-0.00012335526	213602.75	662554.6	-0.00025584796
0	0.62567824	0.6256759	-1.1328368e-10	0.05444718	0.05444719	0	89872.414	89872.086	-1.5625e-05	662655.94	213291.39	-0.00011574074	213293.48	662654.94	-5.4443834e-05
0	0.62553024	0.62552804	-7.2617745e-11	0.05430595	0.05430595	0	89851.164	89850.836	-1.125e-05	662755.44	212984.8	-0.00015229045	212986.89	662754.4	3.312317e-05
0	0.62538147	0.6253792	-2.8756628e-10	0.054164287	0.054164287	0	89829.79	89829.47	-4.1875e-05	662854.94	212676.92	-0.00018579434	212679.02	662853.94	-0.0002375731
0	0.6252312	0.6252289	-3.3694633e-10	0.05402286	0.05402286	0	89808.21	89807.89	-4.65625e-05	662955.25	212366.33	-0.00028630605	212368.42	662954.2	-0.00019188596
0	0.62508166	0.6250794	2.90471e-12	0.053881627	0.053881623	0	89786.734	89786.4	9.375e-07	663055	212057.25	-9.137427e-05	212059.38	663053.94	0.0001107913
0	0.62493074	0.6249284	-3.5146988e-10	0.053740162	0.053740162	0	89765.05	89764.72	-4.6875e-05	663155.56	211745.36	-0.0002741228	211747.45	663154.5	-0.00021396807
0	0.62478083	0.62477857	-1.9752026e-10	0.053598683	0.053598687	0	89743.52	89743.2	-2.90625e-05	663255.25	211435.89	-0.00015533625	211437.98	663254.06	-0.00012792398
0	0.6246295	0.62462723	-2.1204381e-10	0.053457264	0.053457264	0	89721.78	89721.445	-3.375e-05	663355.25	211123.95	-0.00016447369	211126.06	663354.25	-0.00016295078
0	0.624478	0.62447566	-4.1537349e-10	0.05331584	0.05331584	0	89700.02	89699.69	-5.90625e-05	663455.56	210811.52	-0.00023300438	210813.66	663454.44	-0.00034722223
0	0.62432563	0.62432337	-3.5146988e-10	0.05317437	0.053174376	0	89678.13	89677.81	-5e-05	663555.9	210497.83	-0.00025280216	210499.97	663554.8	-0.0002535636
0	0.6241739	0.6241717	-1.0166484e-10	0.053032946	0.053032946	0	89656.34	89656.016	-1.5625e-05	663655.9	210185.45	-8.528265e-05	210187.61	663654.8	-8.0333215e-05
0	0.62402153	0.6240192	-2.0332968e-11	0.05289166	0.05289166	0	89634.445	89634.12	-6.25e-07	663756.06	209871.89	-3.8072612e-05	209874.05	663755	6.091618e-06
0	0.62386817	0.62386584	-3.1661337e-10	0.052750226	0.052750226	0	89612.43	89612.09	-4.375e-05	663856.6	209556.64	-0.00032437866	209558.78	663855.6	-0.00011193348
0	0.623715	0.62371266	-1.190931e-10	0.052608766	0.052608766	0	89590.414	89590.086	-2.15625e-05	663956.94	209241.9	-8.528265e-05	209244.06	663955.8	-5.9774e-05
0	0.6235602	0.6235578	-2.0913911e-10	0.052467342	0.052467342	0	89568.195	89567.84	-2.59375e-05	664057.7	208924.42	-7.0053604e-05	208926.56	664056.56	-0.00022462841
0	0.6234071	0.6234048	-2.1204381e-10	0.052325904	0.052325908	0	89546.195	89545.86	-3.21875e-05	664157.5	208610.28	-8.680556e-05	208612.44	664156.44	-0.00021168373
0	0.62325263	0.6232503	-3.8342168e-10	0.05218445	0.05218445	0	89524	89523.68	-5.125e-05	664257.94	208293.56	-0.0003045809	208295.73	664256.9	-0.00024366472
0	0.62309706	0.6230948	-3.3113692e-10	0.052042983	0.052042987	0	89501.66	89501.336	-4.75e-05	664358.8	207974.9	-0.00025889376	207977.05	664357.75	-0.00020102339
0	0.6229419	0.6229396	-2.9337568e-10	0.051901728	0.051901728	0	89479.375	89479.03	-4.4375e-05	664459.4	207657.06	-0.00025889376	207659.22	664458.3	-0.0001762762
0	0.62278646	0.6227842	-1.9752026e-10	0.0517603	0.051760294	0	89457.04	89456.71	-2.53125e-05	664559.7	207339.23	-0.00019797758	207341.4	664558.56	-4.2641324e-05
0	0.62263006	0.6226277	-5.344666e-10	0.051618673	0.051618665	0	89434.586	89434.24	-7.65625e-05	664660.4	207019.52	-0.00028935185	207021.7	664659.3	-0.00046296295
0	0.62247354	0.6224712	-3.9504053e-10	0.05147742	0.05147742	0	89412.11	89411.766	-5.65625e-05	664761.1	206699.66	-0.00029544346	206701.84	664760.06	-0.00026612755
0	0.62231684	0.62231445	-2.9047098e-11	0.051335983	0.051335983	0	89389.586	89389.25	-8.4375e-06	664861.56	206379.77	-2.4366473e-05	206381.94	664860.5	-3.5788256e-05
0	0.6221594	0.6221571	-4.1827822e-10	0.051194496	0.051194493	0	89366.98	89366.64	-5.71875e-05	664962.3	206058.73	-0.00039900097	206060.92	664961.25	-0.00021929825
0	0.6220016	0.6219992	-4.0665937e-10	0.051053062	0.051053066	0	89344.305	89343.97	-5.84375e-05	665063.1	205736.92	-0.00036854288	205739.12	665062.06	-0.00019493178
0	0.621843	0.62184066	-3.1661337e-10	0.050911807	0.050911807	0	89321.52	89321.19	-4.75e-05	665164.1	205413.9	-0.0003045809	205416.1	665163	-0.0001762762
0	0.62168473	0.6216823	-2.9047098e-10	0.050770186	0.050770186	0	89298.78	89298.45	-4.375e-05	665264.9	205091.53	-0.00025432504	205093.75	665263.7	-0.00019493178
0	0.62152433	0.62152195	-6.593691e-10	0.050628755	0.050628755	0	89275.75	89275.414	-0.0001	665366.2	204765.66	-0.00045991715	204767.88	665365.1	-0.0005029392
0	0.6213664	0.621364	-5.1994303e-10	0.050487496	0.050487496	0	89253.07	89252.72	-7.125e-05	665466.3	204444.45	-0.00039595517	204446.67	665465.2	-0.00031866776
0	0.6212068	0.6212044	-4.1246878e-10	0.050346017	0.050346017	0	89230.15	89229.805	-6e-05	665567.2	204120.16	-0.00035026803	204122.38	665566.06	-0.00025584796
0	0.62104636	0.62104386	-2.9918512e-10	0.050204586	0.050204586	0	89207.08	89206.766	-4.4375e-05	665668.44	203794.16	-0.00018884016	203796.34	665667.44	-0.0002288164
0	0.62088585	0.6208835	-1.6556846e-10	0.050063144	0.05006314	0	89184.055	89183.7	-2.53125e-05	665769.25	203468.84	-0.000109649125	203471.08	665768.06	-0.00012716252
0	0.62072504	0.6207227	-3.5146988e-10	0.0499217	0.049921695	0	89160.95	89160.61	-5e-05	665870.2	203142.75	-0.00025432504	203145	665869	-0.00028630605
0	0.6205633	0.62056094	-2.5270974e-10	0.04978028	0.04978028	0	89137.72	89137.375	-3.5e-05	665971.5	202814.86	-0.00020863791	202817.11	665970.4	-0.00012183236
0	0.62040186	0.62039953	-5.8675137e-10	0.049638826	0.049638826	0	89114.53	89114.195	-8.09375e-05	666072.1	202488.27	-0.0004507797	202490.52	666071.06	-0.0004005239
0	0.62023926	0.6202369	-3.2823222e-10	0.04949753	0.04949753	0	89091.164	89090.81	-4.53125e-05	666173.5	202159.22	-0.00020102339	202161.47	666172.4	-0.0002375731
0	0.6200766	0.6200741	-1.8590143e-10	0.049356084	0.049356084	0	89067.8	89067.445	-2.65625e-05	666274.75	201830.14	-0.00012792398	201832.4	666273.6	-0.00014277229
0	0.61991364	0.61991125	-1.2780724e-10	0.049214657	0.049214657	0	89044.41	89044.05	-1.78125e-05	666375.75	201501.11	-0.00012944688	201503.34	666374.6	-4.8732945e-05
0	0.61974996	0.6197476	-3.4856518e-10	0.04907321	0.049073208	0	89020.89	89020.54	-5.09375e-05	666476.9	201170.78	-0.00019493178	201173.05	666475.8	-0.00034722223
0	0.6195858	0.6195834	-5.2284777e-10	0.048931766	0.048931774	0	88997.31	88996.97	-7.40625e-05	666578.44	200839.47	-0.0004385965	200841.73	666577.3	-0.0003045809
0	0.61942124	0.61941886	-2.2366266e-10	0.04879036	0.04879036	0	88973.68	88973.336	-3e-05	666679.75	200507.78	-0.00020711501	200510.06	666678.6	-0.00011574074
0	0.61925644	0.6192541	-3.8051698e-10	0.048648857	0.048648857	0	88950.01	88949.66	-5.34375e-05	666780.8	200176.05	-0.0002984893	200178.3	666779.75	-0.00021168373
0	0.61909133	0.6190888	-2.7885214e-10	0.04850761	0.04850761	0	88926.28	88925.93	-4.25e-05	666882.4	199843.2	-0.00020102339	199845.48	666881.25	-0.00021929825
0	0.61892605	0.6189236	-4.0665937e-10	0.048366144	0.048366144	0	88902.53	88902.19	-5.59375e-05	666983.44	199510.73	-0.0003319932	199513.03	666982.4	-0.00022538986
0	0.61875993	0.6187576	-3.2968456e-10	0.04822455	0.04822455	0	88878.69	88878.336	-4.6875e-05	667084.8	199176.88	-0.00024975633	199179.17	667083.6	-0.00020521139
0	0.61859304	0.61859065	-1.190931e-10	0.048083294	0.048083294	0	88854.7	88854.35	-1.6875e-05	667186.44	198841.56	-0.00020711501	198843.84	667185.4	1.2183236e-05
0	0.6184261	0.61842364	-5.591566e-10	0.04794183	0.04794183	0	88830.72	88830.375	-8.09375e-05	667287.9	198506.36	-0.00035940547	198508.66	667286.7	-0.00042641326
0	0.6182584	0.61825603	-3.6889813e-10	0.047800392	0.0478004	0	88806.63	88806.3	-4.96875e-05	667389.5	198169.97	-0.0003106725	198172.28	667388.44	-0.00021320663
0	0.6180905	0.618088	-3.3985104e-10	0.047658946	0.047658946	0	88782.52	88782.17	-4.9375e-05	667491.1	197833.34	-0.00028630605	197835.66	667489.94	-0.00019493178
0	0.6179222	0.6179198	-2.7449507e-10	0.047517676	0.047517676	0	88758.35	88757.99	-4.03125e-05	667592.5	197496.33	-0.00024975633	197498.64	667591.44	-0.00016447369
0	0.617754	0.61775154	-3.7470757e-10	0.04737623	0.047376227	0	88734.19	88733.836	-5.34375e-05	667693.7	197159.55	-0.00021320663	197161.86	667692.7	-0.00029963144
0	0.6175833	0.6175808	-2.6287625e-10	0.047234632	0.047234632	0	88709.66	88709.305	-3.6875e-05	667796.2	196817.97	-0.00028630605	196820.28	667795.1	-7.9191035e-05
0	0.6174143	0.6174119	-1.4959256e-10	0.047093365	0.047093365	0	88685.38	88685.04	-2.15625e-05	667897.44	196480.25	-8.528265e-05	196482.56	667896.4	-0.00014010721
0	0.61724484	0.6172425	-5.8094196e-11	0.046951856	0.046951856	0	88661.055	88660.695	-6.875e-06	667998.8	196141.67	-0.000103557504	196144	667997.7	3.045809e-05
0	0.61707455	0.6170721	-4.5313472e-10	0.04681048	0.04681048	0	88636.59	88636.234	-6.5625e-05	668100.25	195801.67	-0.00038986356	195804.02	668099.2	-0.00026193957
0	0.6169023	0.61689985	-4.1392115e-10	0.046669014	0.046669014	0	88611.85	88611.49	-5.8125e-05	668202.7	195458.25	-0.0003380848	195460.6	668201.6	-0.00026193957
0	0.61673176	0.6167293	-1.4523549e-10	0.046527762	0.046527762	0	88587.36	88587	-2.0625e-05	668304	195118.11	-0.000109649125	195120.45	668302.94	-8.528265e-05
0	0.61656	0.6165575	-3.471128e-10	0.04638618	0.04638618	0	88562.664	88562.32	-5.09375e-05	668405.5	194776.11	-0.0003411306	194778.47	668404.5	-0.0001705653
0	0.61638767	0.61638516	-2.0913911e-10	0.04624471	0.04624471	0	88537.914	88537.57	-2.96875e-05	668507.5	194432.88	-0.00018122564	194435.22	668506.3	-0.000109649125
0	0.61621493	0.6162125	-4.0084994e-10	0.04610345	0.04610345	0	88513.125	88512.76	-6.140625e-05	668609.25	194089.47	-0.00034722223	194091.81	668608.06	-0.00025584796
0	0.6160415	0.616039	-8.278423e-11	0.045961928	0.045961928	0	88488.195	88487.84	-1.28125e-05	668711.2	193744.56	-8.528265e-05	193746.92	668710	-3.045809e-05
0	0.6158684	0.6158659	-4.1973056e-10	0.04582056	0.04582056	0	88463.33	88462.97	-6.09375e-05	668812.5	193400.72	-0.0004111842	193403.06	668811.5	-0.00015838207
0	0.61569375	0.61569136	-1.3071194e-10	0.0456791	0.045679096	0	88438.25	88437.91	-2.28125e-05	668914.7	193054.34	-0.00011574074	193056.72	668913.5	-0.00011459856
0	0.61551905	0.61551654	-3.8923112e-10	0.04553762	0.04553762	0	88413.164	88412.8	-6e-05	669016.7	192707.62	-0.0003411306	192710	669015.5	-0.00022538986
0	0.6153443	0.6153418	-1.321643e-10	0.045396265	0.045396265	0	88388.05	88387.695	-1.9375e-05	669118.3	192361.19	-0.00014010721	192363.56	669117.3	-5.4824563e-05
0	0.6151684	0.61516595	-2.4109093e-10	0.04525479	0.045254786	0	88362.78	88362.44	-3.546875e-05	669220.5	192012.84	-0.00018274854	192015.23	669219.44	-0.00014772173
0	0.6149925	0.61499006	4.0665936e-11	0.04511347	0.04511347	0	88337.53	88337.164	5e-06	669322.2	191664.95	0	191667.34	669321.1	5.4824563e-05
0	0.6148161	0.6148136	-1.6266374e-10	0.04497199	0.044972	0	88312.19	88311.83	-2.25e-05	669424.25	191315.94	-0.00011574074	191318.33	669423.1	-0.00012792398
0	0.6146383	0.6146359	-1.931632e-10	0.04483065	0.04483065	0	88286.65	88286.28	-2.9375e-05	669526.5	190964.67	-0.00019493178	190967.06	669525.5	-7.1957234e-05
0	0.6144617	0.61445916	-3.8051698e-10	0.044689175	0.044689175	0	88261.266	88260.914	-5.375e-05	669628.25	190615.64	-0.00028021442	190618.03	669627.25	-0.0002375731
0	0.61428297	0.6142804	-5.243001e-10	0.044547684	0.044547684	0	88235.6	88235.24	-7.109375e-05	669730.6	190263	-0.00035940547	190265.4	669729.56	-0.00035940547