# t (s)	mx ()	my ()	mz ()	B_extx (T)	B_exty (T)	B_extz (T)	m_fullx (A/m)	m_fully (A/m)	m_fullz (A/m)	m_full.region1x (A/m)	m_full.region1y (A/m)	m_full.region1z (A/m)	m_full.region2x (A/m)	m_full.region2y (A/m)	m_full.region2z (A/m)
0	0.643182	0.6431798	-5.1830124e-10	0.070710756	0.070710756	0	106060.48	106060.125	-8.423443e-05	651761.75	248690.86	-0.00038190364	248692.97	651760.8	-0.00035987073
0	0.6429008	0.64289796	-3.6771374e-11	0.070357226	0.07035723	0	106014.13	106013.65	-3.4602076e-06	652002.7	248055.61	-4.4065804e-05	248058.48	652001.5	2.2032902e-05
0	0.6426153	0.6426124	-2.2413027e-10	0.07000352	0.07000352	0	105967.05	105966.555	-3.3737026e-05	652246.75	247411.72	-0.00014688601	247414.67	652245.56	-0.00017626322
0	0.64232534	0.64232236	-4.3075038e-10	0.06965001	0.06965001	0	105919.23	105918.74	-6.747405e-05	652493.06	246759.55	-0.00025337838	246762.48	652491.8	-0.00030846064
0	0.6420381	0.6420351	-2.1012213e-10	0.06929648	0.06929648	0	105871.85	105871.36	-3.4602075e-05	652736.4	246113.95	-0.00011750881	246116.88	652735.1	-0.00020564042
0	0.64174694	0.64174396	-1.470855e-10	0.068942994	0.068942994	0	105823.85	105823.36	-2.4221454e-05	652981.56	245461.23	-0.00013219741	245464.19	652980.3	-5.8754405e-05
0	0.6414535	0.6414506	-3.3269337e-10	0.068589285	0.068589285	0	105775.47	105774.98	-5.6228375e-05	653227.44	244804.58	-0.000121180965	244807.55	653226.2	-0.00037455934
0	0.6411587	0.6411557	-2.95922e-10	0.06823578	0.06823578	0	105726.85	105726.36	-4.8442907e-05	653473.5	244145.75	-0.00017626322	244148.73	653472.25	-0.00028642773
0	0.64086074	0.64085776	-7.5468864e-10	0.06788223	0.06788224	0	105677.72	105677.23	-0.00012543253	653720.7	243481.4	-0.00048472386	243484.39	653719.5	-0.0005581669
0	0.6405631	0.64056015	-1.4358345e-10	0.067528725	0.067528725	0	105628.63	105628.14	-2.5951556e-05	653966.94	242818.39	-0.00011750881	242821.39	653965.7	-0.00014688601
0	0.6402617	0.6402586	-2.3113435e-10	0.06717501	0.06717501	0	105578.914	105578.414	-3.719723e-05	654214.7	242148.48	-0.00029377203	242151.47	654213.56	-2.9377203e-05
0	0.63996017	0.6399572	-1.15567174e-10	0.06682165	0.06682165	0	105529.2	105528.72	-1.9896193e-05	654461.56	241479.64	-2.9377203e-05	241482.67	654460.4	-0.00014688601
0	0.6396572	0.63965416	-4.657707e-10	0.06646814	0.06646814	0	105479.26	105478.76	-7.00692e-05	654708.56	240808.48	-0.00033783785	240811.52	654707.4	-0.00029377203
0	0.63934916	0.6393462	-4.044851e-10	0.06611444	0.06611443	0	105428.45	105427.95	-6.6609e-05	654958.1	240127.62	-0.00027908344	240130.64	654956.9	-0.00033049352
0	0.63904315	0.63904005	-5.1655025e-10	0.06576094	0.06576094	0	105378	105377.48	-8.564014e-05	655205.4	239451.9	-0.00045534666	239454.94	655204.2	-0.00030846064
0	0.6387317	0.6387287	-6.776439e-10	0.065407366	0.065407366	0	105326.64	105326.13	-0.0001115917	655455.06	238766.27	-0.00047003524	238769.31	655453.9	-0.00052878965
0	0.63842	0.6384169	-3.256893e-10	0.06505391	0.0650539	0	105275.23	105274.73	-5.147059e-05	655704	238080.84	-0.00033783785	238083.9	655702.9	-0.00013954172
0	0.6381085	0.63810545	-1.5233854e-10	0.06470021	0.06470021	0	105223.87	105223.36	-2.2923876e-05	655952.06	237396.67	-0.00011750881	237399.73	655950.94	-5.9672446e-05
0	0.6377928	0.6377897	-4.5701565e-10	0.064346716	0.064346716	0	105171.81	105171.31	-7.5259515e-05	656201.7	236705.1	-0.00032682138	236708.22	656200.56	-0.00030846064
0	0.6374753	0.6374723	-6.4612554e-10	0.06399313	0.06399313	0	105119.46	105118.95	-0.00010813149	656451.7	236010.73	-0.00058754405	236013.8	656450.5	-0.00035252643
0	0.6371556	0.63715255	-3.2218728e-10	0.06363964	0.06363964	0	105066.734	105066.23	-5.1903113e-05	656702.2	235312.5	-0.00013219741	235315.61	656701	-0.00032314923
0	0.63683295	0.6368299	-7.004071e-11	0.06328593	0.06328593	0	105013.54	105013.02	-1.2975778e-05	656953.25	234609.77	-3.3049353e-05	234612.88	656952.06	-8.078731e-05
0	0.63651115	0.63650805	-5.3581145e-10	0.06293254	0.06293254	0	104960.48	104959.97	-8.4775085e-05	657203.1	233909.4	-0.00032314923	233912.55	657201.9	-0.00041862516
0	0.63618386	0.63618076	-1.680977e-10	0.06257905	0.06257905	0	104906.5	104905.984	-2.8114187e-05	657455.4	233198.98	-0.00017626322	233202.11	657454.06	-7.344301e-05
0	0.6358578	0.63585466	-2.7315877e-10	0.062225346	0.062225346	0	104852.73	104852.21	-4.67128e-05	657705.8	232491.95	-0.00019462398	232495.11	657704.56	-0.00023501762
0	0.63552773	0.63552463	-3.256893e-10	0.06187188	0.06187188	0	104798.305	104797.78	-5.2768166e-05	657957.9	231777.72	-0.00026439482	231780.86	657956.75	-0.00020564042
0	0.63519585	0.63519275	-4.044851e-10	0.061518256	0.061518256	0	104743.58	104743.07	-6.4446365e-05	658209.8	231061.17	-0.00029009988	231064.33	658208.7	-0.00026439482
0	0.6348638	0.63486063	-6.811459e-10	0.061164834	0.061164834	0	104688.81	104688.3	-0.000112889276	658461.1	230344.98	-0.00045534666	230348.14	658459.9	-0.00052878965
0	0.634528	0.6345248	-2.3113435e-10	0.060811136	0.060811136	0	104633.44	104632.914	-3.935986e-05	658713.7	229622.28	-0.00024970624	229625.45	658712.5	-7.344301e-05
0	0.63418996	0.6341868	-2.276323e-11	0.060457654	0.060457654	0	104577.7	104577.19	-5.1903116e-06	658966.4	228896.33	-7.344301e-05	228899.53	658965.2	4.4065804e-05
0	0.63385034	0.6338473	-2.468935e-10	0.060104024	0.060104024	0	104521.7	104521.19	-4.1955016e-05	659219.06	228168.25	-0.00017626322	228171.47	659217.94	-0.00018360752
0	0.6335078	0.6335046	-4.1674222e-10	0.059750553	0.059750553	0	104465.21	104464.69	-6.747405e-05	659472.6	227435.06	-0.00039659225	227438.25	659471.4	-0.00021298473
0	0.6331637	0.63316053	-6.198603e-10	0.059396863	0.059396863	0	104408.47	104407.94	-9.991349e-05	659726	226699.83	-0.00042596945	226703.06	659724.9	-0.00051410106
0	0.63281685	0.63281363	-1.2607328e-10	0.05904343	0.05904343	0	104351.27	104350.766	-2.1626298e-05	659980	225960.42	-0.00013954172	225963.62	659978.75	-2.9377203e-05
0	0.6324687	0.6324655	-1.1031412e-10	0.058689952	0.058689952	0	104293.87	104293.34	-1.7301038e-05	660233.56	225219.38	-7.344301e-05	225222.6	660232.4	-8.813161e-05
0	0.6321177	0.63211465	-3.8872594e-10	0.05833627	0.05833627	0	104236	104235.48	-6.401384e-05	660487.9	224473.69	-0.00032314923	224476.92	660486.75	-0.00024970624
0	0.6317639	0.6317608	-4.4650952e-10	0.057982814	0.057982814	0	104177.65	104177.13	-7.266436e-05	660742.7	223723.6	-0.00030111632	223726.86	660741.5	-0.00035252643
0	0.6314094	0.6314062	-3.3006686e-10	0.05762915	0.05762915	0	104119.195	104118.664	-5.2768166e-05	660996.94	222972.97	-0.00023501762	222976.23	660995.75	-0.00027173912
0	0.63105154	0.6310484	-3.93979e-10	0.057275683	0.057275683	0	104060.19	104059.66	-6.2716266e-05	661252	222216.88	-0.00032314923	222220.16	661250.8	-0.00026439482
0	0.6306905	0.63068724	-3.2919134e-10	0.056922052	0.056922052	0	104000.64	104000.125	-5.017301e-05	661507.6	221455.77	-0.000244198	221459.05	661506.5	-0.00020564042
0	0.63032985	0.6303266	-4.9904008e-11	0.056568604	0.056568604	0	103941.17	103940.65	-1.0813149e-05	661762.1	220696.36	0	220699.66	661760.94	-9.547591e-05
0	0.62996566	0.62996244	-3.256893e-10	0.05621492	0.05621492	0	103881.12	103880.59	-5.2768166e-05	662017.4	219931.23	-0.00033783785	219934.53	662016.25	-0.00010282021
0	0.6295982	0.629595	-3.6683823e-10	0.05586146	0.05586146	0	103820.516	103820	-5.752595e-05	662273.75	219160.45	-0.00025705053	219163.77	662272.5	-0.00024970624
0	0.62922865	0.6292254	-1.6984872e-10	0.055507787	0.055507787	0	103759.59	103759.06	-2.5951556e-05	662529.6	218387.16	-0.00020564042	218390.47	662528.5	7.3443007e-06
0	0.6288577	0.6288545	-3.1080566e-10	0.055154327	0.055154327	0	103698.4	103697.875	-4.801038e-05	662785.6	217611.77	-0.00032314923	217615.08	662784.44	-0.00010282021
0	0.6284844	0.6284812	2.0399357e-10	0.05480086	0.05480086	0	103636.86	103636.336	3.4602075e-05	663041.4	216833.48	0.00011842685	216836.84	663040.2	0.00013219741
0	0.6281075	0.6281043	-3.6771374e-11	0.05444718	0.05444718	0	103574.73	103574.19	-4.3252594e-06	663298.2	216049	-5.8754405e-05	216052.36	663297	-1.4688601e-05
0	0.6277275	0.6277244	-4.149912e-10	0.054093737	0.054093737	0	103512.05	103511.516	-6.920415e-05	663555.56	215259.62	-0.00035252643	215263	663554.44	-0.00026439482
0	0.6273479	0.62734467	-7.1791725e-11	0.05374005	0.05374005	0	103449.45	103448.914	-6.920415e-06	663811.5	214472.17	-0.00016891892	214475.53	663810.4	3.6721503e-05
0	0.6269638	0.6269605	-2.8278938e-10	0.0533866	0.0533866	0	103386.11	103385.58	-5.017301e-05	664068.9	213677.11	-0.00030846064	213680.47	664067.7	-0.00017626322
0	0.62657785	0.62657464	-1.2082023e-10	0.053032972	0.053032972	0	103322.47	103321.93	-2.032872e-05	664325.8	212879.88	-7.344301e-05	212883.23	664324.6	-7.344301e-05
0	0.6261895	0.6261863	-2.6352817e-10	0.052679513	0.052679513	0	103258.445	103257.9	-4.4117645e-05	664582.9	212079.12	-0.00021206669	212082.53	664581.6	-0.00016891892
0	0.625798	0.6257947	5.9534606e-11	0.052325826	0.052325826	0	103193.875	103193.35	1.2975778e-05	664840.5	211273.3	-2.9377203e-05	211276.69	664839.3	0.00012485312
0	0.6254046	0.62540144	-2.5564859e-10	0.05197238	0.05197238	0	103129	103128.47	-4.130623e-05	665097.8	210465.27	-0.00017626322	210468.69	665096.75	-0.00024970624
0	0.62500846	0.6250053	-2.8804242e-10	0.051618703	0.051618703	0	103063.695	103063.15	-4.433391e-05	665355.5	209653.06	-0.00033049352	209656.48	665354.3	-7.344301e-05
0	0.6246097	0.62460643	7.4418256e-11	0.051265247	0.051265247	0	102997.92	102997.39	1.3624567e-05	665613.3	208836.86	4.4065804e-05	208840.25	665612.1	4.4065804e-05
0	0.6242081	0.6242048	-1.9742726e-10	0.05091177	0.05091177	0	102931.69	102931.164	-3.4602075e-05	665871.3	208016.48	-0.00020564042	208019.9	665870.3	-8.813161e-05
0	0.6238039	0.6238007	-3.335689e-10	0.0505581	0.0505581	0	102865.055	102864.516	-5.3416956e-05	666129.56	207192.47	-0.00030662457	207195.92	666128.5	-0.00020564042
0	0.6233969	0.62339365	-4.7540133e-10	0.050204642	0.050204646	0	102797.94	102797.4	-7.504325e-05	666387.75	206364.48	-0.00036721505	206367.92	666386.56	-0.00030846064
0	0.6229886	0.6229853	-5.091084e-10	0.04985097	0.04985097	0	102730.6	102730.055	-8.00173e-05	666645.4	205535.08	-0.00032314923	205538.55	666644.3	-0.00035252643
0	0.62257636	0.6225731	-1.9173645e-10	0.049497508	0.049497508	0	102662.625	102662.086	-3.33045e-05	666903.94	204699.56	-0.00020747649	204703	666902.8	-9.547591e-05
0	0.62216157	0.62215835	-4.8590743e-11	0.0491439	0.0491439	0	102594.234	102593.695	-9.731834e-06	667162.4	203860.4	-0.00013219741	203863.88	667161.25	4.4065804e-05
0	0.6217426	0.6217393	9.630598e-11	0.048790433	0.048790433	0	102525.125	102524.6	1.4273356e-05	667421.7	203014.47	-1.4688601e-05	203018	667420.44	0.00014688601
0	0.62132376	0.6213205	-2.95922e-10	0.048436753	0.048436753	0	102456.07	102455.53	-4.649654e-05	667679.5	202170.25	-0.00030111632	202173.75	667678.44	-9.547591e-05
0	0.6209008	0.6208975	-5.095462e-10	0.04808329	0.04808329	0	102386.32	102385.78	-8.499135e-05	667938.2	201319.4	-0.00039659225	201322.92	667937.06	-0.00038190364
0	0.62047416	0.6204709	-3.5808315e-10	0.04772963	0.04772963	0	102315.97	102315.44	-5.687716e-05	668197.25	200463.08	-0.00020105024	200466.6	668196.1	-0.00035252643
0	0.6200471	0.62004375	-6.610092e-10	0.047376156	0.047376156	0	102245.54	102244.99	-0.00010899654	668455.25	199607.05	-0.00052878965	199610.56	668454.2	-0.00045534666
0	0.61961484	0.61961156	-3.9573e-10	0.047022674	0.047022674	0	102174.29	102173.75	-6.2716266e-05	668714.4	198742.94	-0.00027908344	198746.45	668713.3	-0.00026439482
0	0.61918145	0.6191782	-3.3006686e-10	0.046669018	0.046669018	0	102102.8	102102.26	-5.601211e-05	668972.7	197877.77	-0.00029377203	197881.3	668971.6	-0.00020564042
0	0.6187435	0.6187402	-6.1460725e-10	0.04631556	0.04631556	0	102030.586	102030.03	-9.9264704e-05	669232.1	197005.23	-0.00041403496	197008.75	669231.06	-0.00042596945
0	0.6183038	0.6183005	-2.0574459e-10	0.045961883	0.045961883	0	101958.08	101957.54	-3.1358133e-05	669490.6	196131.19	-0.00024970624	196134.72	669489.5	-5.1410105e-05
0	0.6178602	0.6178569	-2.0924662e-10	0.04560841	0.04560841	0	101884.945	101884.39	-3.5899655e-05	669749.6	195251.14	-0.00024970624	195254.7	669748.5	-4.4065804e-05
0	0.6174138	0.6174105	-7.7482534e-11	0.04525482	0.04525482	0	101811.33	101810.79	-1.157007e-05	670008.75	194367.03	0.00011016451	194370.61	670007.7	-0.00022032902
0	0.6169657	0.6169625	-3.8172188e-10	0.044901337	0.044901337	0	101737.43	101736.89	-6.0553633e-05	670267.25	193481.16	-0.00029377203	193484.75	670266.2	-0.00023501762
0	0.616514	0.6165107	-3.852239e-10	0.04454768	0.04454768	0	101662.945	101662.39	-6.617647e-05	670525.9	192590.12	-0.00032314923	192593.7	670524.8	-0.00024970624
0	0.6160589	0.61605555	-3.1211891e-10	0.04419421	0.04419421	0	101587.9	101587.36	-5.1254327e-05	670784.6	191694.23	-0.00027173912	191697.83	670783.6	-0.00020564042
0	0.61560094	0.6155976	-3.7997086e-10	0.04384056	0.04384056	0	101512.38	101511.84	-6.336505e-05	671043.44	190794.23	-0.00024970624	190797.81	671042.5	-0.00027908344
0	0.61513996	0.6151366	-2.5039554e-10	0.043487065	0.043487065	0	101436.36	101435.83	-4.1522493e-05	671302.06	189890.25	-0.00026439482	189893.84	671301.06	-7.344301e-05
0	0.61467534	0.61467206	-4.8765847e-10	0.043133583	0.043133583	0	101359.74	101359.2	-8.088235e-05	671560.75	188981.16	-0.00032314923	188984.73	671559.7	-0.00038190364
0	0.6142088	0.6142055	-1.181937e-11	0.042779934	0.042779934	0	101282.82	101282.28	-2.4870242e-06	671818.94	188069.73	-2.9377203e-05	188073.38	671817.94	7.3443007e-06
0	0.6137374	0.613734	-3.659627e-10	0.042426437	0.042426437	0	101205.07	101204.53	-6.136462e-05	672077.94	187150.78	-0.00018360752	187154.4	672076.8	-0.00035252643
0	0.6132648	0.6132616	-6.373705e-10	0.042072807	0.042072807	0	101127.164	101126.61	-0.00010845588	672335.9	186231.28	-0.0005030846	186234.89	672334.9	-0.00047003524
0	0.61278814	0.6127848	-7.8795796e-11	0.04171931	0.04171931	0	101048.55	101048.01	-1.1948529e-05	672594.06	185305.69	0	185309.3	672593.1	-0.00014688601
0	0.6123079	0.61230457	-2.9723526e-10	0.041365743	0.041365743	0	100969.35	100968.81	-4.914576e-05	672852.4	184375.1	-0.00023501762	184378.72	672851.25	-0.00019095182
0	0.61182487	0.6118217	-6.084787e-11	0.041012246	0.041012246	0	100889.71	100889.17	-7.758435e-06	673110.1	183441.12	1.8360752e-06	183444.75	673109.1	-5.8754405e-05
0	0.61133796	0.6113346	3.064281e-11	0.040658608	0.040658608	0	100809.414	100808.875	3.4602076e-06	673368.2	182501.22	-4.4065804e-05	182504.86	673367.25	8.813161e-05
0	0.610848	0.6108446	-2.4733127e-10	0.040305126	0.040305126	0	100728.62	100728.07	-4.0035684e-05	673626.1	181557.36	-0.00022032902	181561.02	673625.2	-0.00014688601
0	0.610355	0.61035174	-2.749098e-10	0.03995149	0.03995149	0	100647.33	100646.8	-4.5874785e-05	673883.44	180609.83	-0.00023501762	180613.47	673882.6	-0.00017626322
0	0.6098589	0.6098556	-2.2850782e-10	0.039597988	0.039597988	0	100565.516	100564.96	-3.944096e-05	674140.8	179657.9	-0.00023501762	179661.58	674139.9	-0.00011016451
0	0.6093582	0.6093549	-1.6984872e-10	0.039244484	0.039244484	0	100482.96	100482.42	-2.8384515e-05	674398.5	178699.33	-0.00013219741	178703	674397.5	-0.00011750881
0	0.60885525	0.60885197	-1.969895e-10	0.03889085	0.03889085	0	100400.016	100399.48	-3.0141653e-05	674655.2	177738.45	-8.996768e-05	177742.12	674654.25	-0.00020564042
0	0.6083478	0.60834444	-3.729668e-10	0.03853734	0.03853734	0	100316.336	100315.81	-6.082396e-05	674912.5	176770.77	-0.00033783785	176774.42	674911.56	-0.00020564042
0	0.60783744	0.60783416	-1.2519777e-10	0.03818373	0.03818373	0	100232.195	100231.64	-2.34375e-05	675169.1	175799.7	8.996768e-05	175803.38	675168.25	-0.00027908344
0	0.6073239	0.60732055	-2.2763232e-10	0.037830215	0.037830215	0	100147.5	100146.96	-3.4385812e-05	675425.6	174824.14	-0.00020564042	174827.83	675424.75	-0.00010282021
0	0.6068056	0.6068023	-5.2705634e-10	0.037476584	0.037476584	0	100062.04	100061.49	-8.8019035e-05	675682.1	173842.11	-0.00045534666	173845.78	675681.25	-0.00030846064
0	0.6062851	0.6062818	1.7510177e-12	0.03712316	0.03712316	0	99976.22	99975.67	1.1894464e-06	675937.9	172857.56	6.6098706e-05	172861.27	675937	-0.00010282021
0	0.6057607	0.6057575	-1.181937e-10	0.03676954	0.03676954	0	99889.73	99889.195	-1.7084774e-05	676193.7	171867.61	-0.00016891892	171871.3	676192.8	-3.6721503e-05
0	0.6052332	0.60523	-4.543891e-10	0.036416043	0.036416043	0	99802.75	99802.23	-7.6232696e-05	676448.7	170874.12	-0.00030846064	170877.83	676447.8	-0.00032314923
0	0.6047017	0.60469836	-4.5876666e-10	0.036062416	0.036062416	0	99715.086	99714.555	-7.255623e-05	676703.8	169874.8	-0.00042596945	169878.5	676702.94	-0.00026439482
0	0.6041656	0.6041623	-5.121727e-10	0.035708897	0.035708897	0	99626.69	99626.15	-8.466696e-05	676958.94	168869.16	-0.00031580494	168872.88	676958.06	-0.00041128084
0	0.6036259	0.6036226	1.8385687e-11	0.035355378	0.035355378	0	99537.7	99537.164	2.7032872e-06	677213.7	167858.83	1.4688601e-05	167862.55	677212.9	1.4688601e-05
0	0.6030833	0.60308003	-4.0185857e-10	0.03500176	0.03500176	0	99448.23	99447.69	-6.195934e-05	677467.8	166845.08	-0.00019095182	166848.78	677466.9	-0.00038190364
0	0.60253644	0.6025332	-2.346364e-10	0.034648236	0.034648236	0	99358.055	99357.516	-4.011678e-05	677721.8	165825.47	-0.00021573884	165829.17	677721.06	-0.00011750881
0	0.6019855	0.6019823	-1.4533448e-10	0.034294643	0.034294643	0	99267.2	99266.67	-2.314014e-05	677975.5	164800.58	-0.00023501762	164804.28	677974.7	4.4065804e-05
0	0.6014292	0.60142595	-5.0779514e-10	0.033941116	0.03394112	0	99175.47	99174.94	-8.3477506e-05	678229.44	163767.72	-0.00045534666	163771.44	678228.56	-0.00030846064
0	0.6008726	0.6008694	-2.670302e-10	0.033587504	0.033587504	0	99083.69	99083.164	-4.282007e-05	678481.5	162736.48	-0.0003047885	162740.16	678480.75	-0.00011750881
0	0.6003102	0.600307	1.0331005e-10	0.03323407	0.03323407	0	98990.945	98990.41	1.75173e-05	678734.06	161696.45	-1.4688601e-05	161700.19	678733.25	0.00016157462
0	0.59974456	0.59974134	-1.2432226e-10	0.03288047	0.03288047	0	98897.68	98897.15	-2.400519e-05	678985.75	160652.89	-0.00016157462	160656.62	678985.06	-2.9377203e-05
0	0.5991743	0.59917104	-5.2180327e-10	0.032526955	0.03252695	0	98803.63	98803.11	-8.5423875e-05	679237.4	159602.94	-0.0002809195	159606.66	679236.6	-0.00047003524
0	0.5986004	0.59859717	-2.6790573e-10	0.032173358	0.032173358	0	98709	98708.47	-4.49827e-05	679488.4	158548.4	-0.00033783785	158552.14	679487.7	-5.8754405e-05
0	0.59802204	0.5980189	-1.5058753e-10	0.03181982	0.03181982	0	98613.63	98613.1	-2.314014e-05	679739.1	157487.98	-0.00023501762	157491.72	679738.44	4.4065804e-05
0	0.59743994	0.59743667	-5.3756244e-10	0.03146627	0.03146627	0	98517.64	98517.12	-9.104671e-05	679989.3	156422.75	-0.0003883299	156426.48	679988.6	-0.00038924796
0	0.5968531	0.59684986	-7.1791725e-11	0.031112673	0.031112673	0	98420.86	98420.336	-1.2759516e-05	680239.25	155351.36	-8.813161e-05	155355.06	680238.5	-2.1114865e-05
0	0.5962627	0.5962595	-1.8035483e-10	0.030759128	0.030759128	0	98323.51	98322.98	-3.2871973e-05	680488.44	154275.56	-0.00029377203	154279.28	680487.7	2.9377203e-05
0	0.59566796	0.59566474	-1.0681209e-10	0.030405568	0.030405568	0	98225.445	98224.91	-1.75173e-05	680737	153194.38	-0.00011750881	153198.1	680736.4	-5.1410105e-05
0	0.59506595	0.5950628	-3.0117506e-10	0.030052012	0.030052012	0	98126.17	98125.66	-5.1903113e-05	680986.4	152102.36	-5.8754405e-05	152106.1	680985.6	-0.00038924796
0	0.5944653	0.5944621	-4.0973816e-10	0.029698431	0.029698428	0	98027.125	98026.6	-7.028547e-05	681232.9	151014.77	-0.00039659225	151018.48	681232.25	-0.00020564042
0	0.59385765	0.59385455	-5.0779514e-10	0.029344976	0.029344976	0	97926.93	97926.414	-7.958477e-05	681480	149917.12	-0.0004920682	149920.84	681479.25	-0.00024970624
0	0.59324586	0.59324265	-3.2043626e-10	0.028991407	0.028991407	0	97826.03	97825.516	-5.3416956e-05	681726.44	148814.02	-0.00027908344	148817.77	681725.75	-0.00019095182
0	0.5926292	0.5926261	-6.023501e-10	0.028637841	0.028637841	0	97724.36	97723.84	-9.5588235e-05	681972.4	147704.81	-0.00052878965	147708.56	681971.7	-0.00033049352
0	0.59200865	0.59200555	-4.850319e-10	0.028284302	0.028284302	0	97622.03	97621.51	-7.698962e-05	682217.5	146590.89	-0.00039659225	146594.6	682216.75	-0.00031580494
0	0.5913835	0.5913804	-1.4008142e-11	0.027930731	0.02793073	0	97518.95	97518.42	-1.7301038e-06	682462.1	145471.14	5.8754405e-05	145474.88	682461.4	-4.4065804e-05
0	0.5907527	0.59074956	-1.0681209e-10	0.027577164	0.027577164	0	97414.92	97414.41	-1.9031142e-05	682706.3	144343.7	-7.344301e-05	144347.42	682705.6	-8.813161e-05
0	0.59011924	0.59011614	-2.8016284e-10	0.02722359	0.02722359	0	97310.45	97309.945	-4.801038e-05	682949.25	143213.98	-0.00025705053	143217.7	682948.56	-0.00016157462
0	0.58948034	0.58947724	-1.5408956e-10	0.026870025	0.026870025	0	97205.1	97204.59	-2.5951556e-05	683191.75	142076.98	-0.00011016451	142080.69	683191.1	-0.00011016451
0	0.58883685	0.5888338	-4.342524e-10	0.026516486	0.026516486	0	97099	97098.484	-6.920415e-05	683433.6	140934.25	-0.00035252643	140937.95	683433.1	-0.00026439482
0	0.5881889	0.58818585	-4.3950546e-10	0.026162913	0.026162913	0	96992.13	96991.63	-7.266436e-05	683674.7	139786.08	-0.0004590188	139789.77	683674	-0.00017626322
0	0.5875358	0.58753276	3.5020355e-12	0.025809351	0.025809351	0	96884.46	96883.95	3.4602076e-06	683915.06	138631.45	-3.6721503e-05	138635.16	683914.5	9.547591e-05
0	0.58687806	0.586875	-3.2218728e-10	0.025455885	0.025455885	0	96775.984	96775.49	-5.363322e-05	684154.5	137471.14	-0.00019829613	137474.83	684153.9	-0.00024970624
0	0.5862155	0.58621246	8.755089e-11	0.025102323	0.025102323	0	96666.734	96666.234	1.5570935e-05	684393.4	136304.75	8.813161e-05	136308.44	684392.7	7.344301e-05
0	0.5855483	0.58554524	5.2530532e-11	0.024748754	0.024748754	0	96556.72	96556.21	7.7854675e-06	684631.2	135132.77	-8.813161e-05	135136.44	684630.6	0.00016891892
0	0.58487576	0.5848728	-2.2062824e-10	0.024395216	0.024395216	0	96445.82	96445.31	-3.9792387e-05	684868.3	133954.06	-0.00019829613	133957.75	684867.8	-8.813161e-05
0	0.58419776	0.5841948	-3.7121578e-10	0.024041645	0.024041645	0	96334.016	96333.52	-6.2716266e-05	685104.8	132768.4	-0.00030111632	132772.03	685104.4	-0.00023501762
0	0.58351743	0.58351445	-3.7121578e-10	0.023688078	0.023688078	0	96221.836	96221.34	-5.882353e-05	685339.6	131581.12	-0.00040393654	131584.81	685339.1	-0.00013219741
0	0.5828301	0.58282715	-1.9611399e-10	0.023334509	0.023334509	0	96108.48	96108	-3.3737026e-05	685574	130384.47	-0.00020564042	130388.14	685573.6	-8.813161e-05
0	0.5821371	0.58213425	-7.354275e-11	0.022980941	0.022980941	0	95994.22	95993.73	-1.4705883e-05	685807.6	129180.74	-0.00014321387	129184.37	685807.1	2.9377203e-05
0	0.5814403	0.5814374	-7.074112e-10	0.02262741	0.02262741	0	95879.31	95878.81	-0.000118944634	686040.06	127972.7	-0.00064629846	127976.33	686039.6	-0.00039659225
0	0.5807382	0.58073527	-3.3269337e-10	0.02227384	0.02227384	0	95763.516	95763.05	-5.66609e-05	686271.56	126758.28	-0.00030846064	126761.89	686271.06	-0.0002001322
0	0.58003086	0.58002794	-1.5408956e-10	0.02192028	0.02192028	0	95646.88	95646.41	-2.4653978e-05	686501.94	125537.625	-0.00016524676	125541.26	686501.44	-5.8754405e-05
0	0.579318	0.57931507	-7.0390915e-10	0.021566791	0.021566791	0	95529.336	95528.85	-0.000115916955	686731.3	124310.17	-0.0006903643	124313.78	686731	-0.00033049352
0	0.5785998	0.5785969	-7.004071e-12	0.021213219	0.021213219	0	95410.91	95410.43	-8.650519e-07	686959.75	123076.336	5.5082255e-05	123079.95	686959.4	-6.10495e-05
0	0.57787275	0.5778699	-7.354275e-11	0.020859655	0.020859655	0	95291.02	95290.55	-1.384083e-05	687188.06	121830.195	-0.00022859137	121833.79	687187.7	0.00015423032
0	0.5771473	0.57714444	1.5058753e-10	0.020506123	0.020506123	0	95171.4	95170.914	2.4221454e-05	687413.3	120589.336	7.344301e-05	120592.92	687412.94	0.00016891892
0	0.5764106	0.5764078	-1.8560789e-10	0.020152563	0.020152563	0	95049.914	95049.44	-3.2871973e-05	687639.06	119332.266	-0.00022032902	119335.84	687638.6	-4.4065804e-05
0	0.57567334	0.57567054	-1.15567174e-10	0.019798994	0.019798994	0	94928.336	94927.87	-1.600346e-05	687862.1	118076.984	-0.00017442714	118080.56	687861.75	2.9377203e-05
0	0.57492715	0.57492435	-8.755089e-11	0.019445425	0.019445425	0	94805.28	94804.82	-1.6868513e-05	688085.2	116809.234	2.2032902e-05	116812.8	688084.8	-0.00014688601
0	0.57417643	0.57417357	-2.1012213e-11	0.019091865	0.019091865	0	94681.484	94681.04	-6.920415e-06	688306.5	115536.91	-0.00012485312	115540.45	688306.2	0.00013219741
0	0.5734198	0.57341707	-1.6109364e-10	0.018738292	0.018738292	0	94556.73	94556.29	-2.5951556e-05	688526.6	114257.586	-0.00021298473	114261.12	688526.4	0
0	0.57265776	0.57265496	-8.369865e-10	0.018384771	0.01838477	0	94431.05	94430.62	-0.0001349481	688745.56	112971.734	-0.00063895417	112975.234	688745.25	-0.0005655112
0	0.57188916	0.5718865	-2.7315877e-10	0.018031208	0.018031208	0	94304.32	94303.88	-4.49827e-05	688963.3	111677.984	-0.00024236193	111681.5	688963.06	-0.00016157462
0	0.57111496	0.5711124	-1.7860381e-10	0.017677689	0.017677689	0	94176.68	94176.24	-3.0276817e-05	689179.7	110377.96	-0.0003075426	110381.445	689179.44	7.344301e-05
0	0.5703355	0.5703329	-1.0155903e-10	0.017324118	0.017324118	0	94048.125	94047.69	-1.9896193e-05	689394.56	109071.67	-0.00011750881	109075.15	689394.3	-7.3443007e-06
0	0.5695496	0.569547	3.046771e-10	0.016970558	0.01697056	0	93918.53	93918.1	5.1903113e-05	689608.25	107757.78	0.00018360752	107761.24	689607.94	0.0002832146
0	0.56875783	0.5687552	-5.147992e-10	0.016617035	0.016617035	0	93787.98	93787.55	-8.391003e-05	689820.3	106437.17	-0.00040669067	106440.62	689820.1	-0.00030846064
0	0.5679581	0.5679555	-1.7159973e-10	0.016263476	0.016263476	0	93656.09	93655.67	-2.4221454e-05	690031.44	105106.51	-7.344301e-05	105109.94	690031.2	-0.00014688601
0	0.5671558	0.5671532	6.303664e-11	0.01590991	0.01590991	0	93523.78	93523.36	1.2975778e-05	690240.3	103774.38	-1.3770564e-05	103777.79	690240.06	0.00016157462
0	0.5663457	0.5663432	-5.288074e-10	0.015556336	0.015556336	0	93390.22	93389.8	-8.650519e-05	690447.9	102432.73	-0.00052878965	102436.125	690447.75	-0.00018360752
0	0.56552845	0.5655258	1.085631e-10	0.015202784	0.015202784	0	93255.44	93255.02	1.816609e-05	690654.3	101082.164	-6.6098706e-05	101085.53	690654.06	0.00027908344
0	0.5647071	0.5647046	-3.8172188e-10	0.014849216	0.014849214	0	93120	93119.59	-5.6228375e-05	690858.5	99728.12	-0.00022032902	99731.47	690858.4	-0.00024236193
0	0.56387776	0.56387526	-3.7821984e-10	0.014495703	0.014495703	0	92983.25	92982.836	-5.968858e-05	691061.44	98364.055	-0.0003488543	98367.39	691061.3	-0.00019095182
0	0.56304246	0.56303996	7.704478e-11	0.014142151	0.014142151	0	92845.49	92845.09	1.4705883e-05	691262.75	96993.29	-5.1410105e-05	96996.61	691262.6	0.00016891892
0	0.56220037	0.5621979	-3.0117506e-10	0.013788582	0.013788582	0	92706.65	92706.24	-5.1903113e-05	691462.3	95614.86	-0.00020564042	95618.16	691462.2	-0.00023501762
0	0.56135213	0.5613497	1.0155903e-10	0.013435013	0.013435013	0	92566.766	92566.37	1.5570935e-05	691660.2	94229.51	-4.7737954e-05	94232.77	691660.1	0.00016891892
0	0.56049687	0.5604944	-7.004071e-12	0.013081457	0.013081457	0	92425.74	92425.35	8.650519e-07	691856.25	92836.03	-0.00011750881	92839.305	691856.2	0.00017626322
0	0.55963457	0.5596322	-4.622687e-10	0.012727942	0.012727942	0	92283.54	92283.15	-7.439446e-05	692050.75	91434.38	-0.00044065804	91437.61	692050.7	-0.00022032902
0	0.55876666	0.55876446	-4.4826054e-10	0.012374377	0.012374377	0	92140.445	92140.06	-7.179931e-05	692243	90027.28	-0.0004838058	90030.49	692243	-0.00011750881
0	0.557891	0.5578887	-4.2024426e-11	0.012020823	0.012020823	0	91996.03	91995.65	-3.4602076e-06	692433.75	88610.45	-0.00024236193	88613.625	692433.7	0.00022767333
0	0.5570092	0.55700684	3.256893e-10	0.011667254	0.011667254	0	91850.62	91850.24	5.7093424e-05	692622.25	87187.32	8.813161e-05	87190.484	692622.3	0.00038190364
0	0.55611944	0.5561172	2.3813843e-10	0.011313705	0.011313705	0	91703.9	91703.53	4.065744e-05	692809.2	85754.88	-2.2032902e-05	85758.02	692809.1	0.00036721505
0	0.55522376	0.5552215	-7.214193e-10	0.01096014	0.01096014	0	91556.2	91555.84	-0.00011937716	692993.7	84316.37	-0.0004994125	84319.484	692993.8	-0.00052878965
0	0.55432004	0.5543179	-6.093542e-10	0.010606609	0.010606609	0	91407.18	91406.83	-9.8615914e-05	693176.5	82868.445	-0.0006316099	82871.53	693176.5	-0.00029377203
0	0.5534092	0.5534071	-7.004071e-12	0.010253062	0.010253062	0	91256.984	91256.63	2.5951558e-06	693357.2	81412.6	-0.00032314923	81415.664	693357.25	0.00035252643
0	0.552492	0.55248994	1.5408956e-10	0.009899497	0.009899497	0	91105.76	91105.414	2.5951556e-05	693535.56	79950.31	0.00015423032	79953.35	693535.6	8.078731e-05
0	0.5515671	0.55156505	-4.2024426e-10	0.0095459325	0.0095459325	0	90953.22	90952.88	-6.83391e-05	693711.94	78479.01	-0.00044065804	78482.016	693712.06	-0.00019095182
0	0.5506345	0.5506324	1.7510178e-10	0.009192385	0.009192385	0	90799.44	90799.1	2.768166e-05	693886.06	76999.25	-0.00011750881	77002.21	693886.2	0.00034518214
0	0.5496947	0.5496927	-1.8910992e-10	0.0088388445	0.0088388445	0	90644.47	90644.14	-2.5951556e-05	694057.94	75511.77	-0.00024236193	75514.73	694058.06	0
0	0.54874724	0.5487453	2.8366487e-10	0.008485279	0.008485279	0	90488.23	90487.91	4.9307957e-05	694227.44	74015.695	0.00015790247	74018.61	694227.6	0.00029377203
0	0.54779166	0.5477897	-1.5058753e-10	0.008131738	0.008131738	0	90330.66	90330.336	-3.0276817e-05	694394.8	72510.62	-0.00032131316	72513.51	694395.06	0.00011750881
0	0.54682916	0.5468272	0	0.007778168	0.007778168	0	90171.945	90171.625	-1.7301038e-06	694559.56	70998.29	-0.00012485312	71001.15	694559.8	0.00013219741
0	0.5458587	0.5458568	-2.3813843e-10	0.007424608	0.007424607	0	90011.91	90011.6	-4.065744e-05	694722	69477.305	-0.00011016451	69480.125	694722.25	-0.00023501762
0	0.54488033	0.54487854	-3.0817912e-10	0.0070710755	0.0070710755	0	89850.59	89850.29	-5.1038063e-05	694881.94	67947.836	-0.00020747649	67950.625	694882.1	-0.00020564042
0	0.5438938	0.54389197	-1.2607328e-10	0.0067175063	0.0067175063	0	89687.89	89687.586	-1.9031142e-05	695039.4	66409.2	-0.00015055816	66411.95	695039.56	-3.6721503e-05