# t (s)	mx ()	my ()	mz ()	B_extx (T)	B_exty (T)	B_extz (T)	m_fullx (A/m)	m_fully (A/m)	m_fullz (A/m)	m_full.region1x (A/m)	m_full.region1y (A/m)	m_full.region1z (A/m)	m_full.region2x (A/m)	m_full.region2y (A/m)	m_full.region2z (A/m)
0	0.6411787	0.6411794	-7.2324105e-11	0.070710704	0.070710704	0	177005.4	177005.58	-1.8542918e-05	638044.2	259606.72	-4.5516874e-05	259606.02	638044.4	-4.195162e-05
0	0.64094716	0.6409477	-7.8579906e-11	0.07035722	0.07035722	0	176941.47	176941.64	-2.37846e-05	638208.06	259118.58	-4.26422e-05	259117.97	638208.3	-7.4549476e-05
0	0.64071095	0.6407115	-1.427052e-10	0.07000352	0.07000352	0	176876.25	176876.42	-4.055105e-05	638376.44	258619.45	-0.00012580393	258618.83	638376.6	-8.619776e-05
0	0.6404734	0.640474	-1.3052999e-10	0.06965005	0.06965005	0	176810.69	176810.84	-3.6144404e-05	638544.2	258119.2	-0.00012738895	258118.58	638544.44	-7.633036e-05
0	0.64023525	0.6402358	-8.6104034e-11	0.06929643	0.06929643	0	176744.95	176745.11	-1.5890939e-05	638712.1	257617.8	-0.00010587892	257617.14	638712.3	7.29217e-07
0	0.6399946	0.63999516	-7.753246e-11	0.068942994	0.068942994	0	176678.52	176678.69	-2.0607004e-05	638880.7	257112.4	-6.452133e-05	257111.78	638880.9	-5.3662847e-05
0	0.6397538	0.63975435	-9.9493205e-11	0.06858929	0.06858929	0	176612.02	176612.2	-3.460855e-05	639049	256606.97	-7.481405e-05	256606.33	639049.1	-8.9350426e-05
0	0.6395123	0.6395129	-1.0851088e-10	0.06823583	0.06823583	0	176545.36	176545.55	-2.6237887e-05	639217.5	256100.39	-3.657143e-05	256099.75	639217.56	-9.936616e-05
0	0.63926804	0.6392685	-6.967612e-11	0.067882195	0.067882195	0	176477.92	176478.08	-2.4620742e-05	639386.56	255589.25	-8.664527e-06	255588.58	639386.75	-9.605773e-05
0	0.63902384	0.63902456	-1.0299628e-10	0.06752872	0.06752872	0	176410.55	176410.7	-3.040577e-05	639555.4	255078.77	-9.1178576e-05	255078.11	639555.5	-7.628014e-05
0	0.6387783	0.6387789	-9.9469336e-11	0.06717502	0.06717502	0	176342.75	176342.9	-2.8441103e-05	639724.4	254565.94	-1.9595971e-05	254565.3	639724.6	-0.000107389664
0	0.6385311	0.6385318	-4.733359e-11	0.066821605	0.066821605	0	176274.52	176274.69	-1.5078102e-05	639893.2	254051.16	-4.0783878e-05	254050.5	639893.3	-1.5801674e-05
0	0.63828325	0.6382838	-1.6057511e-10	0.066468135	0.066468135	0	176206.06	176206.22	-4.331153e-05	640062.9	253534.33	-5.195906e-05	253533.67	640063.06	-0.00015932636
0	0.6380341	0.63803476	-8.138887e-11	0.06611443	0.06611443	0	176137.31	176137.47	-2.4138048e-05	640232	253016.5	-5.7022848e-05	253015.81	640232.1	-7.492523e-05
0	0.63778335	0.637784	-1.4934184e-10	0.065760985	0.065760985	0	176068.08	176068.25	-4.1709074e-05	640401	252496.45	-9.64215e-05	252495.8	640401.25	-0.00011852442
0	0.63753206	0.6375327	-1.6747588e-10	0.06540732	0.06540732	0	175998.72	175998.86	-4.298192e-05	640570.7	251974.92	-0.00010559486	251974.23	640570.94	-0.00012591647
0	0.6372796	0.6372802	3.298841e-11	0.0650539	0.0650539	0	175928.98	175929.19	5.4101297e-06	640740	251452.05	5.754205e-05	251451.39	640740.3	-5.4494444e-06
0	0.63702434	0.63702494	-2.616912e-11	0.064700216	0.064700216	0	175858.55	175858.72	-1.3074776e-05	640910.1	250924.62	-1.6091051e-05	250923.98	640910.3	-2.9245273e-05
0	0.63676983	0.63677037	-7.383497e-11	0.06434676	0.06434676	0	175788.23	175788.42	-2.487639e-05	641079.8	250398.45	-1.2544534e-05	250397.81	641080	-0.00010590187
0	0.63651377	0.6365143	-8.184557e-11	0.0639931	0.0639931	0	175717.55	175717.75	-2.4945673e-05	641249.3	249870.44	-8.0570804e-05	249869.75	641249.56	-3.720862e-05
0	0.6362551	0.6362558	-1.1303227e-10	0.06363964	0.06363964	0	175646.17	175646.38	-3.5598554e-05	641419.94	249337.94	-4.87204e-05	249337.28	641420.2	-0.00012875782
0	0.63599604	0.63599676	-7.768457e-11	0.06328595	0.06328595	0	175574.66	175574.84	-1.571498e-05	641589.94	248805.34	3.9379156e-05	248804.7	641590.1	-0.0001288708
0	0.6357359	0.6357365	-5.953484e-11	0.0629325	0.0629325	0	175502.84	175502.98	-1.5044851e-05	641760	248270.89	-8.757079e-05	248270.22	641760.25	-4.96911e-06
0	0.63547367	0.6354742	-1.6993827e-10	0.06257904	0.06257904	0	175430.45	175430.61	-4.5048087e-05	641930.25	247733.39	-8.99856e-05	247732.77	641930.5	-0.00014061997
0	0.6352108	0.6352114	-9.630673e-11	0.062225346	0.062225346	0	175357.88	175358.05	-2.8170249e-05	642100.56	247195.19	-7.9000914e-05	247194.52	642100.8	-7.294414e-05
0	0.6349462	0.6349469	-1.7096091e-10	0.06187191	0.06187191	0	175284.84	175285.03	-4.7741032e-05	642271.3	246654.03	-0.00012883628	246653.39	642271.56	-0.00012869269
0	0.63468087	0.6346815	-2.4988267e-10	0.061518222	0.061518222	0	175211.58	175211.75	-6.815412e-05	642441.75	246112.1	-0.00021217708	246111.42	642442	-0.00013792823
0	0.6344141	0.63441473	-1.3203084e-10	0.061164826	0.061164826	0	175137.95	175138.11	-3.200353e-05	642612.44	245568.02	-7.60171e-05	245567.33	642612.7	-0.000114903756
0	0.634146	0.63414663	-1.0062716e-10	0.060811136	0.060811136	0	175063.94	175064.1	-2.4259116e-05	642783.1	245021.94	-4.917134e-05	245021.3	642783.3	-9.150097e-05
0	0.63387656	0.63387716	-1.1487354e-10	0.060457677	0.060457677	0	174989.55	174989.75	-2.8684632e-05	642953.9	244473.94	-1.2016976e-05	244473.27	642954.1	-0.00013905388
0	0.63360596	0.63360655	-1.14533924e-10	0.06010401	0.06010401	0	174914.83	174915.02	-3.6200243e-05	643124.75	243924.27	-6.485629e-05	243923.56	643124.9	-0.00013671468
0	0.6333351	0.6333357	-1.5144716e-10	0.05975055	0.05975055	0	174840.06	174840.23	-3.8031107e-05	643295.3	243374.39	-0.00013376772	243373.77	643295.44	-8.0945094e-05
0	0.6330602	0.63306075	-3.9066365e-11	0.059396874	0.059396874	0	174764.17	174764.36	-7.937487e-06	643467	242817.97	3.0419056e-05	242817.25	643467.2	-7.104239e-05
0	0.6327864	0.632787	1.298643e-10	0.059043404	0.059043404	0	174688.6	174688.75	3.021168e-05	643637.7	242263.92	7.353535e-05	242263.23	643637.94	0.00012306865
0	0.6325099	0.6325105	-1.2879403e-10	0.05868994	0.05868994	0	174612.27	174612.45	-3.325002e-05	643808.75	241705.81	-1.1311015e-05	241705.14	643808.94	-0.00018265778
0	0.63223	0.6322305	2.3696859e-11	0.05833627	0.05833627	0	174534.97	174535.16	3.6908464e-06	643980.7	241141.95	4.1676663e-05	241141.3	643980.75	-1.1588277e-05
0	0.63195366	0.63195425	-1.712395e-10	0.057982814	0.057982814	0	174458.7	174458.84	-4.3505184e-05	644151.8	240583.97	-0.0001137396	240583.33	644151.9	-0.00013130516
0	0.63167334	0.63167393	-8.139024e-11	0.057629142	0.057629142	0	174381.31	174381.5	-1.7259621e-05	644323.1	240020.27	-5.3304615e-05	240019.6	644323.25	-3.4944343e-05
0	0.63139147	0.63139206	-6.638852e-11	0.057275668	0.057275668	0	174303.5	174303.69	-1.9599758e-05	644494.2	239454.48	-5.9298403e-05	239453.8	644494.4	-3.7612743e-05
0	0.6311084	0.63110906	-9.4705715e-11	0.056922063	0.056922063	0	174225.38	174225.53	-2.5643647e-05	644665.6	238886.77	-9.4053146e-05	238886.08	644665.9	-4.778207e-05
0	0.630824	0.6308246	-1.8476894e-10	0.0565686	0.0565686	0	174146.83	174147.03	-5.480603e-05	644837.25	238316.97	-9.2367554e-05	238316.3	644837.44	-0.00018781339
0	0.630538	0.63053864	-1.1755916e-10	0.056214936	0.056214936	0	174067.89	174068.06	-2.8118224e-05	645008.94	237744.89	-2.2805814e-05	237744.2	645009.2	-0.00014934072
0	0.63025075	0.63025135	-7.549712e-11	0.05586146	0.05586146	0	173988.6	173988.77	-2.2538028e-05	645180.6	237171.14	-4.517012e-05	237170.45	645180.7	-5.2876632e-05
0	0.6299619	0.6299626	-1.2398377e-10	0.055507805	0.055507805	0	173908.88	173909.06	-3.500587e-05	645352.4	236595.12	-0.0001185863	236594.39	645352.56	-5.3762822e-05
0	0.6296727	0.62967336	-1.366693e-10	0.055154327	0.055154327	0	173829.03	173829.2	-3.809651e-05	645524.06	236018.45	-8.546868e-05	236017.73	645524.2	-0.000106334235
0	0.62938035	0.62938094	-1.6862112e-10	0.054800846	0.054800846	0	173748.31	173748.5	-4.7019785e-05	645695.75	235437.5	-9.325939e-05	235436.81	645695.9	-0.00014695674
0	0.6290873	0.6290879	-2.487503e-11	0.05444718	0.05444718	0	173667.4	173667.58	-1.084738e-06	645867.5	234855.36	-1.6444877e-05	234854.64	645867.7	-6.9499274e-06
0	0.6287927	0.62879336	-6.448986e-11	0.054093722	0.054093722	0	173586.1	173586.27	-1.9750803e-05	646039.5	234271.06	-1.6045155e-05	234270.36	646039.6	-7.5458345e-05
0	0.62849736	0.6284979	-1.0475298e-10	0.053740054	0.053740054	0	173504.53	173504.7	-2.7749944e-05	646211.56	233685.4	-5.118883e-05	233684.73	646211.7	-8.5139895e-05
0	0.6282001	0.62820077	-1.06920035e-10	0.053386588	0.053386588	0	173422.5	173422.67	-2.9732808e-05	646383.25	233097.61	-5.0603e-05	233096.9	646383.44	-9.25526e-05
0	0.6279014	0.627902	-5.836553e-11	0.053032987	0.053032987	0	173340	173340.17	-1.3569105e-05	646555	232507.53	-2.5413323e-05	232506.84	646555.25	-5.2339652e-05
0	0.6276004	0.627601	-9.160296e-11	0.05267951	0.05267951	0	173256.94	173257.14	-2.9151595e-05	646727.2	231914.19	-6.8781716e-05	231913.48	646727.3	-7.961078e-05
0	0.62729853	0.62729913	-1.3506816e-10	0.05232584	0.05232584	0	173173.58	173173.77	-3.7170208e-05	646899.25	231319.39	-0.00011715584	231318.64	646899.3	-8.825577e-05
0	0.6269945	0.6269952	-8.047805e-11	0.05197238	0.05197238	0	173089.69	173089.86	-2.8416847e-05	647071.1	230721.92	-2.8477107e-05	230721.23	647071.2	-9.808793e-05
0	0.6266887	0.6266894	-8.098016e-11	0.051618718	0.051618718	0	173005.27	173005.42	-2.6376982e-05	647243.44	230121.47	1.5656487e-05	230120.8	647243.6	-0.00015818165
0	0.6263839	0.62638456	-7.1046724e-11	0.05126525	0.05126525	0	172921.11	172921.28	-2.0698884e-05	647414.9	229523.27	2.1170465e-05	229522.61	647415.1	-0.00013741726
0	0.6260756	0.6260762	-5.732645e-11	0.05091175	0.05091175	0	172836	172836.16	-2.080129e-05	647587.2	228919.38	-3.8904083e-05	228918.67	647587.44	-5.8812846e-05
0	0.6257653	0.625766	-7.60361e-11	0.0505581	0.0505581	0	172750.36	172750.53	-2.107571e-05	647759.1	228313.11	-6.737467e-05	228312.4	647759.3	-4.2234813e-05
0	0.6254552	0.6254558	-7.7081105e-11	0.050204627	0.050204627	0	172664.7	172664.89	-2.172042e-05	647931.1	227706.9	-6.3021755e-05	227706.2	647931.2	-4.6511388e-05
0	0.6251415	0.6251421	4.019226e-11	0.049850974	0.049850974	0	172578.11	172578.28	1.2829856e-05	648103.4	227095.38	1.9805824e-05	227094.7	648103.56	3.0139972e-05
0	0.62482727	0.6248279	-9.608441e-12	0.049497493	0.049497493	0	172491.39	172491.55	3.2258254e-06	648275.06	226483.78	1.4841157e-05	226483.08	648275.25	-7.658955e-06
0	0.6245109	0.62451154	-1.0371607e-10	0.049143914	0.049143914	0	172404.02	172404.2	-2.8592067e-05	648447.5	225868.39	-3.7100444e-06	225867.66	648447.7	-0.00013948946
0	0.6241942	0.62419486	-1.5909206e-10	0.04879043	0.04879043	0	172316.61	172316.77	-4.777397e-05	648619.56	225252.98	-5.7128804e-05	225252.3	648619.7	-0.00016426889
0	0.6238742	0.62387484	-6.0143376e-11	0.04843677	0.04843677	0	172228.27	172228.45	-1.7445254e-05	648791.56	224632.98	5.9115523e-06	224632.3	648791.75	-8.599819e-05
0	0.6235544	0.6235551	-2.0325448e-10	0.04808329	0.04808329	0	172140	172140.17	-5.7460835e-05	648963.5	224013.47	-8.261754e-05	224012.8	648963.6	-0.00020432808
0	0.62323153	0.6232322	-7.872536e-11	0.04772965	0.04772965	0	172050.83	172051.03	-1.788009e-05	649135.06	223389.72	-5.609955e-05	223389.02	649135.25	-5.794308e-05
0	0.6229071	0.6229077	-1.0903476e-10	0.047376156	0.047376156	0	171961.28	171961.44	-2.8064038e-05	649307.5	222763.08	-6.6556546e-05	222762.38	649307.7	-7.765538e-05
0	0.6225825	0.6225831	-4.467655e-11	0.04702266	0.04702266	0	171871.69	171871.84	-1.34231805e-05	649479.4	222136.84	-2.4113404e-05	222136.1	649479.56	-3.7369355e-05
0	0.62225384	0.62225443	-1.8502574e-10	0.046669014	0.046669014	0	171780.92	171781.12	-4.894913e-05	649651.56	221504.55	-0.00011349098	221503.81	649651.75	-0.00014141093
0	0.6219257	0.6219263	-2.1412391e-10	0.046315536	0.046315536	0	171690.38	171690.55	-6.282031e-05	649823.3	220873.34	-0.00017698258	220872.62	649823.56	-0.00016278942
0	0.62159526	0.621596	-1.7968657e-10	0.045961887	0.045961887	0	171599.16	171599.34	-4.6821267e-05	649995	220239.11	-5.9192786e-05	220238.38	649995.2	-0.00019221524
0	0.62126195	0.6212626	-1.697014e-10	0.045608394	0.045608394	0	171507.14	171507.3	-5.3126027e-05	650166.75	219600.64	-0.000154737	219599.92	650167	-0.00011534322
0	0.6209275	0.62092817	-1.7203723e-10	0.04525483	0.04525483	0	171414.81	171414.97	-4.9341354e-05	650338.8	218960.4	-0.00015415717	218959.69	650339.06	-8.743445e-05
0	0.6205927	0.62059337	-4.834904e-11	0.044901334	0.044901334	0	171322.38	171322.55	-1.2629019e-05	650510.44	218320.05	-1.1293644e-05	218319.31	650510.6	-5.5184246e-05
0	0.6202541	0.62025464	-8.0822855e-11	0.044547696	0.044547696	0	171228.88	171229.06	-1.6444426e-05	650682.4	217674.11	-5.5085402e-05	217673.34	650682.44	-2.763617e-05
0	0.6199158	0.61991644	-9.117324e-11	0.04419421	0.04419421	0	171135.5	171135.69	-2.6457932e-05	650853.8	217028.98	-9.755709e-05	217028.28	650854	-3.1551714e-05
0	0.6195738	0.61957437	-1.1965287e-10	0.04384058	0.04384058	0	171041.1	171041.25	-3.554754e-05	651025.56	216378.42	-9.3092596e-05	216377.69	651025.7	-8.4181556e-05
0	0.6192322	0.6192328	-1.1541145e-10	0.043487065	0.043487065	0	170946.78	170946.95	-3.026633e-05	651196.94	215728.84	-6.660085e-05	215728.11	651197.1	-9.819456e-05
0	0.61888653	0.6188872	-1.1321813e-10	0.04313356	0.04313356	0	170851.38	170851.52	-2.8123051e-05	651368.4	215073.47	-0.00010099849	215072.73	651368.56	-4.567401e-05
0	0.61854124	0.6185419	-9.4362775e-11	0.042779934	0.042779934	0	170756.05	170756.2	-2.8821803e-05	651539.8	214418.69	-0.000135882	214417.94	651539.94	-2.9298697e-05
0	0.6181918	0.6181924	-1.8524858e-10	0.04242642	0.04242642	0	170659.58	170659.75	-4.328604e-05	651711.4	213757.97	-8.774801e-05	213757.22	651711.56	-0.00016951968
0	0.61784226	0.6178428	-3.3008402e-10	0.04207281	0.04207281	0	170563.1	170563.25	-9.226909e-05	651882.4	213097.47	-0.00023211447	213096.73	651882.56	-0.0002498572
0	0.6174903	0.617491	-1.4411808e-10	0.041719295	0.041719295	0	170465.92	170466.1	-3.54861e-05	652053.56	212433.7	-9.957403e-05	212432.94	652053.7	-9.1366725e-05
0	0.61713773	0.61713827	-1.593367e-10	0.041365758	0.041365758	0	170368.58	170368.75	-4.396267e-05	652224.56	211769	-7.0163e-05	211768.27	652224.6	-0.00015043124
0	0.61678106	0.6167817	-8.1850304e-11	0.041012242	0.041012242	0	170270.11	170270.27	-2.4743435e-05	652395.94	211098.27	-6.329403e-05	211097.56	652396	-7.151475e-05
0	0.616425	0.6164256	-4.303998e-11	0.040658627	0.040658627	0	170171.81	170171.98	-1.4029716e-05	652566.56	210429.03	-5.877591e-06	210428.33	652566.75	-6.8604335e-05
0	0.6160646	0.6160652	-8.045074e-11	0.040305126	0.040305126	0	170072.36	170072.52	-1.8634699e-05	652737.6	209753.6	-2.5673677e-05	209752.84	652737.75	-7.368494e-05
0	0.61570334	0.61570394	-9.2258055e-11	0.03995151	0.03995151	0	169972.61	169972.77	-2.2870048e-05	652908.4	209077.06	-5.6404697e-05	209076.3	652908.5	-5.3538006e-05
0	0.6153417	0.6153424	-7.636466e-11	0.039597988	0.039597988	0	169872.78	169872.92	-2.2441372e-05	653078.9	208400.25	-4.0774263e-05	208399.53	653079.06	-8.094186e-05
0	0.6149759	0.6149765	-1.522288e-10	0.03924446	0.03924446	0	169771.78	169771.95	-4.1264873e-05	653249.5	207717.55	-8.326142e-05	207716.78	653249.5	-0.00014153261
0	0.61461097	0.61461157	-6.392555e-11	0.03889085	0.03889085	0	169671.05	169671.22	-2.1523238e-05	653419.5	207036.55	-8.330859e-05	207035.83	653419.56	-3.9450322e-05
0	0.6142409	0.6142414	-8.103536e-11	0.03853732	0.03853732	0	169568.86	169569.03	-2.6061729e-05	653590.25	206347.69	-6.54643e-05	206346.94	653590.3	-5.896694e-05
0	0.61387026	0.6138709	-1.12134343e-10	0.03818373	0.03818373	0	169466.56	169466.73	-2.6327607e-05	653759.9	205659.16	-7.726453e-05	205658.44	653760	-7.907706e-05
0	0.6134982	0.61349875	-1.9996495e-10	0.0378302	0.0378302	0	169363.84	169364	-6.2376326e-05	653930.44	204967.72	-0.00013829008	204966.95	653930.6	-0.00017074945
0	0.61312425	0.61312485	-5.8605204e-12	0.03747659	0.03747659	0	169260.61	169260.78	-4.8243014e-06	654100.3	204274.45	7.0468086e-06	204273.72	654100.3	-1.0296963e-05
0	0.61274683	0.6127474	-3.659875e-11	0.037123155	0.037123155	0	169156.42	169156.58	-1.1224487e-05	654270.06	203576.19	7.79122e-06	203575.48	654270.1	-4.753581e-05
0	0.61236763	0.6123683	-1.2139224e-10	0.036769558	0.036769558	0	169051.75	169051.9	-3.2800093e-05	654439.9	202875.5	-0.00010242516	202874.77	654440	-8.34865e-05
0	0.61198777	0.61198837	2.7783135e-11	0.036416043	0.036416043	0	168946.84	168947.05	4.626236e-06	654609.06	202174.58	-1.0527103e-06	202173.83	654609.1	2.0775591e-05
0	0.6116064	0.611607	-1.0509556e-10	0.036062438	0.036062438	0	168841.6	168841.77	-2.5370313e-05	654778.8	201470.9	-6.752429e-05	201470.16	654778.94	-7.560642e-05
0	0.6112223	0.6112229	-1.3296095e-10	0.035708897	0.035708897	0	168735.6	168735.75	-3.159383e-05	654947.8	200764.28	-0.000107501466	200763.56	654947.94	-7.306181e-05
0	0.61083454	0.6108352	-1.9853502e-10	0.035355352	0.035355352	0	168628.53	168628.67	-5.522476e-05	655116.94	200052.17	-0.000119337055	200051.44	655117.1	-0.00017693416
0	0.6104468	0.61044747	-1.358045e-10	0.03500176	0.03500176	0	168521.47	168521.64	-3.638102e-05	655285.7	199340.53	-8.6426095e-05	199339.81	655285.8	-0.000110349414
0	0.61005676	0.61005735	-1.7598113e-10	0.034648214	0.034648214	0	168413.8	168413.95	-4.6423535e-05	655454.5	198625.69	-0.00013902008	198624.94	655454.6	-0.00011343705
0	0.60966295	0.60966355	-3.517232e-11	0.034294646	0.034294646	0	168305.08	168305.25	-1.2105726e-05	655623.1	197905.7	-1.2567455e-05	197905	655623.25	-4.4656783e-05
0	0.6092652	0.6092658	-1.3238505e-10	0.033941098	0.033941098	0	168195.27	168195.42	-3.3012115e-05	655792.6	197179.28	-8.219883e-05	197178.55	655792.9	-8.4475025e-05
0	0.6088727	0.60887325	-1.2141886e-10	0.03358751	0.03358751	0	168086.9	168087.1	-3.2042837e-05	655959.56	196462.88	-4.9833074e-05	196462.12	655959.7	-0.0001056868
0	0.6084722	0.6084728	-1.0147133e-10	0.033234067	0.033234067	0	167976.36	167976.52	-2.420251e-05	656127.8	195734.05	-7.650032e-05	195733.3	656127.94	-5.7770012e-05
0	0.6080723	0.6080728	-6.6310214e-11	0.032880493	0.032880493	0	167865.97	167866.11	-2.4428033e-05	656295.6	195006.28	-1.8450613e-05	195005.5	656295.7	-9.6294716e-05
0	0.60766804	0.6076686	-1.0621796e-10	0.03252695	0.03252695	0	167754.36	167754.52	-3.3249587e-05	656463.5	194272.48	-9.126376e-05	194271.7	656463.6	-7.5362674e-05
0	0.60726196	0.6072625	-1.2117752e-11	0.03217338	0.03217338	0	167642.23	167642.42	-4.498155e-06	656630.56	193536.88	3.0168405e-06	193536.1	656630.75	-3.1419902e-05
0	0.6068558	0.6068565	1.27076665e-11	0.03181982	0.03181982	0	167530.16	167530.3	5.962506e-06	656798	192801.08	-3.13882e-05	192800.33	656798.1	5.633291e-05
0	0.60644585	0.60644644	-1.2536933e-10	0.03146625	0.03146625	0	167416.95	167417.11	-3.361807e-05	656965.06	192059.86	-9.5714175e-05	192059.11	656965.06	-8.498296e-05
0	0.6060347	0.60603535	-1.05451696e-10	0.031112673	0.031112673	0	167303.45	167303.62	-2.9684119e-05	657131.7	191317.64	-3.169263e-05	191316.88	657131.94	-9.752797e-05
0	0.6056193	0.60561985	-1.5142965e-10	0.030759111	0.030759111	0	167188.78	167188.92	-4.2361953e-05	657298.1	190569.56	-4.7329337e-05	190568.81	657298.3	-0.00014711733
0	0.6052037	0.6052044	-1.1578203e-10	0.030405568	0.030405568	0	167074.06	167074.22	-2.7680278e-05	657464.94	189821.12	-3.246936e-05	189820.33	657464.94	-0.000121033096
0	0.6047857	0.6047863	3.7041044e-11	0.030052004	0.030052004	0	166958.64	166958.8	1.0861077e-05	657630.6	189070.08	5.8197747e-05	189069.33	657630.75	-4.7871126e-06
0	0.60436374	0.60436434	-7.629724e-11	0.029698437	0.029698437	0	166842.16	166842.31	-2.2506088e-05	657796.44	188313.5	-5.5403038e-05	188312.73	657796.56	-6.6337234e-05
0	0.6039417	0.6039422	-2.0030497e-10	0.02934497	0.02934497	0	166725.64	166725.81	-5.3320728e-05	657962.2	187556.95	-9.2556395e-05	187556.23	657962.2	-0.000200602
0	0.6035147	0.6035153	-8.063535e-11	0.028991407	0.028991407	0	166607.78	166607.95	-2.5491607e-05	658127.75	186793.61	-5.0816692e-05	186792.86	658127.75	-7.160443e-05
0	0.60308814	0.60308886	4.332074e-11	0.028637834	0.028637834	0	166490.05	166490.2	9.209661e-06	658292.75	186031.47	2.0423886e-05	186030.72	658292.9	2.5332332e-05
0	0.60265684	0.6026574	-7.218159e-11	0.0282843	0.0282843	0	166370.95	166371.12	-1.9124303e-05	658457.8	185262.47	-3.3630262e-05	185261.72	658457.94	-4.1178017e-05
0	0.6022259	0.6022265	-9.692659e-12	0.02793073	0.02793073	0	166252	166252.16	-1.089327e-06	658622.2	184494.84	-2.9115141e-05	184494.1	658622.25	1.05905265e-05
0	0.60178983	0.60179037	-7.695453e-11	0.027577164	0.027577164	0	166131.56	166131.73	-1.9345827e-05	658786.7	183719.72	-4.8697126e-05	183718.98	658786.8	-3.7202386e-05
0	0.60135305	0.60135365	-1.4559267e-11	0.02722359	0.02722359	0	166011.06	166011.2	-6.1077253e-06	658950.9	182944.25	-2.0853691e-05	182943.48	658950.94	-1.7805995e-05
0	0.6009139	0.6009145	-1.0256041e-10	0.026870027	0.026870027	0	165889.8	165889.97	-2.7900644e-05	659114.6	182165.55	-3.3224856e-05	182164.8	659114.8	-0.000110319845
0	0.6004726	0.6004732	-9.365023e-11	0.026516493	0.026516493	0	165767.98	165768.12	-2.892539e-05	659278.06	181384.48	-7.40148e-05	181383.7	659278	-6.1596686e-05
0	0.60002667	0.60002726	-8.375412e-11	0.02616292	0.02616292	0	165644.88	165645.05	-2.7848839e-05	659441.3	180596.78	-5.435013e-05	180596.03	659441.4	-7.971947e-05
0	0.5995814	0.5995821	-1.3830254e-10	0.025809359	0.025809359	0	165521.95	165522.1	-3.695007e-05	659603.8	179810.88	-0.00012679458	179810.12	659603.94	-6.787578e-05
0	0.5991308	0.5991314	-1.455744e-10	0.025455875	0.025455875	0	165397.53	165397.72	-4.041465e-05	659766.7	179017.19	-0.00010113582	179016.44	659766.75	-9.431966e-05
0	0.59867895	0.59867954	-9.1685375e-11	0.025102314	0.025102314	0	165272.81	165272.95	-1.661274e-05	659928.75	178222.53	-8.7012275e-05	178221.78	659928.9	-2.8398492e-05
0	0.59822595	0.5982266	-6.067376e-11	0.024748746	0.024748746	0	165147.77	165147.95	-1.5137447e-05	660090.9	177426.38	-6.580564e-05	177425.61	660091	-1.7695509e-05
0	0.59776944	0.59777004	-1.0683479e-10	0.024395214	0.024395214	0	165021.72	165021.88	-2.7172124e-05	660252.25	176625.64	-7.6665994e-05	176624.88	660252.4	-7.7550045e-05
0	0.5973104	0.59731096	-4.135201e-13	0.024041645	0.024041645	0	164895.03	164895.17	-1.9622874e-07	660413.7	175821.66	-3.1596144e-05	175820.88	660413.8	3.2529475e-05
0	0.59684867	0.5968492	-4.505241e-11	0.023688078	0.023688078	0	164767.52	164767.69	-1.5669e-05	660574.75	175014.17	-2.4411924e-05	175013.4	660574.75	-5.8481037e-05
0	0.5963847	0.5963853	-1.2470479e-10	0.023334507	0.023334507	0	164639.45	164639.6	-2.946181e-05	660735	174204.28	-6.214726e-05	174203.52	660735.1	-0.00010030061
0	0.59591657	0.5959171	-5.5815966e-11	0.022980943	0.022980943	0	164510.22	164510.38	-1.6688973e-05	660895.1	173388.81	-1.2003677e-05	173388.05	660895.1	-7.8812634e-05
0	0.595447	0.5954476	-4.6811385e-11	0.022627415	0.022627415	0	164380.6	164380.75	-1.557229e-05	661055.25	172571.4	-4.9166956e-05	172570.61	661055.25	-1.103196e-05
0	0.59497595	0.5949766	-6.9814404e-11	0.022273848	0.022273848	0	164250.53	164250.7	-1.8899314e-05	661214.56	171752.47	-2.7846421e-05	171751.67	661214.6	-8.153791e-05
0	0.59450144	0.594502	-7.5118314e-11	0.02192029	0.02192029	0	164119.52	164119.7	-2.5811054e-05	661373.6	170929.06	-7.0975475e-05	170928.31	661373.7	-5.399353e-05
0	0.59402394	0.59402454	-1.967707e-11	0.02156678	0.02156678	0	163987.77	163987.89	-4.0715286e-06	661532.4	170101.92	-3.970222e-05	170101.14	661532.5	2.2922231e-05
0	0.59354347	0.59354395	-9.279103e-11	0.02121321	0.02121321	0	163855.1	163855.23	-3.0236102e-05	661690.9	169270.69	-7.652409e-05	169269.95	661690.8	-7.853536e-05
0	0.5930619	0.5930625	-2.8646056e-11	0.020859648	0.020859648	0	163722.16	163722.31	-3.3589379e-06	661848.44	168438.97	-7.013583e-05	168438.22	661848.5	3.1828105e-05
0	0.59257525	0.5925758	-8.4758166e-11	0.020506121	0.020506121	0	163587.83	163587.97	-2.6408825e-05	662005.9	167600.34	-6.8625195e-05	167599.6	662005.9	-5.693448e-05
0	0.59208703	0.59208757	-4.133903e-11	0.020152563	0.020152563	0	163453.02	163453.19	-7.1087406e-06	662163.3	166759.38	-2.0280806e-05	166758.61	662163.25	-2.9251662e-05
0	0.59159744	0.5915979	-3.682105e-11	0.019798994	0.019798994	0	163317.88	163318.02	-1.2320708e-05	662319.8	165917.34	-7.964403e-05	165916.58	662319.8	1.0620348e-05
0	0.59110224	0.5911028	-1.1545133e-11	0.019445425	0.019445425	0	163181.16	163181.31	3.3765994e-06	662476.2	165067.69	-2.1827373e-05	165066.94	662476.25	2.295916e-05
0	0.5906073	0.5906078	-1.0402126e-10	0.019091865	0.019091865	0	163044.52	163044.66	-2.4641964e-05	662631.9	164219.05	-7.002571e-05	164218.28	662631.9	-7.708707e-05
0	0.5901084	0.590109	-5.0768334e-11	0.018738296	0.018738296	0	162906.8	162906.95	-1.1356201e-05	662787.2	163365.36	-4.51981e-05	163364.6	662787.25	-3.4960085e-05
0	0.5896045	0.589605	-9.171337e-11	0.018384779	0.018384779	0	162767.69	162767.83	-2.2969227e-05	662941.75	162505.22	-4.5836427e-05	162504.44	662941.75	-8.177161e-05
0	0.5891018	0.5891024	-5.5854567e-11	0.018031219	0.018031219	0	162628.9	162629.08	-1.8423734e-05	663096.5	161646.84	-1.6759042e-05	161646.1	663096.5	-6.26214e-05
0	0.5885943	0.58859485	-5.0907688e-11	0.017677676	0.017677676	0	162488.83	162488.97	-1.3942183e-05	663250.44	160782.44	-6.463524e-05	160781.7	663250.44	-4.4114204e-06
0	0.5880831	0.5880836	-9.884667e-11	0.017324107	0.017324107	0	162347.7	162347.84	-2.9798275e-05	663403.4	159913.75	-9.500046e-05	159912.98	663403.4	-5.877645e-05
0	0.5875694	0.58756995	-1.725812e-10	0.016970549	0.016970549	0	162205.89	162206.02	-5.2173593e-05	663556.94	159041	-0.000104904175	159040.27	663556.94	-0.00015843334
0	0.58705366	0.58705413	-7.424262e-11	0.016617034	0.016617034	0	162063.48	162063.62	-1.8069162e-05	663709.44	158166.44	-2.0661784e-05	158165.67	663709.4	-6.936467e-05
0	0.5865347	0.5865353	-5.477499e-12	0.016263476	0.016263476	0	161920.25	161920.39	-2.3192292e-06	663860.94	157288.47	2.2252667e-05	157287.7	663860.9	-6.206557e-05
0	0.5860122	0.5860127	-1.0525628e-10	0.01590991	0.01590991	0	161775.98	161776.12	-3.4024335e-05	664012.8	156404.97	-6.915094e-05	156404.22	664012.8	-9.036315e-05
0	0.5854868	0.58548737	-8.422797e-11	0.015556336	0.015556336	0	161630.95	161631.11	-2.2618822e-05	664163.7	155518.61	-5.081142e-05	155517.84	664163.7	-6.37257e-05
0	0.58495826	0.5849588	-5.4813445e-11	0.015202784	0.015202784	0	161485.05	161485.17	-1.26882915e-05	664313.8	154628.4	-1.0736832e-05	154627.66	664313.8	-5.9932612e-05
0	0.584426	0.58442646	-9.223903e-11	0.014849219	0.014849219	0	161338.1	161338.23	-2.3278184e-05	664463.4	153733.69	-5.314747e-05	153732.95	664463.4	-6.2765335e-05
0	0.58389336	0.58389384	-1.6169915e-10	0.014495703	0.014495703	0	161191.06	161191.2	-4.5710996e-05	664613.25	152838.23	-0.00015772092	152837.48	664613.2	-6.427237e-05
0	0.5833555	0.58335596	-1.5463716e-10	0.01414215	0.01414215	0	161042.58	161042.72	-4.893661e-05	664761.7	151936.69	-0.00014149479	151935.95	664761.75	-0.00011666551
0	0.58281446	0.58281493	-2.0100328e-11	0.013788582	0.013788582	0	160893.22	160893.36	-7.208116e-06	664910.4	151030.62	-6.340461e-05	151029.89	664910.3	2.1235688e-05
0	0.5822721	0.5822727	-1.075475e-10	0.013435014	0.013435014	0	160743.5	160743.64	-3.185753e-05	665057.56	150124.2	-6.0920527e-05	150123.48	665057.5	-0.00010778594
0	0.5817252	0.58172566	-6.987398e-11	0.01308146	0.01308146	0	160592.52	160592.64	-2.555187e-05	665204.6	149211.33	-8.4853775e-05	149210.58	665204.56	-3.4947967e-05
0	0.5811749	0.5811754	-2.6885383e-11	0.012727938	0.012727938	0	160440.61	160440.75	-6.4813225e-06	665351.4	148294.27	-7.144322e-05	148293.55	665351.4	2.1960877e-05
0	0.58062184	0.58062226	-8.2232554e-11	0.012374373	0.012374373	0	160287.89	160288.02	-1.8490937e-05	665497.06	147374.2	-0.0001151168	147373.45	665497.06	3.6952376e-06
0	0.5800656	0.580066	-1.2875824e-10	0.012020823	0.012020823	0	160134.36	160134.5	-3.0173715e-05	665642.1	146450.42	-7.574324e-05	146449.69	665642.06	-8.68864e-05
0	0.5795056	0.5795061	-8.7045454e-11	0.011667253	0.011667253	0	159979.78	159979.9	-2.25548e-05	665786.7	145521.94	-8.9060464e-05	145521.2	665786.6	-2.9434206e-05
0	0.57894343	0.5789439	-8.221365e-11	0.011313708	0.011313708	0	159824.56	159824.7	-2.6962898e-05	665930.5	144590.98	-0.00014842888	144590.23	665930.5	5.657143e-06
0	0.5783761	0.5783766	-5.5706616e-11	0.010960145	0.010960145	0	159667.95	159668.1	-1.4072118e-05	666074	143653.36	-3.511128e-05	143652.64	666074	-2.8552433e-05
0	0.57780695	0.5778074	-1.0079796e-10	0.010606605	0.010606605	0	159510.83	159510.97	-2.8611115e-05	666216.56	142713.92	-7.35921e-05	142713.19	666216.56	-6.261644e-05
0	0.57723457	0.5772351	-1.8151555e-10	0.010253061	0.010253061	0	159352.83	159352.95	-5.2558495e-05	666358.5	141770.61	-0.00012770845	141769.88	666358.56	-0.00011743911
0	0.57665855	0.5766591	-8.785012e-11	0.009899497	0.009899497	0	159193.83	159193.94	-2.202885e-05	666500	140822.73	-9.5281546e-05	140822.03	666500	-5.103418e-06
0	0.5760787	0.57607913	-2.9756704e-11	0.0095459325	0.0095459325	0	159033.73	159033.86	-7.868775e-06	666640.8	139870.17	-5.2004925e-05	139869.44	666640.6	1.2109607e-05
0	0.5754959	0.57549644	-1.2814716e-10	0.009192389	0.009192389	0	158872.84	158872.97	-4.538407e-05	666780.6	138914.48	-0.00014507474	138913.75	666780.5	-5.3748587e-05
0	0.5749093	0.5749098	-6.4468444e-11	0.008838838	0.008838838	0	158710.9	158711.05	-2.2683915e-05	666919.75	137954.06	-5.632291e-05	137953.34	666919.7	-4.9768245e-05
0	0.57431966	0.57432014	-9.126624e-12	0.008485274	0.008485274	0	158548.11	158548.23	-3.3936828e-06	667058.25	136989.92	-1.895596e-05	136989.2	667058.2	1.1046592e-05
0	0.57372606	0.5737265	-5.2063874e-11	0.008131738	0.008131738	0	158384.25	158384.39	-1.0514993e-05	667195.9	136021.28	-5.1134615e-05	136020.56	667195.8	-1.4623638e-05
0	0.5731294	0.57312983	6.482792e-11	0.007778168	0.007778168	0	158219.52	158219.66	2.2600412e-05	667333.06	135048.83	2.684273e-05	135048.11	667333	9.194733e-05
0	0.5725289	0.57252926	-7.508996e-11	0.0074246093	0.0074246093	0	158053.75	158053.88	-2.2016631e-05	667468.9	134072.27	-7.700619e-05	134071.56	667468.8	-5.6659308e-05
0	0.57192487	0.57192534	-4.4413053e-11	0.007071075	0.007071075	0	157887.02	157887.16	-1.7604725e-05	667604.5	133091	-6.186038e-05	133090.3	667604.4	-2.2717388e-05