//mumax 3.10 [windows_amd64 go1.11.6(gc) CUDA-11.0]
//GPU info: NVIDIA GeForce RTX 3090(24575MB), CUDA Driver 12.0, cc=8.6, using cc=80 PTX
//(c) Arne Vansteenkiste, Dynamat LAB, Ghent University, Belgium
//This is free software without any warranty. See license.txt
//********************************************************************//
//  If you use mumax in any work or publication,                      //
//  we kindly ask you to cite the references in references.bib        //
//********************************************************************//
//output directory: r1;p0.1;a3.2e-07;l1.8000000000000002e-07;s0.out/
randSeed(0)
ThermSeed(0)
resolution := 2e-09
zResolution := 5e-09
a := 3.2e-07
gridSize := 320
gridDepth := 5
SetCellsize(resolution, resolution, zResolution)
SetGridsize(gridSize, gridSize, gridDepth)
SetPBC(16, 16, 0)
//resizing...
Msat = 700e3
Aex = 13e-12
alpha = 0.2
Bmax := 0.1
Bstep := Bmax / 500.0
TableAdd(B_ext)
TableAdd(m_full)
islandWidth := 8e-08
islandLength := 1.8000000000000002e-07
ellipseConstant := 9.000000000000001e-09
hIsland := rect(islandLength-2*ellipseConstant, islandWidth)
hIsland = hIsland.add(ellipse(ellipseConstant*2, islandWidth).transl(islandLength/2-ellipseConstant, 0, 0))
hIsland = hIsland.add(ellipse(ellipseConstant*2, islandWidth).transl(-islandLength/2+ellipseConstant, 0, 0))
hIsland = hIsland.add(rect(1e-08, 5.9632412629398206e-09).transl(-4.948404229749172e-08, -4e-08, 0))
hIsland = hIsland.sub(rect(1e-08, -4.997415599867507e-10).transl(3.4607349194950094e-09, -4e-08, 0))
hIsland = hIsland.add(rect(1e-08, 1.727395244010095e-09).transl(-2.3890303336289125e-08, -4e-08, 0))
hIsland = hIsland.sub(rect(1e-08, -8.008609068449919e-09).transl(5.137958656153849e-08, -4e-08, 0))
hIsland = hIsland.add(rect(1e-08, 4.755669540459731e-09).transl(-5.52856205087024e-08, -4e-08, 0))
hIsland = hIsland.sub(rect(1e-08, -2.179719806964235e-09).transl(1.0974851915025717e-08, -4e-08, 0))
hIsland = hIsland.sub(rect(1e-08, -6.63411707938664e-11).transl(7.31532843828012e-08, -4e-08, 0))
hIsland = hIsland.sub(rect(1e-08, -2.2368363218878727e-09).transl(4.91767868503623e-09, -4e-08, 0))
hIsland = hIsland.add(rect(1e-08, 4.821042007980797e-09).transl(6.077665662506853e-08, -4e-08, 0))
hIsland = hIsland.sub(rect(1e-08, -3.6254717501582595e-09).transl(-1.7557465039787396e-08, -4e-08, 0))
hIsland = hIsland.add(rect(1e-08, 1.779780782205707e-09).transl(-6.961283212401641e-08, -4e-08, 0))
hIsland = hIsland.add(rect(1e-08, 4.881788948840763e-09).transl(7.644474596955986e-08, -4e-08, 0))
hIsland = hIsland.sub(rect(1e-08, -6.589773345900743e-09).transl(2.648502883301754e-08, -4e-08, 0))
hIsland = hIsland.sub(rect(1e-08, -3.5833042284530134e-10).transl(4.211909303535066e-08, -4e-08, 0))
hIsland = hIsland.add(rect(1e-08, 2.2852305217790217e-09).transl(1.2088838172503624e-09, -4e-08, 0))
hIsland = hIsland.sub(rect(1e-08, -3.34618580538273e-09).transl(2.0090928645914643e-08, -4e-08, 0))
hIsland = hIsland.sub(rect(1e-08, -3.1559163553787912e-09).transl(-7.629238246051227e-08, -4e-08, 0))
hIsland = hIsland.sub(rect(1e-08, -1.1425455070165692e-09).transl(7.295313879037365e-08, -4e-08, 0))
hIsland = hIsland.sub(rect(1e-08, -3.71807456419878e-09).transl(-8.01724303896216e-08, -4e-08, 0))
hIsland = hIsland.add(rect(1e-08, 5.576248956627738e-09).transl(-5.059918875500852e-08, -4e-08, 0))
hIsland = hIsland.add(rect(1e-08, 5.915536764660682e-09).transl(8.341370924965085e-08, -3.8534642463510893e-08, 0))
hIsland = hIsland.add(rect(1e-08, 5.440892483861655e-10).transl(8.200332748206857e-08, -3.975066337546644e-08, 0))
hIsland = hIsland.sub(rect(1e-08, -5.702464263365242e-09).transl(-7.711822254123661e-09, -4e-08, 0))
hIsland = hIsland.sub(rect(1e-08, -3.2599367168986634e-09).transl(-6.38401344174973e-08, -4e-08, 0))
hIsland = hIsland.add(rect(1e-08, 3.574921458701623e-09).transl(-7.621809075222452e-08, -4e-08, 0))
hIsland = hIsland.add(rect(1e-08, 1.8386104404042395e-09).transl(-4.808328718273442e-09, -4e-08, 0))
hIsland = hIsland.add(rect(1e-08, 2.908081032727047e-09).transl(-5.9465398055518217e-08, -4e-08, 0))
hIsland = hIsland.add(rect(1e-08, 7.814677689450872e-09).transl(7.250702616171332e-08, -4e-08, 0))
hIsland = hIsland.add(rect(1e-08, 9.167961889879089e-09).transl(-6.621161483834727e-08, -4e-08, 0))
hIsland = hIsland.add(rect(1e-08, 1.9540182217826555e-09).transl(-5.768404204710649e-08, -4e-08, 0))
hIsland = hIsland.add(rect(1e-08, 9.40862604973674e-11).transl(6.041687085232736e-08, -4e-08, 0))
hIsland = hIsland.add(rect(1e-08, 1.5506507686524497e-09).transl(-9.798104557685896e-09, -4e-08, 0))
hIsland = hIsland.sub(rect(1e-08, -5.6512749309973076e-09).transl(3.543887907416826e-08, -4e-08, 0))
hIsland = hIsland.add(rect(1e-08, 1.9808091916194044e-09).transl(-4.7141683082494115e-08, -4e-08, 0))
hIsland = hIsland.sub(rect(1e-08, -5.89355257812316e-09).transl(4.1769985837499785e-08, -4e-08, 0))
hIsland = hIsland.sub(rect(1e-08, -1.4352449049395086e-09).transl(-8.307744284099711e-08, -3.891979248098912e-08, 0))
hIsland = hIsland.sub(rect(1e-08, -3.517483871148262e-09).transl(5.891902398575641e-08, -4e-08, 0))
hIsland = hIsland.add(rect(1e-08, 7.411231486641988e-09).transl(-7.28092969037686e-08, -4e-08, 0))
hIsland = hIsland.add(rect(1e-08, 6.4162451087482544e-09).transl(-8.1030933890666e-08, -3.999976372631657e-08, 0))
hIsland = hIsland.add(rect(1e-08, 3.563435450975959e-10).transl(-3.441333862460209e-08, -4e-08, 0))
hIsland = hIsland.add(rect(1e-08, 3.156598969593901e-09).transl(5.7192218346423634e-08, -4e-08, 0))
hIsland = hIsland.sub(rect(1e-08, -2.3924682278225586e-09).transl(1.159368287106031e-08, -4e-08, 0))
hIsland = hIsland.sub(rect(1e-08, -2.683902900705973e-09).transl(5.248340140141588e-08, -4e-08, 0))
hIsland = hIsland.add(rect(1e-08, 4.5212300420086215e-09).transl(6.822052115250979e-09, -4e-08, 0))
hIsland = hIsland.sub(rect(1e-08, -2.8848290414170265e-10).transl(5.136639569925356e-08, -4e-08, 0))
hIsland = hIsland.sub(rect(1e-08, -5.6023695800704635e-09).transl(-7.268487047235906e-08, -4e-08, 0))
hIsland = hIsland.add(rect(1e-08, 1.7220280020046183e-09).transl(-1.557751834459968e-08, -4e-08, 0))
hIsland = hIsland.sub(rect(1e-08, -4.2953013206033815e-09).transl(-8.146568464201425e-08, -3.9946417893254956e-08, 0))
hIsland = hIsland.add(rect(1e-08, 3.2513335242889453e-09).transl(-5.435018215514038e-08, -4e-08, 0))
hIsland = hIsland.sub(rect(1e-08, -6.9281060578389855e-09).transl(3.756742344895235e-08, -4e-08, 0))
hIsland = hIsland.add(rect(1e-08, 8.108591966660048e-09).transl(3.511147362163642e-08, -4e-08, 0))
hIsland = hIsland.sub(rect(1e-08, -5.9720508305137474e-09).transl(8.793496006614786e-08, -2.5495128125622717e-08, 0))
hIsland = hIsland.sub(rect(1e-08, -1.1158389995270297e-08).transl(-1.6740477372353446e-08, -4e-08, 0))
hIsland = hIsland.sub(rect(1e-08, -4.5813538915435036e-09).transl(6.9421062437859e-09, -4e-08, 0))
hIsland = hIsland.add(rect(1e-08, 2.2421975388705343e-09).transl(6.596550941815813e-09, -4e-08, 0))
hIsland = hIsland.sub(rect(1e-08, -5.46521758927349e-10).transl(7.371915537164082e-08, -4e-08, 0))
hIsland = hIsland.add(rect(1e-08, 2.379140510166058e-09).transl(-2.0809296539152895e-08, -4e-08, 0))
hIsland = hIsland.add(rect(1e-08, 7.2702440760622955e-09).transl(-2.109881028463594e-08, -4e-08, 0))
hIsland = hIsland.sub(rect(1e-08, -2.6154202519280973e-09).transl(-6.731847597051116e-08, -4e-08, 0))
hIsland = hIsland.add(rect(1e-08, 7.494473649981584e-09).transl(-7.962331109978173e-08, -4e-08, 0))
hIsland = hIsland.add(rect(1e-08, 5.1422850539582715e-09).transl(-6.412798349894208e-08, -4e-08, 0))
hIsland = hIsland.add(rect(1e-08, 2.6334724213107033e-09).transl(-7.197806441045138e-08, -4e-08, 0))
hIsland = hIsland.sub(rect(1e-08, -2.989466174019938e-09).transl(3.97714248661442e-08, -4e-08, 0))
hIsland = hIsland.add(rect(1e-08, 8.839146730870956e-09).transl(4.389591162660515e-09, -4e-08, 0))
hIsland = hIsland.add(rect(1e-08, 3.961098407495422e-09).transl(-7.319480663830539e-08, -4e-08, 0))
hIsland = hIsland.sub(rect(1e-08, -3.7961217192186034e-11).transl(-2.8053275065331146e-08, -4e-08, 0))
hIsland = hIsland.sub(rect(1e-08, -1.2667403496113122e-09).transl(-5.500906247511987e-08, -4e-08, 0))
hIsland = hIsland.sub(rect(1e-08, -2.807880220046452e-09).transl(8.263743829062841e-08, -3.933240321420895e-08, 0))
hIsland = hIsland.sub(rect(1e-08, -2.2703022418913364e-09).transl(2.262379316825343e-08, -4e-08, 0))
hIsland = hIsland.add(rect(1e-08, 8.705432141744441e-10).transl(5.9052799175222667e-08, -4e-08, 0))
hIsland = hIsland.add(rect(1e-08, 1.7877580545988533e-09).transl(-4.627165724591141e-08, -4e-08, 0))
hIsland = hIsland.add(rect(1e-08, 4.2683302674009167e-10).transl(-3.6024400846879185e-08, -4e-08, 0))
hIsland = hIsland.sub(rect(1e-08, -7.869063134068095e-09).transl(3.8723743258115705e-09, -4e-08, 0))
hIsland = hIsland.add(rect(1e-08, 4.2635200158260945e-09).transl(-4.03990662870394e-08, -4e-08, 0))
hIsland = hIsland.sub(rect(1e-08, -2.179815291672002e-10).transl(6.418403731912976e-08, -4e-08, 0))
hIsland = hIsland.sub(rect(1e-08, -1.4789593906891068e-09).transl(3.011428550066172e-08, -4e-08, 0))
hIsland = hIsland.add(rect(1e-08, 1.751680136257344e-09).transl(-6.944171831355221e-08, -4e-08, 0))
hIsland = hIsland.sub(rect(1e-08, -4.069729781117011e-09).transl(-5.339039176123938e-08, -4e-08, 0))
hIsland = hIsland.add(rect(1e-08, 1.6052762386823417e-09).transl(-7.742016923822719e-08, -4e-08, 0))
hIsland = hIsland.add(rect(1e-08, 1.3355766617229447e-09).transl(3.984002383544577e-09, -4e-08, 0))
hIsland = hIsland.sub(rect(1e-08, -2.15932680108397e-09).transl(-4.052649180806111e-08, -4e-08, 0))
hIsland = hIsland.sub(rect(1e-08, -2.779601072903991e-09).transl(4.02100602692539e-08, -4e-08, 0))
hIsland = hIsland.sub(rect(1e-08, -6.512818563487612e-12).transl(-8.45049688114471e-09, -4e-08, 0))
hIsland = hIsland.add(rect(1e-08, 2.260661496913322e-09).transl(-1.6338169077828353e-08, -4e-08, 0))
hIsland = hIsland.sub(rect(1e-08, -2.2145978871741923e-09).transl(-7.888374779231559e-08, -4e-08, 0))
hIsland = hIsland.add(rect(1e-08, 2.1020124991755208e-09).transl(-2.2837730057160214e-08, -4e-08, 0))
hIsland = hIsland.add(rect(1e-08, 9.252532434799062e-09).transl(-6.445110403072545e-08, -4e-08, 0))
hIsland = hIsland.add(rect(1e-08, 3.2272175935161394e-09).transl(6.750462547782064e-08, -4e-08, 0))
hIsland = hIsland.add(rect(1e-08, 4.7336173620520985e-09).transl(-7.490865423913862e-09, -4e-08, 0))
hIsland = hIsland.sub(rect(1e-08, -1.9362230953807235e-09).transl(2.0303313993816005e-08, -4e-08, 0))
hIsland = hIsland.add(rect(1e-08, 1.2194930326958587e-09).transl(-5.86876165617721e-08, -4e-08, 0))
hIsland = hIsland.add(rect(1e-08, 7.360202447850417e-09).transl(6.089203479519091e-08, -4e-08, 0))
hIsland = hIsland.add(rect(1e-08, 2.1627303915777224e-09).transl(5.48182534011237e-08, -4e-08, 0))
hIsland = hIsland.add(rect(1e-08, 3.794807830339875e-09).transl(-3.5001461432574275e-08, -4e-08, 0))
hIsland = hIsland.sub(rect(1e-08, -8.6343081914653e-10).transl(-1.5482941007853482e-08, -4e-08, 0))
hIsland = hIsland.sub(rect(1e-08, -8.459358704229163e-10).transl(8.140449704197184e-08, -3.995958010704787e-08, 0))
hIsland = hIsland.add(rect(1e-08, 3.8797816899455135e-09).transl(4.784037602590708e-08, -4e-08, 0))
hIsland = hIsland.add(rect(1e-08, 3.0138266239904578e-09).transl(-1.2610857894409356e-08, -4e-08, 0))
hIsland = hIsland.add(rect(1e-08, 4.77479220731305e-09).transl(5.671081255945678e-08, -4e-08, 0))
hIsland = hIsland.sub(rect(1e-08, -2.3122010071245094e-09).transl(8.327735875911997e-08, -3.869823413389391e-08, 0))
hIsland = hIsland.add(rect(1e-08, 3.4064030753498985e-09).transl(-8.713161952234784e-08, 2.928050530265024e-08, 0))
hIsland = hIsland.sub(rect(1e-08, -2.614774633372392e-09).transl(2.99581904190982e-08, 4e-08, 0))
hIsland = hIsland.sub(rect(1e-08, -4.3002242762432165e-09).transl(3.746492229001456e-08, 4e-08, 0))
hIsland = hIsland.sub(rect(1e-08, -1.2903532408964156e-09).transl(-2.945845183612432e-08, 4e-08, 0))
hIsland = hIsland.sub(rect(1e-08, -2.2714198266263193e-09).transl(-3.602080771151828e-08, 4e-08, 0))
hIsland = hIsland.add(rect(1e-08, 4.129525781980754e-09).transl(3.003687822556178e-08, 4e-08, 0))
hIsland = hIsland.add(rect(1e-08, 1.704823558188226e-09).transl(7.091531692529398e-08, 4e-08, 0))
hIsland = hIsland.add(rect(1e-08, 4.253334020750551e-09).transl(-2.9851469633620615e-08, 4e-08, 0))
hIsland = hIsland.sub(rect(1e-08, -4.9201772984305115e-09).transl(1.680453248057123e-08, 4e-08, 0))
hIsland = hIsland.add(rect(1e-08, 2.8014613143467006e-11).transl(-8.314627195987617e-08, 3.8845948782019674e-08, 0))
hIsland = hIsland.sub(rect(1e-08, -6.355911779015021e-09).transl(4.778314915186661e-08, 4e-08, 0))
hIsland = hIsland.sub(rect(1e-08, -2.2786109050527324e-09).transl(6.538392025727779e-08, 4e-08, 0))
hIsland = hIsland.add(rect(1e-08, 3.0435832648698017e-09).transl(3.1798968240410286e-08, 4e-08, 0))
hIsland = hIsland.sub(rect(1e-08, -3.6240369563183836e-09).transl(-8.632377762610032e-08, 3.225129471236583e-08, 0))
hIsland = hIsland.add(rect(1e-08, 4.065707488218632e-10).transl(4.8906696987486215e-08, 4e-08, 0))
hIsland = hIsland.add(rect(1e-08, 1.6269953631457425e-09).transl(7.981579547518051e-08, 4e-08, 0))
hIsland = hIsland.sub(rect(1e-08, -2.850742765789901e-09).transl(1.596853423711146e-08, 4e-08, 0))
hIsland = hIsland.add(rect(1e-08, 3.655417557299391e-09).transl(7.930902164286122e-08, 4e-08, 0))
hIsland = hIsland.sub(rect(1e-08, -6.9912459080845334e-09).transl(7.058327615766249e-08, 4e-08, 0))
hIsland = hIsland.sub(rect(1e-08, -9.702049945071302e-09).transl(3.642108729003232e-08, 4e-08, 0))
hIsland = hIsland.sub(rect(1e-08, -1.3165697276449572e-09).transl(-2.175439705525615e-08, 4e-08, 0))
hIsland = hIsland.add(rect(1e-08, 7.57596169785934e-11).transl(7.407398173549479e-08, 4e-08, 0))
hIsland = hIsland.add(rect(1e-08, 1.781385153802901e-10).transl(-5.849900217646153e-08, 4e-08, 0))
hIsland = hIsland.add(rect(1e-08, 3.554505966469993e-09).transl(-6.843808988189193e-08, 4e-08, 0))
hIsland = hIsland.sub(rect(1e-08, -6.490136223358919e-09).transl(8.736956878150536e-08, 2.8259325929305472e-08, 0))
hIsland = hIsland.add(rect(1e-08, 5.83187059919758e-10).transl(-2.604472824305085e-08, 4e-08, 0))
hIsland = hIsland.add(rect(1e-08, 4.85743588954816e-09).transl(-3.081598834011757e-08, 4e-08, 0))
hIsland = hIsland.add(rect(1e-08, 3.9250039510057957e-10).transl(-2.9700337000806534e-08, 4e-08, 0))
hIsland = hIsland.add(rect(1e-08, 6.5903346296157705e-09).transl(-6.037825429568486e-08, 4e-08, 0))
hIsland = hIsland.sub(rect(1e-08, -1.0545009497581642e-08).transl(8.113509401182536e-08, 3.999549347650327e-08, 0))
hIsland = hIsland.sub(rect(1e-08, -1.2488334677553003e-09).transl(3.620955335429318e-08, 4e-08, 0))
hIsland = hIsland.add(rect(1e-08, 6.153790340624848e-09).transl(-7.500400883482594e-08, 4e-08, 0))
hIsland = hIsland.sub(rect(1e-08, -3.470238407629468e-09).transl(-8.83291981385817e-08, 2.3214663159054462e-08, 0))
hIsland = hIsland.add(rect(1e-08, 3.0880437130355004e-09).transl(2.2736165382897593e-08, 4e-08, 0))
hIsland = hIsland.add(rect(1e-08, 1.410906703738709e-10).transl(7.84244364523439e-08, 4e-08, 0))
hIsland = hIsland.add(rect(1e-08, 3.346643426576433e-09).transl(-4.895137564108789e-08, 4e-08, 0))
hIsland = hIsland.add(rect(1e-08, 1.4906369401869526e-10).transl(4.0357247600989614e-08, 4e-08, 0))
hIsland = hIsland.sub(rect(1e-08, -1.519001358072741e-09).transl(3.4335238805578135e-08, 4e-08, 0))
hIsland = hIsland.add(rect(1e-08, 4.940535638991584e-10).transl(6.866010554500481e-08, 4e-08, 0))
hIsland = hIsland.add(rect(1e-08, 1.375456128729803e-09).transl(-6.356143640532733e-08, 4e-08, 0))
hIsland = hIsland.sub(rect(1e-08, -1.1682510630566703e-09).transl(-4.541008600504674e-08, 4e-08, 0))
hIsland = hIsland.add(rect(1e-08, 3.218956804672246e-09).transl(6.562825895240029e-08, 4e-08, 0))
hIsland = hIsland.add(rect(1e-08, 4.140889866690009e-09).transl(-7.280472075280642e-08, 4e-08, 0))
hIsland = hIsland.sub(rect(1e-08, -1.4228296414453033e-09).transl(-6.237771094652979e-08, 4e-08, 0))
hIsland = hIsland.add(rect(1e-08, 1.7536613648292442e-09).transl(3.306087082014914e-08, 4e-08, 0))
hIsland = hIsland.sub(rect(1e-08, -7.153449413813204e-09).transl(-7.555260469775147e-09, 4e-08, 0))
hIsland = hIsland.add(rect(1e-08, 8.138168280819777e-10).transl(-6.005343163120812e-08, 4e-08, 0))
hIsland = hIsland.sub(rect(1e-08, -1.548486637038184e-10).transl(8.733260017921588e-08, 2.8422969313505028e-08, 0))
hIsland = hIsland.sub(rect(1e-08, -3.880564482115691e-09).transl(3.8431032086984294e-08, 4e-08, 0))
hIsland = hIsland.sub(rect(1e-08, -1.9014928228732267e-09).transl(-9.893961124634744e-09, 4e-08, 0))
hIsland = hIsland.sub(rect(1e-08, -4.941864940829457e-10).transl(-5.47082247127614e-08, 4e-08, 0))
hIsland = hIsland.add(rect(1e-08, 4.4449776382375394e-09).transl(-4.362737783383982e-08, 4e-08, 0))
hIsland = hIsland.sub(rect(1e-08, -2.380429928099731e-09).transl(1.0434775137088992e-08, 4e-08, 0))
hIsland = hIsland.sub(rect(1e-08, -2.194376651004638e-09).transl(8.88199021989987e-08, 1.98010497779299e-08, 0))
hIsland = hIsland.add(rect(1e-08, 7.528581769007246e-09).transl(8.467212992822582e-08, 3.6519019036824056e-08, 0))
hIsland = hIsland.add(rect(1e-08, 4.128583128542691e-09).transl(8.360697864868839e-08, 3.8285132291445585e-08, 0))
hIsland = hIsland.add(rect(1e-08, 1.464323532479232e-09).transl(5.301331324501635e-08, 4e-08, 0))
hIsland = hIsland.add(rect(1e-08, 1.6564112387084848e-10).transl(6.1773906456866e-09, 4e-08, 0))
hIsland = hIsland.add(rect(1e-08, 3.815724716666723e-09).transl(1.3637381639155773e-08, 4e-08, 0))
hIsland = hIsland.add(rect(1e-08, 2.5545451348119798e-09).transl(-8.299201885070495e-08, 3.900790952359802e-08, 0))
hIsland = hIsland.add(rect(1e-08, 4.360841962927106e-09).transl(1.0701277757226527e-08, 4e-08, 0))
hIsland = hIsland.add(rect(1e-08, 4.28633259224729e-09).transl(1.2088340790626639e-08, 4e-08, 0))
hIsland = hIsland.add(rect(1e-08, 4.934126976766582e-10).transl(1.3865302364325053e-09, 4e-08, 0))
hIsland = hIsland.add(rect(1e-08, 1.5807481737614943e-09).transl(-2.857682113510066e-08, 4e-08, 0))
hIsland = hIsland.add(rect(1e-08, 1.220181120910894e-09).transl(-7.471553895560188e-09, 4e-08, 0))
hIsland = hIsland.sub(rect(1e-08, -5.2338581709860504e-09).transl(5.818852291016605e-08, 4e-08, 0))
hIsland = hIsland.sub(rect(1e-08, -7.147239806305293e-09).transl(-6.787354765198937e-08, 4e-08, 0))
hIsland = hIsland.sub(rect(1e-08, -3.471410628581957e-09).transl(6.231000098739166e-08, 4e-08, 0))
hIsland = hIsland.add(rect(1e-08, 4.038706433485259e-09).transl(4.3185835015560694e-08, 4e-08, 0))
hIsland = hIsland.sub(rect(1e-08, -2.200081845053375e-10).transl(8.444243508256898e-08, 3.695833909535675e-08, 0))
hIsland = hIsland.sub(rect(1e-08, -5.192343876724489e-09).transl(2.6505470628728147e-08, 4e-08, 0))
hIsland = hIsland.add(rect(1e-08, 2.532204575623252e-09).transl(8.662980740980573e-08, 3.12078712858235e-08, 0))
hIsland = hIsland.sub(rect(1e-08, -6.050923156609938e-09).transl(6.477514135855149e-08, 4e-08, 0))
hIsland = hIsland.sub(rect(1e-08, -1.0227068489473192e-08).transl(3.830300930953337e-08, 4e-08, 0))
hIsland = hIsland.sub(rect(1e-08, -7.44949878944803e-10).transl(6.160663713615103e-08, 4e-08, 0))
hIsland = hIsland.add(rect(1e-08, 2.4072661370779872e-09).transl(-2.8618344785666048e-08, 4e-08, 0))
hIsland = hIsland.add(rect(1e-08, 6.931495775643709e-09).transl(-3.540990087351581e-08, 4e-08, 0))
hIsland = hIsland.add(rect(1e-08, 7.354809384788472e-10).transl(6.817564233810608e-08, 4e-08, 0))
hIsland = hIsland.add(rect(1e-08, 2.056201974050446e-09).transl(3.395343057423843e-08, 4e-08, 0))
hIsland = hIsland.sub(rect(1e-08, -1.3755326085097673e-09).transl(-7.011919816037724e-08, 4e-08, 0))
hIsland = hIsland.sub(rect(1e-08, -5.210239093404299e-10).transl(-1.9644273103391103e-08, 4e-08, 0))
hIsland = hIsland.add(rect(1e-08, 6.208672182243798e-10).transl(8.524759690099489e-08, 3.526490104567373e-08, 0))
hIsland = hIsland.sub(rect(1e-08, -6.001080379444717e-09).transl(-2.9001029074967017e-08, 4e-08, 0))
hIsland = hIsland.sub(rect(1e-08, -3.839645606668559e-09).transl(7.248083022302419e-08, 4e-08, 0))
hIsland = hIsland.sub(rect(1e-08, -3.943219290153193e-10).transl(8.546471205629388e-09, 4e-08, 0))
hIsland = hIsland.add(rect(1e-08, 3.941355010673207e-09).transl(3.0063247201872534e-08, 4e-08, 0))
hIsland = hIsland.sub(rect(1e-08, -2.714300908336917e-09).transl(-7.184676320137939e-09, 4e-08, 0))
hIsland = hIsland.sub(rect(1e-08, -3.4502228627948733e-09).transl(4.4979571621207586e-08, 4e-08, 0))
hIsland = hIsland.sub(rect(1e-08, -1.7319034150327543e-09).transl(1.3511249821150014e-08, 4e-08, 0))
hIsland = hIsland.add(rect(1e-08, 5.328371847756205e-11).transl(8.757497506915365e-08, 2.7314249106410978e-08, 0))
hIsland = hIsland.add(rect(1e-08, 1.4388627035866698e-09).transl(2.5091117698972565e-08, 4e-08, 0))
hIsland = hIsland.add(rect(1e-08, 2.7340196302005887e-09).transl(-2.101410743640949e-08, 4e-08, 0))
hIsland = hIsland.add(rect(1e-08, 3.2142744864783727e-09).transl(8.117747514551218e-08, 3.9992222101266716e-08, 0))
hIsland = hIsland.add(rect(1e-08, 1.8197459169485583e-09).transl(1.4814175124274254e-08, 4e-08, 0))
hIsland = hIsland.add(rect(1e-08, 7.514040333612135e-09).transl(3.6270908345314585e-08, 4e-08, 0))
hIsland = hIsland.sub(rect(1e-08, -2.6911298188704406e-09).transl(-6.089844564354585e-08, 4e-08, 0))
hIsland = hIsland.sub(rect(1e-08, -7.006424223665728e-09).transl(-8.30098777783206e-08, 3.898980970160244e-08, 0))
hIsland = hIsland.add(rect(1e-08, 3.157772728522233e-09).transl(8.75364780132043e-08, 2.7496156474982623e-08, 0))
hIsland = hIsland.add(rect(1e-08, 1.3735985738402277e-09).transl(-5.870873138320035e-08, 4e-08, 0))
hIsland = hIsland.sub(rect(1e-08, -1.555281547486074e-09).transl(6.604108651897221e-08, 4e-08, 0))
vIsland := hIsland.rotz(pi / 2)
vIslands := Universe().Inverse()
hIslands := Universe().Inverse()
hIslands = hIslands.add(hIsland.transl(-a/2, a, 0))
hIslands = hIslands.add(hIsland.transl(-a/2, -a, 0))
hIslands = hIslands.add(hIsland.transl(a/2, a, 0))
hIslands = hIslands.add(hIsland.transl(a/2, -a, 0))
hIslands = hIslands.add(hIsland.transl(-a/2, 0, 0))
hIslands = hIslands.add(hIsland.transl(a/2, 0, 0))
vIslands = vIslands.add(vIsland.transl(-a, a/2, 0))
vIslands = vIslands.add(vIsland.transl(a, a/2, 0))
vIslands = vIslands.add(vIsland.transl(-a, -a/2, 0))
vIslands = vIslands.add(vIsland.transl(a, -a/2, 0))
vIslands = vIslands.add(vIsland.transl(0, a/2, 0))
vIslands = vIslands.add(vIsland.transl(0, -a/2, 0))
DefRegion(1, hIslands)
DefRegion(2, vIslands)
TableAdd(m_full.Region(1))
TableAdd(m_full.Region(2))
setgeom(hIslands.add(vIslands))
save(m)
r2o2 := sqrt(2) / 2
m = RandomMagSeed(4)
B_ext = vector(Bmax*r2o2, Bmax*r2o2, 0)
relax()
minimize()
for B := Bmax; B >= -Bmax; B -= Bstep {
	B_ext = vector(B*r2o2, B*r2o2, 0)
	minimize()
	tablesave()
}
//********************************************************************//
//Please cite the following references, relevant for your simulation. //
//See bibtex file in output folder for justification.                 //
//********************************************************************//
//   * Vansteenkiste et al., AIP Adv. 4, 107133 (2014).
//   * Exl et al., J. Appl. Phys. 115, 17D118 (2014).
