# t (s)	mx ()	my ()	mz ()	B_extx (T)	B_exty (T)	B_extz (T)	m_fullx (A/m)	m_fully (A/m)	m_fullz (A/m)	m_full.region1x (A/m)	m_full.region1y (A/m)	m_full.region1z (A/m)	m_full.region2x (A/m)	m_full.region2y (A/m)	m_full.region2z (A/m)
0	0.64571524	0.6457128	-7.6959883e-10	0.07071087	0.07071087	0	68613.7	68613.445	-8.1875e-05	649673	254325.89	-0.0005609766	254328.4	649672	-0.00056406454
0	0.6456022	0.64559895	-2.5915062e-10	0.07056911	0.070569105	0	68601.695	68601.34	-2.5625e-05	649774.6	254065.33	-0.00013586956	254068.56	649773.2	-0.00022233202
0	0.64548534	0.645482	-2.9056282e-10	0.07042788	0.07042789	0	68589.27	68588.914	-3.5625e-05	649879.9	253796.34	-0.00020174572	253799.62	649878.5	-0.0002346838
0	0.64536697	0.6453636	-4.2013815e-10	0.07028653	0.07028653	0	68576.69	68576.34	-4.0625e-05	649986.06	253524.42	-0.00027173912	253527.73	649984.7	-0.0003046772
0	0.6452491	0.64524585	-4.633299e-10	0.070144884	0.070144884	0	68564.17	68563.83	-4.5e-05	650091.5	253253.92	-0.0003952569	253257.22	650090.25	-0.00024703558
0	0.64513034	0.64512694	-4.3977078e-10	0.07000352	0.07000352	0	68551.54	68551.19	-4.625e-05	650197.8	252981.22	-0.00035408433	252984.55	650196.5	-0.00024291831
0	0.64500976	0.6450065	-6.2824396e-10	0.06986229	0.06986229	0	68538.74	68538.375	-6.3125e-05	650304.9	252705.4	-0.0004786314	252708.73	650303.7	-0.0003664361
0	0.6448925	0.6448892	-2.8270977e-10	0.069720544	0.069720544	0	68526.28	68525.93	-3e-05	650409.6	252436.6	-0.00021512681	252439.95	650408.3	-0.00016469038
0	0.6447729	0.6447695	-4.1621162e-10	0.069579184	0.06957919	0	68513.57	68513.22	-4.125e-05	650515.94	252162.77	-0.0003324687	252166.1	650514.56	-0.00023880105
0	0.6446534	0.64465004	-4.5547685e-10	0.069437966	0.069437966	0	68500.875	68500.51	-5.125e-05	650621.94	251889.48	-0.00036231885	251892.8	650620.7	-0.00032114625
0	0.6445335	0.64453024	-3.14122e-11	0.069296576	0.069296576	0	68488.14	68487.77	-2.5e-06	650728	251615.61	-9.160903e-05	251618.95	650726.6	1.2351778e-05
0	0.6444128	0.6444095	-6.007583e-10	0.06915496	0.06915496	0	68475.305	68474.945	-6.8125e-05	650834.56	251340.06	-0.00047245555	251343.39	650833.2	-0.00043642952
0	0.64429194	0.64428854	-4.2406467e-10	0.069013596	0.069013596	0	68462.45	68462.11	-4.375e-05	650941.2	251064.08	-0.00041893116	251067.4	650939.9	-0.00020174572
0	0.6441711	0.6441678	-6.5965616e-10	0.068872236	0.068872236	0	68449.625	68449.27	-6.625e-05	651047.6	250788.64	-0.00043231226	250792.02	651046.1	-0.00048583662
0	0.64404935	0.64404595	-5.889787e-10	0.06873064	0.06873064	0	68436.68	68436.32	-6.25e-05	651154.4	250511.38	-0.00048583662	250514.73	651152.94	-0.00038290513
0	0.64392763	0.64392424	7.85305e-12	0.06858927	0.06858927	0	68423.75	68423.39	2.1875e-06	651261.3	250234.03	1.029315e-06	250237.39	651259.94	1.2351778e-05
0	0.643806	0.64380264	-4.3977078e-10	0.06844801	0.068448015	0	68410.82	68410.47	-4.625e-05	651367.6	249957.39	-0.0003458498	249960.75	651366.3	-0.00032114625
0	0.64368373	0.64368033	-2.3559148e-11	0.06830664	0.06830665	0	68397.83	68397.48	-6.25e-07	651474.4	249679.48	0	249682.86	651473	-2.0586298e-05
0	0.6435609	0.6435575	-3.533872e-10	0.06816504	0.06816504	0	68384.78	68384.42	-4.34375e-05	651581.4	249400.61	-0.00032011693	249403.98	651580	-0.00027173912
0	0.64343774	0.6434343	-1.8847318e-10	0.068023674	0.068023674	0	68371.695	68371.336	-2.125e-05	651688.5	249120.9	-0.000121459154	249124.27	651687	-0.00018939393
0	0.64331436	0.643311	-7.8530495e-11	0.06788232	0.06788232	0	68358.586	68358.22	-5e-06	651795.56	248841.19	-2.4703557e-05	248844.56	651794.2	-8.23452e-06
0	0.6431908	0.64318734	-4.2406467e-10	0.067740716	0.06774072	0	68345.45	68345.09	-4.5e-05	651902.4	248561.36	-0.00026762186	248564.73	651900.94	-0.00029232542
0	0.6430672	0.64306384	-3.2982808e-10	0.06759932	0.06759932	0	68332.32	68331.95	-3.75e-05	652009.25	248281.34	-0.00021100955	248284.72	652008	-0.00026762186
0	0.6429426	0.64293927	-5.61493e-10	0.06745809	0.06745809	0	68319.086	68318.73	-5.96875e-05	652116.8	247999.52	-0.0004076087	248002.94	652115.44	-0.00041172595
0	0.6428181	0.64281476	-4.3977078e-10	0.067316726	0.067316726	0	68305.85	68305.48	-4.5625e-05	652224	247717.9	-0.00035305502	247721.3	652222.7	-0.00023880105
0	0.64269316	0.6426898	-2.512976e-10	0.067174986	0.067174986	0	68292.586	68292.22	-2.5e-05	652331.25	247435.83	-0.00013484024	247439.22	652329.9	-0.00022233202
0	0.64256805	0.64256465	-5.104482e-10	0.06703377	0.06703377	0	68279.28	68278.92	-5.4375e-05	652438.5	247153.36	-0.0003582016	247156.77	652437.1	-0.0003952569
0	0.642442	0.64243853	-7.8530495e-11	0.066892385	0.066892385	0	68265.89	68265.52	-5.9375e-06	652546.4	246869.02	-0.000118371216	246872.45	652545	1.646904e-05
0	0.6423166	0.6423132	-1.6884057e-10	0.06675076	0.066750765	0	68252.56	68252.2	-1.875e-05	652653.5	246586.33	-0.00011322464	246589.75	652652.1	-0.00011528327
0	0.64218974	0.6421864	-4.4762383e-10	0.0666094	0.0666094	0	68239.086	68238.73	-4.90625e-05	652761.56	246300.78	-0.0003870224	246304.19	652760.1	-0.00023056654
0	0.6420633	0.64205986	-8.559824e-10	0.06646816	0.066468164	0	68225.66	68225.28	-9.0625e-05	652869	246016.23	-0.00068552373	246019.66	652867.7	-0.00061347167
0	0.6419367	0.64193326	-1.09942694e-10	0.06632643	0.06632643	0	68212.195	68211.836	-1e-05	652976.44	245731.5	-8.543314e-05	245734.9	652975.1	-3.7055335e-05
0	0.64180857	0.64180523	-4.0050552e-10	0.06618507	0.06618507	0	68198.586	68198.22	-3.71875e-05	653084.8	245443.77	-0.0003046772	245447.22	653083.5	-0.00023056654
0	0.6416818	0.64167833	-1.2957531e-10	0.06604384	0.06604385	0	68185.11	68184.75	-1.40625e-05	653192.1	245158.92	-1.9556983e-05	245162.36	653190.75	-0.00011528327
0	0.64155334	0.64154994	-5.1830124e-10	0.065902434	0.065902434	0	68171.46	68171.09	-5.6875e-05	653300.4	244870.88	-0.00040246212	244874.38	653299	-0.0003582016
0	0.6414255	0.6414221	-5.3400734e-10	0.06576085	0.06576085	0	68157.87	68157.51	-5.59375e-05	653408.1	244584.1	-0.00048069004	244587.53	653406.75	-0.00027585638
0	0.64129585	0.6412924	-4.71183e-10	0.065619476	0.065619476	0	68144.086	68143.734	-5.25e-05	653516.8	244293.89	-0.00035717228	244297.34	653515.4	-0.00032114625
0	0.64116746	0.641164	-3.2982808e-10	0.06547825	0.06547824	0	68130.445	68130.086	-3.6875e-05	653624.75	244006.22	-0.00027173912	244009.66	653623.4	-0.00022233202
0	0.641038	0.6410346	7.067744e-11	0.065336525	0.065336525	0	68116.7	68116.34	1.03125e-05	653732.94	243716.86	0.00011940052	243720.3	653731.56	-4.11726e-06
0	0.6409087	0.6409054	-5.1830124e-10	0.06519514	0.06519514	0	68102.96	68102.6	-5e-05	653840.8	243427.97	-0.00041687253	243431.42	653839.5	-0.00026350463
0	0.6407789	0.6407755	-1.09942694e-10	0.06505392	0.065053925	0	68089.164	68088.805	-1.25e-05	653949.06	243137.95	-0.00015336792	243141.45	653947.6	-8.23452e-06
0	0.64064765	0.6406442	-3.690933e-10	0.06491251	0.06491251	0	68075.22	68074.85	-4.125e-05	654058	242845.22	-0.00026762186	242848.69	654056.56	-0.00027997364
0	0.6405176	0.6405141	-2.6700367e-10	0.06477093	0.06477093	0	68061.4	68061.03	-2.625e-05	654165.94	242555.17	-0.00015748518	242558.69	654164.56	-0.00022644928
0	0.64038557	0.6403821	-2.1203234e-10	0.06462956	0.06462956	0	68047.37	68047	-2.375e-05	654275.25	242261.06	-0.00022439065	242264.55	654273.9	-5.3524374e-05
0	0.64025503	0.64025146	-2.512976e-10	0.06448818	0.06448818	0	68033.49	68033.125	-2.875e-05	654383.1	241970.33	-0.00023056654	241973.83	654381.8	-0.00010293149
0	0.64012307	0.6401196	-4.0050552e-10	0.0643466	0.0643466	0	68019.484	68019.11	-4.25e-05	654491.9	241676.92	-0.0002912961	241680.42	654490.5	-0.00029232542
0	0.63999134	0.6399878	-3.8479941e-10	0.06420524	0.06420524	0	68005.48	68005.12	-4.15625e-05	654600.25	241384.16	-0.00021615613	241387.66	654598.9	-0.00030879446
0	0.6398584	0.6398549	-2.3951802e-10	0.064063966	0.064063966	0	67991.34	67990.984	-2.5625e-05	654709.25	241088.89	-0.00018527667	241092.42	654707.94	-0.00016469038
0	0.6397254	0.63972193	-4.5155035e-10	0.063922584	0.06392258	0	67977.22	67976.85	-4.375e-05	654818.3	240793.72	-0.00043334157	240797.2	654817.06	-0.00015645586
0	0.63959235	0.63958895	-1.9239971e-10	0.06378101	0.06378101	0	67963.086	67962.72	-2.75e-05	654927.06	240498.7	-0.00013175231	240502.22	654925.7	-0.00018939393
0	0.63945854	0.6394551	-3.690933e-10	0.06363963	0.06363963	0	67948.87	67948.49	-4.1875e-05	655036.1	240202.3	-0.00026350463	240205.83	655034.8	-0.00027585638
0	0.63932484	0.6393214	-2.9841588e-10	0.06349824	0.06349825	0	67934.66	67934.28	-3e-05	655145.06	239906.1	-0.00023365449	239909.64	655143.8	-0.00016880764
0	0.63919073	0.63918716	-3.4553418e-10	0.06335669	0.06335668	0	67920.41	67920.04	-3.875e-05	655254.06	239609.38	-0.00025218216	239612.89	655252.75	-0.00023056654
0	0.63905466	0.6390512	-2.3559148e-11	0.06321527	0.06321527	0	67905.945	67905.58	3.125e-07	655364.2	239308.8	-5.3524374e-05	239312.33	655362.8	-1.646904e-05
0	0.638921	0.6389175	-1.6491404e-10	0.06307404	0.06307404	0	67891.75	67891.375	-2e-05	655472.4	239013.47	-0.00019762845	239017	655471.1	-4.5289857e-05
0	0.6387859	0.6387824	7.85305e-12	0.062932655	0.062932655	0	67877.38	67877.016	6.25e-07	655581.44	238715.17	5.7641635e-05	238718.73	655580.2	-2.4703557e-05
0	0.6386491	0.63864565	-3.533872e-10	0.062790945	0.062790945	0	67862.86	67862.484	-3.875e-05	655691.5	238413.69	-0.00032938077	238417.23	655690.06	-0.00020586298
0	0.63851416	0.63851064	-2.2773843e-10	0.062649705	0.062649705	0	67848.516	67848.13	-2.4375e-05	655800.06	238116.1	-0.00019968709	238119.64	655798.8	-0.00013998682
0	0.63837755	0.63837403	-2.0417928e-10	0.06250833	0.06250833	0	67834	67833.62	-2.625e-05	655909.56	237815.45	-0.00016057312	237819.02	655908.2	-0.00015645586
0	0.6382399	0.6382365	-4.71183e-10	0.06236674	0.06236674	0	67819.38	67819.016	-5.09375e-05	656019.44	237512.92	-0.00052700925	237516.5	656018.2	-0.00013175231
0	0.638103	0.63809943	-5.025952e-10	0.062225346	0.062225346	0	67804.82	67804.45	-5.15625e-05	656129.1	237211.48	-0.00038290513	237215.05	656127.8	-0.00034173255
0	0.6379656	0.6379621	-3.6124026e-10	0.06208412	0.06208412	0	67790.23	67789.85	-4.125e-05	656238.56	236909.75	-0.00030055994	236913.33	656237.2	-0.00023056654
0	0.6378276	0.6378241	-4.0835857e-10	0.061942417	0.061942413	0	67775.555	67775.19	-4.71875e-05	656348.2	236606.78	-0.00029644268	236610.34	656346.9	-0.00030879446
0	0.6376892	0.63768566	-5.261543e-10	0.061801024	0.06180102	0	67760.85	67760.484	-6.125e-05	656458.06	236303.19	-0.0003458498	236306.77	656456.75	-0.00039937417
0	0.6375504	0.6375469	-3.533872e-10	0.06165979	0.06165979	0	67746.12	67745.74	-3.875e-05	656567.8	235999.23	-0.0003376153	236002.81	656566.56	-0.00017704217
0	0.637412	0.6374085	-4.5547685e-10	0.061518367	0.061518367	0	67731.4	67731.02	-4.625e-05	656677.2	235696.03	-0.00037055335	235699.62	656675.8	-0.0002346838
0	0.6372725	0.63726896	-1.2957531e-10	0.06137681	0.06137681	0	67716.57	67716.195	-1.3125e-05	656787.06	235390.78	-0.00013998682	235394.36	656785.75	-7.411067e-05
0	0.63713187	0.6371285	-7.85305e-12	0.061235435	0.061235435	0	67701.64	67701.266	-6.25e-07	656897.6	235083.55	-2.3674242e-05	235087.12	656896.25	2.0586298e-05
0	0.63699156	0.63698804	-1.1779575e-10	0.061094042	0.061094042	0	67686.73	67686.35	-1.46875e-05	657007.7	234776.9	-0.00012351779	234780.52	657006.44	-9.057971e-05
0	0.63685167	0.6368482	7.85305e-12	0.060952503	0.06095251	0	67671.86	67671.484	1.25e-06	657117.25	234471.42	-3.4996705e-05	234475.05	657115.94	3.293808e-05
0	0.63671076	0.6367073	-3.1412198e-10	0.060811102	0.060811102	0	67656.89	67656.52	-3.8125e-05	657227.2	234164.31	-0.00023983036	234167.94	657225.9	-0.00026762186
0	0.6365689	0.6365654	-3.9265247e-10	0.06066984	0.06066984	0	67641.81	67641.44	-4.21875e-05	657337.7	233855.11	-0.00032114625	233858.73	657336.4	-0.00023880105
0	0.63642746	0.6364238	-3.1412198e-10	0.060528446	0.060528446	0	67626.79	67626.41	-3.375e-05	657447.94	233546.9	-0.00030055994	233550.55	657446.56	-0.00020586298
0	0.636285	0.63628155	-3.7694636e-10	0.060386896	0.060386896	0	67611.64	67611.27	-3.5625e-05	657558.4	233237.06	-0.00030982378	233240.7	657557	-0.00017704217
0	0.63614213	0.6361386	-7.8530495e-11	0.060245506	0.060245506	0	67596.47	67596.09	-8.4375e-06	657669.06	232926.42	-0.00017601285	232930.06	657667.56	5.5583005e-05
0	0.63600004	0.6359964	-5.418604e-10	0.060104124	0.060104124	0	67581.36	67580.99	-5.75e-05	657778.9	232617.47	-0.000522892	232621.12	657777.6	-0.00028820816
0	0.63585657	0.63585305	3.14122e-11	0.05996258	0.05996258	0	67566.12	67565.74	4.375e-06	657889.44	232306.11	2.5732872e-05	232309.75	657888.06	1.2351778e-05
0	0.63571274	0.6357091	-3.4553418e-10	0.059821147	0.059821147	0	67550.83	67550.45	-3.75e-05	658000	231994.03	-0.0002552701	231997.67	657998.75	-0.0002552701
0	0.6355675	0.63556397	-1.0758677e-09	0.059679918	0.05967991	0	67535.4	67535.02	-0.00011375	658111.3	231679.52	-0.00054862484	231683.17	658109.94	-0.0009840251
0	0.6354243	0.6354208	-3.9265247e-11	0.05953851	0.05953851	0	67520.19	67519.805	-6.25e-07	658221.1	231369.28	-6.587616e-05	231372.9	658219.7	5.3524374e-05
0	0.635279	0.63527554	-1.5313446e-10	0.059396826	0.059396826	0	67504.75	67504.375	-2.09375e-05	658332	231055.02	-9.057971e-05	231058.66	658330.75	-0.00018115943
0	0.6351337	0.6351301	-2.5915062e-10	0.059255596	0.059255596	0	67489.31	67488.93	-2.8125e-05	658442.8	230740.69	-0.00011116601	230744.36	658441.44	-0.00027997364
0	0.63498837	0.6349848	-5.104482e-11	0.059114188	0.059114188	0	67473.87	67473.484	-5e-06	658553.3	230426.8	7.7198616e-05	230430.47	658551.94	-0.00016469038
0	0.634842	0.6348384	-2.4344454e-10	0.058972627	0.058972627	0	67458.31	67457.93	-2.71875e-05	658664.44	230110.64	-0.00025938737	230114.33	658663.2	-9.057971e-05
0	0.6346954	0.6346919	-3.690933e-10	0.058831234	0.058831234	0	67442.74	67442.37	-3.875e-05	658775.3	229794.69	-0.00023983036	229798.36	658774	-0.00030055994
0	0.63454914	0.6345456	-3.690933e-10	0.05868999	0.05868999	0	67427.19	67426.805	-3.8125e-05	658885.8	229479.28	-0.00039731554	229482.97	658884.5	-0.00013998682
0	0.6344018	0.6343982	-3.533872e-11	0.0585483	0.0585483	0	67411.53	67411.16	-6.5625e-06	658996.75	229162.14	-3.293808e-05	229165.8	658995.4	-1.646904e-05
0	0.6342538	0.6342502	-5.575665e-10	0.058406904	0.058406904	0	67395.81	67395.44	-6.125e-05	659108.1	228843.45	-0.00049201254	228847.17	659106.8	-0.0003582016
0	0.6341062	0.63410264	-3.2982808e-10	0.058265664	0.058265664	0	67380.12	67379.74	-3.5e-05	659218.9	228526.06	-0.000317029	228529.72	659217.6	-0.00016880764
0	0.63395697	0.6339534	-2.1203234e-10	0.05812423	0.05812423	0	67364.26	67363.88	-2.46875e-05	659330.5	228205.47	-0.00027997364	228209.16	659329.2	-7.822793e-05
0	0.6338084	0.63380474	-3.4553418e-10	0.057982713	0.057982713	0	67348.47	67348.09	-3.6875e-05	659441.44	227886.48	-0.00027173912	227890.19	659440.1	-0.00020174572
0	0.63365954	0.633656	-3.2982808e-10	0.05784131	0.057841305	0	67332.67	67332.29	-3.375e-05	659552.2	227567.5	-0.000277915	227571.23	659550.94	-0.00020174572
0	0.6335092	0.6335057	-1.8062013e-10	0.057699904	0.057699904	0	67316.7	67316.31	-1.5625e-05	659664.06	227245.25	-0.00016057312	227248.95	659662.7	-4.5289857e-05
0	0.6333593	0.6333557	-3.6124026e-10	0.057558388	0.057558395	0	67300.76	67300.39	-3.96875e-05	659775.06	226924.2	-0.00034379118	226927.9	659773.9	-0.0002140975
0	0.6332088	0.6332052	-2.0417928e-10	0.057416987	0.057416987	0	67284.766	67284.38	-1.875e-05	659886.5	226601.98	-0.0002007164	226605.7	659885.3	-6.587616e-05
0	0.63305664	0.6330531	-3.8479941e-10	0.05727571	0.05727571	0	67268.6	67268.23	-3.65625e-05	659998.6	226276.97	-0.00026762186	226280.7	659997.25	-0.0002552701
0	0.6329071	0.6329034	-1.9632623e-10	0.0571343	0.0571343	0	67252.7	67252.32	-1.9375e-05	660108.94	225957.19	-0.00018321806	225960.9	660107.6	-7.411067e-05
0	0.6327538	0.63275015	-4.3191772e-10	0.05699279	0.05699279	0	67236.42	67236.03	-4.375e-05	660221.4	225630.23	-0.0003046772	225633.95	660220.06	-0.00028820816
0	0.6326023	0.6325987	-1.3350183e-10	0.05685139	0.056851387	0	67220.31	67219.945	-1.5e-05	660332.6	225306.83	-0.00016469038	225310.56	660331.3	-4.1172596e-05
0	0.63245004	0.63244647	-2.0025276e-10	0.05670998	0.056709986	0	67204.14	67203.76	-1.875e-05	660443.8	224982.48	-0.0002490942	224986.19	660442.56	-4.9407114e-05
0	0.63229597	0.6322924	-6.5965616e-10	0.05656847	0.05656847	0	67187.78	67187.4	-7.5e-05	660556.06	224654.61	-0.00046010377	224658.36	660554.75	-0.00050642295
0	0.63214314	0.6321395	-4.3191772e-10	0.05642703	0.05642703	0	67171.52	67171.15	-5e-05	660667.44	224329.19	-0.00026350463	224332.95	660666.2	-0.00038290513
0	0.6319894	0.6319858	1.57061e-11	0.056285787	0.056285787	0	67155.195	67154.82	4.0625e-06	660779.06	224002.42	-1.5439724e-05	224006.19	660777.75	5.7641635e-05
0	0.6318353	0.6318316	-2.0417928e-10	0.05614437	0.05614437	0	67138.81	67138.43	-2.375e-05	660890.6	223674.95	-0.00028614953	223678.72	660889.3	-6.587616e-05
0	0.63167924	0.63167554	-3.0626893e-10	0.056002706	0.056002706	0	67122.23	67121.84	-3.5e-05	661003.3	223343.75	-0.0001935112	223347.52	661002	-0.00024291831
0	0.63152534	0.6315218	-3.8479941e-10	0.05586147	0.055861466	0	67105.88	67105.5	-3.5625e-05	661114.3	223017.44	-0.00024703558	223021.2	661113	-0.00026350463
0	0.63136864	0.63136506	-2.8270977e-10	0.055720054	0.05572005	0	67089.24	67088.85	-2.9375e-05	661226.9	222685.53	-0.00036026022	222689.27	661225.56	-4.9407114e-05
0	0.63121325	0.6312096	-3.2197503e-10	0.05557856	0.05557856	0	67072.72	67072.336	-3.5e-05	661338.44	222356.39	-0.00030055994	222360.16	661337.2	-0.0001523386
0	0.63105667	0.6310531	-4.3191772e-10	0.05543711	0.055437103	0	67056.08	67055.695	-4.6875e-05	661450.5	222025.06	-0.0002985013	222028.83	661449.25	-0.000317029
0	0.63089937	0.63089573	-4.0050552e-10	0.05529586	0.05529586	0	67039.37	67038.984	-4.25e-05	661562.8	221692.42	-0.00032011693	221696.2	661561.6	-0.00024291831
0	0.6307425	0.63073885	-4.4762383e-10	0.055154454	0.055154454	0	67022.69	67022.31	-5e-05	661674.56	221361.08	-0.0002552701	221364.88	661673.3	-0.0003746706
0	0.63058496	0.6305813	-5.732726e-10	0.05501279	0.05501279	0	67005.96	67005.57	-6.09375e-05	661786.5	221028.62	-0.00048069004	221032.42	661785.2	-0.0003252635
0	0.63042545	0.6304218	-2.6700367e-10	0.054871544	0.054871544	0	66989.01	66988.625	-2.8125e-05	661899.44	220692.45	-0.00020895092	220696.23	661898.06	-0.00017704217
0	0.6302673	0.6302637	-9.0310065e-11	0.05473013	0.05473013	0	66972.2	66971.82	-1.5e-05	662011.2	220359.3	-0.0002346838	220363.1	662009.94	8.234519e-05
0	0.63010836	0.6301048	-3.8479941e-10	0.054588605	0.054588605	0	66955.31	66954.94	-4.15625e-05	662123.4	220024.55	-0.00038290513	220028.36	662122.1	-0.0001729249
0	0.62994766	0.6299441	-3.494607e-10	0.05444719	0.05444719	0	66938.24	66937.86	-3.84375e-05	662236.3	219686.69	-0.0003582016	219690.5	662234.94	-0.00016880764
0	0.6297893	0.6297856	-4.3191772e-10	0.05430595	0.05430595	0	66921.4	66921.016	-4.5625e-05	662347.56	219353.52	-0.00020174572	219357.34	662346.3	-0.00037878787
0	0.6296275	0.62962383	-3.8479941e-10	0.054164287	0.05416429	0	66904.23	66903.836	-4.25e-05	662460.6	219014.08	-0.0003386446	219017.88	662459.3	-0.00019762845
0	0.62946707	0.6294635	-2.0417928e-10	0.05402286	0.05402286	0	66887.17	66886.79	-2.25e-05	662572.9	218677.3	-0.000261446	218681.12	662571.56	-5.3524374e-05
0	0.6293062	0.62930256	-2.355915e-10	0.053881627	0.053881623	0	66870.08	66869.69	-2.5625e-05	662685	218339.77	-0.0002346838	218343.58	662683.75	-0.00013586956
0	0.629144	0.62914044	-2.9841588e-10	0.053740162	0.053740162	0	66852.84	66852.45	-3.34375e-05	662797.6	218000.19	-0.00019659914	218004.05	662796.4	-0.00020586298
0	0.62898195	0.6289784	-1.5706099e-10	0.053598683	0.053598683	0	66835.625	66835.24	-1.3125e-05	662910	217660.97	-0.00023056654	217664.8	662908.75	1.646904e-05
0	0.62881917	0.62881553	-1.3350183e-10	0.053457264	0.053457264	0	66818.33	66817.94	-1.875e-05	663022.6	217320.45	-0.00013586956	217324.28	663021.3	-0.00010293149
0	0.62865615	0.62865245	-4.633299e-10	0.053315833	0.05331584	0	66800.99	66800.6	-5.3125e-05	663135.1	216979.55	-0.0004487813	216983.4	663133.9	-0.00024703558
0	0.62849164	0.62848794	-1.256488e-10	0.053174376	0.053174376	0	66783.516	66783.13	-1.1875e-05	663248.2	216636.27	-9.778491e-05	216640.14	663246.9	-5.7641635e-05
0	0.6283278	0.62832415	-3.8479941e-10	0.053032946	0.053032946	0	66766.11	66765.72	-4.3125e-05	663360.8	216294.14	-0.0004487813	216298.02	663359.56	-0.00010293149
0	0.62816364	0.62816	-4.3191772e-10	0.052891657	0.052891657	0	66748.664	66748.28	-4.375e-05	663473.06	215952.14	-0.00026350463	215956	663471.9	-0.00033349803
0	0.6279982	0.6279946	-1.09942694e-10	0.052750226	0.052750226	0	66731.086	66730.7	-1.0625e-05	663586.1	215607.56	-5.3524374e-05	215611.4	663584.9	-8.234519e-05
0	0.62783265	0.62782896	-3.1412198e-10	0.052608766	0.052608766	0	66713.5	66713.11	-3.1875e-05	663699	215262.95	-0.00029644268	215266.8	663697.6	-9.469697e-05
0	0.627667	0.6276634	-1.09942694e-10	0.052467342	0.052467342	0	66695.91	66695.516	-1.1875e-05	663811.3	214918.61	-0.0001791008	214922.45	663810.2	1.646904e-05
0	0.6275007	0.6274971	3.9265247e-11	0.052325908	0.052325904	0	66678.234	66677.84	2.5e-06	663924	214573.22	-6.587616e-05	214577.1	663922.7	9.057971e-05
0	0.6273334	0.6273297	-4.1621162e-10	0.05218445	0.05218445	0	66660.45	66660.06	-4.625e-05	664037.1	214225.73	-0.00036231885	214229.62	664035.94	-0.00022644928
0	0.62716645	0.62716275	-2.9056282e-10	0.052042987	0.052042987	0	66642.7	66642.32	-3.0625e-05	664149.8	213879.36	-0.00027379775	213883.25	664148.5	-0.00011116601
0	0.6269979	0.62699425	-7.067744e-11	0.051901728	0.051901728	0	66624.8	66624.41	-3.75e-06	664263.06	213530.12	-1.1322464e-05	213533.97	664261.9	-2.4703557e-05
0	0.62683034	0.62682664	-4.3191772e-10	0.0517603	0.051760297	0	66606.99	66606.6	-4.5e-05	664375.6	213182.9	-0.00032938077	213186.8	664374.4	-0.00028820816
0	0.626661	0.62665737	-3.0626893e-10	0.051618665	0.051618673	0	66589	66588.61	-3.53125e-05	664488.75	212832.72	-0.00020174572	212836.62	664487.5	-0.00025938737
0	0.6264916	0.6264879	-3.0626893e-10	0.05147742	0.05147742	0	66571	66570.61	-3.34375e-05	664601.9	212482.53	-0.0003046772	212486.44	664600.6	-0.00011116601
0	0.6263221	0.6263185	-1.6491404e-10	0.051335983	0.051335983	0	66552.984	66552.6	-2.375e-05	664714.7	212132.34	-6.587616e-05	212136.23	664713.5	-0.00019762845
0	0.626152	0.6261483	-1.8847318e-10	0.051194493	0.051194496	0	66534.9	66534.516	-1.4375e-05	664827.75	211781.03	-2.1615613e-05	211784.9	664826.7	-0.0001523386
0	0.6259813	0.6259776	-4.2406467e-10	0.051053066	0.051053066	0	66516.76	66516.375	-4.75e-05	664940.9	211428.88	-0.00028717885	211432.83	664939.7	-0.0003376153
0	0.62580997	0.6258063	-3.2982808e-10	0.05091181	0.050911807	0	66498.56	66498.17	-3.75e-05	665054.1	211075.84	-0.0002346838	211079.75	665052.94	-0.00020174572
0	0.62563854	0.62563485	-5.6541954e-10	0.050770186	0.050770186	0	66480.35	66479.95	-6.0625e-05	665167	210723.05	-0.00037055335	210726.92	665165.75	-0.0004487813
0	0.6254659	0.6254623	-9.423659e-11	0.050628755	0.050628755	0	66462.01	66461.62	-1e-05	665280.44	210367.95	-0.00012351779	210371.88	665279.2	-1.2351778e-05
0	0.6252934	0.6252896	-1.9632623e-10	0.050487496	0.050487496	0	66443.664	66443.28	-2.3125e-05	665393.56	210013.1	-0.00024703558	210017.03	665392.4	-5.7641635e-05
0	0.62512034	0.6251167	-2.0417928e-10	0.050346017	0.050346017	0	66425.29	66424.91	-2.1875e-05	665506.5	209658.05	-0.00027173912	209661.97	665505.25	-8.234519e-05
0	0.6249464	0.6249427	-4.0050552e-10	0.05020459	0.050204586	0	66406.81	66406.42	-4.375e-05	665620.06	209301.1	-0.0003046772	209305	665618.75	-0.00029232542
0	0.6247728	0.6247691	-7.3033357e-10	0.05006314	0.05006314	0	66388.36	66387.97	-7.3125e-05	665732.9	208945.14	-0.00045701582	208949.08	665731.6	-0.00056406454
0	0.6245975	0.6245937	-3.7694636e-10	0.049921695	0.0499217	0	66369.73	66369.336	-4.09375e-05	665846.44	208586	-0.0004667943	208589.94	665845.2	-7.822793e-05
0	0.6244209	0.6244172	-4.0050552e-10	0.049780272	0.04978028	0	66350.96	66350.58	-4.375e-05	665960.9	208224.53	-0.0003324687	208228.45	665959.6	-0.0002552701
0	0.62424743	0.62424374	-7.0284795e-10	0.049638826	0.049638826	0	66332.53	66332.14	-7.625e-05	666072.75	207869.73	-0.00059288536	207873.67	666071.44	-0.00042407773
0	0.62407017	0.6240665	-2.8270977e-10	0.04949753	0.04949753	0	66313.69	66313.3	-3.25e-05	666186.7	207507.53	-0.0002177001	207511.45	666185.5	-0.00023056654
0	0.62389314	0.6238895	-2.7485672e-10	0.049356084	0.04935608	0	66294.89	66294.5	-3.1875e-05	666300.2	207146.28	-0.00037930254	207150.22	666299.06	-3.293808e-05
0	0.6237167	0.623713	-2.1203234e-10	0.049214657	0.049214657	0	66276.14	66275.75	-2.125e-05	666413.3	206786.05	-0.00015645586	206790.02	666412.1	-0.00011116601
0	0.6235389	0.6235352	-4.868891e-10	0.049073208	0.049073208	0	66257.24	66256.86	-4.96875e-05	666526.75	206423.83	-0.00050642295	206427.78	666525.5	-0.00016469038
0	0.6233604	0.62335676	-1.6491404e-10	0.048931774	0.048931774	0	66238.28	66237.88	-1.5625e-05	666640.4	206060.25	-0.00013278161	206064.22	666639.2	-6.587616e-05
0	0.623183	0.6231793	-3.494607e-10	0.04879036	0.04879036	0	66219.43	66219.03	-3.875e-05	666753.06	205699.2	-0.0002480649	205703.17	666751.8	-0.0002552701
0	0.62300366	0.62299997	-4.5547685e-10	0.048648857	0.048648857	0	66200.37	66199.97	-4.78125e-05	666866.56	205334.53	-0.00035717228	205338.52	666865.4	-0.00027585638
0	0.6228239	0.62282014	-4.3191772e-10	0.04850761	0.04850761	0	66181.266	66180.875	-4.1875e-05	666980.1	204969.39	-0.0003242342	204973.36	666978.8	-0.00029232542
0	0.6226437	0.62264	-6.1253785e-10	0.048366148	0.048366148	0	66162.12	66161.734	-6.4375e-05	667093.5	204603.78	-0.0005491395	204607.78	667092.4	-0.00029644268
0	0.62246156	0.622458	-7.85305e-12	0.048224546	0.04822455	0	66142.77	66142.39	-6.25e-07	667207.75	204234.61	6.639081e-05	204238.6	667206.56	-4.9407114e-05
0	0.6222803	0.6222766	-3.533872e-10	0.048083294	0.048083294	0	66123.5	66123.11	-4.3125e-05	667321.3	203867.12	-0.00039577158	203871.11	667320.06	-0.00014410408
0	0.62209934	0.62209564	-1.9632623e-10	0.04794183	0.04794183	0	66104.27	66103.88	-2.3125e-05	667434.5	203500.53	-0.00033452734	203504.55	667433.4	-2.0586298e-05
0	0.6219168	0.621913	-7.85305e-12	0.047800392	0.047800396	0	66084.875	66084.484	-6.25e-07	667548.2	203131.34	-9.5211624e-05	203135.36	667546.94	5.7641635e-05
0	0.62173307	0.6217294	-3.9265247e-10	0.04765895	0.04765895	0	66065.36	66064.97	-4e-05	667662.2	202760.16	-0.00032577815	202764.16	667660.94	-0.00024703558
0	0.62155175	0.62154806	-1.5706099e-10	0.047517676	0.047517676	0	66046.086	66045.69	-1.5e-05	667774.7	202393.8	-7.822793e-05	202397.78	667773.5	-0.00013175231
0	0.62136626	0.62136257	-3.4553418e-10	0.04737623	0.047376227	0	66026.38	66025.99	-3.25e-05	667889	202019.84	-0.0003144557	202023.81	667887.9	-0.00019762845
0	0.62118286	0.6211792	-5.732726e-10	0.047234632	0.047234632	0	66006.9	66006.5	-5.75e-05	668002.1	201649.84	-0.0005023057	201653.86	668001	-0.00030879446
0	0.6209983	0.6209946	-2.9841588e-10	0.047093365	0.047093365	0	65987.29	65986.89	-2.59375e-05	668115.5	201278.17	-0.00033349803	201282.17	668114.3	-4.1172596e-05
0	0.62081194	0.62080824	-5.575665e-10	0.046951856	0.046951856	0	65967.47	65967.08	-5.9375e-05	668229.6	200903.06	-0.00051465747	200907.1	668228.4	-0.00034996707
0	0.6206267	0.620623	-3.9265247e-10	0.04681048	0.046810478	0	65947.79	65947.4	-4.1875e-05	668342.8	200530.55	-0.0004158432	200534.58	668341.7	-0.00016469038
0	0.62043947	0.6204358	-4.4762383e-10	0.046669014	0.046669014	0	65927.9	65927.51	-4.4375e-05	668456.8	200154.36	-0.0003870224	200158.36	668455.7	-0.0002346838
0	0.62025285	0.6202492	-9.423659e-11	0.046527762	0.046527762	0	65908.07	65907.68	-8.75e-06	668570.25	199779.8	-0.00026298995	199783.8	668569.2	0.00013175231
0	0.6200656	0.620062	-5.261543e-10	0.04638618	0.04638618	0	65888.17	65887.78	-5.75e-05	668683.7	199404.23	-0.00036489213	199408.27	668682.5	-0.00041172595
0	0.61987674	0.61987305	-2.512976e-10	0.046244707	0.04624471	0	65868.1	65867.71	-3e-05	668797.6	199025.77	-0.00017704217	199029.78	668796.5	-0.00020586298
0	0.61968833	0.61968476	-2.0417928e-10	0.046103448	0.04610345	0	65848.086	65847.695	-2.28125e-05	668911.1	198648.56	-0.00016880764	198652.6	668910	-0.00020998024
0	0.61949885	0.61949515	-4.3977078e-10	0.045961928	0.045961935	0	65827.95	65827.555	-4.75e-05	669025	198269.4	-0.00041172595	198273.42	669023.9	-0.00021821476
0	0.61930954	0.61930585	-2.4344454e-10	0.04582056	0.04582056	0	65807.836	65807.445	-2.4375e-05	669138.4	197890.95	-0.0002140975	197895.02	669137.25	-0.00013175231
0	0.6191183	0.6191146	-3.3768113e-10	0.0456791	0.045679096	0	65787.51	65787.12	-4.03125e-05	669252.56	197509.06	-0.00038650775	197513.08	669251.3	-7.822793e-05
0	0.61892843	0.6189248	-3.2197503e-10	0.04553762	0.04553763	0	65767.336	65766.945	-3.5625e-05	669365.7	197130.19	-0.00030982378	197134.23	669364.56	-0.00013586956
0	0.61873686	0.61873317	-2.7485672e-10	0.045396265	0.045396265	0	65746.98	65746.58	-2.46875e-05	669479.4	196748.14	-0.00010293149	196752.19	669478.25	-0.0002140975
0	0.61854386	0.6185402	-2.6700367e-10	0.04525479	0.04525479	0	65726.48	65726.086	-2.59375e-05	669593.44	196363.94	-0.00017498354	196368	669592.4	-0.00020174572
0	0.6183516	0.6183479	-4.0835857e-10	0.04511347	0.04511347	0	65706.02	65705.63	-4.0625e-05	669707.06	195981	-0.00035408433	195985.06	669706	-0.0002140975
0	0.6181582	0.6181545	-4.0835857e-10	0.04497199	0.04497199	0	65685.49	65685.1	-4.71875e-05	669820.94	195596.56	-0.0003252635	195600.61	669819.7	-0.00028820816
0	0.61796534	0.6179616	-2.9056282e-10	0.04483065	0.04483065	0	65665	65664.6	-3.125e-05	669934.25	195213.2	-0.00027379775	195217.25	669933.1	-0.00016469038
0	0.6177717	0.61776805	-4.7903603e-10	0.044689175	0.044689175	0	65644.43	65644.03	-5.1875e-05	670047.5	194828.84	-0.00042973895	194832.94	670046.3	-0.00026350463
0	0.6175757	0.61757195	-6.989214e-10	0.044547684	0.044547684	0	65623.6	65623.21	-7.375e-05	670161.75	194440.22	-0.00030879446	194444.28	670160.56	-0.0006175889
0	0.6173803	0.6173766	-4.3977078e-10	0.04440635	0.04440635	0	65602.83	65602.445	-4.53125e-05	670275.4	194052.95	-0.00030313325	194057	670274.25	-0.00029644268