# t (s)	mx ()	my ()	mz ()	B_extx (T)	B_exty (T)	B_extz (T)	m_fullx (A/m)	m_fully (A/m)	m_fullz (A/m)	m_full.region1x (A/m)	m_full.region1y (A/m)	m_full.region1z (A/m)	m_full.region2x (A/m)	m_full.region2y (A/m)	m_full.region2z (A/m)
0	0.65741575	0.65741223	-5.305031e-10	0.07071067	0.07071067	0	154586.61	154585.78	-0.00012515944	623593.5	296785.78	-0.00037638593	296788.6	623591.4	-0.00039489672
0	0.6572096	0.6572092	-2.1546029e-10	0.070357196	0.070357196	0	154538.14	154538.06	-4.9744896e-05	623794.4	296298.94	-0.00015900288	296299	623794.06	-0.00017466585
0	0.65699947	0.6569993	-4.236782e-10	0.07000352	0.07000352	0	154488.72	154488.69	-9.630102e-05	624004.44	295794.84	-0.0002472851	295794.72	624004.1	-0.00031895505
0	0.6567879	0.6567879	-4.5626886e-10	0.069650054	0.069650054	0	154438.98	154438.98	-0.00010148278	624214.3	295288.9	-0.00027339003	295288.78	624214.06	-0.00036831712
0	0.6565754	0.6565753	-2.0912322e-10	0.0692964	0.0692964	0	154389.02	154388.98	-4.5998087e-05	624424.4	294781.3	-0.0003251253	294781.2	624424.06	2.6579586e-05
0	0.6563621	0.65636206	-8.962424e-11	0.06894299	0.06894299	0	154338.89	154338.88	-2.3915816e-05	624635.1	294272.03	-9.302855e-05	294271.94	624634.9	-4.1767922e-05
0	0.656147	0.6561468	-6.4819144e-10	0.06858932	0.06858932	0	154288.28	154288.25	-0.00015353954	624845.56	293760.3	-0.00051972584	293760.16	624845.3	-0.00041388214
0	0.6559311	0.65593094	-5.2959775e-11	0.06823584	0.068235844	0	154237.5	154237.5	-1.546556e-05	625057.44	293246.12	-7.641631e-05	293246	625057.2	1.5188335e-05
0	0.65571386	0.65571374	-3.6324976e-10	0.06788219	0.06788219	0	154186.42	154186.39	-8.661512e-05	625269.56	292729.97	-0.00020172007	292729.84	625269.25	-0.00038730254
0	0.655494	0.6554938	-1.434893e-10	0.067528725	0.067528725	0	154134.72	154134.69	-3.75279e-05	625482.25	292209.34	-2.5155681e-05	292209.2	625482	-0.00022782503
0	0.6552739	0.6552738	-3.5849695e-10	0.06717506	0.06717506	0	154083	154082.97	-8.5100444e-05	625695.1	291688.56	-0.00025060753	291688.44	625694.75	-0.00022782503
0	0.6550538	0.6550537	-1.4032078e-10	0.066821575	0.066821575	0	154031.23	154031.19	-3.5754147e-05	625908.75	291166.78	-8.994342e-05	291166.7	625908.3	-0.00017086878
0	0.65483135	0.6548312	-4.931596e-10	0.06646809	0.06646809	0	153978.92	153978.89	-0.000117346935	626122.4	290641.66	-0.00035028099	290641.5	626122	-0.0003493317
0	0.65460736	0.6546072	-4.0376172e-10	0.06611443	0.06611443	0	153926.23	153926.2	-9.630102e-05	626336.75	290113.5	-0.0002529807	290113.38	626336.5	-0.00036072297
0	0.6543823	0.6543821	-4.5785312e-10	0.06576097	0.06576097	0	153873.33	153873.28	-0.000103635204	626551.25	289584.1	-0.00034221218	289583.97	626550.9	-0.00028857836
0	0.6541556	0.65415555	-4.5626886e-10	0.06540731	0.06540731	0	153820.02	153820	-0.00010395408	626766.6	289051.38	-0.00029190083	289051.25	626766.25	-0.00035692588
0	0.6539284	0.6539283	-1.738167e-10	0.0650539	0.0650539	0	153766.6	153766.55	-3.5714285e-05	626981.7	288518.16	-0.000106318344	288518.03	626981.4	-0.00014428918
0	0.6536983	0.65369815	-1.7291141e-10	0.064700246	0.064700246	0	153712.48	153712.44	-3.7428254e-05	627197.5	287980.16	-5.7430894e-05	287980.03	627197.2	-0.00017466585
0	0.6534682	0.653468	-2.8607333e-10	0.06434675	0.06434675	0	153658.38	153658.34	-6.80405e-05	627414.3	287441.28	-0.0002207055	287441.12	627414	-0.00020504252
0	0.65323657	0.6532363	-7.5184775e-10	0.063993126	0.063993126	0	153603.89	153603.86	-0.00017733578	627631.44	286899.8	-0.00055484887	286899.66	627631.06	-0.00055437424
0	0.6530034	0.6530033	-2.9376834e-10	0.06363964	0.06363964	0	153549.1	153549.05	-7.09104e-05	627848.6	286356.38	-0.00021073816	286356.25	627848.2	-0.00023921629
0	0.6527665	0.6527664	-2.5348269e-11	0.063285984	0.063285984	0	153493.4	153493.38	-7.971938e-06	628066.94	285806.4	-9.018074e-06	285806.25	628066.6	-3.797084e-05
0	0.6525319	0.6525318	-4.186991e-10	0.06293249	0.06293249	0	153438.23	153438.19	-9.9469864e-05	628284.7	285260.2	-0.0003892011	285260.1	628284.4	-0.00020504252
0	0.6522957	0.6522955	-4.4110515e-10	0.062579	0.062579	0	153382.69	153382.62	-0.00010395408	628502.9	284711.2	-0.000339839	284711.06	628502.56	-0.00030376672
0	0.6520567	0.6520565	-1.1044603e-10	0.062225346	0.062225346	0	153326.48	153326.44	-3.0213649e-05	628721.8	284157.66	-9.824955e-05	284157.56	628721.5	-7.973876e-05
0	0.65181625	0.651816	-2.8969452e-10	0.061871875	0.061871875	0	153269.95	153269.89	-6.632653e-05	628941.94	283600.9	-0.00020978888	283600.8	628941.56	-0.00014808627
0	0.651575	0.65157485	5.0696537e-11	0.061518237	0.061518237	0	153213.2	153213.16	1.08219065e-05	629161.4	283043.7	-2.4681045e-05	283043.6	629161	0.000106318344
0	0.65133107	0.6513308	-3.449175e-10	0.061164815	0.061164815	0	153155.86	153155.8	-8.318718e-05	629382	282481.53	-0.00014239065	282481.4	629381.7	-0.0003531288
0	0.6510864	0.6510862	-1.7019552e-10	0.060811166	0.060811166	0	153098.33	153098.27	-4.1334504e-05	629603.3	281917.8	-7.5941675e-06	281917.7	629602.9	-0.0002582017
0	0.6508407	0.65084046	-3.087057e-10	0.06045767	0.06045767	0	153040.55	153040.5	-7.2385206e-05	629824.6	281352.44	-0.00013432185	281352.34	629824.25	-0.00030376672
0	0.6505933	0.65059316	-3.9832995e-10	0.060104053	0.06010405	0	152982.38	152982.34	-8.80102e-05	630046.56	280784.25	-0.0002743393	280784.16	630046.1	-0.00024681044
0	0.65034413	0.6503439	-3.5215988e-10	0.05975055	0.05975055	0	152923.78	152923.72	-8.3785075e-05	630268.4	280213.47	-0.00033224485	280213.38	630268	-0.00015568043
0	0.6500941	0.65009385	-3.6392872e-10	0.059396908	0.059396908	0	152864.98	152864.94	-8.5459185e-05	630491.4	279640.47	-0.00024586119	279640.4	630490.94	-0.0002809842
0	0.6498422	0.64984196	-3.5125458e-10	0.05904341	0.05904341	0	152805.75	152805.69	-8.107462e-05	630714	279065.12	-0.00025250608	279065	630713.6	-0.00023921629
0	0.6495891	0.6495889	-1.4575255e-10	0.0586899	0.0586899	0	152746.25	152746.19	-3.380102e-05	630937.56	278487.28	-4.3666463e-05	278487.2	630937.2	-0.00012910085
0	0.6493329	0.64933264	-3.675499e-10	0.05833626	0.05833626	0	152685.97	152685.92	-8.609694e-05	631162.2	277903.9	-0.00020124545	277903.8	631161.8	-0.00031136087
0	0.64907694	0.64907664	-7.559216e-11	0.05798278	0.05798278	0	152625.81	152625.77	-1.6661352e-05	631387	277320.78	-9.824955e-05	277320.7	631386.56	-1.898542e-05
0	0.64881927	0.6488191	-1.5186329e-10	0.05762915	0.05762915	0	152565.22	152565.17	-4.0816325e-05	631611.44	276735.7	-0.000147137	276735.6	631611	-0.000113912516
0	0.64855933	0.64855915	-3.322434e-10	0.057275645	0.057275645	0	152504.1	152504.03	-7.778619e-05	631836.94	276146.28	-0.0001552058	276146.2	631836.5	-0.00031895505
0	0.64829755	0.64829725	-1.5208962e-10	0.05692209	0.05692209	0	152442.53	152442.47	-3.6670917e-05	632062.4	275554.16	-8.16373e-05	275554.1	632061.94	-0.00015947752
0	0.6480355	0.6480352	-2.1025484e-10	0.056568585	0.056568585	0	152380.92	152380.86	-5.0502233e-05	632288.25	274961.47	-0.00030376672	274961.4	632287.8	-1.5188335e-05
0	0.6477711	0.6477708	-1.6317948e-10	0.056214973	0.056214973	0	152318.75	152318.69	-3.8743623e-05	632515.25	274364.38	-0.00010869152	274364.3	632514.8	-0.00012910085
0	0.6475051	0.6475048	-2.4986152e-10	0.05586147	0.05586147	0	152256.17	152256.11	-5.3730866e-05	632742.5	273764.6	-0.00016469852	273764.53	632742.06	-0.00020124545
0	0.64723605	0.64723575	-1.1836737e-10	0.055507842	0.055507842	0	152192.94	152192.88	-3.2206633e-05	632970.56	273159.97	-0.00015947752	273159.9	632970.1	-3.797084e-05
0	0.6469659	0.6469657	-3.530652e-10	0.055154327	0.055154327	0	152129.4	152129.34	-8.067602e-05	633200.44	272551.84	-0.0001846332	272551.8	633200	-0.0002847813
0	0.6466966	0.6466964	-5.5539867e-10	0.054800812	0.054800812	0	152066.1	152066.03	-0.00013089924	633427.2	271948.22	-0.00039632063	271948.12	633426.75	-0.00039489672
0	0.6464239	0.6464237	-2.1976045e-10	0.054447185	0.054447185	0	152001.97	152001.9	-5.4488202e-05	633655.56	271337.94	-0.00018226002	271337.88	633655.2	-0.00014428918
0	0.6461501	0.6461498	-3.9244552e-10	0.054093685	0.054093685	0	151937.6	151937.52	-9.1737085e-05	633884.6	270725.6	-0.00027054222	270725.53	633884.2	-0.00027339003
0	0.6458741	0.6458739	8.2834524e-11	0.05374007	0.05374007	0	151872.7	151872.61	1.6581633e-05	634114.9	270108.97	9.49271e-06	270108.9	634114.44	7.973876e-05
0	0.64559674	0.64559644	-3.530652e-10	0.05338655	0.05338655	0	151807.45	151807.39	-8.38648e-05	634344.9	269490.6	-0.0002287743	269490.56	634344.4	-0.00027339003
0	0.6453168	0.64531654	-1.8649084e-10	0.053033024	0.053033024	0	151741.62	151741.6	-4.575893e-05	634575.56	268868	-0.00014808627	268867.94	634575.1	-0.00010252126
0	0.64503574	0.6450355	-2.0640734e-10	0.0526795	0.0526795	0	151675.55	151675.48	-4.177296e-05	634807.3	268242.72	-0.00021358597	268242.7	634806.94	-5.126063e-05
0	0.64475316	0.64475286	-4.5264767e-10	0.052325882	0.052325882	0	151609.11	151609.03	-0.00010566805	635038.4	267616.06	-0.00034743318	267616.03	635037.94	-0.00028857836
0	0.64446825	0.644468	1.720061e-11	0.05197238	0.05197238	0	151542.11	151542.05	5.600287e-06	635270.44	266985.12	7.4043135e-05	266985.1	635270	-3.037667e-05
0	0.64417994	0.6441796	-1.14067214e-10	0.051618766	0.051618766	0	151474.3	151474.23	-2.4394132e-05	635505.44	266346.47	-0.00011201397	266346.44	635505	-3.7970838e-06
0	0.6438942	0.6438939	-1.2312017e-10	0.05126524	0.05126524	0	151407.14	151407.05	-3.119021e-05	635735.75	265716.2	-0.00013669502	265716.12	635735.25	-7.973876e-05
0	0.6436033	0.64360297	-1.6250051e-10	0.050911706	0.050911706	0	151338.72	151338.66	-3.635204e-05	635969.3	265075.34	-0.00020883961	265075.3	635968.9	-1.898542e-05
0	0.6433111	0.6433107	-4.3454174e-11	0.050558105	0.050558105	0	151270	151269.94	-1.1798469e-05	636203.5	264432	-6.929678e-05	264431.97	636203	7.5941675e-06
0	0.6430173	0.6430168	4.3454174e-11	0.05020459	0.050204594	0	151200.9	151200.83	7.971938e-06	636439.3	263784.75	-6.4550426e-05	263784.75	636438.8	0.000106318344
0	0.6427235	0.64272314	-3.9199288e-10	0.049850978	0.049850978	0	151131.83	151131.77	-9.08801e-05	636671.56	263141.38	-0.00033129557	263141.3	636671	-0.00024681044
0	0.6424262	0.64242584	-2.8969452e-10	0.049497455	0.049497455	0	151061.94	151061.84	-6.620695e-05	636906.8	262489.88	-0.00031136087	262489.84	636906.4	-8.7332926e-05
0	0.642126	0.64212567	-5.422719e-10	0.049143948	0.049143948	0	150991.34	150991.27	-0.00012886639	637144.5	261831.95	-0.00037021568	261831.92	637144	-0.00041388214
0	0.6418259	0.6418256	-2.593671e-10	0.048790418	0.048790418	0	150920.78	150920.7	-6.122449e-05	637379.2	261177.14	-0.00023352065	261177.11	637378.7	-0.0001404921
0	0.6415235	0.6415231	-2.905998e-10	0.048436802	0.048436802	0	150849.69	150849.58	-6.796078e-05	637615.44	260517.45	-0.00016517314	260517.42	637614.94	-0.0002354192
0	0.6412188	0.64121836	-2.3085031e-10	0.04808329	0.04808329	0	150778	150777.92	-5.480708e-05	637852.1	259854.11	-0.00014808627	259854.1	637851.56	-0.00015947752
0	0.64090914	0.6409088	-6.89835e-10	0.047729697	0.047729697	0	150705.22	150705.12	-0.00016382334	638092.25	259180.62	-0.0004442588	259180.64	638091.6	-0.00053159177
0	0.64060205	0.6406017	-2.457877e-10	0.047376156	0.047376156	0	150632.98	150632.89	-5.301339e-05	638329.25	258513.62	-0.00016374924	258513.66	638328.7	-0.00014808627
0	0.64029306	0.6402926	-5.246186e-10	0.047022615	0.047022615	0	150560.33	150560.22	-0.00012468112	638565.3	257844.86	-0.00032844776	257844.86	638564.9	-0.00044046174
0	0.639978	0.6399776	-6.780662e-10	0.04666902	0.04666902	0	150486.25	150486.16	-0.00015640944	638804.8	257164.33	-0.0005164034	257164.34	638804.25	-0.00041767923
0	0.6396649	0.6396645	-2.2768178e-10	0.046315495	0.046315495	0	150412.64	150412.53	-5.4209184e-05	639043.1	256487.67	-0.00015378189	256487.69	639042.6	-0.0001632746
0	0.6393494	0.63934904	-1.14067214e-10	0.045961898	0.045961898	0	150338.45	150338.34	-2.602838e-05	639282.56	255806.55	-0.00012340522	255806.6	639282	-1.1391251e-05
0	0.63902855	0.639028	-7.853437e-11	0.04560836	0.04560836	0	150263	150262.89	-1.6262755e-05	639523.25	255116.61	-6.7398236e-05	255116.64	639522.7	-1.898542e-05
0	0.6387107	0.6387102	4.7075358e-11	0.04525487	0.04525487	0	150188.25	150188.14	1.3392857e-05	639762.8	254432.03	3.2275213e-05	254432.06	639762.25	3.4173754e-05
0	0.6383856	0.6383852	-6.3099087e-10	0.04490131	0.04490131	0	150111.81	150111.72	-0.00015003189	640004.4	253735.44	-0.00051450485	253735.47	640003.9	-0.00040628796
0	0.63806295	0.63806254	-1.4756314e-10	0.044547737	0.044547737	0	150035.95	150035.84	-3.6192603e-05	640245.06	253043.02	-0.0002301982	253043.06	640244.5	-1.1391251e-05
0	0.637737	0.63773656	-3.999142e-10	0.044194207	0.044194207	0	149959.28	149959.19	-9.62213e-05	640486.56	252345.14	-0.00028715446	252345.2	640486	-0.00029996963
0	0.6374061	0.6374057	-5.250713e-11	0.04384063	0.04384063	0	149881.48	149881.38	-1.3552296e-05	640731.3	251637.17	-4.5565004e-05	251637.23	640730.7	-1.898542e-05
0	0.63707554	0.63707507	-1.8015377e-10	0.043487072	0.043487072	0	149803.75	149803.64	-4.0178573e-05	640973.75	250931.97	-0.00021216206	250932.06	640973.1	-2.2782502e-05
0	0.63674384	0.6367434	-3.1142158e-10	0.043133505	0.043133505	0	149725.77	149725.66	-7.716837e-05	641214.75	250226.6	-0.00029759645	250226.66	641214.2	-0.00015568043
0	0.636409	0.6364086	8.373982e-12	0.04277994	0.04277994	0	149647.05	149646.94	3.1887754e-07	641457.94	249514.61	-1.1391251e-05	249514.7	641457.3	3.037667e-05
0	0.63606995	0.63606954	-5.379718e-10	0.042426363	0.042426363	0	149567.33	149567.2	-0.00012739158	641704.2	248793.77	-0.00029854572	248793.86	641703.6	-0.0004480559
0	0.63573205	0.63573146	-4.1281467e-10	0.042072818	0.042072818	0	149487.83	149487.73	-9.367028e-05	641946.4	248078.42	-0.00032844776	248078.5	641945.7	-0.00025440461
0	0.6353899	0.63538945	-3.0780042e-10	0.041719254	0.041719254	0	149407.4	149407.3	-7.142857e-05	642191.1	247354.67	-0.00023921629	247354.77	642190.56	-0.0001898542
0	0.63504636	0.6350459	-2.561986e-10	0.041365802	0.041365802	0	149326.62	149326.52	-5.994898e-05	642436.3	246628.58	-0.00024396264	246628.67	642435.7	-0.000113912516
0	0.63470024	0.63469964	-1.3058885e-10	0.04101223	0.04101223	0	149245.22	149245.1	-2.9575893e-05	642682.1	245898.05	-0.00011201397	245898.16	642681.44	-5.6956258e-05
0	0.6343516	0.63435113	-8.600306e-11	0.040658668	0.040658668	0	149163.27	149163.14	-1.7857143e-05	642928.4	245163.88	-7.973876e-05	245164	642927.75	-3.7970838e-06
0	0.6340013	0.6340009	-1.1497251e-10	0.040305123	0.040305123	0	149080.89	149080.78	-2.34375e-05	643174.4	244427.45	-0.00019744836	244427.55	643173.75	4.5565004e-05
0	0.63364816	0.6336477	-3.8384523e-10	0.03995156	0.03995156	0	148997.83	148997.72	-8.705357e-05	643421.9	243685.48	-0.00022782503	243685.62	643421.25	-0.00031895505
0	0.6332932	0.6332926	-2.3899796e-10	0.039597988	0.039597984	0	148914.38	148914.23	-5.9311224e-05	643668.8	242941.61	-0.0001964991	242941.73	643668.1	-0.00015188336
0	0.63293356	0.632933	-5.7486255e-10	0.039244413	0.039244417	0	148829.8	148829.67	-0.00013360969	643917.2	242189.56	-0.00042907047	242189.67	643916.56	-0.00039489672
0	0.63257474	0.63257414	-5.79389e-11	0.038890854	0.038890854	0	148745.42	148745.3	-1.2755102e-05	644164.8	241439.58	-6.644897e-05	241439.72	644164.2	2.2782502e-05
0	0.6322132	0.63221264	-2.9422098e-10	0.03853728	0.038537282	0	148660.4	148660.28	-7.3820156e-05	644413.6	240684.6	-0.0002847813	240684.72	644413.06	-0.0001632746
0	0.63184816	0.6318476	-4.272994e-10	0.038183745	0.038183745	0	148574.6	148574.45	-9.948979e-05	644663	239924.39	-0.0003265492	239924.55	644662.25	-0.00025060753
0	0.6314805	0.6314799	-4.3816295e-10	0.037830174	0.037830174	0	148488.12	148488	-0.000105707906	644912.6	239159.88	-0.00021928159	239160.02	644911.94	-0.00041388214
0	0.63111174	0.6311112	-3.9651935e-10	0.037476614	0.037476607	0	148401.42	148401.28	-9.191645e-05	645162.44	238393.89	-0.00041672995	238394.05	645161.75	-0.00014808627
0	0.63073987	0.6307393	-1.5208962e-10	0.03712314	0.03712314	0	148313.98	148313.83	-3.2684948e-05	645412.6	237623.03	-9.6825635e-05	237623.22	645412	-0.000113912516
0	0.6303626	0.6303619	-2.1998676e-10	0.036769573	0.036769573	0	148225.25	148225.11	-4.9107144e-05	645666.44	236840.9	-0.00020314398	236841.08	645665.75	-0.000110115434
0	0.6299867	0.62998605	-2.2451324e-10	0.036416035	0.03641604	0	148136.86	148136.73	-5.6760204e-05	645917.2	236064.02	-0.00021833232	236064.2	645916.5	-0.000113912516
0	0.62960875	0.62960815	-1.5435285e-10	0.036062464	0.036062464	0	148048.02	148047.88	-3.3003827e-05	646166.8	235285.31	-0.00012340522	235285.5	646166.1	-5.3159172e-05
0	0.6292259	0.6292252	-7.242363e-11	0.0357089	0.0357089	0	147957.97	147957.81	-1.6342474e-05	646418.8	234497.25	-0.00012625304	234497.44	646418.1	1.898542e-05
0	0.6288406	0.62884	-5.31861e-10	0.035355333	0.035355333	0	147867.39	147867.23	-0.00012420281	646673.75	233702.95	-0.00042717194	233703.14	646673	-0.0002809842
0	0.62845343	0.6284527	-2.1002852e-10	0.03500176	0.03500176	0	147776.33	147776.17	-4.4961736e-05	646926.75	232907.8	-0.00017466585	232908.02	646926.06	-0.000106318344
0	0.6280656	0.6280649	-3.5849695e-10	0.0346482	0.0346482	0	147685.12	147684.98	-8.737245e-05	647177.75	232113.9	-0.00024965827	232114.14	647177.06	-0.00026959294
0	0.6276717	0.627671	-5.0696537e-11	0.03429466	0.03429466	0	147592.52	147592.34	-1.0044643e-05	647432	231308.1	-5.7905527e-05	231308.31	647431.3	7.5941675e-06
0	0.62727517	0.62727445	-3.9470877e-10	0.033941098	0.033941094	0	147499.27	147499.11	-9.406888e-05	647689.06	230496.02	-0.00029712182	230496.25	647688.3	-0.00022023087
0	0.62688035	0.6268797	-3.7298167e-10	0.03358753	0.03358753	0	147406.44	147406.27	-9.0162626e-05	647940.44	229691.83	-0.00028952764	229692.08	647939.7	-0.00027339003
0	0.62647694	0.6264763	-2.2813443e-10	0.033234045	0.033234045	0	147311.58	147311.42	-5.2774234e-05	648199.06	228868.47	-5.88548e-05	228868.7	648198.44	-0.00021643378
0	0.6260773	0.6260766	-2.8969452e-10	0.032880485	0.032880485	0	147217.61	147217.44	-6.951531e-05	648451.2	228056.75	-0.0002714915	228057.03	648450.5	-0.0001632746
0	0.6256706	0.62566996	-4.870489e-10	0.03252695	0.03252695	0	147121.98	147121.81	-0.000117586096	648708.1	227230.56	-0.00025630314	227230.81	648707.3	-0.00043666465
0	0.62526214	0.6252615	-3.9108758e-10	0.032173377	0.03217338	0	147025.94	147025.77	-9.406888e-05	648964.06	226402.7	-0.00035502732	226402.97	648963.3	-0.00018226002
0	0.6248484	0.62484765	-4.5626886e-10	0.03181982	0.03181982	0	146928.64	146928.47	-0.00010825893	649223.75	225563.72	-0.00036831712	225564	649223	-0.00026579588
0	0.6244369	0.62443614	-4.0014053e-10	0.031466246	0.031466246	0	146831.86	146831.7	-9.62213e-05	649478.2	224733.25	-0.0003360419	224733.53	649477.4	-0.00021263669
0	0.6240196	0.6240189	-1.3398371e-10	0.031112673	0.031112673	0	146733.78	146733.58	-2.9177296e-05	649736.2	223891.06	-0.00015188336	223891.36	649735.4	-5.3159172e-05
0	0.6235986	0.6235978	-7.966599e-11	0.030759118	0.030759118	0	146634.75	146634.56	-1.7538265e-05	649994.9	223042.75	-8.543439e-05	223043.08	649994.1	-1.1391251e-05
0	0.62317675	0.623176	-3.5125458e-10	0.030405583	0.030405583	0	146535.56	146535.38	-8.0357146e-05	650252.94	222194.22	-0.0002876291	222194.53	650252.1	-0.00020504252
0	0.6227511	0.62275034	-5.9568434e-10	0.030052025	0.030052025	0	146435.47	146435.3	-0.00014253827	650511.94	221339.36	-0.00050121505	221339.69	650511.1	-0.00036831712
0	0.6223202	0.62231934	-4.3816295e-10	0.029698454	0.029698454	0	146334.14	146333.95	-0.00010905612	650774.25	220473.61	-0.00045470078	220473.94	650773.5	-0.00019365127
0	0.6218885	0.6218877	-6.8892975e-10	0.02934495	0.02934495	0	146232.64	146232.47	-0.00016246812	651032	219611.61	-0.0007299894	219611.95	651031.2	-0.00024681044
0	0.6214554	0.6214546	-3.9108758e-10	0.02899139	0.02899139	0	146130.8	146130.62	-9.231505e-05	651292	218745.23	-0.00029047692	218745.6	651291.25	-0.00024301336
0	0.6210158	0.62101495	-4.7890125e-10	0.028637823	0.028637823	0	146027.44	146027.25	-0.00011591199	651555.5	217866.28	-0.0004480559	217866.64	651554.6	-0.00023921629
0	0.6205755	0.6205746	-6.011161e-10	0.028284293	0.028284293	0	145923.89	145923.7	-0.00013934949	651814.75	216990.62	-0.00048602672	216991.02	651813.94	-0.0003721142
0	0.62013	0.6201291	-4.1553055e-10	0.027930735	0.027930735	0	145819.14	145818.95	-9.677934e-05	652079.06	216102.62	-0.00027054222	216102.97	652078.2	-0.00033414338
0	0.61968505	0.6196842	-1.9554379e-10	0.027577164	0.027577164	0	145714.53	145714.31	-4.958546e-05	652338.5	215220.2	-0.00012340522	215220.61	652337.7	-0.00015568043
0	0.61923295	0.6192321	-4.1462525e-10	0.027223593	0.027223593	0	145608.22	145608.02	-0.000102200254	652603.8	214322.03	-0.00031136087	214322.42	652603	-0.00028857836
0	0.6187802	0.6187793	-3.9108758e-10	0.026870035	0.026870033	0	145501.77	145501.55	-9.4228315e-05	652866.3	213425.61	-0.00030756378	213426.02	652865.44	-0.00024301336
0	0.6183251	0.6183242	-1.7743788e-10	0.02651651	0.026516512	0	145394.73	145394.52	-4.432398e-05	653127.4	212527.39	-0.00014428918	212527.81	653126.5	-0.00012150668
0	0.61786264	0.6178618	-4.5264767e-10	0.026162941	0.026162941	0	145286.02	145285.78	-0.00010762117	653394.25	211613.08	-0.0002781364	211613.53	653393.44	-0.0003721142
0	0.61740226	0.6174013	3.9832995e-11	0.025809383	0.025809383	0	145177.72	145177.52	7.4936224e-06	653655.3	210707.45	-9.49271e-06	210707.88	653654.44	4.936209e-05
0	0.61693275	0.6169318	-5.1782895e-10	0.025455855	0.025455853	0	145067.33	145067.11	-0.00012707271	653923.5	209781.86	-0.00047273695	209782.33	653922.7	-0.00026579588
0	0.61646396	0.616463	-3.2590633e-10	0.025102295	0.025102295	0	144957.11	144956.88	-7.310268e-05	654188.25	208860.94	-0.00028288274	208861.4	654187.4	-0.00015947752
0	0.6159905	0.6159896	-2.6253566e-10	0.024748728	0.024748728	0	144845.8	144845.56	-6.401467e-05	654454.1	207932.25	-0.00020124545	207932.72	654453.2	-0.0001632746
0	0.61551404	0.615513	-3.7660286e-10	0.024395209	0.024395209	0	144733.72	144733.5	-8.55389e-05	654720.06	206999.11	-0.00025060753	206999.6	654719.2	-0.0002582017
0	0.6150354	0.61503446	-4.1824644e-10	0.024041645	0.024041645	0	144621.19	144620.95	-9.805485e-05	654983.9	206065.17	-0.00030186816	206065.66	654983	-0.00031136087
0	0.6145514	0.6145505	6.156008e-11	0.023688078	0.023688078	0	144507.38	144507.14	1.5943877e-05	655250.94	205120.58	1.04419805e-05	205121.08	655250.06	8.7332926e-05
0	0.6140648	0.6140638	-2.6434624e-10	0.023334512	0.02333451	0	144392.94	144392.72	-6.242028e-05	655518.7	204171.55	-0.00020314398	204172.05	655517.75	-0.00020124545
0	0.61357325	0.6135723	1.2855193e-10	0.022980949	0.022980949	0	144277.38	144277.14	2.9336734e-05	655786.94	203215.14	-3.892011e-05	203215.69	655786	0.00024301336
0	0.61307853	0.61307746	-1.8468024e-10	0.022627436	0.022627436	0	144161.02	144160.78	-4.1214924e-05	656055.44	202253.81	-0.00019744836	202254.36	656054.6	-3.4173754e-05
0	0.6125814	0.61258036	-3.9470877e-10	0.022273868	0.022273868	0	144044.12	144043.88	-9.725765e-05	656324.06	201289.3	-0.00033888975	201289.84	656323.1	-0.00022782503
0	0.6120801	0.6120791	-1.2493076e-10	0.021920316	0.021920316	0	143926.28	143926.02	-2.7742348e-05	656593.1	200318.47	-0.00021453523	200319.05	656592.25	5.6956258e-05
0	0.61157495	0.6115739	-1.5208962e-10	0.021566752	0.021566752	0	143807.48	143807.23	-3.7149235e-05	656862.7	199341.69	-0.00018890492	199342.27	656861.8	-3.037667e-05
0	0.6110654	0.6110644	-6.880244e-11	0.021213181	0.021213181	0	143687.67	143687.4	-1.674107e-05	657133.3	198357.67	-4.746355e-06	198358.25	657132.4	-0.000106318344
0	0.6105528	0.6105517	-1.1044603e-10	0.020859627	0.020859627	0	143567.12	143566.88	-2.8061224e-05	657403.6	197369.69	-0.00022023087	197370.28	657402.7	4.5565004e-05
0	0.6100358	0.61003476	2.3899796e-10	0.020506116	0.020506116	0	143445.56	143445.31	5.628189e-05	657674.94	196374.6	9.587637e-05	196375.22	657674	0.00025440461
0	0.60951287	0.60951173	-2.2270265e-10	0.020152561	0.020152561	0	143322.61	143322.34	-5.4209184e-05	657949.56	195367.9	-0.0002316221	195368.52	657948.56	-7.214459e-05
0	0.6089905	0.60898936	-1.7924848e-10	0.019798992	0.019798992	0	143199.77	143199.48	-4.7193877e-05	658218.75	194367.31	-0.00015947752	194367.94	658217.75	-0.000113912516
0	0.6084616	0.6084605	-2.0097557e-10	0.019445427	0.019445427	0	143075.4	143075.16	-4.7512756e-05	658491.4	193354.27	-0.00013859356	193354.9	658490.44	-0.00015947752
0	0.6079285	0.60792726	-4.4902648e-10	0.019091872	0.019091872	0	142950.03	142949.73	-0.00010698342	658764.56	192334.56	-0.00039109963	192335.22	658763.56	-0.00022402794
0	0.6073908	0.6073897	-3.928982e-10	0.018738307	0.018738303	0	142823.62	142823.34	-9.375e-05	659040.8	191305.75	-0.00032465067	191306.4	659039.75	-0.00022782503
0	0.6068522	0.6068509	-2.0097557e-10	0.018384786	0.018384788	0	142696.95	142696.7	-4.3686225e-05	659311.94	190280.42	-0.00026579588	190281.12	659310.94	-1.1391251e-05
0	0.60630506	0.60630375	-6.355173e-10	0.018031232	0.018031232	0	142568.3	142568	-0.00015066964	659589.25	189237.02	-0.0005714611	189237.72	659588.25	-0.00030376672
0	0.6057579	0.60575676	-2.6253566e-10	0.017677667	0.017677667	0	142439.66	142439.38	-6.154337e-05	659861.4	188199	-0.00027718712	188199.73	659860.4	-0.000110115434
0	0.60520434	0.60520315	-4.0919348e-10	0.0173241	0.0173241	0	142309.48	142309.2	-9.86926e-05	660136.8	187148.53	-0.00042622266	187149.3	660135.9	-0.0001404921
0	0.6046468	0.6046455	-4.3092058e-10	0.016970549	0.016970547	0	142178.38	142178.08	-0.00010331633	660413.2	186091.6	-0.00029712182	186092.36	660412.2	-0.00029617254
0	0.60408366	0.6040825	-2.2903972e-10	0.016617022	0.016617022	0	142045.98	142045.69	-5.452806e-05	660689.94	185026.5	-0.00013289794	185027.25	660688.94	-0.00019365127
0	0.6035186	0.6035173	-5.612831e-11	0.016263476	0.016263476	0	141913.08	141912.78	-1.6422195e-05	660966.25	183958.98	-1.3289793e-05	183959.73	660965.25	-8.3535844e-05
0	0.6029453	0.602944	-2.4261915e-10	0.01590991	0.01590991	0	141778.3	141777.98	-5.1658164e-05	661246.75	182876.03	-0.00020694107	182876.81	661245.6	-0.000106318344
0	0.60236984	0.6023686	-4.7437476e-10	0.015556336	0.015556336	0	141642.97	141642.67	-0.00011415816	661524.6	181792.38	-0.00031325943	181793.19	661523.7	-0.00033414338
0	0.6017914	0.60179013	-5.250713e-10	0.015202791	0.015202791	0	141506.95	141506.64	-0.00012117347	661800.4	180706.72	-0.0005372874	180707.55	661799.44	-0.00022402794
0	0.6012051	0.60120374	-4.2186762e-10	0.014849227	0.014849227	0	141369.08	141368.77	-9.725765e-05	662082.44	179603.88	-0.0003170565	179604.69	662081.3	-0.00023921629
0	0.60061765	0.60061634	2.3537679e-11	0.014495695	0.014495695	0	141230.95	141230.64	8.450255e-06	662359.2	178504.58	-6.3601154e-05	178505.42	662358.2	0.00013669502
0	0.6000239	0.60002255	-6.6810796e-10	0.014142146	0.014142146	0	141091.34	141091.02	-0.00016007652	662638.8	177393.81	-0.00040438943	177394.66	662637.75	-0.0005695626
0	0.59942436	0.59942305	-3.485387e-10	0.013788582	0.013788582	0	140950.36	140950.03	-8.5459185e-05	662920	176273.27	-0.00033509266	176274.14	662918.94	-0.00015568043
0	0.59881896	0.59881747	2.896945e-11	0.013435017	0.013435017	0	140807.98	140807.66	6.377551e-06	663203.8	175141.7	-0.00010441981	175142.58	663202.75	0.00015568043
0	0.59821033	0.5982089	-1.158778e-10	0.0130814705	0.0130814705	0	140664.89	140664.56	-2.5669642e-05	663485.5	174008.06	-0.00015757898	174008.95	663484.5	-1.5188335e-05
0	0.5975988	0.5975974	-4.4902648e-10	0.0127279265	0.012727927	0	140521.08	140520.77	-0.000107780616	663764.6	172872.78	-0.00029617254	172873.7	663763.56	-0.0003493317
0	0.5969791	0.59697765	-3.7298167e-10	0.012374364	0.012374364	0	140375.36	140375.03	-8.80102e-05	664048	171721.78	-0.00023731774	171722.7	664046.94	-0.00029617254
0	0.59635377	0.5963524	-1.3398371e-10	0.012020823	0.012020823	0	140228.34	140228.02	-3.093112e-05	664333.94	170560.52	-0.0001177096	170561.45	664332.8	-6.834751e-05
0	0.595726	0.5957246	-3.3314868e-10	0.011667255	0.011667255	0	140080.73	140080.38	-8.290816e-05	664615.25	169400.27	-0.00040723724	169401.23	664614.2	-6.075334e-05
0	0.5950915	0.59509003	-7.966599e-11	0.011313718	0.011313718	0	139931.52	139931.17	-1.8494899e-05	664900.06	168227.02	-0.0001404921	168227.97	664899	6.4550426e-05
0	0.5944521	0.5944506	-2.896945e-11	0.010960158	0.010960158	0	139781.17	139780.81	-6.0586735e-06	665184.56	167047.36	-3.3224485e-05	167048.36	665183.56	3.037667e-05
0	0.5938062	0.5938048	2.4669298e-11	0.010606591	0.010606591	0	139629.28	139628.94	3.4279337e-06	665470.8	165856.9	-5.980407e-05	165857.92	665469.75	0.00012910085
0	0.5931537	0.5931522	-6.735397e-10	0.010253058	0.010253058	0	139475.86	139475.52	-0.00015752552	665759.75	164654.38	-0.00054108445	164655.4	665758.7	-0.00041767923
0	0.5924975	0.59249604	-2.136497e-10	0.009899497	0.009899496	0	139321.58	139321.2	-4.559949e-05	666046.6	163448.88	-0.000248709	163449.92	666045.56	-4.1767922e-05
0	0.59183544	0.59183383	-6.9934065e-11	0.009545936	0.009545936	0	139165.88	139165.52	-1.7219389e-05	666334.3	162234.25	-8.6383654e-05	162235.28	666333.2	-7.5941675e-06
0	0.5911693	0.59116775	7.083936e-11	0.009192393	0.009192394	0	139009.25	139008.89	1.6581633e-05	666619.5	161016.44	-3.132594e-05	161017.5	666618.4	0.00015188336
0	0.5904955	0.590494	-1.9916498e-10	0.008838833	0.008838833	0	138850.81	138850.45	-4.655612e-05	666908.7	159784.05	-0.00012150668	159785.16	666907.56	-0.00017086878
0	0.589816	0.5898144	-4.0195114e-10	0.008485273	0.008485273	0	138691.02	138690.64	-9.247449e-05	667198.06	158543.14	-0.0002743393	158544.22	667196.94	-0.0002582017
0	0.5891284	0.5891269	-4.635112e-10	0.008131738	0.008131738	0	138529.33	138528.97	-0.000102040816	667491	157287.72	-0.00030851306	157288.83	667489.9	-0.00033794047
0	0.5884366	0.588435	-1.5933198e-10	0.007778168	0.007778168	0	138366.66	138366.3	-3.9859693e-05	667781.7	156028.36	-0.00021643378	156029.47	667780.6	7.5941675e-06
0	0.5877404	0.5877388	1.158778e-10	0.0074246135	0.0074246135	0	138202.95	138202.58	2.5031888e-05	668070.44	154765.02	3.797084e-05	154766.17	668069.3	0.00014428918
0	0.5870365	0.5870349	-4.0195114e-10	0.007071073	0.007071073	0	138037.44	138037.06	-9.375e-05	668362.1	153487.8	-0.00041957776	153488.95	668361	-0.00014428918