# t (s)	mx ()	my ()	mz ()	B_extx (T)	B_exty (T)	B_extz (T)	m_fullx (A/m)	m_fully (A/m)	m_fullz (A/m)	m_full.region1x (A/m)	m_full.region1y (A/m)	m_full.region1z (A/m)	m_full.region2x (A/m)	m_full.region2y (A/m)	m_full.region2z (A/m)
0	0.6291354	0.62913346	-3.5647174e-10	0.07071089	0.07071089	0	74138.12	74137.89	-4.0816325e-05	664586.56	216200.47	-0.00022056843	216202.88	664586.44	-0.0002710803
0	0.62881833	0.6288158	-4.3996962e-10	0.070357256	0.070357256	0	74100.75	74100.46	-5.2154195e-05	664801	215541.66	-0.00025087554	215544.73	664800.56	-0.00037547146
0	0.6284963	0.6284937	-1.6057286e-10	0.07000352	0.07000352	0	74062.8	74062.5	-1.8707484e-05	665017.4	214874.23	-0.00011617726	214877.33	665017	-9.597252e-05
0	0.6281705	0.6281679	-2.633395e-10	0.069649905	0.069649905	0	74024.414	74024.11	-3.1179137e-05	665235.1	214200.47	-0.00028118264	214203.56	665234.7	-0.00012627963
0	0.6278472	0.62784463	-4.046436e-10	0.0692966	0.06929659	0	73986.305	73986.016	-5.0453516e-05	665450.3	213532.64	-0.00043103448	213535.73	665449.9	-0.00017005658
0	0.6275188	0.6275163	-2.8581967e-10	0.06894301	0.06894301	0	73947.62	73947.32	-3.713152e-05	665667.6	212855.6	-0.00016332166	212858.7	665667.2	-0.00026266163
0	0.6271912	0.6271887	-3.7252904e-10	0.068589255	0.068589255	0	73909.01	73908.7	-4.2517007e-05	665883.5	212181.11	-0.0002424569	212184.2	665883.06	-0.00031654094
0	0.62686	0.6268575	-1.8305306e-10	0.06823564	0.06823564	0	73869.98	73869.69	-2.154195e-05	666100.44	211500.53	-8.4186424e-05	211503.61	666100	-0.00019194504
0	0.6265282	0.62652564	-3.6289466e-10	0.06788234	0.06788234	0	73830.87	73830.58	-3.9115646e-05	666316.7	210819.7	-0.0002710803	210822.78	666316.25	-0.00021214978
0	0.6261932	0.62619066	-3.1793426e-10	0.067528725	0.067528725	0	73791.4	73791.1	-3.7414968e-05	666533.9	210133.5	-0.0001717403	210136.61	666533.44	-0.00028118264
0	0.6258574	0.62585497	-3.1151134e-10	0.06717498	0.06717498	0	73751.836	73751.54	-3.6848072e-05	666750.4	209446.88	-0.00035695042	209449.98	666750.06	-9.428879e-05
0	0.62551963	0.62551713	-4.8493004e-10	0.06682179	0.06682179	0	73712.02	73711.734	-5.5555556e-05	666967.06	208757.27	-0.00043440194	208760.38	666966.7	-0.00029633622
0	0.62517935	0.62517685	-2.8260824e-10	0.06646817	0.06646817	0	73671.93	73671.63	-3.3163265e-05	667184.3	208063.69	-0.00022561962	208066.81	667183.9	-0.00017342404
0	0.62483793	0.6248355	-3.6289466e-10	0.066114426	0.066114426	0	73631.695	73631.4	-4.3650794e-05	667401.06	207368.94	-0.00023572198	207372.05	667400.75	-0.00029465248
0	0.6244945	0.6244921	-1.348812e-10	0.065760836	0.06576083	0	73591.23	73590.94	-1.5873016e-05	667618	206671.28	-0.00013806573	206674.39	667617.56	-2.0204741e-05
0	0.6241489	0.62414646	-2.7618532e-10	0.0654075	0.0654075	0	73550.5	73550.2	-3.45805e-05	667835.06	205970.36	-0.00035021553	205973.47	667834.6	-6.0614224e-05
0	0.62380195	0.62379956	-3.1793426e-10	0.065053925	0.06505393	0	73509.62	73509.32	-3.7414968e-05	668051.75	205267.89	-0.00027613147	205270.98	668051.44	-0.0001835264
0	0.62345237	0.6234499	-4.3354673e-10	0.06470018	0.06470018	0	73468.42	73468.13	-5.3287982e-05	668269.06	204561.22	-0.00035189925	204564.3	668268.6	-0.00032664332
0	0.6231015	0.623099	-3.596832e-10	0.064346574	0.06434657	0	73427.08	73426.79	-4.1950112e-05	668485.9	203853.16	-0.00036873654	203856.28	668485.5	-0.00015153555
0	0.62274843	0.62274593	3.2114571e-12	0.06399324	0.06399324	0	73385.46	73385.164	-2.2675738e-06	668703	203141.62	-8.4186424e-05	203144.72	668702.6	7.745151e-05
0	0.62239355	0.6223911	-2.9545405e-10	0.06363964	0.06363963	0	73343.64	73343.34	-3.5147394e-05	668919.9	202427.94	-0.00016837285	202431.05	668919.56	-0.0002660291
0	0.6220371	0.6220346	-7.193664e-10	0.0632859	0.0632859	0	73301.64	73301.36	-8.4750565e-05	669136.6	201712.25	-0.00047481142	201715.36	669136.25	-0.0005758351
0	0.6216781	0.6216756	-4.5281545e-10	0.062932685	0.062932685	0	73259.336	73259.05	-5.3287982e-05	669353.6	200992.53	-0.0002828664	200995.62	669353.3	-0.0003552667
0	0.62131613	0.6213137	-3.0187697e-10	0.06257909	0.06257909	0	73216.68	73216.4	-3.2312924e-05	669571.25	200268.23	-0.00038052263	200271.36	669570.94	-3.367457e-05
0	0.62095493	0.6209525	-4.4318108e-10	0.062225346	0.06222535	0	73174.11	73173.836	-4.931973e-05	669787.25	199546.6	-0.00031654094	199549.69	669786.94	-0.00030475485
0	0.62059087	0.6205884	-1.5414994e-10	0.06187176	0.06187176	0	73131.23	73130.94	-1.4172336e-05	670003.6	198820.5	-0.00032327586	198823.61	670003.3	0.00010102371
0	0.6202236	0.6202211	-3.4683736e-10	0.061518397	0.061518397	0	73087.94	73087.65	-4.1666666e-05	670220.8	198089.08	-0.00025929417	198092.19	670220.5	-0.00023235452
0	0.61985487	0.6198524	-1.7341868e-10	0.06116484	0.061164834	0	73044.48	73044.195	-1.8707484e-05	670437.56	197356.11	-0.0002710803	197359.22	670437.25	3.7042028e-05
0	0.6194841	0.61948174	-1.6057286e-10	0.060811106	0.0608111	0	73000.805	73000.516	-1.7573697e-05	670654.2	196620.53	-0.00017005658	196623.61	670653.9	-3.0307112e-05
0	0.6191122	0.61910987	-4.0143214e-10	0.06045751	0.060457513	0	72956.97	72956.69	-4.4217686e-05	670870.4	195883.61	-0.00026939655	195886.7	670870.1	-0.00029801994
0	0.6187371	0.61873466	-1.7663014e-10	0.06010415	0.06010415	0	72912.766	72912.48	-2.5226758e-05	671087.2	195141.62	-0.00016837285	195144.72	671086.9	-0.000136382
0	0.6183593	0.6183568	-3.2114572e-10	0.05975055	0.05975055	0	72868.24	72867.96	-3.628118e-05	671304.25	194395.78	-0.00023908944	194398.88	671303.9	-0.00021383351
0	0.617977	0.6179746	-4.9135296e-10	0.059396822	0.059396822	0	72823.18	72822.91	-5.6689343e-05	671522.56	193642.17	-0.00035021553	193645.23	671522.2	-0.00034684807
0	0.6176007	0.6175983	-3.2435718e-10	0.05904359	0.059043594	0	72778.84	72778.56	-3.854875e-05	671736.25	192901.66	-0.00026266163	192904.75	671735.94	-0.00017847521
0	0.6172174	0.61721504	-1.1561246e-10	0.058689993	0.058689993	0	72733.69	72733.41	-1.1337868e-05	671952.56	192148.75	-8.755388e-05	192151.83	671952.25	-5.724677e-05
0	0.61683095	0.6168286	-4.5923837e-10	0.05833626	0.058336265	0	72688.15	72687.86	-5.3287982e-05	672169.4	191390.88	-0.00033337824	191393.95	672169.1	-0.00032159215
0	0.6164452	0.61644274	-1.3809266e-10	0.05798269	0.05798269	0	72642.68	72642.4	-1.814059e-05	672384.56	190635.55	-7.4084055e-05	190638.64	672384.4	-0.00014648438
0	0.6160535	0.6160512	-2.537051e-10	0.057629295	0.057629295	0	72596.52	72596.24	-2.8911565e-05	672601.7	189870.12	-6.0614224e-05	189873.22	672601.44	-0.0002710803
0	0.61566335	0.615661	-2.6012803e-10	0.057275712	0.05727571	0	72550.555	72550.27	-2.8911565e-05	672816.7	189108.9	-0.00012796336	189112	672816.5	-0.0002188847
0	0.6152703	0.61526793	-3.9179776e-10	0.056922026	0.056922026	0	72504.24	72503.95	-4.5351473e-05	673032.1	188343.28	-0.00031654094	188346.36	673031.8	-0.00022225216
0	0.6148744	0.61487204	-1.7663014e-10	0.056568444	0.05656844	0	72457.586	72457.305	-1.9274376e-05	673247.6	187573.48	-0.00016163793	187576.55	673247.4	-6.229795e-05
0	0.61447656	0.6144742	-3.1151134e-10	0.056215044	0.056215044	0	72410.695	72410.42	-3.45805e-05	673462.94	186801.08	-0.0002491918	186804.16	673462.8	-0.0001835264
0	0.61407626	0.61407393	-2.24802e-10	0.05586147	0.05586147	0	72363.53	72363.25	-2.6927437e-05	673678.3	186025.4	-0.00022225216	186028.48	673678	-9.260506e-05
0	0.6136735	0.6136712	-1.9589888e-10	0.055507742	0.055507742	0	72316.06	72315.79	-2.3809524e-05	673893.5	185246.23	-0.00017847521	185249.3	673893.4	-0.00011954472
0	0.6132668	0.61326456	-1.3809266e-10	0.055154484	0.055154484	0	72268.15	72267.875	-1.643991e-05	674109.44	184461.16	-0.00010775862	184464.22	674109.25	-9.0921334e-05
0	0.6128617	0.61285937	-2.922426e-10	0.05480091	0.05480091	0	72220.4	72220.125	-3.1746033e-05	674323.44	183679.9	-0.00031654094	183682.95	674323.25	-0.0001245959
0	0.61245245	0.6124501	-5.074102e-10	0.054447185	0.05444718	0	72172.17	72171.9	-5.7256235e-05	674538.06	182892.27	-0.0003737877	182895.33	674537.9	-0.0003384294
0	0.6120411	0.61203885	-3.9179776e-10	0.054093618	0.05409362	0	72123.7	72123.43	-4.30839e-05	674752.5	182102.03	-0.00022898708	182105.08	674752.3	-0.00032327586
0	0.61162746	0.61162513	-2.986655e-10	0.05374019	0.05374019	0	72074.96	72074.68	-3.7698414e-05	674966.8	181308.61	-0.00025592672	181311.64	674966.7	-0.0002070986
0	0.6112111	0.61120886	-1.4130412e-10	0.053386625	0.05338663	0	72025.89	72025.625	-1.5873016e-05	675181	180511.52	-0.00012122845	180514.55	675180.9	-8.2502695e-05
0	0.6107927	0.61079043	-3.6931758e-10	0.053032946	0.053032942	0	71976.59	71976.32	-4.5351473e-05	675394.94	179711.83	-0.00023572198	179714.88	675394.8	-0.00032832703
0	0.61037254	0.6103703	1.7341868e-10	0.05267938	0.05267938	0	71927.08	71926.81	1.9841269e-05	675608.4	178910.17	6.398168e-05	178913.22	675608.25	0.00017005658
0	0.60994875	0.6099464	-3.147228e-10	0.052325934	0.052325934	0	71877.125	71876.87	-4.0816325e-05	675822.4	178102.8	-0.00020541486	178105.83	675822.2	-0.00026939655
0	0.6095223	0.60951996	-2.9545405e-10	0.051972385	0.051972385	0	71826.87	71826.61	-3.3163265e-05	676036.1	177291.94	-0.0002491918	177295	676036	-0.00018521013
0	0.6090954	0.60909307	-3.37203e-10	0.05161866	0.05161866	0	71776.57	71776.305	-4.053288e-05	676248.75	176481.72	-0.00023235452	176484.77	676248.7	-0.00026266163
0	0.60866505	0.6086628	-1.2524683e-10	0.051265374	0.051265374	0	71725.87	71725.6	-1.8707484e-05	676461.7	175666.34	-0.0001245959	175669.38	676461.56	-6.398168e-05
0	0.6082321	0.6082299	-4.8493004e-10	0.050911814	0.050911807	0	71674.85	71674.58	-5.7256235e-05	676674.44	174847.42	-0.00035021553	174850.45	676674.3	-0.0003367457
0	0.6077969	0.60779464	-3.3399156e-10	0.050558098	0.050558098	0	71623.555	71623.29	-3.88322e-05	676887	174025.64	-0.00020878232	174028.64	676886.8	-0.00026939655
0	0.6073594	0.6073571	-5.780623e-11	0.05020456	0.05020456	0	71572.01	71571.74	-3.1179138e-06	677099.1	173201	-0.00010439116	173204.03	677099.06	2.8623384e-05
0	0.60691917	0.60691696	-3.1793426e-10	0.04985108	0.04985108	0	71520.125	71519.87	-4.138322e-05	677311.06	172372.72	-0.00025929417	172375.75	677311.06	-0.00024077317
0	0.60647714	0.60647494	-1.3809266e-10	0.049497537	0.049497537	0	71468.04	71467.78	-1.1904762e-05	677522.56	171542.45	-0.00017510777	171545.47	677522.56	1.0102371e-05
0	0.6060313	0.6060291	-1.2845829e-10	0.049143862	0.049143862	0	71415.5	71415.24	-1.643991e-05	677734.3	170706.5	-0.00013806573	170709.5	677734.25	-5.556304e-05
0	0.6055812	0.60557896	-2.3443636e-10	0.04879033	0.048790324	0	71362.46	71362.195	-2.8911565e-05	677946.6	169864.02	-0.0003367457	169867.03	677946.56	1.0102371e-05
0	0.6051334	0.60513127	-1.6057286e-10	0.048436828	0.048436828	0	71309.695	71309.44	-1.9557823e-05	678156.4	169027.44	-0.00020204742	169030.4	678156.4	-2.6939655e-05
0	0.6046814	0.6046793	-2.1195617e-10	0.048083298	0.048083298	0	71256.43	71256.17	-2.7210885e-05	678366.6	168184.33	-0.00018521013	168187.34	678366.56	-0.00011786099
0	0.6042263	0.6042242	-3.757405e-10	0.04772959	0.04772959	0	71202.79	71202.53	-4.1950112e-05	678576.94	167336.9	-0.00023572198	167339.9	678576.94	-0.0003013874
0	0.60376835	0.6037662	-4.046436e-10	0.047376268	0.047376264	0	71148.83	71148.58	-4.563492e-05	678786.9	166485.81	-0.0002424569	166488.78	678786.9	-0.00033001078
0	0.60330814	0.60330606	-1.2845829e-10	0.04702273	0.047022723	0	71094.59	71094.34	-1.4172336e-05	678996.5	165631.97	-7.4084055e-05	165634.97	678996.5	-9.344693e-05
0	0.60284513	0.60284305	-3.2435718e-10	0.04666901	0.046669014	0	71040.03	71039.79	-3.6848072e-05	679205.75	164774.48	-0.00027949893	164777.45	679205.75	-0.00015827047
0	0.6023797	0.6023776	-2.3122491e-10	0.046315502	0.0463155	0	70985.19	70984.945	-3.0328798e-05	679414.6	163913.95	-0.0002424569	163916.94	679414.6	-9.428879e-05
0	0.6019113	0.60190916	-9.634372e-11	0.045961965	0.045961965	0	70930	70929.74	-1.3888889e-05	679623.25	163049.61	-7.4084055e-05	163052.6	679623.3	-8.4186424e-05
0	0.60143954	0.60143745	-1.2203537e-10	0.045608446	0.045608446	0	70874.4	70874.15	-1.6723356e-05	679831.9	162180.53	-0.00019194504	162183.48	679831.8	-1.2627964e-05
0	0.60096705	0.60096496	-1.3809266e-10	0.04525478	0.04525478	0	70818.72	70818.47	-1.899093e-05	680039.3	161311.62	-2.0204741e-05	161314.56	680039.3	-0.00021383351
0	0.60049057	0.60048854	-3.596832e-10	0.044901267	0.044901267	0	70762.57	70762.33	-4.4217686e-05	680246.8	160437.12	-0.00026266163	160440.05	680246.8	-0.00025508486
0	0.60001165	0.6000095	-1.798416e-10	0.044547718	0.044547718	0	70706.13	70705.89	-2.0408163e-05	680453.94	159559.39	-0.0002660291	159562.33	680453.94	1.5153556e-05
0	0.59953	0.5995279	-4.720842e-10	0.044194214	0.044194214	0	70649.37	70649.125	-6.0090704e-05	680660.75	158678.28	-0.00029970365	158681.22	680660.75	-0.00042261585
0	0.5990413	0.5990392	-3.211457e-11	0.04384051	0.043840513	0	70591.78	70591.55	2.8344672e-07	680868.75	157786.16	-3.7042028e-05	157789.08	680868.8	1.6837284e-05
0	0.5985581	0.5985561	-1.4451557e-10	0.043486997	0.043486997	0	70534.85	70534.61	-1.6723356e-05	681072.94	156905.55	-0.00018857759	156908.45	681073	-1.8521014e-05
0	0.59806794	0.5980659	-2.7618532e-10	0.043133635	0.043133635	0	70477.09	70476.86	-3.5714285e-05	681278.5	156013.78	-0.0001953125	156016.69	681278.5	-0.00021635911
0	0.5975751	0.5975731	-5.5237065e-10	0.04277993	0.04277993	0	70419.016	70418.766	-6.7460314e-05	681483.56	155118.67	-0.0004680765	155121.58	681483.56	-0.00035695042
0	0.59707963	0.59707755	-1.348812e-10	0.04242643	0.04242643	0	70360.62	70360.375	-1.7573697e-05	681688.2	154220.33	-0.0001717403	154223.23	681688.25	-2.3572198e-05
0	0.59658116	0.596579	-3.7252904e-10	0.04207285	0.04207285	0	70301.87	70301.63	-4.591837e-05	681892.3	153318.3	-0.000390625	153321.2	681892.44	-0.00017679148
0	0.59607977	0.5960778	-8.028643e-11	0.04171935	0.04171935	0	70242.8	70242.56	-1.0204081e-05	682096	152412.78	-6.398168e-05	152415.67	682096.1	-2.778152e-05
0	0.5955755	0.59557354	-9.313226e-11	0.041365705	0.041365705	0	70183.38	70183.14	-9.637188e-06	682299.25	151503.61	-8.0818965e-05	151506.52	682299.4	-5.724677e-05
0	0.59506756	0.5950656	-5.106217e-10	0.041012216	0.041012216	0	70123.516	70123.29	-6.094104e-05	682502.3	150589.4	-0.00038725755	150592.27	682502.44	-0.00034011315
0	0.5945584	0.59455645	-3.596832e-10	0.0406586	0.040658604	0	70063.516	70063.28	-4.563492e-05	682704.25	149674.66	-0.000254243	149677.52	682704.4	-0.00028118264
0	0.5940452	0.59404325	-1.9268743e-11	0.04030513	0.04030513	0	70003.05	70002.82	-5.668934e-06	682906.1	148754.4	-0.00015153555	148757.27	682906.1	0.00011786099
0	0.5935294	0.59352756	-1.0597809e-10	0.039951432	0.039951432	0	69942.27	69942.04	-1.1904762e-05	683107.25	147831.16	-4.8828126e-05	147834	683107.44	-9.765625e-05
0	0.5930103	0.5930084	1.0597809e-10	0.03959796	0.03959796	0	69881.086	69880.86	1.1337868e-05	683308.06	146903.53	5.556304e-05	146906.38	683308.2	0.00012291217
0	0.5924884	0.59248644	-2.24802e-10	0.039244544	0.039244544	0	69819.586	69819.36	-2.6643991e-05	683508.3	145972.62	-0.0002424569	145975.45	683508.44	-0.00010439116
0	0.5919636	0.5919616	-4.7529564e-10	0.03889085	0.03889085	0	69757.734	69757.51	-5.8673468e-05	683707.94	145038.2	-0.00057751883	145041.03	683708	-0.00014480065
0	0.59143543	0.5914336	-2.1837909e-10	0.03853738	0.03853738	0	69695.51	69695.29	-3.0612246e-05	683907	144099.86	-0.0002424569	144102.67	683907.2	-0.000118702854
0	0.5909	0.59089816	-3.4683736e-10	0.038183726	0.038183726	0	69632.414	69632.19	-4.138322e-05	684107.1	143150.06	-0.0005152209	143152.86	684107.4	6.7349138e-06
0	0.5903703	0.5903684	-2.4407074e-10	0.037830263	0.037830263	0	69569.984	69569.766	-2.5226758e-05	684303.56	142212.08	-0.00024077317	142214.88	684303.75	-6.398168e-05
0	0.58983207	0.5898302	-1.8626452e-10	0.037476573	0.037476573	0	69506.56	69506.34	-2.0408163e-05	684501.25	141260.88	-0.00025929417	141263.67	684501.5	1.1786099e-05
0	0.58929247	0.5892906	-1.9268744e-10	0.037123173	0.037123173	0	69442.97	69442.76	-2.4659865e-05	684697.75	140308.9	-0.00011112608	140311.69	684697.94	-0.00019194504
0	0.5887487	0.5887469	-4.3996962e-10	0.036769487	0.03676949	0	69378.89	69378.68	-4.8752834e-05	684893.94	139351.47	-0.00040072738	139354.25	684894.2	-0.00021046605
0	0.5881979	0.58819604	-4.7529564e-10	0.036416043	0.036416043	0	69313.984	69313.77	-5.6689343e-05	685091	138383.23	-0.000508486	138385.98	685091.2	-0.000186052
0	0.58765256	0.5876508	-1.9268744e-10	0.036062352	0.036062356	0	69249.72	69249.51	-1.899093e-05	685284.3	137426.5	-0.00015490301	137429.23	685284.56	-0.0001035493
0	0.5870995	0.58709764	-1.3166974e-10	0.035708904	0.035708904	0	69184.55	69184.336	-2.0408163e-05	685478.56	136457.94	-0.00020541486	136460.66	685478.8	-1.1786099e-05
0	0.586543	0.58654124	-8.028643e-11	0.035355445	0.035355445	0	69118.98	69118.766	-1.0770975e-05	685672.25	135485.23	-2.6939655e-05	135487.98	685672.44	-8.755388e-05
0	0.58598316	0.58598137	-2.4407074e-10	0.03500176	0.03500176	0	69053.01	69052.79	-3.0328798e-05	685865.2	134508.5	-0.00030980603	134511.23	685865.44	-7.4084055e-05
0	0.5854208	0.58541906	-3.9179776e-10	0.0346483	0.034648295	0	68986.734	68986.52	-4.5351473e-05	686057.3	133529.11	-0.000390625	133531.81	686057.56	-0.0001717403
0	0.584853	0.5848512	-3.211457e-11	0.034294628	0.034294628	0	68919.83	68919.62	-5.3854874e-06	686249.4	132542.11	-6.398168e-05	132544.8	686249.6	0
0	0.5842836	0.58428186	-2.3764782e-10	0.03394117	0.03394117	0	68852.72	68852.516	-3.0328798e-05	686440.2	131554.17	-0.00012122845	131556.88	686440.44	-0.00023067079
0	0.5837122	0.58371055	-1.8305306e-10	0.03358749	0.03358749	0	68785.39	68785.195	-1.899093e-05	686629.9	130564.63	-0.00019783809	130567.31	686630.1	-6.4823544e-05
0	0.583136	0.5831343	-2.1195617e-10	0.033234086	0.033234086	0	68717.484	68717.29	-2.4376417e-05	686819.2	129568.56	-4.0409483e-05	129571.23	686819.5	-0.00025592672
0	0.5825566	0.5825549	-5.780623e-11	0.032880418	0.032880414	0	68649.2	68649.01	-5.1020406e-06	687007.8	128568.76	-0.00015490301	128571.42	687008.1	8.4186424e-05
0	0.58197373	0.58197206	-5.4273624e-10	0.032526962	0.032526966	0	68580.52	68580.33	-6.405896e-05	687195.7	127564.92	-0.0005051185	127567.57	687196	-0.0002896013
0	0.5813871	0.58138543	-5.8769667e-10	0.032173287	0.032173287	0	68511.4	68511.2	-6.972789e-05	687382.8	126556.555	-0.00055394665	126559.19	687383.06	-0.00028034078
0	0.5807973	0.58079565	-2.7939678e-10	0.03181982	0.031819817	0	68441.89	68441.695	-3.0045352e-05	687569.1	125544.555	-0.00016500539	125547.16	687569.3	-0.0002567686
0	0.58020383	0.5802022	-3.0829989e-10	0.031466343	0.031466343	0	68371.95	68371.766	-3.5714285e-05	687754.56	124528.14	-0.00015153555	124530.74	687755	-0.00028034078
0	0.5796071	0.5796056	-2.5049365e-10	0.031112673	0.031112673	0	68301.65	68301.46	-3.0612246e-05	687939.1	123508.25	-0.00023235452	123510.83	687939.5	-0.0001414332
0	0.57900536	0.5790038	-4.1748945e-11	0.030759199	0.030759199	0	68230.734	68230.54	-6.802721e-06	688123.44	122481.49	-0.00013133082	122484.07	688123.8	2.0204741e-05
0	0.57840246	0.5784009	-1.7663014e-10	0.030405553	0.03040555	0	68159.68	68159.484	-2.0975056e-05	688306.2	121454.734	-0.00022225216	121457.3	688306.5	-6.4823544e-05
0	0.57779497	0.5777934	-3.37203e-10	0.030052075	0.030052075	0	68088.1	68087.914	-4.0816325e-05	688488.3	120422.164	-0.00033001078	120424.72	688488.7	-0.00016837285
0	0.5771838	0.57718223	-1.3809266e-10	0.029698411	0.029698411	0	68016.07	68015.88	-1.899093e-05	688669.56	119385.17	-0.00030980603	119387.71	688669.9	9.0921334e-05
0	0.57656896	0.5765675	-1.1882391e-10	0.029344996	0.029344998	0	67943.625	67943.44	-1.3605442e-05	688850	118344.055	-0.00022898708	118346.59	688850.4	5.724677e-05
0	0.5759511	0.5759495	-1.4130412e-10	0.028991345	0.028991345	0	67870.8	67870.625	-1.7573697e-05	689029.3	117299.64	-0.00013806573	117302.164	689029.6	-7.4084055e-05
0	0.57532895	0.57532746	-2.1837909e-10	0.028637856	0.028637854	0	67797.49	67797.32	-2.239229e-05	689207.8	116250.18	-0.0001717403	116252.7	689208.25	-0.00011617726
0	0.5747025	0.574701	1.6057286e-10	0.028284222	0.028284222	0	67723.68	67723.5	2.0124717e-05	689385.6	115195.44	-0.00010439116	115197.94	689386	0.00035610856
0	0.57407314	0.57407165	-3.9500922e-10	0.027930735	0.027930735	0	67649.5	67649.34	-5.0736962e-05	689562.2	114137.695	-0.0003316945	114140.164	689562.7	-0.00023740571
0	0.5734397	0.5734382	-1.0597809e-10	0.027577242	0.027577242	0	67574.87	67574.695	-1.2755102e-05	689738	113075.17	-0.00023572198	113077.63	689738.44	0.00010607489
0	0.57280236	0.57280093	-2.1837909e-10	0.027223593	0.027223593	0	67499.76	67499.59	-2.579365e-05	689912.7	112008.14	-0.00025929417	112010.586	689913.2	-5.724677e-05
0	0.5721617	0.5721603	-3.821634e-10	0.026870094	0.026870094	0	67424.26	67424.09	-4.5351473e-05	690086.4	110937.51	-0.00020878232	110939.93	690086.8	-0.0003316945
0	0.57151645	0.5715151	-3.2114572e-10	0.026516473	0.026516471	0	67348.23	67348.06	-3.9115646e-05	690259.2	109861.445	-0.00029465248	109863.86	690259.7	-0.00019783809
0	0.57086784	0.5708665	-5.7163935e-10	0.026162967	0.026162967	0	67271.8	67271.63	-6.519274e-05	690430.9	108781.67	-0.0004849138	108784.07	690431.4	-0.00031654094
0	0.5702156	0.5702142	-3.0187697e-10	0.02580933	0.02580933	0	67194.93	67194.766	-3.45805e-05	690601.5	107698.02	-0.0003838901	107700.414	690601.9	-6.566541e-05
0	0.5695589	0.5695576	-1.5414994e-10	0.025455909	0.025455907	0	67117.55	67117.38	-1.9841269e-05	690771.06	106609.08	-0.00027949893	106611.44	690771.5	7.9135236e-05
0	0.56889737	0.56889606	-5.4594773e-10	0.02510228	0.02510228	0	67039.59	67039.44	-6.7460314e-05	690939.7	105514.26	-0.0003199084	105516.62	690940.25	-0.00047144396
0	0.5682335	0.5682321	-2.5691657e-10	0.024748769	0.024748769	0	66961.35	66961.195	-3.089569e-05	691107.06	104417.445	-0.00044450432	104419.79	691107.5	5.724677e-05
0	0.5675658	0.56756455	-5.009873e-10	0.024395164	0.024395162	0	66882.67	66882.52	-6.094104e-05	691273.2	103316.66	-0.00035358296	103318.97	691273.6	-0.00036789465
0	0.5668933	0.566892	-1.09189546e-10	0.024041647	0.024041649	0	66803.42	66803.27	-1.1904762e-05	691438.4	102209.945	-0.00017847521	102212.266	691438.8	1.767915e-05
0	0.5662167	0.5662155	-2.2801346e-10	0.023688134	0.023688132	0	66723.7	66723.555	-2.6643991e-05	691602.3	101098.836	-0.00025255926	101101.13	691602.9	-6.734914e-05
0	0.56553614	0.56553495	-2.7136812e-10	0.023334505	0.023334505	0	66643.49	66643.35	-3.2312924e-05	691765.1	99983.16	-0.0004259833	99985.44	691765.6	2.1046606e-05
0	0.56485134	0.5648501	-6.583487e-11	0.022980982	0.022980982	0	66562.8	66562.66	-8.219955e-06	691926.75	98862.85	-0.00016837285	98865.12	691927.3	9.260506e-05
0	0.56416214	0.56416094	-1.4772703e-10	0.022627389	0.02262739	0	66481.58	66481.44	-1.899093e-05	692087.25	97737.45	-0.00019194504	97739.69	692087.8	-1.8521014e-05
0	0.5634693	0.56346804	-5.298904e-10	0.022273859	0.022273859	0	66399.94	66399.8	-6.179138e-05	692246.44	96608.336	-0.00040746227	96610.56	692247	-0.00034768993
0	0.56277174	0.5627706	-2.649452e-10	0.021920256	0.021920254	0	66317.734	66317.6	-3.202948e-05	692404.44	95473.87	-0.00030980603	95476.086	692405	-7.4084055e-05
0	0.56207025	0.56206906	-2.3764782e-10	0.021566818	0.021566816	0	66235.07	66234.93	-3.0328798e-05	692561.2	94335.01	-0.00030980603	94337.195	692561.7	-3.2832704e-05
0	0.5613645	0.56136334	-3.2917435e-10	0.021213215	0.021213215	0	66151.91	66151.77	-3.798186e-05	692716.5	93191.62	-0.0005421606	93193.8	692717.1	5.387931e-05
0	0.5606543	0.56065315	-6.1338834e-10	0.020859675	0.02085968	0	66068.21	66068.08	-7.227891e-05	692870.6	92043.19	-0.00058930495	92045.336	692871.3	-0.00031317348
0	0.5599398	0.55993867	-7.065206e-11	0.020506108	0.020506108	0	65984.016	65983.88	-7.653061e-06	693023.5	90890.055	-0.00022225216	90892.19	693024.1	0.00011912379
0	0.5592206	0.5592196	-2.3283064e-10	0.020152565	0.020152565	0	65899.266	65899.15	-3.0612246e-05	693174.94	89731.805	-0.00038725755	89733.914	693175.7	3.0307112e-05
0	0.5584934	0.55849224	-1.1721818e-10	0.01979898	0.01979898	0	65813.555	65813.43	-1.3888889e-05	693325.9	88562.61	-0.00025929417	88564.7	693326.56	0.00012249124
0	0.5577696	0.5577686	-2.2159054e-10	0.019445425	0.019445425	0	65728.28	65728.16	-2.239229e-05	693473.8	87401.57	-0.00029296876	87403.65	693474.44	2.0204741e-05
0	0.5570376	0.5570365	-2.3925356e-10	0.019091865	0.019091863	0	65642.016	65641.89	-2.8061224e-05	693621.1	86229.375	-0.00029381062	86231.44	693621.8	-5.724677e-05
0	0.55629945	0.55629843	-5.652165e-10	0.018738287	0.018738288	0	65555.03	65554.914	-6.660998e-05	693767.25	85049.92	-0.0004546067	85051.95	693767.94	-0.0003565295
0	0.55555904	0.555558	-5.4594773e-11	0.018384743	0.018384743	0	65467.785	65467.664	-6.5192744e-06	693911.56	83869.07	-0.00029801994	83871.086	693912.25	0.00024035224
0	0.5548134	0.55481243	1.0437236e-10	0.018031176	0.018031178	0	65379.906	65379.793	1.2755102e-05	694054.6	82682.125	-0.00012038658	82684.11	694055.25	0.00027781518
0	0.554063	0.5540621	1.2845829e-10	0.017677722	0.017677722	0	65291.492	65291.383	1.5306123e-05	694196.06	81490.234	5.387931e-05	81492.2	694196.8	0.00014858904
0	0.55330765	0.55330676	-3.5165457e-10	0.017324148	0.01732415	0	65202.47	65202.367	-4.1666666e-05	694336.2	80292.56	-0.00031654094	80294.53	694336.8	-0.00018521013
0	0.55254406	0.55254316	-5.7163935e-10	0.016970584	0.016970584	0	65112.496	65112.395	-6.575964e-05	694475.25	79084.48	-0.00034684807	79086.414	694476	-0.00044282057
0	0.5517832	0.5517823	3.6450037e-10	0.016617043	0.016617043	0	65022.836	65022.727	4.393424e-05	694611.5	77882.984	0.00015827047	77884.9	694612.3	0.00035189925
0	0.55101436	0.55101347	1.9268743e-11	0.016263481	0.016263481	0	64932.234	64932.137	2.2675738e-06	694746.9	76671.39	-8.587015e-05	76673.29	694747.56	0.00015153555
0	0.5502402	0.5502393	-6.1981126e-10	0.015909908	0.015909908	0	64841.004	64840.906	-7.539683e-05	694880.7	75453.766	-0.0005918305	75455.625	694881.3	-0.00029801994
0	0.5494616	0.5494607	-2.2801346e-10	0.015556337	0.015556336	0	64749.242	64749.16	-2.494331e-05	695012.75	74231.57	-0.00011112608	74233.42	695013.5	-0.00021551724
0	0.5486773	0.5486766	-3.0187697e-10	0.0152027765	0.0152027765	0	64656.836	64656.742	-3.5714285e-05	695143.3	73003.16	-0.00036200162	73004.98	695144.06	-9.0921334e-05
0	0.5478888	0.5478881	-2.7457958e-10	0.0148492055	0.0148492055	0	64563.91	64563.824	-3.1462587e-05	695272.06	71770.375	-0.00024582434	71772.17	695272.8	-0.00013680293
0	0.5470953	0.5470946	-2.1998481e-10	0.014495673	0.014495673	0	64470.41	64470.32	-2.494331e-05	695399.3	70532.38	-0.00023572198	70534.164	695400.06	-7.576778e-05
0	0.5462968	0.54629606	-2.4085928e-10	0.014142111	0.014142111	0	64376.312	64376.227	-2.6927437e-05	695524.6	69289.055	-0.00030475485	69290.81	695525.44	-5.2616513e-05
0	0.5454937	0.54549307	-2.24802e-10	0.013788621	0.013788621	0	64281.68	64281.598	-2.7210885e-05	695648.25	68041.234	-0.00034011315	68042.97	695649.2	1.4311692e-05
0	0.5446845	0.5446838	-2.2159054e-10	0.013435047	0.013435047	0	64186.316	64186.234	-2.6077098e-05	695770.25	66786.27	-0.00024582434	66787.97	695771.06	-6.566541e-05
0	0.5438705	0.54386985	-3.9982642e-10	0.013081484	0.013081484	0	64090.387	64090.312	-4.9603175e-05	695890.5	65526.51	-0.00032664332	65528.19	695891.3	-0.000272764
0	0.5430521	0.5430515	1.3006402e-10	0.0127279535	0.012727952	0	63993.95	63993.875	1.2471655e-05	696008.75	64262.477	-0.00011449354	64264.137	696009.6	0.00026434538
0	0.54222625	0.5422258	-1.4451557e-10	0.012374384	0.012374384	0	63896.645	63896.57	-1.7857143e-05	696125.44	62989.78	-0.00026518723	62991.414	696126.3	4.377694e-05
0	0.5413943	0.5413937	-3.0669417e-10	0.012020824	0.012020824	0	63798.59	63798.52	-3.3163265e-05	696240.5	61709.902	-0.00018857759	61711.504	696241.3	-0.00025087554
0	0.54056406	0.5405635	-1.2524683e-10	0.0116672525	0.0116672525	0	63700.75	63700.684	-1.7006803e-05	696352.7	60435.484	-0.00016837285	60437.07	696353.4	-4.9249058e-05
0	0.5397229	0.5397224	1.1561246e-10	0.0113136945	0.0113136945	0	63601.633	63601.574	1.5873016e-05	696463.56	59146.973	-0.00013890759	59148.523	696464.44	0.0003182247
0	0.5388792	0.5388788	-3.5647174e-10	0.010960127	0.010960127	0	63502.215	63502.156	-4.1099775e-05	696572.2	57857.215	-0.0003106479	57858.75	696573	-0.00020878232
0	0.5380288	0.53802836	-3.0508842e-11	0.010606607	0.010606607	0	63401.996	63401.945	-4.818594e-06	696679.06	56559.8	-2.188847e-05	56561.31	696679.94	-2.6518723e-05
0	0.53717285	0.53717244	-5.4594773e-11	0.010253055	0.010253054	0	63301.13	63301.08	-5.668934e-06	696783.9	55256.57	-7.4084055e-05	55258.047	696784.8	-1.9362877e-05
0	0.53631157	0.53631115	-4.0143214e-10	0.00989949	0.00989949	0	63199.625	63199.586	-4.3650794e-05	696886.75	53947.926	-0.00017342404	53949.38	696887.6	-0.00036999932
0	0.5354448	0.5354443	-7.546924e-11	0.009545932	0.009545932	0	63097.49	63097.445	-8.503402e-06	696987.56	52633.766	-0.00023740571	52635.195	696988.4	0.0001283843
0	0.5345722	0.5345719	-3.7252904e-10	0.009192373	0.009192372	0	62994.664	62994.63	-4.393424e-05	697086.2	51313.53	-0.00037420864	51314.918	697087.1	-0.00015953327
0	0.53369415	0.5336938	-1.7341868e-10	0.008838861	0.008838861	0	62891.2	62891.16	-2.0408163e-05	697182.8	49987.688	-0.00021214978	49989.062	697183.7	-1.6837284e-05
0	0.5328102	0.53280985	-5.298904e-10	0.008485292	0.008485292	0	62787.023	62786.99	-6.207483e-05	697277.25	48655.695	-0.00025382207	48657.04	697278.1	-0.00050764414
0	0.5319214	0.531921	-2.8903113e-10	0.008131741	0.008131741	0	62682.285	62682.254	-3.3730157e-05	697369.4	47319.176	-0.00025592672	47320.49	697370.3	-0.00013596108
0	0.53102636	0.5310262	-4.5281545e-10	0.007778168	0.007778168	0	62576.82	62576.793	-5.442177e-05	697459.4	45976.297	-0.0006238214	45977.59	697460.25	-4.7144396e-05
0	0.53012407	0.53012383	1.2845829e-11	0.0074246028	0.0074246028	0	62470.5	62470.46	3.968254e-06	697547.3	44625.133	-6.1035156e-05	44626.39	697548.2	0.00013427735
0	0.5292187	0.52921844	8.349789e-11	0.0070710555	0.0070710555	0	62363.797	62363.773	1.2755102e-05	697632.7	43272.203	9.681438e-06	43273.426	697633.6	0.00012796336
0	0.5283059	0.5283057	-1.12401e-10	0.0067175236	0.0067175236	0	62256.242	62256.215	-1.2755102e-05	697715.9	41911.18	-0.00014227505	41912.375	697716.8	-4.58816e-05