# t (s)	mx ()	my ()	mz ()	B_extx (T)	B_exty (T)	B_extz (T)	m_fullx (A/m)	m_fully (A/m)	m_fullz (A/m)	m_full.region1x (A/m)	m_full.region1y (A/m)	m_full.region1z (A/m)	m_full.region2x (A/m)	m_full.region2y (A/m)	m_full.region2z (A/m)
0	0.6641126	0.6615282	-2.307924e-10	0.07071067	0.07071067	0	169064.11	168406.19	-5.994898e-05	604335.75	324098.28	-0.00018588665	325421.9	602041.3	-0.00011574074
0	0.6640402	0.66145265	-4.615848e-10	0.07056918	0.07056918	0	169045.69	168386.94	-0.00011647002	604407.5	323924.6	-0.00034371493	325248.9	602109.1	-0.00034020763
0	0.6639646	0.6613715	-3.2152056e-10	0.07042789	0.07042789	0	169026.4	168366.28	-8.0357146e-05	604485	323738.66	-0.00022797419	325065.3	602181.44	-0.00024200337
0	0.6638886	0.6612894	-9.65816e-11	0.070286386	0.070286386	0	169007.03	168345.39	-2.726403e-05	604563.7	323550.7	1.0521885e-05	324880.16	602254.5	-0.00017536475
0	0.6638128	0.66120785	-3.0103357e-11	0.07014502	0.07014502	0	168987.77	168324.62	-7.413903e-06	604641.5	323364.22	-5.9624017e-05	324696.44	602326.75	3.507295e-06
0	0.66373587	0.66112494	-2.307924e-10	0.07000351	0.07000352	0	168968.19	168303.52	-5.994898e-05	604720.75	323174.5	-0.00012626263	324509.5	602400.3	-0.00018588665
0	0.6636595	0.66104245	-1.8730976e-10	0.06986222	0.069862224	0	168948.73	168282.52	-4.7831632e-05	604799.3	322986.2	-0.0001104798	324324	602473.2	-0.00014029181
0	0.66358274	0.66095966	-5.2346394e-10	0.069720745	0.069720745	0	168929.2	168261.45	-0.00013679847	604877.75	322797.4	-0.00038755612	324138.06	602546.2	-0.00034371493
0	0.66350585	0.6608768	-2.9267153e-10	0.06957926	0.06957926	0	168909.64	168240.36	-7.302296e-05	604956.4	322608.47	-0.00023323513	323951.9	602619.06	-0.00019640852
0	0.66342944	0.66079444	-4.5489515e-10	0.06943794	0.06943794	0	168890.19	168219.39	-0.00010905612	605034.3	322420.78	-0.00034897588	323766.97	602691.4	-0.00026304714
0	0.66335106	0.66071	-2.508613e-10	0.0692964	0.0692964	0	168870.23	168197.88	-6.3137755e-05	605114.06	322228.4	-0.00025603254	323577.4	602765.56	-9.469697e-05
0	0.66327477	0.6606274	-1.7058568e-10	0.0691551	0.0691551	0	168850.8	168176.88	-4.559949e-05	605192.2	322040.56	-7.36532e-05	323392.53	602837.9	-0.00016133557
0	0.6631958	0.6605425	-4.1475734e-10	0.0690136	0.0690136	0	168830.7	168155.23	-0.000104910716	605271.9	321847.53	-0.00028935185	323202.28	602911.94	-0.000308642
0	0.66311836	0.66045856	-3.2444727e-10	0.06887212	0.068872124	0	168811.02	168133.89	-8.0357146e-05	605351.44	321656.47	-0.00027006172	323014.38	602985.5	-0.00016133557
0	0.6630409	0.6603749	-1.337927e-10	0.06873082	0.06873082	0	168791.27	168112.58	-3.6670917e-05	605429.94	321466.5	-9.469697e-05	322827.25	603058.3	-0.00013327722
0	0.6629631	0.66029096	-5.1510185e-10	0.06858932	0.06858932	0	168771.45	168091.22	-0.00012994261	605508.44	321276.25	-0.00029812008	322639.88	603131.25	-0.0004384119
0	0.66288424	0.6602057	-1.4215473e-10	0.068447955	0.068447955	0	168751.36	168069.52	-3.9540817e-05	605588.5	321082.8	-7.5406846e-05	322449.44	603205.3	-0.0001437991
0	0.66280544	0.6601207	4.682744e-11	0.06830648	0.06830648	0	168731.31	168047.86	1.1798469e-05	605667.9	320890.12	7.36532e-05	322259.66	603278.9	-1.7536477e-05
0	0.6627271	0.6600363	-4.3817108e-10	0.068165146	0.06816515	0	168711.39	168026.39	-0.000117346935	605746.25	320699.25	-0.0004384119	322071.7	603351.6	-0.0002174523
0	0.66264826	0.65995127	-5.8534305e-10	0.068023674	0.068023674	0	168691.3	168004.73	-0.00014508929	605825.44	320506.78	-0.0004208754	321882.03	603425.06	-0.00039983165
0	0.6625682	0.65986484	-5.1008464e-10	0.06788219	0.067882195	0	168670.95	167982.75	-0.00012866709	605906	320311.25	-0.00042789002	321689.6	603499.56	-0.0002875982
0	0.6624895	0.65977937	-2.1741313e-10	0.06774088	0.06774088	0	168650.9	167960.97	-5.8274873e-05	605985.9	320117.88	-0.00016133557	321499.47	603573.25	-0.0001473064
0	0.6624102	0.65969354	-4.247918e-10	0.067599334	0.067599334	0	168630.7	167939.14	-0.00010889668	606065.5	319924.1	-0.00021920595	321308.78	603646.94	-0.00038580247
0	0.6623315	0.6596086	-1.354651e-10	0.06745803	0.06745803	0	168610.69	167917.5	-3.380102e-05	606143.94	319732.5	-9.118967e-05	321120.22	603719.6	-8.7682376e-05
0	0.66225076	0.6595216	4.1810215e-11	0.06731653	0.06731653	0	168590.11	167895.36	1.3392857e-05	606224	319536.5	0.00014555275	320927.03	603793.8	-5.2609426e-05
0	0.6621705	0.65943503	-1.8730976e-10	0.06717506	0.06717506	0	168569.7	167873.31	-5.1020408e-05	606303.94	319341.12	-0.00013327722	320734.75	603867.9	-0.0001437991
0	0.66209	0.659348	-3.9636086e-10	0.06703376	0.06703376	0	168549.19	167851.14	-9.885204e-05	606384.2	319145.1	-0.00024551066	320541.8	603942	-0.00032267114
0	0.66200966	0.6592606	-1.9065459e-10	0.066892266	0.066892266	0	168528.73	167828.89	-4.830995e-05	606465.06	318948.2	-0.00012450898	320348.34	604016.56	-0.00014029181
0	0.66192883	0.6591737	-2.1741313e-10	0.066750884	0.066750884	0	168508.19	167806.8	-5.8035715e-05	606544.06	318753.38	-1.7536477e-05	320156.4	604089.8	-0.0002875982
0	0.6618483	0.6590861	-2.2744757e-10	0.06660942	0.06660941	0	168487.67	167784.48	-5.3890308e-05	606625.1	318556	-0.0001473064	319962.44	604164.6	-0.0001437991
0	0.66176766	0.65899885	-5.351708e-10	0.06646809	0.06646809	0	168467.14	167762.28	-0.00013496492	606705.06	318359.9	-0.00033845397	319769.62	604238.4	-0.00038930977
0	0.66168547	0.6589103	-1.5720641e-10	0.06632662	0.06632662	0	168446.2	167739.72	-4.0816325e-05	606785.56	318161.4	-0.00012275533	319574.1	604312.94	-0.00011223344
0	0.6616046	0.6588225	-2.4082686e-10	0.06618514	0.06618514	0	168425.64	167717.38	-5.484694e-05	606866.06	317964.3	-0.00019114758	319380.38	604387.1	-0.00015081369
0	0.66152364	0.6587349	-2.7678362e-10	0.066043824	0.06604382	0	168405.03	167695.08	-6.648597e-05	606945.9	317768	-6.8392255e-05	319187.3	604460.8	-0.0002911055
0	0.66144174	0.65864617	-2.1741313e-10	0.06590227	0.06590227	0	168384.16	167672.5	-5.452806e-05	607026.5	317569.34	-3.5072953e-05	318991.88	604535.25	-0.00026304714
0	0.66136026	0.65855813	2.0068903e-11	0.06576097	0.06576097	0	168363.42	167650.08	4.145408e-06	607106.25	317372.34	4.910213e-05	318798.06	604608.94	-1.402918e-05
0	0.66127694	0.6584681	-2.2744757e-10	0.065619476	0.065619476	0	168342.2	167627.17	-5.3571428e-05	607187.44	317171.4	-0.00017887205	318600.25	604683.94	-0.000119248034
0	0.6611945	0.6583787	-2.4751648e-10	0.06547816	0.06547816	0	168321.25	167604.39	-6.265944e-05	607268.9	316971.1	-0.00013327722	318403.44	604759.06	-0.00023849607
0	0.66111267	0.6582899	-2.341372e-10	0.0653367	0.0653367	0	168300.39	167581.83	-5.8992347e-05	607349	316773.1	-8.7682376e-05	318208.7	604832.8	-0.0002209596
0	0.66102946	0.6581997	-1.5720641e-10	0.06519521	0.06519521	0	168279.2	167558.86	-3.6112884e-05	607430.4	316571.75	-7.36532e-05	318010.8	604907.94	-0.00012275533
0	0.6609467	0.6581102	-2.2870189e-10	0.0650539	0.0650539	0	168258.14	167536.05	-5.580357e-05	607511.06	316371.97	-0.00013853816	317814.34	604982.3	-0.0001437991
0	0.6608636	0.65802	-5.6861894e-11	0.06491236	0.06491235	0	168236.98	167513.11	-1.0522959e-05	607592	316171.16	-1.7536477e-05	317616.97	605056.9	-9.469697e-05
0	0.6607802	0.6579298	-2.0737867e-10	0.06477103	0.06477103	0	168215.77	167490.12	-5.2455358e-05	607673	315970.12	-0.00011749439	317419.3	605131.5	-0.00017887205
0	0.6606966	0.6578393	-9.9090215e-11	0.06462956	0.06462956	0	168194.48	167467.08	-2.3676657e-05	607754.1	315768.66	-4.208754e-05	317221.22	605206.3	-8.417508e-05
0	0.6606129	0.6577485	-4.5322274e-10	0.06448809	0.06448809	0	168173.19	167443.98	-0.000112882655	607835.2	315566.88	-0.00029812008	317022.9	605281	-0.00033670032
0	0.6605289	0.6576575	-3.5120581e-10	0.06434676	0.06434675	0	168151.8	167420.81	-8.737245e-05	607916.4	315364.72	-0.00020166948	316824.12	605355.9	-0.0002911055
0	0.6604445	0.657566	-2.8598188e-10	0.06420529	0.06420529	0	168130.3	167397.52	-7.589286e-05	607997.94	315161.47	-0.00029987373	316624.38	605431	-9.469697e-05
0	0.66036105	0.65747565	-2.0487007e-10	0.06406391	0.06406391	0	168109.06	167374.52	-5.5165816e-05	608078.2	314961.03	-0.00017536475	316427.3	605504.8	-9.118967e-05
0	0.66027516	0.6573828	-3.6458508e-10	0.06392241	0.06392241	0	168087.2	167350.88	-8.9524874e-05	608160.5	314755.2	-0.00018588665	316224.75	605580.7	-0.00031916387
0	0.66019064	0.65729135	-6.455497e-10	0.063781105	0.063781105	0	168065.7	167327.6	-0.00016071429	608241.5	314552.53	-0.00039281705	316025.5	605655.3	-0.0005260943
0	0.66010505	0.6571985	-4.9168813e-10	0.06363964	0.06363964	0	168043.88	167303.94	-0.00012053571	608323.5	314346.97	-0.0003051347	315823.5	605730.8	-0.0003717733
0	0.6600201	0.65710586	-1.0201693e-10	0.06349814	0.06349814	0	168022.25	167280.39	-2.5829082e-05	608405.9	314141.88	-7.189955e-05	315622.22	605806.44	-4.208754e-05
0	0.6599356	0.6570142	-1.55534e-10	0.06335683	0.06335683	0	168000.73	167257.05	-3.9859693e-05	608486.7	313939.25	-8.417508e-05	315423.2	605880.7	-0.00010521885
0	0.65984994	0.6569215	5.6861894e-11	0.0632153	0.06321529	0	167978.94	167233.45	1.434949e-05	608568.06	313734.44	3.1565658e-05	315221.75	605955.7	2.104377e-05
0	0.6597634	0.6568278	-1.337927e-10	0.06307396	0.06307396	0	167956.9	167209.61	-3.0213649e-05	608650.2	313527.78	-0.00010521885	315018.56	606031.2	-8.417508e-05
0	0.65967727	0.6567345	-1.8563737e-10	0.06293249	0.06293249	0	167934.97	167185.84	-4.2729593e-05	608731.9	313322.06	-9.469697e-05	314816.38	606106.3	-0.0001437991
0	0.6595908	0.6566403	-2.6256816e-10	0.06279103	0.06279103	0	167912.95	167161.86	-6.8877554e-05	608814.9	313113.88	-0.00012801627	314612.1	606182.56	-0.0002104377
0	0.6595048	0.6565466	-2.4208116e-10	0.06264969	0.06264969	0	167891.06	167138	-5.739796e-05	608897.2	312907.28	-0.00016835016	314409.44	606257.9	-0.00017185746
0	0.6594186	0.656453	-4.0305048e-10	0.062508225	0.062508225	0	167869.11	167114.19	-0.000102200254	608978.75	312701.4	-0.00030338104	314207.22	606332.8	-0.00023148148
0	0.65933126	0.6563583	-2.0905108e-10	0.06236684	0.06236684	0	167846.9	167090.08	-4.942602e-05	609061.3	312493	-0.00014204545	314002.47	606408.7	-0.00014029181
0	0.6592447	0.6562644	-3.679299e-10	0.062225346	0.062225346	0	167824.86	167066.16	-9.16773e-05	609143	312286.44	-0.00024551066	313799.62	606483.6	-0.00026655445
0	0.6591564	0.6561686	-1.4048233e-10	0.062084038	0.062084038	0	167802.4	167041.78	-3.746811e-05	609226.1	312075.97	-4.5594836e-05	313592.88	606560	-0.00017185746
0	0.65906954	0.65607405	1.6724087e-11	0.061942577	0.061942577	0	167780.27	167017.69	2.869898e-06	609308.25	311868.28	1.5782829e-05	313389.03	606635.25	-3.858025e-05
0	0.6589814	0.65597844	-2.2744757e-10	0.061801083	0.061801083	0	167757.83	166993.38	-5.4209184e-05	609390.6	311658.94	-3.1565658e-05	313183.3	606710.94	-0.00027356902
0	0.65889406	0.6558836	-7.024117e-11	0.061659772	0.061659772	0	167735.6	166969.23	-1.5306123e-05	609472.5	311451.03	-3.5072953e-05	312979.12	606786.1	-7.36532e-05
0	0.65880495	0.6557872	-1.8396495e-10	0.061518237	0.061518237	0	167712.92	166944.69	-4.145408e-05	609555.25	311239.97	-0.00013152357	312771.72	606862.2	-0.00011223344
0	0.65871686	0.65569127	5.4771385e-11	0.061376892	0.061376892	0	167690.47	166920.25	1.8494899e-05	609638.25	311029.6	7.71605e-05	312565.25	606938.06	2.104377e-05
0	0.65862805	0.65559477	-2.6925778e-10	0.06123543	0.06123543	0	167667.89	166895.7	-7.2385206e-05	609721.06	310818.7	-0.00022797419	312358.2	607014	-0.00018237934
0	0.65853995	0.65549874	-1.3964613e-10	0.061093967	0.061093967	0	167645.45	166871.25	-3.507653e-05	609803.75	310608.53	-6.1377665e-05	312152.16	607089.75	-0.00016484287
0	0.6584504	0.65540123	-2.876543e-10	0.060952656	0.060952656	0	167622.69	166846.44	-6.951531e-05	609887.5	310395.56	-0.00023674243	311943.3	607166.2	-0.00016835016
0	0.6583618	0.65530485	-3.2444727e-10	0.060811166	0.060811166	0	167600.1	166821.9	-8.1792095e-05	609969.8	310185.22	-0.00025252526	311736.75	607241.6	-0.0002104377
0	0.65827215	0.65520734	-4.937787e-10	0.060669772	0.060669772	0	167577.28	166797.08	-0.00012404336	610052.94	309972.5	-0.00038930977	311527.97	607317.9	-0.00029812008
0	0.6581819	0.6551092	-3.9468845e-10	0.060528316	0.060528316	0	167554.31	166772.11	-0.000103635204	610136.56	309758.7	-0.00027882998	311318.12	607394.3	-0.00030162738
0	0.6580921	0.65501153	-1.92327e-10	0.060386974	0.060386974	0	167531.44	166747.22	-5.0701532e-05	610219.6	309545.78	-0.00010171156	311109.22	607470.4	-0.00016835016
0	0.6580019	0.6549137	-1.1037897e-10	0.06024551	0.06024551	0	167508.48	166722.31	-3.284439e-05	610302.44	309332.9	-0.00024551066	310900.16	607546.25	6.3131316e-05
0	0.6579124	0.65481615	-1.2710306e-10	0.06010405	0.06010405	0	167485.67	166697.48	-2.997449e-05	610385.1	309120.75	-3.5072953e-05	310692.1	607621.94	-0.00013327722
0	0.6578211	0.65471727	-2.7552932e-10	0.059962712	0.059962712	0	167462.47	166672.3	-6.409439e-05	610468.44	308905.88	-0.00018588665	310481.03	607698.3	-0.00016835016
0	0.6577296	0.65461767	-4.5489515e-10	0.059821166	0.059821166	0	167439.19	166646.97	-0.000112244896	610552.56	308689.62	-0.00031214926	310268.94	607775.2	-0.00034722223
0	0.6576398	0.6545195	-2.0403386e-10	0.05967986	0.05967986	0	167416.31	166621.95	-4.7831632e-05	610635.9	308476.25	-0.000154321	310059.88	607851	-0.00012626263
0	0.65754867	0.6544203	-2.8472757e-10	0.059538368	0.059538368	0	167393.11	166596.72	-7.8443874e-05	610719.25	308261.25	-0.000154321	309848.97	607927.2	-0.00023148148
0	0.6574566	0.6543201	-2.2744757e-10	0.059396908	0.059396908	0	167369.64	166571.22	-6.186224e-05	610803.1	308044.16	-0.00015256734	309635.97	608004.06	-0.00017536475
0	0.6573656	0.6542211	-1.8898218e-10	0.05925559	0.059255596	0	167346.52	166546	-4.815051e-05	610886.25	307829.7	-0.00010171156	309425.66	608079.9	-0.00016484287
0	0.65727234	0.65411973	3.6792992e-11	0.059114102	0.059114102	0	167322.75	166520.2	4.4642857e-06	610970.75	307610.56	-2.104377e-05	309210.53	608157.2	7.36532e-05
0	0.65718126	0.65402013	8.1948025e-11	0.058972713	0.058972705	0	167299.56	166494.84	2.0408163e-05	611054.5	307394.72	7.5406846e-05	308999.2	608233.44	6.3131316e-05
0	0.65708923	0.65392005	-1.4717197e-10	0.05883125	0.05883125	0	167276.14	166469.36	-3.762755e-05	611137.75	307178.6	-0.00011574074	308787.16	608309.44	-8.0667785e-05
0	0.65699565	0.6538185	-1.92327e-10	0.0586899	0.0586899	0	167252.33	166443.53	-4.40051e-05	611221.8	306959.62	-0.00016133557	308572.2	608386.3	-0.00011574074
0	0.6569028	0.65371716	-2.508613e-10	0.05854845	0.05854845	0	167228.7	166417.72	-6.568878e-05	611306.4	306740.6	-0.00023148148	308357.53	608463.44	-9.820426e-05
0	0.65681094	0.6536167	-2.0737867e-10	0.058406986	0.058406986	0	167205.3	166392.16	-5.197704e-05	611389.8	306524	-0.0001437991	308145.44	608539.44	-0.00016835016
0	0.6567169	0.65351415	-4.4987794e-10	0.05826565	0.05826565	0	167181.34	166366.03	-0.00010953444	611474.8	306302.88	-0.00021394501	307928.7	608617	-0.00039983165
0	0.65662366	0.6534124	-6.392782e-10	0.058124106	0.058124106	0	167157.62	166340.14	-0.00015848214	611558.94	306083.88	-0.00045068742	307714.16	608693.5	-0.0004419192
0	0.65653044	0.653311	-2.70094e-10	0.05798278	0.05798278	0	167133.9	166314.31	-7.015306e-05	611642.44	305865.7	-0.00016133557	307500.2	608769.7	-0.00020342311
0	0.6564347	0.65320706	-2.6424057e-10	0.05784131	0.05784131	0	167109.53	166287.86	-6.760204e-05	611727.56	305642.5	-0.00018939393	307281.12	608847.44	-0.0002209596
0	0.65634245	0.65310603	-1.03689335e-10	0.057699848	0.057699848	0	167086.03	166262.14	-2.614796e-05	611811.06	305425.25	-0.000119248034	307068.44	608923.25	-2.104377e-05
0	0.65624714	0.6530022	-3.5371442e-10	0.05755853	0.05755853	0	167061.77	166235.7	-8.960459e-05	611896.2	305202.16	-0.00018237934	306849.75	609000.94	-0.00032267114
0	0.65615314	0.6528997	-4.615848e-10	0.05741706	0.05741706	0	167037.86	166209.6	-0.00011670918	611980.2	304982.1	-0.00025252526	306634.2	609077.4	-0.00041386083
0	0.65605724	0.6527955	-3.060508e-10	0.057275645	0.057275645	0	167013.44	166183.1	-8.227041e-05	612064.8	304759.1	-0.00031214926	306415.38	609154.6	-0.000154321
0	0.65596247	0.65269196	-9.867211e-11	0.05713419	0.05713419	0	166989.3	166156.72	-2.6785714e-05	612149.56	304537.1	-8.417508e-05	306197.9	609231.6	-4.5594836e-05
0	0.65586716	0.6525879	-3.1441283e-10	0.056992844	0.056992844	0	166965.03	166130.23	-7.780612e-05	612234.3	304314.34	-0.00018588665	305979.72	609308.75	-0.00023148148
0	0.65577227	0.65248406	-3.1608524e-10	0.056851387	0.056851387	0	166940.88	166103.8	-8.0357146e-05	612318.9	304092.06	-0.00024200337	305762.16	609385.6	-0.00021394501
0	0.6556748	0.652378	-3.0270597e-10	0.05670993	0.05670993	0	166916.06	166076.8	-7.3341835e-05	612404.75	303865.44	-0.00020868407	305540	609463.7	-0.00020342311
0	0.65557986	0.65227383	-2.2243035e-10	0.056568585	0.056568585	0	166891.89	166050.28	-6.0586735e-05	612489.6	303642.75	-0.00018939393	305322.22	609540.56	-0.00012626263
0	0.65548396	0.6521692	-2.909991e-10	0.056427047	0.056427047	0	166867.5	166023.64	-6.951531e-05	612574.1	303419.4	-0.0002209596	305103.5	609617.4	-0.00017185746
0	0.65538675	0.65206325	7.3585985e-11	0.05628571	0.05628571	0	166842.77	165996.69	1.3392857e-05	612659.44	303193.6	-2.4551066e-05	304882.16	609695.06	0.00013327722
0	0.65529084	0.65195847	-3.9636086e-10	0.05614425	0.05614424	0	166818.33	165970	-9.8533164e-05	612743.8	302970.16	-0.00034020763	304663.4	609771.7	-0.00020342311
0	0.65519226	0.6518513	-2.5755093e-10	0.0560028	0.056002792	0	166793.23	165942.7	-6.441327e-05	612829.4	302742.22	-0.0002174523	304439.8	609849.56	-0.00017185746
0	0.6550961	0.6517457	-2.0068903e-10	0.05586147	0.05586147	0	166768.75	165915.84	-5.1020408e-05	612914.7	302517.25	-9.469697e-05	304219.84	609926.8	-0.00016484287
0	0.654998	0.6516389	-4.0137807e-10	0.055719994	0.055719994	0	166743.77	165888.64	-9.821429e-05	612999.75	302290.44	-0.00019290124	303997.5	610004.1	-0.00034371493
0	0.6548997	0.6515316	-2.4417166e-10	0.055578664	0.055578664	0	166718.75	165861.33	-6.345663e-05	613085.5	302062.12	-0.00019290124	303774	610082.1	-0.00012976992
0	0.6548031	0.65142536	-2.4584407e-10	0.055437125	0.055437125	0	166694.16	165834.3	-5.8035715e-05	613170.94	301836.38	-0.00018588665	303553.44	610159.2	-0.000154321
0	0.65470517	0.65131843	-2.5922334e-10	0.05529578	0.05529578	0	166669.2	165807.06	-6.0586735e-05	613255.9	301609.47	-0.00020693042	303331.25	610236.4	-0.00013678451
0	0.654606	0.65121037	-3.879988e-10	0.055154327	0.055154327	0	166643.98	165779.55	-9.821429e-05	613341.6	301380.28	-0.00020517677	303106.75	610314.25	-0.00033319305
0	0.6545065	0.6511019	-7.525839e-11	0.05501287	0.05501287	0	166618.66	165751.94	-1.8494899e-05	613427.25	301150.7	-1.9290124e-05	302881.84	610391.94	-0.00011223344
0	0.65440845	0.6509943	-4.1810216e-10	0.054871522	0.054871522	0	166593.72	165724.58	-0.00010618623	613512.9	300922.72	-0.00029987373	302659	610469.44	-0.00029812008
0	0.65430826	0.65088505	-2.5755093e-10	0.05473008	0.05473008	0	166568.19	165696.73	-6.154337e-05	613598.94	300691.66	-0.00017887205	302432.66	610547.44	-0.00017536475
0	0.65420973	0.65077686	-2.0403386e-10	0.05458865	0.05458865	0	166543.12	165669.2	-5.0223214e-05	613684.75	300462.66	-0.00015081369	302208.84	610625	-0.00013327722
0	0.6541107	0.65066844	-1.92327e-10	0.054447185	0.054447185	0	166517.89	165641.61	-4.9744896e-05	613770.2	300233.6	-0.00016659652	301984.88	610702.25	-0.00011223344
0	0.65400964	0.6505582	-3.7963677e-10	0.054305855	0.054305855	0	166492.17	165613.53	-9.598214e-05	613856.56	300000.8	-0.00021394501	301756.9	610780.6	-0.000308642
0	0.65390974	0.6504486	-5.351708e-10	0.054164406	0.054164406	0	166466.73	165585.64	-0.00013775511	613942.75	299769.56	-0.00041386083	301530.78	610858.5	-0.000368266
0	0.65380955	0.65033877	-3.277921e-10	0.054022938	0.054022938	0	166441.23	165557.67	-8.0357146e-05	614029	299537.84	-0.00014029181	301304.34	610936.44	-0.00031916387
0	0.65370876	0.6502285	-3.0772318e-10	0.0538816	0.0538816	0	166415.58	165529.61	-8.1313774e-05	614115	299305.75	-0.00015081369	301077.22	611014.2	-0.00033319305
0	0.6536075	0.6501182	-3.2110245e-10	0.05374007	0.05374007	0	166389.78	165501.52	-8.418367e-05	614200.56	299073.66	-0.0002875982	300849.94	611091.75	-0.00017536475
0	0.65350634	0.6500073	-3.3949896e-10	0.05359871	0.05359871	0	166364.05	165473.28	-8.09949e-05	614287.3	298840.06	-0.00018237934	300621.56	611170.1	-0.00026304714
0	0.6534057	0.6498968	-5.3851557e-10	0.05345726	0.053457264	0	166338.44	165445.16	-0.00014030612	614373.3	298607.84	-0.0003577441	300394.78	611247.7	-0.00039281705
0	0.65330267	0.6497844	-3.2444727e-10	0.053315822	0.05331583	0	166312.19	165416.55	-9.247449e-05	614459.9	298372.06	-0.00024200337	300163.8	611326.1	-0.00024551066
0	0.65320176	0.6496735	-3.5622305e-10	0.053174462	0.053174462	0	166286.52	165388.33	-9.0561225e-05	614546.2	298139.06	-0.00027707632	299936.3	611403.9	-0.00023148148
0	0.6530988	0.6495607	-1.3713751e-10	0.05303302	0.053033024	0	166260.3	165359.61	-3.284439e-05	614633.4	297902.4	3.507295e-06	299704.88	611482.6	-0.0002209596
0	0.6529972	0.6494491	-2.6089575e-10	0.052891586	0.052891586	0	166234.44	165331.22	-7.015306e-05	614719.56	297668.6	-0.0002104377	299476.56	611560.25	-0.00020342311
0	0.6528937	0.6493361	-3.5371442e-10	0.052750126	0.052750126	0	166208.11	165302.4	-8.737245e-05	614806.44	297431.75	-0.00027532267	299244.88	611638.7	-0.00022446689
0	0.6527913	0.64922386	-4.5155035e-10	0.052608777	0.052608777	0	166182.03	165273.84	-0.00011862245	614892.56	297197	-0.00034371493	299015.38	611716.44	-0.0002840909
0	0.6526871	0.64910996	-1.9065459e-10	0.05246734	0.052467346	0	166155.5	165244.86	-4.7512756e-05	614979.4	296959.12	-0.00015607463	298782.6	611794.9	-0.00012626263
0	0.65258366	0.6489965	-1.92327e-10	0.052325882	0.052325882	0	166129.16	165215.97	-4.8947702e-05	615066.5	296721.7	-0.0001437991	298550.62	611873.44	-0.00014029181
0	0.65248144	0.6488839	-1.4717197e-10	0.05218454	0.05218454	0	166103.14	165187.3	-3.9540817e-05	615152.9	296486.4	-0.00013503086	298321.1	611951	-5.2609426e-05
0	0.65237653	0.6487694	-5.2848115e-10	0.052043002	0.052043002	0	166076.42	165158.16	-0.00013743622	615239.56	296247.8	-0.0003103956	298087.56	612029.3	-0.00045244108
0	0.65227187	0.64865494	-2.0236145e-10	0.051901635	0.051901635	0	166049.8	165129	-4.846939e-05	615326.44	296009.22	-0.00015782828	297854.28	612107.75	-0.00012626263
0	0.65216726	0.64853996	-1.1372379e-10	0.0517602	0.0517602	0	166023.17	165099.77	-2.997449e-05	615413.8	295769.66	-2.2797418e-05	297620.38	612186.4	-0.00012626263
0	0.65206254	0.6484252	-2.726026e-10	0.051618766	0.051618766	0	165996.48	165070.53	-7.079082e-05	615500.7	295530.84	-0.00025252526	297386.97	612264.56	-0.00011574074
0	0.6519579	0.6483102	-1.2710306e-10	0.05147742	0.05147742	0	165969.84	165041.23	-3.3163265e-05	615588	295291.3	-0.00011223344	297153.06	612343.06	-7.014591e-05
0	0.6518524	0.6481944	-1.9734422e-10	0.05133596	0.05133596	0	165943	165011.8	-4.815051e-05	615675.4	295050.53	-0.00022797419	296918	612421.6	-3.5072953e-05
0	0.65174705	0.6480785	-4.5823997e-10	0.051194515	0.051194515	0	165916.19	164982.27	-0.00011575255	615763.06	294809.5	-0.00023498878	296682.84	612500.4	-0.00039632435
0	0.6516412	0.6479624	-4.231194e-10	0.05105309	0.05105309	0	165889.23	164952.7	-0.00011272322	615850.1	294568.66	-0.00022446689	296447.5	612578.75	-0.000368266
0	0.65153444	0.6478456	-4.5155035e-10	0.050911706	0.050911706	0	165862.06	164922.98	-0.00011479592	615937.25	294326.6	-0.0003752806	296210.88	612657.25	-0.00027356902
0	0.6514288	0.6477292	-2.140683e-10	0.05077028	0.05077028	0	165835.17	164893.34	-5.1817602e-05	616025.1	294084.88	-0.00018237934	295975.16	612735.94	-0.00010872615
0	0.65132195	0.6476116	1.1205138e-10	0.050628845	0.050628845	0	165807.95	164863.42	3.125e-05	616113.06	293841.5	7.71605e-05	295737.7	612814.9	0.00013130436
0	0.65121496	0.6474944	-2.5420613e-10	0.050487474	0.050487474	0	165780.73	164833.56	-6.377551e-05	616200.25	293598.88	-0.0002209596	295500.66	612893.25	-9.118967e-05
0	0.6511083	0.647377	-2.2410276e-10	0.050345946	0.050345946	0	165753.55	164803.7	-5.3571428e-05	616287.8	293356.12	-0.00019640852	295263.84	612971.7	-0.00012626263
0	0.651	0.64725864	-2.876543e-10	0.05020459	0.05020459	0	165726	164773.53	-7.302296e-05	616375.2	293111.62	-0.00020868407	295024.8	613050.4	-0.00017887205
0	0.6508924	0.6471402	-2.7427502e-10	0.050063133	0.050063137	0	165698.61	164743.39	-6.8877554e-05	616463.4	292866.75	-0.00019640852	294785.97	613129.5	-0.00020342311
0	0.6507838	0.6470211	-3.5789546e-10	0.04992171	0.04992171	0	165670.97	164713.06	-8.561862e-05	616551.06	292621.28	-0.0003279321	294546.2	613208.2	-0.00013678451
0	0.65067583	0.64690244	-8.328595e-10	0.049780354	0.049780354	0	165643.47	164682.88	-0.00021157526	616638.7	292376.6	-0.00040684623	294307.47	613286.75	-0.00076108304
0	0.65056735	0.64678323	1.2710306e-10	0.0496389	0.0496389	0	165615.86	164652.52	3.252551e-05	616726.56	292130.97	4.5594836e-05	294067.72	613365.56	0.00013678451
0	0.6504591	0.64666367	-3.445162e-10	0.049497455	0.049497455	0	165588.3	164622.1	-8.928571e-05	616815.2	291884.38	-0.00029812008	293827.5	613444.8	-0.00018588665
0	0.65035003	0.646544	-5.652741e-10	0.04935602	0.04935602	0	165560.53	164591.64	-0.00014158164	616902.5	291638.53	-0.00045244108	293587.47	613523.06	-0.00038229517
0	0.6502411	0.64642364	-3.879988e-10	0.04921464	0.04921464	0	165532.8	164561	-9.757653e-05	616991.3	291390.8	-0.00034546858	293346.16	613602.3	-0.00020693042
0	0.6501314	0.646303	-2.7594743e-10	0.04907321	0.04907321	0	165504.88	164530.27	-7.095026e-05	617079.56	291142.84	-0.00017361112	293104.38	613681.3	-0.0002174523
0	0.65002185	0.64618236	-2.3748203e-10	0.04893179	0.04893179	0	165476.97	164499.56	-5.5484696e-05	617167.56	290895.22	-0.00027006172	292862.94	613760.06	-8.417508e-05
0	0.6499112	0.64606076	5.5189485e-11	0.048790414	0.048790418	0	165448.83	164468.61	1.1479592e-05	617256.1	290645.75	2.9812009e-05	292619.62	613839.25	6.3131316e-05
0	0.64980084	0.6459391	-4.1810215e-11	0.048648883	0.048648883	0	165420.72	164437.64	-1.1479592e-05	617344.6	290396.44	-3.5072953e-05	292376.53	613918.3	-3.5072953e-05
0	0.64969003	0.64581734	-3.11068e-10	0.04850753	0.04850753	0	165392.53	164406.66	-7.9081634e-05	617432.8	290147.1	-0.00021219136	292133.3	613997.2	-0.0002174523
0	0.64957935	0.6456954	-8.1948025e-11	0.04836607	0.048366077	0	165364.33	164375.58	-2.1683674e-05	617521.2	289897.3	-7.891414e-05	291889.8	614076.2	-4.208754e-05
0	0.64946777	0.64557254	-1.3212029e-10	0.048224654	0.048224654	0	165335.92	164344.31	-2.9336734e-05	617609.9	289646.16	2.104377e-05	291644.97	614155.44	-0.0002104377
0	0.6493566	0.6454503	-1.0536175e-10	0.04808329	0.04808329	0	165307.66	164313.19	-2.1045918e-05	617698	289396.2	-6.8392255e-05	291401.38	614234.1	-4.910213e-05
0	0.649244	0.6453265	-3.9886947e-10	0.047941845	0.04794185	0	165278.97	164281.7	-9.8533164e-05	617786.7	289143.7	-0.0002472643	291154.94	614313.44	-0.0003051347
0	0.64913136	0.6452027	-2.9601632e-10	0.047800384	0.047800384	0	165250.3	164250.14	-7.8125e-05	617875.44	288890.97	-0.00022972784	290908.47	614392.8	-0.00023148148
0	0.6490204	0.64507973	1.03689335e-10	0.047658965	0.047658965	0	165222.03	164218.88	3.3163265e-05	617964.06	288640.1	6.663861e-05	290664.4	614471.5	0.00013327722
0	0.6489072	0.6449553	-2.6424057e-10	0.04751758	0.04751758	0	165193.22	164187.17	-7.206632e-05	618052.8	288386.53	-0.00020342311	290417.16	614550.8	-0.00017536475
0	0.6487934	0.64483064	5.3517076e-11	0.047376156	0.047376156	0	165164.27	164155.45	2.0408163e-05	618140.94	288133.16	-3.5072953e-05	290169.84	614629.75	0.0001437991
0	0.6486802	0.6447053	-2.508613e-10	0.047234733	0.047234733	0	165135.44	164123.58	-5.9311224e-05	618230.8	287877.9	-0.00017536475	289921.4	614709.56	-0.0001473064
0	0.64856756	0.64458084	-2.8263705e-10	0.047093347	0.047093347	0	165106.77	164091.86	-7.461735e-05	618319.56	287624.66	-0.00015958193	289674.97	614788.56	-0.00025252526
0	0.64845264	0.64445496	-4.5823997e-10	0.046951823	0.046951823	0	165077.53	164059.84	-0.00011527423	618407.8	287369.53	-0.0003507295	289425.94	614867.44	-0.00033670032
0	0.6483384	0.6443285	-4.6911064e-10	0.046810463	0.046810463	0	165048.44	164027.64	-0.00011814413	618498	287112.34	-0.000308642	289175.72	614947.6	-0.0003577441
0	0.648225	0.644203	-1.7058568e-10	0.04666902	0.04666902	0	165019.56	163995.67	-4.145408e-05	618587	286857.56	-8.7682376e-05	288927.94	615026.6	-0.00012976992
0	0.6481098	0.6440764	-2.5253372e-10	0.046527658	0.046527658	0	164990.25	163963.47	-6.4572705e-05	618675.75	286601.28	-0.00016133557	288678	615105.7	-0.00017185746
0	0.64799446	0.64394945	-1.5386159e-10	0.046386234	0.046386234	0	164960.89	163931.14	-3.890306e-05	618764.94	286344.06	-9.645062e-05	288427.38	615185.2	-0.00010521885
0	0.64788014	0.6438229	-1.2041343e-10	0.0462448	0.0462448	0	164931.77	163898.9	-3.1887754e-05	618854	286087.8	-7.36532e-05	288178.1	615264.25	-9.820426e-05
0	0.64776474	0.64369553	-4.5489515e-10	0.04610342	0.04610342	0	164902.4	163866.48	-0.000112244896	618943.25	285830.12	-0.00017887205	287927.3	615343.6	-0.00043139732
0	0.6476482	0.6435668	-2.2744757e-10	0.045961898	0.045961898	0	164872.73	163833.73	-5.4049746e-05	619033.3	285570.1	-0.0002104377	287674.2	615423.56	-0.00011223344
0	0.64753103	0.64343804	-3.84654e-10	0.045820512	0.045820512	0	164842.89	163800.94	-9.438775e-05	619122.56	285310.12	-0.00024551066	287420.8	615503	-0.00030162738
0	0.6474157	0.64331007	-2.0737867e-10	0.045679096	0.045679096	0	164813.53	163768.34	-5.0063776e-05	619212.3	285051.56	-0.00015782828	287169.62	615582.5	-0.00012626263
0	0.64729893	0.6431815	-3.9217984e-10	0.045537677	0.045537677	0	164783.81	163735.64	-9.821429e-05	619301.25	284792.62	-0.00033670032	286917.34	615661.56	-0.00021394501
0	0.64718175	0.6430523	-3.47861e-10	0.045396283	0.045396283	0	164753.97	163702.72	-8.864796e-05	619390.7	284532.2	-0.00027532267	286663.78	615740.94	-0.00022446689
0	0.6470644	0.64292246	-1.2710306e-10	0.04525487	0.04525487	0	164724.11	163669.69	-2.8061224e-05	619480.6	284270.8	-0.00012450898	286409.6	615820.6	-5.9624017e-05
0	0.6469458	0.64279175	-2.9267153e-10	0.045113392	0.045113385	0	164693.9	163636.4	-7.780612e-05	619570.5	284007.94	-0.00018588665	286153.62	615900.5	-0.00023148148