# t (s)	mx ()	my ()	mz ()	B_extx (T)	B_exty (T)	B_extz (T)	m_fullx (A/m)	m_fully (A/m)	m_fullz (A/m)	m_full.region1x (A/m)	m_full.region1y (A/m)	m_full.region1z (A/m)	m_full.region2x (A/m)	m_full.region2y (A/m)	m_full.region2z (A/m)
0	0.644659	0.6446605	-3.128022e-10	0.070709854	0.070709854	0	13771.403	13771.435	-6.8679074e-06	629612.44	272911.28	-0.00020318356	272910.12	629613.44	-0.00024691163
0	0.644559	0.6445589	-4.623469e-10	0.07056971	0.07056971	0	13769.266	13769.264	-9.41627e-06	629691.06	272691.3	-0.00022724862	272691.53	629691.1	-0.00038985597
0	0.644455	0.6444548	-3.2645206e-10	0.07042712	0.07042712	0	13767.045	13767.041	-8.18881e-06	629774	272462.7	-0.00023966479	272463.03	629774.06	-0.00029699708
0	0.6443502	0.6443499	-3.2655975e-10	0.070287034	0.070287034	0	13764.803	13764.799	-8.072747e-06	629857.9	272231.94	-0.00025021035	272232.25	629857.94	-0.00027884523
0	0.6442456	0.64424545	-3.473113e-10	0.0701447	0.0701447	0	13762.572	13762.568	-8.8242e-06	629941.4	272002.22	-0.0002343941	272002.56	629941.44	-0.0003439087
0	0.6441406	0.6441404	-2.99705e-10	0.0700046	0.0700046	0	13760.328	13760.325	-4.005335e-06	630024.8	271771.75	-0.00010436376	271772.1	630024.94	-0.00015812989
0	0.6440339	0.64403373	-3.1622768e-10	0.06986236	0.06986236	0	13758.049	13758.044	-6.8231443e-06	630109.8	271537.4	-0.00025979587	271537.78	630109.8	-0.00018736572
0	0.6439299	0.64392966	-2.879966e-10	0.069720015	0.069720015	0	13755.825	13755.822	-7.708427e-06	630191.8	271309.66	-0.00028042356	271310	630191.75	-0.00022475586
0	0.64382434	0.6438241	-2.3050607e-10	0.06957992	0.06957992	0	13753.572	13753.565	-4.1605695e-06	630275.1	271078.6	-0.00020201277	271078.97	630275.2	-7.06543e-05
0	0.6437174	0.64371735	-2.6934266e-10	0.069437355	0.069437355	0	13751.291	13751.284	-3.6479055e-06	630359.06	270845.12	-0.00012504325	270845.53	630359.06	-0.000114025876
0	0.6436118	0.64361155	-2.9984312e-10	0.069297224	0.069297224	0	13749.031	13749.025	-5.3176514e-06	630442.94	270613.25	-0.00016596587	270613.6	630442.9	-0.00018253174
0	0.6435053	0.6435051	-1.8208167e-10	0.06915493	0.06915493	0	13746.756	13746.752	-3.4755408e-06	630526.4	270380.7	-0.0002586324	270381.03	630526.44	3.0859374e-05
0	0.64339846	0.6433982	-1.9839422e-10	0.06901481	0.06901481	0	13744.474	13744.469	-7.952622e-06	630610.3	270147.12	-0.00025765764	270147.47	630610.4	-0.00026352538
0	0.64329153	0.64329135	-3.6304518e-10	0.06887121	0.06887121	0	13742.19	13742.185	-7.148912e-06	630694.44	269913.3	-0.0001931571	269913.66	630694.5	-0.00027535402
0	0.64318454	0.6431843	-1.8088542e-10	0.06873101	0.06873101	0	13739.904	13739.9	-4.6801897e-06	630778.4	269679.5	-0.0001476999	269679.84	630778.5	-0.000159021
0	0.64307714	0.64307696	-5.0856425e-10	0.068588786	0.068588786	0	13737.607	13737.6045	-4.4641843e-06	630862.25	269445.38	-0.0001125477	269445.75	630862.3	-0.00018001709
0	0.64296895	0.6429687	-3.6108674e-10	0.068448305	0.068448305	0	13735.295	13735.294	-5.1865486e-06	630946.6	269209.56	-0.00018669516	269209.84	630946.6	-0.00015321045
0	0.6428611	0.64286095	-2.502896e-10	0.0683061	0.0683061	0	13732.995	13732.992	-1.8944587e-06	631030.6	268974.6	-0.0001568701	268974.9	631030.75	3.2714845e-05
0	0.6427527	0.6427525	-4.1776985e-10	0.068165876	0.068165876	0	13730.68	13730.675	-8.023904e-06	631114.9	268738.66	-0.0002522828	268738.97	631114.9	-0.0002735718
0	0.6426447	0.6426445	-2.0136358e-10	0.068023674	0.068023674	0	13728.372	13728.369	-6.253825e-06	631199	268503.3	-0.00028496058	268503.66	631199.06	-0.00012489014
0	0.6425361	0.6425359	-3.0433053e-10	0.067881495	0.067881495	0	13726.052	13726.047	-7.317815e-06	631283.25	268267	-0.00020664334	268267.3	631283.2	-0.000272937
0	0.64242685	0.6424266	-1.618785e-10	0.06774126	0.06774126	0	13723.719	13723.713	-5.0399512e-06	631367.8	268029.44	-0.00013703652	268029.75	631367.8	-0.00019326172
0	0.6423178	0.6423176	-4.4571744e-10	0.06759908	0.06759908	0	13721.388	13721.383	-9.241899e-06	631452.06	267792.5	-0.00024104085	267792.78	631452.1	-0.00036463622
0	0.6422083	0.64220816	-2.113572e-10	0.06745857	0.06745857	0	13719.05	13719.045	-5.211487e-06	631536.75	267554.62	-0.00025084175	267554.9	631536.8	-9.069824e-05
0	0.6420989	0.64209884	-3.5328906e-10	0.0673164	0.0673164	0	13716.714	13716.711	-8.286386e-06	631621	267317.28	-0.00019784179	267317.62	631621	-0.00034521485
0	0.64198905	0.6419889	-2.7047692e-10	0.06717612	0.06717612	0	13714.367	13714.362	-4.278883e-06	631705.56	267078.88	-0.00016331882	267079.16	631705.6	-0.00011710205
0	0.6418791	0.6418789	-2.990004e-10	0.06703257	0.06703257	0	13712.018	13712.013	-7.8272915e-06	631789.75	266840.66	-0.0002763971	266840.97	631789.75	-0.00023657226
0	0.6417667	0.64176655	-4.977866e-10	0.06689235	0.06689235	0	13709.615	13709.612	-5.8099067e-06	631876.4	266596.75	-0.00023752074	266597.06	631876.4	-0.00014323731
0	0.6416578	0.6416577	-3.1509673e-10	0.06675015	0.06675015	0	13707.291	13707.286	-5.1825805e-06	631959.4	266361.28	-0.00011989463	266361.62	631959.4	-0.00021975097
0	0.641547	0.64154685	-3.1229994e-10	0.06660991	0.06660991	0	13704.925	13704.919	-5.24282e-06	632043.75	266121.75	-0.0001875998	266122.06	632043.9	-0.00015599365
0	0.6414342	0.641434	-2.8065159e-10	0.06646746	0.06646746	0	13702.513	13702.51	-7.2697558e-06	632130.5	265877.03	-0.00028851567	265877.3	632130.56	-0.00018791504
0	0.6413247	0.6413246	-3.8577455e-10	0.066327125	0.066327125	0	13700.175	13700.172	-5.80709e-06	632213.4	265640.9	-0.00011104219	265641.2	632213.5	-0.00026953124
0	0.6412119	0.64121187	-3.435663e-10	0.066185005	0.066185005	0	13697.766	13697.761	-7.0103442e-06	632298.7	265397.72	-0.00023546751	265398.03	632298.9	-0.0002239624
0	0.6411008	0.6411007	-8.515447e-11	0.06604292	0.06604292	0	13695.394	13695.389	-6.6085863e-06	632383.6	265157.4	-0.0002183664	265157.7	632383.6	-0.00021473388
0	0.6409886	0.6409884	-2.3185981e-10	0.065902665	0.065902665	0	13692.994	13692.989	-5.3922786e-06	632468.25	264915.38	-0.0001591379	264915.72	632468.3	-0.00019425049
0	0.6408746	0.6408744	-3.1708938e-10	0.06576051	0.06576051	0	13690.56	13690.557	-6.930127e-06	632555.25	264668.97	-0.00028450726	264669.25	632555.2	-0.00016966552
0	0.6407625	0.6407623	-1.9425085e-10	0.065620236	0.065620236	0	13688.162	13688.159	-3.4402583e-06	632640.1	264427.1	-0.0002218597	264427.34	632640.2	-3.6010742e-06
0	0.64065087	0.6406508	-1.2224495e-10	0.06547782	0.06547782	0	13685.781	13685.776	-7.2568616e-07	632723.44	264187.56	-1.5869116e-05	264187.84	632723.56	-3.1689455e-05
0	0.6405358	0.6405357	-4.0944997e-10	0.06533745	0.06533745	0	13683.322	13683.318	-6.0805655e-06	632810.6	263939.22	-0.0002956151	263939.5	632810.75	-0.00010288086
0	0.6404231	0.6404229	-3.7576428e-10	0.065195374	0.065195374	0	13680.914	13680.911	-8.512992e-06	632895.4	263696.66	-0.00023002662	263696.94	632895.5	-0.00032788087
0	0.6403105	0.64031035	-4.816439e-10	0.06505365	0.06505365	0	13678.51	13678.506	-1.1180164e-05	632979.44	263455.06	-0.00033524228	263455.34	632979.5	-0.00039746094
0	0.6401949	0.6401947	-3.8892914e-10	0.06491158	0.06491158	0	13676.039	13676.036	-5.9736717e-06	633066.5	263206.03	-0.00025067024	263206.3	633066.5	-0.00014082031
0	0.64008135	0.64008117	-2.2810352e-10	0.0647712	0.0647712	0	13673.612	13673.611	-4.8651937e-06	633151.5	262962.12	-0.00016636729	262962.4	633151.6	-0.00015247802
0	0.639968	0.6399678	-3.382061e-10	0.06462915	0.06462915	0	13671.19	13671.1875	-8.928781e-06	633235.56	262719.25	-0.00031455117	262719.53	633235.7	-0.00027060547
0	0.6398525	0.63985234	-2.8808878e-10	0.06448846	0.06448846	0	13668.724	13668.721	-7.2567223e-06	633321.2	262472.06	-0.00025769323	262472.3	633321.25	-0.0002178833
0	0.6397379	0.6397377	-3.748336e-10	0.06434636	0.06434636	0	13666.276	13666.273	-8.18972e-06	633407	262225.88	-0.00020453152	262226.16	633407	-0.00033218993
0	0.639622	0.63962185	-2.8150854e-10	0.06420602	0.06420602	0	13663.8	13663.794	-7.5707576e-06	633493.5	261976.98	-0.00020650873	261977.27	633493.56	-0.00028964845
0	0.6395076	0.6395075	-2.8541625e-10	0.06406402	0.06406402	0	13661.356	13661.3545	-6.7295928e-06	633577.8	261732.66	-0.0002166165	261732.97	633577.8	-0.00022441406
0	0.63939124	0.6393911	-3.2364908e-10	0.063922	0.063922	0	13658.873	13658.869	-4.475153e-06	633663.8	261483.8	-0.00021186273	261484.11	633663.8	-8.14209e-05
0	0.6392746	0.6392745	-3.306668e-10	0.06378159	0.06378159	0	13656.38	13656.378	-8.536906e-06	633749.5	261234.77	-0.00031310017	261235.05	633749.5	-0.00024637452
0	0.63915884	0.63915867	-1.5920178e-10	0.06363921	0.06363921	0	13653.906	13653.903	-8.504081e-06	633835.1	260987.08	-0.00026024092	260987.36	633835.2	-0.00029708253
0	0.6390424	0.63904226	-4.597217e-10	0.06349885	0.06349885	0	13651.419	13651.416	-8.5374395e-06	633921.1	260737.89	-0.00034736368	260738.23	633921.25	-0.000212146
0	0.6389251	0.638925	-4.0658532e-10	0.06335679	0.06335679	0	13648.912	13648.909	-4.3172013e-06	634008	260486.78	-0.00017107907	260487.05	634008.2	-0.00011185303
0	0.6388087	0.6388086	-4.6804083e-10	0.0632164	0.0632164	0	13646.425	13646.425	-1.0273232e-05	634093.06	260238.88	-0.00046972648	260239.16	634093.2	-0.00020354004
0	0.63869125	0.6386912	-3.6790926e-10	0.06307295	0.06307295	0	13643.919	13643.912	-7.4516624e-06	634179.2	259988.38	-0.00029253916	259988.69	634179.1	-0.00019581299
0	0.63857365	0.63857347	-1.5205258e-10	0.06293256	0.06293256	0	13641.403	13641.401	-6.4702763e-06	634264.7	259738.14	-0.00020122109	259738.39	634264.75	-0.00022281494
0	0.6384551	0.638455	-2.761163e-10	0.0627905	0.0627905	0	13638.873	13638.87	-6.7040833e-06	634351.2	259485.6	-0.00027030363	259485.88	634351.3	-0.00016905517
0	0.6383379	0.6383378	-2.6303806e-10	0.062649734	0.062649734	0	13636.369	13636.367	-5.192674e-06	634436.94	259235.89	-0.00017728219	259236.14	634437	-0.0001630249
0	0.63821757	0.63821745	-2.6005695e-10	0.06250778	0.06250778	0	13633.799	13633.795	-7.697579e-06	634525.06	258979.22	-0.0003140511	258979.48	634525.2	-0.00019041749
0	0.6381006	0.63810056	-2.3379126e-10	0.06236728	0.06236728	0	13631.3	13631.295	-7.2187263e-06	634609.25	258731.3	-0.00024601124	258731.58	634609.3	-0.0002270752
0	0.63798136	0.6379812	-3.9292827e-10	0.06222535	0.06222535	0	13628.752	13628.75	-7.929001e-06	634695.6	258477.98	-0.00034459837	258478.23	634695.7	-0.00017503662
0	0.6378606	0.6378604	-4.2923956e-10	0.06208344	0.06208344	0	13626.17	13626.169	-5.59624e-06	634783.94	258220.62	-0.00026483866	258220.88	634784.06	-0.00010191651
0	0.6377426	0.63774246	-2.9563188e-10	0.061942905	0.061942905	0	13623.651	13623.646	-5.0851536e-06	634868.7	257970.61	-0.00013660536	257970.88	634868.75	-0.00019665527
0	0.6376233	0.63762325	-2.1040716e-10	0.061800998	0.061800998	0	13621.1045	13621.1	-5.6952463e-06	634954.5	257717.9	-0.00019504542	257718.17	634954.6	-0.00017819824
0	0.6375012	0.637501	-2.0719472e-10	0.06166019	0.06166019	0	13618.494	13618.492	-6.2931804e-06	635043.25	257458.17	-0.00020699773	257458.44	635043.4	-0.00020543212
0	0.6373824	0.6373822	-3.1205874e-10	0.06151828	0.06151828	0	13615.955	13615.955	-4.734501e-06	635128.06	257206.97	-0.00028143506	257207.19	635128.2	-2.8845216e-05
0	0.6372605	0.6372604	-2.7106936e-10	0.06137774	0.06137774	0	13613.35	13613.35	-3.4248164e-06	635216.3	256948.14	-0.00021834526	256948.4	635216.3	-6.1035157e-06
0	0.6371408	0.6371408	-2.8293326e-10	0.061235856	0.061235856	0	13610.797	13610.795	-6.241723e-06	635301.4	256695.61	-0.00019075922	256695.81	635301.5	-0.00021829834
0	0.6370196	0.63701946	-2.695755e-10	0.061093815	0.061093815	0	13608.209	13608.205	-7.978827e-06	635388.1	256439.17	-0.0002812378	256439.42	635388.25	-0.0002416626
0	0.63689756	0.6368974	-2.2352012e-10	0.06095187	0.06095187	0	13605.6	13605.597	-4.2883853e-06	635475.7	256180.58	-0.00026212272	256180.81	635475.9	-1.8920899e-05
0	0.63677675	0.6367767	-3.7285766e-10	0.06081137	0.06081137	0	13603.019	13603.019	-5.37227e-06	635561.2	255926.02	-0.00031904486	255926.22	635561.4	-3.3032225e-05
0	0.6366546	0.6366545	-3.8541575e-10	0.060669135	0.060669135	0	13600.409	13600.406	-3.8764642e-06	635648.06	255668.17	-0.00014945814	255668.38	635648.06	-0.000104589846
0	0.636532	0.6365319	-4.8670656e-10	0.060528617	0.060528617	0	13597.791	13597.787	-8.0296095e-06	635735.06	255409.6	-0.00021581587	255409.81	635735.2	-0.0003104126
0	0.63640964	0.6364096	-3.3893743e-10	0.0603867	0.0603867	0	13595.175	13595.175	-8.971473e-06	635821.9	255151.39	-0.00026606728	255151.61	635822	-0.0003218872
0	0.63628566	0.6362856	-2.5027325e-10	0.060244866	0.060244866	0	13592.529	13592.526	-1.1293525e-05	635910.2	254889.58	-0.00022217589	254889.78	635910.25	-0.00051795656
0	0.63616365	0.6361636	-3.07484e-10	0.06010433	0.06010433	0	13589.92	13589.919	-5.0605136e-06	635996	254632.83	-0.00024259553	254633.03	635996.1	-8.905029e-05
0	0.6360405	0.63604033	-3.826136e-10	0.05996244	0.05996244	0	13587.291	13587.289	-1.8908582e-06	636082.7	254373.77	-0.0002440731	254373.98	636082.9	0.00012015381
0	0.63591504	0.6359149	-2.7045782e-10	0.059821885	0.059821885	0	13584.611	13584.607	-7.195756e-06	636171.5	254109.36	-0.00018919582	254109.56	636171.5	-0.00028238524
0	0.63579226	0.63579226	-2.566794e-10	0.059679706	0.059679706	0	13581.987	13581.987	-5.898649e-06	636257.1	253851.8	-0.0001396012	253852.03	636257.4	-0.00024697266
0	0.63566834	0.63566834	-2.061963e-10	0.059539147	0.059539147	0	13579.341	13579.339	-7.0190863e-06	636344.2	253591.25	-0.00024664836	253591.45	636344.3	-0.00021335449
0	0.6355432	0.63554317	-2.7918937e-10	0.05939726	0.05939726	0	13576.669	13576.667	-4.5129395e-06	636431.9	253328.48	-0.0002906941	253328.75	636432	-5.065918e-06
0	0.63541865	0.63541853	-2.0350023e-10	0.059255093	0.059255093	0	13574.006	13574.006	-7.1001728e-06	636518.75	253067.11	-0.00017651076	253067.31	636518.9	-0.00028880616
0	0.6352937	0.6352937	-3.8011935e-10	0.059113316	0.059113316	0	13571.338	13571.338	-5.780496e-06	636606	252805.06	-0.00021419434	252805.3	636606.06	-0.00016463624
0	0.6351681	0.63516796	-3.4410852e-10	0.058972638	0.058972638	0	13568.654	13568.651	-9.884032e-06	636693.6	252541.55	-0.00027941278	252541.77	636693.7	-0.00036834716
0	0.6350419	0.6350418	-2.5533392e-10	0.058830876	0.058830876	0	13565.958	13565.956	-6.327997e-06	636781.4	252277.14	-0.0002089377	252277.38	636781.44	-0.00020577393
0	0.6349159	0.6349158	-3.2458167e-10	0.058689874	0.058689874	0	13563.268	13563.266	-5.965533e-06	636869	252013	-0.00022927506	252013.19	636869.06	-0.00016168212
0	0.63478875	0.63478875	-3.4766745e-10	0.058548026	0.058548026	0	13560.552	13560.55	-8.845245e-06	636956.2	251748.05	-0.00028097598	251748.22	636956.25	-0.00029870606
0	0.6346635	0.63466346	-3.004197e-10	0.058407396	0.058407396	0	13557.877	13557.875	-3.979465e-06	637043.4	251485.39	-0.00019937243	251485.6	637043.5	-6.142578e-05
0	0.63453674	0.63453674	-5.0084026e-10	0.05826568	0.05826568	0	13555.169	13555.166	-5.6150857e-06	637130.75	251220.56	-0.00023173538	251220.7	637130.8	-0.00013625488
0	0.63440937	0.63440937	-1.7075256e-10	0.058123965	0.058123965	0	13552.445	13552.447	-5.0795197e-06	637218.4	250954.58	-0.00020822101	250954.8	637218.44	-0.0001246704
0	0.6342816	0.6342815	-1.3574813e-10	0.05798323	0.05798323	0	13549.717	13549.716	-4.7556487e-06	637306.44	250687.6	-0.00011515739	250687.8	637306.5	-0.00019650879
0	0.6341537	0.6341537	-3.122743e-10	0.057841532	0.057841532	0	13546.987	13546.984	-1.8174287e-06	637394	250421.05	-0.000120278884	250421.25	637394.1	1.171875e-06
0	0.6340257	0.6340257	-1.5291032e-10	0.057700448	0.057700448	0	13544.25	13544.25	-7.341861e-06	637482.25	250153.58	-0.0002530068	250153.78	637482.4	-0.00022814941
0	0.63389754	0.6338975	-4.2161435e-10	0.057558686	0.057558686	0	13541.513	13541.513	-6.284189e-06	637569.94	249886.6	-0.00027711166	249886.75	637570.06	-0.00013472901
0	0.6337678	0.6337678	-4.211569e-10	0.057418007	0.057418007	0	13538.742	13538.739	-8.415501e-06	637659.06	249615.64	-0.00035936735	249615.8	637659.2	-0.00019215088
0	0.63364005	0.63364005	-3.3116077e-10	0.05727468	0.05727468	0	13536.013	13536.013	-4.7125664e-06	637745.5	249350.34	-0.0003506152	249350.58	637745.75	4.1772462e-05
0	0.6335095	0.6335095	-2.3982416e-10	0.05713398	0.05713398	0	13533.222	13533.222	-7.4910013e-06	637835	249078.14	-0.0002205445	249078.33	637835.1	-0.00027038573
0	0.6333807	0.6333807	-3.284308e-10	0.056992244	0.056992244	0	13530.472	13530.472	-4.794219e-06	637921.94	248810.9	-0.00025159627	248811.11	637922.1	-6.259765e-05
0	0.6332511	0.633251	-4.1927534e-10	0.056851108	0.056851108	0	13527.703	13527.705	-7.0545175e-06	638009.94	248541.44	-0.00028188052	248541.64	638010.06	-0.00018044433
0	0.63312083	0.6331208	-2.1241642e-10	0.05670946	0.05670946	0	13524.919	13524.919	-1.7069985e-06	638098.06	248270.84	-0.00022635961	248271	638098.25	0.00011448975
0	0.63298947	0.6329893	-1.7497434e-10	0.05656864	0.05656864	0	13522.112	13522.112	-5.3908857e-06	638187.3	247997.7	-0.00019005247	247997.88	638187.5	-0.00016324462
0	0.63285846	0.6328585	-2.5754765e-10	0.05642701	0.05642701	0	13519.315	13519.315	-8.6474565e-06	638275.56	247726.05	-0.00033896093	247726.28	638275.7	-0.00022775879
0	0.63272816	0.63272816	-2.708286e-10	0.056285422	0.056285422	0	13516.531	13516.531	-4.455989e-06	638362.2	247457.05	-0.00021556285	247457.23	638362.44	-7.646484e-05
0	0.632597	0.6325969	-3.2170527e-10	0.056144662	0.056144662	0	13513.729	13513.7295	-7.721397e-06	638450.75	247184.88	-0.00019424966	247185.03	638450.9	-0.0003117798
0	0.63246506	0.63246495	-4.3413428e-10	0.056002956	0.056002956	0	13510.909	13510.911	-6.220625e-06	638538.9	246912.03	-0.00020359777	246912.2	638539	-0.00020407715
0	0.6323332	0.6323332	-2.3821395e-10	0.055861782	0.055861782	0	13508.094	13508.094	-6.7780043e-06	638627.56	246638.75	-0.00014513101	246638.9	638627.7	-0.00029907227
0	0.6322012	0.6322012	-4.4108486e-10	0.055720203	0.055720203	0	13505.273	13505.273	-9.127426e-06	638715.8	246365.64	-0.0003386779	246365.84	638715.94	-0.00025949706
0	0.63206786	0.6320679	-1.5071715e-10	0.055579327	0.055579327	0	13502.427	13502.427	-7.631292e-06	638804.4	246090.44	-0.00026850816	246090.6	638804.56	-0.00023161621
0	0.63193595	0.63193595	-3.438966e-10	0.055437762	0.055437762	0	13499.609	13499.609	-1.1992595e-05	638892.3	245817.88	-0.00031167912	245818.03	638892.44	-0.00047426758
0	0.6318006	0.6318006	-1.2083697e-10	0.05529525	0.05529525	0	13496.717	13496.716	-8.754636e-06	638983	245537.6	-0.00019173698	245537.72	638983.25	-0.00038200684
0	0.63166875	0.63166875	-4.082408e-10	0.055153705	0.055153705	0	13493.9	13493.9	-7.5550574e-06	639069.9	245266.12	-0.00026756478	245266.3	639070.06	-0.00022756348
0	0.6315345	0.6315345	-2.369278e-10	0.055012755	0.055012755	0	13491.031	13491.033	-7.545111e-06	639158.8	244989.34	-0.000275702	244989.47	639159	-0.00021877441
0	0.63140017	0.6314002	-1.5632065e-10	0.05487082	0.05487082	0	13488.164	13488.164	-6.0098e-06	639247.4	244712.78	-0.00023641196	244712.94	639247.56	-0.0001574463
0	0.6312661	0.6312662	-1.5868472e-10	0.05472997	0.05472997	0	13485.3	13485.3	-5.5791998e-06	639335.7	244436.7	-0.00027489138	244436.86	639335.94	-9.074707e-05
0	0.63113105	0.6311311	-3.1473907e-10	0.054588366	0.054588366	0	13482.414	13482.414	-7.634345e-06	639424.5	244158.88	-0.00021052957	244159	639424.7	-0.00028979493
0	0.63099563	0.63099563	-4.3238224e-10	0.05444749	0.05444749	0	13479.521	13479.5205	-8.402737e-06	639513.8	243879.94	-0.00027245912	243880.14	639513.94	-0.00027822267
0	0.6308603	0.6308603	-2.8983446e-10	0.05430601	0.05430601	0	13476.631	13476.633	-5.8389587e-06	639602.3	243601.97	-0.00019667568	243602.12	639602.56	-0.00018598633
0	0.6307249	0.6307248	-4.1785134e-10	0.05416443	0.05416443	0	13473.736	13473.737	-3.8284425e-06	639691	243323.62	-0.00018083246	243323.78	639691.2	-7.006836e-05
0	0.6305886	0.6305886	-4.5590076e-10	0.054023527	0.054023527	0	13470.825	13470.825	-5.392092e-06	639780.3	243043.61	-0.00023596892	243043.66	639780.44	-0.000117407224
0	0.630452	0.6304521	-1.5792781e-10	0.053881653	0.053881653	0	13467.908	13467.911	-4.6004693e-06	639869.1	242763.58	-0.00020750222	242763.7	639869.3	-9.399414e-05
0	0.6303137	0.6303138	-2.907174e-10	0.053740732	0.053740732	0	13464.951	13464.955	-8.627204e-06	639959.9	242479.25	-0.00032056822	242479.4	639959.94	-0.00024482422
0	0.6301786	0.63017863	-2.1465914e-10	0.05359921	0.05359921	0	13462.068	13462.067	-1.3337065e-06	640047.1	242202.72	-0.0001344517	242202.83	640047.4	4.7045898e-05
0	0.63003933	0.63003933	-3.423152e-10	0.053458266	0.053458266	0	13459.094	13459.094	-6.2787562e-06	640137.94	241917	-0.00022977071	241917.12	640138.2	-0.00018171387
0	0.629902	0.62990206	-2.9742944e-10	0.053315062	0.053315062	0	13456.159	13456.159	-7.925863e-06	640226.94	241635.73	-0.00019521064	241635.84	640227.1	-0.00032421874
0	0.6297652	0.6297653	-3.0968886e-10	0.05317402	0.05317402	0	13453.237	13453.239	-6.9790667e-06	640314.75	241356.47	-0.0002550852	241356.6	640315	-0.00020229492
0	0.6296254	0.62962544	-1.5617366e-10	0.053032607	0.053032607	0	13450.248	13450.25	-7.3272035e-06	640405.4	241070.03	-0.00017355502	241070.19	640405.6	-0.00030664064
0	0.6294886	0.6294886	-2.1058054e-10	0.052891202	0.052891202	0	13447.325	13447.325	-5.213958e-06	640492.94	240790.83	-0.00013821074	240790.94	640493.2	-0.00020349122
0	0.6293468	0.62934685	-2.679808e-10	0.052749805	0.052749805	0	13444.297	13444.297	-5.704546e-06	640584.4	240500.94	-0.0002559088	240501.05	640584.6	-0.000117944335
0	0.62920946	0.6292096	-2.900793e-10	0.05260872	0.05260872	0	13441.364	13441.365	-6.0184725e-06	640671.94	240221.28	-0.00024928502	240221.39	640672.1	-0.0001451416
0	0.629069	0.629069	-3.631662e-10	0.05246734	0.05246734	0	13438.361	13438.362	-7.334826e-06	640762.7	239933.67	-0.00023006038	239933.77	640762.9	-0.00025063477
0	0.6289294	0.6289295	-1.569274e-10	0.052325986	0.052325986	0	13435.381	13435.383	-6.9330863e-06	640851	239650	-0.00021654935	239650.1	640851.25	-0.00023781738
0	0.6287879	0.628788	-2.3251459e-10	0.052184872	0.052184872	0	13432.359	13432.359	-4.25708e-06	640942	239360.97	-0.00020213652	239361.08	640942.25	-7.685547e-05
0	0.6286488	0.62864894	-3.9644388e-10	0.05204354	0.05204354	0	13429.388	13429.389	-1.08864e-05	641029.8	239078.5	-0.00016196184	239078.58	641029.94	-0.00055148924
0	0.6285083	0.6285083	-2.7852812e-10	0.051902063	0.051902063	0	13426.386	13426.388	-6.0639454e-06	641119	238792.42	-0.00014989697	238792.58	641119.25	-0.00024750977
0	0.62836623	0.6283664	-3.602894e-10	0.05176075	0.05176075	0	13423.352	13423.3545	-7.2411667e-06	641208.8	238503.81	-0.00019945945	238503.94	641209.06	-0.00027509764
0	0.6282248	0.6282249	-2.885024e-10	0.05161957	0.05161957	0	13420.331	13420.331	-6.424908e-06	641298.8	238215.9	-0.00031180985	238215.98	641299	-0.00010925293
0	0.6280826	0.6280827	-2.8886032e-10	0.05147645	0.05147645	0	13417.291	13417.294	-7.290626e-06	641388.06	237927.45	-0.00023072817	237927.55	641388.3	-0.0002470703
0	0.62794036	0.6279405	-4.0200465e-10	0.051335365	0.051335365	0	13414.253	13414.256	-7.0445994e-06	641477.8	237638.66	-0.00030696293	237638.73	641478	-0.00015471192
0	0.62779796	0.627798	-3.6351064e-10	0.051193982	0.051193982	0	13411.211	13411.213	-3.4528662e-06	641567.6	237349.38	-0.00013668742	237349.48	641567.9	-8.959961e-05
0	0.62765443	0.6276545	-2.2150946e-10	0.051052876	0.051052876	0	13408.1455	13408.146	-5.223239e-06	641657.2	237058.97	-0.000210401	237059.08	641657.4	-0.00013190918
0	0.6275108	0.62751096	-2.5131222e-10	0.05091117	0.05091117	0	13405.078	13405.08	-7.6267606e-06	641747.5	236767.55	-0.00022885569	236767.64	641747.75	-0.00027097168
0	0.627367	0.6273671	-1.8856287e-10	0.050769925	0.050769925	0	13402.005	13402.008	-4.5848074e-06	641837.44	236476.22	-0.000271051	236476.28	641837.75	-2.9418945e-05
0	0.6272237	0.62722373	-3.8724743e-10	0.05062868	0.05062868	0	13398.943	13398.947	-6.939344e-06	641927.2	236185.95	-0.0003247964	236186.03	641927.3	-0.00012998047
0	0.62707967	0.62707984	-4.5997467e-10	0.050487477	0.050487477	0	13395.867	13395.869	-1.0732322e-05	642016.75	235894.73	-0.00030977436	235894.78	642017	-0.0003935791
0	0.6269346	0.62693465	-2.2447862e-10	0.050346322	0.050346322	0	13392.769	13392.769	-8.223258e-06	642106.94	235601.48	-0.0003575474	235601.52	642107.1	-0.00018137207
0	0.6267893	0.6267894	-2.4404684e-10	0.050205022	0.050205022	0	13389.662	13389.666	-4.3190184e-06	642197.06	235307.9	-0.00020175238	235307.92	642197.25	-8.129883e-05
0	0.62664384	0.62664396	-3.1383554e-10	0.05006385	0.05006385	0	13386.557	13386.56	-3.1929237e-06	642287.44	235013.94	-0.00031579446	235013.94	642287.75	0.00010654297
0	0.62649816	0.62649834	-2.9216865e-10	0.04992218	0.04992218	0	13383.445	13383.448	-6.2401623e-06	642377.6	234719.75	-0.00021313007	234719.83	642377.9	-0.0001958252
0	0.62635064	0.62635076	-3.0701494e-10	0.049780898	0.049780898	0	13380.294	13380.297	-5.759189e-06	642469.25	234421.66	-0.00022167248	234421.66	642469.56	-0.00015576172
0	0.62620586	0.62620604	-3.4007613e-10	0.049639706	0.049639706	0	13377.2	13377.203	-7.3289934e-06	642557.6	234130.53	-0.00027481976	234130.56	642557.9	-0.00020549317
0	0.6260588	0.62605894	-4.948515e-10	0.049496647	0.049496647	0	13374.058	13374.0625	-1.1359794e-05	642647.94	233834.34	-0.00028175573	233834.39	642648.2	-0.00046271973
0	0.62591213	0.62591225	-3.5266526e-10	0.049355462	0.049355462	0	13370.925	13370.927	-7.2277435e-06	642737.9	233539	-0.00021278874	233539.05	642738.06	-0.0002608887
0	0.62576365	0.6257638	-1.8937375e-10	0.049214177	0.049214177	0	13367.755	13367.756	-8.39371e-06	642828.7	233240.34	-0.00033900622	233240.34	642828.94	-0.00021108399
0	0.62561613	0.6256163	-1.9312238e-10	0.049072508	0.049072508	0	13364.6045	13364.606	-8.87631e-06	642919	232943.47	-0.00024831947	232943.48	642919.3	-0.00033339844
0	0.6254676	0.6254677	-2.5783492e-10	0.048931316	0.048931316	0	13361.43	13361.432	-6.801245e-06	643009.75	232644.78	-0.0001901356	232644.81	643009.94	-0.00025559083
0	0.6253193	0.6253195	-3.144409e-10	0.04879003	0.04879003	0	13358.263	13358.264	-5.119248e-06	643099.75	232347.27	-0.0003045868	232347.3	643100.06	-3.0908202e-05
0	0.6251704	0.6251706	-3.8441322e-10	0.048648838	0.048648838	0	13355.08	13355.081	-1.1799143e-05	643190.2	232048.33	-0.0003674825	232048.33	643190.44	-0.00040578612
0	0.6250207	0.62502086	-2.569964e-10	0.04850767	0.04850767	0	13351.881	13351.885	-6.754091e-06	643280.8	231748.08	-0.00022654721	231748.08	643281.06	-0.00021608887
0	0.6248715	0.62487173	-3.173796e-10	0.04836648	0.04836648	0	13348.695	13348.7	-4.3083596e-06	643371.2	231448.98	-0.00022913	231449.02	643371.3	-5.3222655e-05
0	0.62472105	0.6247213	-2.6789984e-10	0.04822517	0.04822517	0	13345.481	13345.484	-5.2066034e-06	643462.1	231147.31	-0.00019427174	231147.31	643462.44	-0.00014694824
0	0.62457126	0.6245715	-1.7475003e-10	0.048083518	0.048083518	0	13342.281	13342.287	-7.2909606e-06	643552.3	230847.48	-0.00030867974	230847.48	643552.6	-0.00016914062
0	0.6244203	0.62442046	-4.1686243e-10	0.04794232	0.04794232	0	13339.057	13339.06	-6.4648834e-06	643642.8	230545.56	-0.0003534189	230545.56	643643.1	-7.0263675e-05
0	0.62426883	0.62426907	-2.6241884e-10	0.04780102	0.04780102	0	13335.822	13335.825	-5.1681654e-06	643734.1	230242.33	-0.00022888643	230242.3	643734.4	-0.00010981446
0	0.62411594	0.624116	2.3219628e-11	0.04765983	0.04765983	0	13332.553	13332.558	-4.685844e-06	643826.4	229935.8	-0.00019854655	229935.77	643826.7	-0.00010854492
0	0.62396556	0.6239656	-1.9602218e-10	0.047516864	0.047516864	0	13329.341	13329.344	-6.6740054e-06	643915.75	229635.94	-0.0002901464	229635.89	643916.06	-0.00014724121
0	0.6238132	0.62381345	-3.5139736e-10	0.04737567	0.04737567	0	13326.088	13326.092	-9.800601e-06	644006.7	229331.78	-0.00022908422	229331.78	644006.94	-0.000413208
0	0.62366116	0.6236614	-2.9410316e-10	0.04723435	0.04723435	0	13322.839	13322.844	-8.492716e-06	644096.8	229028.77	-0.00022603665	229028.77	644097.1	-0.00033054198
0	0.62350804	0.6235082	-2.5628225e-10	0.047092684	0.047092684	0	13319.568	13319.575	-7.0127667e-06	644188.06	228723.2	-0.00025870977	228723.17	644188.4	-0.0002008789
0	0.6233543	0.6233545	-2.3219503e-10	0.046951488	0.046951488	0	13316.284	13316.287	-6.344026e-06	644279	228417.08	-0.00026878944	228417.05	644279.25	-0.00014697266
0	0.6231996	0.6231997	-1.3675913e-10	0.046810202	0.046810202	0	13312.979	13312.982	-3.1853901e-06	644371.56	228107.9	-0.00016329876	228107.88	644371.8	-4.5458983e-05
0	0.62304693	0.6230472	-1.536139e-10	0.04666901	0.04666901	0	13309.719	13309.724	-6.831279e-06	644461	227804.7	-0.00016331968	227804.7	644461.25	-0.000284375
0	0.6228907	0.62289095	-1.1519116e-10	0.04652784	0.04652784	0	13306.381	13306.386	-7.0398964e-06	644553.6	227493.42	-0.0002474018	227493.4	644553.8	-0.00021396484
0	0.6227371	0.6227373	-3.1126746e-10	0.046386525	0.046386525	0	13303.099	13303.104	-4.2359216e-06	644642.9	227188.97	-0.00017941199	227188.94	644643.25	-9.819336e-05
0	0.6225826	0.62258285	-2.2771887e-10	0.046245333	0.046245333	0	13299.8	13299.805	-9.22552e-06	644733.94	226881.77	-0.00020418868	226881.73	644734.25	-0.00040041504
0	0.62242717	0.62242734	-2.9109626e-10	0.04610365	0.04610365	0	13296.479	13296.484	-4.496648e-06	644825.06	226573.03	-0.00019920892	226573	644825.3	-9.5483396e-05
0	0.6222704	0.6222707	-3.4877085e-10	0.04596245	0.04596245	0	13293.131	13293.136	-6.0310185e-06	644916.6	226261.98	-0.00020459943	226261.97	644917	-0.00019064941
0	0.62211466	0.62211484	-2.3080138e-10	0.04582115	0.04582115	0	13289.803	13289.81	-3.2505718e-06	645007.44	225953.05	-9.55246e-05	225953	645007.9	-0.00011750488
0	0.6219557	0.62195605	-2.9800432e-10	0.045679953	0.045679953	0	13286.409	13286.416	-1.0131046e-05	645100.94	225637.25	-0.00032744926	225637.14	645101.25	-0.000336499
0	0.6217984	0.62179875	-3.402349e-10	0.04553704	0.04553704	0	13283.047	13283.053	-8.4338535e-07	645192.1	225325.64	-0.0001389391	225325.6	645192.56	8.366699e-05
0	0.62164277	0.621643	-3.7376213e-10	0.04539575	0.04539575	0	13279.722	13279.729	-3.5067999e-06	645281.5	225018.42	-0.00022860093	225018.38	645281.8	-1.2207031e-06
0	0.62148577	0.621486	-2.3189839e-10	0.045254562	0.045254562	0	13276.367	13276.375	-6.2224763e-06	645372.7	224707.38	-0.00029812826	224707.36	645373	-0.00010966797