# t (s)	mx ()	my ()	mz ()	B_extx (T)	B_exty (T)	B_extz (T)	m_fullx (A/m)	m_fully (A/m)	m_fullz (A/m)	m_full.region1x (A/m)	m_full.region1y (A/m)	m_full.region1z (A/m)	m_full.region2x (A/m)	m_full.region2y (A/m)	m_full.region2z (A/m)
0	0.6345507	0.63702977	9.861704e-10	0.070710264	0.070710264	0	33424.266	33554.848	5.125e-05	643739.2	246489.4	0.0005902157	244971.25	645012.94	0.0007759336
0	0.6344414	0.63692343	-3.0496033e-10	0.07056894	0.07056894	0	33418.508	33549.25	-1.609375e-05	643811.75	246266.47	-0.00020782244	244746.06	645086.94	-0.00020954356
0	0.63432807	0.6368123	-2.8911823e-10	0.070427224	0.070427224	0	33412.535	33543.395	-1.53125e-05	643889	246032.06	-0.00016625795	244510.27	645165.4	-0.00024273859
0	0.63421494	0.63670117	-2.9703928e-10	0.07028601	0.07028601	0	33406.58	33537.535	-1.65625e-05	643966.06	245798.19	-0.00020782244	244275.08	645243.3	-0.00021473029
0	0.6341003	0.63658845	-1.7822357e-10	0.070144705	0.070144705	0	33400.54	33531.605	-9.53125e-06	644043.8	245561.47	-4.9877384e-05	244037.06	645322.1	-0.00017219917
0	0.63398635	0.63647664	-2.2178934e-10	0.07000351	0.07000351	0	33394.535	33525.715	-1.234375e-05	644121.3	245326.2	-0.00014963215	243800.47	645400.56	-0.0001753112
0	0.6338729	0.63636535	-2.4159194e-10	0.06986235	0.06986235	0	33388.566	33519.848	-1.265625e-05	644198.6	245091.69	-0.00016625795	243564.58	645478.9	-0.00016701245
0	0.633759	0.6362534	-1.7030252e-10	0.06972101	0.06972101	0	33382.562	33513.953	-8.75e-06	644275.9	244856.45	-6.650318e-05	243328.03	645557.2	-0.00013485477
0	0.6336435	0.63614	-1.02973616e-10	0.06957981	0.06957981	0	33376.473	33507.973	-4.84375e-06	644353.4	244618.78	-1.6625794e-05	243089.05	645635.6	-8.9211615e-05
0	0.6335293	0.6360278	-2.0990776e-10	0.069438085	0.069438085	0	33370.46	33502.07	-1.09375e-05	644430.7	244383.22	-0.00013300635	242852.12	645714.06	-0.00015560167
0	0.63341445	0.6359151	-9.9013096e-11	0.06929687	0.069296874	0	33364.418	33496.13	-5.3125e-06	644507.75	244146.97	-1.6625794e-05	242614.58	645792.1	-0.00012448133
0	0.63329756	0.63580036	-3.0892086e-10	0.069155574	0.069155574	0	33358.258	33490.086	-1.6875e-05	644586.8	243905.97	-0.00023276113	242372.22	645872.2	-0.00019502075
0	0.63318396	0.63568866	-1.9010514e-10	0.06901438	0.06901438	0	33352.27	33484.203	-1.0625e-05	644663.2	243672.1	-0.00017457084	242137.03	645949.56	-0.00011410788
0	0.6330673	0.63557416	-1.5842096e-10	0.068871625	0.06887162	0	33346.13	33478.176	-8.4375e-06	644741.06	243432.53	-0.00013300635	241896.08	646028.5	-7.6763485e-05
0	0.63295233	0.63546115	-2.8911823e-10	0.068730325	0.06873032	0	33340.066	33472.223	-1.546875e-05	644818.25	243195.92	-0.00023276113	241658.11	646106.7	-0.0001939834
0	0.63283455	0.63534546	-1.7822357e-10	0.06858913	0.06858913	0	33333.867	33466.13	-9.21875e-06	644896.44	242954.61	-0.00013300635	241415.52	646185.9	-0.00010477178
0	0.63271874	0.6352318	-2.7723665e-10	0.06844738	0.06844738	0	33327.766	33460.14	-1.421875e-05	644973.7	242716.81	-0.00018288374	241176.3	646264.06	-0.00017219917
0	0.6326022	0.6351175	-2.019867e-10	0.068306185	0.06830619	0	33321.63	33454.117	-1.046875e-05	645051.7	242477.3	-0.000116380565	240935.42	646343.25	-0.00014522822
0	0.6324857	0.63500315	-1.6238147e-10	0.06816487	0.06816487	0	33315.496	33448.094	-9.21875e-06	645129.1	242238.5	-5.8190282e-05	240695.23	646421.7	-0.00015352697
0	0.6323682	0.6348877	-2.9307876e-10	0.068023674	0.068023674	0	33309.31	33442.01	-1.484375e-05	645206.7	241998.1	-0.00019950954	240453.5	646500.25	-0.00022925311
0	0.6322507	0.63477224	-3.2872347e-10	0.06788248	0.06788248	0	33303.12	33435.934	-1.75e-05	645284.44	241757.48	-0.0002493869	240211.5	646579.1	-0.00021058091
0	0.6321327	0.63465625	-2.6931563e-10	0.06774117	0.06774117	0	33296.895	33429.82	-1.375e-05	645362.06	241516.12	-0.00018288374	239968.78	646657.8	-0.00019502075
0	0.6320144	0.63454014	-3.2476294e-10	0.06759997	0.06759997	0	33290.664	33423.707	-1.671875e-05	645440.1	241274.23	-0.0002909514	239725.52	646736.8	-0.00018257262
0	0.63189554	0.6344235	-2.4159194e-10	0.06745822	0.06745822	0	33284.41	33417.56	-1.265625e-05	645518.8	241030.72	-0.00015794505	239480.6	646816.7	-0.0001680498
0	0.63177896	0.63430893	-3.5248662e-10	0.06731702	0.06731702	0	33278.266	33411.527	-1.859375e-05	645595.4	240792.61	-0.00019950954	239241.11	646894.25	-0.00028319503
0	0.631659	0.63419104	-8.7131524e-11	0.06717567	0.06717567	0	33271.95	33405.324	-4.53125e-06	645673.6	240548.06	-7.4816075e-05	238995.19	646973.5	-6.4315354e-05
0	0.6315414	0.6340756	-2.7723665e-10	0.06703302	0.06703302	0	33265.75	33399.24	-1.4375e-05	645751.2	240307.48	-0.00019119664	238753.2	647052.06	-0.00018257262
0	0.63142055	0.63395685	-2.4159194e-10	0.06689183	0.06689183	0	33259.383	33392.99	-1.171875e-05	645830.1	240061	-0.00013300635	238505.34	647132.1	-0.0001939834
0	0.63130254	0.63384116	-2.7327615e-10	0.06675051	0.06675051	0	33253.17	33386.89	-1.4375e-05	645907.1	239820.56	-0.00014131925	238263.5	647210.1	-0.00022199171
0	0.6311827	0.6337233	-2.2574985e-10	0.06660931	0.06660931	0	33246.85	33380.684	-1.203125e-05	645985.25	239576.17	-0.00019119664	238017.67	647289.44	-0.00014004149
0	0.6310635	0.6336063	-1.3465781e-10	0.06646756	0.06646756	0	33240.58	33374.52	-6.09375e-06	646062.75	239333.58	-0.00010806767	237773.69	647367.94	-6.4315354e-05
0	0.6309424	0.63348746	-2.019867e-10	0.066326216	0.066326216	0	33234.203	33368.258	-1.125e-05	646140.75	239087.84	-0.00015794505	237526.55	647446.94	-0.00015560167
0	0.6308211	0.6333683	-2.4555247e-10	0.06618501	0.06618501	0	33227.81	33361.98	-1.203125e-05	646219.9	238840.53	-0.00014963215	237277.83	647527.06	-0.00018568465
0	0.63070196	0.63325125	-1.1881571e-10	0.066043854	0.066043854	0	33221.535	33355.82	-5.78125e-06	646296.8	238598.48	-9.144187e-05	237034.34	647605.1	-8.40249e-05
0	0.6305804	0.6331318	-2.5743405e-10	0.06590264	0.06590264	0	33215.13	33349.53	-1.28125e-05	646374.7	238352.03	-0.00019950954	236786.5	647684.1	-0.00016286307
0	0.630458	0.63301176	-2.49513e-10	0.06576132	0.06576132	0	33208.68	33343.2	-1.1875e-05	646454.2	238102.94	-0.00019950954	236535.94	647764.7	-0.00014211619
0	0.6303385	0.6328944	-2.019867e-10	0.065620124	0.06562013	0	33202.39	33337.02	-1.046875e-05	646531.06	237860.48	-0.00015794505	236292.05	647842.6	-0.00012759336
0	0.6302151	0.6327732	-1.9010514e-10	0.06547837	0.06547836	0	33195.89	33330.633	-1.015625e-05	646610.2	237610.25	-8.312897e-05	236040.4	647922.9	-0.00017634855
0	0.6300948	0.6326551	-1.66342e-10	0.06533701	0.06533701	0	33189.555	33324.414	-9.375e-06	646687.3	237366.61	-0.00010806767	235795.33	648001	-9.647303e-05
0	0.62997246	0.632535	-1.7822357e-10	0.065195814	0.065195814	0	33183.11	33318.086	-9.6875e-06	646765.56	237118.7	-0.00012469346	235545.97	648080.3	-0.000121369296
0	0.6298502	0.63241494	-2.8911823e-10	0.065053225	0.065053225	0	33176.67	33311.766	-1.546875e-05	646843.6	236871.27	-0.00015794505	235297.08	648159.56	-0.00024273859
0	0.6297273	0.63229424	-1.9406567e-10	0.06491201	0.06491201	0	33170.2	33305.41	-1.171875e-05	646922	236622.6	-0.00015794505	235046.95	648239	-0.00014834024
0	0.6296027	0.6321718	-1.0693414e-10	0.06477071	0.06477071	0	33163.63	33298.96	-5.3125e-06	647001.06	236370.66	-5.8190282e-05	234793.56	648319.2	-0.00011618257
0	0.6294815	0.63205284	-2.6139457e-10	0.06462951	0.06462951	0	33157.25	33292.695	-1.53125e-05	647078	236125.88	-0.00019119664	234547.36	648397.1	-0.00017842323
0	0.6293577	0.63193125	-2.1386828e-10	0.0644877	0.0644877	0	33150.734	33286.293	-1.15625e-05	647156.3	235876.05	-0.00014963215	234296.06	648476.56	-0.00015041494
0	0.6292344	0.6318102	-2.0990776e-10	0.06434639	0.06434639	0	33144.23	33279.906	-1.0625e-05	647234.56	235626.73	-0.00010806767	234045.27	648555.94	-0.00018879668
0	0.6291106	0.63168865	-1.1881571e-10	0.06420519	0.064205185	0	33137.715	33273.504	-5.78125e-06	647312.5	235377.27	-9.144187e-05	233794.33	648634.94	-0.00010684647
0	0.6289853	0.6315656	-2.6931563e-10	0.06406401	0.06406401	0	33131.11	33267.027	-1.28125e-05	647391.3	235124.84	-0.00020782244	233540.5	648714.75	-0.00015975104
0	0.6288616	0.63144416	-1.7030252e-10	0.0639228	0.0639228	0	33124.6	33260.633	-8.125e-06	647469.2	234875.58	-9.975477e-05	233289.69	648793.9	-0.00014419087
0	0.628737	0.6313217	-1.5842096e-10	0.06378149	0.06378149	0	33118.027	33254.18	-8.4375e-06	647547.56	234624.34	-0.00014963215	233036.97	648873.4	-6.950207e-05
0	0.628612	0.63119906	-2.5347352e-10	0.06363967	0.06363967	0	33111.45	33247.723	-1.328125e-05	647625.9	234372.94	-0.00014131925	232784.08	648952.8	-0.00020020748
0	0.62848663	0.631076	-1.8218409e-10	0.063498475	0.06349847	0	33104.844	33241.23	-1.015625e-05	647704.3	234120.84	-0.00018288374	232530.5	649032.2	-0.00010892116
0	0.62836146	0.630953	-4.3565762e-11	0.06335715	0.06335715	0	33098.25	33234.758	-2.1875e-06	647782.44	233869.05	-1.6625794e-05	232277.25	649111.56	-5.8091286e-05
0	0.62823486	0.6308287	-2.0990776e-10	0.063215934	0.06321594	0	33091.586	33228.21	-1.15625e-05	647861.2	233614.97	-0.00012469346	232021.66	649191.3	-0.00019190871
0	0.62810975	0.6307059	-1.7426305e-10	0.06307343	0.06307343	0	33084.996	33221.742	-8.90625e-06	647939.06	233363.72	-9.975477e-05	231768.94	649270.44	-0.00012240664
0	0.6279823	0.6305807	-2.7723665e-10	0.06293222	0.06293222	0	33078.28	33215.15	-1.46875e-05	648017.8	233108.3	-0.00014963215	231511.98	649350.25	-0.00023443984
0	0.6278564	0.6304571	-2.019867e-10	0.06279087	0.06279087	0	33071.65	33208.637	-1.046875e-05	648096.1	232855.53	-0.00015794505	231257.67	649429.75	-0.00013589211
0	0.62772965	0.6303326	-1.7030252e-10	0.06264908	0.06264908	0	33064.97	33202.08	-9.0625e-06	648174.56	232601.34	-0.00016625795	231002.02	649509.4	-6.742738e-05
0	0.6276028	0.6302081	-2.2574985e-10	0.06250788	0.06250788	0	33058.293	33195.52	-1.234375e-05	648252.7	232347.48	-0.00016625795	230746.58	649588.56	-0.00012759336
0	0.6274745	0.63008213	-2.8119718e-10	0.06236655	0.06236655	0	33051.535	33188.883	-1.53125e-05	648331.56	232090.98	-0.00023276113	230488.58	649668.44	-0.00017116182
0	0.6273473	0.62995726	-2.1386828e-10	0.062225346	0.062225346	0	33044.84	33182.31	-1.15625e-05	648410	231836.19	-0.00014131925	230232.25	649748.1	-0.0001587137
0	0.6272199	0.629832	-1.7426305e-10	0.06208418	0.06208418	0	33038.12	33175.715	-9.375e-06	648488.4	231581.23	-9.975477e-05	229975.77	649827.5	-0.00014834024
0	0.6270911	0.6297056	-3.6436817e-10	0.061942812	0.061942816	0	33031.34	33169.055	-1.90625e-05	648566.75	231324.4	-0.00022444823	229717.45	649907.1	-0.00028526972
0	0.62696314	0.62957996	-3.6436817e-10	0.061801605	0.061801605	0	33024.6	33162.44	-1.96875e-05	648645.1	231068.75	-0.00019950954	229460.2	649986.7	-0.00030186723
0	0.62683386	0.62945306	-2.079275e-10	0.061659813	0.061659813	0	33017.79	33155.754	-1.140625e-05	648724.06	230810.6	-0.00020782244	229200.53	650066.75	-7.261411e-05
0	0.6267051	0.62932664	-2.5743405e-10	0.061518595	0.0615186	0	33011.004	33149.094	-1.34375e-05	648802.8	230553.44	-0.00016625795	228941.8	650146.6	-0.00018049793
0	0.626576	0.62919986	-3.208024e-10	0.061377272	0.061377272	0	33004.207	33142.414	-1.671875e-05	648881.2	230296.12	-0.00024107403	228682.92	650226.2	-0.00019917013
0	0.6264468	0.6290729	-1.5842096e-10	0.061236065	0.061236065	0	32997.395	33135.727	-8.28125e-06	648959.5	230038.66	-0.00015794505	228423.9	650305.6	-8.40249e-05
0	0.6263167	0.6289452	-2.9307876e-10	0.061093595	0.061093595	0	32990.547	33129	-1.46875e-05	649037.94	229779.97	-0.00020782244	228163.69	650385.25	-0.00019190871
0	0.62618625	0.6288172	-2.2971038e-10	0.060952272	0.060952272	0	32983.676	33122.254	-1.171875e-05	649117	229520.19	-0.00013300635	227902.31	650465.44	-0.00017116182
0	0.6260564	0.62868965	-2.1386828e-10	0.06081107	0.06081107	0	32976.84	33115.54	-1.09375e-05	649195.4	229261.9	-0.00014963215	227642.45	650545	-0.000112033194
0	0.62592584	0.62856144	-2.7723665e-10	0.060669255	0.060669255	0	32969.957	33108.79	-1.390625e-05	649274	229002.4	-0.00019119664	227381.4	650624.75	-0.00017116182
0	0.62579453	0.6284326	-2.2971038e-10	0.06052805	0.06052805	0	32963.043	33101.996	-1.171875e-05	649352.9	228741.56	-0.00018288374	227118.95	650704.8	-0.00012240664
0	0.625663	0.6283034	-4.673418e-10	0.060386717	0.060386717	0	32956.117	33095.195	-2.515625e-05	649431.25	228480.89	-0.0003075772	226856.7	650784.4	-0.0003807054
0	0.62553227	0.628175	-7.524995e-11	0.060245506	0.060245506	0	32949.227	33088.434	-4.21875e-06	649510	228221.02	-8.312897e-06	226595.22	650864.25	-9.3361e-05
0	0.6254006	0.6280456	-2.5347352e-10	0.060104307	0.060104307	0	32942.29	33081.62	-1.28125e-05	649588.5	227959.88	-0.00015794505	226332.53	650944	-0.00019087137
0	0.6252684	0.62791586	-2.3763141e-10	0.059962977	0.059962977	0	32935.33	33074.78	-1.15625e-05	649667.4	227697.89	-0.00014131925	226068.95	651024	-0.00019087137
0	0.6251344	0.6277844	-9.505257e-11	0.05982176	0.05982176	0	32928.27	33067.855	-4.6875e-06	649747.1	227432.56	-3.325159e-05	225802	651104.94	-6.4315354e-05
0	0.6250037	0.62765616	-2.2178934e-10	0.059679933	0.059679933	0	32921.387	33061.098	-1.171875e-05	649824.8	227173.75	-0.00014131925	225541.58	651183.75	-0.00016182572
0	0.62487113	0.62752587	-1.0693414e-10	0.059538737	0.059538737	0	32914.402	33054.242	-5.78125e-06	649903.3	226911.44	-1.6625794e-05	225277.66	651263.56	-0.000112033194
0	0.6247373	0.62739456	-3.32684e-10	0.05939736	0.05939736	0	32907.35	33047.32	-1.75e-05	649982.3	226646.97	-0.00021613533	225011.58	651343.75	-0.0002593361
0	0.6246029	0.6272627	-3.168419e-10	0.059255015	0.059255015	0	32900.273	33040.375	-1.59375e-05	650061.4	226381.89	-0.00016625795	224744.9	651423.94	-0.00025
0	0.62446994	0.627132	-2.8911823e-10	0.059113804	0.059113804	0	32893.27	33033.492	-1.5e-05	650140.06	226118.84	-0.00023276113	224480.2	651503.9	-0.0001753112
0	0.6243368	0.6270013	-1.9802619e-10	0.05897246	0.05897246	0	32886.258	33026.61	-1.046875e-05	650218.44	225856.06	-0.00012469346	224215.78	651583.4	-0.0001587137
0	0.62420255	0.6268695	-2.653551e-10	0.05883126	0.05883126	0	32879.188	33019.664	-1.40625e-05	650297.06	225591.34	-0.00022444823	223949.45	651663.25	-0.00014315352
0	0.62406754	0.626737	-2.9703928e-10	0.058689434	0.058689434	0	32872.082	33012.684	-1.5625e-05	650376.25	225325.25	-0.00022444823	223681.7	651743.6	-0.00021473029
0	0.6239328	0.6266046	-2.2574985e-10	0.058548063	0.058548056	0	32864.977	33005.715	-1.15625e-05	650454.7	225059.88	-0.00014963215	223414.7	651823.3	-0.00015456432
0	0.6237978	0.62647206	-1.2277623e-10	0.058406852	0.058406852	0	32857.863	32998.734	-6.71875e-06	650533.75	224793.84	-7.4816075e-05	223147	651903.5	-9.9585064e-05
0	0.62366223	0.6263392	-1.5842096e-10	0.05826568	0.05826568	0	32850.73	32991.73	-8.28125e-06	650612.6	224527.3	-0.00012469346	222878.81	651983.6	-7.3651456e-05
0	0.62352675	0.6262061	-2.9307876e-10	0.058124464	0.058124464	0	32843.586	32984.72	-1.5625e-05	650691.44	224260.58	-0.00023276113	222610.42	652063.7	-0.00018983403
0	0.62338936	0.6260712	-2.6931563e-10	0.05798313	0.05798313	0	32836.355	32977.617	-1.46875e-05	650771.1	223990.69	-0.00020782244	222338.83	652144.44	-0.00018775933
0	0.6232548	0.625939	-1.8218409e-10	0.057841916	0.05784192	0	32829.26	32970.656	-9.0625e-06	650848.8	223726.34	-0.00014131925	222072.86	652223.44	-7.883817e-05
0	0.6231183	0.625805	-1.6238147e-10	0.057700034	0.057700034	0	32822.074	32963.598	-8.75e-06	650927.7	223458.39	-0.00014131925	221803.23	652303.6	-8.40249e-05
0	0.62298113	0.6256703	-2.3763141e-10	0.057558693	0.057558693	0	32814.844	32956.496	-1.25e-05	651006.8	223189.08	-0.00014963215	221532.19	652383.94	-0.00017634855
0	0.6228441	0.62553585	-2.1386828e-10	0.057417482	0.057417482	0	32807.637	32949.418	-1.15625e-05	651085.6	222920.64	-0.00017457084	221262.08	652463.94	-0.00014211619
0	0.6227067	0.62540096	-2.9307876e-10	0.05727521	0.05727521	0	32800.39	32942.31	-1.640625e-05	651164.56	222651.23	-0.00023276113	220991	652544.06	-0.00020435685
0	0.6225686	0.6252654	-2.6931563e-10	0.057134002	0.057134002	0	32793.12	32935.176	-1.375e-05	651243.8	222380.8	-0.00019950954	220718.84	652624.56	-0.00018257262
0	0.62243044	0.62512976	-3.128814e-10	0.056992672	0.056992665	0	32785.848	32928.03	-1.671875e-05	651322.25	222110.8	-0.00018288374	220447.2	652704.25	-0.00025103733
0	0.6222923	0.62499416	-2.3763141e-10	0.056850776	0.056850776	0	32778.57	32920.887	-1.15625e-05	651401.3	221840.4	-0.000116380565	220175.1	652784.6	-0.0001846473
0	0.62215364	0.6248581	-2.653551e-10	0.056709565	0.056709565	0	32771.266	32913.715	-1.4375e-05	651480.4	221569.2	-0.00014963215	219902.14	652864.94	-0.00022199171
0	0.62201506	0.624722	-1.5842096e-10	0.056568228	0.056568228	0	32763.96	32906.547	-8.75e-06	651559.1	221298.42	-0.0001371628	219629.66	652944.9	-0.000109958506
0	0.6218743	0.62458384	-2.0594723e-10	0.056427006	0.056427006	0	32756.549	32899.273	-1.015625e-05	651638.94	221023.66	-0.00013300635	219353.14	653025.9	-0.00013381743
0	0.6217346	0.62444675	-2.851577e-10	0.056285836	0.05628584	0	32749.191	32892.05	-1.40625e-05	651717.94	220751.19	-0.00016625795	219078.97	653106.2	-0.00020539419
0	0.6215945	0.6243091	-2.2178934e-10	0.05614463	0.05614463	0	32741.809	32884.797	-1.203125e-05	651797	220477.84	-0.00019119664	218803.92	653186.5	-0.00012448133
0	0.6214557	0.6241729	-2.1782881e-10	0.056003243	0.056003243	0	32734.5	32877.625	-1.171875e-05	651874.94	220207.66	-0.00013300635	218532.02	653265.7	-0.00015767635
0	0.62131596	0.62403584	-3.5644715e-10	0.055861376	0.055861376	0	32727.137	32870.4	-1.796875e-05	651953.94	219935.03	-0.0002576998	218257.56	653346.06	-0.00023755187
0	0.62117535	0.6238977	-2.3763141e-10	0.055720165	0.055720165	0	32719.73	32863.13	-1.28125e-05	652032.7	219661.44	-0.00013300635	217982.28	653426	-0.00020850623
0	0.6210323	0.6237573	-1.8218409e-10	0.055578813	0.055578813	0	32712.2	32855.734	-9.84375e-06	652112.9	219383.2	-9.144187e-05	217702.25	653507.44	-0.00014730291
0	0.6208929	0.6236205	-1.504999e-10	0.055437587	0.055437587	0	32704.855	32848.527	-9.21875e-06	652190.75	219112.25	-0.00014131925	217429.55	653586.56	-7.883817e-05
0	0.62075174	0.6234819	-1.9406567e-10	0.05529543	0.05529543	0	32697.424	32841.23	-1.015625e-05	652269.56	218837.84	-0.00015794505	217153.39	653666.7	-0.00012863071
0	0.6206097	0.62334245	-2.1386828e-10	0.05515422	0.05515422	0	32689.941	32833.883	-1.140625e-05	652348.56	218562.02	-0.00016625795	216875.77	653746.94	-0.00014522822
0	0.6204667	0.623202	-1.02973616e-10	0.055012833	0.055012833	0	32682.4	32826.49	-5e-06	652427.6	218284.75	-4.9877384e-05	216596.75	653827.25	-8.9211615e-05
0	0.6203249	0.62306297	-1.5446043e-10	0.054870956	0.054870956	0	32674.94	32819.16	-7.96875e-06	652506.75	218009.31	-9.975477e-05	216319.52	653907.7	-9.7510376e-05
0	0.6201815	0.62292206	-1.1089467e-10	0.054729745	0.054729752	0	32667.377	32811.74	-6.09375e-06	652586	217731.3	-3.325159e-05	216039.73	653988.25	-0.00012448133
0	0.62003946	0.6227828	-9.9013096e-11	0.054588392	0.054588392	0	32659.898	32804.402	-5.78125e-06	652664.25	217456.31	-9.144187e-05	215762.92	654067.94	-4.1493775e-05
0	0.6198954	0.6226413	-2.3763141e-10	0.05444718	0.05444718	0	32652.314	32796.95	-1.1875e-05	652743.7	217177.38	-0.00014963215	215482.19	654148.56	-0.0001659751
0	0.6197517	0.62250036	-3.0496033e-10	0.054306004	0.054306004	0	32644.74	32789.523	-1.6875e-05	652822.6	216899.28	-0.0002493869	215202.31	654228.8	-0.00019190871
0	0.61960804	0.6223593	-1.3069729e-10	0.05416461	0.054164615	0	32637.176	32782.09	-6.5625e-06	652901.6	216621.28	-9.975477e-05	214922.47	654309.06	-5.912863e-05
0	0.61946326	0.62221724	-2.4159194e-10	0.054023392	0.054023392	0	32629.55	32774.61	-1.28125e-05	652981	216341.39	-0.00018288374	214640.78	654389.75	-0.00013278009
0	0.61931854	0.6220752	-3.32684e-10	0.053881504	0.053881504	0	32621.924	32767.125	-1.765625e-05	653060.1	216061.8	-0.00023691758	214359.33	654470.2	-0.00022199171
0	0.6191735	0.6219328	-1.9010514e-10	0.053740278	0.053740278	0	32614.287	32759.629	-1e-05	653139.06	215781.89	-9.975477e-05	214077.6	654550.44	-0.00015352697
0	0.6190281	0.62179005	-1.4257885e-10	0.053598925	0.053598925	0	32606.633	32752.113	-8.28125e-06	653217.8	215501.78	-7.4816075e-05	213795.72	654630.56	-0.00013278009
0	0.618883	0.6216477	-2.9307876e-10	0.053457703	0.053457703	0	32598.984	32744.61	-1.625e-05	653296.75	215221.81	-0.00022444823	213513.88	654710.75	-0.00021784232
0	0.6187365	0.62150383	-2.8911823e-10	0.05331561	0.05331561	0	32591.266	32737.035	-1.578125e-05	653376.06	214939.52	-0.00019950954	213229.72	654791.4	-0.00022821577
0	0.6185907	0.6213608	-8.7131524e-11	0.053174254	0.053174257	0	32583.588	32729.498	-4.375e-06	653454.56	214658.97	-6.650318e-05	212947.36	654871.3	-4.7717844e-05
0	0.61844456	0.62121737	-1.504999e-10	0.053033046	0.053033046	0	32575.89	32721.945	-8.90625e-06	653533.9	214377.3	-0.0001288499	212663.8	654951.94	-0.00010373444
0	0.6182976	0.621073	-1.9010514e-10	0.05289113	0.05289113	0	32568.146	32714.342	-1.109375e-05	653613	214094.6	-0.000116380565	212379.23	655032.25	-0.00016493777
0	0.61814797	0.62092626	-3.0892086e-10	0.052749917	0.052749917	0	32560.266	32706.61	-1.578125e-05	653693.3	213806.9	-0.00021613533	212089.64	655114.1	-0.00021161826
0	0.61800146	0.6207824	-2.0990776e-10	0.05260856	0.05260856	0	32552.55	32699.033	-1.125e-05	653771.4	213525.88	-4.5720935e-05	211806.78	655193.5	-0.00023858921
0	0.6178546	0.62063843	-2.336709e-10	0.05246734	0.05246734	0	32544.814	32691.451	-1.1875e-05	653850.25	213243.77	-0.00014131925	211522.75	655273.75	-0.00019605808
0	0.6177068	0.6204933	-3.128814e-10	0.052326124	0.052326124	0	32537.031	32683.805	-1.625e-05	653929.4	212959.92	-0.00022860468	211237.02	655354.1	-0.00020124481
0	0.6175585	0.62034786	-4.15855e-10	0.05218477	0.05218477	0	32529.219	32676.145	-2.171875e-05	654008.25	212675.7	-0.0002743256	210950.89	655434.25	-0.00028112033
0	0.61740863	0.62020063	-4.3565762e-11	0.05204354	0.052043546	0	32521.326	32668.39	-2.34375e-06	654087.25	212389.08	4.9877384e-05	210662.4	655514.6	-9.8547716e-05
0	0.61725974	0.62005454	-1.9010514e-10	0.051901616	0.051901616	0	32513.48	32660.695	-9.6875e-06	654166.3	212103.66	-0.00022860468	210375.1	655595.06	-2.3858922e-05
0	0.61710894	0.6199065	-2.0000646e-10	0.051760394	0.051760394	0	32505.541	32652.896	-1.078125e-05	654245.75	211815.44	-0.0001704144	210084.97	655675.8	-0.00011721992
0	0.6169612	0.6197617	-1.9406567e-10	0.051618993	0.051618993	0	32497.756	32645.264	-1.140625e-05	654324.75	211531.83	-0.00015794505	209799.38	655756.2	-0.00014107884
0	0.6168114	0.6196146	-2.7723665e-10	0.05147704	0.05147704	0	32489.861	32637.521	-1.5e-05	654403.5	211245.53	-0.00017872729	209511.14	655836.44	-0.00021991701
0	0.6166613	0.6194672	-2.5347352e-10	0.051335827	0.051335827	0	32481.955	32629.76	-1.28125e-05	654482.3	210958.81	-0.00018288374	209222.5	655916.56	-0.0001659751
0	0.61651045	0.61931926	-2.49513e-10	0.05119446	0.05119446	0	32474.016	32621.967	-1.28125e-05	654561.56	210670.75	-0.00019950954	208932.5	655997.2	-0.00015560167
0	0.6163569	0.6191685	-1.1485519e-10	0.05105325	0.05105325	0	32465.922	32614.025	-5.78125e-06	654641.75	210377.77	-4.9877384e-05	208637.56	656078.9	-9.7510376e-05
0	0.6162078	0.61902225	-1.1485519e-10	0.050911307	0.050911315	0	32458.07	32606.32	-7.1875e-06	654719.7	210093.38	-4.9877384e-05	208351.22	656158.06	-0.00012448133
0	0.61605614	0.6188735	-2.7723665e-10	0.050769903	0.050769906	0	32450.084	32598.484	-1.5e-05	654798.8	209804.34	-0.00019535309	208060.19	656238.5	-0.00020124481
0	0.61590445	0.61872464	-2.5347352e-10	0.05062869	0.05062869	0	32442.094	32590.64	-1.296875e-05	654877.56	209515.33	-0.00014131925	207769.27	656318.75	-0.00019294606
0	0.6157521	0.6185751	-2.3763141e-10	0.05048751	0.05048751	0	32434.068	32582.766	-1.265625e-05	654956.44	209225.47	-0.0001288499	207477.44	656399	-0.0002126556
0	0.6155992	0.6184251	-1.7822357e-10	0.050346278	0.050346278	0	32426.018	32574.865	-9.6875e-06	655035.9	208934.4	-0.000112224116	207184.36	656479.75	-0.00012448133
0	0.61544627	0.61827517	-3.168419e-10	0.050204918	0.050204918	0	32417.96	32566.963	-1.625e-05	655114.56	208643.88	-0.0002576998	206891.84	656559.8	-0.000186722
0	0.6152925	0.6181242	-1.9010514e-10	0.050063692	0.050063692	0	32409.861	32559.014	-9.375e-06	655193.75	208351.69	-0.00014963215	206597.66	656640.56	-0.00010165975
0	0.6151383	0.61797285	-1.66342e-10	0.049921688	0.049921688	0	32401.736	32551.043	-9.0625e-06	655272.8	208058.98	-0.00012469346	206303	656720.94	-0.00010477178
0	0.61498517	0.6178226	-2.3763141e-10	0.049780328	0.049780328	0	32393.674	32543.133	-1.1875e-05	655351.6	207768.22	-0.0001537886	206010.2	656801.25	-0.00014419087
0	0.6148307	0.6176711	-1.7822357e-10	0.049639102	0.049639102	0	32385.535	32535.15	-9.375e-06	655430.9	207474.98	-0.00017457084	205714.92	656881.94	-6.327801e-05
0	0.61467624	0.61751956	-2.8119718e-10	0.04949725	0.04949725	0	32377.398	32527.166	-1.453125e-05	655509.7	207182.33	-0.00022444823	205420.27	656962.2	-0.000156639
0	0.61452115	0.6173673	-2.2971038e-10	0.04935604	0.049356043	0	32369.23	32519.152	-1.1875e-05	655588.7	206888.6	-0.00014131925	205124.5	657042.44	-0.00017842323
0	0.61436623	0.6172154	-1.9802619e-10	0.04921467	0.049214676	0	32361.064	32511.143	-1e-05	655667.6	206595.08	-0.00019535309	204828.9	657122.8	-8.713693e-05
0	0.61421007	0.61706215	-1.6238147e-10	0.04907266	0.04907266	0	32352.842	32503.074	-9.0625e-06	655746.94	206299.58	-0.00010806767	204531.36	657203.56	-0.00010165975
0	0.6140544	0.61690944	-2.1386828e-10	0.048931446	0.048931446	0	32344.64	32495.027	-1.1875e-05	655825.7	206005.08	-0.00012053701	204234.81	657283.9	-0.00019917013
0	0.613898	0.61675596	-3.208024e-10	0.048790075	0.048790075	0	32336.404	32486.943	-1.640625e-05	655904.56	205709.66	-0.00016625795	203937.36	657364.1	-0.00027178423
0	0.61374074	0.6166017	-1.8218409e-10	0.04864885	0.04864885	0	32328.123	32478.82	-1.0625e-05	655983.9	205412.72	-0.00014963215	203638.33	657444.94	-0.00012966806
0	0.6135835	0.61644745	-2.6931563e-10	0.048507664	0.048507664	0	32319.842	32470.697	-1.296875e-05	656062.5	205116.28	-0.00019950954	203339.88	657525	-0.00015975104
0	0.61342627	0.61629325	-2.1782881e-10	0.04836645	0.048366446	0	32311.56	32462.574	-1.0625e-05	656141.94	204819.2	-0.00014963215	203040.64	657605.9	-0.00012655601
0	0.6132685	0.6161384	-2.2574985e-10	0.04822502	0.04822502	0	32303.244	32454.416	-1.234375e-05	656220.6	204521.92	-0.0001454757	202741.31	657686	-0.0001659751
0	0.61311096	0.6159839	-2.5743405e-10	0.048083037	0.048083037	0	32294.951	32446.277	-1.4375e-05	656299.4	204225.16	-0.0001454757	202442.44	657766.1	-0.00022406639
0	0.61295205	0.61582804	-3.3862477e-10	0.04794181	0.04794181	0	32286.582	32438.07	-1.65625e-05	656378.7	203925.8	-0.00028679497	202140.92	657847.06	-0.00016701245
0	0.6127928	0.6156717	-6.336838e-11	0.047800414	0.047800414	0	32278.188	32429.834	-2.5e-06	656457.5	203626.38	1.6625794e-05	201839.44	657927.2	-7.5726144e-05
0	0.61263394	0.61551595	-2.9307876e-10	0.0476592	0.0476592	0	32269.822	32421.627	-1.5e-05	656536.44	203327.47	-0.00019950954	201538.39	658007.7	-0.00018879668
0	0.612474	0.6153592	-1.02973616e-10	0.04751749	0.04751749	0	32261.406	32413.373	-6.40625e-06	656616	203026.7	-7.897252e-05	201235.44	658088.8	-7.157676e-05
0	0.6123153	0.6152035	-1.504999e-10	0.04737627	0.04737627	0	32253.041	32405.172	-7.65625e-06	656694.06	202728.81	-0.00016625795	200935.47	658168.3	-3.319502e-05
0	0.61215484	0.61504596	-1.7822357e-10	0.047234844	0.047234844	0	32244.584	32396.875	-8.75e-06	656773.1	202427.5	-9.559832e-05	200632.06	658248.75	-0.00014522822
0	0.6119943	0.61488855	-1.8218409e-10	0.047092848	0.047092848	0	32236.129	32388.582	-9.375e-06	656852	202126.38	-0.0001371628	200328.73	658329.2	-0.00013278009
0	0.6118337	0.61473095	-2.0594723e-10	0.04695161	0.04695161	0	32227.672	32380.281	-1.0625e-05	656930.75	201825.25	-0.0001371628	200025.45	658409.44	-0.00015041494
0	0.6116721	0.6145726	-1.9802619e-10	0.046810236	0.046810236	0	32219.162	32371.936	-9.6875e-06	657009.8	201522.44	-0.00014131925	199720.44	658490	-0.00012863071
0	0.6115101	0.6144136	-1.8614461e-10	0.04666901	0.04666901	0	32210.627	32363.56	-9.21875e-06	657089.1	201218.94	-0.00012469346	199414.77	658570.8	-9.9585064e-05
0	0.61134833	0.61425495	-1.8218409e-10	0.046527833	0.046527833	0	32202.107	32355.207	-1e-05	657167.56	200916.47	-0.00014963215	199110.12	658650.8	-9.7510376e-05
0	0.61118686	0.6140965	-2.4159194e-10	0.046386402	0.046386402	0	32193.6	32346.865	-1.203125e-05	657246	200614.42	-0.0001454757	198805.92	658730.6	-0.00019087137
0	0.61102366	0.6139364	-2.5347352e-10	0.046245176	0.046245176	0	32185.004	32338.432	-1.359375e-05	657325.2	200309.31	-0.0001621015	198498.6	658811.4	-0.00020850623
0	0.6108603	0.61377627	-2.9703928e-10	0.046103153	0.046103153	0	32176.402	32329.994	-1.5625e-05	657404	200004.31	-0.0002576998	198191.4	658891.75	-0.0001587137
0	0.610697	0.6136161	-1.7624331e-10	0.045961913	0.04596191	0	32167.797	32321.557	-1.015625e-05	657482.8	199699.42	-0.0001371628	197884.27	658972.1	-0.000110995854
0	0.61053413	0.6134563	-1.9802619e-10	0.045820523	0.045820523	0	32159.217	32313.143	-1.0625e-05	657561.2	199395.58	-0.0001371628	197578.2	659052.06	-0.00012551867
0	0.6103693	0.6132948	-1.9802619e-10	0.045679294	0.045679294	0	32150.54	32304.629	-1.03125e-05	657640.5	199088.2	-0.0001454757	197268.6	659132.8	-0.00011721992
0	0.6102052	0.6131338	-2.1386828e-10	0.045537677	0.04553767	0	32141.893	32296.15	-1.125e-05	657719	198782.38	-0.00019119664	196960.53	659212.9	-0.00010477178
0	0.61004025	0.612972	-3.32684e-10	0.04539629	0.04539629	0	32133.207	32287.635	-1.625e-05	657797.94	198475.2	-0.00018288374	196651.08	659293.4	-0.0002686722
0	0.6098754	0.6128103	-1.02973616e-10	0.04525507	0.045255072	0	32124.516	32279.107	-5.46875e-06	657876.4	198168.38	-9.144187e-05	196342.03	659373.3	-5.186722e-05
0	0.60970867	0.61264676	-1.9406567e-10	0.045113023	0.045113023	0	32115.734	32270.5	-1.078125e-05	657956.06	197857.97	-0.0001454757	196029.3	659454.6	-0.00013174274
0	0.6095435	0.6124848	-2.0594723e-10	0.04497179	0.04497179	0	32107.033	32261.97	-1.09375e-05	658034.1	197551.22	-9.559832e-05	195720.33	659534.25	-0.00017323652