//mumax 3.10 [windows_amd64 go1.11.6(gc) CUDA-11.0]
//GPU info: NVIDIA GeForce RTX 3090(24575MB), CUDA Driver 12.1, cc=8.6, using cc=80 PTX
//(c) Arne Vansteenkiste, Dynamat LAB, Ghent University, Belgium
//This is free software without any warranty. See license.txt
//********************************************************************//
//  If you use mumax in any work or publication,                      //
//  we kindly ask you to cite the references in references.bib        //
//********************************************************************//
//output directory: r1;p0.1;a2.8e-07;l1.8000000000000002e-07;s2.out/
randSeed(2)
ThermSeed(2)
resolution := 2e-09
zResolution := 5e-09
a := 2.8e-07
gridSize := 280
gridDepth := 5
SetCellsize(resolution, resolution, zResolution)
SetGridsize(gridSize, gridSize, gridDepth)
SetPBC(16, 16, 0)
//resizing...
Msat = 700e3
Aex = 13e-12
alpha = 0.2
Bmax := 0.1
Bstep := Bmax / 500.0
TableAdd(B_ext)
TableAdd(m_full)
islandWidth := 8e-08
islandLength := 1.8000000000000002e-07
ellipseConstant := 9.000000000000001e-09
hIsland := Universe().Inverse()
vIsland := Universe().Inverse()
vIslands := Universe().Inverse()
hIslands := Universe().Inverse()
hIsland = rect(islandLength-2*ellipseConstant, islandWidth)
hIsland = hIsland.add(ellipse(ellipseConstant*2, islandWidth).transl(islandLength/2-ellipseConstant, 0, 0))
hIsland = hIsland.add(ellipse(ellipseConstant*2, islandWidth).transl(-islandLength/2+ellipseConstant, 0, 0))
hIsland = hIsland.add(rect(7.604256545213466e-09, 1.0818971167107903e-09).transl(1.1586797930740807e-08, -4e-08, 0))
hIsland = hIsland.add(rect(5.473437162914428e-09, 2.4512516961363753e-09).transl(3.751720528651655e-08, -4e-08, 0))
hIsland = hIsland.add(rect(6.198048205826911e-09, 1.0794365797694154e-09).transl(5.1351853045219216e-08, -4e-08, 0))
hIsland = hIsland.sub(rect(6.081531299539711e-09, -3.0132683464316638e-09).transl(-4.199320503583868e-08, -4e-08, 0))
hIsland = hIsland.sub(rect(2.6691184983702874e-09, -1.951475465300436e-09).transl(5.978335304513948e-08, -4e-08, 0))
hIsland = hIsland.add(rect(4.9929074731863704e-09, 2.3214548774528614e-09).transl(-4.892030084293933e-08, -4e-08, 0))
hIsland = hIsland.sub(rect(7.749241676188304e-09, -4.612493893530972e-09).transl(-4.410031583959394e-08, -4e-08, 0))
hIsland = hIsland.sub(rect(7.277292125349936e-09, -1.5319543574953162e-09).transl(2.230379421005502e-08, -4e-08, 0))
hIsland = hIsland.sub(rect(3.847732151966626e-09, -1.2449632254141116e-09).transl(2.317644788339111e-08, -4e-08, 0))
hIsland = hIsland.add(rect(4.253796454377159e-09, 2.536889628264851e-09).transl(-7.095687570228432e-08, -4e-08, 0))
hIsland = hIsland.sub(rect(5.670506424446221e-09, -5.378035111720536e-11).transl(7.967592347354371e-08, -4e-08, 0))
hIsland = hIsland.add(rect(6.9459538447155905e-09, 3.0796866033303515e-09).transl(-1.9643925656076774e-08, -4e-08, 0))
hIsland = hIsland.add(rect(4.6995692142233134e-09, 1.7271072944169002e-09).transl(1.747565207685986e-08, -4e-08, 0))
hIsland = hIsland.add(rect(6.129088925480723e-09, 4.546626460033015e-10).transl(6.9035998615899e-08, -4e-08, 0))
hIsland = hIsland.sub(rect(6.899919505522528e-09, -4.151454564490106e-09).transl(5.5130534243940694e-08, -4e-08, 0))
hIsland = hIsland.sub(rect(2.4855520136641136e-09, -2.2572455786027558e-10).transl(-2.7776842259576324e-08, -4e-08, 0))
hIsland = hIsland.sub(rect(5.470589231951812e-09, -3.79233576493579e-09).transl(-8.197865585861132e-08, -3.9762811016811076e-08, 0))
hIsland = hIsland.add(rect(2.633179630959406e-09, 8.490607095783152e-10).transl(1.0489260458382532e-08, -4e-08, 0))
hIsland = hIsland.sub(rect(9.122870683634698e-09, -3.070063392031776e-10).transl(-2.223006622213845e-08, -4e-08, 0))
hIsland = hIsland.add(rect(6.784908477301775e-09, 2.9519335968916663e-09).transl(-2.9168834877276518e-08, -4e-08, 0))
hIsland = hIsland.add(rect(5.125365241075502e-09, 1.2487815079725307e-09).transl(8.728542917823349e-08, -2.862904682109877e-08, 0))
hIsland = hIsland.add(rect(2.716207170791604e-09, 2.4812009877454855e-09).transl(-7.49329070519513e-08, -4e-08, 0))
hIsland = hIsland.add(rect(9.117809530736231e-09, 7.347340647426445e-10).transl(-7.44009483852775e-08, -4e-08, 0))
hIsland = hIsland.add(rect(4.64351281103621e-09, 5.330233232302042e-10).transl(-1.974606335452151e-08, -4e-08, 0))
hIsland = hIsland.sub(rect(5.2788114480289534e-09, -1.3295469073222763e-09).transl(6.439290390682932e-08, -4e-08, 0))
hIsland = hIsland.add(rect(6.939448547322184e-09, 3.945830751088449e-09).transl(4.330856380830746e-08, -4e-08, 0))
hIsland = hIsland.add(rect(3.550442829769712e-09, 3.046275981913806e-09).transl(6.909968248543002e-08, -4e-08, 0))
hIsland = hIsland.sub(rect(6.402102583946685e-09, -1.0433131161987025e-09).transl(7.327108427088104e-08, -4e-08, 0))
hIsland = hIsland.sub(rect(6.300237108458698e-09, -3.085672012388017e-09).transl(7.540748369011338e-08, -4e-08, 0))
hIsland = hIsland.add(rect(6.9566319459961315e-09, 3.5856488970778492e-09).transl(7.053198211780042e-08, -4e-08, 0))
hIsland = hIsland.sub(rect(6.975528861369366e-09, -6.486528400133971e-10).transl(1.730002677768262e-08, -4e-08, 0))
hIsland = hIsland.add(rect(7.200589204006081e-09, 2.339563549370309e-09).transl(4.9547375223306655e-08, -4e-08, 0))
hIsland = hIsland.add(rect(9.728090449808487e-09, 1.6111834571973641e-09).transl(-5.065233188129218e-09, -4e-08, 0))
hIsland = hIsland.add(rect(5.971890657046346e-09, 2.1302466722848307e-10).transl(5.195950962956713e-08, -4e-08, 0))
hIsland = hIsland.sub(rect(6.080963670492087e-09, -3.173610227802598e-09).transl(6.586815047095641e-08, -4e-08, 0))
hIsland = hIsland.add(rect(7.685697728098465e-09, 1.0101624253367642e-09).transl(-5.122799503526716e-08, -4e-08, 0))
hIsland = hIsland.sub(rect(4.637138758052496e-09, -3.960351044348014e-11).transl(5.1551595713003666e-09, -4e-08, 0))
hIsland = hIsland.sub(rect(3.687272332611257e-09, -1.5982996394113245e-09).transl(6.662769340857879e-08, -4e-08, 0))
hIsland = hIsland.sub(rect(6.7316166444069154e-09, -3.2949982534835005e-10).transl(-5.0284905787680035e-08, -4e-08, 0))
hIsland = hIsland.add(rect(5.163136958669379e-09, 8.346828803620703e-10).transl(3.3088014975612e-08, -4e-08, 0))
hIsland = hIsland.sub(rect(9.871416808144965e-09, -2.9817443361695306e-10).transl(-4.250182899499663e-08, -4e-08, 0))
hIsland = hIsland.add(rect(2.445533352976339e-09, 8.598676142901507e-10).transl(5.069362247747493e-08, -4e-08, 0))
hIsland = hIsland.sub(rect(9.88970051710922e-09, -2.7285084387734617e-10).transl(1.1501577128053548e-08, -4e-08, 0))
hIsland = hIsland.sub(rect(9.9796860213552e-09, -1.2505053268205702e-09).transl(6.006864963867267e-08, -4e-08, 0))
hIsland = hIsland.sub(rect(9.932370382706782e-09, -9.847188673767063e-10).transl(2.924268652463682e-08, -4e-08, 0))
hIsland = hIsland.add(rect(9.935130531742293e-09, 1.9554277704712013e-10).transl(5.2478496831523113e-08, -4e-08, 0))
hIsland = hIsland.sub(rect(8.189077474546861e-09, -2.865517874894153e-10).transl(-1.9876257554758595e-08, -4e-08, 0))
hIsland = hIsland.sub(rect(4.755456818826131e-09, -1.840051194373943e-09).transl(-5.2676570185114635e-08, -4e-08, 0))
hIsland = hIsland.sub(rect(7.58386901527817e-09, -2.0061768568890804e-10).transl(6.341804122144581e-08, -4e-08, 0))
hIsland = hIsland.sub(rect(5.503941193756623e-09, -4.317000465720647e-11).transl(-3.045082682447807e-08, -4e-08, 0))
hIsland = hIsland.add(rect(2.8714514736943625e-09, 1.4262528111163665e-09).transl(6.0800153897230754e-09, -4e-08, 0))
hIsland = hIsland.sub(rect(2.315284456460318e-09, -9.398562322909394e-10).transl(6.985156698611387e-08, -4e-08, 0))
hIsland = hIsland.add(rect(9.926635454232042e-09, 1.997264631078431e-09).transl(-6.405878977189866e-08, -4e-08, 0))
hIsland = hIsland.sub(rect(2.5979168381382634e-09, -1.3741355338874483e-09).transl(-3.351248489447076e-08, -4e-08, 0))
hIsland = hIsland.sub(rect(6.657342898115785e-09, -6.454612035446343e-10).transl(-8.379515955981563e-08, -3.8021977539357226e-08, 0))
hIsland = hIsland.add(rect(6.917280405808912e-09, 4.827242613990336e-09).transl(-1.6352964882551556e-08, -4e-08, 0))
hIsland = hIsland.add(rect(9.849765542482857e-09, 3.761582086834852e-09).transl(-8.802196055899718e-08, -2.502031565970686e-08, 0))
hIsland = hIsland.sub(rect(5.361803794609091e-09, -2.06806140045036e-09).transl(-4.1900191160741994e-08, -4e-08, 0))
hIsland = hIsland.add(rect(2.4867198800109975e-09, 3.363887880157641e-09).transl(8.28104201954113e-08, -3.918235398143983e-08, 0))
hIsland = hIsland.sub(rect(8.255620865153948e-09, -5.19573637452593e-10).transl(-4.034668029661242e-08, -4e-08, 0))
hIsland = hIsland.add(rect(3.3334496787187e-09, 5.1610491525420044e-09).transl(-2.3213521234651693e-08, -4e-08, 0))
hIsland = hIsland.add(rect(8.402791676942128e-09, 8.036329396764522e-10).transl(7.472355107180239e-08, -4e-08, 0))
hIsland = hIsland.sub(rect(7.679151264761473e-09, -1.9015840038668903e-09).transl(-2.470645064868258e-08, -4e-08, 0))
hIsland = hIsland.add(rect(8.68864356426801e-09, 4.0584448476741557e-10).transl(-5.1382949934295775e-08, -4e-08, 0))
hIsland = hIsland.add(rect(5.664637050391661e-09, 2.0519597901066237e-09).transl(4.797554420269265e-08, -4e-08, 0))
hIsland = hIsland.sub(rect(4.0667986684113245e-09, -6.570804489222418e-10).transl(3.009496941433461e-08, -4e-08, 0))
hIsland = hIsland.sub(rect(3.84153958660797e-09, -4.286951332727677e-09).transl(-5.2479791583447173e-08, -4e-08, 0))
hIsland = hIsland.add(rect(9.91631173133727e-09, 4.819587764462859e-10).transl(4.2546389749730776e-08, -4e-08, 0))
hIsland = hIsland.sub(rect(6.759263271445308e-09, -2.702110433558965e-09).transl(-5.0402968168114144e-08, -4e-08, 0))
hIsland = hIsland.add(rect(2.4125967140414987e-09, 5.401102182943612e-10).transl(-4.457035652223318e-08, -4e-08, 0))
hIsland = hIsland.sub(rect(7.714524898408758e-09, -1.7894107500842522e-09).transl(1.513746205236328e-08, -4e-08, 0))
hIsland = hIsland.add(rect(7.442493745269181e-09, 2.099423559139681e-09).transl(-5.679540153558916e-08, -4e-08, 0))
hIsland = hIsland.sub(rect(4.251119726610712e-09, -2.368063001734689e-09).transl(-4.369920210034621e-08, -4e-08, 0))
hIsland = hIsland.add(rect(6.139038875265433e-09, 2.35147087302904e-09).transl(-6.025920096112145e-09, -4e-08, 0))
hIsland = hIsland.sub(rect(3.976614718776423e-09, -1.3567485772559323e-09).transl(7.402427354375869e-08, -4e-08, 0))
hIsland = hIsland.add(rect(3.286986951242062e-09, 2.4028728910109978e-09).transl(2.6532411961940137e-08, -4e-08, 0))
hIsland = hIsland.sub(rect(6.00540170483096e-09, -2.7340508121010137e-09).transl(-6.507135490444274e-08, -4e-08, 0))
hIsland = hIsland.sub(rect(4.103565647951527e-09, -3.1838312102097516e-10).transl(-2.0258449484740845e-08, -4e-08, 0))
hIsland = hIsland.add(rect(8.586981746486899e-09, 9.716941954221565e-10).transl(-5.104622558801428e-08, -4e-08, 0))
hIsland = hIsland.add(rect(4.283706121189231e-09, 9.385194611029472e-10).transl(-3.6862638518243246e-08, -4e-08, 0))
hIsland = hIsland.add(rect(8.516453058437492e-09, 8.999058893863663e-10).transl(-7.905197771557944e-08, -4e-08, 0))
hIsland = hIsland.sub(rect(5.006634940935962e-09, -8.646902442237552e-12).transl(-3.820854970809062e-08, -4e-08, 0))
hIsland = hIsland.sub(rect(3.846612455443846e-09, -1.2778819212753535e-09).transl(-2.332529053688425e-08, -4e-08, 0))
hIsland = hIsland.sub(rect(2.6218212249547825e-09, -2.3278096405668682e-09).transl(5.879717047649696e-08, -4e-08, 0))
hIsland = hIsland.add(rect(2.5155874134121385e-09, 1.939019488532301e-10).transl(2.4114698585769053e-08, -4e-08, 0))
hIsland = hIsland.add(rect(8.974251077988154e-09, 7.869936233651131e-11).transl(2.874682289579137e-08, -4e-08, 0))
hIsland = hIsland.add(rect(7.924372620999795e-09, 1.016673655668312e-09).transl(8.001312879773375e-08, -4e-08, 0))
hIsland = hIsland.add(rect(4.942675238427185e-09, 8.159990913188253e-10).transl(1.979506253275143e-08, -4e-08, 0))
hIsland = hIsland.sub(rect(9.55780685164636e-09, -1.8086814332744085e-09).transl(-8.76850250874539e-08, -2.678139747969063e-08, 0))
hIsland = hIsland.sub(rect(8.20050665182636e-09, -1.6152222041016393e-10).transl(-6.06565442967731e-08, -4e-08, 0))
hIsland = hIsland.sub(rect(3.7828854651479035e-09, -1.6741294720192138e-09).transl(7.21619364009452e-08, -4e-08, 0))
hIsland = hIsland.add(rect(7.950371736574632e-09, 1.2387204710210697e-09).transl(6.7237695638652375e-09, -4e-08, 0))
hIsland = hIsland.add(rect(3.5446805028575173e-09, 2.8922783233428534e-09).transl(-3.6387965774049366e-08, -4e-08, 0))
hIsland = hIsland.add(rect(7.93871699493396e-09, 3.756172645931501e-09).transl(1.0924100071998493e-08, -4e-08, 0))
hIsland = hIsland.add(rect(9.705644999085163e-09, 1.6281481284787257e-09).transl(-1.5946316985198881e-09, -4e-08, 0))
hIsland = hIsland.sub(rect(2.2551766129329815e-09, -2.0090989717813076e-09).transl(6.996711015403615e-08, -4e-08, 0))
hIsland = hIsland.sub(rect(5.9813092030077735e-09, -9.684063113594145e-10).transl(-5.172447000495041e-08, -4e-08, 0))
hIsland = hIsland.sub(rect(9.313703913684537e-09, -1.343873267261523e-09).transl(7.982858235002412e-08, -4e-08, 0))
hIsland = hIsland.add(rect(9.661139429512657e-09, 3.671157540059515e-10).transl(-7.69669604391836e-08, -4e-08, 0))
hIsland = hIsland.sub(rect(7.0824608336138124e-09, -1.7488241417561104e-09).transl(-1.9385032793318004e-08, -4e-08, 0))
hIsland = hIsland.sub(rect(6.130078133357977e-09, -3.024323552579052e-10).transl(-3.2445088256673507e-09, -4e-08, 0))
hIsland = hIsland.add(rect(8.294120956642569e-09, 3.0915520823088798e-09).transl(5.514163324928108e-08, -4e-08, 0))
hIsland = hIsland.sub(rect(6.687296565731124e-09, -1.072862684010029e-09).transl(-8.61479250069637e-09, -4e-08, 0))
hIsland = hIsland.add(rect(7.803838735577873e-09, 8.90988685365465e-12).transl(6.347400669555995e-08, -4e-08, 0))
hIsland = hIsland.add(rect(3.712630025096174e-09, 7.705825249940981e-10).transl(-7.120499584968407e-08, -4e-08, 0))
hIsland = hIsland.sub(rect(9.582922466191494e-09, -3.8745318246869287e-10).transl(-2.7875965109979972e-08, -4e-08, 0))
hIsland = hIsland.sub(rect(8.119537213147919e-09, -3.8077665884329883e-11).transl(-1.6670316614977562e-09, -4e-08, 0))
hIsland = hIsland.add(rect(9.174044929173718e-09, 6.289657794544734e-10).transl(-7.871046389316749e-08, -4e-08, 0))
hIsland = hIsland.add(rect(8.279149075327734e-09, 1.939876440618486e-09).transl(4.115986177852223e-08, -4e-08, 0))
hIsland = hIsland.add(rect(3.6162934671553793e-09, 8.463782952049675e-10).transl(-4.864786452354045e-08, -4e-08, 0))
hIsland = hIsland.sub(rect(4.1284205127774646e-09, -5.658414889358885e-10).transl(-1.0767538718940376e-08, -4e-08, 0))
hIsland = hIsland.add(rect(9.006120067357473e-09, 1.5976111083171017e-09).transl(-7.265767628859469e-08, -4e-08, 0))
hIsland = hIsland.sub(rect(3.6855084121618396e-09, -3.63693293027651e-10).transl(-8.977567665695963e-08, -8.874988255941177e-09, 0))
hIsland = hIsland.sub(rect(3.006436950118463e-09, -1.8862827174822495e-09).transl(8.667650433880543e-08, -3.1040331706107e-08, 0))
hIsland = hIsland.add(rect(9.705903498491747e-09, 3.786111752616954e-10).transl(6.570124386326262e-08, -4e-08, 0))
hIsland = hIsland.sub(rect(5.744102189418663e-09, -8.284291504548158e-10).transl(-3.12315176009865e-08, -4e-08, 0))
hIsland = hIsland.sub(rect(8.690395432814227e-09, -1.9833555843440013e-09).transl(-4.640972676433086e-09, -4e-08, 0))
hIsland = hIsland.sub(rect(2.3035414285102134e-09, -2.8632091124187663e-09).transl(6.844291402614296e-08, -4e-08, 0))
hIsland = hIsland.add(rect(9.424762438590477e-09, 2.300067677697163e-10).transl(8.27495121902314e-09, -4e-08, 0))
hIsland = hIsland.add(rect(7.83032145046364e-09, 3.323572176109409e-09).transl(-7.199196687359316e-08, -4e-08, 0))
hIsland = hIsland.add(rect(6.113690068146518e-09, 7.537565660298021e-11).transl(-6.913483154332985e-09, -4e-08, 0))
hIsland = hIsland.sub(rect(7.454834982558971e-09, -1.5831252270441596e-09).transl(7.11867860934477e-08, -4e-08, 0))
hIsland = hIsland.add(rect(4.716743180094177e-09, 2.063636276055146e-09).transl(-7.252040924962093e-08, -4e-08, 0))
hIsland = hIsland.sub(rect(6.1798379449979795e-09, -6.65549003093851e-10).transl(1.797292159065904e-08, -4e-08, 0))
hIsland = hIsland.sub(rect(3.023315779285506e-09, -1.2867646873285715e-10).transl(-6.040761970269712e-08, -4e-08, 0))
hIsland = hIsland.sub(rect(9.971637959105857e-09, -3.0745034214188865e-09).transl(3.218744814471797e-08, -4e-08, 0))
hIsland = hIsland.sub(rect(7.480144534994822e-09, -2.4116258063889946e-10).transl(-5.341121012063079e-08, -4e-08, 0))
hIsland = hIsland.add(rect(3.3789538634035935e-09, 9.818561609351047e-10).transl(-3.57550753042838e-08, -4e-08, 0))
hIsland = hIsland.sub(rect(6.500920531659172e-09, -5.137607084390904e-09).transl(-4.550315821743284e-08, -4e-08, 0))
hIsland = hIsland.sub(rect(7.466161201607292e-09, -1.1214133418254093e-09).transl(7.144684312292468e-08, -4e-08, 0))
hIsland = hIsland.add(rect(8.154583707086192e-09, 1.7055964172302142e-09).transl(-8.767476165943397e-09, -4e-08, 0))
hIsland = hIsland.sub(rect(3.615077122818284e-09, -3.257416660234795e-09).transl(-4.081911832903079e-08, -4e-08, 0))
hIsland = hIsland.sub(rect(4.667514850607239e-09, -4.6085412305339945e-09).transl(3.319146842108435e-09, -4e-08, 0))
hIsland = hIsland.add(rect(5.913324406281411e-09, 2.06635949186024e-09).transl(1.4948928599840054e-08, -4e-08, 0))
hIsland = hIsland.add(rect(4.475072872721734e-09, 2.4160062453272466e-09).transl(-3.620630507372267e-08, -4e-08, 0))
hIsland = hIsland.sub(rect(2.666905474380976e-09, -9.542294889087684e-10).transl(-1.4180345862632905e-09, -4e-08, 0))
hIsland = hIsland.sub(rect(5.120537447070126e-09, -5.828768794292557e-10).transl(5.490616932938886e-09, -4e-08, 0))
hIsland = hIsland.sub(rect(9.095965939521733e-09, -4.731924230654841e-11).transl(2.8889285950634318e-08, -4e-08, 0))
hIsland = hIsland.add(rect(6.454133164723181e-09, 4.2940017407483223e-10).transl(4.630342276126468e-08, -4e-08, 0))
hIsland = hIsland.add(rect(2.637634586426307e-09, 1.263290529385565e-09).transl(-5.70671717821625e-08, -4e-08, 0))
hIsland = hIsland.sub(rect(4.604878136495369e-09, -9.423918181243923e-10).transl(6.488139611476229e-08, -4e-08, 0))
hIsland = hIsland.sub(rect(4.60654885116206e-09, -1.7234053415306707e-10).transl(-4.640141531607674e-08, -4e-08, 0))
hIsland = hIsland.add(rect(5.781494033749352e-09, 7.099765880809938e-10).transl(-6.095427647667754e-08, -4e-08, 0))
hIsland = hIsland.add(rect(5.700060954645119e-09, 3.437603331883267e-10).transl(1.6869927233714355e-08, -4e-08, 0))
hIsland = hIsland.sub(rect(6.4701923836547145e-09, -2.097506680365294e-09).transl(-6.920074347182888e-08, -4e-08, 0))
hIsland = hIsland.sub(rect(8.925970944500147e-09, -4.0136506658737365e-09).transl(-4.8705312013165524e-08, -4e-08, 0))
hIsland = hIsland.sub(rect(9.227815569103278e-09, -1.41663719793355e-09).transl(-1.049630512641314e-09, -4e-08, 0))
hIsland = hIsland.add(rect(4.26600237701697e-09, 1.7694169010746064e-09).transl(4.8020036226239695e-08, -4e-08, 0))
hIsland = hIsland.sub(rect(3.4335619776491386e-09, -5.760780970336658e-10).transl(-6.394764529176805e-08, -4e-08, 0))
hIsland = hIsland.sub(rect(4.312819184249562e-09, -2.7629664675185965e-09).transl(6.682203396972342e-08, -4e-08, 0))
hIsland = hIsland.sub(rect(4.5519805561416394e-09, -1.3171356122013596e-09).transl(-5.643687743005466e-09, -4e-08, 0))
hIsland = hIsland.sub(rect(4.0240432222062855e-09, -8.278383639464467e-11).transl(-7.24007835476266e-08, -4e-08, 0))
hIsland = hIsland.add(rect(8.14321534901341e-09, 1.278813263999522e-11).transl(8.957394305386164e-08, -1.2161465562379627e-08, 0))
hIsland = hIsland.sub(rect(5.326287455568261e-09, -2.567088850978554e-09).transl(6.81075447107322e-08, -4e-08, 0))
hIsland = hIsland.sub(rect(6.285539503416697e-09, -2.6563443834199042e-09).transl(-1.1634725735071252e-08, -4e-08, 0))
hIsland = hIsland.add(rect(8.351933984853841e-09, 3.846692834401971e-09).transl(-3.816016314098366e-08, -4e-08, 0))
hIsland = hIsland.add(rect(8.80237358408645e-09, 1.5008011336986203e-09).transl(2.2331288954289476e-09, -4e-08, 0))
hIsland = hIsland.sub(rect(2.016880308133201e-09, -7.428715974755901e-10).transl(4.4837189173880926e-08, -4e-08, 0))
hIsland = hIsland.sub(rect(8.271586388086012e-09, -2.017001042091324e-09).transl(6.708600662616648e-08, -4e-08, 0))
hIsland = hIsland.add(rect(6.969003420708165e-09, 3.1910877199628883e-09).transl(-8.529006580769751e-08, -3.5163206181328434e-08, 0))
hIsland = hIsland.sub(rect(8.974665294979954e-09, -8.55857749503588e-10).transl(-2.288061748181961e-08, -4e-08, 0))
hIsland = hIsland.add(rect(5.1746021557396795e-09, 2.564959909994843e-10).transl(-3.812115213513132e-10, -4e-08, 0))
hIsland = hIsland.sub(rect(4.098978236664075e-09, -5.921323704907185e-10).transl(1.2224803619501652e-09, -4e-08, 0))
hIsland = hIsland.add(rect(2.083366478643469e-09, 3.8283456317520025e-09).transl(5.016567034253051e-08, -4e-08, 0))
hIsland = hIsland.sub(rect(6.31873483564817e-09, -1.2074835525258526e-09).transl(8.992545970730396e-08, -5.137456762931132e-09, 0))
hIsland = hIsland.sub(rect(7.37496428467103e-09, -8.033784857985172e-10).transl(-6.373211631444031e-08, -4e-08, 0))
hIsland = hIsland.sub(rect(5.977490350294569e-09, -1.6279300204847782e-09).transl(5.6641586486413453e-08, -4e-08, 0))
hIsland = hIsland.add(rect(6.7202818541024614e-09, 3.4164802524911767e-09).transl(-2.5604902537525055e-08, -4e-08, 0))
hIsland = hIsland.add(rect(5.756505793380258e-09, 2.1249386269096183e-09).transl(1.2001417741430577e-08, -4e-08, 0))
hIsland = hIsland.sub(rect(6.68950893323665e-09, -2.7209896439505553e-10).transl(-4.5668030696993355e-08, -4e-08, 0))
hIsland = hIsland.add(rect(3.789936303782936e-09, 1.665420363371798e-09).transl(-7.494061892058819e-08, -4e-08, 0))
hIsland = hIsland.sub(rect(6.784479316403046e-09, -1.6477735467533954e-09).transl(-5.9204508488446587e-08, -4e-08, 0))
hIsland = hIsland.sub(rect(9.965576167799027e-09, -3.70272062335985e-10).transl(-7.783052817678209e-08, -4e-08, 0))
hIsland = hIsland.sub(rect(6.745727671686165e-09, -2.1206098934027496e-09).transl(1.5128316901491312e-08, -4e-08, 0))
hIsland = hIsland.add(rect(7.375301178013199e-09, 3.2162690892552425e-09).transl(-4.177382790740374e-08, -4e-08, 0))
hIsland = hIsland.sub(rect(3.926964032419494e-09, -2.2325964875716093e-09).transl(-7.52513224693724e-08, -4e-08, 0))
hIsland = hIsland.add(rect(3.750405307993331e-09, 2.2944745190720346e-10).transl(1.6974041413903556e-08, -4e-08, 0))
hIsland = hIsland.sub(rect(2.632856138776635e-09, -8.47233398516593e-10).transl(-6.200945560762305e-08, -4e-08, 0))
hIsland = hIsland.add(rect(2.3106396244694055e-09, 3.2820328999393823e-09).transl(1.2772130859211586e-08, -4e-08, 0))
hIsland = hIsland.sub(rect(6.612841343668491e-09, -1.8842766016641675e-10).transl(-2.0489688887607414e-08, -4e-08, 0))
hIsland = hIsland.add(rect(9.373474851898357e-09, 3.3611823065408283e-10).transl(8.829140291207243e-08, -2.344858039297609e-08, 0))
hIsland = hIsland.sub(rect(7.238869804002007e-09, -1.1006071127413826e-09).transl(7.986901757460668e-08, -4e-08, 0))
hIsland = hIsland.add(rect(4.892091938277215e-09, 1.1019606901075924e-09).transl(-7.439857128703917e-08, -4e-08, 0))
hIsland = hIsland.sub(rect(9.236838874853903e-09, -1.7834343515176209e-09).transl(-3.171943423764607e-08, -4e-08, 0))
hIsland = hIsland.add(rect(7.045807927099885e-09, 3.797610369552593e-09).transl(-3.2688270319225497e-09, -4e-08, 0))
hIsland = hIsland.sub(rect(3.417201478458469e-09, -5.944552988995185e-10).transl(-6.578789124437792e-08, -4e-08, 0))
hIsland = hIsland.add(rect(5.80648334357496e-09, 1.197823587582747e-09).transl(7.672147674906667e-08, -4e-08, 0))
hIsland = hIsland.add(rect(8.746236584569269e-09, 1.1351364398007681e-10).transl(3.095211883842662e-08, -4e-08, 0))
hIsland = hIsland.add(rect(2.1045852539616465e-09, 1.317901282881156e-11).transl(3.442238561264475e-08, -4e-08, 0))
hIsland = hIsland.sub(rect(7.535410062643765e-09, -4.157316084413434e-09).transl(3.3380385170498725e-08, -4e-08, 0))
hIsland = hIsland.add(rect(3.0091411196494556e-09, 1.0859418974293574e-09).transl(-1.7454633825057417e-08, -4e-08, 0))
hIsland = hIsland.add(rect(5.590292707762405e-09, 1.0802987426393175e-09).transl(4.3710216220967366e-08, -4e-08, 0))
hIsland = hIsland.sub(rect(9.439440526247563e-09, -2.381609001992715e-09).transl(-6.129831626361376e-08, -4e-08, 0))
hIsland = hIsland.add(rect(5.183834161814032e-09, 2.8910754650167255e-09).transl(3.2117654341421814e-08, -4e-08, 0))
hIsland = hIsland.sub(rect(7.5291482172395e-09, -9.88679749308365e-10).transl(-2.3554473050168473e-08, -4e-08, 0))
hIsland = hIsland.sub(rect(3.6052915586468636e-09, -1.852895805600894e-09).transl(2.5169274826791447e-08, -4e-08, 0))
hIsland = hIsland.sub(rect(3.629638761821402e-09, -1.1654008100309297e-09).transl(-8.04524813058578e-08, -4e-08, 0))
hIsland = hIsland.add(rect(2.2320684544384585e-09, 9.102133879635949e-10).transl(2.936415251448844e-08, -4e-08, 0))
hIsland = hIsland.add(rect(3.0116759417177805e-09, 1.928728793527901e-09).transl(1.6321942421235063e-08, -4e-08, 0))
hIsland = hIsland.add(rect(9.687469928386271e-09, 2.644650737344371e-09).transl(-7.731510033555207e-08, -4e-08, 0))
hIsland = hIsland.add(rect(8.034390213837317e-09, 7.407660885420935e-10).transl(5.856334551722328e-08, 4e-08, 0))
hIsland = hIsland.add(rect(4.099663398912293e-09, 6.682626167282432e-10).transl(3.857758022347122e-08, 4e-08, 0))
hIsland = hIsland.add(rect(4.934762463113161e-09, 1.5748902354736947e-09).transl(3.685175346793374e-08, 4e-08, 0))
hIsland = hIsland.sub(rect(7.497093879467386e-09, -1.0837904549432013e-10).transl(1.0582408824068302e-08, 4e-08, 0))
hIsland = hIsland.sub(rect(2.0200804119011215e-09, -1.8028909435048141e-09).transl(-4.3088100934308324e-08, 4e-08, 0))
hIsland = hIsland.sub(rect(5.77517478727145e-09, -8.945082739280679e-10).transl(1.7206937755421768e-08, 4e-08, 0))
hIsland = hIsland.add(rect(5.603929004606071e-09, 2.1865788868359605e-09).transl(-5.997439707288574e-08, 4e-08, 0))
hIsland = hIsland.add(rect(6.35672802822775e-09, 1.8200681362096952e-09).transl(-2.3965197811102263e-08, 4e-08, 0))
hIsland = hIsland.add(rect(2.8083529992757763e-09, 1.71530120730982e-10).transl(-9.738590286588741e-09, 4e-08, 0))
hIsland = hIsland.sub(rect(8.998263642725335e-09, -5.021475282449355e-09).transl(-5.7780774796990466e-08, 4e-08, 0))
hIsland = hIsland.sub(rect(7.498509637115725e-09, -6.773781824189165e-10).transl(6.605450352323932e-08, 4e-08, 0))
hIsland = hIsland.add(rect(8.86856618002598e-09, 7.565298616540757e-10).transl(7.458576510316202e-08, 4e-08, 0))
hIsland = hIsland.sub(rect(5.037099454127581e-09, -3.1818482213637223e-09).transl(-1.6697986190910914e-08, 4e-08, 0))
hIsland = hIsland.add(rect(4.3675566935501145e-09, 1.851814891024789e-09).transl(-3.0937221452385847e-08, 4e-08, 0))
hIsland = hIsland.add(rect(4.14845212312614e-09, 4.083536194490874e-09).transl(5.5502539422799235e-08, 4e-08, 0))
hIsland = hIsland.sub(rect(3.975887108842005e-09, -9.374226752600547e-10).transl(-8.39760654648123e-08, 3.774980254361613e-08, 0))
hIsland = hIsland.add(rect(9.098920906541227e-09, 2.7677961165845857e-09).transl(-1.954750601470884e-08, 4e-08, 0))
hIsland = hIsland.add(rect(3.960929752825029e-09, 3.68692809028891e-09).transl(-5.8339918273625006e-08, 4e-08, 0))
hIsland = hIsland.sub(rect(3.6356415106847434e-09, -1.254382974268605e-09).transl(3.6994256601523434e-08, 4e-08, 0))
hIsland = hIsland.sub(rect(9.126224242475786e-09, -2.133965989654004e-09).transl(8.336964840136246e-08, 3.8588622759787536e-08, 0))
hIsland = hIsland.sub(rect(4.975506278430234e-09, -2.0671144628130025e-09).transl(-8.980284414716049e-08, 8.326586804827126e-09, 0))
hIsland = hIsland.add(rect(2.340928183429138e-09, 7.706128166332573e-10).transl(5.144874703204922e-08, 4e-08, 0))
hIsland = hIsland.sub(rect(7.314892728656432e-09, -1.1252785703690895e-09).transl(-1.0466051521082767e-08, 4e-08, 0))
hIsland = hIsland.sub(rect(6.003231737939993e-09, -1.2479151083380423e-09).transl(7.999577453361818e-09, 4e-08, 0))
hIsland = hIsland.add(rect(5.521941108185982e-09, 3.718077365850615e-10).transl(5.002510268336985e-08, 4e-08, 0))
hIsland = hIsland.add(rect(3.952979253378656e-09, 8.555933924273477e-10).transl(7.308000846525544e-08, 4e-08, 0))
hIsland = hIsland.sub(rect(3.964816480710458e-09, -3.0802483441295346e-09).transl(-8.630836608371556e-08, 3.230143505469624e-08, 0))
hIsland = hIsland.sub(rect(2.858285794584111e-09, -2.652220797851828e-10).transl(-8.503125867062528e-08, 3.576299308890005e-08, 0))
hIsland = hIsland.add(rect(6.776213339927416e-09, 3.424266075492826e-09).transl(3.828282093416329e-09, 4e-08, 0))
hIsland = hIsland.add(rect(2.9158395754454558e-09, 3.623487559085678e-09).transl(-4.195201840174981e-08, 4e-08, 0))
hIsland = hIsland.sub(rect(6.097807436631323e-09, -2.0514894694278886e-09).transl(5.005108773918633e-08, 4e-08, 0))
hIsland = hIsland.add(rect(8.560386809649199e-09, 1.062509374274333e-09).transl(-8.470206635207688e-08, 3.645926655901269e-08, 0))
hIsland = hIsland.add(rect(5.100813479463718e-09, 1.904171211922434e-09).transl(4.3244982684313447e-08, 4e-08, 0))
hIsland = hIsland.sub(rect(3.11187076121308e-09, -1.0470464467450413e-09).transl(8.558171915499786e-09, 4e-08, 0))
hIsland = hIsland.add(rect(2.348323694097558e-09, 1.553551316893605e-10).transl(4.7811753015366536e-08, 4e-08, 0))
hIsland = hIsland.add(rect(2.375472772004532e-09, 3.0862658184518197e-09).transl(-8.524931177371564e-08, 3.526081991715254e-08, 0))
hIsland = hIsland.add(rect(2.996903640252985e-09, 3.6138408198262316e-09).transl(4.4052887396591114e-08, 4e-08, 0))
hIsland = hIsland.sub(rect(2.24613907558087e-09, -3.1936232763345794e-10).transl(-1.9860583230843508e-08, 4e-08, 0))
hIsland = hIsland.add(rect(4.742322383488565e-09, 4.867858085464303e-10).transl(3.0827560859022337e-08, 4e-08, 0))
hIsland = hIsland.sub(rect(7.33266382312769e-09, -3.1861846814786567e-10).transl(7.128166707873502e-08, 4e-08, 0))
hIsland = hIsland.sub(rect(4.432176634928994e-09, -1.6842538992759298e-09).transl(-5.7353653189706664e-08, 4e-08, 0))
hIsland = hIsland.add(rect(7.991217786548822e-09, 8.563647157639117e-10).transl(-5.264715872686398e-08, 4e-08, 0))
hIsland = hIsland.add(rect(5.300549057965138e-09, 1.21888245358143e-09).transl(-5.0454113926559073e-08, 4e-08, 0))
hIsland = hIsland.add(rect(6.664785497830843e-09, 4.0389180798198266e-10).transl(3.1531977561726936e-08, 4e-08, 0))
hIsland = hIsland.add(rect(4.859982636919375e-09, 1.7327633226516309e-09).transl(-3.3248257881936965e-09, 4e-08, 0))
hIsland = hIsland.add(rect(8.24499648168695e-09, 7.152633016453497e-10).transl(4.9724073682811314e-08, 4e-08, 0))
hIsland = hIsland.add(rect(2.961490454816188e-09, 2.4056645800547456e-09).transl(6.911647149233304e-08, 4e-08, 0))
hIsland = hIsland.sub(rect(7.699699116599418e-09, -4.251505884994971e-10).transl(1.8184789418853705e-08, 4e-08, 0))
hIsland = hIsland.add(rect(2.424114223960315e-09, 1.0395457215858402e-09).transl(-4.938282993412234e-08, 4e-08, 0))
hIsland = hIsland.add(rect(9.587088263539745e-09, 4.248315332310363e-09).transl(-7.594936726809877e-08, 4e-08, 0))
hIsland = hIsland.add(rect(8.18793765622531e-09, 2.0148411409477176e-10).transl(-2.4754802061288547e-08, 4e-08, 0))
hIsland = hIsland.sub(rect(2.6875911807080117e-09, -2.6606502085301317e-09).transl(-4.097333185950402e-08, 4e-08, 0))
hIsland = hIsland.add(rect(3.628656203330507e-09, 4.804065413060187e-10).transl(-6.61854289959239e-08, 4e-08, 0))
hIsland = hIsland.add(rect(4.839898793584398e-09, 6.023273123329562e-11).transl(-8.178929618449617e-08, 3.984587877027687e-08, 0))
hIsland = hIsland.add(rect(2.934711987517551e-09, 2.040927549641694e-09).transl(8.325034582933686e-08, 3.872943657287147e-08, 0))
hIsland = hIsland.add(rect(2.2861484856828035e-09, 1.4381037623457765e-09).transl(-2.6508809956989985e-08, 4e-08, 0))
hIsland = hIsland.add(rect(3.662969205384567e-09, 3.5783727406515273e-09).transl(5.021739324098344e-08, 4e-08, 0))
hIsland = hIsland.sub(rect(6.3516711676337674e-09, -3.2436238266695172e-09).transl(-5.355776731013994e-08, 4e-08, 0))
hIsland = hIsland.add(rect(4.3678363671979276e-09, 1.7302192461960156e-09).transl(1.739377143948121e-08, 4e-08, 0))
hIsland = hIsland.sub(rect(6.02337203592364e-09, -1.6697305950248134e-10).transl(3.7627841231318666e-08, 4e-08, 0))
hIsland = hIsland.sub(rect(3.460499644902435e-09, -4.059538644441837e-09).transl(4.2617206857626335e-08, 4e-08, 0))
hIsland = hIsland.add(rect(2.233647177669448e-09, 1.2782388212252377e-09).transl(-4.566369612441271e-08, 4e-08, 0))
hIsland = hIsland.add(rect(8.222742844063727e-09, 2.4438792085599696e-10).transl(2.203600305852431e-08, 4e-08, 0))
hIsland = hIsland.add(rect(6.6489731621147725e-09, 1.5308794556921247e-09).transl(-8.802069433834407e-09, 4e-08, 0))
hIsland = hIsland.sub(rect(9.87588798541465e-09, -1.988727847752716e-09).transl(-5.7311221061055065e-08, 4e-08, 0))
hIsland = hIsland.sub(rect(6.590518983409122e-09, -4.580552432140885e-09).transl(2.9623550154242036e-08, 4e-08, 0))
hIsland = hIsland.add(rect(3.5983541901135967e-09, 6.320160793700731e-10).transl(-1.7689995150516752e-08, 4e-08, 0))
hIsland = hIsland.add(rect(4.441233724230565e-09, 5.948099522204706e-10).transl(-8.481700594421518e-08, 3.622439410580067e-08, 0))
hIsland = hIsland.sub(rect(4.762478221873326e-09, -1.2306154052751798e-09).transl(7.635821216573772e-08, 4e-08, 0))
hIsland = hIsland.sub(rect(9.27971039653465e-09, -8.024922015835086e-11).transl(2.7100075735542095e-08, 4e-08, 0))
hIsland = hIsland.add(rect(5.325527399679536e-09, 1.239406484337901e-09).transl(-6.225606534029199e-09, 4e-08, 0))
hIsland = hIsland.sub(rect(9.528454945599804e-09, -2.787117750629866e-09).transl(-8.660590924729413e-08, 3.1292733826605204e-08, 0))
hIsland = hIsland.sub(rect(6.320760025580875e-09, -1.5097988769799223e-09).transl(-7.813902750693228e-08, 4e-08, 0))
hIsland = hIsland.sub(rect(3.454298156119925e-09, -4.396920650741573e-10).transl(-1.0631046981101196e-08, 4e-08, 0))
hIsland = hIsland.add(rect(7.382521085846227e-09, 1.7924320420764144e-10).transl(-7.540775458945288e-08, 4e-08, 0))
hIsland = hIsland.sub(rect(6.367743592694945e-09, -2.739727347837969e-09).transl(-2.7546993127094226e-08, 4e-08, 0))
hIsland = hIsland.sub(rect(9.01043185811479e-09, -3.1585077671104235e-09).transl(6.28178737904284e-08, 4e-08, 0))
hIsland = hIsland.add(rect(2.27057783556986e-09, 1.5897714129266755e-09).transl(-5.100503877634188e-08, 4e-08, 0))
hIsland = hIsland.add(rect(8.380872894983512e-09, 7.016113496146332e-10).transl(8.557245717033614e-08, 3.445308434305217e-08, 0))
hIsland = hIsland.add(rect(9.587232884973485e-09, 3.588774454964142e-09).transl(2.8438553159371804e-08, 4e-08, 0))
hIsland = hIsland.sub(rect(9.650672318280799e-09, -1.645489797846541e-10).transl(3.47293273230439e-08, 4e-08, 0))
hIsland = hIsland.add(rect(6.9123893864741645e-09, 1.8211979821059346e-09).transl(3.156078676993452e-08, 4e-08, 0))
hIsland = hIsland.sub(rect(7.097966993442312e-09, -7.690442011055069e-10).transl(4.7161235383852316e-08, 4e-08, 0))
hIsland = hIsland.sub(rect(2.195360567834661e-09, -3.523937545732831e-09).transl(-1.9490507083925133e-08, 4e-08, 0))
hIsland = hIsland.add(rect(9.957745528468804e-09, 5.415605457594992e-10).transl(-3.7358409546602534e-08, 4e-08, 0))
hIsland = hIsland.sub(rect(7.290319247527274e-09, -7.044914644740427e-10).transl(4.5427022278740994e-08, 4e-08, 0))
hIsland = hIsland.add(rect(8.184419757854791e-09, 1.2775181367557918e-09).transl(-2.7609905974248845e-08, 4e-08, 0))
hIsland = hIsland.add(rect(8.445258491695729e-09, 1.5603018782579367e-09).transl(-1.141883052661613e-08, 4e-08, 0))
hIsland = hIsland.add(rect(5.144651671097224e-09, 2.979128577438146e-10).transl(5.747051273557175e-08, 4e-08, 0))
hIsland = hIsland.sub(rect(7.066856550421715e-09, -1.3939707245308864e-09).transl(-4.6785433697037654e-08, 4e-08, 0))
hIsland = hIsland.sub(rect(2.689454468123839e-09, -9.761846884559817e-11).transl(-5.4922727284282816e-08, 4e-08, 0))
hIsland = hIsland.add(rect(3.581724879092479e-09, 1.1198118556181458e-09).transl(8.924805838065028e-08, 1.6005883454937214e-08, 0))
hIsland = hIsland.sub(rect(6.109376497355157e-09, -2.708125211359754e-09).transl(-2.3287825318483637e-08, 4e-08, 0))
hIsland = hIsland.add(rect(8.322855930583666e-09, 3.548458811270455e-09).transl(3.1688013534333695e-08, 4e-08, 0))
hIsland = hIsland.add(rect(2.894852278978956e-09, 3.830405940369239e-09).transl(5.592031654614921e-08, 4e-08, 0))
hIsland = hIsland.sub(rect(2.3896812627825055e-09, -2.0550813537426832e-09).transl(2.1562590937999284e-08, 4e-08, 0))
hIsland = hIsland.add(rect(5.8925030966803545e-09, 3.4775661025101677e-09).transl(-3.259583214481523e-08, 4e-08, 0))
hIsland = hIsland.sub(rect(7.403707087061567e-09, -1.4966186346166625e-09).transl(-1.8495847931400986e-09, 4e-08, 0))
hIsland = hIsland.sub(rect(9.979558292260811e-09, -5.528383920239808e-10).transl(4.0456825418252644e-08, 4e-08, 0))
hIsland = hIsland.add(rect(3.218328158772904e-09, 3.742392526840818e-09).transl(-1.5515737581171504e-08, 4e-08, 0))
hIsland = hIsland.sub(rect(5.608504913731564e-09, -5.524366158707591e-10).transl(4.2104600536843656e-08, 4e-08, 0))
hIsland = hIsland.add(rect(5.443750399891611e-09, 1.6537325972902544e-09).transl(-3.1938537815616065e-08, 4e-08, 0))
hIsland = hIsland.sub(rect(8.597827319599212e-09, -1.2199679253783779e-09).transl(-4.405134125639041e-08, 4e-08, 0))
hIsland = hIsland.add(rect(7.747730663755021e-09, 7.756273520352405e-10).transl(-8.548162853045352e-08, 3.4688029234141346e-08, 0))
hIsland = hIsland.add(rect(8.145878536347901e-09, 1.1622538282167162e-09).transl(3.4308233882686592e-09, 4e-08, 0))
hIsland = hIsland.sub(rect(6.3499720529689845e-09, -3.1683068978459808e-09).transl(3.150650653320311e-08, 4e-08, 0))
hIsland = hIsland.sub(rect(2.6557989904752733e-09, -1.377432099383886e-09).transl(6.504605502206611e-08, 4e-08, 0))
hIsland = hIsland.add(rect(5.240251354803514e-09, 3.1062709722303455e-09).transl(-5.249728892699813e-08, 4e-08, 0))
hIsland = hIsland.add(rect(3.217213245111273e-09, 1.4716354246636844e-09).transl(-1.7117471673920134e-08, 4e-08, 0))
hIsland = hIsland.add(rect(4.622478506465946e-09, 1.7479087738090528e-10).transl(-5.0243716949730125e-08, 4e-08, 0))
hIsland = hIsland.add(rect(9.525533885221431e-09, 8.881219825623099e-10).transl(-2.315560910398585e-08, 4e-08, 0))
hIsland = hIsland.sub(rect(8.997364784458279e-09, -1.5222729651340055e-10).transl(2.1962569786177595e-08, 4e-08, 0))
hIsland = hIsland.add(rect(7.67652364283741e-09, 2.0269592949476577e-09).transl(-8.148153508082117e-08, 3.9942705625189127e-08, 0))
hIsland = hIsland.sub(rect(7.66198350561276e-09, -4.2488030318609315e-09).transl(8.79606655662788e-08, 2.535637738444972e-08, 0))
hIsland = hIsland.sub(rect(7.379398546992456e-09, -2.28180871790937e-09).transl(1.4044553994699692e-08, 4e-08, 0))
hIsland = hIsland.add(rect(7.697270280123445e-09, 6.008670199242751e-10).transl(-3.0670760552153786e-08, 4e-08, 0))
hIsland = hIsland.sub(rect(5.0484723833339096e-09, -1.4986597437648376e-09).transl(6.500758086470418e-08, 4e-08, 0))
hIsland = hIsland.sub(rect(5.202796872799645e-09, -4.38619205206008e-09).transl(-2.497543324321064e-08, 4e-08, 0))
hIsland = hIsland.sub(rect(2.3138495783047877e-09, -2.0560270241494857e-09).transl(4.719609836975972e-08, 4e-08, 0))
hIsland = hIsland.sub(rect(8.98592306324717e-09, -8.015878709347668e-10).transl(-1.7968722586734195e-08, 4e-08, 0))
hIsland = hIsland.sub(rect(9.496115435910099e-09, -3.6303172236882545e-10).transl(-6.623236880764543e-08, 4e-08, 0))
hIsland = hIsland.add(rect(7.847585849772361e-09, 1.5921786192528231e-10).transl(-6.136553666393384e-08, 4e-08, 0))
hIsland = hIsland.sub(rect(3.702756501425607e-09, -1.616294624472187e-09).transl(-8.761462275083543e-08, 2.712450156169656e-08, 0))
hIsland = hIsland.add(rect(8.401068206743124e-09, 4.2794629142820654e-11).transl(2.3277820829401586e-08, 4e-08, 0))
hIsland = hIsland.add(rect(5.666844001440414e-09, 4.070907048028091e-09).transl(5.706248763209223e-08, 4e-08, 0))
hIsland = hIsland.add(rect(3.821444239780063e-09, 6.625965562695232e-10).transl(7.004878388527344e-08, 4e-08, 0))
hIsland = hIsland.add(rect(4.654285019735933e-09, 1.056550575072907e-09).transl(-1.2190528271805079e-08, 4e-08, 0))
hIsland = hIsland.sub(rect(3.822967975376612e-09, -3.890467864513387e-10).transl(-3.829626231201154e-08, 4e-08, 0))
hIsland = hIsland.sub(rect(7.4080685787585755e-09, -2.190455697344776e-10).transl(8.24664798824022e-08, 3.946542459369575e-08, 0))
hIsland = hIsland.add(rect(7.615368495711931e-09, 2.3170829431189406e-10).transl(6.192836716712471e-08, 4e-08, 0))
hIsland = hIsland.sub(rect(2.6705851146897025e-09, -2.476528937512236e-09).transl(7.755432763584156e-08, 4e-08, 0))
hIsland = hIsland.sub(rect(4.972393662773851e-09, -3.861666416254828e-09).transl(3.774734546722039e-08, 4e-08, 0))
hIsland = hIsland.sub(rect(6.638291121130349e-09, -1.0075041538678167e-09).transl(8.094629033177392e-08, 4e-08, 0))
hIsland = hIsland.add(rect(6.170149949797983e-09, 4.425685502474478e-10).transl(2.958625837727723e-08, 4e-08, 0))
hIsland = hIsland.sub(rect(3.1215851914992236e-09, -1.3058995361858072e-09).transl(3.9377208944653504e-08, 4e-08, 0))
hIsland = hIsland.sub(rect(9.043050895562517e-09, -8.15594507365962e-10).transl(3.3552984452883666e-08, 4e-08, 0))
hIsland = hIsland.sub(rect(8.691641085297797e-09, -3.0311579169761043e-09).transl(-4.7176092576489805e-08, 4e-08, 0))
hIsland = hIsland.sub(rect(5.665831099504212e-09, -3.1720609280114335e-09).transl(-1.7318463468292457e-08, 4e-08, 0))
hIsland = hIsland.add(rect(2.4216422254266513e-09, 4.216940358696474e-10).transl(8.015126028700534e-08, 4e-08, 0))
hIsland = hIsland.add(rect(3.3191965365035334e-09, 5.27676129146346e-10).transl(5.7801483563359e-08, 4e-08, 0))
hIsland = hIsland.add(rect(3.8224276877346876e-09, 1.3951822477912892e-09).transl(-4.581584155033615e-08, 4e-08, 0))
hIsland = hIsland.add(rect(6.185344143727433e-09, 1.3701813346252715e-10).transl(5.4775362711383905e-08, 4e-08, 0))
hIsland = hIsland.sub(rect(6.449673493595223e-09, -4.1640397244294695e-09).transl(-1.3424015199388502e-08, 4e-08, 0))
hIsland = hIsland.add(rect(8.583929665887712e-09, 1.810903354919333e-09).transl(-6.209175386636675e-08, 4e-08, 0))
hIsland = hIsland.add(rect(8.663142475968253e-09, 9.38450290736005e-10).transl(5.563202555541413e-08, 4e-08, 0))
hIsland = hIsland.add(rect(5.632546190128934e-09, 3.104917025721746e-09).transl(1.9796243012500283e-08, 4e-08, 0))
hIsland = hIsland.sub(rect(2.2550089373611606e-09, -3.849190812592045e-09).transl(-6.18989723070659e-08, 4e-08, 0))
hIsland = hIsland.add(rect(7.50629664912628e-09, 1.1740524266022942e-09).transl(-5.3158638867965504e-08, 4e-08, 0))
hIsland = hIsland.add(rect(9.371491850390236e-09, 3.3526854382609693e-09).transl(-4.200089608869187e-08, 4e-08, 0))
hIsland = hIsland.add(rect(2.376994755416626e-09, 7.55452218569952e-10).transl(6.70168252630766e-08, 4e-08, 0))
hIsland = hIsland.add(rect(7.234315932842276e-09, 9.340833539505958e-10).transl(-3.027690842074499e-08, 4e-08, 0))
hIsland = hIsland.sub(rect(6.409548561074514e-09, -5.51081400992537e-10).transl(-1.4633513599463697e-08, 4e-08, 0))
hIsland = hIsland.add(rect(6.794131135729836e-09, 4.649774161482138e-09).transl(-8.73086371080545e-08, 2.8528036143416155e-08, 0))
hIsland = hIsland.add(rect(7.317914992458334e-09, 2.1041101103438023e-10).transl(-4.299172226469313e-09, 4e-08, 0))
hIsland = hIsland.add(rect(9.617309283209036e-09, 1.0878751559262742e-09).transl(3.952528946246418e-08, 4e-08, 0))
hIsland = hIsland.sub(rect(2.085253310774934e-09, -7.942276265810068e-10).transl(-6.029801137955793e-08, 4e-08, 0))
hIsland = hIsland.add(rect(7.781999445184972e-09, 2.6741103921581025e-09).transl(-7.80129914713239e-08, 4e-08, 0))
hIsland = hIsland.sub(rect(6.075386023079061e-09, -1.2713683533197196e-09).transl(-6.294789777753958e-08, 4e-08, 0))
hIsland = hIsland.add(rect(2.3260659281422225e-09, 7.883034589761055e-10).transl(3.757429829549042e-08, 4e-08, 0))
hIsland = hIsland.sub(rect(2.0960877373772545e-09, -1.3439728302762867e-09).transl(-4.896181483361204e-08, 4e-08, 0))
hIsland = hIsland.add(rect(9.227672252017616e-09, 1.1429415911242243e-09).transl(-1.7578792459080543e-08, 4e-08, 0))
hIsland = hIsland.add(rect(2.8238628375577505e-09, 6.8054269331113e-10).transl(1.9850105307170496e-08, 4e-08, 0))
hIsland = hIsland.add(rect(5.938039604097468e-09, 9.102229618171143e-10).transl(4.46108943500629e-08, 4e-08, 0))
hIsland = hIsland.add(rect(6.129993694950978e-09, 1.2144931803788987e-09).transl(8.887823529643248e-08, 1.9338905257892434e-08, 0))
hIsland = hIsland.sub(rect(4.876176815759492e-09, -3.7868833288786316e-09).transl(8.361329066452592e-08, 3.827663101722349e-08, 0))
hIsland = hIsland.add(rect(5.629123135608048e-09, 3.000909410674664e-09).transl(-7.599386663576198e-08, 4e-08, 0))
hIsland = hIsland.add(rect(8.174825939180003e-09, 2.3847957863504366e-10).transl(4.410227810158994e-08, 4e-08, 0))
hIsland = hIsland.sub(rect(8.233162222818295e-09, -1.7722030216012003e-09).transl(-4.9579817251936076e-08, 4e-08, 0))
hIsland = hIsland.add(rect(2.7765323451867635e-09, 1.831989185358466e-09).transl(-8.71828027345895e-08, 2.9067125495920815e-08, 0))
hIsland = hIsland.add(rect(8.115374507406028e-09, 7.564771564743677e-10).transl(-1.1673978455179838e-08, 4e-08, 0))
hIsland = hIsland.sub(rect(4.029644131812247e-09, -7.833347816167721e-10).transl(-5.612010980698782e-08, 4e-08, 0))
hIsland = hIsland.add(rect(7.3448686061320934e-09, 2.8450503799041223e-10).transl(7.39097870758977e-08, 4e-08, 0))
hIsland = hIsland.add(rect(7.432411736930516e-09, 8.126712728349138e-10).transl(-8.106326886665344e-08, 3.999901160519891e-08, 0))
hIsland = hIsland.sub(rect(9.438127195420486e-09, -3.9482856956556775e-10).transl(-8.640238271766892e-08, 3.1992054869174055e-08, 0))
hIsland = hIsland.sub(rect(3.6535322674381496e-09, -4.5929694539722365e-10).transl(7.793511193772156e-08, 4e-08, 0))
hIsland = hIsland.sub(rect(8.696383978315919e-09, -1.8950265891124188e-09).transl(9.040723118129222e-09, 4e-08, 0))
hIsland = hIsland.add(rect(8.47967078492889e-09, 4.1773208701596824e-10).transl(5.277680941142433e-08, 4e-08, 0))
hIsland = hIsland.sub(rect(9.364561029097736e-09, -2.0093199818390547e-09).transl(-2.5199245856556312e-08, 4e-08, 0))
hIsland = hIsland.sub(rect(7.589545052486432e-09, -1.784301695586935e-09).transl(-2.0666426268554395e-08, 4e-08, 0))
hIsland = hIsland.sub(rect(3.4407234254651087e-09, -2.0084482531264725e-09).transl(-1.2000919168060045e-08, 4e-08, 0))
hIsland = hIsland.add(rect(7.645029589588696e-09, 8.575834911318359e-10).transl(9.20225050244062e-09, 4e-08, 0))
hIsland = hIsland.add(rect(6.686380250945011e-09, 6.79815592371664e-11).transl(2.471602688411103e-08, 4e-08, 0))
hIsland = hIsland.add(rect(2.662654022915056e-09, 1.1308350601451521e-09).transl(-6.115266915033981e-08, 4e-08, 0))
hIsland = hIsland.add(rect(2.6051429057866678e-09, 2.507246287993869e-09).transl(5.344102962796731e-08, 4e-08, 0))
hIsland = hIsland.sub(rect(2.7649178493960326e-09, -1.071406949145743e-09).transl(-8.172702638536378e-08, 3.986927592972056e-08, 0))
hIsland = hIsland.sub(rect(6.576447960626468e-09, -2.7487283885354725e-09).transl(5.5033844546082464e-08, 4e-08, 0))
hIsland = hIsland.add(rect(6.662533597501553e-09, 9.985102662115414e-10).transl(4.3091810145364326e-09, 4e-08, 0))
hIsland = hIsland.sub(rect(3.90117476690656e-09, -7.87151098344619e-10).transl(-2.7207812412608695e-08, 4e-08, 0))
hIsland = hIsland.sub(rect(7.0146216698606764e-09, -3.247165416451229e-10).transl(5.219731083093473e-08, 4e-08, 0))
hIsland = hIsland.sub(rect(8.231681301184786e-09, -2.321820077503419e-09).transl(2.8010656969963297e-08, 4e-08, 0))
hIsland = hIsland.sub(rect(3.574768970713749e-09, -2.86644312788242e-09).transl(-6.125302628158292e-08, 4e-08, 0))
hIsland = hIsland.add(rect(7.3009051444458344e-09, 1.8011952659388974e-09).transl(4.292793070664204e-08, 4e-08, 0))
hIsland = hIsland.add(rect(9.09193908534843e-09, 2.482222763359596e-09).transl(2.9523047912337312e-08, 4e-08, 0))
hIsland = hIsland.sub(rect(6.14655274854629e-09, -4.638191774714158e-09).transl(-4.3674364945542715e-08, 4e-08, 0))
hIsland = hIsland.add(rect(5.051735010203209e-09, 1.0154814322678721e-10).transl(-2.001085680367443e-08, 4e-08, 0))
hIsland = hIsland.add(rect(3.960243976251924e-09, 7.828588359869782e-10).transl(-3.0025179654279436e-08, 4e-08, 0))
hIsland = hIsland.add(rect(7.019615226647787e-09, 2.2752086715296204e-09).transl(4.376336427327921e-08, 4e-08, 0))
hIsland = hIsland.add(rect(9.10982423573136e-09, 1.4363541455944563e-09).transl(-6.112186991765992e-08, 4e-08, 0))
hIsland = hIsland.add(rect(5.284116727895106e-09, 1.4870197472083873e-09).transl(7.530993497696847e-08, 4e-08, 0))
hIsland = hIsland.add(rect(5.4411035016952864e-09, 2.454816156317936e-10).transl(-5.947355068065232e-08, 4e-08, 0))
vIsland = hIsland.rotz(pi / 2)
hIslands = hIslands.add(hIsland.transl(-a/2, a, 0))
hIsland = rect(islandLength-2*ellipseConstant, islandWidth)
hIsland = hIsland.add(ellipse(ellipseConstant*2, islandWidth).transl(islandLength/2-ellipseConstant, 0, 0))
hIsland = hIsland.add(ellipse(ellipseConstant*2, islandWidth).transl(-islandLength/2+ellipseConstant, 0, 0))
hIsland = hIsland.sub(rect(6.601349904920053e-09, -1.1511842171774186e-09).transl(-2.5357085083404883e-08, -4e-08, 0))
hIsland = hIsland.sub(rect(2.334285436020543e-09, -1.8824575028926235e-09).transl(-6.542375334168718e-08, -4e-08, 0))
hIsland = hIsland.add(rect(3.102193094699118e-09, 3.2678774116799876e-09).transl(-5.677679585022192e-08, -4e-08, 0))
hIsland = hIsland.add(rect(6.747343197485098e-09, 6.112073141158839e-10).transl(-7.918731333717305e-08, -4e-08, 0))
hIsland = hIsland.sub(rect(5.020648821649091e-09, -6.785831974107551e-10).transl(5.7436753800406686e-08, -4e-08, 0))
hIsland = hIsland.sub(rect(4.1629487203105415e-09, -1.2932631591288175e-10).transl(3.5735872886764386e-08, -4e-08, 0))
hIsland = hIsland.sub(rect(5.711562572186499e-09, -1.281001506104464e-11).transl(-1.4393243958956529e-08, -4e-08, 0))
hIsland = hIsland.add(rect(3.775096867724424e-09, 8.599415312960568e-10).transl(3.368701312284373e-08, -4e-08, 0))
hIsland = hIsland.sub(rect(7.215826480729737e-09, -2.1941327619830775e-09).transl(-7.999224972163157e-08, -4e-08, 0))
hIsland = hIsland.add(rect(9.884943295209712e-09, 8.885099813009179e-10).transl(-6.384862593464575e-08, -4e-08, 0))
hIsland = hIsland.add(rect(7.3115835423114646e-09, 4.510744932353879e-10).transl(9.868015859590986e-09, -4e-08, 0))
hIsland = hIsland.sub(rect(3.0153222454885356e-09, -1.466642010511997e-09).transl(6.129423572080066e-08, -4e-08, 0))
hIsland = hIsland.add(rect(6.6247426272649e-09, 1.0649239904993001e-09).transl(2.9328033087886415e-08, -4e-08, 0))
hIsland = hIsland.add(rect(2.176932181202611e-09, 2.59033713922871e-09).transl(-8.985642561356125e-08, -7.116283329367395e-09, 0))
hIsland = hIsland.add(rect(5.463310115345579e-09, 1.917925062606213e-09).transl(-4.416715219485718e-08, -4e-08, 0))
hIsland = hIsland.sub(rect(9.059632675088761e-09, -3.948266911103439e-09).transl(-2.7972307637205968e-08, -4e-08, 0))
hIsland = hIsland.sub(rect(5.608051743344572e-09, -2.768804702236912e-09).transl(6.865829433218204e-08, -4e-08, 0))
hIsland = hIsland.sub(rect(7.746931574850046e-09, -7.030045737057355e-10).transl(-1.6842425981269583e-08, -4e-08, 0))
hIsland = hIsland.sub(rect(7.772258346787003e-09, -2.864052169081968e-09).transl(-8.067154745670445e-08, -4e-08, 0))
hIsland = hIsland.add(rect(9.331550017425621e-09, 1.8239300977962024e-09).transl(-7.45205578426842e-08, -4e-08, 0))
hIsland = hIsland.add(rect(9.168922013231795e-09, 1.123185097029788e-09).transl(-4.196404540244147e-08, -4e-08, 0))
hIsland = hIsland.sub(rect(5.197353313794031e-09, -6.034908672592514e-10).transl(5.733474166923858e-08, -4e-08, 0))
hIsland = hIsland.sub(rect(8.61833727318387e-09, -1.4307651755563724e-09).transl(4.245123367433763e-08, -4e-08, 0))
hIsland = hIsland.sub(rect(2.311027497168748e-09, -7.343783164242143e-10).transl(-2.2530744492608266e-09, -4e-08, 0))
hIsland = hIsland.add(rect(8.677206887621719e-09, 3.478287035454178e-10).transl(7.5920036378e-08, -4e-08, 0))
hIsland = hIsland.sub(rect(6.2782689611908535e-09, -1.2178600899680555e-10).transl(3.618520926211045e-08, -4e-08, 0))
hIsland = hIsland.add(rect(7.201361476196372e-09, 6.314897563049557e-10).transl(-7.187565390081966e-08, -4e-08, 0))
hIsland = hIsland.sub(rect(4.842052557231729e-09, -3.0867403066643276e-09).transl(5.927415421845568e-08, -4e-08, 0))
hIsland = hIsland.sub(rect(4.281248429805565e-09, -9.921196400687777e-10).transl(2.4967394588724375e-08, -4e-08, 0))
hIsland = hIsland.add(rect(8.671628150125667e-09, 9.166764519945136e-10).transl(-8.737566327538278e-08, -2.82321654571293e-08, 0))
hIsland = hIsland.add(rect(9.788885956616275e-09, 1.8415425650409987e-10).transl(-2.699241853778093e-08, -4e-08, 0))
hIsland = hIsland.sub(rect(4.808299332419724e-09, -1.7848362404743298e-09).transl(-2.0352135064036335e-08, -4e-08, 0))
hIsland = hIsland.add(rect(7.0384413036429315e-09, 3.7689146240287495e-09).transl(2.3898906765265718e-08, -4e-08, 0))
hIsland = hIsland.sub(rect(4.5517130108206196e-09, -1.5557436292616227e-09).transl(-4.745598654871924e-08, -4e-08, 0))
hIsland = hIsland.sub(rect(4.4380275783826954e-09, -4.02903071948893e-09).transl(-2.3211840777970352e-08, -4e-08, 0))
hIsland = hIsland.add(rect(6.067911615655659e-09, 3.5574045370412214e-09).transl(2.666646889272193e-08, -4e-08, 0))
hIsland = hIsland.add(rect(9.998153234425443e-09, 2.81597149894563e-10).transl(4.153015691637542e-08, -4e-08, 0))
hIsland = hIsland.sub(rect(3.2017167066965934e-09, -2.037817859508069e-09).transl(3.3685864399260187e-09, -4e-08, 0))
hIsland = hIsland.sub(rect(4.3527318251734386e-09, -1.7473025233934082e-09).transl(4.507711304154301e-08, -4e-08, 0))
hIsland = hIsland.sub(rect(7.293671891493246e-09, -1.136120667401961e-09).transl(-6.263820207634154e-08, -4e-08, 0))
hIsland = hIsland.sub(rect(5.108488203752355e-09, -7.253690960664928e-10).transl(4.066541336648542e-08, -4e-08, 0))
hIsland = hIsland.add(rect(4.801413245733183e-09, 1.1528600993323704e-09).transl(-1.2478081544526966e-08, -4e-08, 0))
hIsland = hIsland.add(rect(8.50153800495664e-09, 3.547438651409358e-09).transl(-2.973881152121319e-08, -4e-08, 0))
hIsland = hIsland.add(rect(2.071748900931775e-09, 1.853989662036346e-09).transl(7.01267478137028e-08, -4e-08, 0))
hIsland = hIsland.add(rect(8.909255181805808e-09, 2.571885684290699e-09).transl(-5.598822772390692e-08, -4e-08, 0))
hIsland = hIsland.add(rect(3.496149089380362e-09, 2.1723504545701863e-10).transl(-4.815835702634294e-08, -4e-08, 0))
hIsland = hIsland.sub(rect(5.2972538006994375e-09, -2.151168133748252e-09).transl(-7.381589106828886e-08, -4e-08, 0))
hIsland = hIsland.sub(rect(8.907447909038975e-09, -1.8101225509179698e-09).transl(-7.054758504746239e-08, -4e-08, 0))
hIsland = hIsland.add(rect(9.081300707596336e-09, 7.4330457069226e-10).transl(-7.58490264085513e-08, -4e-08, 0))
hIsland = hIsland.sub(rect(2.6628810882205826e-09, -7.642665716727119e-11).transl(-5.893982011349291e-08, -4e-08, 0))
hIsland = hIsland.add(rect(9.61471693692227e-09, 3.839280187026527e-10).transl(6.571285316363694e-08, -4e-08, 0))
hIsland = hIsland.add(rect(2.896242887507607e-09, 6.650308125151532e-10).transl(3.089547317360608e-08, -4e-08, 0))
hIsland = hIsland.sub(rect(8.865343322475414e-09, -1.3095315885872766e-09).transl(-6.998328690227129e-08, -4e-08, 0))
hIsland = hIsland.sub(rect(3.4392908776170893e-09, -5.164985383389675e-10).transl(-8.073550541379655e-08, -4e-08, 0))
hIsland = hIsland.sub(rect(5.441191918481003e-09, -1.9799253844214474e-09).transl(-2.4083002988051067e-08, -4e-08, 0))
hIsland = hIsland.sub(rect(8.345163075945252e-09, -3.1886064966435413e-09).transl(8.390123980985471e-08, -3.786468632425023e-08, 0))
hIsland = hIsland.add(rect(5.9152908925992105e-09, 2.452308159254555e-10).transl(-8.271259985151915e-08, -3.926912568508051e-08, 0))
hIsland = hIsland.sub(rect(4.914589445947628e-09, -1.2603325195830215e-09).transl(-7.646786916435525e-08, -4e-08, 0))
hIsland = hIsland.add(rect(8.39402559375419e-09, 2.1716420380136814e-09).transl(1.2103263679820399e-08, -4e-08, 0))
hIsland = hIsland.sub(rect(6.511083752010511e-09, -4.8177932051702196e-09).transl(6.271909850987321e-08, -4e-08, 0))
hIsland = hIsland.sub(rect(3.956165551562578e-09, -5.593787978862019e-10).transl(-4.723075779494209e-09, -4e-08, 0))
hIsland = hIsland.sub(rect(3.8222785111417586e-09, -7.892348399443973e-10).transl(3.278405751584924e-08, -4e-08, 0))
hIsland = hIsland.add(rect(4.137236381916183e-09, 2.2696261263334153e-09).transl(-1.764211790525583e-08, -4e-08, 0))
hIsland = hIsland.sub(rect(8.260563819666499e-09, -6.417873282769087e-09).transl(2.7197906776117886e-08, -4e-08, 0))
hIsland = hIsland.sub(rect(9.531898381065812e-09, -4.5004943561026354e-10).transl(-6.071982168033481e-08, -4e-08, 0))
hIsland = hIsland.add(rect(3.5868691826726873e-09, 1.1353213850860156e-09).transl(-7.062170508254068e-08, -4e-08, 0))
hIsland = hIsland.sub(rect(5.1376112443575425e-09, -1.2400926791509828e-09).transl(-6.469551257767512e-08, -4e-08, 0))
hIsland = hIsland.add(rect(7.342341831331915e-09, 7.735445494952741e-10).transl(5.036914608128098e-08, -4e-08, 0))
hIsland = hIsland.sub(rect(5.288536227629822e-09, -2.04916027949499e-09).transl(-3.892196260393987e-08, -4e-08, 0))
hIsland = hIsland.add(rect(3.1158050032459513e-09, 2.6107025244361694e-09).transl(-3.723629310080095e-08, -4e-08, 0))
hIsland = hIsland.sub(rect(9.791078960077329e-09, -1.8294386416614071e-09).transl(-7.637691334634498e-08, -4e-08, 0))
hIsland = hIsland.sub(rect(9.131910648422265e-09, -9.876744624857044e-10).transl(-3.6509539458749844e-08, -4e-08, 0))
hIsland = hIsland.sub(rect(8.87985634585327e-09, -1.3934882140315716e-09).transl(7.885443817486468e-08, -4e-08, 0))
hIsland = hIsland.sub(rect(5.1720428726089624e-09, -1.0255106457704091e-09).transl(-2.8752048149254743e-08, -4e-08, 0))
hIsland = hIsland.add(rect(7.896456560820077e-09, 1.805758144364018e-09).transl(-6.985359433184053e-08, -4e-08, 0))
hIsland = hIsland.add(rect(3.2149913167790037e-09, 2.4961431953306165e-10).transl(3.736112153078213e-09, -4e-08, 0))
hIsland = hIsland.add(rect(2.20123101315734e-09, 1.9452861349618143e-09).transl(-1.242510825070619e-08, -4e-08, 0))
hIsland = hIsland.sub(rect(9.401581872321011e-09, -1.1187952037200775e-09).transl(3.5989827691150405e-09, -4e-08, 0))
hIsland = hIsland.sub(rect(6.462269635922966e-09, -2.359705256053176e-10).transl(8.390223344683492e-08, -3.78631821610316e-08, 0))
hIsland = hIsland.sub(rect(8.602850092520118e-09, -3.0386338926800495e-09).transl(-6.338247640667143e-08, -4e-08, 0))
hIsland = hIsland.add(rect(5.347006858819478e-09, 2.05380486393887e-09).transl(2.526480450201124e-08, -4e-08, 0))
hIsland = hIsland.add(rect(6.51569344956427e-09, 2.7306436185860613e-09).transl(5.949687986482517e-08, -4e-08, 0))
hIsland = hIsland.sub(rect(2.376686159211528e-09, -1.329724898662725e-09).transl(3.841276923872901e-08, -4e-08, 0))
hIsland = hIsland.sub(rect(2.6319526432056044e-09, -4.07245680580988e-09).transl(2.1267280314174695e-08, -4e-08, 0))
hIsland = hIsland.sub(rect(9.338212386581582e-09, -1.6569579603120355e-09).transl(6.590924057280194e-08, -4e-08, 0))
hIsland = hIsland.add(rect(9.842741234057317e-09, 1.8635046996019664e-09).transl(-8.123375561009843e-08, -3.9986505949746184e-08, 0))
hIsland = hIsland.add(rect(7.088923443138648e-09, 1.2799748521944533e-09).transl(1.3086374580533931e-08, -4e-08, 0))
hIsland = hIsland.add(rect(7.70622412249579e-09, 3.660127102230366e-09).transl(-2.1005907643170477e-08, -4e-08, 0))
hIsland = hIsland.sub(rect(4.7863165543333236e-09, -1.873431134927562e-09).transl(1.5445121457824067e-08, -4e-08, 0))
hIsland = hIsland.sub(rect(4.234595472778545e-09, -2.095490311075889e-09).transl(-4.232448574973206e-08, -4e-08, 0))
hIsland = hIsland.add(rect(8.697264987007334e-09, 2.2264139594769339e-10).transl(2.0190057405256527e-08, -4e-08, 0))
hIsland = hIsland.sub(rect(2.8243325426590726e-09, -3.721736028806716e-09).transl(3.722089091970092e-08, -4e-08, 0))
hIsland = hIsland.sub(rect(5.393080390166686e-09, -9.551790084544279e-10).transl(1.976401841105183e-08, -4e-08, 0))
hIsland = hIsland.add(rect(6.639531481263042e-09, 1.4356942024070043e-09).transl(1.556295998513807e-08, -4e-08, 0))
hIsland = hIsland.sub(rect(5.549054703268078e-09, -1.6191341299119584e-09).transl(-2.812238578504341e-08, -4e-08, 0))
hIsland = hIsland.sub(rect(6.057492732707434e-09, -9.070139126251038e-10).transl(1.5409157442932245e-08, -4e-08, 0))
hIsland = hIsland.add(rect(7.975162089736878e-09, 1.8686616234804375e-09).transl(1.7815421883395724e-08, -4e-08, 0))
hIsland = hIsland.sub(rect(7.2926539308788665e-09, -3.153434947142554e-09).transl(-3.4396747826430693e-09, -4e-08, 0))
hIsland = hIsland.add(rect(2.1694589071060896e-09, 1.5720144166140634e-09).transl(7.623493230296946e-08, -4e-08, 0))
hIsland = hIsland.add(rect(5.437958617169132e-09, 2.1273225942877467e-10).transl(-6.627174616232411e-08, -4e-08, 0))
hIsland = hIsland.add(rect(5.159871371764279e-09, 2.580275228733158e-09).transl(-4.002337494383462e-09, -4e-08, 0))
hIsland = hIsland.add(rect(4.915864893605281e-09, 2.4708197041818565e-09).transl(4.214758653398439e-08, -4e-08, 0))
hIsland = hIsland.add(rect(5.863362153803298e-09, 1.0646699119721417e-09).transl(7.108620371610156e-08, -4e-08, 0))
hIsland = hIsland.add(rect(5.081957163838947e-09, 1.8440097299979421e-09).transl(4.786288495208876e-08, -4e-08, 0))
hIsland = hIsland.add(rect(4.894057217234997e-09, 1.451580582059576e-10).transl(-2.0068083359007637e-08, -4e-08, 0))
hIsland = hIsland.add(rect(8.467522531930467e-09, 2.304591093120736e-09).transl(-6.387149698792963e-08, -4e-08, 0))
hIsland = hIsland.sub(rect(3.9887464509464845e-09, -9.073571231550443e-10).transl(-2.8519698770737338e-08, -4e-08, 0))
hIsland = hIsland.add(rect(9.846318055030188e-09, 5.198175110209661e-09).transl(8.449477075533533e-08, -3.686118835933374e-08, 0))
hIsland = hIsland.add(rect(3.0782190450354926e-09, 1.0974292399096615e-09).transl(-1.875977716856136e-08, -4e-08, 0))
hIsland = hIsland.sub(rect(7.1828704109682e-09, -1.4901316033843164e-09).transl(-8.352026122204036e-08, -3.8399661359792737e-08, 0))
hIsland = hIsland.sub(rect(8.723488350376126e-09, -2.280683576362722e-09).transl(7.322292524617362e-08, -4e-08, 0))
hIsland = hIsland.sub(rect(6.289130730620727e-09, -3.357784497963462e-09).transl(-8.20169223098251e-08, -3.974383878413556e-08, 0))
hIsland = hIsland.add(rect(6.085231019662621e-09, 2.955841279826754e-09).transl(-6.522936839752834e-08, -4e-08, 0))
hIsland = hIsland.sub(rect(8.683321622225659e-09, -2.1206626178552006e-09).transl(-7.527629847344164e-08, -4e-08, 0))
hIsland = hIsland.add(rect(4.080742249880569e-09, 3.226203749372018e-09).transl(8.056497751971004e-08, -4e-08, 0))
hIsland = hIsland.add(rect(6.2151037644028404e-09, 5.670832421460877e-10).transl(-6.444107968081522e-08, -4e-08, 0))
hIsland = hIsland.sub(rect(7.354522163325957e-09, -1.9018240002653397e-09).transl(5.467393777307444e-08, -4e-08, 0))
hIsland = hIsland.add(rect(6.427654368560868e-09, 1.8729582263704546e-09).transl(-7.78541513297806e-08, -4e-08, 0))
hIsland = hIsland.sub(rect(7.807699693800226e-09, -2.6700418083850126e-09).transl(-9.359952333285108e-09, -4e-08, 0))
hIsland = hIsland.add(rect(4.046648549444181e-09, 9.100314546024332e-10).transl(2.1340629985060642e-08, -4e-08, 0))
hIsland = hIsland.sub(rect(8.87960031868687e-09, -5.252931971223017e-10).transl(-8.877470337654126e-08, -2.014955804768428e-08, 0))
hIsland = hIsland.add(rect(6.8273751314728965e-09, 2.1470598694175187e-09).transl(7.306290821730271e-08, -4e-08, 0))
hIsland = hIsland.sub(rect(3.2686565488830753e-09, -4.0211277559466124e-11).transl(4.658412768916162e-08, -4e-08, 0))
hIsland = hIsland.add(rect(5.668683061349293e-09, 1.1672164327370797e-09).transl(2.412724758909692e-08, -4e-08, 0))
hIsland = hIsland.sub(rect(4.953715208960147e-09, -1.7016346294767179e-09).transl(-1.1058054049501495e-08, -4e-08, 0))
hIsland = hIsland.sub(rect(5.040458893350777e-09, -2.9877911353568017e-09).transl(8.422090838321995e-08, -3.7350723248000324e-08, 0))
hIsland = hIsland.sub(rect(8.82412277901355e-09, -1.893006545038662e-09).transl(-5.999482100404388e-08, -4e-08, 0))
hIsland = hIsland.add(rect(9.990924190340468e-09, 1.4447380391796208e-10).transl(5.133136901708845e-08, -4e-08, 0))
hIsland = hIsland.sub(rect(5.0063613482432434e-09, -2.2333729004475806e-09).transl(-6.06811547039344e-08, -4e-08, 0))
hIsland = hIsland.add(rect(6.015951941179861e-09, 1.1040004324887796e-09).transl(4.180585305245926e-08, -4e-08, 0))
hIsland = hIsland.sub(rect(8.998140335024363e-09, -2.9851904747430672e-09).transl(-2.0094877064971516e-08, -4e-08, 0))
hIsland = hIsland.add(rect(8.025207484180545e-09, 2.413536948530593e-10).transl(4.069312634824824e-08, -4e-08, 0))
hIsland = hIsland.sub(rect(8.004882537726232e-09, -3.717432000836352e-09).transl(4.945557513785089e-08, -4e-08, 0))
hIsland = hIsland.add(rect(5.922981258024514e-09, 3.8581320942172925e-09).transl(-6.191769316265734e-08, -4e-08, 0))
hIsland = hIsland.sub(rect(5.7853648015747664e-09, -1.0805541063747235e-09).transl(-8.199382657382704e-08, -3.975537761370158e-08, 0))
hIsland = hIsland.sub(rect(4.657695189248314e-09, -8.700519616268345e-10).transl(-3.4314459478621456e-08, -4e-08, 0))
hIsland = hIsland.add(rect(5.254457220061148e-09, 5.07014431800089e-09).transl(-6.002367707596069e-08, -4e-08, 0))
hIsland = hIsland.add(rect(5.85837342537066e-09, 4.820631217191505e-10).transl(8.919589553324124e-08, -1.6526699032252185e-08, 0))
hIsland = hIsland.add(rect(6.1898233064368435e-09, 1.1654471737954293e-09).transl(3.795894396043836e-08, -4e-08, 0))
hIsland = hIsland.add(rect(7.068740183497394e-09, 2.962761223394447e-10).transl(-3.0513081798022475e-08, -4e-08, 0))
hIsland = hIsland.sub(rect(4.704634327512723e-09, -1.332901221139999e-10).transl(-6.260583958612959e-08, -4e-08, 0))
hIsland = hIsland.add(rect(5.999788378194356e-09, 3.008516382610231e-09).transl(-3.6862498503670695e-08, -4e-08, 0))
hIsland = hIsland.sub(rect(4.792557243086577e-09, -3.216478228251402e-09).transl(-7.527003505147588e-08, -4e-08, 0))
hIsland = hIsland.add(rect(4.560758020362831e-09, 5.794676035479401e-10).transl(8.365210403592713e-08, -3.82238615107432e-08, 0))
hIsland = hIsland.sub(rect(4.608659485692145e-09, -1.3095546899496633e-09).transl(-5.0592009945613865e-08, -4e-08, 0))
hIsland = hIsland.add(rect(2.0696020823662744e-09, 2.0152671709184536e-09).transl(-6.542717040410596e-08, -4e-08, 0))
hIsland = hIsland.sub(rect(9.051188197649257e-09, -2.378739993020068e-09).transl(5.3034940279329065e-09, -4e-08, 0))
hIsland = hIsland.add(rect(9.127138825142275e-09, 4.508411947449402e-10).transl(6.181821816133757e-08, -4e-08, 0))
hIsland = hIsland.sub(rect(6.2654254143211195e-09, -9.97418423950868e-10).transl(-4.79786808109029e-08, -4e-08, 0))
hIsland = hIsland.sub(rect(8.959707859603301e-09, -1.9639610732977283e-09).transl(4.248763458243637e-08, -4e-08, 0))
hIsland = hIsland.add(rect(9.081440732266595e-09, 9.504210114956955e-11).transl(-1.3228355949952422e-08, -4e-08, 0))
hIsland = hIsland.sub(rect(4.045723807553073e-09, -2.3985167471829375e-09).transl(6.021177813736921e-08, -4e-08, 0))
hIsland = hIsland.add(rect(7.720428178558946e-09, 3.4451085029181197e-09).transl(-6.612453900295034e-08, -4e-08, 0))
hIsland = hIsland.sub(rect(8.406407068232636e-09, -1.8846061939302535e-09).transl(4.479810565146584e-08, -4e-08, 0))
hIsland = hIsland.add(rect(5.703050290403021e-09, 4.30735360207632e-09).transl(1.369582678841469e-08, -4e-08, 0))
hIsland = hIsland.sub(rect(5.82595012842206e-09, -1.014562727902456e-09).transl(-5.2755389937517546e-08, -4e-08, 0))
hIsland = hIsland.sub(rect(6.023007152250909e-09, -4.007470451728942e-09).transl(-4.357277989914303e-08, -4e-08, 0))
hIsland = hIsland.sub(rect(4.750760041313374e-09, -1.4646721810061474e-09).transl(-1.8688475190358337e-08, -4e-08, 0))
hIsland = hIsland.add(rect(4.927293319444665e-09, 8.473881581370268e-10).transl(2.0652989358955205e-08, -4e-08, 0))
hIsland = hIsland.add(rect(2.6767380841597533e-09, 2.553047339764279e-09).transl(-6.244473121147247e-08, -4e-08, 0))
hIsland = hIsland.add(rect(7.225742633618538e-09, 1.5410576582266075e-09).transl(7.0618489464003594e-09, -4e-08, 0))
hIsland = hIsland.sub(rect(2.1153778383206696e-09, -2.2487643140348737e-09).transl(2.5360877250123974e-08, -4e-08, 0))
hIsland = hIsland.add(rect(8.768622252117862e-09, 5.35814551874482e-10).transl(-8.3918521775736e-08, -3.783844296239432e-08, 0))
hIsland = hIsland.sub(rect(2.3982606058628967e-09, -1.4905746293495074e-10).transl(-2.993298549013467e-08, -4e-08, 0))
hIsland = hIsland.sub(rect(5.993141509756091e-09, -4.659104111985294e-09).transl(2.539299239478021e-08, -4e-08, 0))
hIsland = hIsland.add(rect(4.316598327878713e-09, 1.2221941329788156e-09).transl(-5.11408656073586e-10, -4e-08, 0))
hIsland = hIsland.add(rect(3.809280013737754e-09, 1.4557474157301943e-09).transl(-1.9056323584885292e-08, -4e-08, 0))
hIsland = hIsland.add(rect(5.4350363309256365e-09, 2.473739396764844e-09).transl(-7.05820683216402e-08, -4e-08, 0))
hIsland = hIsland.sub(rect(7.143073710106852e-09, -4.249228838171497e-09).transl(-8.859595824121905e-08, -2.145401900138374e-08, 0))
hIsland = hIsland.sub(rect(9.99756601182131e-09, -3.902125913704116e-09).transl(-5.2421655883538006e-08, -4e-08, 0))
hIsland = hIsland.add(rect(6.3775457430456346e-09, 1.538970690965734e-09).transl(-7.112457439932695e-08, -4e-08, 0))
hIsland = hIsland.add(rect(9.975265054424664e-09, 8.764106736659725e-10).transl(7.235605097198115e-08, -4e-08, 0))
hIsland = hIsland.sub(rect(3.833591302765792e-09, -4.5638729847733423e-10).transl(1.4516808027909023e-08, -4e-08, 0))
hIsland = hIsland.add(rect(4.347483009233933e-09, 1.7719830890978353e-09).transl(-4.163676555286539e-08, -4e-08, 0))
hIsland = hIsland.sub(rect(3.2030187085620146e-09, -2.141321806401683e-09).transl(-6.942668930859026e-08, -4e-08, 0))
hIsland = hIsland.add(rect(4.7256778810923894e-09, 1.7517757963310195e-10).transl(-3.367668222088217e-08, -4e-08, 0))
hIsland = hIsland.sub(rect(6.346807943505179e-09, -1.9213951051815244e-09).transl(-3.35904908306521e-08, -4e-08, 0))
hIsland = hIsland.add(rect(8.817171088488004e-09, 1.7339189527608748e-10).transl(-3.950731125307034e-09, -4e-08, 0))
hIsland = hIsland.sub(rect(6.392404306489874e-09, -2.1820836594684808e-09).transl(-6.846244278806829e-09, -4e-08, 0))
hIsland = hIsland.add(rect(5.463458588813459e-09, 2.1901045599629115e-09).transl(2.2490482314684492e-08, -4e-08, 0))
hIsland = hIsland.add(rect(9.122514482603787e-09, 1.8532704319340167e-09).transl(3.5770502360081835e-09, -4e-08, 0))
hIsland = hIsland.add(rect(4.9771253478363725e-09, 9.624972357999972e-11).transl(5.2954382544492493e-08, -4e-08, 0))
hIsland = hIsland.add(rect(8.245424906449316e-09, 2.699518164630245e-09).transl(-2.6496334579560994e-08, -4e-08, 0))
hIsland = hIsland.add(rect(3.6198096046413712e-09, 5.517292545960272e-10).transl(4.841233293894249e-08, -4e-08, 0))
hIsland = hIsland.add(rect(8.64047771423519e-09, 5.749649751618078e-10).transl(4.4540415375999484e-08, -4e-08, 0))
hIsland = hIsland.sub(rect(9.413636775747876e-09, -1.4743647534018499e-09).transl(-3.447155181425045e-08, -4e-08, 0))
hIsland = hIsland.add(rect(8.260244623494225e-09, 2.987980871735346e-09).transl(-6.381784361492724e-08, -4e-08, 0))
hIsland = hIsland.sub(rect(6.9593763039215074e-09, -1.4589285610738676e-09).transl(-4.897633797712732e-08, -4e-08, 0))
hIsland = hIsland.sub(rect(6.089515442842602e-09, -8.70317335844149e-10).transl(8.09486256457648e-08, -4e-08, 0))
hIsland = hIsland.sub(rect(5.25990519089389e-09, -2.00098432789426e-10).transl(-7.517229445981389e-08, -4e-08, 0))
hIsland = hIsland.sub(rect(3.486870122631815e-09, -2.569323216129178e-09).transl(3.174107046447304e-08, -4e-08, 0))
hIsland = hIsland.sub(rect(3.0332559451742588e-09, -3.672551839570285e-09).transl(8.413579632543999e-08, -3.7493513883279815e-08, 0))
hIsland = hIsland.sub(rect(2.6252159020107835e-09, -1.3959736619816938e-09).transl(-9.116996862272314e-10, -4e-08, 0))
hIsland = hIsland.add(rect(2.9537173029096045e-09, 1.8100872160002e-09).transl(1.3411114164197684e-08, -4e-08, 0))
hIsland = hIsland.add(rect(7.084384408434857e-09, 1.6333619520244644e-09).transl(7.963731262875923e-08, -4e-08, 0))
hIsland = hIsland.sub(rect(9.611723600835408e-09, -1.7152637811302517e-09).transl(-6.727797651437147e-08, -4e-08, 0))
hIsland = hIsland.add(rect(8.048957530371716e-09, 3.253651585468711e-10).transl(-8.808768688328986e-08, -2.4651524739637473e-08, 0))
hIsland = hIsland.sub(rect(5.048619474304768e-09, -4.5478226880519534e-10).transl(-3.393868841900522e-08, -4e-08, 0))
hIsland = hIsland.sub(rect(2.943463364196342e-09, -4.5882350582102073e-10).transl(-4.167706257735502e-08, -4e-08, 0))
hIsland = hIsland.add(rect(4.657810865460205e-09, 4.3086817031713285e-11).transl(-7.01710381627892e-08, -4e-08, 0))
hIsland = hIsland.add(rect(2.254571348672819e-09, 2.340238075904209e-10).transl(-6.970401335030974e-08, 4e-08, 0))
hIsland = hIsland.sub(rect(8.164727071187044e-09, -3.763238322446117e-10).transl(4.1943493252115316e-08, 4e-08, 0))
hIsland = hIsland.sub(rect(5.213574617448447e-09, -2.6158330570476346e-11).transl(4.5833380601216614e-08, 4e-08, 0))
hIsland = hIsland.sub(rect(2.1439302936074595e-09, -2.4591766353219012e-09).transl(5.525599050385918e-08, 4e-08, 0))
hIsland = hIsland.add(rect(4.859040014255468e-09, 2.850667658664915e-09).transl(8.772506104862756e-08, 2.6582665433980907e-08, 0))
hIsland = hIsland.sub(rect(3.295703128170998e-09, -3.488538501347612e-10).transl(2.511495668124922e-09, 4e-08, 0))
hIsland = hIsland.add(rect(5.188168994574722e-09, 2.26931320125739e-09).transl(1.2702145026798812e-08, 4e-08, 0))
hIsland = hIsland.add(rect(2.2765289207752667e-09, 1.7302828773540551e-09).transl(-7.674260279572681e-08, 4e-08, 0))
hIsland = hIsland.add(rect(4.03286738857934e-09, 8.153008708982487e-10).transl(3.968995742606674e-08, 4e-08, 0))
hIsland = hIsland.sub(rect(6.252886099189356e-09, -1.209417612015205e-09).transl(1.4546891290730354e-08, 4e-08, 0))
hIsland = hIsland.add(rect(3.1122756575523606e-09, 1.2738616644650868e-09).transl(-1.4663522799847962e-09, 4e-08, 0))
hIsland = hIsland.add(rect(2.0208514126973036e-09, 1.2565821264480207e-09).transl(8.343127975415749e-08, 3.851281749300947e-08, 0))
hIsland = hIsland.add(rect(3.25664231615922e-09, 2.406995880551733e-09).transl(5.8335089252878223e-08, 4e-08, 0))
hIsland = hIsland.add(rect(5.870137479735293e-09, 2.674575556443832e-09).transl(-8.566459711808052e-08, 3.420823198191184e-08, 0))
hIsland = hIsland.sub(rect(5.640551526124169e-09, -1.337281802081717e-10).transl(6.341419285622476e-08, 4e-08, 0))
hIsland = hIsland.add(rect(2.7318884633129257e-09, 1.7792009714825755e-09).transl(-8.404022471396915e-08, 3.764867710392335e-08, 0))
hIsland = hIsland.add(rect(2.332722904607648e-09, 1.0292151947767873e-10).transl(-3.917194907677274e-09, 4e-08, 0))
hIsland = hIsland.sub(rect(5.96533164743775e-09, -2.9460095376555913e-09).transl(5.83077948077777e-08, 4e-08, 0))
hIsland = hIsland.add(rect(2.8556572490119977e-09, 3.874586528857338e-09).transl(5.5709717763611736e-08, 4e-08, 0))
hIsland = hIsland.sub(rect(3.0629257198657964e-09, -1.4441101906000572e-09).transl(8.259769003992053e-08, 3.936467967170665e-08, 0))
hIsland = hIsland.sub(rect(5.274886371640422e-09, -6.43016645262455e-10).transl(-5.7188806245016166e-08, 4e-08, 0))
hIsland = hIsland.add(rect(5.926814427457801e-09, 9.26659365493155e-10).transl(5.558834912394533e-08, 4e-08, 0))
hIsland = hIsland.add(rect(5.789600124575281e-09, 4.942197079932883e-09).transl(5.029868042651878e-08, 4e-08, 0))
hIsland = hIsland.sub(rect(9.487572932950594e-09, -1.3933564661506065e-09).transl(-3.09650315380673e-08, 4e-08, 0))
hIsland = hIsland.sub(rect(5.148375030358211e-09, -2.027697897095958e-09).transl(-8.735014145662726e-08, 2.8345558488782095e-08, 0))
hIsland = hIsland.sub(rect(6.8668795349164914e-09, -1.6932783669722385e-09).transl(-4.632602550404118e-08, 4e-08, 0))
hIsland = hIsland.sub(rect(6.6368481716185255e-09, -1.6381827688521206e-09).transl(3.537179281056227e-08, 4e-08, 0))
hIsland = hIsland.sub(rect(9.52680408098251e-09, -1.870136743229128e-09).transl(-3.307568035254138e-08, 4e-08, 0))
hIsland = hIsland.add(rect(7.914860737625515e-09, 1.1148493767246333e-09).transl(-2.8199950902981967e-08, 4e-08, 0))
hIsland = hIsland.add(rect(4.699858067655057e-09, 1.5083237302521301e-09).transl(-8.850979463990271e-08, 2.2045064716402944e-08, 0))
hIsland = hIsland.sub(rect(4.07355406070678e-09, -8.005174769180665e-11).transl(2.954038536658877e-08, 4e-08, 0))
hIsland = hIsland.sub(rect(5.90555931868675e-09, -5.076455172413729e-10).transl(2.491782909827946e-08, 4e-08, 0))
hIsland = hIsland.add(rect(2.253282239354314e-09, 1.4753657027761107e-09).transl(-8.402815077109191e-08, 3.7667893236675596e-08, 0))
hIsland = hIsland.add(rect(3.071446419328197e-09, 1.390221819495412e-09).transl(-7.27141036357931e-08, 4e-08, 0))
hIsland = hIsland.sub(rect(5.4672336659049025e-09, -1.7318712903402009e-09).transl(-1.7675429203086484e-08, 4e-08, 0))
hIsland = hIsland.sub(rect(9.908186263407128e-09, -1.7965801669523e-11).transl(7.168460067665137e-08, 4e-08, 0))
hIsland = hIsland.add(rect(2.2712800952401216e-09, 2.7163522557150516e-09).transl(-7.267871634267569e-08, 4e-08, 0))
hIsland = hIsland.sub(rect(9.451437498609185e-09, -1.0292817481787902e-09).transl(-1.5424095672510325e-10, 4e-08, 0))
hIsland = hIsland.add(rect(5.4119853769580215e-09, 1.5653875818168088e-09).transl(6.408792877798019e-08, 4e-08, 0))
hIsland = hIsland.add(rect(4.33742383660734e-09, 1.836848262244298e-09).transl(3.311292101678006e-08, 4e-08, 0))
hIsland = hIsland.add(rect(3.0966006586566987e-09, 1.467645128989036e-09).transl(-1.3185494510504958e-08, 4e-08, 0))
hIsland = hIsland.add(rect(9.977507518201747e-09, 4.713259397708838e-10).transl(-1.0617163435979522e-08, 4e-08, 0))
hIsland = hIsland.sub(rect(4.236983163331484e-09, -4.065131063407429e-09).transl(7.109063432459981e-08, 4e-08, 0))
hIsland = hIsland.sub(rect(6.374497629942042e-09, -1.8079263961762318e-09).transl(-6.047375705012283e-08, 4e-08, 0))
hIsland = hIsland.add(rect(6.977252657855026e-09, 2.150120335906355e-09).transl(-5.5541285239794083e-08, 4e-08, 0))
hIsland = hIsland.sub(rect(8.099426797045234e-09, -2.8281344145148165e-09).transl(2.5517497039382842e-08, 4e-08, 0))
hIsland = hIsland.add(rect(8.267631299355666e-09, 1.4959512667656366e-09).transl(3.7233844872045954e-08, 4e-08, 0))
hIsland = hIsland.add(rect(9.627722886497917e-09, 3.4314858765986577e-09).transl(7.566581978669698e-08, 4e-08, 0))
hIsland = hIsland.sub(rect(3.3380985215578767e-09, -1.7001788492535144e-09).transl(4.205333343307728e-09, 4e-08, 0))
hIsland = hIsland.add(rect(6.169539142297082e-09, 1.1439386735877951e-09).transl(-3.266796989505937e-08, 4e-08, 0))
hIsland = hIsland.sub(rect(4.923098906720964e-09, -4.8526753503397425e-09).transl(-1.9429211427479628e-08, 4e-08, 0))
hIsland = hIsland.sub(rect(9.885169275994658e-09, -4.195864769938546e-11).transl(-1.101301141934188e-08, 4e-08, 0))
hIsland = hIsland.add(rect(5.702437876346396e-09, 3.550816391196549e-09).transl(5.2818602680584015e-08, 4e-08, 0))
hIsland = hIsland.sub(rect(5.350040683643737e-09, -1.3273206810468184e-09).transl(-5.6863494433945815e-08, 4e-08, 0))
hIsland = hIsland.sub(rect(9.000704454708352e-09, -2.9667010420184934e-09).transl(2.4089383742455134e-08, 4e-08, 0))
hIsland = hIsland.add(rect(4.921299648799967e-09, 1.44856397315462e-09).transl(-7.29712591881068e-08, 4e-08, 0))
hIsland = hIsland.sub(rect(5.250771217368736e-09, -3.552418039613447e-10).transl(-8.869470899760882e-08, 2.0747251939815654e-08, 0))
hIsland = hIsland.add(rect(3.3716330884244333e-09, 4.3963674078710935e-10).transl(-3.193032694468632e-08, 4e-08, 0))
hIsland = hIsland.add(rect(4.582440509577554e-09, 6.358874367147654e-10).transl(-9.127347553020202e-09, 4e-08, 0))
hIsland = hIsland.sub(rect(2.5432605142174066e-09, -3.8696925106267896e-10).transl(3.1345482687139486e-08, 4e-08, 0))
hIsland = hIsland.sub(rect(3.6222509931071055e-09, -2.636755358772964e-10).transl(1.7337671952233583e-08, 4e-08, 0))
hIsland = hIsland.sub(rect(4.255204200279731e-09, -1.740490075729278e-09).transl(2.5469944101108058e-08, 4e-08, 0))
[...]
hIsland = hIsland.sub(rect(3.581684193461129e-09, -4.809240134679575e-10).transl(-4.0151744537176144e-08, 4e-08, 0))
hIsland = hIsland.sub(rect(6.576320625634829e-09, -2.8339641881524606e-10).transl(3.1641346341066415e-08, 4e-08, 0))
hIsland = hIsland.add(rect(9.912993959345586e-09, 4.409212892440781e-09).transl(-4.1533877499266885e-08, 4e-08, 0))
hIsland = hIsland.add(rect(2.4162672195256926e-09, 2.2823579152139104e-09).transl(-5.233688564753751e-08, 4e-08, 0))
hIsland = hIsland.sub(rect(3.3233497782660726e-09, -2.5646054312030684e-09).transl(1.3296420296943947e-08, 4e-08, 0))
hIsland = hIsland.add(rect(8.037649722241919e-09, 2.3641328499925958e-09).transl(-1.1656692420779317e-08, 4e-08, 0))
hIsland = hIsland.sub(rect(5.498826530692914e-09, -2.0840580665636128e-09).transl(5.034162169067227e-08, 4e-08, 0))
hIsland = hIsland.sub(rect(2.112067001051367e-09, -4.4369733459332476e-10).transl(-2.9053325844452967e-08, 4e-08, 0))
hIsland = hIsland.add(rect(3.4871600505677158e-09, 4.342846957016971e-09).transl(6.849152062391233e-08, 4e-08, 0))
hIsland = hIsland.sub(rect(6.5121104415165054e-09, -7.476003022531105e-11).transl(-5.088401910597946e-08, 4e-08, 0))
hIsland = hIsland.add(rect(6.81842077451723e-09, 2.8459370890193334e-09).transl(-5.104768382626293e-08, 4e-08, 0))
hIsland = hIsland.sub(rect(2.363086969068954e-09, -3.555660809084669e-10).transl(4.7450529093148244e-08, 4e-08, 0))
hIsland = hIsland.add(rect(8.464169233091393e-09, 2.576060637582115e-09).transl(4.35948886684886e-08, 4e-08, 0))
hIsland = hIsland.sub(rect(2.8807164716775688e-09, -1.6940007927349463e-10).transl(-1.9615849950152422e-10, 4e-08, 0))
hIsland = hIsland.add(rect(4.8997886809809245e-09, 1.710738766189195e-09).transl(3.091017677060149e-08, 4e-08, 0))
hIsland = hIsland.sub(rect(3.4951197412612444e-09, -1.0801187466013275e-09).transl(3.1912605161114957e-08, 4e-08, 0))
hIsland = hIsland.sub(rect(4.127586571434995e-09, -6.935116833162829e-10).transl(7.583932238339707e-10, 4e-08, 0))
hIsland = hIsland.sub(rect(6.353259346704947e-09, -2.666887972552981e-09).transl(5.8245127464747854e-08, 4e-08, 0))
hIsland = hIsland.add(rect(2.458452637661114e-09, 4.6045065672269934e-10).transl(-1.584302371339568e-08, 4e-08, 0))
hIsland = hIsland.add(rect(4.395686173605307e-09, 9.48098032534811e-11).transl(-8.254984422085341e-08, 3.9402445970598356e-08, 0))
hIsland = hIsland.sub(rect(2.0840252459816447e-09, -1.079551063036915e-09).transl(3.9435272941910685e-08, 4e-08, 0))
hIsland = hIsland.sub(rect(3.924056246708847e-09, -3.8138165609712574e-10).transl(5.3631321794405135e-08, 4e-08, 0))
hIsland = hIsland.add(rect(3.7227118289174186e-09, 2.772429674514358e-09).transl(-3.953459598712063e-09, 4e-08, 0))
hIsland = hIsland.sub(rect(7.908223935417707e-09, -2.303519505249536e-09).transl(3.511739882833268e-08, 4e-08, 0))
hIsland = hIsland.add(rect(2.6002080548295956e-09, 1.996364464707118e-09).transl(-6.906777126587873e-08, 4e-08, 0))
hIsland = hIsland.add(rect(8.792140741168667e-09, 3.6627374755214445e-10).transl(2.066920570728367e-08, 4e-08, 0))
hIsland = hIsland.sub(rect(5.0660630019718885e-09, -1.2744026744132387e-10).transl(4.34379605500951e-08, 4e-08, 0))
hIsland = hIsland.add(rect(8.793486553861364e-09, 3.4014648422926564e-09).transl(3.64727533409965e-10, 4e-08, 0))
hIsland = hIsland.add(rect(7.693795584239938e-09, 4.061335129188531e-10).transl(-1.2276970557391548e-08, 4e-08, 0))
hIsland = hIsland.sub(rect(2.2548353723012184e-09, -3.0364457299019704e-09).transl(-6.299055805340962e-08, 4e-08, 0))
hIsland = hIsland.add(rect(4.691847686269195e-09, 3.4530096818902357e-10).transl(2.8029108864092615e-08, 4e-08, 0))
hIsland = hIsland.add(rect(3.11349244159298e-09, 3.1648165140438976e-09).transl(-2.5991669138756493e-08, 4e-08, 0))
hIsland = hIsland.sub(rect(9.399019108707866e-09, -1.8612863391388453e-09).transl(5.373063188256188e-08, 4e-08, 0))
hIsland = hIsland.add(rect(3.0921980031943427e-09, 7.953687415789634e-10).transl(4.811472314654475e-08, 4e-08, 0))
hIsland = hIsland.add(rect(6.433561243114622e-09, 3.1011649227682104e-09).transl(7.287979002320312e-08, 4e-08, 0))
hIsland = hIsland.add(rect(8.805450335119422e-09, 1.959793890133934e-09).transl(-2.873878980285542e-08, 4e-08, 0))
hIsland = hIsland.add(rect(8.601305589644202e-09, 2.1241061132537673e-09).transl(1.7388363641070484e-08, 4e-08, 0))
hIsland = hIsland.add(rect(2.8796470947821534e-09, 2.0099745180226575e-09).transl(2.5048649948480984e-08, 4e-08, 0))
hIsland = hIsland.add(rect(9.331713567184796e-09, 1.0756790859720076e-09).transl(-7.043431219629525e-08, 4e-08, 0))
hIsland = hIsland.add(rect(9.016829105816169e-09, 4.0323109651851276e-10).transl(7.945646273114852e-08, 4e-08, 0))
hIsland = hIsland.sub(rect(6.236983459729695e-09, -2.903498261694767e-09).transl(1.6199309179555203e-08, 4e-08, 0))
hIsland = hIsland.sub(rect(7.80296095874347e-09, -7.033792135578695e-10).transl(-7.286266020269991e-08, 4e-08, 0))
hIsland = hIsland.sub(rect(5.172390920346439e-09, -1.0629718297161031e-09).transl(-6.496500392337162e-08, 4e-08, 0))
hIsland = hIsland.sub(rect(2.1488112154646777e-09, -1.3579723480849873e-09).transl(4.276010252212103e-08, 4e-08, 0))
hIsland = hIsland.add(rect(7.3119824474344586e-09, 1.1807554955465946e-09).transl(-7.669664497416909e-10, 4e-08, 0))
hIsland = hIsland.add(rect(8.798397464912054e-09, 1.2235822344146497e-09).transl(-8.491018050254947e-09, 4e-08, 0))
hIsland = hIsland.sub(rect(2.10606096489627e-09, -2.151291216110378e-09).transl(3.5379787623552686e-08, 4e-08, 0))
hIsland = hIsland.sub(rect(3.8528083272451365e-09, -1.7223901604168481e-09).transl(4.441603164473747e-08, 4e-08, 0))
hIsland = hIsland.add(rect(9.65520456687204e-09, 2.1405031616007763e-09).transl(5.0610257761694385e-08, 4e-08, 0))
hIsland = hIsland.sub(rect(4.179333782475657e-09, -4.687036281271494e-10).transl(-3.053163849411931e-08, 4e-08, 0))
hIsland = hIsland.add(rect(8.862747946033953e-09, 5.165658746349978e-10).transl(-4.1712961060302726e-08, 4e-08, 0))
hIsland = hIsland.add(rect(2.8721392262516625e-09, 3.197840937619139e-10).transl(8.349880953464004e-08, 3.842734389348282e-08, 0))
hIsland = hIsland.add(rect(6.250078118068106e-09, 1.656858901884516e-09).transl(5.077336349710828e-08, 4e-08, 0))
hIsland = hIsland.sub(rect(6.708183019335364e-09, -5.583588212608979e-09).transl(-8.171490297288546e-08, 3.987360616906402e-08, 0))
hIsland = hIsland.sub(rect(7.25917597533571e-09, -6.58941524335303e-10).transl(-8.704421999391088e-08, 2.9637282048359083e-08, 0))
hIsland = hIsland.add(rect(6.968639096267971e-09, 1.8144429771017517e-09).transl(5.0883232777434646e-08, 4e-08, 0))
hIsland = hIsland.add(rect(8.674967274819154e-09, 4.559733195967921e-10).transl(1.6232421202174193e-09, 4e-08, 0))
hIsland = hIsland.add(rect(4.090686132095008e-09, 9.254502816094184e-10).transl(-8.357359583067679e-08, 3.832972079604388e-08, 0))
hIsland = hIsland.add(rect(5.87758284181704e-09, 5.300750956236773e-11).transl(4.7361486382901415e-08, 4e-08, 0))
hIsland = hIsland.sub(rect(5.0671532448711915e-09, -6.455913742076382e-10).transl(-3.36419795033473e-08, 4e-08, 0))
hIsland = hIsland.add(rect(4.734471417160361e-09, 6.321842727239311e-11).transl(7.620856759258656e-08, 4e-08, 0))
hIsland = hIsland.add(rect(9.3804258648009e-09, 2.8659611658563114e-09).transl(-3.1806583527347583e-09, 4e-08, 0))
hIsland = hIsland.sub(rect(6.622637917239207e-09, -1.1176511098438677e-09).transl(2.6062280332970817e-08, 4e-08, 0))
hIsland = hIsland.add(rect(7.650365902755967e-09, 1.5902958183009933e-09).transl(-8.434890786057871e-09, 4e-08, 0))
hIsland = hIsland.sub(rect(7.696307167799034e-09, -2.9286678014123978e-09).transl(-4.16954133186003e-08, 4e-08, 0))
hIsland = hIsland.add(rect(4.427577807981826e-09, 9.904057222416862e-10).transl(-8.245557562465064e-08, 3.947339772453677e-08, 0))
hIsland = hIsland.sub(rect(4.493657332239392e-09, -4.818319852743221e-09).transl(-4.742039533582475e-08, 4e-08, 0))
hIsland = hIsland.add(rect(5.810522292687172e-09, 6.058556960067958e-10).transl(-6.893815050120662e-08, 4e-08, 0))
hIsland = hIsland.add(rect(2.888445681301513e-09, 1.2925613013827502e-09).transl(-6.50349013306711e-08, 4e-08, 0))
hIsland = hIsland.add(rect(4.687552091580395e-09, 1.2710579000611813e-09).transl(7.577903361846851e-08, 4e-08, 0))
hIsland = hIsland.sub(rect(4.481537994986751e-09, -3.65260547798708e-09).transl(4.2100354253592427e-08, 4e-08, 0))
hIsland = hIsland.sub(rect(9.829361697396922e-09, -2.508966649085212e-09).transl(-6.954817406197e-08, 4e-08, 0))
hIsland = hIsland.add(rect(5.464289427715719e-09, 6.785408052065483e-11).transl(-6.680043115578759e-08, 4e-08, 0))
hIsland = hIsland.add(rect(8.05263443900392e-09, 5.6859303573173304e-09).transl(5.854499872722164e-09, 4e-08, 0))
hIsland = hIsland.add(rect(6.16399097602351e-09, 2.123047331518538e-09).transl(7.655835273518097e-08, 4e-08, 0))
hIsland = hIsland.add(rect(5.047323066117544e-09, 9.50776964812761e-10).transl(-1.5140778575715223e-08, 4e-08, 0))
hIsland = hIsland.add(rect(3.772146560805429e-09, 8.904774846558295e-10).transl(-1.8641087302771437e-08, 4e-08, 0))
hIsland = hIsland.sub(rect(5.5570887523157756e-09, -1.1898898262350002e-09).transl(-5.467792884704503e-08, 4e-08, 0))
hIsland = hIsland.add(rect(8.908400809826049e-09, 1.0231015054215328e-09).transl(6.621242336170298e-10, 4e-08, 0))
hIsland = hIsland.add(rect(2.426326619526212e-09, 4.219482981083256e-09).transl(2.7372016271041722e-09, 4e-08, 0))
hIsland = hIsland.add(rect(2.781761862889548e-09, 2.9099671709705778e-09).transl(3.632689576879267e-08, 4e-08, 0))
hIsland = hIsland.add(rect(7.062553923337752e-09, 3.043202860035956e-09).transl(3.077372388065029e-08, 4e-08, 0))
hIsland = hIsland.add(rect(8.880746088072524e-09, 4.823992034859774e-09).transl(9.28601537737574e-09, 4e-08, 0))
hIsland = hIsland.add(rect(9.962427824249325e-09, 5.813473973686725e-10).transl(-2.2349462907176408e-08, 4e-08, 0))
hIsland = hIsland.add(rect(2.2898110100102543e-09, 1.3019302781584198e-09).transl(-1.6034249594895856e-08, 4e-08, 0))
hIsland = hIsland.add(rect(8.749780979263588e-09, 5.312846791792088e-10).transl(7.341133611187317e-08, 4e-08, 0))
hIsland = hIsland.add(rect(5.226012636756481e-09, 2.9562124551996826e-09).transl(6.206902059907521e-08, 4e-08, 0))
hIsland = hIsland.add(rect(7.506777780701996e-09, 1.5896720438409542e-09).transl(1.7376432369744137e-08, 4e-08, 0))
hIsland = hIsland.sub(rect(2.7126355659153145e-09, -1.5236466422506703e-09).transl(-3.6621880202302236e-08, 4e-08, 0))
hIsland = hIsland.add(rect(4.189945216824857e-09, 8.123256098747937e-11).transl(-4.241294049427086e-08, 4e-08, 0))
hIsland = hIsland.add(rect(7.402099325825208e-09, 3.6428547139881514e-09).transl(-2.5607256544627866e-09, 4e-08, 0))
hIsland = hIsland.add(rect(4.900533996198895e-09, 1.3564511252528281e-09).transl(-7.201643232487743e-08, 4e-08, 0))
hIsland = hIsland.sub(rect(6.201999670743934e-09, -2.4064747953566553e-09).transl(8.419809827151856e-08, 3.738942015688859e-08, 0))
hIsland = hIsland.add(rect(7.498522948808275e-09, 1.9398018220997993e-09).transl(-5.92347731784244e-08, 4e-08, 0))
hIsland = hIsland.sub(rect(9.947080625854346e-09, -1.8466923149228118e-10).transl(-2.1569225642022223e-08, 4e-08, 0))
hIsland = hIsland.sub(rect(8.15770720878191e-09, -2.8531965646679978e-09).transl(7.458566874543864e-09, 4e-08, 0))
hIsland = hIsland.sub(rect(5.3516520691849576e-09, -7.450276320818891e-10).transl(1.7478961780673473e-08, 4e-08, 0))
hIsland = hIsland.sub(rect(4.250869232056199e-09, -8.463010806748513e-10).transl(4.103656639923695e-09, 4e-08, 0))
hIsland = hIsland.add(rect(4.533649352268698e-09, 6.002981238328196e-10).transl(-4.3438780508540025e-08, 4e-08, 0))
hIsland = hIsland.add(rect(2.6181024100760056e-09, 6.34593540559034e-10).transl(4.606348640312963e-08, 4e-08, 0))
hIsland = hIsland.add(rect(9.707201043610376e-09, 9.800103998372224e-10).transl(-7.781783243535761e-08, 4e-08, 0))
hIsland = hIsland.add(rect(2.0342800961715374e-09, 3.053392327523297e-09).transl(3.0935470130254863e-08, 4e-08, 0))
hIsland = hIsland.sub(rect(5.402673840156491e-09, -2.148256523525447e-09).transl(-4.9843371659434665e-08, 4e-08, 0))
hIsland = hIsland.add(rect(5.959511813785693e-09, 2.0117672533997813e-09).transl(-3.3542558654696265e-08, 4e-08, 0))
hIsland = hIsland.sub(rect(6.736217903276476e-09, -3.909668409584015e-09).transl(-2.1980379386693954e-08, 4e-08, 0))
hIsland = hIsland.sub(rect(8.86089903287175e-09, -8.055767539386989e-10).transl(-5.763295949213477e-08, 4e-08, 0))
hIsland = hIsland.sub(rect(6.148426224780003e-09, -7.324806111168664e-10).transl(-2.1742593934895044e-08, 4e-08, 0))
hIsland = hIsland.sub(rect(7.306559075111177e-09, -1.5253611692838608e-09).transl(-6.499282511339322e-08, 4e-08, 0))
hIsland = hIsland.add(rect(4.40414791611604e-09, 1.3720669412926765e-09).transl(-2.4014554616789477e-08, 4e-08, 0))
hIsland = hIsland.add(rect(7.310753809968099e-09, 1.6750929309336424e-09).transl(4.7058869673111354e-08, 4e-08, 0))
hIsland = hIsland.sub(rect(7.612275007765486e-09, -2.2513107643469336e-09).transl(5.7484212632540265e-09, 4e-08, 0))
hIsland = hIsland.add(rect(5.612553469487157e-09, 1.5512197706996657e-09).transl(8.355449052703064e-09, 4e-08, 0))
hIsland = hIsland.sub(rect(5.819536139179522e-09, -4.531131224493373e-09).transl(-2.193421650589586e-09, 4e-08, 0))
hIsland = hIsland.add(rect(9.390804460141063e-09, 5.415170740951892e-10).transl(-2.456524548528758e-08, 4e-08, 0))
hIsland = hIsland.sub(rect(9.712014544095375e-09, -1.4415586731666525e-09).transl(5.72924783794999e-08, 4e-08, 0))
hIsland = hIsland.sub(rect(3.0349308013455733e-09, -4.932256320503268e-10).transl(-2.1966320125518817e-08, 4e-08, 0))
hIsland = hIsland.sub(rect(8.00720998737189e-09, -3.5406117019715275e-09).transl(8.063849418373921e-08, 4e-08, 0))
hIsland = hIsland.sub(rect(8.367639806130964e-09, -1.278224309076971e-09).transl(1.4300084294199056e-08, 4e-08, 0))
hIsland = hIsland.add(rect(8.976526308430391e-09, 3.3168678377985004e-10).transl(4.8759310148863056e-08, 4e-08, 0))
hIsland = hIsland.sub(rect(3.158268104679004e-09, -9.237047747292079e-10).transl(-3.4659262201452894e-08, 4e-08, 0))
hIsland = hIsland.add(rect(8.219048266233603e-09, 7.366923326533641e-10).transl(3.061292094099943e-08, 4e-08, 0))
hIsland = hIsland.sub(rect(7.699686945659879e-09, -1.3564126713218875e-09).transl(-9.467235188987377e-09, 4e-08, 0))
hIsland = hIsland.add(rect(6.242272272374904e-09, 2.5330964452802067e-09).transl(6.67306679545466e-09, 4e-08, 0))
hIsland = hIsland.sub(rect(5.251684806268574e-09, -2.512076793086159e-09).transl(-4.608930133521632e-08, 4e-08, 0))
hIsland = hIsland.add(rect(2.835116825499433e-09, 3.764205164773134e-09).transl(1.8810303414470064e-08, 4e-08, 0))
hIsland = hIsland.add(rect(5.625120396120368e-09, 4.5256616079549063e-10).transl(-1.5683794701900658e-08, 4e-08, 0))
hIsland = hIsland.add(rect(8.84692330141331e-09, 6.594671872072125e-10).transl(1.0764045901211948e-08, 4e-08, 0))
hIsland = hIsland.sub(rect(9.433765587383908e-09, -2.964500917147469e-09).transl(8.538626714615772e-08, 3.492797825014664e-08, 0))
hIsland = hIsland.sub(rect(3.6496572314816338e-09, -3.0512873746006592e-09).transl(-3.328337171624183e-08, 4e-08, 0))
hIsland = hIsland.sub(rect(7.539557706802353e-09, -1.1048872204546556e-09).transl(4.346623667926887e-08, 4e-08, 0))
hIsland = hIsland.sub(rect(3.3806685801023503e-09, -2.703254590429832e-09).transl(1.588861138307328e-08, 4e-08, 0))
hIsland = hIsland.sub(rect(5.172007612283441e-09, -1.0025583731967975e-09).transl(8.774765292062252e-08, 2.6469336580627773e-08, 0))
hIsland = hIsland.add(rect(4.552906339599004e-09, 4.568123410981954e-10).transl(7.325572685747908e-08, 4e-08, 0))
hIsland = hIsland.add(rect(2.9514287024453812e-09, 1.2629460025869081e-09).transl(-1.053540474995563e-08, 4e-08, 0))
hIsland = hIsland.sub(rect(6.022449452282914e-09, -1.1317028850470619e-09).transl(-5.357271429303175e-08, 4e-08, 0))
hIsland = hIsland.sub(rect(7.26273873656537e-09, -5.1139632459178354e-11).transl(1.9204916626280787e-08, 4e-08, 0))
hIsland = hIsland.add(rect(8.964384710812007e-09, 5.853003055529732e-10).transl(-1.2186590479809102e-08, 4e-08, 0))
hIsland = hIsland.sub(rect(6.651395351651964e-09, -5.332006650469574e-10).transl(7.354632463274195e-08, 4e-08, 0))
hIsland = hIsland.add(rect(3.0329918313459453e-09, 1.5722459119921758e-09).transl(3.051893799057355e-08, 4e-08, 0))
hIsland = hIsland.add(rect(3.5873592658906504e-09, 1.1460308762596791e-09).transl(-2.050290185219722e-08, 4e-08, 0))
hIsland = hIsland.add(rect(8.901512975467348e-09, 3.6318189798976372e-09).transl(-5.8495996214269625e-08, 4e-08, 0))
hIsland = hIsland.sub(rect(2.182094481624864e-09, -6.271315647683994e-10).transl(5.3145541471090126e-08, 4e-08, 0))
hIsland = hIsland.add(rect(8.755240683979682e-09, 1.498008648093669e-09).transl(6.021087477993701e-08, 4e-08, 0))
hIsland = hIsland.sub(rect(4.731179654532172e-09, -4.399001268550723e-09).transl(7.725155864824828e-08, 4e-08, 0))
hIsland = hIsland.sub(rect(4.8429949686210135e-09, -1.476017092429012e-09).transl(-6.215188427552745e-08, 4e-08, 0))
hIsland = hIsland.sub(rect(4.808363607462211e-09, -2.36043972039457e-09).transl(-7.435768379854327e-08, 4e-08, 0))
hIsland = hIsland.sub(rect(5.4490220047942645e-09, -1.5117037857241555e-11).transl(4.7964554202193266e-08, 4e-08, 0))
hIsland = hIsland.add(rect(8.659962595055866e-09, 1.5712959407982488e-09).transl(-7.881218563145429e-08, 4e-08, 0))
hIsland = hIsland.sub(rect(9.373330310826848e-09, -7.742469787455972e-10).transl(-2.7284671546500092e-08, 4e-08, 0))
hIsland = hIsland.add(rect(3.30499129563158e-09, 4.433609922947235e-09).transl(-6.735694529783797e-08, 4e-08, 0))
hIsland = hIsland.sub(rect(7.651267859790202e-09, -1.5898398162816687e-09).transl(-7.425243625134889e-08, 4e-08, 0))
hIsland = hIsland.sub(rect(6.340705290685506e-09, -2.0889067580536684e-09).transl(3.2831012085983666e-08, 4e-08, 0))
hIsland = hIsland.sub(rect(9.174672880067068e-09, -3.190886785787804e-09).transl(5.120486788510907e-08, 4e-08, 0))
hIsland = hIsland.sub(rect(3.206323664676945e-09, -2.890869848200721e-09).transl(8.12363878787379e-08, 3.9986200279049554e-08, 0))
hIsland = hIsland.add(rect(4.8161319234183275e-09, 3.4297595693603e-10).transl(-1.2171595026133969e-08, 4e-08, 0))
hIsland = hIsland.sub(rect(2.2684432790355544e-09, -2.2798500892885642e-09).transl(4.662272186665097e-08, 4e-08, 0))
hIsland = hIsland.add(rect(9.28708189288298e-09, 1.0361587736815398e-09).transl(-8.324864287332208e-08, 3.873139033266674e-08, 0))
hIsland = hIsland.add(rect(3.3103466298282892e-09, 2.644694767389579e-09).transl(3.219033273858548e-09, 4e-08, 0))
hIsland = hIsland.sub(rect(8.764695680039219e-09, -9.671894284836152e-10).transl(-6.569032522998322e-08, 4e-08, 0))
hIsland = hIsland.sub(rect(5.101660665497544e-09, -2.5974235962460755e-09).transl(-3.099512259118888e-08, 4e-08, 0))
hIsland = hIsland.sub(rect(4.865610592094295e-09, -3.0737672565092346e-09).transl(-1.6455060606818113e-08, 4e-08, 0))
hIsland = hIsland.sub(rect(9.513779204419898e-09, -5.872927480173933e-09).transl(-3.096415495053886e-08, 4e-08, 0))
hIsland = hIsland.add(rect(3.400557278806134e-09, 8.345253190737578e-10).transl(-8.56911212157056e-08, 3.413651077211836e-08, 0))
vIsland = hIsland.rotz(pi / 2)
vIslands = vIslands.add(vIsland.transl(0, -a/2, 0))
DefRegion(1, hIslands)
DefRegion(2, vIslands)
TableAdd(m_full.Region(1))
TableAdd(m_full.Region(2))
setgeom(hIslands.add(vIslands))
save(geom)
r2o2 := sqrt(2) / 2
m = RandomMagSeed(4)
B_ext = vector(Bmax*r2o2, Bmax*r2o2, 0)
relax()
minimize()
for B := Bmax; B >= -Bmax; B -= Bstep {
	B_ext = vector(B*r2o2, B*r2o2, 0)
	minimize()
	tablesave()
}
//********************************************************************//
//Please cite the following references, relevant for your simulation. //
//See bibtex file in output folder for justification.                 //
//********************************************************************//
//   * Vansteenkiste et al., AIP Adv. 4, 107133 (2014).
//   * Exl et al., J. Appl. Phys. 115, 17D118 (2014).
