# t (s)	mx ()	my ()	mz ()	B_extx (T)	B_exty (T)	B_extz (T)	m_fullx (A/m)	m_fully (A/m)	m_fullz (A/m)	m_full.region1x (A/m)	m_full.region1y (A/m)	m_full.region1z (A/m)	m_full.region2x (A/m)	m_full.region2y (A/m)	m_full.region2z (A/m)
0	0.6455594	0.6455574	-2.9722708e-10	0.070710756	0.070710756	0	140477.31	140476.86	-6.920415e-05	627787.8	275993.66	-0.000222618	275995.44	627786.6	-0.00023374888
0	0.6454696	0.64546895	-1.9107455e-10	0.070569135	0.07056913	0	140457.75	140457.62	-5.1903113e-05	627853.1	275803.7	-0.00017809439	275804.2	627852.9	-0.0001447017
0	0.64537567	0.6453752	-4.4584061e-10	0.07042789	0.07042789	0	140437.31	140437.23	-9.34256e-05	627923.6	275601.97	-0.0002671416	275602.28	627923.44	-0.00037845058
0	0.64528203	0.6452816	0	0.07028644	0.07028644	0	140416.94	140416.84	-3.4602076e-06	627993.9	275400.7	-2.2261798e-05	275401.03	627993.6	-5.56545e-05
0	0.6451882	0.6451878	-2.1230506e-10	0.07014497	0.07014497	0	140396.53	140396.44	-5.1903113e-05	628064.25	275198.94	-0.0001335708	275199.28	628064.06	-0.00019200801
0	0.64509434	0.6450939	-6.369152e-11	0.07000352	0.07000352	0	140376.08	140376	-2.768166e-05	628134.56	274997.12	4.4523596e-05	274997.5	628134.3	-0.00013078807
0	0.64499986	0.6449995	-2.759966e-10	0.06986227	0.06986227	0	140355.55	140355.47	-6.5743945e-05	628205.06	274794.47	-0.00017809439	274794.8	628204.8	-0.00023374888
0	0.6449056	0.64490515	-3.609186e-10	0.069720656	0.069720656	0	140335.03	140334.94	-7.612457e-05	628275.3	274592.16	-0.00015583259	274592.5	628275.1	-0.0003450579
0	0.64481133	0.644811	8.492202e-11	0.06957922	0.06957922	0	140314.53	140314.45	1.7301038e-05	628345.5	274390.1	6.67854e-05	274390.44	628345.25	3.33927e-05
0	0.6447159	0.64471555	4.246101e-11	0.06943796	0.06943796	0	140293.75	140293.66	6.920415e-06	628415.9	274186.06	2.2261798e-05	274186.4	628415.56	5.56545e-05
0	0.6446211	0.6446207	-3.3968808e-10	0.06929647	0.06929647	0	140273.12	140273.05	-6.5743945e-05	628486.5	273982.7	-0.000222618	273983.03	628486.3	-0.00025601068
0	0.64452595	0.6445256	-3.3968808e-10	0.069155045	0.069155045	0	140252.42	140252.31	-6.228374e-05	628557.25	273778.78	-0.000222618	273779.12	628557.06	-0.00020592163
0	0.6444305	0.6444301	-6.369152e-11	0.0690136	0.0690136	0	140231.64	140231.55	-1.7301038e-05	628628	273574.38	-2.2261798e-05	273574.72	628627.7	-0.000105743544
0	0.6443346	0.64433426	-1.4861354e-10	0.06887216	0.06887216	0	140210.8	140210.7	-3.8062284e-05	628698.3	273369.94	-0.0001335708	273370.25	628698.06	-8.348175e-05
0	0.6442395	0.64423907	-2.3353555e-10	0.068730734	0.068730734	0	140190.1	140190	-4.8442907e-05	628768.44	273166.44	-0.00020035618	273166.8	628768.25	-0.00014748442
0	0.64414304	0.64414275	-2.1230506e-10	0.068589285	0.068589285	0	140169.11	140169.03	-4.1522493e-05	628839.5	272960.47	-8.904719e-05	272960.8	628839.3	-0.00012800534
0	0.6440473	0.6440469	-1.0615253e-10	0.06844799	0.06844799	0	140148.25	140148.19	-2.4221454e-05	628910	272755.9	6.67854e-05	272756.25	628909.75	-0.00018922529
0	0.6439511	0.64395064	-1.0615253e-10	0.06830654	0.06830654	0	140127.33	140127.22	-2.4221454e-05	628980.7	272550.47	-0.00015583259	272550.8	628980.44	-2.5044523e-05
0	0.643854	0.64385355	-2.3353555e-10	0.06816512	0.06816512	0	140106.19	140106.11	-5.1903113e-05	629051.6	272343.6	-0.0001335708	272343.94	629051.44	-0.00020592163
0	0.6437578	0.6437574	4.246101e-11	0.068023674	0.06802368	0	140085.27	140085.19	1.384083e-05	629122.25	272138.38	2.2261798e-05	272138.72	629122	6.1219944e-05
0	0.64366037	0.64366	-1.4861354e-10	0.06788223	0.06788224	0	140064.05	140063.97	-3.4602075e-05	629193.44	271930.78	-4.4523596e-05	271931.12	629193.2	-0.00015861532
0	0.6435633	0.6435629	1.6984404e-10	0.06774082	0.06774082	0	140042.95	140042.86	3.8062284e-05	629263.94	271724.3	7.7916295e-05	271724.7	629263.7	0.00016139804
0	0.6434663	0.6434658	-1.4861354e-10	0.06759933	0.06759933	0	140021.83	140021.73	-4.1522493e-05	629334.8	271517.62	-0.00017809439	271517.97	629334.56	-8.904719e-05
0	0.6433686	0.64336824	-8.492202e-11	0.06745807	0.06745807	0	140000.56	140000.48	-2.0761247e-05	629405.9	271309.8	0	271310.2	629405.7	-0.000111309
0	0.64327085	0.64327043	-2.5476607e-10	0.067316614	0.067316614	0	139979.3	139979.2	-6.228374e-05	629476.9	271101.94	-0.0001335708	271102.3	629476.6	-0.00021148709
0	0.64317286	0.64317244	-2.3353555e-10	0.06717501	0.06717501	0	139957.97	139957.88	-4.1522493e-05	629547.75	270893.97	-0.00015583259	270894.3	629547.44	-0.00023931434
0	0.64307475	0.64307433	-2.5476607e-10	0.06703377	0.06703377	0	139936.66	139936.53	-4.49827e-05	629618.4	270686	-0.0001335708	270686.38	629618.1	-0.00023374888
0	0.64297587	0.64297545	-1.2738303e-10	0.0668923	0.0668923	0	139915.11	139915	-3.4602075e-05	629689.3	270476.53	-0.000111309	270476.88	629689.06	-0.000105743544
0	0.6428779	0.6428775	-3.3968808e-10	0.066750854	0.066750854	0	139893.78	139893.7	-6.5743945e-05	629760.56	270268.12	-0.00020035618	270268.44	629760.4	-0.00028662066
0	0.64277905	0.64277864	-8.492202e-11	0.06660941	0.066609405	0	139872.3	139872.2	-1.384083e-05	629831.4	270058.97	-2.2261798e-05	270059.3	629831.2	-0.00010017809
0	0.64268005	0.6426796	-3.609186e-10	0.06646814	0.06646814	0	139850.73	139850.66	-6.920415e-05	629902.44	269849.25	-0.0002782725	269849.6	629902.2	-0.00020035618
0	0.6425814	0.6425809	-6.369152e-11	0.06632654	0.06632654	0	139829.28	139829.19	-1.384083e-05	629973.4	269640.3	-4.4523596e-05	269640.72	629973.1	-3.33927e-05
0	0.64248157	0.6424811	-1.0615253e-10	0.066185094	0.066185094	0	139807.53	139807.44	-2.768166e-05	630044.56	269429.22	-8.904719e-05	269429.6	630044.3	-0.000111309
0	0.6423826	0.64238214	-8.492202e-11	0.06604383	0.06604383	0	139786.02	139785.9	-2.0761247e-05	630115.5	269219.72	-0.00012243989	269220.06	630115.4	-2.2261798e-05
0	0.64228237	0.64228195	-2.5476607e-10	0.06590232	0.06590232	0	139764.2	139764.11	-4.8442907e-05	630186.75	269008.2	-0.000111309	269008.56	630186.56	-0.00021148709
0	0.64218247	0.64218193	-1.6984404e-10	0.06576094	0.06576094	0	139742.45	139742.38	-2.768166e-05	630257.9	268797.2	-0.0001335708	268797.6	630257.56	-0.0001335708
0	0.64208263	0.6420822	-1.9107455e-10	0.06561947	0.06561947	0	139720.73	139720.62	-3.114187e-05	630329.2	268586.1	-0.0001335708	268586.44	630328.94	-9.4612646e-05
0	0.64198166	0.6419812	-2.3353555e-10	0.06547822	0.06547822	0	139698.75	139698.67	-5.1903113e-05	630400.5	268373.47	-0.00017809439	268373.8	630400.2	-0.00021148709
0	0.64188117	0.64188075	-1.0615253e-10	0.06533663	0.06533663	0	139676.92	139676.81	-2.0761247e-05	630472.06	268161.28	-0.00017809439	268161.62	630471.9	1.669635e-05
0	0.6417806	0.6417802	-1.4861354e-10	0.06519517	0.06519517	0	139655.03	139654.94	-3.4602075e-05	630543.25	267949.22	-0.000111309	267949.56	630543.06	-8.348175e-05
0	0.64167994	0.6416794	0	0.0650539	0.06505391	0	139633.1	139633	-3.4602076e-06	630614.4	267737.12	0	267737.44	630614.1	-1.1130899e-05
0	0.6415788	0.64157826	4.246101e-11	0.06491239	0.0649124	0	139611.1	139611	1.384083e-05	630685.7	267524.25	2.2261798e-05	267524.62	630685.5	4.4523596e-05
0	0.6414771	0.64147663	-1.0615253e-10	0.06477102	0.06477102	0	139588.97	139588.88	-2.768166e-05	630756.75	267310.8	-6.67854e-05	267311.2	630756.44	-6.67854e-05
0	0.64137536	0.6413749	-2.5476607e-10	0.06462957	0.06462957	0	139566.83	139566.73	-4.49827e-05	630828.56	267096.53	-0.00017809439	267096.9	630828.4	-0.00017809439
0	0.64127374	0.64127326	-1.4861354e-10	0.06448808	0.06448808	0	139544.7	139544.62	-3.114187e-05	630900.06	266882.8	-2.2261798e-05	266883.16	630899.9	-0.00017252895
0	0.6411717	0.6411712	-2.1230506e-10	0.064346716	0.064346716	0	139522.52	139522.4	-5.536332e-05	630971.3	266668.62	-0.000111309	266669	630971.06	-0.00026157615
0	0.6410694	0.641069	-2.1230505e-11	0.064205244	0.064205244	0	139500.27	139500.16	-3.4602076e-06	631043	266453.78	-6.67854e-05	266454.16	631042.75	3.6175425e-05
0	0.6409671	0.6409666	-6.369152e-11	0.064063944	0.064063944	0	139477.98	139477.88	-3.4602076e-06	631114.44	266239.03	2.2261798e-05	266239.4	631114.2	-2.2261798e-05
0	0.64086425	0.6408637	-2.1230506e-10	0.06392247	0.06392247	0	139455.6	139455.5	-3.4602075e-05	631186.06	266023.4	-0.00018922529	266023.8	631185.9	-0.000111309
0	0.64076126	0.64076084	-2.3353555e-10	0.063781105	0.063781105	0	139433.2	139433.11	-5.1903113e-05	631257.56	265807.84	-0.0001335708	265808.25	631257.3	-0.00019200801
0	0.6406582	0.6406577	-1.9107455e-10	0.06363964	0.06363964	0	139410.78	139410.66	-4.49827e-05	631329.3	265591.78	-8.904719e-05	265592.16	631329.06	-0.00018087712
0	0.6405549	0.6405545	-2.1230505e-11	0.063498154	0.063498154	0	139388.31	139388.22	-3.4602076e-06	631400.8	265375.8	-3.33927e-05	265376.16	631400.5	5.5654496e-06
0	0.6404515	0.6404511	-8.492202e-11	0.063356794	0.0633568	0	139365.78	139365.69	-2.4221454e-05	631471.9	265159.78	-4.4523596e-05	265160.2	631471.7	-0.000114091716
0	0.6403471	0.64034665	-1.4861354e-10	0.06321528	0.06321528	0	139343.08	139342.97	-3.114187e-05	631543.8	264941.72	-2.2261798e-05	264942.1	631543.56	-0.00016418076
0	0.6402437	0.64024335	-2.9722708e-10	0.063074015	0.063074015	0	139320.58	139320.48	-6.920415e-05	631615.5	264725.28	-0.00024487977	264725.66	631615.25	-0.00025601068
0	0.6401392	0.64013886	-2.759966e-10	0.06293254	0.06293254	0	139297.84	139297.75	-6.5743945e-05	631686.94	264507.7	-0.0002671416	264508.03	631686.56	-0.00012243989
0	0.6400349	0.64003456	-3.184576e-10	0.062790975	0.062790975	0	139275.14	139275.06	-6.228374e-05	631758.9	264289.72	-0.00020035618	264290.12	631758.6	-0.00023931434
0	0.6399305	0.63993007	-2.3353555e-10	0.06264971	0.06264971	0	139252.42	139252.33	-5.1903113e-05	631831	264071.34	-0.000111309	264071.72	631830.75	-0.00022818343
0	0.63982576	0.63982534	-2.5476607e-10	0.06250823	0.06250823	0	139229.61	139229.53	-5.1903113e-05	631902.44	263853.22	-0.00024487977	263853.62	631902.2	-8.348175e-05
0	0.63972104	0.63972056	-2.759966e-10	0.062366836	0.062366836	0	139206.83	139206.73	-6.920415e-05	631973.75	263635.22	-0.000222618	263635.6	631973.5	-0.00021705254
0	0.6396146	0.63961416	-1.2738303e-10	0.062225346	0.062225346	0	139183.69	139183.58	-3.114187e-05	632046.3	263413.75	-6.67854e-05	263414.12	632046.06	-0.00013913625
0	0.6395105	0.63951004	-1.2738303e-10	0.062084086	0.062084086	0	139161.03	139160.92	-3.8062284e-05	632117.8	263196.56	-8.904719e-05	263196.94	632117.5	-3.8958147e-05
0	0.6394039	0.63940346	-2.5476607e-10	0.061942536	0.061942536	0	139137.8	139137.72	-5.1903113e-05	632189.9	262975.06	-0.0001335708	262975.5	632189.6	-0.0001669635
0	0.63929874	0.6392983	-1.6984404e-10	0.061801046	0.061801046	0	139114.94	139114.86	-3.114187e-05	632261.75	262756.03	-8.904719e-05	262756.44	632261.5	-9.4612646e-05
0	0.6391926	0.63919204	-3.609186e-10	0.06165979	0.06165979	0	139091.83	139091.73	-7.612457e-05	632333.75	262535.4	-0.0002894034	262535.8	632333.5	-0.000222618
0	0.6390866	0.6390861	4.246101e-11	0.061518256	0.061518256	0	139068.78	139068.69	1.0380623e-05	632405.4	262315.56	6.67854e-05	262315.97	632405	1.1130899e-05
0	0.63897884	0.63897836	-1.4861354e-10	0.061376907	0.061376907	0	139045.36	139045.23	-4.49827e-05	632477.44	262092.62	-0.0001335708	262092.98	632477.1	-0.00012243989
0	0.63887304	0.63887256	-2.759966e-10	0.061235435	0.061235435	0	139022.31	139022.19	-6.920415e-05	632549.44	261872.4	-0.0002671416	261872.77	632549.2	-0.00012243989
0	0.63876563	0.63876516	-1.2738303e-10	0.061093953	0.061093953	0	138998.94	138998.84	-3.114187e-05	632621.44	261650.1	-8.904719e-05	261650.48	632621.1	-6.956812e-05
0	0.63865894	0.63865846	-1.6984404e-10	0.06095263	0.06095263	0	138975.73	138975.64	-3.4602075e-05	632693.4	261428.86	-0.00015583259	261429.25	632693.06	-0.00010017809
0	0.6385511	0.63855064	-2.5476607e-10	0.060811136	0.060811136	0	138952.25	138952.14	-6.228374e-05	632765.56	261205.55	-0.00015583259	261205.92	632765.3	-0.000222618
0	0.6384436	0.6384431	-1.2738303e-10	0.060669806	0.060669806	0	138928.86	138928.77	-3.114187e-05	632837.56	260983.1	-0.000111309	260983.47	632837.3	-6.67854e-05
0	0.63833594	0.6383354	-3.821491e-10	0.060528323	0.060528323	0	138905.42	138905.34	-7.958477e-05	632909.4	260760.53	-0.00031166518	260760.89	632909.06	-0.00026157615
0	0.6382277	0.63822716	-2.9722708e-10	0.06038699	0.06038699	0	138881.88	138881.78	-6.228374e-05	632981.6	260536.73	-0.000222618	260537.12	632981.25	-0.00015026714
0	0.63811904	0.63811845	-1.0615253e-10	0.060245514	0.060245514	0	138858.23	138858.14	-2.0761247e-05	633053.4	260312.88	-8.904719e-05	260313.25	633053.06	-7.7916295e-05
0	0.63800997	0.6380095	-2.9722708e-10	0.060104024	0.060104024	0	138834.5	138834.39	-5.536332e-05	633125.8	260087.72	-0.00017809439	260088.14	633125.56	-0.00021148709
0	0.63790226	0.6379018	-2.5476607e-10	0.0599627	0.0599627	0	138811.05	138810.95	-4.8442907e-05	633197.94	259864.83	-0.00015583259	259865.27	633197.6	-0.00025601068
0	0.63779235	0.6377919	-4.246101e-11	0.05982116	0.05982116	0	138787.16	138787.05	-1.384083e-05	633270.06	259638.89	0	259639.3	633269.7	-5.0089046e-05
0	0.6376837	0.63768315	-2.5476607e-10	0.059679892	0.059679892	0	138763.5	138763.38	-4.49827e-05	633342.25	259414.44	-0.00015583259	259414.83	633341.94	-0.0001669635
0	0.6375739	0.6375735	-1.2738303e-10	0.059538387	0.059538387	0	138739.62	138739.52	-2.768166e-05	633414.6	259188.58	-0.000111309	259188.97	633414.3	-8.765583e-05
0	0.6374645	0.637464	-1.4861354e-10	0.059396863	0.059396863	0	138715.8	138715.7	-2.768166e-05	633486.6	258963.23	-8.904719e-05	258963.62	633486.4	-0.0001447017
0	0.63735443	0.637354	-2.1230506e-10	0.059255596	0.05925559	0	138691.84	138691.75	-4.1522493e-05	633559.1	258736.73	-0.00017809439	258737.12	633558.8	-7.235085e-05
0	0.6372446	0.63724416	-2.3353555e-10	0.059114084	0.059114084	0	138667.95	138667.84	-5.1903113e-05	633631.25	258510.78	-4.4523596e-05	258511.17	633630.94	-0.00023374888
0	0.63713384	0.63713336	-4.246101e-11	0.05897273	0.05897273	0	138643.84	138643.73	-6.920415e-06	633703.8	258283.17	-2.2261798e-05	258283.55	633703.5	-1.1130899e-05
0	0.63702327	0.6370228	-1.6984404e-10	0.05883124	0.05883124	0	138619.8	138619.69	-3.114187e-05	633776.2	258055.95	-0.00012243989	258056.36	633776	-9.4612646e-05
0	0.6369124	0.6369119	-4.246101e-11	0.058689952	0.05868996	0	138595.66	138595.56	0	633848.5	257828.4	-4.4523596e-05	257828.84	633848.25	1.669635e-05
0	0.63680154	0.636801	-2.759966e-10	0.058548428	0.058548428	0	138571.53	138571.44	-6.920415e-05	633920.94	257600.73	-0.00017809439	257601.17	633920.7	-0.00026435885
0	0.6366898	0.6366893	-1.4861354e-10	0.058406938	0.058406938	0	138547.22	138547.12	-2.768166e-05	633993.44	257371.88	-0.0001335708	257372.25	633993.2	-9.4612646e-05
0	0.6365787	0.6365782	-2.5476607e-10	0.05826566	0.05826566	0	138523.05	138522.94	-5.882353e-05	634065.75	257144.02	-0.0001335708	257144.4	634065.44	-0.0002142698
0	0.6364667	0.6364662	-2.5476607e-10	0.058124106	0.058124106	0	138498.67	138498.58	-5.882353e-05	634138.3	256914.72	-0.000111309	256915.12	634137.94	-0.00029496884
0	0.63635516	0.6363546	-2.1230506e-10	0.057982814	0.057982814	0	138474.4	138474.28	-5.536332e-05	634210.44	256686.3	-8.904719e-05	256686.73	634210.2	-0.00021148709
0	0.63624257	0.63624203	-1.6984404e-10	0.057841312	0.057841305	0	138449.9	138449.8	-3.8062284e-05	634283	256456.19	-0.000111309	256456.62	634282.6	-0.00012800534
0	0.6361301	0.6361296	-5.0953214e-10	0.057699807	0.057699807	0	138425.44	138425.31	-0.00010726644	634355.44	256226.34	-0.00031166518	256226.73	634355.1	-0.00037288512
0	0.6360172	0.63601667	-1.6984404e-10	0.057558525	0.057558525	0	138400.86	138400.73	-3.4602075e-05	634428.06	255995.58	0	255996.02	634427.8	-0.00020035618
0	0.63590443	0.63590395	-2.5476607e-10	0.05741701	0.05741701	0	138376.34	138376.22	-4.8442907e-05	634500.56	255765.27	-0.0001335708	255765.67	634500.4	-0.00018644256
0	0.6357918	0.63579124	-2.3353555e-10	0.057275683	0.057275683	0	138351.8	138351.7	-5.536332e-05	634572.8	255535.2	-0.00015583259	255535.6	634572.5	-0.00021705254
0	0.635678	0.6356775	-2.5476607e-10	0.057134178	0.057134178	0	138327.03	138326.92	-6.228374e-05	634645.2	255303.48	-0.00017809439	255303.92	634644.94	-0.00019479074
0	0.635564	0.63556355	-2.759966e-10	0.056992896	0.056992896	0	138302.25	138302.16	-4.8442907e-05	634718.06	255071.17	-0.00017809439	255071.58	634717.75	-0.0001669635
0	0.6354506	0.6354501	-2.5476607e-10	0.056851387	0.056851387	0	138277.6	138277.44	-4.8442907e-05	634790.6	254839.86	-0.00017809439	254840.25	634790.3	-0.000111309
0	0.6353361	0.63533556	-2.1230506e-10	0.056709882	0.056709882	0	138252.64	138252.55	-3.8062284e-05	634863.4	254606.7	-0.00021148709	254607.11	634863.2	-6.1219944e-05
0	0.63522214	0.63522166	-1.4861354e-10	0.056568604	0.056568604	0	138227.86	138227.73	-3.4602075e-05	634935.8	254374.73	-0.00015583259	254375.14	634935.56	-3.33927e-05
0	0.6351071	0.63510656	4.246101e-11	0.05642703	0.056427035	0	138202.81	138202.7	6.920415e-06	635008.8	254140.66	2.2261798e-05	254141.1	635008.5	2.5044523e-05
0	0.6349925	0.63499194	-2.9722708e-10	0.056285758	0.056285758	0	138177.88	138177.77	-5.882353e-05	635081.2	253907.73	-0.0001335708	253908.16	635081	-0.00023931434
0	0.63487744	0.6348769	-4.246101e-11	0.05614425	0.05614425	0	138152.84	138152.72	-1.0380623e-05	635153.9	253674.1	-0.000111309	253674.53	635153.6	-1.3913625e-05
0	0.63476187	0.6347614	-1.4861354e-10	0.056002736	0.056002736	0	138127.72	138127.6	-2.768166e-05	635226.75	253439.55	-8.904719e-05	253439.95	635226.5	-0.0001335708
0	0.6346463	0.6346459	-1.2738303e-10	0.05586146	0.05586146	0	138102.55	138102.44	-2.0761247e-05	635299.44	253205	-0.0001335708	253205.4	635299.1	-5.0089046e-05
0	0.6345306	0.63453007	-2.1230505e-11	0.055719953	0.055719953	0	138077.34	138077.27	-3.4602076e-06	635372.06	252970.28	2.2261798e-05	252970.7	635371.9	-5.56545e-05
0	0.6344144	0.6344139	-3.821491e-10	0.05557868	0.05557868	0	138052.1	138052	-8.3044986e-05	635444.94	252734.89	-0.0002671416	252735.33	635444.7	-0.0002782725
0	0.6342981	0.6342976	-1.6984404e-10	0.05543712	0.05543712	0	138026.78	138026.69	-4.49827e-05	635517.75	252499.23	-7.7916295e-05	252499.66	635517.4	-0.00017252895
0	0.6341816	0.63418114	-2.9722708e-10	0.05529583	0.05529583	0	138001.44	138001.33	-6.228374e-05	635590.44	252263.5	-0.000222618	252263.92	635590.1	-0.00021148709
0	0.6340649	0.63406444	-1.6984404e-10	0.055154327	0.055154327	0	137976.03	137975.92	-3.114187e-05	635663.06	252027.34	-0.000111309	252027.81	635662.8	-0.0001335708
0	0.6339478	0.6339472	-1.9107455e-10	0.055012815	0.055012815	0	137950.53	137950.44	-3.8062284e-05	635736	251790.4	-0.0001335708	251790.84	635735.7	-0.00017252895
0	0.6338302	0.6338297	-2.9722708e-10	0.054871533	0.054871533	0	137924.95	137924.84	-6.228374e-05	635808.8	251553.05	-0.00020035618	251553.48	635808.44	-0.00025044524
0	0.633713	0.6337125	-4.246101e-11	0.05473003	0.05473003	0	137899.45	137899.34	-1.0380623e-05	635881.4	251316.39	-6.67854e-05	251316.8	635881.1	-2.7827248e-06
0	0.6335949	0.63359433	-8.492202e-11	0.054588694	0.054588694	0	137873.75	137873.64	-2.4221454e-05	635954.5	251077.89	-2.2261798e-05	251078.28	635954.25	-0.00017809439
0	0.6334777	0.6334771	-1.0615253e-10	0.05444718	0.05444718	0	137848.27	137848.12	-3.4602076e-06	636026.94	250841.4	-6.67854e-05	250841.84	636026.6	5.0089046e-05
0	0.6333586	0.63335806	-2.3353555e-10	0.054305915	0.054305915	0	137822.34	137822.22	-4.49827e-05	636100.25	250601.39	-0.000111309	250601.8	636099.94	-0.00018922529
0	0.63324016	0.6332396	-1.6984404e-10	0.054164402	0.054164402	0	137796.58	137796.45	-4.1522493e-05	636172.9	250362.92	-7.7916295e-05	250363.34	636172.56	-0.00017252895
0	0.6331213	0.6331208	-1.0615253e-10	0.054022882	0.054022882	0	137770.72	137770.6	-2.4221454e-05	636246.1	250123.33	0	250123.77	636245.75	-0.00012800534
0	0.63300246	0.63300204	-6.369152e-11	0.053881615	0.053881615	0	137744.86	137744.73	-6.920415e-06	636318.8	249884.22	0	249884.66	636318.5	-7.235085e-05
0	0.6328837	0.6328832	-2.5476607e-10	0.05374005	0.05374005	0	137718.98	137718.88	-5.536332e-05	636391.3	249645.45	-0.00023374888	249645.9	636391	-0.0001447017
0	0.63276356	0.6327631	-4.2461012e-10	0.053598765	0.053598765	0	137692.84	137692.75	-9.34256e-05	636464.6	249403.94	-0.000333927	249404.36	636464.4	-0.00031166518
0	0.63264376	0.6326433	-2.5476607e-10	0.053457264	0.053457264	0	137666.8	137666.67	-5.1903113e-05	636537.44	249163.4	-0.00020035618	249163.84	636537.2	-0.00016139804
0	0.6325236	0.632523	-1.9107455e-10	0.05331577	0.05331577	0	137640.64	137640.53	-4.49827e-05	636610.5	248922.05	-0.0001335708	248922.5	636610.2	-0.0001335708
0	0.63240314	0.63240266	-1.4861354e-10	0.053174473	0.053174473	0	137614.42	137614.3	-2.4221454e-05	636683.7	248680.22	-0.00015583259	248680.67	636683.44	-4.3132237e-05
0	0.6322832	0.6322827	-2.1230506e-10	0.053032972	0.053032972	0	137588.33	137588.22	-5.536332e-05	636756.4	248439.6	-0.00015583259	248440	636756.1	-0.00022818343
0	0.6321616	0.63216114	4.246101e-11	0.052891634	0.052891634	0	137561.88	137561.77	1.384083e-05	636829.7	248196.12	-2.2261798e-05	248196.58	636829.3	8.348175e-05
0	0.6320406	0.6320401	-4.033796e-10	0.05275012	0.05275012	0	137535.53	137535.44	-8.99654e-05	636902.6	247953.8	-0.00031166518	247954.27	636902.3	-0.00025601068
0	0.6319201	0.6319196	-2.1230506e-10	0.052608836	0.052608836	0	137509.33	137509.2	-5.1903113e-05	636975.44	247712.34	-0.000111309	247712.78	636975.1	-0.00016974621
0	0.6317982	0.6317976	-2.759966e-10	0.052467342	0.052467342	0	137482.78	137482.67	-4.8442907e-05	637048.75	247468.2	-0.0001335708	247468.69	637048.5	-0.00017252895
0	0.63167626	0.6316757	-4.246101e-11	0.052325826	0.052325826	0	137456.27	137456.14	-6.920415e-06	637121.7	247224.61	6.67854e-05	247225.03	637121.4	-8.904719e-05
0	0.6315542	0.63155365	-1.6984404e-10	0.05218455	0.05218455	0	137429.67	137429.58	-3.114187e-05	637194.9	246980.5	-0.000111309	246980.9	637194.6	-0.000105743544
0	0.6314316	0.63143104	-4.246101e-11	0.05204299	0.05204299	0	137403.02	137402.89	-1.7301038e-05	637268.2	246735.62	3.33927e-05	246736.08	637267.9	-4.4523596e-05
0	0.63130933	0.6313088	-1.4861354e-10	0.051901694	0.051901694	0	137376.39	137376.28	-4.1522493e-05	637341	246491.58	-0.00017809439	246492.03	637340.7	-0.00010017809
0	0.63118637	0.6311858	-3.184576e-10	0.051760197	0.051760197	0	137349.66	137349.53	-7.958477e-05	637414.1	246246.27	-0.0002671416	246246.7	637413.94	-0.00025322795
0	0.6310632	0.6310627	-3.821491e-10	0.051618703	0.051618703	0	137322.86	137322.72	-8.3044986e-05	637487.06	246001.02	-0.00017809439	246001.45	637486.75	-0.00036731968
0	0.63093954	0.630939	-2.1230506e-10	0.05147742	0.05147742	0	137295.94	137295.83	-4.8442907e-05	637560.44	245754.53	-0.000111309	245754.98	637560.06	-0.00019757346
0	0.6308156	0.6308151	-2.9722708e-10	0.051335912	0.051335912	0	137268.98	137268.86	-5.882353e-05	637633.4	245507.97	-0.000222618	245508.42	637633.25	-0.00017252895
0	0.630692	0.63069147	-3.3968808e-10	0.051194567	0.051194567	0	137242.05	137241.95	-6.5743945e-05	637706.4	245261.95	-0.00017809439	245262.39	637706.06	-0.00027270702
0	0.6305679	0.6305674	-1.6984404e-10	0.051053073	0.051053073	0	137215.06	137214.95	-3.4602075e-05	637779.94	245014.7	-0.0001335708	245015.16	637779.56	-0.00010852627
0	0.63044316	0.63044274	-8.492202e-11	0.05091177	0.05091177	0	137187.94	137187.83	-2.4221454e-05	637853.3	244766.78	-0.00017809439	244767.23	637853	8.348175e-06
0	0.63031876	0.6303182	-2.1230506e-10	0.050770275	0.050770275	0	137160.86	137160.72	-4.1522493e-05	637926.1	244519.64	-0.00023374888	244520.12	637925.8	-8.904719e-05
0	0.63019365	0.63019305	-1.0615253e-10	0.05062879	0.05062879	0	137133.61	137133.5	-3.114187e-05	637999.4	244271.23	-6.67854e-05	244271.69	637999	-9.4612646e-05
0	0.6300686	0.63006806	-1.9107455e-10	0.05048749	0.05048749	0	137106.42	137106.28	-4.49827e-05	638072.7	244022.83	-0.00020035618	244023.28	638072.4	-8.904719e-05
0	0.6299429	0.62994236	-1.2738303e-10	0.05034593	0.05034593	0	137079.06	137078.94	-3.4602075e-05	638146.06	243773.58	-8.904719e-05	243774.05	638145.7	-0.00010017809
0	0.6298172	0.6298166	-1.0615253e-10	0.050204646	0.050204642	0	137051.7	137051.6	-2.4221454e-05	638219.06	243524.61	-6.67854e-05	243525.08	638218.7	-9.4612646e-05
0	0.62969124	0.62969065	-2.9722708e-10	0.050063137	0.050063137	0	137024.28	137024.17	-6.228374e-05	638292.2	243275.06	-0.000222618	243275.55	638291.9	-0.00019757346
0	0.629565	0.62956446	-2.3353555e-10	0.04992165	0.04992165	0	136996.84	136996.72	-5.536332e-05	638365.4	243025.22	-0.0001447017	243025.67	638365.06	-0.00018365984
0	0.62943774	0.62943727	-2.3353555e-10	0.04978036	0.04978036	0	136969.16	136969.03	-5.536332e-05	638439	242773.47	-0.0001335708	242773.94	638438.6	-0.00020313892
0	0.6293104	0.62930983	-4.246101e-11	0.049638852	0.049638852	0	136941.44	136941.31	-1.384083e-05	638511.8	242522.36	4.4523596e-05	242522.81	638511.5	-0.00013078807
0	0.62918407	0.6291836	-2.9722708e-10	0.049497508	0.049497508	0	136913.94	136913.8	-6.5743945e-05	638585.3	242271.92	-0.0001447017	242272.4	638584.94	-0.00030609974
0	0.6290569	0.6290563	-2.3353555e-10	0.04935601	0.04935601	0	136886.27	136886.14	-4.8442907e-05	638658.4	242020.77	-0.00017809439	242021.22	638658.1	-0.00018087712
0	0.6289287	0.6289282	-3.184576e-10	0.049214706	0.049214706	0	136858.38	136858.23	-6.5743945e-05	638731.94	241767.8	-0.00020035618	241768.27	638731.7	-0.00020313892
0	0.6288009	0.62880033	-3.3968808e-10	0.049073216	0.049073216	0	136830.56	136830.44	-6.920415e-05	638805	241515.83	-0.0002671416	241516.3	638804.7	-0.00020035618
0	0.6286729	0.6286723	-6.369152e-11	0.048931725	0.048931725	0	136802.7	136802.6	-2.4221454e-05	638878.44	241263.16	-8.904719e-05	241263.62	638878.1	-5.56545e-05
0	0.62854385	0.6285432	-4.246101e-11	0.048790433	0.048790433	0	136774.62	136774.52	-6.920415e-06	638951.94	241008.95	-2.2261798e-05	241009.44	638951.6	-5.5654496e-06
0	0.62841547	0.62841487	-1.0615253e-10	0.048648868	0.048648868	0	136746.67	136746.56	-1.384083e-05	639025.25	240755.94	-3.33927e-05	240756.42	639024.94	-4.4523596e-05
0	0.62828654	0.62828594	-1.4861354e-10	0.04850758	0.04850758	0	136718.61	136718.5	-4.1522493e-05	639098.44	240502.25	-8.904719e-05	240502.72	639098.06	-0.00012243989
0	0.6281572	0.6281566	-2.5476607e-10	0.04836608	0.04836608	0	136690.48	136690.34	-4.8442907e-05	639171.75	240247.81	-6.67854e-05	240248.31	639171.44	-0.00025322795
0	0.6280276	0.628027	-2.1230506e-10	0.04822459	0.04822459	0	136662.27	136662.14	-4.1522493e-05	639245	239993.1	-0.00020035618	239993.58	639244.6	-0.00010017809
0	0.62789714	0.6278966	-1.6984404e-10	0.04808329	0.04808329	0	136633.9	136633.77	-5.1903113e-05	639318.44	239737.1	-8.904719e-05	239737.58	639318.2	-0.00018922529
0	0.62776744	0.6277668	-2.759966e-10	0.047941796	0.047941796	0	136605.67	136605.55	-5.882353e-05	639391.8	239482.1	-0.00015583259	239482.6	639391.44	-0.00024487977
0	0.62763697	0.62763643	-2.9722708e-10	0.047800433	0.047800433	0	136577.28	136577.17	-7.266436e-05	639465	239226.23	-0.00012243989	239226.72	639464.8	-0.0002894034
0	0.627506	0.62750536	-2.1230506e-10	0.047658954	0.047658954	0	136548.78	136548.66	-3.4602075e-05	639538.56	238969.34	-8.904719e-05	238969.83	639538.1	-0.00013913625
0	0.62737507	0.6273745	-2.759966e-10	0.047517646	0.047517646	0	136520.3	136520.16	-6.228374e-05	639611.8	238712.73	-0.0001335708	238713.2	639611.5	-0.0002671416
0	0.6272441	0.6272435	-3.184576e-10	0.047376156	0.047376156	0	136491.8	136491.66	-7.266436e-05	639685.06	238456.19	-0.0002782725	238456.69	639684.75	-0.00015583259
0	0.62711227	0.6271116	-3.3968808e-10	0.04723467	0.04723467	0	136463.1	136462.95	-7.612457e-05	639758.56	238198.11	-0.000222618	238198.58	639758.25	-0.00026157615
0	0.6269806	0.62698007	-2.1230506e-10	0.04709336	0.04709336	0	136434.45	136434.33	-4.8442907e-05	639831.75	237940.64	-0.0001335708	237941.17	639831.44	-0.0001669635
0	0.62684786	0.62684727	-2.1230505e-11	0.046951808	0.046951808	0	136405.56	136405.45	-2.4221454e-05	639905.4	237681.3	-8.904719e-05	237681.8	639904.9	3.8958147e-05
0	0.62671614	0.6267156	-2.1230505e-11	0.04681051	0.04681051	0	136376.9	136376.78	-3.4602076e-06	639978.5	237423.66	2.2261798e-05	237424.14	639978.2	-5.0089046e-05
0	0.626583	0.6265824	-1.4861354e-10	0.046669018	0.046669018	0	136347.94	136347.8	-2.4221454e-05	640052	237163.69	-8.904719e-05	237164.14	640051.8	-8.904719e-05
0	0.62645	0.62644947	-1.6984404e-10	0.04652772	0.04652772	0	136318.98	136318.86	-3.4602075e-05	640125.5	236904.05	-0.00017809439	236904.55	640125.1	-0.00012243989
0	0.62631685	0.62631625	0	0.046386234	0.046386234	0	136290	136289.88	0	640198.8	236644.19	0	236644.72	640198.5	-4.4523596e-05
0	0.6261833	0.6261827	-8.492202e-11	0.04624474	0.04624474	0	136260.95	136260.81	-2.0761247e-05	640272.25	236383.81	-8.904719e-05	236384.27	640272	-1.669635e-05
0	0.62604976	0.6260491	-6.369152e-11	0.046103436	0.046103436	0	136231.89	136231.75	-1.384083e-05	640345.3	236123.83	-6.67854e-05	236124.33	640345.06	-2.2261798e-05
0	0.625915	0.6259144	-4.246101e-11	0.045961883	0.045961883	0	136202.58	136202.44	-1.384083e-05	640419	235861.52	0	235861.98	640418.7	-5.56545e-05
0	0.62578	0.62577945	2.1230505e-11	0.045820575	0.045820575	0	136173.2	136173.05	-3.4602076e-06	640492	235599.52	4.4523596e-05	235600.03	640491.7	1.1130899e-05
0	0.6256458	0.6256452	-6.369152e-11	0.0456791	0.0456791	0	136144	136143.88	-1.384083e-05	640565.9	235337.8	-4.4523596e-05	235338.3	640565.5	-4.4523596e-05
0	0.62551135	0.62551075	-1.0615253e-10	0.045537613	0.045537613	0	136114.73	136114.6	-2.0761247e-05	640638.9	235076.53	2.2261798e-05	235077.05	640638.56	-0.00017252895
0	0.6253755	0.62537485	6.369152e-11	0.0453963	0.0453963	0	136085.16	136085.03	1.7301038e-05	640712.56	234812.6	0	234813.08	640712.25	9.4612646e-05
0	0.6252393	0.62523866	-1.6984404e-10	0.04525482	0.04525482	0	136055.53	136055.4	-4.1522493e-05	640786.25	234548.27	-4.4523596e-05	234548.8	640785.8	-0.00017809439
0	0.62510425	0.62510365	-1.9107455e-10	0.045113444	0.045113444	0	136026.14	136026	-4.1522493e-05	640859.44	234285.94	-0.00015583259	234286.45	640859.1	-0.00018922529
0	0.62496763	0.624967	-6.369152e-11	0.044971954	0.044971954	0	135996.39	135996.27	-1.0380623e-05	640932.6	234021.48	2.2261798e-05	234021.98	640932.3	-0.00012243989