# t (s)	mx ()	my ()	mz ()	B_extx (T)	B_exty (T)	B_extz (T)	m_fullx (A/m)	m_fully (A/m)	m_fullz (A/m)	m_full.region1x (A/m)	m_full.region1y (A/m)	m_full.region1z (A/m)	m_full.region2x (A/m)	m_full.region2y (A/m)	m_full.region2z (A/m)
0	0.6463689	0.64636797	-3.1356412e-10	0.070710704	0.070710704	0	122729.29	122729.12	-5.8772705e-05	647306.9	257608.81	-0.00020663327	257609.64	647306.25	-0.00023446258
0	0.6461051	0.6461029	-1.9518416e-10	0.07035722	0.07035722	0	122679.2	122678.8	-3.8902497e-05	647545.8	256999.38	-8.466068e-05	257001.34	647544.75	-0.00017908086
0	0.64583504	0.64583296	-2.3333854e-10	0.07000352	0.07000352	0	122627.94	122627.52	-4.4981367e-05	647789.2	256377.98	-7.21245e-05	256379.98	647788.06	-0.00022769447
0	0.64556634	0.6455641	-1.7552736e-10	0.06965005	0.06965005	0	122576.9	122576.48	-3.524867e-05	648031.1	255759.62	-0.00012919978	255761.64	648030	-0.0001230016
0	0.64529467	0.64529246	-2.9342564e-10	0.06929643	0.06929643	0	122525.33	122524.91	-5.2792264e-05	648274.1	255136.5	-0.00013797797	255138.48	648273.06	-0.00026214455
0	0.645021	0.6450188	-3.6943623e-10	0.068942994	0.068942994	0	122473.36	122472.93	-6.836871e-05	648517.75	254509.6	-0.0002662751	254511.62	648516.7	-0.0002414271
0	0.6447442	0.644742	-2.2228165e-10	0.06858929	0.06858929	0	122420.8	122420.36	-4.116042e-05	648763.2	253876.61	-0.00016232477	253878.69	648762.06	-0.00014110332
0	0.64446825	0.644466	-3.8949519e-10	0.06823583	0.06823583	0	122368.414	122367.99	-7.2145805e-05	649006.94	253246.61	-0.00027793573	253248.7	649005.8	-0.00025969782
0	0.6441886	0.6441864	-2.121628e-10	0.067882195	0.067882195	0	122315.3	122314.88	-4.0436655e-05	649252.44	252609.47	-0.00017062541	252611.52	649251.44	-0.0001359633
0	0.64390874	0.64390653	-3.6622977e-10	0.06752872	0.06752872	0	122262.2	122261.75	-6.603409e-05	649497.7	251972.66	-0.00017894698	251974.72	649496.56	-0.0003153477
0	0.64362466	0.6436224	-3.562287e-10	0.06717502	0.06717502	0	122208.234	122207.805	-6.905349e-05	649744.75	251327.77	-0.00029630124	251329.83	649743.6	-0.00021493998
0	0.64334273	0.64334047	-3.9760678e-10	0.066821605	0.066821605	0	122154.7	122154.28	-7.515048e-05	649989.5	250688.27	-0.00022861523	250690.39	649988.4	-0.00033760534
0	0.6430569	0.64305466	-2.553539e-10	0.066468135	0.066468135	0	122100.43	122099.99	-4.8184953e-05	650236.44	250041.1	-0.00014875983	250043.22	650235.3	-0.00018923811
0	0.6427675	0.6427651	-1.2776061e-10	0.06611443	0.06611443	0	122045.45	122045.02	-2.1190552e-05	650484.8	249387.39	-0.000121538156	249389.52	650483.75	-3.3144483e-05
0	0.6424791	0.6424767	-8.3429555e-11	0.065760985	0.065760985	0	121990.72	121990.28	-1.3362862e-05	650731.7	248736.89	-4.0182586e-05	248739.03	650730.56	-4.0434137e-05
0	0.64218926	0.64218694	-5.097544e-10	0.06540732	0.06540732	0	121935.67	121935.234	-0.00010020315	650978.9	248083.88	-0.00038467918	248086	650977.8	-0.0003501377
0	0.64189446	0.6418921	-6.88723e-11	0.0650539	0.0650539	0	121879.695	121879.266	-1.24038515e-05	651228.4	247421.64	-0.00016684645	247423.77	651227.3	0.00010036048
0	0.6416018	0.6415995	-2.2182434e-10	0.064700216	0.064700216	0	121824.14	121823.7	-4.2695676e-05	651475.75	246764.66	-0.00012535599	246766.81	651474.5	-0.00018098537
0	0.6413041	0.64130175	-4.0938553e-10	0.06434676	0.06434676	0	121767.59	121767.16	-7.873425e-05	651725.7	246097.72	-0.00028451753	246099.88	651724.6	-0.00031933284
0	0.64100724	0.64100486	-3.3660502e-10	0.0639931	0.0639931	0	121711.25	121710.8	-6.56567e-05	651974	245433.86	-0.0002233722	245436.08	651972.9	-0.00025252768
0	0.64070654	0.6407042	2.134695e-11	0.06363964	0.06363964	0	121654.14	121653.695	3.0635483e-06	652224.4	244762.6	1.9597294e-06	244764.78	652223.3	4.221069e-05
0	0.6404046	0.64040226	-4.05463e-10	0.06328595	0.06328595	0	121596.82	121596.37	-7.890656e-05	652474.44	244089.69	-0.00025434702	244091.9	652473.3	-0.0003271516
0	0.6401002	0.6400978	-3.2530062e-11	0.0629325	0.0629325	0	121539.016	121538.58	-1.01331425e-05	652725.2	243412.88	-1.6336748e-05	243415.12	652724	-2.8751138e-05
0	0.639795	0.6397926	-1.1266051e-10	0.06257904	0.06257904	0	121481.07	121480.625	-1.830801e-05	652975.75	242735.02	-0.00011405047	242737.23	652974.7	-2.7690763e-05
0	0.63948727	0.6394848	-1.3978062e-10	0.062225346	0.062225346	0	121422.63	121422.18	-3.2319054e-05	653227.1	242052.78	-0.00012506732	242055	653226	-9.262051e-05
0	0.63917744	0.63917494	-1.9415329e-10	0.06187191	0.06187191	0	121363.805	121363.36	-3.4775752e-05	653478.9	241367.22	-0.00016573722	241369.44	653477.75	-8.978736e-05
0	0.6388635	0.6388611	-2.8943548e-10	0.061518222	0.061518222	0	121304.21	121303.75	-5.703007e-05	653732.4	240674.28	-0.0002633091	240676.52	653731.25	-0.00016157077
0	0.6385514	0.6385491	-3.12079e-10	0.061164826	0.061164826	0	121244.96	121244.484	-5.956637e-05	653984	239985.84	-0.00017238129	239988.11	653982.9	-0.0002601334
0	0.63823694	0.6382345	-1.7063252e-10	0.060811136	0.060811136	0	121185.23	121184.766	-3.3056294e-05	654235.94	239293.47	-0.00010849665	239295.73	654234.75	-0.00013395528
0	0.6379186	0.63791615	-1.5948233e-10	0.060457677	0.060457677	0	121124.78	121124.32	-2.938211e-05	654489.7	238594	-0.00014359748	238596.31	654488.6	-7.4503914e-05
0	0.637599	0.63759655	-3.1967937e-10	0.06010401	0.06010401	0	121064.11	121063.63	-5.7773006e-05	654743.44	237892.9	-0.00028605937	237895.22	654742.25	-0.0001936748
0	0.63727725	0.6372748	-1.5212376e-10	0.05975055	0.05975055	0	121003.01	121002.55	-2.8671817e-05	654997.2	237188.61	-7.659276e-05	237190.95	654996.06	-0.0001205162
0	0.636952	0.6369495	-2.7144423e-10	0.059396874	0.059396874	0	120941.26	120940.78	-5.171167e-05	655252.44	236478.11	-0.00014066798	236480.4	655251.25	-0.00022623107
0	0.63662773	0.6366253	-4.5946194e-10	0.059043404	0.059043404	0	120879.69	120879.234	-8.9286244e-05	655506.2	235770.44	-0.00041138477	235772.72	655505	-0.00025057682
0	0.63630044	0.636298	-2.489924e-10	0.05868994	0.05868994	0	120817.555	120817.07	-4.812486e-05	655760.75	235057.48	-0.00012791615	235059.81	655759.6	-0.00020354304
0	0.6359706	0.6359681	-3.9685671e-10	0.05833627	0.05833627	0	120754.914	120754.44	-7.6026074e-05	656016.06	234340.39	-0.0003152509	234342.73	656014.9	-0.0002638654
0	0.6356363	0.6356338	-3.7458983e-10	0.057982814	0.057982814	0	120691.44	120690.98	-7.0261776e-05	656273.1	233615.39	-0.00026678646	233617.75	656272	-0.0002488985
0	0.63530344	0.6353009	-2.3535796e-10	0.057629142	0.057629142	0	120628.234	120627.76	-4.388946e-05	656528.4	232894	-0.00019429019	232896.36	656527.2	-0.00013069093
0	0.6349676	0.63496506	-1.6697013e-10	0.057275668	0.057275668	0	120564.46	120563.984	-2.7729395e-05	656784.44	232167.83	-0.00014219014	232170.19	656783.25	-4.2760716e-05
0	0.6346293	0.63462687	-3.4793668e-10	0.056922063	0.056922063	0	120500.26	120499.77	-6.8645924e-05	657040.9	231437.94	-0.0002503777	231440.34	657039.6	-0.00025919403
0	0.63428843	0.63428587	-3.1145647e-10	0.0565686	0.0565686	0	120435.52	120435.03	-5.84751e-05	657298.1	230703.31	-0.00021365407	230705.7	657297	-0.0002611212
0	0.6339457	0.6339432	-2.4717603e-10	0.056214936	0.056214936	0	120370.44	120369.96	-5.1012204e-05	657555.25	229966.34	-0.0002555561	229968.78	657554.1	-0.00010106344
0	0.6335986	0.6335961	-5.646604e-10	0.05586146	0.05586146	0	120304.55	120304.06	-0.00010940638	657814.25	229221.55	-0.0003518546	229223.95	657813.06	-0.00046214717
0	0.6332532	0.6332507	-1.5760748e-10	0.055507805	0.055507805	0	120238.96	120238.46	-3.0849882e-05	658071	228481.06	-0.00013086939	228483.5	658069.8	-9.623181e-05
0	0.632904	0.6329014	-1.2670105e-10	0.055154327	0.055154327	0	120172.64	120172.14	-2.0680354e-05	658329	227734.1	-0.00014156259	227736.53	658327.9	-2.6309517e-05
0	0.63255244	0.6325498	-1.6614796e-10	0.054800846	0.054800846	0	120105.875	120105.39	-3.1677628e-05	658587.44	226983.47	-0.00016078197	226985.97	658586.25	-6.954889e-05
0	0.63219833	0.6321957	-4.3984327e-10	0.05444718	0.05444718	0	120038.66	120038.18	-8.522813e-05	658846.3	226228.89	-0.00040882948	226231.39	658845.2	-0.00021124368
0	0.6318418	0.6318393	-2.2788063e-10	0.054093722	0.054093722	0	119970.98	119970.484	-4.2466658e-05	659105.6	225470.5	-0.00017870426	225472.97	659104.44	-0.00014570981
0	0.6314812	0.6314786	-1.9263036e-11	0.053740054	0.053740054	0	119902.49	119902.01	-1.9327067e-06	659366.1	224705.12	-3.1491112e-05	224707.61	659364.94	2.0604515e-05
0	0.63112205	0.6311195	-1.8871539e-10	0.053386588	0.053386588	0	119834.305	119833.805	-3.649231e-05	659624.7	223943.69	-8.553753e-05	223946.17	659623.5	-0.00016618593
0	0.63075894	0.6307563	-4.6159265e-10	0.053032987	0.053032987	0	119765.36	119764.86	-8.396357e-05	659884.56	223175.47	-0.00038956653	223177.98	659883.44	-0.00025634738
0	0.6303918	0.63038915	-2.6858535e-10	0.05267951	0.05267951	0	119695.625	119695.13	-4.879344e-05	660145.75	222400.19	-0.00024054402	222402.75	660144.6	-0.00012550308
0	0.6300245	0.63002187	-4.8323767e-10	0.05232584	0.05232584	0	119625.9	119625.41	-8.9382476e-05	660405.8	221625.94	-0.00027405363	221628.47	660404.8	-0.0003685084
0	0.62965393	0.62965125	-3.358331e-10	0.05197238	0.05197238	0	119555.55	119555.02	-6.35217e-05	660666.6	220846.23	-0.0003452845	220848.81	660665.44	-0.00013133258
0	0.6292807	0.62927806	-1.15575126e-10	0.051618718	0.051618718	0	119484.67	119484.18	-1.9918085e-05	660927.94	220062.48	-0.00022240393	220065.03	660926.8	6.687139e-05
0	0.6289053	0.6289026	-1.7925328e-10	0.05126525	0.05126525	0	119413.375	119412.88	-3.357486e-05	661189.44	219275.45	-0.00015167556	219278.02	661188.1	-5.9522354e-05
0	0.6285275	0.6285247	-2.3804583e-10	0.05091175	0.05091175	0	119341.65	119341.15	-4.2419266e-05	661451	218484.84	-0.00015348867	218487.44	661449.9	-0.00015444671
0	0.62814647	0.6281438	-2.2254665e-11	0.0505581	0.0505581	0	119269.31	119268.805	-4.681141e-06	661713.06	217689.38	1.3100731e-05	217691.95	661712	-3.961508e-05
0	0.62776256	0.62775993	-2.0468037e-10	0.050204627	0.050204627	0	119196.414	119195.91	-3.827022e-05	661975.7	216889.2	-0.00014139434	216891.78	661974.6	-0.00013612906
0	0.62737864	0.6273759	-2.1058519e-10	0.049850974	0.049850974	0	119123.52	119123.01	-4.2392574e-05	662237.4	216090.08	-0.00015989535	216092.67	662236.3	-0.00012674925
0	0.6269896	0.6269869	-4.1699094e-10	0.049497493	0.049497493	0	119049.66	119049.15	-8.0260346e-05	662500.56	215282.34	-0.00028869632	215284.94	662499.4	-0.00030623167
0	0.6265997	0.6265971	-1.8406668e-10	0.049143914	0.049143914	0	118975.64	118975.12	-3.6489826e-05	662763	214474.1	-0.00010651429	214476.7	662761.8	-0.00013350145
0	0.62620676	0.6262041	-3.9347267e-10	0.04879043	0.04879043	0	118901	118900.51	-7.717325e-05	663025.9	213660.89	-0.00020874357	213663.56	663024.75	-0.00033657698
0	0.6258102	0.62580746	-5.3619714e-10	0.04843677	0.04843677	0	118825.72	118825.195	-0.000103895974	663289.6	212842.1	-0.0003547579	212844.72	663288.44	-0.00040710258
0	0.62541246	0.6254098	1.2917334e-10	0.04808329	0.04808329	0	118750.2	118749.67	2.189817e-05	663552.56	212022.19	6.057568e-05	212024.86	663551.5	0.00011169306
0	0.6250114	0.6250087	-1.6068298e-11	0.04772965	0.04772965	0	118674.04	118673.516	-9.095706e-07	663816.25	211196.98	0.00010707082	211199.69	663815.06	-7.76433e-05
0	0.6246075	0.6246048	-3.455638e-10	0.047376156	0.047376156	0	118597.36	118596.83	-6.717823e-05	664080.2	210367.7	-0.00025574944	210370.33	664079.1	-0.00022632719
0	0.62420034	0.6241976	-3.0230188e-10	0.04702266	0.04702266	0	118520.03	118519.51	-5.796522e-05	664344.6	209533.17	-0.00034122265	209535.88	664343.5	-8.310004e-05
0	0.62379146	0.6237887	-4.235241e-10	0.046669014	0.046669014	0	118442.41	118441.89	-7.9711215e-05	664608.7	208696.56	-0.00024961832	208699.25	664607.6	-0.0003397734
0	0.6233792	0.6233765	-5.242217e-10	0.046315536	0.046315536	0	118364.12	118363.59	-0.00010155717	664873.5	207854.62	-0.00039339773	207857.36	664872.4	-0.00033592954
0	0.62296295	0.6229602	-4.0645212e-10	0.045961887	0.045961887	0	118285.086	118284.57	-7.774186e-05	665138.75	207006.67	-0.00032985306	207009.42	665137.56	-0.00023212317
0	0.62254703	0.6225442	-3.2422295e-10	0.045608394	0.045608394	0	118206.11	118205.59	-6.0136725e-05	665402.75	206160.39	-0.00022844314	206163.11	665401.6	-0.00021228423
0	0.6221264	0.62212366	-2.911284e-10	0.04525483	0.04525483	0	118126.25	118125.71	-5.5375687e-05	665667.8	205306.39	-0.0001299135	205309.12	665666.7	-0.00025365216
0	0.6217028	0.6216999	-3.0343705e-10	0.044901334	0.044901334	0	118045.8	118045.28	-5.380357e-05	665933	204448.02	-0.00015284092	204450.78	665932	-0.0002484971
0	0.62127614	0.62127334	7.2530267e-11	0.044547696	0.044547696	0	117964.8	117964.27	1.5596946e-05	666198.56	203585.14	8.3917934e-05	203587.94	666197.5	3.489862e-05
0	0.62084734	0.6208446	-1.2726704e-11	0.04419421	0.04419421	0	117883.39	117882.86	-1.6092323e-06	666464	202719.52	3.831587e-05	202722.31	666462.94	-2.9504465e-05
0	0.62041587	0.62041306	3.707134e-13	0.04384058	0.04384058	0	117801.45	117800.94	-8.106753e-07	666729.1	201850.28	-2.1802445e-05	201853.06	666728	4.3964166e-05
0	0.61997944	0.6199766	-3.2270048e-10	0.043487065	0.043487065	0	117718.59	117718.055	-6.0303086e-05	666995.4	200973	-0.00035676296	200975.81	666994.3	-7.230359e-05
0	0.619542	0.61953914	-5.0856586e-10	0.04313356	0.04313356	0	117635.53	117635.01	-9.342346e-05	667261.3	200094.78	-0.00042769534	200097.58	667260.06	-0.00026353917
0	0.6191017	0.6190989	-2.6916594e-10	0.042779934	0.042779934	0	117551.94	117551.39	-5.2102252e-05	667526.8	199212.84	-7.751661e-05	199215.66	667525.56	-0.00032985007
0	0.61865807	0.61865526	-4.0867337e-10	0.04242642	0.04242642	0	117467.7	117467.17	-7.704405e-05	667792.44	198326.03	-0.00040833876	198328.81	667791.25	-0.00017743905
0	0.61821073	0.61820793	-4.6328125e-10	0.04207281	0.04207281	0	117382.77	117382.234	-8.845462e-05	668058.9	197433.38	-0.0004401366	197436.22	668057.75	-0.00022010665
0	0.6177602	0.6177573	3.840771e-11	0.041719295	0.041719295	0	117297.22	117296.67	7.571593e-06	668325.25	196536.02	-4.9457023e-05	196538.89	668324.2	0.00012373265
0	0.61730766	0.61730486	-1.3949165e-10	0.041365758	0.041365758	0	117211.3	117210.76	-2.3107048e-05	668591.06	195636.77	-0.00024003431	195639.62	668589.94	6.8520785e-05
0	0.6168509	0.6168482	-1.3795881e-10	0.041012242	0.041012242	0	117124.59	117124.04	-2.653002e-05	668857.6	194730.9	1.3172928e-05	194733.78	668856.5	-0.00020188013
0	0.6163914	0.61638856	-1.9790539e-10	0.040658627	0.040658627	0	117037.31	117036.78	-3.0676372e-05	669124.2	193820.98	-4.6050234e-05	193823.88	669123	-0.00020465681
0	0.61592853	0.6159257	-3.0922834e-10	0.040305126	0.040305126	0	116949.44	116948.9	-6.147495e-05	669390.75	192906.34	-0.0002454083	192909.25	669389.6	-0.00019693979
0	0.61546254	0.6154598	-7.677823e-11	0.03995151	0.03995151	0	116860.945	116860.41	-1.5265572e-05	669657.4	191987.34	-0.00015270793	191990.23	669656.3	6.2357816e-05
0	0.6149935	0.61499065	-2.2791094e-10	0.039597988	0.039597988	0	116771.89	116771.34	-4.568432e-05	669923.75	191064.23	-0.00014313578	191067.14	669922.7	-0.00015970285
0	0.614521	0.61451805	-4.183096e-10	0.03924446	0.03924446	0	116682.18	116681.63	-8.433352e-05	670190.5	190136.02	-0.00022460056	190138.94	670189.44	-0.0004010912
0	0.6140453	0.6140424	-1.5942637e-10	0.03889085	0.03889085	0	116591.87	116591.305	-3.155516e-05	670456.94	189203.6	-0.00016761667	189206.55	670455.8	-5.1800638e-05
0	0.6135659	0.61356294	-2.7279204e-10	0.03853732	0.03853732	0	116500.83	116500.29	-5.1657957e-05	670723.9	188265.47	-5.2197778e-05	188268.39	670722.75	-0.00030310138
0	0.6130837	0.6130808	-2.5043367e-10	0.03818373	0.03818373	0	116409.28	116408.734	-4.6844e-05	670990.06	187324.17	-0.00029976227	187327.11	670989.06	-4.1729076e-05
0	0.6125974	0.61259454	-1.205893e-10	0.0378302	0.0378302	0	116316.945	116316.4	-2.081518e-05	671257	186376.44	-0.00015977622	186379.36	671255.94	2.4239533e-05
0	0.612108	0.61210513	-5.7771743e-10	0.03747659	0.03747659	0	116224.01	116223.46	-0.00011062656	671523.75	185424.53	-0.0004903669	185427.5	671522.56	-0.00032233278
0	0.61161613	0.6116132	-2.6727054e-10	0.037123155	0.037123155	0	116130.61	116130.055	-5.3463067e-05	671789.75	184469.78	-0.00013424963	184472.78	671788.7	-0.00022654349
0	0.61111903	0.6111161	-2.2655747e-10	0.036769558	0.036769558	0	116036.23	116035.68	-4.3756274e-05	672057.06	183506.69	-0.00023906275	183509.67	672055.9	-5.3790634e-05
0	0.61062	0.61061716	-3.6266823e-10	0.036416043	0.036416043	0	115941.47	115940.914	-7.196228e-05	672322.8	182542.22	-0.00028225992	182545.19	672321.7	-0.00021976882
0	0.6101164	0.61011356	-3.6593917e-10	0.036062438	0.036062438	0	115845.86	115845.31	-7.236189e-05	672589.25	181570.77	-0.00040061533	181573.77	672588.2	-9.776392e-05
0	0.6096101	0.6096072	-4.134547e-10	0.035708897	0.035708897	0	115749.73	115749.18	-7.8037694e-05	672855.4	180595.8	-0.00028108925	180598.81	672854.25	-0.00027089202
0	0.60909915	0.6090962	-2.9883743e-10	0.035355352	0.035355352	0	115652.7	115652.15	-6.0756323e-05	673121.9	179613.97	-0.0002982404	179616.97	673120.8	-0.000118923876
0	0.6085853	0.60858226	1.8444332e-10	0.03500176	0.03500176	0	115555.13	115554.586	3.5227935e-05	673387.8	178628.58	6.0904436e-05	178631.6	673386.7	0.00022219153
0	0.6080673	0.6080644	-5.1326066e-10	0.034648214	0.034648214	0	115456.78	115456.22	-9.858101e-05	673654	177637.16	-0.00022575262	177640.19	673652.94	-0.0005280748
0	0.60754645	0.60754347	-2.2887058e-10	0.034294646	0.034294646	0	115357.875	115357.33	-4.010226e-05	673919.44	176642.53	-9.840827e-05	176645.56	673918.44	-0.00017429687
0	0.60702115	0.6070182	-2.1142915e-10	0.033941098	0.033941098	0	115258.13	115257.586	-4.1106407e-05	674185.2	175641.31	-5.014683e-05	175644.36	674184.25	-0.0002387853
0	0.60649186	0.6064889	-1.7138949e-10	0.03358751	0.03358751	0	115157.63	115157.08	-3.5908706e-05	674451.1	174634.4	-0.000237349	174637.47	674450.06	2.8324876e-05
0	0.6059593	0.6059564	8.742698e-11	0.033234067	0.033234067	0	115056.516	115055.96	2.0703823e-05	674716.4	173623.56	0.00018219794	173626.62	674715.3	-1.6414886e-05
0	0.605422	0.6054191	-3.8623338e-10	0.032880493	0.032880493	0	114954.49	114953.94	-7.553425e-05	674981.9	172605.9	-0.00035139575	172608.94	674980.8	-0.00015620905
0	0.60488206	0.60487914	1.0042993e-10	0.03252695	0.03252695	0	114851.984	114851.44	1.6796108e-05	675246.7	171585.2	-0.00011679802	171588.31	675245.6	0.0002796189
0	0.6043374	0.6043345	-1.6355567e-10	0.03217338	0.03217338	0	114748.56	114748	-3.0634248e-05	675511.56	170557.66	-9.4378185e-05	170560.77	675510.6	-0.00014673221
0	0.6037891	0.60378623	-1.276221e-10	0.03181982	0.03181982	0	114644.45	114643.91	-2.5080755e-05	675776.2	169525.56	-0.0001118446	169528.64	675775.1	-6.6919834e-05
0	0.6032365	0.6032336	-5.29564e-10	0.03146625	0.03146625	0	114539.52	114538.96	-9.8089724e-05	676040.7	168487.23	-0.00034677054	168490.36	676039.75	-0.0004036772
0	0.60268044	0.60267746	-4.0482792e-10	0.031112673	0.031112673	0	114433.95	114433.39	-7.874624e-05	676305	167444.6	-0.00034620886	167447.67	676303.94	-0.00022049139
0	0.6021203	0.6021173	-2.4740182e-10	0.030759111	0.030759111	0	114327.6	114327.03	-4.83095e-05	676568.56	166396.73	-0.00023004644	166399.86	676567.6	-0.00010325087
0	0.6015554	0.6015525	-4.4456966e-10	0.030405568	0.030405568	0	114220.34	114219.77	-8.286137e-05	676832.4	165342.05	-0.00038379943	165345.17	676831.4	-0.00025290897
0	0.60098636	0.60098356	-5.1259313e-10	0.030052004	0.030052004	0	114112.305	114111.73	-9.634016e-05	677095.75	164282.08	-0.00031709287	164285.2	677094.8	-0.00038404568
0	0.60041267	0.6004098	-3.1619732e-10	0.029698437	0.029698437	0	114003.36	114002.81	-5.9309587e-05	677359.06	163215.58	-0.0002726191	163218.7	677358.1	-0.00015019061
0	0.5998364	0.59983355	-1.2898269e-11	0.02934497	0.02934497	0	113893.95	113893.4	-2.9218447e-06	677621.56	162146.42	-1.3511096e-05	162149.55	677620.56	-1.8436514e-06
0	0.599256	0.5992531	-1.049069e-10	0.028991407	0.028991407	0	113783.73	113783.18	-2.0885494e-05	677883.6	161071.67	-8.190548e-05	161074.83	677882.7	-8.687887e-05
0	0.59867036	0.59866744	-9.584426e-11	0.028637834	0.028637834	0	113672.55	113671.99	-2.048823e-05	678145.7	159989.69	-0.00012877776	159992.83	678144.8	3.3078038e-06
0	0.5980804	0.5980775	-2.24379e-10	0.0282843	0.0282843	0	113560.516	113559.945	-3.817652e-05	678407.3	158902.03	-0.0002827899	158905.2	678406.4	-3.0894666e-05
0	0.5974861	0.5974831	-6.765149e-11	0.02793073	0.02793073	0	113447.66	113447.1	-1.5912057e-05	678668.7	157808.61	-3.7341953e-05	157811.77	678667.75	-3.85704e-05
0	0.5968871	0.5968842	1.8772724e-10	0.027577164	0.027577164	0	113333.945	113333.39	3.5668127e-05	678929.9	156708.95	0.00022726993	156712.11	678928.94	7.0716844e-05
0	0.5962844	0.5962814	-2.2792272e-10	0.02722359	0.02722359	0	113219.49	113218.945	-4.5076893e-05	679189.94	155604.98	-0.00015007451	155608.16	679189.06	-0.00015331949
0	0.5956766	0.59567374	-4.711392e-10	0.026870027	0.026870027	0	113104.11	113103.57	-8.955461e-05	679450	154494.12	-0.00057228445	154497.27	679449.25	-7.1628136e-05
0	0.5950642	0.5950613	-1.6878567e-10	0.026516493	0.026516493	0	112987.81	112987.266	-2.9421179e-05	679709.9	153376.9	-3.119697e-05	153380.06	679708.94	-0.00018307993
0	0.59444666	0.5944438	-1.08560196e-10	0.02616292	0.02616292	0	112870.56	112870.016	-2.324556e-05	679969.1	152252.9	-0.00013387791	152256.06	679968.4	3.261331e-05
0	0.593826	0.59382313	-4.1649995e-10	0.025809359	0.025809359	0	112752.71	112752.18	-7.9859965e-05	680227.44	151125.75	-0.00037935682	151128.92	680226.7	-0.00021020825
0	0.5931997	0.5931968	-2.4980398e-10	0.025455875	0.025455875	0	112633.79	112633.234	-5.1643117e-05	680485.9	149990.53	-0.00025341753	149993.72	680485.06	-0.00013156152
0	0.592569	0.5925662	4.7989265e-11	0.025102314	0.025102314	0	112514.05	112513.51	8.733802e-06	680743.4	148850.12	7.729233e-05	148853.31	680742.56	7.618744e-06
0	0.5919321	0.5919292	-2.9355257e-10	0.024748746	0.024748746	0	112393.11	112392.57	-5.7301884e-05	681000.9	147700.89	-0.00024898106	147704.08	681000.1	-0.00013876717
0	0.59129244	0.59128964	-8.864517e-12	0.024395214	0.024395214	0	112271.67	112271.11	2.4362066e-06	681257.06	146549.23	-1.5381174e-05	146552.4	681256.3	2.9196453e-05
0	0.5906473	0.5906444	-4.3057763e-10	0.024041645	0.024041645	0	112149.15	112148.61	-7.975689e-05	681513.06	145389.89	-0.00023606642	145393.08	681512.3	-0.0003738616
0	0.5899972	0.5899942	-2.8035185e-10	0.023688078	0.023688078	0	112025.71	112025.16	-5.572845e-05	681768.25	144224.53	-0.0002443843	144227.69	681767.5	-0.00013412816
0	0.58934194	0.5893391	-3.4777844e-10	0.023334507	0.023334507	0	111901.305	111900.75	-6.691909e-05	682023.06	143052.5	-0.00035398066	143055.69	682022.25	-0.0001319271
0	0.588682	0.58867925	-2.7191513e-10	0.022980943	0.022980943	0	111776.01	111775.47	-5.3494743e-05	682277.06	141874.64	-0.00025868433	141877.81	682276.2	-0.00014497145
0	0.5880169	0.5880141	-4.296214e-10	0.022627415	0.022627415	0	111649.72	111649.18	-8.009633e-05	682530.3	140690.23	-0.00024346996	140693.39	682529.5	-0.00035688965
0	0.5873462	0.5873434	-1.3814604e-10	0.022273848	0.022273848	0	111522.35	111521.805	-3.1272546e-05	682783.2	139498.33	1.1146154e-05	139501.52	682782.4	-0.00020951535
0	0.5866706	0.5866678	-3.2811923e-10	0.02192029	0.02192029	0	111394.08	111393.555	-6.345165e-05	683035.2	138300.4	-0.00035149106	138303.61	683034.56	-0.00012168527
0	0.5859907	0.5859879	-7.2975775e-10	0.02156678	0.02156678	0	111264.99	111264.46	-0.00013817013	683286.2	137097.7	-0.0006351626	137100.89	683285.3	-0.00042070547
0	0.58530384	0.5853011	-3.4520112e-10	0.02121321	0.02121321	0	111134.56	111134.05	-6.791392e-05	683536.94	135885.27	-0.00048220926	135888.45	683536.25	-4.4576343e-05
0	0.5846115	0.5846087	-2.1107721e-10	0.020859648	0.020859648	0	111003.1	111002.586	-3.8494538e-05	683787	134665.92	-0.00018353183	134669.12	683786.25	-9.073543e-05
0	0.5839162	0.5839134	-7.227942e-11	0.020506121	0.020506121	0	110871.086	110870.56	-1.6319744e-05	684035.56	133443.94	-8.7681154e-05	133447.11	684034.9	4.837013e-06
0	0.5832144	0.58321154	-6.789647e-10	0.020152563	0.020152563	0	110737.83	110737.3	-0.00013201908	684283.4	132213.52	-0.0005435148	132216.69	684282.75	-0.0004162877
0	0.58250576	0.5825029	-1.8142035e-10	0.019798994	0.019798994	0	110603.266	110602.734	-3.606975e-05	684531	130973.74	-0.00021178144	130976.9	684530.4	-6.2070176e-05
0	0.5817936	0.5817908	-5.960437e-10	0.019445425	0.019445425	0	110468.055	110467.54	-0.00011333331	684777	129730.71	-0.000433527	129733.9	684776.4	-0.00038810613
0	0.581075	0.58107233	-5.2135827e-11	0.019091865	0.019091865	0	110331.63	110331.1	-9.568186e-06	685022.5	128479.47	-0.00013013747	128482.66	685021.8	6.563734e-05
0	0.58035094	0.58034825	-6.4699535e-10	0.018738296	0.018738296	0	110194.13	110193.62	-0.00012007706	685266.94	127221.18	-0.00048027385	127224.36	685266.25	-0.00040650554
0	0.5796184	0.5796157	-8.1050125e-11	0.018384779	0.018384779	0	110055.05	110054.55	-1.1590661e-05	685511.2	125951.45	0.000103758066	125954.625	685510.56	-0.00018442134
0	0.5788853	0.5788825	9.582366e-12	0.018031219	0.018031219	0	109915.84	109915.33	-8.585183e-07	685753.06	124683.15	-0.000102813196	124686.305	685752.44	0.00011322936
0	0.57814354	0.57814085	-1.0025544e-10	0.017677676	0.017677676	0	109775.01	109774.49	-1.8762277e-05	685994.7	123403.21	-0.00014017963	123406.375	685994.06	2.2157918e-05
0	0.5773964	0.57739383	1.9934887e-10	0.017324107	0.017324107	0	109633.15	109632.64	3.394345e-05	686235	122116.91	0.0001888983	122120.055	686234.4	0.00013394316
0	0.576643	0.57664037	-3.4756376e-10	0.016970549	0.016970549	0	109490.086	109489.6	-6.344831e-05	686474.44	120822.72	-0.00038082476	120825.85	686473.8	-0.000114596645
0	0.57588345	0.5758808	-2.4690003e-10	0.016617034	0.016617034	0	109345.875	109345.36	-4.7341175e-05	686712.75	119520.95	-0.00035739827	119524.1	686712.1	-1.5478292e-05
0	0.57511836	0.5751157	-2.9823055e-10	0.016263476	0.016263476	0	109200.61	109200.08	-5.9021535e-05	686949.9	118212.66	-0.00027800098	118215.81	686949.25	-0.00013010546
0	0.5743463	0.57434374	-4.887938e-10	0.01590991	0.01590991	0	109054.016	109053.52	-9.4166484e-05	687186.06	116895.75	-0.00041047562	116898.875	687185.56	-0.00025411783
0	0.57356864	0.57356596	-5.078804e-10	0.015556336	0.015556336	0	108906.336	108905.84	-9.785764e-05	687420.8	115572.055	-0.00042499162	115575.17	687420.3	-0.0002979244
0	0.5727848	0.5727822	-4.68754e-10	0.015202784	0.015202784	0	108757.53	108757.02	-8.757601e-05	687654.4	114241.23	-0.00040380677	114244.33	687653.94	-0.00026797218
0	0.57199436	0.5719918	-1.7143101e-10	0.014849219	0.014849219	0	108607.43	108606.945	-2.5176445e-05	687886.75	112902.33	-0.00010668715	112905.445	687886.2	-0.00011962317
0	0.5711977	0.5711951	-6.3452736e-11	0.014495703	0.014495703	0	108456.16	108455.68	-1.6655646e-05	688117.7	111555.89	-0.00014899483	111558.99	688117.25	6.8062705e-05
0	0.57039464	0.5703921	-9.19151e-11	0.01414215	0.01414215	0	108303.68	108303.2	-1.9801191e-05	688347.44	110201.99	-0.00016983572	110205.1	688346.94	3.8879643e-05
0	0.56958485	0.56958234	-3.266922e-11	0.013788582	0.013788582	0	108149.92	108149.44	-7.0523247e-06	688575.8	108839.98	-0.00021575722	108843.05	688575.25	0.00016588319
0	0.56876886	0.5687663	-4.1769777e-10	0.013435014	0.013435014	0	107994.98	107994.516	-7.661182e-05	688802.56	107470.76	-0.0003539724	107473.81	688802.1	-0.00021345144
0	0.5679458	0.56794333	-3.3637304e-10	0.01308146	0.01308146	0	107838.71	107838.23	-6.693067e-05	689028.1	106092.92	-0.00040406056	106095.95	689027.7	-6.631498e-05
0	0.56711614	0.5671137	-2.2700354e-10	0.012727938	0.012727938	0	107681.19	107680.7	-4.6799716e-05	689252.2	104707.35	-0.0002792895	104710.39	689251.8	-3.95535e-05
0	0.5662797	0.5662773	-3.0800884e-10	0.012374373	0.012374373	0	107522.37	107521.91	-5.9421935e-05	689474.6	103313.9	-0.00029692857	103316.93	689474.3	-9.4211035e-05
0	0.565436	0.56543356	-1.4866776e-10	0.012020823	0.012020823	0	107362.16	107361.71	-3.2395772e-05	689695.8	101911.6	-0.00021932075	101914.63	689695.4	2.3766357e-05
0	0.564586	0.56458366	-1.00304445e-10	0.011667253	0.011667253	0	107200.766	107200.31	-2.0184767e-05	689915.2	100502.266	-0.00011754022	100505.26	689914.8	-1.2378786e-05
0	0.5637285	0.5637262	-2.1337909e-10	0.011313708	0.011313708	0	107037.97	107037.51	-4.3579676e-05	690133	99084.06	-0.00020660977	99087.04	690132.56	-6.918113e-05
0	0.56286484	0.5628625	-3.6193967e-10	0.010960145	0.010960145	0	106873.96	106873.52	-6.72573e-05	690348.94	97658.85	-0.0005697546	97661.83	690348.56	4.9384467e-05
0	0.5619922	0.56199	-2.4559269e-10	0.010606605	0.010606605	0	106708.29	106707.86	-4.6611938e-05	690563.6	96222.67	-0.00025408345	96225.63	690563.25	-8.9033325e-05
0	0.5611136	0.56111115	-4.8798887e-10	0.010253061	0.010253061	0	106541.42	106540.98	-8.989482e-05	690776.25	94779.695	-0.00054727006	94782.625	690776	-0.00015864136
0	0.56022733	0.5602251	-2.582868e-10	0.009899497	0.009899497	0	106373.17	106372.734	-4.700381e-05	690987.1	93328.3	-0.00033120209	93331.22	690986.8	-1.7866416e-05
0	0.55933344	0.5593313	-2.0838331e-10	0.0095459325	0.0095459325	0	106203.45	106203.02	-4.055036e-05	691196.3	91867.766	-0.00027084685	91870.67	691196	-1.0726673e-05
0	0.5584322	0.55843014	-2.1568622e-10	0.009192389	0.009192389	0	106032.336	106031.92	-4.2376287e-05	691403.44	90398.945	-0.0003853385	90401.84	691403.1	8.664773e-05
0	0.5575236	0.5575215	-6.1472305e-10	0.008838838	0.008838838	0	105859.805	105859.375	-0.0001122582	691608.7	88921.53	-0.0004763386	88924.39	691608.44	-0.00034912836
0	0.5566072	0.5566051	-3.773123e-12	0.008485274	0.008485274	0	105685.8	105685.39	-2.8069476e-06	691812.06	87435.18	-6.7935915e-05	87438.04	691811.9	4.808388e-05
0	0.5556825	0.5556803	-1.8352259e-10	0.008131738	0.008131738	0	105510.195	105509.805	-3.6348396e-05	692013.5	85939.14	-0.0001810426	85941.96	692013.25	-8.367543e-05
0	0.5547505	0.55474836	-4.0706327e-10	0.007778168	0.007778168	0	105333.25	105332.85	-7.5393036e-05	692212.75	84435.17	-0.00038693557	84437.984	692212.56	-0.00018329517
0	0.5538104	0.5538083	-4.805901e-10	0.0074246093	0.0074246093	0	105154.766	105154.35	-9.101424e-05	692409.94	82921.9	-0.00039044893	82924.68	692409.75	-0.00031842288