# t (s)	mx ()	my ()	mz ()	B_extx (T)	B_exty (T)	B_extz (T)	m_fullx (A/m)	m_fully (A/m)	m_fullz (A/m)	m_full.region1x (A/m)	m_full.region1y (A/m)	m_full.region1z (A/m)	m_full.region2x (A/m)	m_full.region2y (A/m)	m_full.region2z (A/m)
0	0.63749653	0.6374968	-7.4937494e-11	0.070710704	0.070710704	0	192723.17	192723.23	-2.1834481e-05	642953.4	248041.05	2.6000536e-05	255430.28	638520.94	-0.00011932126
0	0.63726455	0.63726485	-1.294497e-10	0.07035722	0.07035722	0	192653.03	192653.14	-3.83128e-05	643102.4	247562.27	-9.980319e-05	254965.81	638665.5	-8.120091e-05
0	0.63702756	0.63702786	-5.1484168e-11	0.07000352	0.07000352	0	192581.38	192581.45	-1.4983555e-05	643254.06	247073.66	-1.6134796e-05	254491.81	638812.7	-5.2576546e-05
0	0.63678926	0.6367896	-6.205202e-11	0.06965005	0.06965005	0	192509.38	192509.44	-1.6154629e-05	643405.75	246583.31	2.7573875e-05	254016.16	638959.8	-9.582848e-05
0	0.6365505	0.6365508	-8.908088e-11	0.06929643	0.06929643	0	192437.19	192437.28	-2.8507126e-05	643557.1	246092.5	-0.00010219442	253540.05	639106.56	-3.717773e-05
0	0.6363107	0.63631105	-1.2044375e-10	0.068942994	0.068942994	0	192364.67	192364.75	-3.630018e-05	643708.6	245600.08	-9.657531e-05	253062.34	639253.6	-7.098764e-05
0	0.63606906	0.63606936	-1.0178547e-10	0.06858929	0.06858929	0	192291.61	192291.73	-2.9762194e-05	643860.5	245104.78	-4.2525484e-05	252581.86	639400.9	-9.690859e-05
0	0.63582665	0.6358269	-3.6111326e-11	0.06823583	0.06823583	0	192218.36	192218.44	-1.15779385e-05	644012.2	244608.47	3.9153325e-05	252100.42	639548.06	-8.661736e-05
0	0.63558346	0.6355838	-4.6063816e-11	0.067882195	0.067882195	0	192144.84	192144.95	-1.3918202e-05	644163.6	244111.38	-3.425094e-05	251618.19	639694.94	-2.5910671e-05
0	0.63533896	0.6353393	-4.0682062e-11	0.06752872	0.06752872	0	192070.9	192070.98	-1.2248445e-05	644315.3	243612.05	-1.9276109e-05	251133.78	639842.1	-3.0572162e-05
0	0.6350932	0.6350935	-5.4649712e-11	0.06717502	0.06717502	0	191996.61	191996.72	-1.6713198e-05	644467.06	243110.88	6.15564e-05	250647.62	639989.4	-0.00013075008
0	0.63484687	0.63484716	-1.1090935e-10	0.066821605	0.066821605	0	191922.14	191922.23	-3.5501154e-05	644618.7	242609.11	-0.00015678634	250160.83	640136.3	-2.0356441e-05
0	0.6345984	0.63459873	-3.796614e-11	0.066468135	0.066468135	0	191847.06	191847.12	-8.798005e-06	644770.75	242103.94	2.2242544e-05	249670.81	640283.75	-6.3386404e-05
0	0.6343497	0.6343498	-4.4447394e-11	0.06611443	0.06611443	0	191771.83	191771.9	-1.3269497e-05	644922.25	241598.62	2.1425614e-05	249180.64	640430.8	-7.9393234e-05
0	0.63409954	0.63409984	-1.1993789e-10	0.065760985	0.065760985	0	191696.2	191696.28	-3.586468e-05	645073.94	241091.45	2.5720126e-06	248688.58	640578	-0.00016188623
0	0.63384813	0.6338485	-8.102341e-11	0.06540732	0.06540732	0	191620.22	191620.3	-2.4512698e-05	645225.8	240582.34	-1.6818127e-05	248194.72	640725.2	-9.4321e-05
0	0.6335958	0.6335962	-1.1545207e-10	0.0650539	0.0650539	0	191543.92	191544.03	-3.676046e-05	645377.44	240071.9	3.451341e-05	247699.6	640872.3	-0.00017948089
0	0.633342	0.63334244	-5.39435e-11	0.064700216	0.064700216	0	191467.23	191467.33	-1.9182358e-05	645529.3	239559.4	-3.160022e-05	247202.39	641019.6	-4.501857e-05
0	0.63308734	0.63308775	-1.0694854e-10	0.06434676	0.06434676	0	191390.22	191390.34	-3.257889e-05	645681	239045.64	-8.4415e-05	246704	641166.75	-7.126453e-05
0	0.63283116	0.6328314	-9.151188e-11	0.0639931	0.0639931	0	191312.77	191312.86	-2.7551183e-05	645833.06	238529.34	-3.932631e-05	246203.14	641314.1	-8.884147e-05
0	0.63257396	0.6325742	-8.124566e-11	0.06363964	0.06363964	0	191234.98	191235.11	-2.5334946e-05	645984.6	238012.02	4.6937453e-07	245701.3	641461.3	-0.000107324915
0	0.6323159	0.6323162	-5.7775014e-11	0.06328595	0.06328595	0	191157.02	191157.06	-1.7193208e-05	646136.2	237493.62	-1.57344e-05	245198.4	641608.4	-6.208565e-05
0	0.6320561	0.6320564	-1.00672394e-10	0.0629325	0.0629325	0	191078.47	191078.56	-2.8352217e-05	646288.2	236972.4	-3.3720342e-05	244692.81	641755.6	-0.00010582635
0	0.63179564	0.63179594	-4.749565e-11	0.06257904	0.06257904	0	190999.72	190999.8	-1.4459183e-05	646439.7	236450.6	-5.283461e-05	244186.61	641902.7	-9.594561e-06
0	0.63153344	0.6315337	-9.514252e-11	0.062225346	0.062225346	0	190920.47	190920.55	-2.8544066e-05	646591.5	235926.08	5.725574e-05	243677.73	642050.06	-0.00017889212
0	0.63127047	0.63127077	-1.4988438e-11	0.06187191	0.06187191	0	190840.95	190841.06	-3.7154314e-06	646743.06	235400.69	-1.02521535e-05	243168.11	642196.94	-1.4360839e-05
0	0.6310059	0.63100624	-7.174882e-11	0.061518222	0.061518222	0	190760.95	190761.06	-2.191247e-05	646894.9	234872.77	4.059627e-05	242655.95	642344.2	-0.00013610908
0	0.6307402	0.6307405	-3.7548006e-11	0.061164826	0.061164826	0	190680.64	190680.72	-1.3400954e-05	647046.5	234343.39	6.2252264e-05	242142.4	642491.3	-0.00010458005
0	0.6304738	0.63047403	-6.8152296e-11	0.060811136	0.060811136	0	190600.08	190600.16	-1.8607654e-05	647197.94	233813.17	-1.718688e-05	241628.08	642638.2	-6.768464e-05
0	0.6302053	0.6302055	-1.1536449e-10	0.060457677	0.060457677	0	190518.9	190519.02	-3.5411707e-05	647349.75	233279.69	-4.8971753e-05	241110.56	642785.44	-0.00011702988
0	0.6299364	0.62993664	-8.426536e-11	0.06010401	0.06010401	0	190437.61	190437.73	-2.7150769e-05	647501	232746.08	-3.3430454e-06	240592.89	642932.3	-0.000118580545
0	0.6296654	0.6296657	-2.5779223e-11	0.05975055	0.05975055	0	190355.72	190355.83	-5.74221e-06	647652.75	232209.27	4.0007024e-05	240072.14	643079.4	-5.993726e-05
0	0.62939274	0.6293931	-2.602067e-10	0.059396874	0.059396874	0	190273.31	190273.4	-8.026058e-05	647804.6	231669.86	6.880788e-05	239548.9	643226.75	-0.00043173277
0	0.6291206	0.62912077	-8.226413e-11	0.059043404	0.059043404	0	190190.98	190191.11	-2.3939758e-05	647955.6	231131.84	1.1533783e-06	239026.98	643373.06	-0.00011866723
0	0.62884617	0.6288465	4.94362e-12	0.05868994	0.05868994	0	190108.1	190108.17	-1.804065e-07	648106.9	230590.62	6.998936e-05	238501.92	643520	-6.0882525e-05
0	0.6285706	0.62857103	-5.0372935e-12	0.05833627	0.05833627	0	190024.77	190024.84	-1.3302443e-06	648258.3	230047.47	9.149033e-05	237975.05	643666.75	-9.125862e-05
0	0.6282935	0.6282938	-7.359671e-11	0.057982814	0.057982814	0	189940.97	189941.06	-2.230278e-05	648409.7	229502.1	4.117226e-05	237445.98	643813.56	-0.00014198566
0	0.62801504	0.62801534	-4.1700813e-11	0.057629142	0.057629142	0	189856.81	189856.89	-1.1545539e-05	648560.9	228955.02	-4.0355244e-05	236915.25	643960.4	-1.4449301e-05
0	0.6277358	0.6277361	-9.9930154e-11	0.057275668	0.057275668	0	189772.39	189772.47	-2.6732741e-05	648712	228406.88	2.3572642e-05	236383.5	644106.94	-0.00015137435
0	0.62745464	0.6274549	-1.0273603e-10	0.056922063	0.056922063	0	189687.36	189687.47	-3.270906e-05	648863.25	227855.89	-3.8618484e-05	235849.02	644253.6	-0.000116089825
0	0.62717247	0.62717265	-2.7998296e-11	0.0565686	0.0565686	0	189602.05	189602.16	-8.526422e-06	649014.44	227303.64	1.9075107e-05	235313.34	644400.1	-5.4617813e-05
0	0.6268887	0.62688905	-5.952785e-11	0.056214936	0.056214936	0	189516.28	189516.39	-1.9176345e-05	649165.5	226749.27	1.8872731e-06	234775.52	644546.75	-8.7212466e-05
0	0.6266043	0.6266046	1.3227531e-11	0.05586146	0.05586146	0	189430.31	189430.4	4.620447e-06	649316.1	226194.3	5.3039672e-05	234237.14	644692.94	-1.7862934e-05
0	0.6263179	0.6263182	-1.1193111e-11	0.055507805	0.055507805	0	189343.75	189343.84	-3.0083752e-06	649467.1	225636.11	6.645453e-05	233695.66	644839.3	-7.6325145e-05
0	0.6260303	0.6260307	-1.3182563e-10	0.055154327	0.055154327	0	189256.78	189256.89	-4.0308925e-05	649618	225076.6	-2.8584478e-05	233152.84	644985.7	-0.00015787942
0	0.6257411	0.6257414	-3.9055157e-12	0.054800846	0.054800846	0	189169.38	189169.45	-4.0372665e-06	649768.9	224514.48	-2.5739151e-05	232607.61	645132.06	9.785074e-06
0	0.62545085	0.625451	-3.2338222e-11	0.05444718	0.05444718	0	189081.56	189081.69	-9.476844e-06	649919.56	223951.11	-2.4051284e-05	232061.06	645278.25	-2.0115034e-05
0	0.62515944	0.62515974	-5.952041e-11	0.054093722	0.054093722	0	188993.52	188993.58	-2.0383473e-05	650070.06	223386.48	5.1818173e-05	231513.33	645424.1	-0.00013487239
0	0.62486595	0.62486625	-5.457995e-11	0.053740054	0.053740054	0	188904.78	188904.89	-1.8163151e-05	650220.7	222818.64	-2.2498865e-05	230962.44	645570.3	-5.3244425e-05
0	0.62457174	0.624572	-4.383014e-11	0.053386588	0.053386588	0	188815.84	188815.94	-9.853752e-06	650371.06	222249.92	8.478311e-06	230410.75	645716.1	-5.7269e-05
0	0.6242761	0.6242764	-9.9179304e-11	0.053032987	0.053032987	0	188726.47	188726.56	-2.8974026e-05	650521.2	221679.64	-2.2356691e-05	229857.55	645861.8	-0.000116796706
0	0.62397903	0.62397933	-5.3115824e-11	0.05267951	0.05267951	0	188636.67	188636.77	-1.5838863e-05	650671.44	221107.16	-3.0051531e-05	229302.17	646007.44	-3.8074402e-05
0	0.6236798	0.6236801	-1.0198411e-10	0.05232584	0.05232584	0	188546.2	188546.3	-3.120292e-05	650821.8	220531.34	-5.9261293e-07	228743.61	646153.3	-0.00013843829
0	0.62338006	0.6233804	-1.895087e-11	0.05197238	0.05197238	0	188455.6	188455.69	-5.0949848e-06	650971.6	219955.44	3.750133e-05	228184.94	646298.7	-5.1030085e-05
0	0.62307864	0.623079	-7.1477005e-11	0.051618718	0.051618718	0	188364.48	188364.58	-1.7543929e-05	651121.44	219377.16	-3.0929023e-05	227623.95	646444	-6.403341e-05
0	0.62277585	0.6227761	-5.4169783e-11	0.05126525	0.05126525	0	188272.94	188273.03	-1.5662485e-05	651271.25	218796.9	-3.612306e-05	227061.03	646589.3	-3.792155e-05
0	0.6224711	0.6224714	-9.134134e-11	0.05091175	0.05091175	0	188180.81	188180.89	-2.6423484e-05	651421.1	218213.8	-2.8260485e-05	226495.4	646734.7	-9.2839444e-05
0	0.6221654	0.6221657	-2.8577361e-11	0.0505581	0.0505581	0	188088.34	188088.45	-6.650097e-06	651570.7	217629.55	6.684123e-05	225928.62	646879.7	-9.846962e-05
0	0.62185854	0.62185884	-4.6620742e-11	0.050204627	0.050204627	0	187995.58	187995.66	-1.330685e-05	651719.94	217044	-1.7301762e-05	225360.6	647024.56	-4.6588637e-05
0	0.6215494	0.6215497	-8.6817636e-11	0.049850974	0.049850974	0	187902.16	187902.25	-2.5442216e-05	651869.44	216455.23	-2.2820932e-05	224789.45	647169.44	-9.718944e-05
0	0.62123936	0.6212397	-6.791378e-11	0.049497493	0.049497493	0	187808.45	187808.55	-2.0899437e-05	652018.5	215865.4	-2.828028e-05	224217.28	647314.2	-6.8587084e-05
0	0.62092775	0.620928	-1.9578809e-11	0.049143914	0.049143914	0	187714.19	187714.27	-3.24292e-06	652167.6	215273.22	5.426695e-05	223642.77	647458.75	-6.587793e-05
0	0.6206142	0.62061447	-5.0569247e-11	0.04879043	0.04879043	0	187619.42	187619.52	-1.4527596e-05	652316.7	214678.44	-1.0599861e-05	223065.8	647603.4	-4.98464e-05
0	0.6202997	0.62030005	-7.717802e-11	0.04843677	0.04843677	0	187524.39	187524.47	-2.42951e-05	652465.25	214082.88	4.4956145e-05	222488.05	647747.5	-0.00013876303
0	0.61998343	0.6199836	-5.411542e-11	0.04808329	0.04808329	0	187428.7	187428.83	-1.5378948e-05	652614	213484.34	1.965663e-05	221907.44	647891.8	-8.971154e-05
0	0.6196651	0.6196653	-4.329495e-11	0.04772965	0.04772965	0	187332.52	187332.56	-1.4223976e-05	652762.75	212883.05	7.286575e-05	221324.16	648036.1	-0.00012551792
0	0.61934614	0.6193464	-9.10982e-11	0.047376156	0.047376156	0	187236.05	187236.16	-2.972956e-05	652911.06	212281.4	-5.5823977e-05	220740.5	648179.9	-8.576134e-05
0	0.619025	0.61902535	-4.291731e-11	0.04702266	0.04702266	0	187139.02	187139.12	-1.4540635e-05	653059.4	211676.72	2.0826606e-05	220153.9	648323.8	-8.246691e-05
0	0.6187027	0.618703	-5.5180235e-11	0.046669014	0.046669014	0	187041.55	187041.66	-1.2926907e-05	653207.44	211070.47	-8.217202e-06	219565.8	648467.4	-6.0533297e-05
0	0.618379	0.6183794	-5.198918e-11	0.046315536	0.046315536	0	186943.75	186943.81	-1.3869564e-05	653355.2	210462.62	2.4733861e-05	218976.1	648610.75	-7.921291e-05
0	0.6180532	0.61805356	-2.3197024e-11	0.045961887	0.045961887	0	186845.19	186845.28	-8.506363e-06	653503.1	209851.42	1.3838959e-05	218383.22	648754.1	-4.963353e-05
0	0.6177263	0.61772656	-4.15268e-11	0.045608394	0.045608394	0	186746.39	186746.48	-1.3173606e-05	653650.56	209239.31	2.3647252e-05	217789.4	648897.2	-7.330142e-05
0	0.61739767	0.61739796	-8.703336e-11	0.04525483	0.04525483	0	186647.06	186647.12	-2.4432924e-05	653797.94	208624.77	-2.7320539e-05	217193.25	649040.2	-8.475767e-05
0	0.6170675	0.6170679	-5.6063845e-11	0.044901334	0.044901334	0	186547.22	186547.31	-1.7938213e-05	653945.06	208008.23	-2.8562901e-05	216595.14	649182.9	-5.099753e-05
0	0.6167357	0.61673594	-1.7815974e-11	0.044547696	0.044547696	0	186446.88	186446.97	-7.872028e-06	654092.1	207389.38	-3.2767402e-06	215994.8	649325.5	-3.0520994e-05
0	0.61640215	0.6164024	-5.6076338e-11	0.04419421	0.04419421	0	186346.05	186346.14	-1.5919923e-05	654239	206768.33	8.517398e-06	215392.34	649467.94	-7.598127e-05
0	0.616067	0.6160673	-1.6490066e-11	0.04384058	0.04384058	0	186244.73	186244.8	-7.079151e-06	654385.8	206145.23	1.4231728e-05	214787.89	649610.25	-3.5579178e-05
0	0.61572975	0.61573005	-1.6220015e-11	0.043487065	0.043487065	0	186142.81	186142.88	-6.422219e-06	654532.4	205519.27	1.9936067e-05	214180.62	649752.6	-4.4494103e-05
0	0.61539155	0.61539173	-2.6555518e-11	0.04313356	0.04313356	0	186040.55	186040.61	-9.716386e-06	654678.6	204892.17	4.6726538e-05	213572.31	649894.3	-9.275965e-05
0	0.61505157	0.61505187	-5.234111e-11	0.042779934	0.042779934	0	185937.77	185937.86	-1.4600704e-05	654824.6	204262.9	-2.2119402e-05	212961.88	650035.94	-5.6246176e-05
0	0.6147095	0.6147098	-5.2295456e-11	0.04242642	0.04242642	0	185834.38	185834.47	-1.4271235e-05	654970.56	203630.69	3.6327405e-05	212348.55	650177.6	-9.476228e-05
0	0.61436635	0.61436665	-7.4939714e-11	0.04207281	0.04207281	0	185730.62	185730.73	-2.5189911e-05	655116.1	202997.27	-4.2295735e-05	211734.08	650318.9	-7.214666e-05
0	0.61402136	0.6140216	-6.3893744e-11	0.041719295	0.041719295	0	185626.34	185626.39	-1.9134577e-05	655261.56	202361.36	-2.9803654e-05	211117.2	650459.94	-5.5657452e-05
0	0.6136747	0.613675	-3.9336187e-11	0.041365758	0.041365758	0	185521.53	185521.61	-1.1982046e-05	655406.75	201723.42	5.3109157e-05	210498.38	650600.7	-0.000103677936
0	0.61332625	0.61332655	-7.66055e-12	0.041012242	0.041012242	0	185416.19	185416.3	-1.2717903e-06	655551.7	201083.19	5.6375236e-05	209877.28	650741.25	-5.355494e-05
0	0.6129762	0.6129765	-5.4180327e-11	0.040658627	0.040658627	0	185310.36	185310.47	-1.3808189e-05	655696.44	200440.78	2.2822562e-05	209254.11	650881.6	-8.6325796e-05
0	0.6126239	0.6126242	-7.1377966e-11	0.040305126	0.040305126	0	185203.89	185203.97	-2.164511e-05	655841.06	199795.3	-1.0700317e-05	208627.94	651022	-9.231499e-05
0	0.6122707	0.612271	-6.4566914e-11	0.03995151	0.03995151	0	185097.1	185097.19	-1.870325e-05	655985.2	199149.16	-2.4875975e-05	208001.08	651161.8	-7.640418e-05
0	0.61191493	0.6119152	-1.832482e-11	0.039597988	0.039597988	0	184989.5	184989.6	-4.7506073e-06	656129.44	198499.1	-5.7912152e-06	207370.45	651301.7	-1.2970474e-05
0	0.6115582	0.61155844	-4.4363224e-12	0.03924446	0.03924446	0	184881.72	184881.78	-4.3535525e-07	656273.1	197848.34	7.9269485e-05	206739.25	651441	-8.281004e-05
0	0.6111991	0.6111994	-5.1563285e-11	0.03889085	0.03889085	0	184773.12	184773.2	-1.7735027e-05	656416.6	197194.27	-1.7271754e-05	206104.69	651580.3	-5.771925e-05
0	0.6108382	0.61083835	-4.4391744e-11	0.03853732	0.03853732	0	184664	184664.08	-1.3035973e-05	656560.1	196537.78	-3.2391574e-05	205467.83	651719.3	-3.4138346e-05
0	0.61047614	0.61047643	-3.7628168e-11	0.03818373	0.03818373	0	184554.56	184554.66	-1.2220096e-05	656702.94	195880.27	1.6867318e-05	204830	651857.9	-7.119949e-05
0	0.6101113	0.6101116	-5.7975014e-11	0.0378302	0.0378302	0	184444.28	184444.38	-1.5475765e-05	656845.8	195218.83	-1.3111953e-05	204188.36	651996.5	-6.23154e-05
0	0.60974556	0.60974586	-2.7523322e-11	0.03747659	0.03747659	0	184333.7	184333.77	-9.9858835e-06	656988.25	194556.39	4.8723928e-06	203545.75	652134.6	-5.1573614e-05
0	0.6093779	0.6093783	-7.415113e-11	0.037123155	0.037123155	0	184222.55	184222.66	-2.2143122e-05	657130.4	193891.75	-1.3957157e-05	202900.97	652272.44	-8.8970155e-05
0	0.6090079	0.60900825	-4.6964908e-11	0.036769558	0.036769558	0	184110.69	184110.78	-1.3498325e-05	657272.25	193223.77	-1.369896e-05	202252.95	652410.25	-4.398645e-05
0	0.6086368	0.6086371	-2.4217656e-11	0.036416043	0.036416043	0	183998.53	183998.6	-6.3539505e-06	657413.7	192554.81	3.079515e-05	201604.03	652547.4	-5.688499e-05
0	0.6082632	0.6082635	-4.802209e-11	0.036062438	0.036062438	0	183885.56	183885.62	-1.3835371e-05	657555.2	191882.23	-2.629198e-05	200951.56	652684.6	-3.7221937e-05
0	0.6078881	0.6078884	-7.789815e-11	0.035708897	0.035708897	0	183772.16	183772.25	-2.3581539e-05	657696.06	191208.03	-3.7293292e-05	200297.53	652821.25	-6.898872e-05
0	0.6075109	0.6075112	-7.964304e-11	0.035355352	0.035355352	0	183658.14	183658.23	-2.4507333e-05	657836.9	190531.22	-6.866241e-05	199640.97	652957.8	-5.0360843e-05
0	0.6071318	0.607132	-5.3325934e-11	0.03500176	0.03500176	0	183543.53	183543.61	-1.504128e-05	657977.3	189851.69	1.3958225e-05	198981.75	653094.06	-8.472518e-05
0	0.6067512	0.60675144	-5.3991582e-11	0.034648214	0.034648214	0	183428.48	183428.56	-1.4077815e-05	658117.2	189170.77	1.1687118e-05	198321.23	653229.7	-8.093757e-05
0	0.606368	0.6063683	-2.940794e-11	0.034294646	0.034294646	0	183312.61	183312.7	-8.518441e-06	658257.06	188486.12	3.8764952e-05	197657.08	653365.5	-7.716461e-05
0	0.60598344	0.60598373	-5.184666e-11	0.033941098	0.033941098	0	183196.36	183196.45	-1.4697142e-05	658396.5	187800.08	1.3933017e-05	196991.55	653500.6	-7.878296e-05
0	0.6055965	0.6055968	-5.4580455e-11	0.03358751	0.03358751	0	183079.38	183079.48	-1.6389595e-05	658535.7	187110.95	-4.6173936e-06	196323.03	653635.6	-6.9139605e-05
0	0.60520786	0.60520816	-5.8468966e-11	0.033234067	0.033234067	0	182961.92	182961.98	-1.887248e-05	658674.44	186419.69	4.561958e-06	195652.44	653770.1	-8.329429e-05
0	0.60481745	0.60481775	-4.8069652e-11	0.032880493	0.032880493	0	182843.88	182843.95	-1.339432e-05	658812.7	185726.36	4.145663e-06	194979.84	653904.4	-7.1784285e-05
0	0.6044247	0.60442513	-5.601799e-11	0.03252695	0.03252695	0	182725.17	182725.25	-1.5372607e-05	658950.9	185029.98	-2.9606552e-05	194304.31	654038.3	-4.7291727e-05
0	0.6040303	0.60403067	-6.577426e-11	0.03217338	0.03217338	0	182605.92	182606.05	-1.85458e-05	659088.44	184331.73	1.7794908e-05	193626.95	654171.75	-9.616818e-05
0	0.6036342	0.60363454	-8.7566274e-11	0.03181982	0.03181982	0	182486.19	182486.28	-2.7269634e-05	659225.6	183631.52	-8.926275e-05	192947.66	654304.8	-3.9485192e-05
0	0.603235	0.60323524	-6.1924646e-11	0.03146625	0.03146625	0	182365.47	182365.56	-2.1641616e-05	659362.75	182926.61	-2.0445654e-05	192263.88	654437.9	-7.141506e-05
0	0.60283464	0.602835	-4.9349465e-11	0.031112673	0.031112673	0	182244.47	182244.55	-1.37424e-05	659499.3	182221.14	-2.8551864e-05	191579.5	654570.3	-3.5226527e-05
0	0.6024321	0.6024324	-3.970358e-11	0.030759111	0.030759111	0	182122.75	182122.84	-1.0984572e-05	659635.5	181512.66	7.2121666e-06	190892.17	654702.4	-6.0763305e-05
0	0.6020281	0.6020284	-7.01266e-11	0.030405568	0.030405568	0	182000.64	182000.7	-1.9532912e-05	659771.1	180802.73	1.6012955e-05	190203.55	654833.94	-0.00010206599
0	0.60162127	0.60162157	-1.5421279e-11	0.030052004	0.030052004	0	181877.66	181877.73	-5.701677e-06	659906.5	180089.06	2.6270556e-05	189511.19	654965.2	-5.0331382e-05
0	0.60121256	0.60121286	-1.3057037e-10	0.029698437	0.029698437	0	181754.08	181754.17	-3.749467e-05	660041.5	179373.03	-4.6255067e-05	188816.61	655096.25	-0.00013185579
0	0.60080147	0.60080177	-3.2852374e-11	0.02934497	0.02934497	0	181629.8	181629.89	-1.1005945e-05	660176.2	178653.84	-1.4669444e-06	188118.9	655226.9	-4.7723606e-05
0	0.60038865	0.6003889	-1.5032482e-11	0.028991407	0.028991407	0	181504.95	181505.08	-8.1022e-06	660310.3	177932.83	2.396903e-05	187419.44	655357	-5.88227e-05
0	0.5999741	0.5999743	-5.55834e-11	0.028637834	0.028637834	0	181379.64	181379.73	-1.574243e-05	660443.94	177209.92	-5.2586816e-05	186718.19	655486.5	-1.826681e-05
0	0.59955674	0.59955704	-6.955519e-11	0.0282843	0.0282843	0	181253.5	181253.56	-2.1103699e-05	660577.4	176483.28	-5.6244156e-05	186013.27	655615.94	-3.7926744e-05
0	0.59913754	0.59913784	-4.7539937e-11	0.02793073	0.02793073	0	181126.78	181126.84	-1.3422596e-05	660710.06	175754.6	-2.3552539e-05	185306.38	655744.7	-3.9119222e-05
0	0.59871626	0.5987166	-6.695436e-11	0.027577164	0.027577164	0	180999.42	180999.5	-2.1199632e-05	660842.5	175023.33	6.629153e-06	184597	655873.25	-0.000109353925
0	0.5982926	0.5982928	-5.5889057e-11	0.02722359	0.02722359	0	180871.31	180871.42	-1.5681084e-05	660974.56	174288.94	-1.9098898e-05	183884.6	656001.25	-5.8635127e-05
0	0.5978668	0.597867	-3.281789e-11	0.026870027	0.026870027	0	180742.6	180742.67	-9.4228e-06	661106.06	173552.06	2.545717e-05	183169.77	656128.8	-6.7159395e-05
0	0.59743905	0.5974393	-2.8481145e-11	0.026516493	0.026516493	0	180613.31	180613.38	-8.538622e-06	661237.06	172813.11	2.262728e-05	182452.88	656255.8	-6.500152e-05
0	0.59700954	0.59700984	-7.9046394e-11	0.02616292	0.02616292	0	180483.45	180483.52	-2.5253546e-05	661367.5	172072.14	-2.8468865e-05	181734.11	656382.3	-8.8052904e-05
0	0.5965766	0.5965768	-5.6081396e-11	0.025809359	0.025809359	0	180352.55	180352.64	-1.846502e-05	661497.75	171326.33	3.4818135e-07	181010.6	656508.8	-8.124292e-05
0	0.59614223	0.5961424	-1.3519639e-11	0.025455875	0.025455875	0	180221.23	180221.31	-2.9586001e-06	661627.4	170579.23	4.2012307e-06	180285.84	656634.3	-2.4365372e-05
0	0.59570533	0.59570557	1.5949156e-12	0.025102314	0.025102314	0	180089.16	180089.25	1.0295997e-06	661756.5	169829.06	2.696664e-05	179558.12	656759.75	-1.6336111e-05
0	0.5952661	0.59526634	-4.866563e-11	0.024748746	0.024748746	0	179956.4	179956.48	-1.4376462e-05	661885.2	169076.02	-1.8753834e-05	178827.62	656884.44	-4.145915e-05
0	0.59482473	0.59482497	-8.1572554e-11	0.024395214	0.024395214	0	179822.94	179823.03	-2.4103148e-05	662013.3	168320.47	-3.8495597e-05	178094.67	657008.7	-7.7578e-05
0	0.5943815	0.59438187	-3.4177487e-11	0.024041645	0.024041645	0	179688.95	179689.05	-1.0551563e-05	662140.75	167562.97	2.102221e-06	177359.83	657132.3	-5.032806e-05
0	0.5939359	0.5939362	-4.0494528e-11	0.023688078	0.023688078	0	179554.23	179554.31	-1.05426125e-05	662267.7	166802.53	-1.1515569e-05	176622.12	657255.56	-3.7921112e-05
0	0.5934868	0.59348696	-1.9110522e-11	0.023334507	0.023334507	0	179418.47	179418.56	-4.75436e-06	662394.5	166037.22	-2.6952024e-05	175879.72	657378.5	3.3091083e-06
0	0.5930365	0.5930367	2.0401658e-11	0.022980943	0.022980943	0	179282.38	179282.44	5.534637e-06	662520.5	165271.25	2.5712514e-05	175136.66	657500.56	2.5969798e-06
0	0.59258384	0.5925842	-4.2459248e-11	0.022627415	0.022627415	0	179145.52	179145.6	-1.22419015e-05	662645.75	164502.48	-3.4353918e-05	174390.89	657622.1	-1.9367182e-05
0	0.5921284	0.5921287	-6.5251e-11	0.022273848	0.022273848	0	179007.81	179007.9	-2.219922e-05	662770.75	163730.06	-4.642353e-05	173641.58	657743.3	-5.4517008e-05
0	0.5916709	0.59167117	-3.6627076e-11	0.02192029	0.02192029	0	178869.5	178869.58	-1.123794e-05	662895	162955.38	2.3869054e-05	172890.05	657863.8	-7.718894e-05
0	0.59121054	0.5912108	-8.109106e-11	0.02156678	0.02156678	0	178730.34	178730.44	-2.396851e-05	663018.8	162177.14	-7.103488e-05	172135.11	657984	-4.6824047e-05
0	0.59074825	0.59074855	-4.8629215e-11	0.02121321	0.02121321	0	178590.58	178590.66	-1.4750763e-05	663141.94	161396.8	-2.2633787e-05	171378.1	658103.44	-5.412269e-05
0	0.5902836	0.5902838	-6.9828167e-12	0.020859648	0.020859648	0	178450.11	178450.19	-1.7783129e-06	663264.44	160613.77	2.7550159e-05	170618.48	658222.3	-3.7944108e-05
0	0.5898163	0.58981645	-1.8581634e-11	0.020506121	0.020506121	0	178308.8	178308.88	-4.8406173e-06	663386.4	159827.34	-2.0563603e-07	169855.58	658340.56	-2.4002846e-05
0	0.5893466	0.58934677	-2.3199416e-11	0.020152563	0.020152563	0	178166.8	178166.9	-5.556355e-06	663507.75	159038.33	-4.5709632e-05	169090.19	658458.25	1.6041608e-05
0	0.58887416	0.5888745	-2.0535873e-11	0.019798994	0.019798994	0	178024.02	178024.11	-6.9385146e-06	663628.56	158246.11	-1.0023887e-05	168321.66	658575.5	-2.099334e-05
0	0.58839977	0.5884	-4.3113287e-11	0.019445425	0.019445425	0	177880.6	177880.67	-1.3010736e-05	663748.7	157451.61	-3.169254e-05	167550.92	658691.9	-2.7063415e-05
0	0.58792216	0.58792245	-1.8413656e-11	0.019091865	0.019091865	0	177736.22	177736.28	-6.202099e-06	663868.1	156653.19	-1.8396858e-07	166776.39	658807.9	-2.8165654e-05
0	0.5874427	0.5874429	-1.9149961e-11	0.018738296	0.018738296	0	177591.25	177591.34	-5.7260963e-06	663987	155852.67	-4.3576645e-07	165999.8	658923.06	-2.301599e-05
0	0.5869605	0.58696073	-5.847482e-11	0.018384779	0.018384779	0	177445.47	177445.56	-1.7919701e-05	664105.1	155049.05	-2.7601636e-05	165220.2	659037.6	-5.9653434e-05
0	0.58647555	0.5864759	-1.6310184e-11	0.018031219	0.018031219	0	177298.9	177298.98	-5.152334e-06	664222.75	154242.2	-2.9439773e-06	164437.55	659151.6	-2.2438258e-05
0	0.58598846	0.58598876	-2.013325e-11	0.017677676	0.017677676	0	177151.62	177151.73	-6.9113225e-06	664339.5	153432.9	-7.1755867e-06	163652.44	659265	-2.145907e-05
0	0.5854982	0.5854985	-4.6178155e-11	0.017324107	0.017324107	0	177003.4	177003.5	-1.448641e-05	664455.75	152619.75	-5.7528938e-05	162863.6	659377.75	-1.4275067e-05
0	0.5850052	0.58500546	-3.0394923e-11	0.016970549	0.016970549	0	176854.39	176854.47	-9.383176e-06	664571.5	151803.22	-5.1063053e-05	162071.48	659489.94	7.48583e-06
0	0.5845101	0.5845103	6.308238e-12	0.016617034	0.016617034	0	176704.69	176704.78	3.3885244e-06	664686.25	150984.69	4.337632e-05	161277.45	659601.25	-1.8811003e-05
0	0.5840121	0.5840123	-4.708522e-11	0.016263476	0.016263476	0	176554.14	176554.23	-1.08588565e-05	664800.3	150162.64	-8.223047e-06	160480	659711.8	-4.996636e-05
0	0.58351195	0.5835122	-4.8469877e-11	0.01590991	0.01590991	0	176402.95	176403.03	-1.4104851e-05	664913.5	149338.39	-1.994545e-05	159680.39	659821.8	-4.8336573e-05
0	0.5830089	0.5830091	5.522627e-12	0.015556336	0.015556336	0	176250.86	176250.94	1.0541933e-06	665026.1	148510.56	4.4554006e-05	158877.34	659931	-2.9251647e-05
0	0.58250254	0.5825028	-4.366477e-11	0.015202784	0.015202784	0	176097.8	176097.88	-1.299173e-05	665138.1	147678.84	-3.9637674e-05	158070.47	660039.6	-2.417753e-05
0	0.5819942	0.5819945	-4.6011785e-11	0.014849219	0.014849219	0	175944.11	175944.19	-1.31298875e-05	665249.3	146845.08	-2.0552468e-05	157261.67	660147.25	-4.061229e-05
0	0.5814827	0.58148307	-4.886574e-11	0.014495703	0.014495703	0	175789.5	175789.58	-1.5684049e-05	665359.6	146007.67	-1.987846e-05	156449.31	660254.5	-5.0953062e-05
0	0.58096886	0.5809691	-1.839944e-11	0.01414215	0.01414215	0	175634.14	175634.22	-3.449164e-06	665469.25	145167.5	1.1224591e-05	155634.28	660360.7	-3.4960085e-05
0	0.5804519	0.58045226	-4.54082e-11	0.013788582	0.013788582	0	175477.89	175477.95	-1.2472476e-05	665578.2	144323.89	-1.723535e-05	154815.9	660466.25	-3.539667e-05
0	0.57993203	0.5799323	-3.3599977e-11	0.013435014	0.013435014	0	175320.7	175320.77	-9.94861e-06	665686.25	143476.64	-2.0147841e-05	153993.98	660571.2	-2.4744646e-05
0	0.57940954	0.5794097	1.1456742e-11	0.01308146	0.01308146	0	175162.72	175162.81	3.8711964e-06	665793.5	142626.53	6.0080845e-05	153169.33	660675.25	-4.0593102e-05
0	0.5788841	0.57888436	-2.7644094e-11	0.012727938	0.012727938	0	175003.9	175003.98	-6.4471665e-06	665899.9	141773.19	-1.6112459e-05	152341.5	660778.44	-1.2236196e-05
0	0.57835615	0.5783563	-4.223523e-11	0.012374373	0.012374373	0	174844.28	174844.36	-1.3005665e-05	666005.44	140917.05	-1.7709846e-05	151510.98	660880.8	-4.0202962e-05
0	0.5778254	0.57782567	-2.508715e-11	0.012020823	0.012020823	0	174683.84	174683.95	-8.846969e-06	666110.25	140057.95	7.916533e-06	150677.55	660982.4	-5.060053e-05
0	0.5772913	0.57729155	-5.632114e-11	0.011667253	0.011667253	0	174522.38	174522.44	-1.7662811e-05	666214.25	139194.62	-2.6416747e-05	149840.06	661083.2	-5.6437017e-05
0	0.5767545	0.57675475	-7.8947e-11	0.011313708	0.011313708	0	174360.08	174360.17	-2.4799232e-05	666317.25	138328.45	-6.6067885e-05	148999.81	661183.25	-5.1179213e-05
0	0.57621443	0.5762147	3.226125e-12	0.010960145	0.010960145	0	174196.84	174196.89	-1.9446577e-06	666419.6	137458.45	1.5828191e-05	148155.83	661282.44	-1.5042595e-05
0	0.5756724	0.5756726	-5.0432623e-11	0.010606605	0.010606605	0	174032.94	174033.03	-1.7299973e-05	666520.75	136586.64	-4.8234466e-05	147310.1	661380.6	-3.4382334e-05
0	0.575127	0.5751272	-5.5731808e-11	0.010253061	0.010253061	0	173868.08	173868.14	-1.6790944e-05	666621.3	135710.89	-2.6780564e-05	146460.52	661478	-5.5633667e-05
0	0.5745778	0.57457805	3.6663524e-12	0.009899497	0.009899497	0	173702.06	173702.12	1.1529627e-06	666720.94	134830.5	4.8719707e-05	145606.48	661574.75	-4.0308612e-05
0	0.5740266	0.5740268	-3.9626205e-11	0.0095459325	0.0095459325	0	173535.39	173535.48	-1.2975444e-05	666819.4	133948.45	-3.29568e-05	144750.81	661670.1	-2.2399016e-05
0	0.5734716	0.5734719	-4.3248953e-11	0.009192389	0.009192389	0	173367.64	173367.72	-1.191324e-05	666917.2	133061.88	-1.9389576e-05	143890.73	661765	-3.3935237e-05
0	0.572914	0.5729143	-1.1824916e-11	0.008838838	0.008838838	0	173199.08	173199.17	-2.2223974e-06	667013.8	132172.48	3.1352003e-05	143027.98	661858.8	-3.6990055e-05
0	0.5723524	0.57235277	-3.6804865e-11	0.008485274	0.008485274	0	173029.3	173029.38	-1.0145996e-05	667109.75	131278.16	-5.862922e-06	142160.4	661951.75	-4.091186e-05
0	0.5717894	0.5717896	-2.9417576e-11	0.008131738	0.008131738	0	172859.08	172859.17	-7.323097e-06	667204.44	130383.125	-1.303206e-05	141292.11	662043.75	-2.5907684e-05
0	0.5712223	0.57122254	-4.4779264e-11	0.007778168	0.007778168	0	172687.61	172687.73	-1.34330685e-05	667298.4	129482.98	-1.850171e-05	140418.9	662134.7	-4.8531405e-05
0	0.5706518	0.5706521	-1.5251538e-11	0.0074246093	0.0074246093	0	172515.2	172515.25	-4.76366e-06	667391.3	128579.18	-6.5625653e-07	139542.16	662224.8	-2.3471826e-05
0	0.57007825	0.5700785	-2.2671797e-11	0.007071075	0.007071075	0	172341.77	172341.86	-6.9892044e-06	667483.1	127671.85	5.341324e-06	138661.94	662313.94	-3.587153e-05