# t (s)	mx ()	my ()	mz ()	B_extx (T)	B_exty (T)	B_extz (T)	m_fullx (A/m)	m_fully (A/m)	m_fullz (A/m)	m_full.region1x (A/m)	m_full.region1y (A/m)	m_full.region1z (A/m)	m_full.region2x (A/m)	m_full.region2y (A/m)	m_full.region2z (A/m)
0	0.63374376	0.6322205	-6.929033e-10	0.07071097	0.07071097	0	53580.926	53452.133	-5.982105e-05	662273.5	223200.55	-0.00045750328	225547.1	661326.94	-0.0005329676
0	0.6336182	0.63209504	-1.2116004e-10	0.070569366	0.070569366	0	53570.3	53441.523	-1.1220941e-05	662363.6	222933.9	-5.819408e-05	225281.66	661417.56	-0.00012752043
0	0.6334884	0.6319659	-1.3612145e-10	0.07042761	0.07042761	0	53559.324	53430.605	-1.2590002e-05	662456.44	222658.89	-0.00012335491	225007.53	661511.2	-8.517238e-05
0	0.6333578	0.631836	-3.4731865e-10	0.07028633	0.07028633	0	53548.293	53419.613	-3.052965e-05	662549.56	222382.64	-0.0003070267	224732.19	661605.1	-0.00019865457
0	0.63322735	0.63170606	-1.8541979e-10	0.07014479	0.07014479	0	53537.26	53408.633	-1.83427e-05	662642.56	222106.52	-0.00023082408	224456.97	661698.8	-7.3120136e-05
0	0.6330969	0.6315761	-3.2704775e-10	0.07000352	0.07000352	0	53526.227	53397.65	-2.9862485e-05	662735.3	221830.66	-0.00027029344	224182.1	661792.25	-0.00022425762
0	0.63296556	0.63144535	-3.9120637e-10	0.06986232	0.06986232	0	53515.133	53386.594	-3.5321915e-05	662828.56	221553.23	-0.0002889421	223905.52	661886.2	-0.00029594082
0	0.63283485	0.6313151	-1.2125076e-10	0.0697207	0.0697207	0	53504.074	53375.594	-1.0478556e-05	662921.06	221277.16	-2.2162227e-05	223630.4	661979.56	-0.00015118002
0	0.6327029	0.63118374	-5.880857e-11	0.06957944	0.06957944	0	53492.918	53364.477	-8.788416e-06	663014.3	220998.77	-6.649699e-05	223352.95	662073.44	-7.901294e-05
0	0.63257086	0.63105243	-2.8849495e-10	0.0694377	0.0694377	0	53481.758	53353.367	-2.357813e-05	663107.4	220720.44	-0.00018068912	223075.52	662167.3	-0.0002097004
0	0.63243896	0.63092107	-1.7123654e-10	0.069296405	0.069296405	0	53470.605	53342.273	-1.6647322e-05	663200.1	220442.62	-0.00013049036	222798.61	662260.8	-0.00014515157
0	0.63230646	0.63078916	-2.8584457e-10	0.06915487	0.06915487	0	53459.4	53331.117	-1.8121387e-05	663293.3	220163.55	-0.0001677728	222520.45	662354.6	-0.00013234449
0	0.63217306	0.63065636	-2.219783e-10	0.0690136	0.0690136	0	53448.125	53319.895	-1.9174746e-05	663386.7	219883.05	-0.00017282863	222240.8	662448.75	-0.00014472142
0	0.6320396	0.6305235	-3.234384e-10	0.06887232	0.06887232	0	53436.832	53308.656	-3.1072363e-05	663480	219602.42	-0.00025216636	221961.08	662542.9	-0.0002623443
0	0.63190603	0.6303906	-4.0516504e-10	0.06873079	0.06873079	0	53425.55	53297.426	-2.7822209e-05	663573.1	219321.94	-0.0003080537	221681.45	662636.8	-0.0001528574
0	0.6317718	0.63025683	-8.35008e-11	0.0685895	0.0685895	0	53414.195	53286.113	-8.059027e-06	663666.7	219039.95	1.7141925e-05	221400.5	662731.06	-0.00015036837
0	0.6316381	0.63012385	-3.995536e-10	0.068447776	0.068447776	0	53402.895	53274.867	-3.3225002e-05	663759.56	218759.61	-0.00030535916	221120.98	662824.7	-0.00024489066
0	0.63150305	0.62998945	-2.401367e-10	0.0683065	0.0683065	0	53391.48	53263.5	-1.63561e-05	663853.1	218476.6	-0.00026301912	220838.89	662919.06	-8.158043e-06
0	0.63136876	0.62985575	-3.4674133e-10	0.06816496	0.06816496	0	53380.117	53252.207	-2.8639755e-05	663946.06	218195.19	-0.00023051104	220558.4	663012.8	-0.0002437144
0	0.63123375	0.62972146	-2.2321396e-10	0.068023674	0.068023674	0	53368.707	53240.844	-1.3644583e-05	664039.25	217912.69	-6.848537e-05	220276.72	663106.8	-0.0001573361
0	0.6310988	0.629587	-4.641719e-10	0.067882404	0.067882404	0	53357.29	53229.48	-4.009867e-05	664132.25	217630.22	-0.0002605498	219995.14	663200.56	-0.00040325095
0	0.6309627	0.6294517	-2.7994695e-10	0.067740865	0.067740865	0	53345.793	53218.04	-2.4403971e-05	664225.6	217346.1	-0.00018397662	219711.84	663294.75	-0.00022007848
0	0.6308267	0.6293164	-1.3251505e-10	0.06759956	0.06759956	0	53334.3	53206.6	-5.8576115e-06	664319	217062.02	-0.00014936531	219428.6	663388.9	5.210243e-05
0	0.63069046	0.6291807	-1.6270989e-10	0.06745787	0.06745787	0	53322.77	53195.133	-1.5075217e-05	664412.2	216777.55	-0.00018862977	219145.05	663482.94	-6.116838e-05
0	0.63055396	0.62904495	-2.4991015e-10	0.067316584	0.067316584	0	53311.242	53183.656	-2.5720929e-05	664505.4	216493.08	-0.00018242121	218861.45	663576.9	-0.0002434083
0	0.6304171	0.6289088	-2.7290029e-10	0.067174956	0.067174956	0	53299.668	53172.137	-2.3270655e-05	664598.6	216207.78	-0.00013879845	218577.03	663670.94	-0.00024639536
0	0.6302797	0.62877196	-1.0647621e-10	0.06703376	0.06703376	0	53288.05	53160.574	-7.1802074e-06	664692.06	215921.56	1.5179039e-05	218291.7	663765.2	-0.00013387768
0	0.63014233	0.6286353	-2.8609662e-11	0.06689248	0.06689248	0	53276.426	53149.01	-1.5118964e-06	664785.3	215635.56	-5.261163e-05	218006.53	663859.25	2.7470056e-05
0	0.6300047	0.62849826	-4.643224e-10	0.06675091	0.06675091	0	53264.793	53137.438	-3.9955754e-05	664878.5	215349.45	-0.00028888218	217721.28	663953.1	-0.00037263017
0	0.62986636	0.6283607	-2.7045316e-10	0.06660963	0.06660963	0	53253.1	53125.8	-2.0403295e-05	664971.94	215061.92	-0.00017698259	217434.61	664047.5	-0.00016089494
0	0.62972695	0.6282219	-4.685555e-10	0.066467956	0.066467956	0	53241.312	53114.062	-3.788724e-05	665065.9	214772.4	-0.00026907175	217146.02	664142.2	-0.0003581811
0	0.6295883	0.62808406	-2.045802e-10	0.06632633	0.06632633	0	53229.586	53102.414	-1.678056e-05	665159.06	214484.86	-0.00010384203	216859.27	664236.2	-0.00017393268
0	0.62944925	0.6279458	-1.704101e-10	0.06618504	0.06618504	0	53217.836	53090.71	-1.4163937e-05	665252.4	214196.52	-6.7910936e-05	216571.77	664330.44	-0.00016649753
0	0.6293099	0.6278071	-2.1337555e-10	0.06604385	0.06604385	0	53206.05	53078.99	-1.9661811e-05	665345.75	213907.77	-0.00030644407	216283.84	664424.56	-1.951454e-05
0	0.6291701	0.6276679	-4.4179296e-10	0.06590254	0.06590254	0	53194.23	53067.23	-3.6746853e-05	665439.1	213618.34	-0.00026259385	215995.27	664518.75	-0.0003457834
0	0.6290303	0.62752885	-2.5492838e-10	0.065760985	0.065760985	0	53182.414	53055.47	-2.1229269e-05	665532.3	213329	-0.00023145175	215706.8	664612.8	-0.00012022919
0	0.628889	0.6273883	-3.8007575e-10	0.0656197	0.0656197	0	53170.477	53043.6	-3.137483e-05	665626.25	213037	-0.0002569925	215415.6	664707.56	-0.000262533
0	0.6287481	0.6272481	-1.6352532e-10	0.06547804	0.06547804	0	53158.555	53031.74	-1.5458809e-05	665719.75	212745.83	-0.0001831459	215125.3	664802	-7.298117e-05
0	0.6286077	0.6271085	5.7881366e-11	0.06533641	0.06533641	0	53146.688	53019.93	-3.539044e-08	665812.7	212456.05	-5.004321e-05	214836.33	664895.75	4.932537e-05
0	0.62846625	0.6269677	-1.8603148e-10	0.06519513	0.06519513	0	53134.727	53008.03	-1.6694205e-05	665906.2	212164.17	-0.0001379498	214545.3	664990.06	-0.0001384872
0	0.62832385	0.6268262	-2.045165e-10	0.06505393	0.06505393	0	53122.688	52996.062	-2.1268399e-05	666000	211870.66	-0.0002193074	214252.6	665084.7	-0.00013298845
0	0.62818146	0.6266844	-1.2505699e-10	0.06491261	0.06491261	0	53110.637	52984.082	-9.679296e-06	666093.75	211577.22	-0.00012492639	213960	665179.3	-3.5470814e-05
0	0.6280391	0.626543	-2.3001698e-10	0.064771056	0.064771056	0	53098.613	52972.113	-2.122775e-05	666187.25	211284.25	-0.0001493502	213667.81	665273.56	-0.0002020881
0	0.6278962	0.62640077	-1.7270604e-10	0.06462978	0.06462978	0	53086.523	52960.1	-1.3080129e-05	666280.7	210990.33	-0.00020910939	213374.72	665368.06	-7.750295e-06
0	0.6277537	0.6262591	-1.8279998e-10	0.06448806	0.06448806	0	53074.477	52948.113	-1.4799813e-05	666373.8	210697.45	-9.781691e-05	213082.69	665461.94	-0.00014718629
0	0.6276095	0.62611556	-1.5145991e-10	0.0643465	0.0643465	0	53062.293	52935.99	-1.8560957e-05	666467.8	210401.28	-0.00014983494	212787.33	665556.9	-0.00015750396
0	0.62746596	0.625973	-3.3394387e-10	0.064205214	0.064205214	0	53050.164	52923.926	-3.0512438e-05	666561.1	210106.84	-0.00024998502	212493.67	665651.1	-0.00025526053
0	0.62732184	0.6258296	-2.8311656e-10	0.06406398	0.06406398	0	53037.97	52911.8	-2.3869416e-05	666654.6	209811.08	-0.00024182451	212198.75	665745.5	-0.00015354392
0	0.6271771	0.6256856	-2.2269753e-10	0.063922696	0.063922696	0	53025.73	52899.633	-2.0480176e-05	666748.4	209514.42	-0.00013844109	211902.89	665840.1	-0.00020060572
0	0.6270324	0.6255418	-2.411013e-10	0.06378113	0.06378113	0	53013.5	52887.47	-2.1920747e-05	666841.9	209218.22	-0.00015643564	211607.45	665934.44	-0.00020648149
0	0.6268876	0.6253977	-1.6378097e-10	0.06363943	0.06363943	0	53001.25	52875.28	-1.5967988e-05	666935.25	208921.7	-0.0001662876	211311.73	666028.75	-9.821505e-05
0	0.62674177	0.6252527	-4.162295e-10	0.06349815	0.06349815	0	52988.926	52863.03	-3.525422e-05	667029	208623.6	-0.0003217591	211014.42	666123.3	-0.00026209126
0	0.62659544	0.6251071	-6.179659e-11	0.063356586	0.063356586	0	52976.555	52850.727	-4.6155014e-06	667122.8	208324.55	-4.7275713e-05	210716.2	666218.06	-2.9175937e-05
0	0.6264497	0.6249623	-3.6745695e-10	0.06321526	0.06321526	0	52964.23	52838.477	-2.8044553e-05	667216.06	208027.02	-0.00022599305	210419.42	666312.25	-0.00023837757
0	0.6263029	0.6248165	3.6914447e-11	0.06307407	0.06307407	0	52951.824	52826.137	3.5194619e-06	667309.9	207727.56	2.8052713e-05	210120.75	666407	3.0222836e-05
0	0.62615603	0.6246703	-1.750963e-10	0.062932774	0.062932774	0	52939.4	52813.79	-1.8956427e-05	667403.44	207427.97	-9.648782e-05	209821.92	666501.5	-0.00021724966
0	0.6260086	0.6245237	-1.1739233e-10	0.06279112	0.06279112	0	52926.938	52801.395	-3.4276643e-06	667497.2	207127.56	-5.701752e-05	209522.28	666596.1	1.8327488e-07
0	0.6258613	0.62437725	-2.611313e-10	0.06264953	0.06264953	0	52914.49	52789.01	-2.3927356e-05	667590.56	206827.78	-0.00018188173	209223.3	666690.44	-0.00021428608
0	0.6257132	0.6242301	-1.5689505e-10	0.06250824	0.06250824	0	52901.97	52776.574	-1.46402435e-05	667684.25	206526.61	-0.00011621336	208922.89	666785	-0.00012619977
0	0.625565	0.6240827	-2.8080221e-10	0.062366635	0.062366635	0	52889.438	52764.113	-1.7855975e-05	667777.9	206225.28	-0.00021630972	208622.36	666879.44	-7.954708e-05
0	0.62541604	0.6239346	-2.4788535e-10	0.06222535	0.06222535	0	52876.844	52751.586	-2.064653e-05	667871.7	205922.61	-9.106543e-05	208320.44	666974.25	-0.00025060683
0	0.62526745	0.62378687	-1.9497576e-10	0.06208415	0.06208415	0	52864.273	52739.1	-1.6128583e-05	667965	205621.02	-0.00021421192	208019.58	667068.56	-5.307348e-05
0	0.6251177	0.62363803	-3.3792313e-11	0.061942477	0.061942477	0	52851.617	52726.51	-5.909413e-07	668058.9	205317.25	-5.715714e-05	207716.61	667163.4	4.7233327e-05
0	0.62496835	0.6234897	-3.1832947e-10	0.061801177	0.061801177	0	52838.992	52713.97	-2.6351958e-05	668152.25	205014.66	-0.0003291316	207414.72	667257.7	-0.000107521904
0	0.6248181	0.62334013	-1.6354751e-10	0.061659623	0.061659623	0	52826.28	52701.324	-1.0917034e-05	668246.06	204710.05	-0.00012468547	207110.9	667352.5	-5.6179528e-05
0	0.6246678	0.6231909	1.1155303e-10	0.06151831	0.06151831	0	52813.582	52688.707	1.4018724e-05	668339.56	204406	0.00011141296	206807.58	667446.9	0.00012070942
0	0.62451714	0.62304103	-1.02252554e-10	0.06137672	0.06137672	0	52800.836	52676.043	-1.0367408e-05	668433.2	204101.25	-0.00011501548	206503.61	667541.44	-5.673474e-05
0	0.62436587	0.6228907	-2.413469e-10	0.061235435	0.061235435	0	52788.05	52663.324	-2.0122698e-05	668526.9	203795.6	-0.00019646979	206198.64	667636.06	-0.00013681913
0	0.6242146	0.6227403	-1.877014e-10	0.061094135	0.061094135	0	52775.26	52650.617	-1.3999762e-05	668620.44	203490.06	-0.00021025301	205893.88	667730.56	-2.1817652e-05
0	0.62406254	0.62258923	-1.7533236e-10	0.06095255	0.06095255	0	52762.406	52637.836	-1.5845875e-05	668714.1	203183.25	-0.00012010608	205587.75	667825.3	-0.00014225485
0	0.62391025	0.62243783	-1.4891896e-10	0.06081125	0.06081125	0	52749.523	52625.04	-1.7180626e-05	668807.8	202876.1	-8.5774336e-05	205281.38	667919.94	-0.00019856838
0	0.62375796	0.62228656	-1.6621211e-10	0.06066969	0.06066969	0	52736.664	52612.258	-1.3626639e-05	668901.2	202569.42	-0.00012258567	204975.39	668014.4	-0.0001030824
0	0.62360555	0.622135	-3.775303e-10	0.060528405	0.060528405	0	52723.77	52599.438	-3.0920706e-05	668994.56	202262.4	-0.00030839848	204669.14	668108.6	-0.00020375334
0	0.6234516	0.621982	-2.601842e-10	0.060386807	0.060386807	0	52710.75	52586.5	-1.8320845e-05	669088.56	201952.67	-0.0002666062	204360.12	668203.56	-3.7071386e-05
0	0.62329805	0.6218294	-8.522046e-11	0.060245506	0.060245506	0	52697.76	52573.6	-7.2398716e-06	669182.2	201643.9	-5.08372e-05	204052.03	668298.2	-6.9023015e-05
0	0.6231437	0.6216761	-4.9815235e-10	0.06010422	0.06010422	0	52684.72	52560.637	-3.682445e-05	669275.94	201333.89	-0.00036489218	203742.75	668393	-0.00024503938
0	0.6229894	0.62152284	-1.6985639e-10	0.05996261	0.05996261	0	52671.68	52547.68	-1.5532525e-05	669369.5	201024.27	-0.00018279042	203433.81	668487.56	-7.455476e-05
0	0.6228354	0.6213698	-1.9230745e-10	0.059821296	0.059821296	0	52658.65	52534.73	-1.802432e-05	669462.7	200715.19	-0.00017970469	203125.45	668581.7	-0.00011883903
0	0.62267965	0.621215	-2.0394268e-10	0.059679788	0.059679788	0	52645.49	52521.65	-1.6378859e-05	669556.7	200403.12	-0.0002143842	202814.08	668676.6	-5.7040455e-05
0	0.62252414	0.6210605	-2.0215606e-10	0.05953849	0.05953849	0	52632.336	52508.586	-2.1361815e-05	669650.25	200091.56	-0.00016063229	202503.2	668771.4	-0.00019305294
0	0.6223684	0.6209057	-8.222431e-11	0.059396796	0.059396796	0	52619.176	52495.5	-7.3142087e-06	669743.75	199779.88	-0.00012440106	202192.25	668865.9	3.1166355e-06
0	0.6222126	0.6207509	-1.9532607e-10	0.059255593	0.059255593	0	52606	52482.418	-1.9215331e-05	669837.06	199468.33	-0.00018232106	201881.38	668960.1	-0.00013592528
0	0.6220556	0.6205949	-9.2323774e-11	0.05911429	0.05911429	0	52592.727	52469.227	-6.215083e-06	669931	199154.47	-0.0001466975	201568.14	669055.06	4.353019e-05
0	0.6218987	0.62043905	-2.5963387e-10	0.058972668	0.058972668	0	52579.457	52456.043	-2.3910434e-05	670024.44	198841.08	-0.00025576132	201255.53	669149.6	-0.00014032239
0	0.6217416	0.620283	-1.7486833e-10	0.058831364	0.058831364	0	52566.176	52442.855	-1.1373626e-05	670117.8	198527.73	-0.00018376518	200942.8	669244	-4.806971e-06
0	0.6215838	0.62012625	-1.3549387e-10	0.05868988	0.05868988	0	52552.836	52429.6	-8.3188015e-06	670211.44	198213.1	-0.00010271435	200628.81	669338.7	-3.5125537e-05
0	0.62142575	0.61996895	-2.0284033e-10	0.05854817	0.05854817	0	52539.47	52416.31	-1.9070487e-05	670305.06	197897.89	-0.00020025224	200314.39	669433.2	-0.000115646355
0	0.621267	0.61981153	-3.2074257e-10	0.05840688	0.05840688	0	52526.05	52402.992	-2.6158963e-05	670398.75	197582.03	-0.00027837453	199999.1	669528	-0.00015495293
0	0.6211083	0.61965376	-1.5210296e-10	0.05826568	0.05826568	0	52512.625	52389.656	-1.2078444e-05	670492.2	197266.14	-0.00016068248	199683.84	669622.5	-3.948409e-05
0	0.62094903	0.6194957	-4.4521867e-10	0.058124352	0.058124352	0	52499.168	52376.29	-3.6396494e-05	670585.7	196949.7	-0.00033132057	199368.1	669716.94	-0.00027144488
0	0.6207897	0.6193374	-3.5966508e-10	0.057982735	0.057982735	0	52485.695	52362.902	-2.9649393e-05	670679	196633.12	-0.0002999116	199052.16	669811.44	-0.00019119408
0	0.62062925	0.61917794	-1.2439376e-10	0.05784144	0.05784144	0	52472.133	52349.43	-1.4404602e-05	670772.8	196314.64	-0.00010846873	198734.34	669906.25	-0.00013002708
0	0.620469	0.61901873	-3.6658837e-10	0.057699878	0.057699878	0	52458.574	52335.97	-3.2645352e-05	670866.25	195996.62	-0.0003124853	198416.97	670000.8	-0.00022819778
0	0.6203087	0.6188595	-2.3335806e-10	0.057558257	0.057558257	0	52445.023	52322.508	-2.3792725e-05	670959.5	195678.97	-0.0002599222	198099.89	670095.2	-0.00013422595
0	0.62014747	0.6186995	-2.2647097e-10	0.057416957	0.057416957	0	52431.4	52308.977	-2.1158967e-05	671053	195359.78	-0.00017671422	197781.36	670189.75	-0.00017365911
0	0.6199856	0.6185387	-1.02092425e-10	0.05727573	0.05727573	0	52417.715	52295.38	-6.1846163e-06	671146.7	195039.34	-0.00010091226	197461.55	670284.4	-1.6299095e-06
0	0.61982375	0.6183779	-2.4162855e-10	0.05713443	0.05713443	0	52404.027	52281.79	-1.9809966e-05	671240.06	194719.22	-0.00011957725	197142.05	670379	-0.00020833632
0	0.6196618	0.6182171	-3.8299738e-10	0.05699281	0.05699281	0	52390.336	52268.19	-3.40236e-05	671333.3	194399.17	-0.0002806616	196822.62	670473.25	-0.00028272916
0	0.61949915	0.6180555	-3.6873868e-10	0.056851286	0.056851286	0	52376.582	52254.53	-3.2437012e-05	671426.8	194077.9	-0.00029963595	196501.98	670567.7	-0.00023756776
0	0.6193359	0.61789346	-1.8603147e-10	0.056709964	0.056709964	0	52362.773	52240.83	-1.4677108e-05	671520.25	193755.81	-0.00020196693	196180.5	670662.3	-4.1283027e-05
0	0.61917263	0.6177314	-3.5563158e-10	0.056568343	0.056568343	0	52348.977	52227.125	-3.1380005e-05	671613.44	193434.05	-0.0003280131	195859.36	670756.7	-0.0001917861
0	0.61900866	0.61756843	-4.71367e-11	0.05642702	0.05642702	0	52335.12	52213.35	-8.37244e-06	671706.9	193110.94	-6.147393e-05	195536.92	670851.2	-7.714371e-05
0	0.6188446	0.61740565	-4.3226933e-10	0.05628581	0.05628581	0	52321.246	52199.582	-3.3481036e-05	671800.25	192787.97	-0.00037525134	195214.53	670945.56	-0.00017941764
0	0.61867994	0.6172421	-2.3553376e-10	0.056144506	0.056144506	0	52307.324	52185.758	-1.8779228e-05	671893.56	192463.92	-0.0001394179	194891.08	671040.06	-0.00017150296
0	0.61851466	0.61707795	-2.6333255e-10	0.056002766	0.056002766	0	52293.344	52171.883	-2.241699e-05	671987.06	192139.08	-0.00025235975	194566.78	671134.7	-0.00011901793
0	0.61834943	0.6169139	-3.0809705e-10	0.055861373	0.055861373	0	52279.383	52158.01	-2.8337512e-05	672080.25	191814.58	-0.00034007907	194242.84	671229	-0.00012943846
0	0.6181835	0.61674917	-1.4604455e-10	0.05572006	0.05572006	0	52265.348	52144.086	-1.6700575e-05	672173.6	191488.89	-0.0001073129	193917.7	671323.44	-0.00016914828
0	0.6180172	0.61658406	-2.1341773e-10	0.05557843	0.05557843	0	52251.293	52130.13	-1.9395498e-05	672266.8	191162.77	-0.00014541391	193592.14	671417.94	-0.00017571407
0	0.61785144	0.61641943	-4.3183712e-10	0.055437095	0.055437095	0	52237.273	52116.21	-3.460717e-05	672359.7	190837.86	-0.00038672553	193267.88	671511.8	-0.00018659665
0	0.6176838	0.6162529	-2.1287103e-10	0.055295892	0.055295892	0	52223.1	52102.13	-1.8080867e-05	672453.3	190509.39	-0.00023420033	192940.08	671606.56	-6.542288e-05
0	0.6175165	0.616087	-2.101409e-10	0.055154584	0.055154584	0	52208.96	52088.1	-1.971189e-05	672546.44	190182.22	-0.00018060037	192613.33	671700.8	-0.00014585302
0	0.6173487	0.6159204	-5.262739e-10	0.05501284	0.05501284	0	52194.773	52074.01	-4.5542263e-05	672639.56	189854.1	-0.00038459728	192285.81	671795.1	-0.0003695526
0	0.6171802	0.6157532	-1.3997911e-10	0.054871462	0.054871462	0	52180.53	52059.88	-9.88643e-06	672732.94	189524.98	-0.00013528994	191957.2	671889.7	-2.856008e-05
0	0.61701196	0.6155861	-2.8389713e-10	0.05473016	0.05473016	0	52166.3	52045.75	-2.8084356e-05	672825.9	189196.38	-0.00030374413	191629.16	671983.75	-0.00016149068
0	0.61684275	0.61541814	-3.3400038e-10	0.054588504	0.054588504	0	52151.992	52031.547	-2.8445695e-05	672919.1	188866.25	-0.00023450235	191299.58	672078.1	-0.00023652447
0	0.6166737	0.6152503	-1.626966e-10	0.05444718	0.05444718	0	52137.703	52017.355	-1.6705017e-05	673012	188536.72	-0.00019377244	190970.67	672172.1	-8.299125e-05
0	0.6165034	0.61508137	-2.1362641e-10	0.054305978	0.054305978	0	52123.31	52003.074	-1.9813513e-05	673105.3	188205.08	-0.00022075974	190639.47	672266.6	-0.000107480584
0	0.6163332	0.61491233	-3.562649e-10	0.054164223	0.054164223	0	52108.91	51988.79	-2.8400973e-05	673198.44	187873.67	-0.0002777044	190308.61	672360.94	-0.00019269732
0	0.6161625	0.61474305	-4.1330492e-10	0.0540229	0.0540229	0	52094.48	51974.46	-3.1740998e-05	673291.44	187541.69	-0.00021228495	189977.11	672455.25	-0.0003131773
0	0.6159922	0.61457384	-6.548563e-11	0.053881556	0.053881556	0	52080.074	51960.168	-4.722123e-06	673384.06	187210.64	3.49946e-05	189646.61	672549	-0.00011299147
0	0.61582005	0.61440307	-4.095915e-10	0.053740222	0.053740222	0	52065.53	51945.727	-3.4523906e-05	673477.4	186876.39	-0.00031100278	189312.97	672643.44	-0.00026074192
0	0.61564827	0.6142326	-4.077291e-10	0.053598575	0.053598575	0	52051.008	51931.316	-3.9102604e-05	673570.3	186543.08	-0.00038217157	188980.03	672737.6	-0.00026547944
0	0.61547446	0.6140598	-8.3815505e-10	0.053457268	0.053457268	0	52036.312	51916.707	-7.0615904e-05	673664.1	186205.78	-0.0006008863	188643.56	672832.44	-0.0005684786
0	0.6153034	0.6138903	2.363473e-11	0.053315945	0.053315945	0	52021.844	51902.37	2.432295e-06	673756.06	185874.52	3.2519885e-05	188312.52	672925.8	7.789062e-06
0	0.6151304	0.6137187	-1.02506906e-10	0.0531743	0.0531743	0	52007.227	51887.867	-8.840417e-06	673848.9	185539.73	-0.00016827957	187978.25	673019.75	2.1640033e-05
0	0.6149569	0.61354643	-5.89548e-11	0.053032976	0.053032976	0	51992.555	51873.3	-7.325306e-06	673941.8	185203.94	-8.531767e-05	187642.98	673113.9	-3.6046724e-05
0	0.61478263	0.6133735	-3.04567e-10	0.052891634	0.052891634	0	51977.82	51858.68	-2.3986006e-05	674034.75	184867.08	-0.00030711817	187306.58	673208.06	-9.035134e-05
0	0.61460835	0.61320055	1.2628756e-10	0.05275032	0.05275032	0	51963.082	51844.055	6.1425017e-06	674127.5	184530.34	3.8768303e-05	186970.31	673302.06	6.291276e-05
0	0.6144334	0.61302704	-4.427769e-11	0.05260866	0.05260866	0	51948.29	51829.387	-2.1363084e-07	674220.4	184192.73	-9.3497965e-06	186633.16	673396.1	5.792218e-06
0	0.6142585	0.6128534	-1.7974797e-10	0.05246734	0.05246734	0	51933.508	51814.71	-1.0882705e-05	674312.9	183855.4	-5.795816e-05	186296.34	673489.8	-0.00012216234
0	0.6140826	0.61267895	-1.5780022e-10	0.052326016	0.052326016	0	51918.637	51799.96	-1.2782701e-05	674405.75	183516.5	-0.00011705077	185957.88	673584	-9.464646e-05
0	0.6139065	0.61250424	-5.0944116e-10	0.052184362	0.052184362	0	51903.742	51785.188	-4.3463926e-05	674498.44	183177.3	-0.0003617261	185619.1	673677.94	-0.0003579938
0	0.6137302	0.6123293	-2.2204438e-10	0.052043013	0.052043013	0	51888.84	51770.395	-1.7208473e-05	674591.06	182837.98	-0.00016496006	185280.27	673771.75	-0.000120052944
0	0.61355305	0.61215353	-3.650904e-10	0.051901728	0.051901728	0	51873.867	51755.543	-3.2570282e-05	674683.75	182497.5	-0.00038765217	184940.2	673865.7	-0.00015198858
0	0.6133757	0.6119775	-2.7891878e-10	0.051760413	0.051760413	0	51858.867	51740.664	-1.9739142e-05	674776.4	182156.67	-0.00018681481	184599.84	673959.56	-0.00014010571
0	0.61319804	0.6118014	-3.5521364e-10	0.05161863	0.05161863	0	51843.85	51725.758	-2.8466293e-05	674868.9	181815.61	-0.00026451173	184259.23	674053.3	-0.00020693522
0	0.61301994	0.6116247	-2.0874252e-10	0.051477425	0.051477425	0	51828.79	51710.824	-1.8734976e-05	674961.3	181473.94	-0.00014193062	183917.94	674147	-0.0001682651
0	0.61284125	0.6114474	-2.9104813e-10	0.0513361	0.0513361	0	51813.68	51695.832	-2.4271612e-05	675053.9	181131.33	-0.00025074466	183575.77	674240.8	-0.00015129856
0	0.61266154	0.61126906	-5.72574e-10	0.0511944	0.0511944	0	51798.492	51680.754	-5.2699655e-05	675146.7	180787.11	-0.00052491506	183232.06	674334.8	-0.0003479682
0	0.6124826	0.6110916	-2.4451405e-10	0.051053077	0.051053077	0	51783.36	51665.754	-2.0568443e-05	675238.8	180444.64	-0.00015053834	182889.94	674428.25	-0.00019000018
0	0.6123027	0.6109131	-2.3098022e-10	0.050911825	0.050911825	0	51768.15	51650.664	-2.184143e-05	675331.06	180100.61	-0.00017523345	182546.33	674521.9	-0.00018642184
0	0.6121209	0.6107328	-4.5778809e-10	0.050770037	0.050770037	0	51752.79	51635.418	-3.5547342e-05	675424.1	179753.22	-0.00043808814	182199.44	674616.2	-0.00015091781
0	0.6119411	0.6105545	-4.5077322e-10	0.050628714	0.050628714	0	51737.574	51620.344	-3.6292033e-05	675516	179409.9	-0.0003261777	181856.34	674709.4	-0.00027484668
0	0.6117598	0.61037475	-8.452217e-11	0.0504875	0.0504875	0	51722.25	51605.145	-6.733028e-06	675608.3	179064.02	-9.6339936e-05	181510.84	674803	-1.5259175e-05
0	0.61157835	0.6101948	-2.2780931e-10	0.050346155	0.050346155	0	51706.91	51589.93	-1.612426e-05	675700.44	178718.12	-0.0002467269	181165.31	674896.44	-2.0573183e-05
0	0.6113959	0.61001384	-2.5754987e-10	0.050204474	0.050204474	0	51691.49	51574.63	-2.0955862e-05	675792.8	178370.48	-0.0002592938	180818.11	674990.06	-8.79396e-05
0	0.61121315	0.60983264	-2.0878924e-10	0.05006314	0.05006314	0	51676.04	51559.312	-1.6514638e-05	675885	178022.73	-0.0002453244	180470.66	675083.6	-2.8427628e-05
0	0.61103034	0.6096512	-2.5414829e-10	0.049921803	0.049921803	0	51660.574	51543.977	-1.9427507e-05	675977.06	177674.81	-0.00018565333	180123.11	675176.94	-0.00013611057
0	0.6108466	0.60946906	-6.4559476e-11	0.049780127	0.049780127	0	51645.04	51528.574	-6.463821e-06	676069.3	177325.66	-1.8441415e-05	179774.27	675270.5	-8.849944e-05
0	0.6106628	0.6092868	-3.1032443e-10	0.049638797	0.049638797	0	51629.504	51513.164	-2.4965708e-05	676161.3	176976.58	-0.00029843455	179425.6	675363.8	-0.00011521327
0	0.6104786	0.609104	-3.377749e-10	0.04949756	0.04949756	0	51613.918	51497.715	-2.9279228e-05	676253.25	176626.83	-0.00025494536	179076.19	675457.1	-0.00022991977
0	0.6102937	0.60892075	-3.3260936e-10	0.04935623	0.04935623	0	51598.293	51482.22	-2.951395e-05	676345.2	176276.36	-0.00034895056	178726.08	675550.44	-0.0001400452
0	0.6101086	0.60873723	-1.7384301e-10	0.04921455	0.04921455	0	51582.645	51466.7	-1.7160628e-05	676437	175925.62	-0.00017588312	178375.7	675643.5	-0.000108367625
0	0.6099228	0.60855293	-4.1838608e-10	0.049073216	0.049073216	0	51566.938	51451.125	-3.6216625e-05	676528.94	175573.84	-0.0003769485	178024.25	675736.9	-0.00022296332
0	0.6097366	0.6083684	-4.2195306e-10	0.04893189	0.04893189	0	51551.2	51435.516	-3.683308e-05	676620.8	175221.7	-0.00038481478	177672.38	675830.06	-0.00022531221
0	0.6095497	0.6081831	-1.1599713e-10	0.048790213	0.048790213	0	51535.39	51419.848	-9.106862e-06	676712.75	174868.3	-0.0001152996	177319.33	675923.4	-3.5605768e-05
0	0.6093628	0.6079978	-4.0601417e-10	0.048648853	0.048648853	0	51519.59	51404.18	-3.4368935e-05	676804.3	174515.36	-0.00038549918	176966.66	676016.3	-0.00018388015
0	0.60917497	0.60781157	-3.2412148e-10	0.04850764	0.04850764	0	51503.71	51388.44	-2.3945395e-05	676896.2	174160.8	-0.00033803235	176612.44	676109.5	-5.8847505e-05
0	0.60898703	0.6076252	-2.3415644e-10	0.048366304	0.048366304	0	51487.82	51372.68	-2.1248821e-05	676987.8	173806.3	-0.00016345723	176258.2	676202.56	-0.00018836692
0	0.60879856	0.6074383	-4.918959e-10	0.048224516	0.048224516	0	51471.883	51356.883	-4.4084347e-05	677079.5	173451.1	-0.00045039828	175903.3	676295.6	-0.00027981645
0	0.60860986	0.6072513	-1.0699638e-10	0.0480833	0.0480833	0	51455.93	51341.07	-8.923855e-06	677170.94	173095.81	-0.00010606534	175548.28	676388.44	-4.1789175e-05
0	0.60841924	0.6070622	-1.9547187e-10	0.047941964	0.047941964	0	51439.816	51325.082	-1.5922498e-05	677263	172736.95	-0.000113746464	175189.84	676481.8	-0.00014986476
0	0.60823023	0.6068749	-3.2911346e-10	0.04780026	0.04780026	0	51423.832	51309.242	-2.9322202e-05	677354.06	172381.7	-0.0002775427	174834.78	676574.4	-0.00020809294
0	0.60804	0.6066864	-6.79481e-11	0.04765894	0.04765894	0	51407.754	51293.31	-7.1938302e-06	677445.5	172024.44	-0.00015246139	174477.7	676667.06	3.3093318e-05
0	0.6078491	0.6064972	-1.6358725e-11	0.047517724	0.047517724	0	51391.617	51277.312	-2.0281027e-06	677536.9	171666.12	-0.00011650548	174119.66	676759.94	8.265812e-05
0	0.6076579	0.6063076	-4.8869525e-10	0.047376387	0.047376387	0	51375.445	51261.29	-4.1953295e-05	677628.1	171307.42	-0.0004027652	173761.19	676852.7	-0.00029208223
0	0.6074661	0.6061176	-3.155503e-10	0.047234587	0.047234587	0	51359.234	51245.215	-2.8824823e-05	677719.44	170948.03	-0.00027568135	173402.06	676945.4	-0.00020172424
0	0.60727423	0.6059274	5.0125883e-11	0.047093373	0.047093373	0	51343.01	51229.137	4.7732597e-06	677810.56	170588.7	2.984121e-05	173042.97	677037.8	4.917309e-05
0	0.6070807	0.60573536	-1.4790781e-10	0.04695201	0.04695201	0	51326.645	51212.906	-1.1735245e-05	677902.25	170226.31	-0.00021848736	172680.9	677130.9	2.384311e-05
0	0.6068882	0.6055447	-1.3637098e-10	0.046810348	0.046810348	0	51310.367	51196.785	-6.5253143e-06	677993	169866.44	-9.24685e-05	172321.17	677223.2	-1.5685404e-05
0	0.6066947	0.605353	-9.951615e-11	0.04666901	0.04666901	0	51294.01	51180.57	-1.1035435e-05	678084.06	169505	-0.0001023574	171959.95	677315.5	-8.040642e-05
0	0.6065004	0.6051604	-2.128026e-10	0.046527795	0.046527795	0	51277.582	51164.293	-2.0175845e-05	678175.1	169142.22	-0.00019844825	171597.34	677408.1	-0.00013572483
0	0.6063058	0.6049676	-1.4032654e-10	0.046386022	0.046386022	0	51261.133	51147.992	-1.2518872e-05	678266.1	168779.3	-8.305112e-05	171234.58	677500.56	-0.00012419309
0	0.6061107	0.6047743	-3.442361e-10	0.046244673	0.046244673	0	51244.637	51131.64	-2.7358092e-05	678357.06	168415.62	-0.00030973475	170871.12	677592.94	-0.00014350578
0	0.6059153	0.6045806	-2.3168766e-10	0.046103455	0.046103455	0	51228.117	51115.273	-1.8060677e-05	678447.8	168051.69	-0.00017665417	170507.44	677685.1	-0.00012248268
0	0.60571957	0.6043866	-3.1903455e-10	0.045962088	0.045962088	0	51211.566	51098.87	-2.7947488e-05	678538.44	167687.42	-0.00030128282	170143.33	677777.25	-0.00016168214
0	0.6055226	0.60419154	-3.028661e-11	0.045820434	0.045820434	0	51194.918	51082.38	-2.9003254e-06	678629.44	167321.25	-6.0605875e-05	169777.28	677869.6	1.2482714e-05
0	0.60532546	0.6039961	-5.360479e-10	0.045679096	0.045679096	0	51178.246	51065.855	-4.4803834e-05	678720.1	166954.83	-0.00040312964	169411.08	677961.9	-0.00033885794
0	0.605128	0.6038003	-4.7300674e-10	0.04553775	0.04553775	0	51161.55	51049.305	-4.4087654e-05	678810.75	166588.11	-0.00032758166	169044.62	678054	-0.0004023623
0	0.6049302	0.60360456	-2.935698e-10	0.045396097	0.045396097	0	51144.832	51032.746	-2.4902105e-05	678901.3	166221.34	-0.00022135641	168677.84	678146	-0.00019103537
0	0.60473174	0.6034078	-1.8180041e-10	0.04525476	0.04525476	0	51128.047	51016.117	-1.2560337e-05	678991.75	165853.28	-8.985463e-05	168310.05	678237.94	-0.000118093325
0	0.604533	0.603211	-2.822698e-10	0.04511351	0.04511351	0	51111.246	50999.477	-2.3037484e-05	679082.1	165485.3	-0.00017588933	167942.12	678329.75	-0.00020554682