# t (s)	mx ()	my ()	mz ()	B_extx (T)	B_exty (T)	B_extz (T)	m_fullx (A/m)	m_fully (A/m)	m_fullz (A/m)	m_full.region1x (A/m)	m_full.region1y (A/m)	m_full.region1z (A/m)	m_full.region2x (A/m)	m_full.region2y (A/m)	m_full.region2z (A/m)
0	0.64499116	0.6449889	-1.0615253e-10	0.07071081	0.0707108	0	125192.016	125191.56	-1.5432099e-05	629229.4	273756.4	-3.33927e-05	273758.38	629228.06	-0.00010017809
0	0.64489925	0.64489865	-1.6984404e-10	0.07056912	0.07056912	0	125174.14	125174.02	-3.0864197e-05	629296.6	273561.8	-0.0001447017	273562.34	629296.25	-8.904719e-05
0	0.64480287	0.6448024	-3.0784233e-10	0.070427895	0.070427895	0	125155.445	125155.35	-6.481481e-05	629368.56	273355.16	-0.00020035618	273355.5	629368.25	-0.00023374888
0	0.6447076	0.64470714	-2.5476607e-10	0.070286475	0.07028647	0	125136.945	125136.87	-5.2469135e-05	629440.9	273149.44	-0.00015583259	273149.78	629440.6	-0.00018922529
0	0.6446116	0.6446111	-2.1230506e-10	0.07014494	0.07014494	0	125118.3	125118.23	-4.0123457e-05	629513.2	272942.72	-8.904719e-05	272943.1	629512.9	-0.00021148709
0	0.64451534	0.6445149	-2.9722708e-10	0.07000352	0.07000352	0	125099.64	125099.555	-5.2469135e-05	629585.3	272735.84	-0.000222618	272736.2	629585.06	-0.0001669635
0	0.64441913	0.6444187	-2.441508e-10	0.06986228	0.06986228	0	125080.95	125080.87	-4.0123457e-05	629657.8	272528.56	-0.00021148709	272528.9	629657.6	-0.00010017809
0	0.64432263	0.6443222	-2.1230505e-11	0.06972061	0.06972061	0	125062.21	125062.13	0	629730.06	272321.22	-2.2261798e-05	272321.56	629729.8	-1.1130899e-05
0	0.644226	0.6442256	-2.759966e-10	0.06957921	0.06957921	0	125043.47	125043.4	-5.5555556e-05	629802.4	272113.62	-0.00024487977	272113.97	629802.2	-0.00017809439
0	0.6441288	0.64412844	-4.4584061e-10	0.06943796	0.06943796	0	125024.61	125024.53	-8.0246915e-05	629875.1	271904.8	-0.00024487977	271905.2	629875	-0.0003450579
0	0.6440318	0.6440314	-1.2738303e-10	0.06929652	0.06929652	0	125005.79	125005.695	-2.4691359e-05	629947.44	271696.78	-8.904719e-05	271697.16	629947.2	-7.7916295e-05
0	0.6439342	0.6439338	-2.9722708e-10	0.069155015	0.06915502	0	124986.836	124986.76	-6.1728395e-05	630020	271487.53	-0.00015583259	271487.88	630019.8	-0.00032279608
0	0.643837	0.6438365	-8.492202e-11	0.0690136	0.0690136	0	124967.945	124967.875	-2.1604938e-05	630092.5	271278.88	-8.904719e-05	271279.22	630092.2	-8.904719e-05
0	0.6437391	0.6437386	-1.9107455e-10	0.06887218	0.06887218	0	124948.96	124948.88	-3.7037036e-05	630165.25	271069.22	-0.0001447017	271069.53	630164.94	-0.0001669635
0	0.64364123	0.64364076	-1.9107455e-10	0.0687307	0.0687307	0	124929.97	124929.88	-3.395062e-05	630237.6	270859.78	-0.000111309	270860.12	630237.3	-0.00012243989
0	0.64354295	0.6435425	-4.033796e-10	0.06858927	0.06858928	0	124910.9	124910.805	-7.407407e-05	630310.2	270649.6	-0.00021148709	270649.94	630309.94	-0.000333927
0	0.64344466	0.6434442	-1.0615253e-10	0.068448	0.068448	0	124891.805	124891.73	-2.1604938e-05	630382.8	270439.34	-5.56545e-05	270439.72	630382.5	-6.67854e-05
0	0.643346	0.64334565	-2.3353555e-10	0.06830659	0.068306595	0	124872.68	124872.58	-4.6296296e-05	630455.7	270228.44	-0.00018922529	270228.8	630455.44	-0.0001669635
0	0.64324754	0.6432471	-1.9107455e-10	0.06816509	0.068165086	0	124853.555	124853.46	-3.7037036e-05	630528.1	270018.1	-0.00012243989	270018.5	630527.9	-0.0001335708
0	0.64314866	0.64314824	-1.1676778e-10	0.06802368	0.06802368	0	124834.375	124834.27	-2.4691359e-05	630600.7	269807.1	-8.348175e-06	269807.44	630600.44	-0.00015583259
0	0.6430493	0.6430488	-3.609186e-10	0.06788226	0.06788226	0	124815.055	124814.984	-6.481481e-05	630673.75	269594.84	-0.00020035618	269595.25	630673.5	-0.00030053427
0	0.64295006	0.64294964	-1.1676778e-10	0.06774077	0.067740776	0	124795.805	124795.73	-1.5432099e-05	630746.3	269383.4	-3.33927e-05	269383.75	630746.1	-0.000111309
0	0.6428503	0.64284974	-2.6538133e-10	0.06759933	0.06759932	0	124776.44	124776.34	-4.9382717e-05	630819.3	269170.72	-0.00024487977	269171.06	630819	-0.0001447017
0	0.642751	0.64275056	-3.821491e-10	0.067458086	0.067458086	0	124757.18	124757.08	-7.407407e-05	630891.75	268959.3	-0.0003450579	268959.66	630891.5	-0.00025601068
0	0.6426503	0.6426498	-2.8661182e-10	0.06731665	0.06731665	0	124737.64	124737.55	-6.1728395e-05	630964.6	268745.44	-0.00023374888	268745.78	630964.4	-0.000222618
0	0.6425504	0.64255	-2.1230505e-11	0.067175	0.067175	0	124718.24	124718.17	-3.0864198e-06	631037.9	268532.44	-4.4523596e-05	268532.78	631037.56	-1.1130899e-05
0	0.64245003	0.64244956	-1.379983e-10	0.06703376	0.06703376	0	124698.75	124698.664	-2.1604938e-05	631110.9	268318.75	-0.000111309	268319.1	631110.6	-0.00010017809
0	0.64234966	0.6423492	-4.883016e-10	0.06689233	0.06689233	0	124679.266	124679.18	-9.259259e-05	631183.56	268105.44	-0.00035618877	268105.8	631183.3	-0.00037845058
0	0.64224774	0.64224744	-4.883016e-10	0.06675082	0.06675082	0	124659.52	124659.44	-0.00010493827	631256.25	267890.34	-0.0003895815	267890.7	631256	-0.0003450579
0	0.64214724	0.64214677	-2.2292031e-10	0.0666094	0.0666094	0	124639.99	124639.89	-5.5555556e-05	631329.6	267676.1	-0.00021148709	267676.47	631329.3	-0.00015583259
0	0.6420465	0.64204615	-1.379983e-10	0.06646815	0.06646815	0	124620.445	124620.34	-2.7777778e-05	631402.6	267462.16	-8.904719e-05	267462.53	631402.3	-0.00015583259
0	0.6419441	0.64194363	-4.989169e-10	0.06632651	0.06632651	0	124600.55	124600.47	-0.00010185185	631475.44	267245.88	-0.0003450579	267246.25	631475.2	-0.00041184327
0	0.6418432	0.6418428	-1.592288e-10	0.06618508	0.06618509	0	124580.98	124580.875	-3.395062e-05	631548.2	267031.97	-0.0001335708	267032.3	631547.94	-0.00010017809
0	0.64174134	0.64174086	-1.379983e-10	0.06604384	0.06604384	0	124561.195	124561.09	-2.7777778e-05	631621.7	266815.84	-0.00012243989	266816.25	631621.4	-0.000111309
0	0.6416395	0.641639	-2.6538133e-10	0.06590237	0.06590237	0	124541.42	124541.336	-5.2469135e-05	631694.8	266600.03	-0.0001669635	266600.4	631694.56	-0.00020035618
0	0.6415366	0.64153624	-1.6984404e-10	0.0657609	0.0657609	0	124521.484	124521.4	-3.0864197e-05	631767.9	266383.12	-0.0001335708	266383.47	631767.6	-0.000111309
0	0.6414341	0.64143366	-1.9107455e-10	0.06561947	0.06561947	0	124501.56	124501.47	-3.395062e-05	631841.44	266165.9	-0.000111309	266166.25	631841.2	-0.0001669635
0	0.64133155	0.6413311	-2.759966e-10	0.06547823	0.06547823	0	124481.664	124481.56	-5.5555556e-05	631914.9	265948.9	-0.0002782725	265949.25	631914.6	-6.67854e-05
0	0.6412291	0.6412286	-2.3353555e-10	0.065336585	0.065336585	0	124461.766	124461.664	-4.9382717e-05	631988.1	265732.16	-0.000111309	265732.5	631987.9	-0.0002671416
0	0.64112604	0.64112556	-2.1230505e-11	0.06519516	0.06519516	0	124441.79	124441.69	-6.1728397e-06	632061.25	265514.8	-3.33927e-05	265515.2	632061	0
0	0.64102244	0.64102197	-3.0784233e-10	0.06505392	0.06505392	0	124421.664	124421.58	-5.8641974e-05	632134.56	265296.53	-0.00031166518	265296.88	632134.4	-0.00020035618
0	0.6409191	0.6409186	-3.2907285e-10	0.06491244	0.06491244	0	124401.6	124401.5	-6.1728395e-05	632208	265078.4	-0.00025601068	265078.78	632207.7	-0.000222618
0	0.6408148	0.6408143	-2.3353555e-10	0.06477098	0.06477098	0	124381.36	124381.26	-4.9382717e-05	632281.06	264859.25	-0.00018922529	264859.62	632280.8	-0.00017809439
0	0.6407108	0.64071035	-1.6984404e-10	0.06462956	0.06462956	0	124361.17	124361.09	-3.0864197e-05	632354.5	264640.2	-0.00020035618	264640.6	632354.3	-7.7916295e-05
0	0.6406074	0.640607	-1.9107455e-10	0.06448813	0.06448813	0	124341.11	124341.02	-4.0123457e-05	632427.94	264422.06	2.2261798e-05	264422.44	632427.7	-0.00031166518
0	0.64050215	0.6405017	-3.2907285e-10	0.06434667	0.06434667	0	124320.68	124320.58	-6.1728395e-05	632501.56	264201.06	-0.00021148709	264201.4	632501.25	-0.00025601068
0	0.64039797	0.6403975	-1.6984404e-10	0.064205244	0.064205244	0	124300.45	124300.37	-3.7037036e-05	632575.44	263981.4	-0.0001335708	263981.78	632575.06	-0.00017809439
0	0.6402936	0.6402931	-1.379983e-10	0.064063944	0.06406396	0	124280.19	124280.11	-3.0864197e-05	632648.5	263762.12	-7.7916295e-05	263762.47	632648.25	-0.00012243989
0	0.64018744	0.6401868	-2.441508e-10	0.06392251	0.0639225	0	124259.57	124259.49	-4.6296296e-05	632722.2	263539.78	-0.0001447017	263540.16	632721.9	-0.00021148709
0	0.6400829	0.6400825	-1.0615253e-10	0.06378106	0.06378106	0	124239.305	124239.2	-1.8518518e-05	632795.75	263319.88	-5.56545e-05	263320.3	632795.5	-0.000111309
0	0.63997746	0.639977	-3.184576e-10	0.06363963	0.06363963	0	124218.836	124218.734	-5.5555556e-05	632869.3	263098.75	-0.0002671416	263099.1	632869	-0.00012243989
0	0.6398713	0.6398708	8.492202e-11	0.0634982	0.0634982	0	124198.23	124198.125	1.8518518e-05	632943.1	262876.22	3.33927e-05	262876.56	632943	0.00012243989
0	0.63976556	0.639765	-2.5476607e-10	0.06335675	0.06335675	0	124177.695	124177.59	-4.3209875e-05	633016.8	262654.53	-0.0001335708	262654.94	633016.5	-0.00020035618
0	0.63965964	0.6396592	-2.1230506e-10	0.06321528	0.063215286	0	124157.16	124157.055	-4.3209875e-05	633090.1	262433	-0.0001335708	262433.3	633089.94	-0.00017809439
0	0.63955253	0.6395521	-2.1230506e-10	0.06307402	0.06307402	0	124136.36	124136.28	-3.0864197e-05	633163.9	262209.44	-0.00017809439	262209.78	633163.56	-4.4523596e-05
0	0.63944644	0.639446	-2.5476607e-10	0.06293259	0.06293259	0	124115.75	124115.664	-5.8641974e-05	633237.94	261986.73	-0.00017809439	261987.14	633237.56	-0.00025601068
0	0.6393396	0.63933915	-2.5476607e-10	0.06279097	0.06279097	0	124095.05	124094.945	-4.9382717e-05	633311.56	261763.53	-0.00021148709	261763.88	633311.4	-0.00017809439
0	0.6392326	0.63923216	-4.4584061e-10	0.06264971	0.062649705	0	124074.266	124074.164	-9.259259e-05	633385.2	261540.06	-0.000333927	261540.45	633384.9	-0.00035618877
0	0.6391245	0.6391241	-8.492202e-11	0.06250826	0.06250826	0	124053.27	124053.2	-1.5432099e-05	633458.94	261315.05	-4.4523596e-05	261315.4	633458.7	-8.904719e-05
0	0.6390177	0.6390173	-2.1230505e-11	0.062366802	0.062366802	0	124032.57	124032.47	-3.0864198e-06	633532.75	261091.73	1.1130899e-05	261092.1	633532.5	-3.33927e-05
0	0.6389103	0.6389098	-2.3353555e-10	0.062225346	0.062225346	0	124011.69	124011.61	-4.6296296e-05	633606.1	260867.86	-0.0001669635	260868.23	633605.9	-0.0001447017
0	0.63880193	0.6388014	-1.9107455e-10	0.062084105	0.062084105	0	123990.664	123990.57	-3.7037036e-05	633680.56	260641.78	-0.000111309	260642.17	633680.1	-0.00018922529
0	0.6386932	0.6386928	-2.3353555e-10	0.061942484	0.061942484	0	123969.56	123969.484	-5.8641974e-05	633754.3	260415.83	-0.00012243989	260416.22	633754.06	-0.000222618
0	0.63858527	0.6385848	-9.553727e-11	0.061801035	0.061801035	0	123948.6	123948.516	-1.5432099e-05	633828.7	260190.33	-2.2261798e-05	260190.69	633828.25	-0.000111309
0	0.638477	0.63847655	-2.759966e-10	0.061659794	0.061659794	0	123927.62	123927.516	-4.9382717e-05	633902.3	259965.17	-0.00012800534	259965.56	633902.06	-0.0002671416
0	0.6383677	0.63836724	-2.5476607e-10	0.0615183	0.0615183	0	123906.375	123906.29	-4.9382717e-05	633976.3	259738.08	-0.00024487977	259738.47	633976	-0.0001335708
0	0.63825893	0.63825846	-2.8661182e-10	0.06137688	0.061376873	0	123885.27	123885.19	-6.1728395e-05	634050.25	259511.89	-0.00024487977	259512.31	634050	-0.00021148709
0	0.6381489	0.6381484	-2.759966e-10	0.061235435	0.061235435	0	123863.92	123863.82	-5.5555556e-05	634124.06	259283.98	-0.0001669635	259284.39	634123.8	-0.00031166518
0	0.6380395	0.63803905	-2.5476607e-10	0.061093986	0.06109399	0	123842.69	123842.586	-4.3209875e-05	634198.5	259056.44	-0.00015583259	259056.84	634198.2	-0.00020035618
0	0.6379303	0.63792974	-3.3968808e-10	0.06095258	0.060952578	0	123821.48	123821.38	-6.481481e-05	634272.06	258829.89	-0.00020035618	258830.25	634271.9	-0.00030053427
0	0.6378196	0.6378191	-2.8661182e-10	0.06081112	0.06081112	0	123800.01	123799.89	-5.2469135e-05	634346.2	258600.77	-0.00017809439	258601.17	634345.94	-0.000222618
0	0.63770944	0.6377089	-2.9722708e-10	0.06066982	0.06066982	0	123778.6	123778.516	-5.8641974e-05	634420.7	258372	-0.00020035618	258372.39	634420.44	-0.00030053427
0	0.63759935	0.6375989	0	0.06052838	0.060528375	0	123757.25	123757.15	3.0864198e-06	634495	258143.72	8.904719e-05	258144.11	634494.6	-0.00010017809
0	0.63748884	0.6374883	-4.246101e-11	0.060386952	0.060386952	0	123735.8	123735.695	-9.259259e-06	634569	257914.92	-7.7916295e-05	257915.33	634568.8	-4.4523596e-05
0	0.6373778	0.6373773	-3.609186e-10	0.06024551	0.06024551	0	123714.26	123714.17	-7.407407e-05	634642.94	257685.66	-0.00030053427	257686.1	634642.7	-0.0002782725
0	0.6372667	0.6372663	2.1230505e-11	0.060104065	0.060104065	0	123692.68	123692.586	0	634717.3	257455.64	6.67854e-05	257456.05	634717.06	-5.56545e-05
0	0.63715506	0.6371546	-2.1230506e-10	0.05996265	0.05996265	0	123671.01	123670.92	-4.6296296e-05	634791.5	257225.17	-7.7916295e-05	257225.58	634791.25	-0.000222618
0	0.63704365	0.6370431	-1.4861354e-10	0.059821155	0.059821155	0	123649.37	123649.27	-2.3919752e-05	634865.3	256995.38	-8.904719e-05	256995.75	634865	-0.00010017809
0	0.6369314	0.63693094	-2.9722708e-10	0.059679903	0.059679903	0	123627.59	123627.51	-5.5555556e-05	634940.25	256763.3	-0.00024487977	256763.72	634939.94	-0.00017809439
0	0.6368194	0.63681895	-1.0615253e-10	0.059538443	0.059538443	0	123605.875	123605.77	-1.2345679e-05	635014.6	256532.2	-8.904719e-05	256532.61	635014.4	-5.56545e-05
0	0.6367072	0.63670665	-1.592288e-10	0.059396844	0.059396844	0	123584.086	123583.984	-3.0864197e-05	635089	256300.7	-0.000111309	256301.1	635088.7	-0.00012243989
0	0.6365948	0.63659436	5.3076266e-11	0.059255593	0.05925559	0	123562.266	123562.164	6.1728397e-06	635163.06	256069.28	1.1130899e-05	256069.69	635162.75	6.67854e-05
0	0.6364815	0.636481	-3.184576e-10	0.059114125	0.059114125	0	123540.266	123540.18	-6.1728395e-05	635237.7	255836.03	-0.000222618	255836.44	635237.44	-0.00025601068
0	0.63636875	0.6363683	0	0.058972694	0.058972687	0	123518.39	123518.3	3.0864198e-06	635311.9	255604.06	4.4523596e-05	255604.47	635311.5	0
0	0.6362552	0.63625467	-2.1230506e-10	0.058831237	0.058831237	0	123496.34	123496.24	-4.6296296e-05	635386.2	255370.64	-0.0001335708	255371.03	635385.94	-0.0001669635
0	0.636142	0.6361415	-1.379983e-10	0.058689967	0.058689967	0	123474.4	123474.3	-2.4691359e-05	635460.56	255137.89	-6.67854e-05	255138.27	635460.3	-0.000111309
0	0.63602793	0.6360275	-1.2738303e-10	0.058548383	0.058548383	0	123452.25	123452.14	-1.7746914e-05	635535.2	254903.58	-1.1130899e-05	254903.98	635534.9	-0.0001669635
0	0.6359144	0.6359139	-2.9722708e-10	0.058406927	0.05840693	0	123430.195	123430.09	-4.6296296e-05	635609.5	254670.28	-0.0001447017	254670.77	635609.1	-0.000222618
0	0.6357999	0.63579935	-2.5476607e-10	0.05826566	0.05826566	0	123407.97	123407.87	-4.9382717e-05	635684	254435.4	-0.00010017809	254435.83	635683.7	-0.0002782725
0	0.6356852	0.6356847	-2.1230506e-10	0.058124155	0.058124155	0	123385.7	123385.62	-4.0123457e-05	635758.5	254200.39	-0.000111309	254200.8	635758.2	-0.00017809439
0	0.63557047	0.63557	-2.3353555e-10	0.057982776	0.057982776	0	123363.45	123363.35	-3.7037036e-05	635833.1	253965.12	-0.0001335708	253965.55	635832.94	-0.0001669635
0	0.6354557	0.63545525	-2.3353555e-10	0.05784131	0.0578413	0	123341.18	123341.08	-4.3209875e-05	635907.7	253729.98	-0.00021148709	253730.4	635907.3	-0.0001669635
0	0.63534063	0.63534015	-8.492202e-11	0.05769984	0.05769984	0	123318.83	123318.73	-3.0864198e-06	635982.25	253494.2	1.1130899e-05	253494.62	635981.94	-7.7916295e-05
0	0.6352245	0.6352239	-1.6984404e-10	0.057558466	0.057558466	0	123296.29	123296.195	-2.7777778e-05	636057.2	253256.7	-0.00017809439	253257.12	636056.8	-8.904719e-05
0	0.6351095	0.6351089	-2.5476607e-10	0.057416998	0.057416998	0	123273.96	123273.86	-5.5555556e-05	636131.56	253021.27	-0.0002671416	253021.67	636131.25	-0.000111309
0	0.634993	0.6349925	-2.3353555e-10	0.057275694	0.057275698	0	123251.36	123251.266	-4.9382717e-05	636206.44	252783.4	-0.0001447017	252783.84	636206.06	-0.00018922529
0	0.63487715	0.6348766	-5.0953214e-10	0.057134222	0.057134222	0	123228.87	123228.78	-0.00010185185	636281.06	252546.62	-0.000445236	252547.05	636280.6	-0.00030053427
0	0.63476074	0.63476014	-2.759966e-10	0.056992855	0.056992855	0	123206.25	123206.164	-5.5555556e-05	636355.6	252308.97	-0.00030053427	252309.36	636355.25	-0.0001447017
0	0.6346439	0.6346434	-9.553727e-11	0.056851387	0.056851387	0	123183.59	123183.49	-2.4691359e-05	636430.3	252070.73	-0.00010017809	252071.16	636429.94	-7.7916295e-05
0	0.634527	0.63452655	-1.0615253e-10	0.05670992	0.05670991	0	123160.91	123160.83	-2.4691359e-05	636505.06	251832.39	-0.00010017809	251832.83	636504.75	-5.56545e-05
0	0.6344097	0.63440925	-1.0615253e-10	0.05656855	0.05656855	0	123138.164	123138.05	-2.1604938e-05	636579.75	251593.56	-0.00020035618	251594	636579.4	1.1130899e-05
0	0.6342921	0.6342915	-2.5476607e-10	0.056427028	0.056427028	0	123115.33	123115.22	-5.2469135e-05	636654.56	251354.05	-0.00021148709	251354.44	636654.2	-0.000222618
0	0.6341749	0.6341742	-1.6984404e-10	0.056285765	0.056285765	0	123092.54	123092.445	-4.0123457e-05	636729.2	251115.14	-0.00012243989	251115.6	636728.9	-0.00015583259
0	0.6340567	0.6340561	-2.9722708e-10	0.05614429	0.05614429	0	123069.62	123069.516	-5.5555556e-05	636803.9	250875.05	-0.0002782725	250875.48	636803.56	-0.0001669635
0	0.63393843	0.63393795	-2.5476607e-10	0.056002725	0.056002725	0	123046.67	123046.57	-5.5555556e-05	636878.9	250634.52	-0.00012243989	250634.94	636878.56	-0.0002671416
0	0.6338199	0.63381934	-1.0615253e-10	0.055861462	0.055861466	0	123023.664	123023.55	-2.4691359e-05	636953.9	250393.58	-0.00010017809	250394.02	636953.56	-5.56545e-05
0	0.6337014	0.6337009	-9.553727e-11	0.05571998	0.05571998	0	123000.66	123000.555	-2.7777778e-05	637028.5	250152.92	-7.7916295e-05	250153.38	637028.2	-8.904719e-05
0	0.6335824	0.63358194	-2.2292031e-10	0.055578638	0.055578638	0	122977.57	122977.47	-4.6296296e-05	637103.5	249911.52	-0.0001447017	249911.92	637103.2	-0.000222618
0	0.6334633	0.6334627	-2.441508e-10	0.055437114	0.055437114	0	122954.44	122954.32	-5.5555556e-05	637178.3	249669.8	-0.00018922529	249670.23	637178	-0.00021148709
0	0.63334364	0.63334304	-4.2461012e-10	0.055295844	0.055295844	0	122931.23	122931.11	-8.0246915e-05	637253.3	249427.31	-0.00032279608	249427.78	637253	-0.00032279608
0	0.63322407	0.63322353	-1.9107455e-10	0.05515437	0.05515437	0	122908.02	122907.914	-2.7777778e-05	637328.1	249185.16	-0.0001447017	249185.61	637327.8	-0.0001447017
0	0.63310397	0.63310343	-3.7153386e-10	0.055012804	0.055012804	0	122884.69	122884.586	-7.407407e-05	637403.2	248941.92	-0.00023374888	248942.33	637402.8	-0.000333927
0	0.6329836	0.632983	0	0.05487153	0.05487153	0	122861.34	122861.23	-6.1728397e-06	637478.2	248698.42	-2.2261798e-05	248698.84	637477.94	-1.1130899e-05
0	0.63286364	0.63286304	-3.184576e-10	0.054730058	0.054730058	0	122838.04	122837.94	-6.1728395e-05	637552.75	248455.81	-0.000222618	248456.28	637552.5	-0.00023374888
0	0.6327423	0.6327417	-2.5476607e-10	0.054588675	0.054588675	0	122814.5	122814.39	-4.0123457e-05	637628	248210.73	-0.00025601068	248211.19	637627.7	-6.67854e-05
0	0.6326215	0.632621	-2.3353555e-10	0.05444718	0.05444718	0	122791.06	122790.95	-4.3209875e-05	637703	247966.7	-0.00012243989	247967.14	637702.7	-0.00024487977
0	0.6325005	0.6325	-3.184576e-11	0.054305922	0.054305922	0	122767.56	122767.46	-6.1728397e-06	637778	247722.27	0	247722.7	637777.7	-3.33927e-05
0	0.63237876	0.6323783	-1.2738303e-10	0.054164376	0.05416437	0	122743.94	122743.836	-3.395062e-05	637853.1	247476.66	-8.904719e-05	247477.1	637852.8	-0.00012243989
0	0.6322551	0.63225454	-5.7322364e-10	0.05402288	0.05402288	0	122719.94	122719.83	-0.000108024695	637928.5	247228.25	-0.000333927	247228.7	637928.1	-0.0005008905
0	0.6321349	0.6321344	-3.0784233e-10	0.05388161	0.053881608	0	122696.6	122696.49	-6.1728395e-05	638003.2	246985.22	-0.0002894034	246985.67	638002.9	-8.904719e-05
0	0.632013	0.6320125	-3.3968808e-10	0.053740077	0.053740077	0	122672.95	122672.836	-5.5555556e-05	638078	246739.75	-0.00025601068	246740.16	638077.75	-0.00024487977
0	0.6318901	0.6318896	-3.3968808e-10	0.053598743	0.053598743	0	122649.08	122648.99	-6.1728395e-05	638153.44	246492.3	-0.000222618	246492.75	638153	-0.000222618
0	0.6317671	0.6317665	-2.759966e-10	0.053457268	0.053457268	0	122625.21	122625.11	-5.2469135e-05	638228.6	246244.84	-0.00025601068	246245.28	638228.3	-0.0001447017
0	0.63164455	0.63164395	-1.2738303e-10	0.053315774	0.053315774	0	122601.42	122601.305	-2.4691359e-05	638303.5	245998.36	-0.0001447017	245998.78	638303.2	-0.00010017809
0	0.6315207	0.63152015	-2.759966e-10	0.053174455	0.053174455	0	122577.39	122577.27	-5.2469135e-05	638378.56	245749.95	-0.000333927	245750.38	638378.3	-8.904719e-05
0	0.6313969	0.63139635	-1.0615253e-11	0.05303297	0.05303296	0	122553.36	122553.26	3.0864198e-06	638453.25	245501.95	-5.56545e-05	245502.4	638452.94	4.4523596e-05
0	0.6312736	0.6312731	-3.9276435e-10	0.052891646	0.052891638	0	122529.44	122529.336	-7.407407e-05	638528.8	245253.92	-0.00021148709	245254.39	638528.4	-0.000333927
0	0.63114923	0.63114876	-2.1230506e-10	0.05275014	0.05275014	0	122505.29	122505.19	-3.7037036e-05	638604.2	245004.36	-0.00015583259	245004.78	638603.9	-0.0001335708
0	0.63102514	0.63102454	-2.016898e-10	0.052608833	0.052608833	0	122481.195	122481.086	-4.0123457e-05	638679.4	244755.33	-0.00021148709	244755.78	638679.06	-0.000111309
0	0.63090044	0.6308999	-2.3353555e-10	0.05246734	0.05246734	0	122457	122456.9	-4.3209875e-05	638754.44	244505.77	-0.0001669635	244506.22	638754.1	-0.00017809439
0	0.6307754	0.63077474	-2.016898e-10	0.05232584	0.052325834	0	122432.7	122432.6	-4.3209875e-05	638829.8	244255.19	-7.7916295e-05	244255.64	638829.44	-0.00024487977
0	0.6306501	0.63064957	-2.3353555e-10	0.052184533	0.052184533	0	122408.414	122408.29	-4.3209875e-05	638905.2	244004.42	-0.000111309	244004.89	638904.9	-0.00018922529
0	0.63052475	0.63052416	-4.883016e-10	0.052042995	0.052042995	0	122384.09	122383.97	-0.000108024695	638980.44	243753.78	-0.00032279608	243754.27	638980.1	-0.00042297418
0	0.63039905	0.6303985	-8.492202e-11	0.05190171	0.05190171	0	122359.68	122359.57	-1.8518518e-05	639055.2	243503	-3.33927e-05	243503.47	639054.9	-0.00015583259
0	0.630273	0.63027245	-2.441508e-10	0.051760204	0.051760204	0	122335.22	122335.11	-4.4367283e-05	639130.8	243250.97	-0.00012800534	243251.42	639130.44	-0.0002671416
0	0.63014656	0.63014597	-6.369152e-11	0.051618695	0.051618688	0	122310.67	122310.555	-9.259259e-06	639206.1	242998.58	-6.67854e-05	242999	639205.8	-2.2261798e-05
0	0.63001996	0.6300194	-2.2292031e-10	0.051477417	0.051477417	0	122286.1	122286.01	-4.6296296e-05	639281.44	242746.17	-0.0001447017	242746.66	639281	-0.00020035618
0	0.6298935	0.6298929	-1.9107455e-10	0.05133591	0.05133591	0	122261.54	122261.43	-3.7037036e-05	639356.8	242493.58	-0.00020035618	242494.03	639356.5	-8.904719e-05
0	0.6297666	0.629766	-3.9276435e-10	0.051194564	0.05119457	0	122236.93	122236.805	-8.0246915e-05	639432	242240.72	-0.00021148709	242241.2	639431.6	-0.00035618877
0	0.6296389	0.6296383	-1.4861354e-10	0.051053066	0.051053066	0	122212.14	122212.02	-2.4691359e-05	639507.5	241986.45	-0.0001335708	241986.92	639507.2	-3.33927e-05
0	0.6295111	0.6295105	-1.6984404e-10	0.050911784	0.050911777	0	122187.32	122187.22	-3.0864197e-05	639582.8	241732.25	-0.00010017809	241732.7	639582.5	-8.904719e-05
0	0.6293835	0.62938297	-3.609186e-10	0.05077028	0.05077028	0	122162.555	122162.445	-7.0987655e-05	639658.06	241478.38	-0.0002894034	241478.83	639657.7	-0.00023374888
0	0.6292549	0.6292543	-3.3968808e-10	0.05062878	0.05062878	0	122137.6	122137.48	-7.0987655e-05	639733.75	241222.6	-0.0002782725	241223.08	639733.4	-0.00023374888
0	0.62912655	0.62912595	-2.3353555e-10	0.050487492	0.05048749	0	122112.68	122112.555	-4.3209875e-05	639809.06	240967.58	-0.0001447017	240968.08	639808.7	-0.00012243989
0	0.6289982	0.6289976	-2.6538133e-10	0.05034593	0.05034593	0	122087.78	122087.65	-4.3209875e-05	639884.1	240712.86	-0.0001335708	240713.36	639883.8	-0.00018922529
0	0.62886876	0.62886816	-1.0615253e-10	0.050204657	0.050204657	0	122062.66	122062.55	-1.5432099e-05	639959.75	240455.98	-0.000111309	240456.48	639959.44	-8.904719e-05
0	0.6287392	0.62873864	-2.8661182e-10	0.05006314	0.05006314	0	122037.516	122037.39	-5.8641974e-05	640035.4	240199.06	-0.0001669635	240199.52	640035.06	-0.0002671416
0	0.62861013	0.6286095	-1.9107455e-10	0.049921636	0.049921636	0	122012.445	122012.33	-4.3209875e-05	640110.7	239942.98	-0.0001447017	239943.47	640110.4	-0.0001447017
0	0.62848014	0.62847954	-8.492202e-11	0.049780358	0.049780358	0	121987.21	121987.09	-1.5432099e-05	640186.1	239685.6	-4.4523596e-05	239686.05	640185.75	-0.00012243989
0	0.62835	0.6283494	-2.1230506e-10	0.04963884	0.04963884	0	121961.95	121961.836	-4.3209875e-05	640261.6	239427.86	-0.000111309	239428.34	640261.25	-0.0001669635
0	0.62821925	0.6282186	-1.0615253e-10	0.049497515	0.049497515	0	121936.58	121936.45	-2.4691359e-05	640337.1	239169.22	-8.904719e-05	239169.7	640336.8	-0.000111309
0	0.62808853	0.62808794	-2.1230506e-10	0.049356006	0.04935601	0	121911.22	121911.09	-4.0123457e-05	640412.06	238911.38	-7.7916295e-05	238911.88	640411.7	-0.00020035618
0	0.6279576	0.6279569	-8.492202e-11	0.04921472	0.049214717	0	121885.78	121885.66	-2.1604938e-05	640488.1	238651.95	-0.0001447017	238652.45	640487.75	-5.56545e-05
0	0.6278262	0.6278256	-1.379983e-10	0.049073216	0.049073216	0	121860.3	121860.19	-2.4691359e-05	640563.4	238392.86	-0.000222618	238393.36	640563	4.4523596e-05
0	0.62769485	0.6276943	-1.9107455e-10	0.048931714	0.048931714	0	121834.79	121834.67	-3.7037036e-05	640639.06	238133.23	-0.00017809439	238133.73	640638.6	-0.0001335708
0	0.6275631	0.62756246	-1.1676778e-10	0.048790433	0.048790433	0	121809.21	121809.1	-2.7777778e-05	640714.75	237873.06	-8.904719e-05	237873.56	640714.3	-6.67854e-05
0	0.6274291	0.6274286	-2.3353555e-10	0.04864886	0.048648864	0	121783.234	121783.11	-4.0123457e-05	640789.94	237610.47	4.4523596e-05	237610.92	640789.6	-0.00032279608
0	0.62729836	0.62729776	-8.492202e-11	0.048507594	0.048507594	0	121757.85	121757.71	-1.8518518e-05	640865.4	237351.78	2.2261798e-05	237352.27	640865	-0.00012243989
0	0.6271659	0.6271653	-1.2738303e-10	0.048366077	0.048366074	0	121732.13	121732.02	-2.7777778e-05	640940.6	237091.2	-0.0001335708	237091.67	640940.25	-3.33927e-05
0	0.6270327	0.6270321	-2.3353555e-10	0.048224576	0.048224572	0	121706.26	121706.16	-4.9382717e-05	641016.7	236828.52	-0.00021148709	236829.02	641016.3	-0.00015583259
0	0.6268994	0.6268988	-7.006067e-10	0.048083298	0.048083298	0	121680.41	121680.27	-0.00013271604	641092.2	236566.55	-0.0005342832	236567.06	641091.75	-0.0005008905
0	0.6267641	0.6267636	-1.4861354e-10	0.04794178	0.047941785	0	121654.15	121654.016	-3.395062e-05	641167.7	236301.6	-0.0002671416	236302.1	641167.3	2.2261798e-05
0	0.6266324	0.6266318	-2.1230506e-10	0.047800448	0.047800444	0	121628.586	121628.445	-3.7037036e-05	641243.2	236041.72	-0.000111309	236042.22	641242.8	-0.0001669635
0	0.6264981	0.6264975	-2.9722708e-10	0.047658946	0.047658946	0	121602.516	121602.39	-5.8641974e-05	641318.8	235778.08	-0.00023374888	235778.6	641318.44	-0.00021148709
0	0.62636405	0.6263635	-1.1676778e-10	0.047517657	0.047517657	0	121576.5	121576.375	-2.7777778e-05	641394.2	235515.03	-5.56545e-05	235515.58	641393.75	-0.0001447017
0	0.62622875	0.62622815	-2.759966e-10	0.047376156	0.047376156	0	121550.23	121550.1	-4.3209875e-05	641470.2	235249.61	-0.00020035618	235250.11	641469.8	-0.00015583259
0	0.6260938	0.6260931	-1.6984404e-10	0.047234654	0.047234654	0	121524.01	121523.9	-3.7037036e-05	641545.4	234985.39	-4.4523596e-05	234985.84	641545	-0.00021148709
0	0.6259584	0.6259577	-2.9722708e-10	0.047093365	0.047093365	0	121497.74	121497.625	-6.1728395e-05	641621.44	234719.72	-0.00023374888	234720.22	641621.06	-0.00021148709
0	0.625823	0.6258224	-3.609186e-10	0.0469518	0.046951804	0	121471.484	121471.35	-7.407407e-05	641696.9	234454.86	-0.00022818343	234455.36	641696.5	-0.0002671416
0	0.625687	0.62568647	-2.1230506e-10	0.046810526	0.046810526	0	121445.086	121444.96	-3.7037036e-05	641772.44	234188.9	-0.00017252895	234189.44	641772	-0.0001447017
0	0.62555104	0.62555045	-2.3353555e-10	0.04666901	0.04666901	0	121418.69	121418.56	-4.6296296e-05	641848.06	233922.95	-0.00012243989	233923.45	641847.6	-0.00021148709
0	0.6254144	0.6254137	-3.2907285e-10	0.04652774	0.04652774	0	121392.16	121392.04	-6.790124e-05	641923.7	233655.88	-0.00023374888	233656.39	641923.3	-0.00025601068
0	0.62527746	0.62527686	-2.3353555e-10	0.04638624	0.04638624	0	121365.59	121365.47	-4.3209875e-05	641999.2	233388.77	-0.00020035618	233389.3	641998.75	-0.000111309
0	0.6251401	0.6251394	-3.2907285e-10	0.04624473	0.04624473	0	121338.914	121338.805	-6.481481e-05	642075.25	233120.42	-0.00030053427	233120.92	642074.8	-0.00015583259
0	0.62500286	0.6250022	-4.5645587e-10	0.046103444	0.046103444	0	121312.28	121312.16	-9.259259e-05	642150.2	232853.3	-0.00042297418	232853.81	642149.8	-0.00024487977
0	0.6248653	0.62486464	-1.1676778e-10	0.045961883	0.045961883	0	121285.59	121285.45	-2.4691359e-05	642226.4	232584.55	-0.00012243989	232585.05	642225.94	-4.4523596e-05
0	0.6247256	0.6247249	-3.3968808e-10	0.045820594	0.045820594	0	121258.46	121258.336	-6.790124e-05	642302.7	232312.64	-0.00031723065	232313.16	642302.25	-0.00020035618
0	0.62458736	0.62458676	-2.6538133e-10	0.045679096	0.045679096	0	121231.64	121231.51	-5.2469135e-05	642377.56	232044.28	-0.000222618	232044.78	642377.2	-0.0001669635
0	0.6244507	0.62445	-1.9107455e-10	0.0455376	0.0455376	0	121205.1	121204.98	-3.395062e-05	642452.94	231777.47	-0.0001447017	231778.02	642452.56	-0.00012243989
0	0.62431103	0.62431043	-1.6984404e-10	0.0453963	0.0453963	0	121178.01	121177.88	-2.7777778e-05	642529.06	231505.97	-8.904719e-05	231506.52	642528.56	-0.000111309
0	0.62417144	0.6241707	-2.016898e-10	0.04525481	0.04525481	0	121150.91	121150.766	-4.3209875e-05	642604.1	231235.31	-0.00017809439	231235.86	642603.75	-0.000111309
0	0.62403333	0.6240327	-1.0615253e-10	0.045113456	0.045113456	0	121124.09	121123.97	-2.4691359e-05	642679.8	230966.3	-5.56545e-05	230966.8	642679.4	-0.000111309