//mumax 3.10 [windows_amd64 go1.11.6(gc) CUDA-11.0]
//GPU info: NVIDIA GeForce RTX 3090(24575MB), CUDA Driver 12.0, cc=8.6, using cc=80 PTX
//(c) Arne Vansteenkiste, Dynamat LAB, Ghent University, Belgium
//This is free software without any warranty. See license.txt
//********************************************************************//
//  If you use mumax in any work or publication,                      //
//  we kindly ask you to cite the references in references.bib        //
//********************************************************************//
//output directory: r1;p0.1;a5.12e-07;l3.0000000000000004e-07;s0.out/
randSeed(0)
ThermSeed(0)
resolution := 2e-09
zResolution := 5e-09
a := 5.12e-07
gridSize := 512
gridDepth := 5
SetCellsize(resolution, resolution, zResolution)
SetGridsize(gridSize, gridSize, gridDepth)
SetPBC(16, 16, 0)
//resizing...
Msat = 700e3
Aex = 13e-12
alpha = 0.2
Bmax := 0.1
Bstep := Bmax / 500.0
TableAdd(B_ext)
TableAdd(m_full)
islandWidth := 8e-08
islandLength := 3.0000000000000004e-07
ellipseConstant := 1.5000000000000002e-08
hIsland := rect(islandLength-2*ellipseConstant, islandWidth)
hIsland = hIsland.add(ellipse(ellipseConstant*2, islandWidth).transl(islandLength/2-ellipseConstant, 0, 0))
hIsland = hIsland.add(ellipse(ellipseConstant*2, islandWidth).transl(-islandLength/2+ellipseConstant, 0, 0))
hIsland = hIsland.sub(rect(6.000000000000001e-09, -1.3232074494182565e-09).transl(-1.207525543041885e-07, -4e-08, 0))
hIsland = hIsland.add(rect(6.000000000000001e-09, 1.8513562303676328e-09).transl(-6.135834686215517e-08, -4e-08, 0))
hIsland = hIsland.add(rect(6.000000000000001e-09, 1.4236965300196271e-09).transl(9.749793802700783e-08, -4e-08, 0))
hIsland = hIsland.sub(rect(6.000000000000001e-09, -1.5291762154635515e-09).transl(-5.1467538044069006e-08, -4e-08, 0))
hIsland = hIsland.add(rect(6.000000000000001e-09, 2.1475180052495845e-09).transl(-2.4810052976423846e-08, -4e-08, 0))
hIsland = hIsland.sub(rect(6.000000000000001e-09, -2.766798637030125e-09).transl(1.269483119370782e-07, -4e-08, 0))
hIsland = hIsland.sub(rect(6.000000000000001e-09, -3.602455844925357e-10).transl(8.29284757708429e-08, -4e-08, 0))
hIsland = hIsland.add(rect(6.000000000000001e-09, 2.3167039610457407e-09).transl(3.9262823971100264e-08, -4e-08, 0))
hIsland = hIsland.sub(rect(6.000000000000001e-09, -2.7665901863342597e-09).transl(-6.812044203350013e-08, -4e-08, 0))
hIsland = hIsland.add(rect(6.000000000000001e-09, 2.2280207090364723e-09).transl(1.9375477783703056e-08, -4e-08, 0))
hIsland = hIsland.add(rect(6.000000000000001e-09, 1.5404132090067804e-11).transl(-2.758715446866809e-08, -4e-08, 0))
hIsland = hIsland.sub(rect(6.000000000000001e-09, -1.0670749651600067e-09).transl(-1.4726119746684116e-07, -2.3042073468293738e-08, 0))
hIsland = hIsland.add(rect(6.000000000000001e-09, 1.4516219400153346e-09).transl(5.18592210679223e-08, -4e-08, 0))
hIsland = hIsland.add(rect(6.000000000000001e-09, 1.8616040602182433e-10).transl(-1.2393414820156984e-07, -4e-08, 0))
hIsland = hIsland.sub(rect(6.000000000000001e-09, -4.170043420994756e-09).transl(-5.1206577889777106e-08, -4e-08, 0))
hIsland = hIsland.sub(rect(6.000000000000001e-09, -1.186620771853649e-09).transl(1.337473958568481e-07, -4e-08, 0))
hIsland = hIsland.add(rect(6.000000000000001e-09, 1.527169742963643e-09).transl(2.6715359876478847e-08, -4e-08, 0))
hIsland = hIsland.add(rect(6.000000000000001e-09, 6.307154358615661e-10).transl(-2.9629093739646216e-08, -4e-08, 0))
hIsland = hIsland.sub(rect(6.000000000000001e-09, -1.113523885500655e-09).transl(-2.038394349493338e-08, -4e-08, 0))
hIsland = hIsland.sub(rect(6.000000000000001e-09, -2.395725505873198e-09).transl(7.380009971872802e-08, -4e-08, 0))
hIsland = hIsland.sub(rect(6.000000000000001e-09, -4.711362783176379e-09).transl(8.315724330246413e-08, -4e-08, 0))
hIsland = hIsland.sub(rect(6.000000000000001e-09, -3.9385898780782866e-09).transl(-4.8173733299124804e-08, -4e-08, 0))
hIsland = hIsland.add(rect(6.000000000000001e-09, 6.481890546128898e-10).transl(-7.737135309217092e-08, -4e-08, 0))
hIsland = hIsland.sub(rect(6.000000000000001e-09, -2.1055055997050803e-09).transl(-2.1116094345370338e-08, -4e-08, 0))
hIsland = hIsland.add(rect(6.000000000000001e-09, 3.822719860668737e-09).transl(-3.3861173533772867e-08, -4e-08, 0))
hIsland = hIsland.sub(rect(6.000000000000001e-09, -8.06459984198376e-11).transl(4.147405666674538e-08, -4e-08, 0))
hIsland = hIsland.sub(rect(6.000000000000001e-09, -1.2487836646813305e-09).transl(1.395069812139784e-07, -3.815170842477021e-08, 0))
hIsland = hIsland.sub(rect(6.000000000000001e-09, -1.0265932095180239e-09).transl(1.4159622069581731e-07, -3.592484723860289e-08, 0))
hIsland = hIsland.add(rect(6.000000000000001e-09, 2.6355302324315043e-09).transl(-5.570151243807818e-08, -4e-08, 0))
hIsland = hIsland.sub(rect(6.000000000000001e-09, -8.519084035420521e-10).transl(1.4948409707626012e-07, -1.0400318588444554e-08, 0))
hIsland = hIsland.sub(rect(6.000000000000001e-09, -2.046488710926421e-09).transl(1.4217087312152628e-07, -3.5133126241006074e-08, 0))
hIsland = hIsland.sub(rect(6.000000000000001e-09, -6.765193463347159e-10).transl(4.3216273223851345e-09, -4e-08, 0))
hIsland = hIsland.add(rect(6.000000000000001e-09, 1.2240240123675811e-09).transl(6.642789508777107e-08, -4e-08, 0))
hIsland = hIsland.add(rect(6.000000000000001e-09, 7.334098360067646e-10).transl(1.2817455526704312e-07, -4e-08, 0))
hIsland = hIsland.add(rect(6.000000000000001e-09, 5.878542820067653e-10).transl(-7.565223415661018e-08, -4e-08, 0))
hIsland = hIsland.add(rect(6.000000000000001e-09, 1.8419455463517241e-09).transl(-7.813325474123612e-08, -4e-08, 0))
hIsland = hIsland.sub(rect(6.000000000000001e-09, -6.245006751217614e-10).transl(4.9058181788756005e-08, -4e-08, 0))
hIsland = hIsland.sub(rect(6.000000000000001e-09, -1.4723911235309808e-10).transl(8.011614799419479e-08, -4e-08, 0))
hIsland = hIsland.sub(rect(6.000000000000001e-09, -1.7164689773150075e-09).transl(-1.4466495356809747e-07, -3.0589894921357604e-08, 0))
hIsland = hIsland.sub(rect(6.000000000000001e-09, -1.4419112695371981e-09).transl(-1.1182405796467541e-07, -4e-08, 0))
hIsland = hIsland.sub(rect(6.000000000000001e-09, -2.084867230209082e-09).transl(8.2137488004124e-08, -4e-08, 0))
hIsland = hIsland.add(rect(6.000000000000001e-09, 3.534679149257333e-09).transl(-1.016904503702474e-07, -4e-08, 0))
hIsland = hIsland.add(rect(6.000000000000001e-09, 3.685834727438898e-09).transl(1.1640990562376175e-07, -4e-08, 0))
hIsland = hIsland.add(rect(6.000000000000001e-09, 1.32752696679668e-09).transl(-5.413677606005486e-08, -4e-08, 0))
hIsland = hIsland.add(rect(6.000000000000001e-09, 2.73086312801268e-09).transl(9.697306363558633e-08, -4e-08, 0))
hIsland = hIsland.sub(rect(6.000000000000001e-09, -7.139818310852767e-13).transl(-4.556246804029848e-08, -4e-08, 0))
hIsland = hIsland.sub(rect(6.000000000000001e-09, -3.236077720069056e-10).transl(-9.428436693226592e-08, -4e-08, 0))
hIsland = hIsland.sub(rect(6.000000000000001e-09, -1.3812751951400402e-09).transl(1.242487417553609e-08, -4e-08, 0))
hIsland = hIsland.add(rect(6.000000000000001e-09, 1.0946436042568068e-09).transl(-7.401402608734496e-08, -4e-08, 0))
hIsland = hIsland.add(rect(6.000000000000001e-09, 1.0322691893497433e-09).transl(-1.1350732325078206e-07, -4e-08, 0))
hIsland = hIsland.sub(rect(6.000000000000001e-09, -1.657172655028027e-09).transl(8.607199577841747e-09, -4e-08, 0))
hIsland = hIsland.add(rect(6.000000000000001e-09, 8.629186338106522e-10).transl(-3.7356071153151895e-08, -4e-08, 0))
hIsland = hIsland.add(rect(6.000000000000001e-09, 6.290083408972299e-10).transl(-1.0124165236866778e-07, -4e-08, 0))
hIsland = hIsland.sub(rect(6.000000000000001e-09, -1.5700812827490174e-09).transl(-4.676498892130505e-09, -4e-08, 0))
hIsland = hIsland.sub(rect(6.000000000000001e-09, -5.698565481874471e-10).transl(-1.1500229070214854e-07, -4e-08, 0))
hIsland = hIsland.add(rect(6.000000000000001e-09, 1.5213574571504478e-09).transl(1.3934067348515332e-07, -3.828859336451461e-08, 0))
hIsland = hIsland.sub(rect(6.000000000000001e-09, -1.208903060585089e-09).transl(-9.772703866657074e-08, -4e-08, 0))
hIsland = hIsland.sub(rect(6.000000000000001e-09, -1.8674788101042886e-09).transl(8.508516938789607e-08, -4e-08, 0))
hIsland = hIsland.add(rect(6.000000000000001e-09, 1.0923531242053146e-09).transl(3.667349584189333e-08, -4e-08, 0))
hIsland = hIsland.add(rect(6.000000000000001e-09, 1.6144245586084071e-09).transl(-1.2899632037734266e-07, -4e-08, 0))
hIsland = hIsland.add(rect(6.000000000000001e-09, 2.8521712111137705e-09).transl(-7.538268973936208e-09, -4e-08, 0))
hIsland = hIsland.add(rect(6.000000000000001e-09, 3.2636149309112957e-09).transl(5.46716919096571e-08, -4e-08, 0))
hIsland = hIsland.sub(rect(6.000000000000001e-09, -4.467534900849782e-10).transl(7.413353199061312e-08, -4e-08, 0))
hIsland = hIsland.add(rect(6.000000000000001e-09, 1.7083924981135134e-09).transl(1.3070948142579656e-07, -4e-08, 0))
hIsland = hIsland.sub(rect(6.000000000000001e-09, -1.4742391376386899e-09).transl(-7.441557965860989e-08, -4e-08, 0))
hIsland = hIsland.sub(rect(6.000000000000001e-09, -4.703877976475611e-09).transl(-5.214992894964643e-08, -4e-08, 0))
hIsland = hIsland.add(rect(6.000000000000001e-09, 2.177294529900131e-09).transl(-9.211529209576187e-08, -4e-08, 0))
hIsland = hIsland.sub(rect(6.000000000000001e-09, -1.9374580586221037e-09).transl(2.8963696446674754e-08, -4e-08, 0))
hIsland = hIsland.sub(rect(6.000000000000001e-09, -4.226622350171454e-09).transl(2.0772376435456154e-08, -4e-08, 0))
hIsland = hIsland.sub(rect(6.000000000000001e-09, -4.3061926110439067e-10).transl(1.1996804763080668e-07, -4e-08, 0))
hIsland = hIsland.add(rect(6.000000000000001e-09, 4.3708509075744725e-10).transl(-1.0111750441243254e-07, -4e-08, 0))
hIsland = hIsland.add(rect(6.000000000000001e-09, 4.057649068833553e-11).transl(-6.53206612397097e-08, -4e-08, 0))
hIsland = hIsland.add(rect(6.000000000000001e-09, 7.335644730119114e-10).transl(7.339096551545042e-09, -4e-08, 0))
hIsland = hIsland.sub(rect(6.000000000000001e-09, -2.821896618252408e-09).transl(-2.7518140263619788e-08, -4e-08, 0))
hIsland = hIsland.add(rect(6.000000000000001e-09, 1.471561692670808e-09).transl(-2.8306284533146505e-09, -4e-08, 0))
hIsland = hIsland.sub(rect(6.000000000000001e-09, -2.4908099289150417e-09).transl(9.301374089671153e-08, -4e-08, 0))
hIsland = hIsland.sub(rect(6.000000000000001e-09, -5.359568078584491e-09).transl(-1.3968099023285516e-08, -4e-08, 0))
hIsland = hIsland.add(rect(6.000000000000001e-09, 6.611835471022123e-10).transl(-5.995900989697067e-08, -4e-08, 0))
hIsland = hIsland.sub(rect(6.000000000000001e-09, -2.1323025999241303e-09).transl(-1.1754253212408348e-07, -4e-08, 0))
hIsland = hIsland.sub(rect(6.000000000000001e-09, -2.979873427264726e-09).transl(4.2248394312670614e-08, -4e-08, 0))
hIsland = hIsland.add(rect(6.000000000000001e-09, 1.9111297305465922e-10).transl(1.0221642307526628e-07, -4e-08, 0))
hIsland = hIsland.sub(rect(6.000000000000001e-09, -5.109943842381467e-10).transl(-1.3819324584534985e-07, -3.9083107436666274e-08, 0))
hIsland = hIsland.sub(rect(6.000000000000001e-09, -6.107891469443329e-10).transl(-3.01707812833644e-08, -4e-08, 0))
hIsland = hIsland.add(rect(6.000000000000001e-09, 1.0974783016317443e-09).transl(6.268752874931152e-08, -4e-08, 0))
hIsland = hIsland.sub(rect(6.000000000000001e-09, -5.008054960549835e-10).transl(-4.5000292556865486e-08, -4e-08, 0))
hIsland = hIsland.add(rect(6.000000000000001e-09, 8.299966878331494e-10).transl(1.5059884443709243e-08, -4e-08, 0))
hIsland = hIsland.sub(rect(6.000000000000001e-09, -2.7740708137549047e-09).transl(-1.383754341802984e-07, -3.897408315798005e-08, 0))
hIsland = hIsland.sub(rect(6.000000000000001e-09, -2.879846798357816e-09).transl(-6.388540351149665e-08, -4e-08, 0))
hIsland = hIsland.sub(rect(6.000000000000001e-09, -3.798352798228734e-09).transl(-1.2942972241970137e-07, -4e-08, 0))
hIsland = hIsland.add(rect(6.000000000000001e-09, 6.33111481707673e-10).transl(8.950426682087709e-08, -4e-08, 0))
hIsland = hIsland.sub(rect(6.000000000000001e-09, -7.715190828880528e-10).transl(-5.158069732449494e-08, -4e-08, 0))
hIsland = hIsland.add(rect(6.000000000000001e-09, 2.2278757443088483e-09).transl(4.418907944185672e-08, -4e-08, 0))
hIsland = hIsland.sub(rect(6.000000000000001e-09, -1.6743289994150723e-09).transl(-6.363084571269939e-09, -4e-08, 0))
hIsland = hIsland.sub(rect(6.000000000000001e-09, -1.0918322715792937e-09).transl(-1.0085930958593975e-08, -4e-08, 0))
hIsland = hIsland.sub(rect(6.000000000000001e-09, -1.0059929026595011e-09).transl(1.2528648057268755e-07, -4e-08, 0))
hIsland = hIsland.sub(rect(6.000000000000001e-09, -1.9802343053394116e-09).transl(1.4666251859510078e-08, -4e-08, 0))
hIsland = hIsland.add(rect(6.000000000000001e-09, 2.9483718114737854e-09).transl(-1.0090291416760531e-07, -4e-08, 0))
hIsland = hIsland.add(rect(6.000000000000001e-09, 8.892100134754766e-10).transl(4.9263403923045276e-08, -4e-08, 0))
hIsland = hIsland.sub(rect(6.000000000000001e-09, -1.3717110831954596e-09).transl(8.818883248591095e-08, -4e-08, 0))
hIsland = hIsland.sub(rect(6.000000000000001e-09, -5.287539066112066e-10).transl(4.095479392457506e-08, -4e-08, 0))
hIsland = hIsland.sub(rect(6.000000000000001e-09, -1.931977878134137e-09).transl(-1.2075319417177835e-08, 4e-08, 0))
hIsland = hIsland.add(rect(6.000000000000001e-09, 1.3691310359757265e-09).transl(-5.0286395953522705e-08, 4e-08, 0))
hIsland = hIsland.add(rect(6.000000000000001e-09, 7.208980695197649e-10).transl(-1.0223154166515438e-07, 4e-08, 0))
hIsland = hIsland.sub(rect(6.000000000000001e-09, -5.070689660934298e-10).transl(-5.4447660337335685e-09, 4e-08, 0))
hIsland = hIsland.add(rect(6.000000000000001e-09, 1.1272128085243793e-09).transl(8.410886543627095e-08, 4e-08, 0))
hIsland = hIsland.sub(rect(6.000000000000001e-09, -7.905735939035119e-10).transl(5.5189593226036895e-09, 4e-08, 0))
hIsland = hIsland.sub(rect(6.000000000000001e-09, -4.559677241902385e-10).transl(2.4627443418446338e-08, 4e-08, 0))
hIsland = hIsland.sub(rect(6.000000000000001e-09, -3.819848918431121e-09).transl(1.2276969348892156e-07, 4e-08, 0))
hIsland = hIsland.add(rect(6.000000000000001e-09, 9.684021928177967e-11).transl(2.3454075507717928e-08, 4e-08, 0))
hIsland = hIsland.sub(rect(6.000000000000001e-09, -1.0256431185644241e-09).transl(-1.0982487262287683e-07, 4e-08, 0))
hIsland = hIsland.add(rect(6.000000000000001e-09, 1.722576047828583e-09).transl(-4.268006097510327e-08, 4e-08, 0))
hIsland = hIsland.add(rect(6.000000000000001e-09, 9.762735679282244e-10).transl(1.42619541376554e-07, 3.445500400603477e-08, 0))
hIsland = hIsland.sub(rect(6.000000000000001e-09, -2.2965537231483474e-09).transl(-1.332206052896388e-07, 4e-08, 0))
hIsland = hIsland.add(rect(6.000000000000001e-09, 3.4936064404921756e-10).transl(-6.871927892293042e-08, 4e-08, 0))
hIsland = hIsland.add(rect(6.000000000000001e-09, 7.270626201422585e-10).transl(-6.669912770227538e-09, 4e-08, 0))
hIsland = hIsland.sub(rect(6.000000000000001e-09, -3.675105922504603e-10).transl(-1.0785450662204656e-07, 4e-08, 0))
hIsland = hIsland.sub(rect(6.000000000000001e-09, -2.7215598012245278e-09).transl(8.98403211841944e-08, 4e-08, 0))
hIsland = hIsland.add(rect(6.000000000000001e-09, 1.1627198094336343e-09).transl(-4.74818266581549e-08, 4e-08, 0))
hIsland = hIsland.add(rect(6.000000000000001e-09, 4.502562577413495e-09).transl(-4.6346912374519743e-08, 4e-08, 0))
hIsland = hIsland.add(rect(6.000000000000001e-09, 1.6347669085056405e-10).transl(7.568979782795709e-08, 4e-08, 0))
hIsland = hIsland.add(rect(6.000000000000001e-09, 1.137233256544632e-09).transl(1.1407583392596432e-07, 4e-08, 0))
hIsland = hIsland.sub(rect(6.000000000000001e-09, -2.4115798217983094e-09).transl(-6.101180681043554e-09, 4e-08, 0))
hIsland = hIsland.sub(rect(6.000000000000001e-09, -3.4339234017204777e-09).transl(1.36127814305793e-07, 3.9886776189422196e-08, 0))
hIsland = hIsland.sub(rect(6.000000000000001e-09, -5.535054366702082e-10).transl(-8.709611591951191e-08, 4e-08, 0))
hIsland = hIsland.sub(rect(6.000000000000001e-09, -1.879223722107577e-09).transl(6.727535488755494e-08, 4e-08, 0))
hIsland = hIsland.add(rect(6.000000000000001e-09, 1.5066170196306786e-09).transl(-4.5807710941794734e-08, 4e-08, 0))
hIsland = hIsland.sub(rect(6.000000000000001e-09, -2.2591273365249013e-09).transl(4.599328970907113e-08, 4e-08, 0))
hIsland = hIsland.add(rect(6.000000000000001e-09, 1.2830028632566896e-09).transl(1.3189587262906336e-07, 4e-08, 0))
hIsland = hIsland.sub(rect(6.000000000000001e-09, -1.3413867819105153e-09).transl(1.1264853443401608e-07, 4e-08, 0))
hIsland = hIsland.add(rect(6.000000000000001e-09, 5.419213258603523e-10).transl(8.2275449416614e-08, 4e-08, 0))
hIsland = hIsland.sub(rect(6.000000000000001e-09, -3.0374365533704826e-09).transl(7.039790642444654e-11, 4e-08, 0))
hIsland = hIsland.add(rect(6.000000000000001e-09, 2.808969470581076e-10).transl(-1.1671910999052427e-07, 4e-08, 0))
hIsland = hIsland.sub(rect(6.000000000000001e-09, -2.9355267166019995e-09).transl(-1.9943631064863078e-08, 4e-08, 0))
hIsland = hIsland.sub(rect(6.000000000000001e-09, -1.9370339330114823e-09).transl(-8.462107455809209e-08, 4e-08, 0))
hIsland = hIsland.add(rect(6.000000000000001e-09, 9.455730143535902e-10).transl(-1.2688085333216202e-07, 4e-08, 0))
hIsland = hIsland.sub(rect(6.000000000000001e-09, -6.69890864840545e-10).transl(-1.2713166179716035e-07, 4e-08, 0))
hIsland = hIsland.sub(rect(6.000000000000001e-09, -2.086733299155408e-09).transl(-4.6958389534173597e-08, 4e-08, 0))
hIsland = hIsland.sub(rect(6.000000000000001e-09, -2.6411047434180157e-09).transl(-1.377323992279397e-07, 3.933075647687033e-08, 0))
hIsland = hIsland.sub(rect(6.000000000000001e-09, -1.0137709542561261e-09).transl(-1.4689871211078276e-07, 2.435597486974665e-08, 0))
hIsland = hIsland.add(rect(6.000000000000001e-09, 1.9260816331364448e-09).transl(1.4860079170286035e-07, 1.6869373180563258e-08, 0))
hIsland = hIsland.add(rect(6.000000000000001e-09, 3.26368398560573e-10).transl(8.688889788128122e-08, 4e-08, 0))
hIsland = hIsland.sub(rect(6.000000000000001e-09, -3.4262193796769602e-09).transl(-2.4384548655841244e-08, 4e-08, 0))
hIsland = hIsland.sub(rect(6.000000000000001e-09, -1.310231019910551e-10).transl(-1.0541992942768554e-07, 4e-08, 0))
hIsland = hIsland.sub(rect(6.000000000000001e-09, -8.007514117573247e-10).transl(-1.0066285816159975e-07, 4e-08, 0))
hIsland = hIsland.sub(rect(6.000000000000001e-09, -3.118724151331834e-10).transl(1.8263721440502374e-08, 4e-08, 0))
hIsland = hIsland.sub(rect(6.000000000000001e-09, -3.432027052255976e-10).transl(-1.3285081228322898e-08, 4e-08, 0))
hIsland = hIsland.sub(rect(6.000000000000001e-09, -2.3740398192678556e-09).transl(1.3615349789716506e-08, 4e-08, 0))
hIsland = hIsland.sub(rect(6.000000000000001e-09, -3.36438640288428e-09).transl(1.3268030939742048e-07, 4e-08, 0))
hIsland = hIsland.add(rect(6.000000000000001e-09, 2.096971712490622e-09).transl(8.896355571347166e-08, 4e-08, 0))
hIsland = hIsland.sub(rect(6.000000000000001e-09, -1.553890721745937e-09).transl(1.415194192149722e-07, 3.602440388644728e-08, 0))
hIsland = hIsland.add(rect(6.000000000000001e-09, 3.144496173406873e-10).transl(-1.2943774697253237e-08, 4e-08, 0))
hIsland = hIsland.sub(rect(6.000000000000001e-09, -2.6994454492207895e-10).transl(2.131267658418665e-08, 4e-08, 0))
hIsland = hIsland.add(rect(6.000000000000001e-09, 2.2153704093859304e-09).transl(1.0406082884479112e-07, 4e-08, 0))
hIsland = hIsland.add(rect(6.000000000000001e-09, 2.2917974251699582e-09).transl(5.538268165810007e-08, 4e-08, 0))
hIsland = hIsland.add(rect(6.000000000000001e-09, 3.4338154164441866e-09).transl(-1.4819211970537888e-08, 4e-08, 0))
hIsland = hIsland.sub(rect(6.000000000000001e-09, -1.0653300544152177e-09).transl(-3.797498777993036e-09, 4e-08, 0))
hIsland = hIsland.sub(rect(6.000000000000001e-09, -1.1471306389704165e-09).transl(1.4927688818708e-08, 4e-08, 0))
hIsland = hIsland.add(rect(6.000000000000001e-09, 1.188153612409057e-09).transl(2.831201456636148e-08, 4e-08, 0))
hIsland = hIsland.sub(rect(6.000000000000001e-09, -7.196931291009962e-10).transl(-1.338323709514808e-10, 4e-08, 0))
hIsland = hIsland.sub(rect(6.000000000000001e-09, -5.890812870698384e-11).transl(-1.2159457149703986e-07, 4e-08, 0))
hIsland = hIsland.sub(rect(6.000000000000001e-09, -1.2184880887871075e-09).transl(1.6070182599751984e-08, 4e-08, 0))
hIsland = hIsland.add(rect(6.000000000000001e-09, 8.245691272599377e-10).transl(6.414469850125423e-08, 4e-08, 0))
hIsland = hIsland.sub(rect(6.000000000000001e-09, -7.490398501988774e-10).transl(-7.474050552599637e-09, 4e-08, 0))
hIsland = hIsland.add(rect(6.000000000000001e-09, 7.830032743148257e-10).transl(8.60690326211492e-08, 4e-08, 0))
hIsland = hIsland.sub(rect(6.000000000000001e-09, -1.227776320140142e-09).transl(-2.872720736133208e-08, 4e-08, 0))
hIsland = hIsland.sub(rect(6.000000000000001e-09, -1.3582116018512742e-09).transl(8.013832269083287e-08, 4e-08, 0))
hIsland = hIsland.sub(rect(6.000000000000001e-09, -2.6321203023961945e-09).transl(-1.3364797988529113e-07, 4e-08, 0))
hIsland = hIsland.add(rect(6.000000000000001e-09, 1.7658567227447702e-09).transl(1.471239313384304e-08, 4e-08, 0))
hIsland = hIsland.add(rect(6.000000000000001e-09, 1.1514071742595439e-09).transl(1.4565631729387724e-07, 2.8151072035757468e-08, 0))
hIsland = hIsland.sub(rect(6.000000000000001e-09, -1.760895926362756e-10).transl(-1.3339745795364324e-07, 4e-08, 0))
hIsland = hIsland.sub(rect(6.000000000000001e-09, -5.848126465363778e-11).transl(5.48169738750013e-08, 4e-08, 0))
hIsland = hIsland.add(rect(6.000000000000001e-09, 3.524172683899413e-10).transl(1.3371107690479145e-07, 4e-08, 0))
hIsland = hIsland.sub(rect(6.000000000000001e-09, -1.6064983427794741e-09).transl(2.260985952764907e-08, 4e-08, 0))
hIsland = hIsland.sub(rect(6.000000000000001e-09, -1.7813384500282818e-09).transl(-3.078027335808855e-08, 4e-08, 0))
hIsland = hIsland.add(rect(6.000000000000001e-09, 1.5039504176582868e-09).transl(-4.5436142815329506e-08, 4e-08, 0))
hIsland = hIsland.sub(rect(6.000000000000001e-09, -2.4924877290440153e-09).transl(-2.171019404829029e-08, 4e-08, 0))
hIsland = hIsland.sub(rect(6.000000000000001e-09, -3.2712287201041297e-10).transl(1.3603549469965073e-07, 3.990457512968726e-08, 0))
hIsland = hIsland.add(rect(6.000000000000001e-09, 1.4866637381774916e-09).transl(-4.250232310843884e-08, 4e-08, 0))
hIsland = hIsland.sub(rect(6.000000000000001e-09, -1.2023019774439406e-09).transl(4.8325987171911965e-08, 4e-08, 0))
hIsland = hIsland.sub(rect(6.000000000000001e-09, -1.3488347855604222e-09).transl(7.041678343170836e-08, 4e-08, 0))
hIsland = hIsland.sub(rect(6.000000000000001e-09, -8.755574459338875e-10).transl(9.365143494047657e-09, 4e-08, 0))
hIsland = hIsland.sub(rect(6.000000000000001e-09, -6.821338250891271e-10).transl(-1.466501697097884e-09, 4e-08, 0))
hIsland = hIsland.add(rect(6.000000000000001e-09, 2.47549499084149e-09).transl(7.117693792054168e-08, 4e-08, 0))
hIsland = hIsland.add(rect(6.000000000000001e-09, 2.8026191865098556e-10).transl(1.1613600521945053e-07, 4e-08, 0))
hIsland = hIsland.sub(rect(6.000000000000001e-09, -2.2546932932477673e-09).transl(2.5323361904972284e-08, 4e-08, 0))
hIsland = hIsland.add(rect(6.000000000000001e-09, 1.2582323770885008e-09).transl(1.3828360791955548e-08, 4e-08, 0))
hIsland = hIsland.sub(rect(6.000000000000001e-09, -9.898564634469117e-11).transl(3.206093674363854e-09, 4e-08, 0))
hIsland = hIsland.sub(rect(6.000000000000001e-09, -3.048088079800409e-09).transl(8.481891322940507e-09, 4e-08, 0))
hIsland = hIsland.sub(rect(6.000000000000001e-09, -3.017245279224386e-09).transl(7.970857106067416e-08, 4e-08, 0))
hIsland = hIsland.sub(rect(6.000000000000001e-09, -1.7037558031860557e-09).transl(-1.2281458632538245e-07, 4e-08, 0))
hIsland = hIsland.sub(rect(6.000000000000001e-09, -1.324905291574712e-10).transl(-7.612134593563016e-08, 4e-08, 0))
hIsland = hIsland.sub(rect(6.000000000000001e-09, -2.195568484948887e-09).transl(1.345242811727934e-07, 4e-08, 0))
hIsland = hIsland.add(rect(6.000000000000001e-09, 1.929620243411537e-09).transl(9.739802591039267e-08, 4e-08, 0))
hIsland = hIsland.sub(rect(6.000000000000001e-09, -2.014424955363178e-09).transl(1.315223333638317e-07, 4e-08, 0))
hIsland = hIsland.add(rect(6.000000000000001e-09, 5.65571331159466e-10).transl(8.299958810135027e-08, 4e-08, 0))
hIsland = hIsland.sub(rect(6.000000000000001e-09, -1.5872026372241566e-09).transl(-7.003474214002291e-10, 4e-08, 0))
hIsland = hIsland.add(rect(6.000000000000001e-09, 5.91367830520613e-10).transl(-7.834237656803275e-08, 4e-08, 0))
hIsland = hIsland.sub(rect(6.000000000000001e-09, -3.897448998867211e-09).transl(1.1888393309702857e-09, 4e-08, 0))
hIsland = hIsland.add(rect(6.000000000000001e-09, 2.446348058714427e-09).transl(-4.6610161677307907e-08, 4e-08, 0))
hIsland = hIsland.add(rect(6.000000000000001e-09, 2.0074934083881428e-09).transl(1.0086325512764611e-07, 4e-08, 0))
vIsland := hIsland.rotz(pi / 2)
vIslands := Universe().Inverse()
hIslands := Universe().Inverse()
hIslands = hIslands.add(hIsland.transl(-a/2, a, 0))
hIslands = hIslands.add(hIsland.transl(-a/2, -a, 0))
hIslands = hIslands.add(hIsland.transl(a/2, a, 0))
hIslands = hIslands.add(hIsland.transl(a/2, -a, 0))
hIslands = hIslands.add(hIsland.transl(-a/2, 0, 0))
hIslands = hIslands.add(hIsland.transl(a/2, 0, 0))
vIslands = vIslands.add(vIsland.transl(-a, a/2, 0))
vIslands = vIslands.add(vIsland.transl(a, a/2, 0))
vIslands = vIslands.add(vIsland.transl(-a, -a/2, 0))
vIslands = vIslands.add(vIsland.transl(a, -a/2, 0))
vIslands = vIslands.add(vIsland.transl(0, a/2, 0))
vIslands = vIslands.add(vIsland.transl(0, -a/2, 0))
DefRegion(1, hIslands)
DefRegion(2, vIslands)
TableAdd(m_full.Region(1))
TableAdd(m_full.Region(2))
setgeom(hIslands.add(vIslands))
save(m)
r2o2 := sqrt(2) / 2
m = RandomMagSeed(4)
B_ext = vector(Bmax*r2o2, Bmax*r2o2, 0)
relax()
minimize()
for B := Bmax; B >= -Bmax; B -= Bstep {
	B_ext = vector(B*r2o2, B*r2o2, 0)
	minimize()
	tablesave()
}
//********************************************************************//
//Please cite the following references, relevant for your simulation. //
//See bibtex file in output folder for justification.                 //
//********************************************************************//
//   * Vansteenkiste et al., AIP Adv. 4, 107133 (2014).
//   * Exl et al., J. Appl. Phys. 115, 17D118 (2014).
