# t (s)	mx ()	my ()	mz ()	B_extx (T)	B_exty (T)	B_extz (T)	m_fullx (A/m)	m_fully (A/m)	m_fullz (A/m)	m_full.region1x (A/m)	m_full.region1y (A/m)	m_full.region1z (A/m)	m_full.region2x (A/m)	m_full.region2y (A/m)	m_full.region2z (A/m)
0	0.65746105	0.65745723	-7.468577e-11	0.07071067	0.07071067	0	155536.48	155535.61	-2.2321428e-05	621872.9	298569.6	-7.1708935e-05	298572.56	621870.56	-4.5289857e-05
0	0.6573812	0.65738064	-2.4745286e-10	0.07056918	0.07056918	0	155517.61	155517.48	-6.122449e-05	621946.7	298386.78	-0.00022550573	298386.94	621946.2	-0.00013964371
0	0.65729845	0.6572983	-1.3902351e-10	0.07042789	0.07042789	0	155498.03	155498	-3.90625e-05	622028.06	298189.97	-0.000116998795	298189.75	622027.8	-8.680556e-05
0	0.65721464	0.6572146	-1.637688e-10	0.07028639	0.070286386	0	155478.2	155478.2	-3.754783e-05	622109.75	297990.94	-0.00014058726	297990.72	622109.56	-0.00010190217
0	0.65713274	0.6571327	-2.3665492e-10	0.07014501	0.07014502	0	155458.83	155458.83	-5.8035715e-05	622190.3	297795.75	-0.0001490791	297795.47	622190.06	-0.0001660628
0	0.657048	0.65704787	2.4295371e-11	0.07000352	0.07000351	0	155438.77	155438.77	6.138393e-06	622272.8	297594.5	4.5289857e-05	297594.25	622272.6	3.7741545e-06
0	0.6569654	0.6569653	-2.3035611e-10	0.06986222	0.06986222	0	155419.23	155419.23	-5.5484696e-05	622353.94	297397.8	-0.00013351072	297397.56	622353.7	-0.00016794988
0	0.65688103	0.656881	6.748714e-11	0.069720745	0.069720745	0	155399.3	155399.28	1.690051e-05	622435.5	297198.22	6.227355e-05	297197.97	622435.2	4.717693e-05
0	0.656797	0.656797	-2.7174824e-10	0.06957926	0.06957926	0	155379.4	155379.39	-6.186224e-05	622517.25	296998.8	-9.435386e-05	296998.56	622517.06	-0.00029438405
0	0.6567125	0.65671253	-1.3407446e-10	0.06943794	0.06943794	0	155359.4	155359.4	-2.9336734e-05	622599.5	296798.25	-0.000100958634	296798.03	622599.2	-6.793478e-05
0	0.656629	0.65662897	-3.5993142e-11	0.0692964	0.0692964	0	155339.66	155339.66	-8.928571e-06	622681.06	296599.75	3.396739e-05	296599.5	622680.8	-6.0386472e-05
0	0.6565435	0.65654343	-1.6331889e-10	0.0691551	0.069155104	0	155319.44	155319.42	-3.9859693e-05	622763.56	296397.62	-2.3116696e-05	296397.34	622763.25	-0.00022267512
0	0.65645957	0.6564595	-3.0414204e-10	0.0690136	0.0690136	0	155299.58	155299.56	-7.118941e-05	622845.06	296198.56	-0.00014530495	296198.34	622844.8	-0.00031325483
0	0.6563744	0.6563743	-4.130213e-10	0.068872124	0.068872124	0	155279.4	155279.4	-9.8373726e-05	622926.75	295997.47	-0.00014860733	295997.22	622926.56	-0.00044535025
0	0.656289	0.65628904	-4.9040655e-10	0.06873082	0.06873082	0	155259.23	155259.22	-0.00011575255	623009.2	295795.7	-0.0004368584	295795.44	623008.9	-0.00026041668
0	0.6562041	0.656204	-2.7174824e-10	0.06858932	0.06858932	0	155239.14	155239.12	-6.25e-05	623091.5	295594.47	-0.00019672781	295594.25	623091.2	-0.00018870772
0	0.6561182	0.6561183	-5.1470195e-10	0.068447955	0.068447955	0	155218.81	155218.83	-0.000117984695	623173.5	295392.28	-0.000253576	295392	623173.25	-0.00046044687
0	0.656032	0.656032	5.3989715e-11	0.06830648	0.06830648	0	155198.44	155198.44	1.5943877e-05	623256.4	295188.84	1.8870773e-05	295188.6	623256.06	7.1708935e-05
0	0.6559476	0.6559476	-1.4757189e-10	0.06816515	0.06816515	0	155178.47	155178.48	-3.093112e-05	623337.7	294989.34	-0.0001585145	294989.1	623337.4	-3.396739e-05
0	0.65586007	0.65586007	-1.0977909e-10	0.068023674	0.068023674	0	155157.77	155157.77	-2.2959184e-05	623421.06	294783.34	-6.510417e-05	294783.06	623420.8	-7.737017e-05
0	0.6557741	0.6557742	-1.4037325e-10	0.067882195	0.067882195	0	155137.44	155137.42	-3.507653e-05	623503.6	294580.47	-0.00018115943	294580.22	623503.4	7.548309e-06
0	0.6556883	0.6556883	-1.0797943e-10	0.06774088	0.06774088	0	155117.12	155117.11	-2.1125637e-05	623585.94	294378	-7.902136e-05	294377.75	623585.6	-6.0386472e-05
0	0.6556007	0.6556007	-1.5297086e-10	0.067599334	0.067599334	0	155096.39	155096.39	-3.9221937e-05	623669	294172.28	-0.00016747811	294172.03	623668.75	-6.0386472e-05
0	0.65551436	0.65551436	-3.0774136e-10	0.06745803	0.06745803	0	155075.95	155075.97	-7.52551e-05	623751.56	293968.75	-0.00027928743	293968.5	623751.3	-0.0001585145
0	0.65542805	0.65542805	-5.740906e-10	0.06731653	0.06731653	0	155055.55	155055.55	-0.00013504464	623833.56	293766.06	-0.00045643683	293765.8	623833.2	-0.0003585447
0	0.6553397	0.6553397	-1.2057703e-10	0.06717506	0.06717506	0	155034.67	155034.67	-3.125e-05	623917	293558.78	-0.00014294611	293558.56	623916.8	-3.0193236e-05
0	0.6552518	0.65525186	-3.968244e-10	0.06703376	0.06703376	0	155013.84	155013.84	-9.630102e-05	624000.2	293352.66	-0.00024649946	293352.44	623999.75	-0.00034722223
0	0.65516436	0.6551643	-2.393544e-10	0.066892266	0.066892266	0	154993.16	154993.16	-5.6760204e-05	624083.1	293147.25	-0.00018823596	293147	624082.8	-0.00018682065
0	0.65507627	0.65507627	-2.3125594e-10	0.066750884	0.066750884	0	154972.33	154972.31	-5.3172833e-05	624166.25	292940.72	-0.00017266757	292940.5	624165.94	-0.00016417573
0	0.65498954	0.6549894	-3.5678202e-10	0.06660941	0.06660942	0	154951.8	154951.8	-8.227041e-05	624248.3	292737.12	-0.00024154589	292736.88	624248.06	-0.0002906099
0	0.6549002	0.65490013	-2.5015234e-10	0.06646809	0.06646809	0	154930.67	154930.66	-5.707908e-05	624332.44	292528.06	-0.00015780683	292527.88	624332.1	-0.00018115943
0	0.65481275	0.65481275	-1.7906589e-10	0.06632662	0.06632662	0	154909.98	154909.98	-4.2091837e-05	624414.7	292323.47	-6.7463014e-05	292323.2	624414.44	-0.0001585145
0	0.6547233	0.65472317	-1.4352265e-10	0.06618514	0.06618514	0	154888.81	154888.81	-2.9336734e-05	624498.6	292114.16	-0.00013964371	292113.9	624498.3	-6.416063e-05
0	0.65463334	0.6546333	-3.2933725e-10	0.066043824	0.066043824	0	154867.56	154867.53	-7.900191e-05	624582.56	291904.3	-0.0002641908	291904.1	624582.4	-0.00023022344
0	0.65454495	0.6545449	-3.023424e-10	0.06590227	0.06590227	0	154846.62	154846.61	-7.589286e-05	624665.5	291697.66	-0.00025640664	291697.44	624665.2	-0.00021701389
0	0.654455	0.654455	-5.821891e-10	0.06576097	0.06576097	0	154825.36	154825.34	-0.00013998724	624749.44	291487.75	-0.00046422103	291487.5	624749.2	-0.0003321256
0	0.6543664	0.6543664	-5.308989e-10	0.065619476	0.065619476	0	154804.4	154804.39	-0.00012436224	624832.44	291280.7	-0.00049276307	291280.47	624832.25	-0.00027173912
0	0.65427625	0.6542762	-4.0132356e-10	0.06547816	0.06547816	0	154783.06	154783.05	-9.375e-05	624916.4	291070.5	-0.00031231128	291070.25	624916.1	-0.00025664252
0	0.654187	0.65418696	-2.6274993e-10	0.0653367	0.0653367	0	154761.95	154761.94	-6.2898594e-05	624999.56	290862.5	-0.00012690594	290862.28	624999.25	-0.00023777173
0	0.6540959	0.6540959	-4.8050847e-10	0.06519521	0.06519521	0	154740.4	154740.4	-0.000111846304	625083.5	290651.1	-0.00021913685	290650.84	625083.2	-0.00046044687
0	0.6540052	0.6540052	-1.7456675e-10	0.0650539	0.0650539	0	154718.95	154718.94	-4.846939e-05	625168.06	290439.4	-0.00018941538	290439.2	625167.8	-8.30314e-05
0	0.653915	0.6539149	-3.3203673e-10	0.06491236	0.06491235	0	154697.61	154697.58	-8.0357146e-05	625251.7	290229.53	-0.00025286837	290229.28	625251.44	-0.00023399759
0	0.65382504	0.653825	-4.1392115e-10	0.064771034	0.06477103	0	154676.33	154676.31	-9.7895405e-05	625334.94	290020.44	-0.0002599449	290020.25	625334.6	-0.00032080314
0	0.6537333	0.65373325	-5.1740146e-10	0.06462956	0.06462956	0	154654.61	154654.6	-0.00012436224	625419.7	289807.1	-0.00039487093	289806.84	625419.44	-0.00030948067
0	0.65364087	0.65364087	-4.193201e-10	0.06448809	0.06448809	0	154632.78	154632.75	-9.510523e-05	625504.4	289593.06	-0.00032080314	289592.8	625504.06	-0.00027173912
0	0.65355045	0.65355045	-3.5453246e-10	0.06434676	0.06434675	0	154611.38	154611.36	-8.1792095e-05	625587.94	289382.97	-0.00035241168	289382.75	625587.6	-0.00016228865
0	0.65345824	0.6534581	-3.2843742e-10	0.06420529	0.06420529	0	154589.55	154589.55	-7.684949e-05	625672.4	289169.44	-0.00019554839	289169.2	625672.06	-0.00023777173
0	0.65336615	0.653366	-3.2843742e-10	0.06406391	0.06406391	0	154567.75	154567.75	-7.684949e-05	625756.9	288955.9	-0.00023446935	288955.7	625756.6	-0.00023022344
0	0.6532749	0.6532749	-3.2303846e-10	0.06392241	0.06392241	0	154546.2	154546.17	-7.270408e-05	625841	288744.25	-0.00023494112	288744.03	625840.6	-0.00018115943
0	0.6531832	0.6531831	-8.377404e-10	0.063781105	0.063781105	0	154524.48	154524.47	-0.0001932398	625924.75	288531.94	-0.0005182386	288531.7	625924.4	-0.0006151872
0	0.65308976	0.65308964	-3.527328e-10	0.06363964	0.06363964	0	154502.36	154502.36	-8.418367e-05	626009.6	288316.25	-0.00024532006	288316.03	626009.25	-0.00027928743
0	0.6529975	0.6529974	-2.3035611e-10	0.06349814	0.06349814	0	154480.56	154480.55	-5.4049746e-05	626094.06	288102.7	-0.00013964371	288102.47	626093.7	-0.0001830465
0	0.6529042	0.65290415	-5.1920107e-10	0.06335683	0.06335683	0	154458.48	154458.48	-0.00012149235	626178.5	287887.6	-0.00034675046	287887.38	626178.25	-0.0003811896
0	0.6528115	0.6528115	-1.322748e-10	0.0632153	0.0632153	0	154436.56	154436.55	-3.125e-05	626263.25	287673.12	-0.000113696406	287672.9	626262.94	-6.0386472e-05
0	0.65271765	0.6527176	-3.8872594e-10	0.06307396	0.06307396	0	154414.36	154414.33	-9.247449e-05	626347.9	287457	-0.00021630623	287456.78	626347.6	-0.00035288345
0	0.6526237	0.65262365	-1.9256331e-10	0.06293249	0.0629325	0	154392.11	154392.1	-4.4164542e-05	626433.5	287239.9	-0.00019035893	287239.7	626433.1	-9.057971e-05
0	0.6525297	0.65252966	-1.9616263e-10	0.06279103	0.06279103	0	154369.9	154369.88	-4.655612e-05	626518.06	287023.78	-0.00021559859	287023.6	626517.75	-0.000109450484
0	0.6524354	0.65243536	-1.4577223e-10	0.06264969	0.06264969	0	154347.58	154347.56	-3.603316e-05	626603.6	286806.2	-9.4825635e-05	286806	626603.4	-6.0386472e-05
0	0.65234196	0.6523419	-3.3608596e-10	0.062508225	0.062508225	0	154325.47	154325.45	-7.684949e-05	626688.1	286590.88	-0.00030570652	286590.62	626687.75	-0.00013586956
0	0.65224725	0.65224725	4.4541513e-11	0.06236684	0.06236684	0	154303.06	154303.06	1.1957908e-05	626772.7	286373.78	1.8870773e-05	286373.56	626772.4	4.906401e-05
0	0.65215206	0.652152	-1.763664e-10	0.062225346	0.062225346	0	154280.55	154280.52	-3.762755e-05	626858.9	286154.2	-0.00019719958	286153.97	626858.56	-7.548309e-06
0	0.6520583	0.6520582	-3.7072936e-10	0.062084038	0.062084038	0	154258.36	154258.34	-8.67347e-05	626943.2	285938.66	-0.0002368282	285938.47	626942.8	-0.0002981582
0	0.65196246	0.65196234	-2.429537e-10	0.061942577	0.061942577	0	154235.67	154235.66	-5.6122448e-05	627028.44	285719.1	-0.00013964371	285718.88	627028.25	-0.00020003019
0	0.65186703	0.6518669	-3.0054276e-10	0.061801083	0.061801083	0	154213.1	154213.1	-6.8877554e-05	627114.56	285499.53	-0.00018115943	285499.3	627114.2	-0.00024532006
0	0.6517721	0.651772	3.3833555e-10	0.061659772	0.061659772	0	154190.66	154190.64	7.8284436e-05	627199.3	285281.75	0.00023753586	285281.56	627199	0.00027551327
0	0.651675	0.65167487	-1.7816605e-10	0.06151823	0.061518237	0	154167.69	154167.66	-4.049745e-05	627285.5	285059.7	-0.0001585145	285059.44	627285.1	-7.548309e-05
0	0.6515797	0.6515796	-2.0876023e-10	0.061376892	0.061376892	0	154145.12	154145.11	-4.7831632e-05	627370.94	284840.8	-0.0002632473	284840.6	627370.56	-3.396739e-05
0	0.6514827	0.65148264	-1.0887926e-10	0.06123543	0.06123543	0	154122.22	154122.19	-2.861926e-05	627456.5	284619.56	-4.0572162e-05	284619.34	627456.2	-9.624094e-05
0	0.6513866	0.65138656	-1.8356502e-10	0.061093967	0.061093967	0	154099.47	154099.44	-4.2091837e-05	627542.06	284399.38	-6.793478e-05	284399.2	627541.8	-0.0001660628
0	0.6512908	0.6512907	2.3395542e-11	0.060952656	0.060952656	0	154076.78	154076.77	8.529974e-06	627627.25	284180.03	5.519701e-05	284179.8	627626.9	3.396739e-05
0	0.65119237	0.6511923	7.1986284e-12	0.060811166	0.060811166	0	154053.5	154053.48	2.072704e-06	627713.9	283955.62	2.9721466e-05	283955.38	627713.5	-3.7741545e-05
0	0.65109605	0.651096	-3.239383e-10	0.060669772	0.060669772	0	154030.73	154030.7	-8.195153e-05	627799.2	283735.53	-0.00017125226	283735.3	627798.8	-0.00028683574
0	0.6509983	0.6509982	-1.9796229e-10	0.060528316	0.060528316	0	154007.6	154007.58	-4.7512756e-05	627884.8	283512.94	-0.00014176668	283512.72	627884.44	-0.0001660628
0	0.6509006	0.65090054	-1.826652e-10	0.060386974	0.060386974	0	153984.48	153984.47	-4.0975767e-05	627970.94	283290.2	-0.00013775664	283289.97	627970.56	-0.00010190217
0	0.65080273	0.6508026	-6.2988e-11	0.06024551	0.06024551	0	153961.31	153961.31	-1.6581633e-05	628056.7	283067.34	-0.00011322464	283067.1	628056.3	3.0193236e-05
0	0.6507051	0.6507049	-1.7996571e-10	0.06010405	0.06010405	0	153938.22	153938.22	-4.7353315e-05	628142.9	282844.4	-5.0479317e-05	282844.2	628142.56	-0.00020380435
0	0.65060633	0.6506062	-1.8086554e-10	0.059962712	0.059962712	0	153914.88	153914.84	-4.033801e-05	628229.25	282619.84	-9.600506e-05	282619.66	628228.9	-0.00013586956
0	0.65050745	0.65050733	-2.1955818e-10	0.059821166	0.059821166	0	153891.45	153891.44	-4.815051e-05	628315.56	282394.97	-0.00013445425	282394.78	628315.25	-0.00015474034
0	0.6504094	0.6504092	-2.1055989e-10	0.05967986	0.05967986	0	153868.27	153868.25	-5.2614796e-05	628402	282171.3	-0.0002398947	282171.12	628401.6	-8.30314e-05
0	0.65031	0.65030986	-2.8434582e-10	0.059538368	0.059538368	0	153844.75	153844.72	-6.728317e-05	628488.75	281945.34	-0.00012289592	281945.16	628488.4	-0.00028306158
0	0.6502118	0.6502117	-4.4361548e-10	0.059396908	0.059396908	0	153821.55	153821.52	-9.917092e-05	628574.25	281722.66	-0.00035996	281722.44	628573.75	-0.00025664252
0	0.6501111	0.65011096	-4.3191772e-10	0.059255596	0.059255596	0	153797.72	153797.69	-9.8373726e-05	628661.2	281494.56	-0.00033424856	281494.34	628660.8	-0.00027740037
0	0.6500115	0.65001136	-2.6522448e-10	0.059114102	0.059114102	0	153774.14	153774.11	-6.505102e-05	628748	281268.34	-0.0003042912	281268.12	628747.56	-8.30314e-05
0	0.64991206	0.64991194	-2.7219815e-10	0.058972705	0.058972705	0	153750.61	153750.6	-6.3934946e-05	628834.44	281042.75	-0.00013964371	281042.53	628834	-0.00027551327
0	0.6498106	0.6498105	3.4193485e-11	0.05883125	0.05883125	0	153726.62	153726.6	9.566326e-06	628921.7	280813.34	9.859979e-05	280813.12	628921.3	-6.0386472e-05
0	0.649711	0.6497109	-2.078604e-10	0.0586899	0.0586899	0	153703.06	153703.05	-5.5006378e-05	629008.2	280587.53	-0.00017078049	280587.3	629007.75	-0.00010567633
0	0.6496109	0.64961076	-2.9739333e-10	0.05854845	0.05854845	0	153679.38	153679.34	-6.728317e-05	629094.5	280360.9	-0.00024720712	280360.7	629094.06	-0.00015474034
0	0.6495086	0.6495084	-3.491335e-10	0.058406986	0.058406986	0	153655.16	153655.12	-8.083546e-05	629182.06	280130.06	-0.00022338277	280129.84	629181.7	-0.00027173912
0	0.649408	0.6494079	-4.5531326e-10	0.05826565	0.05826565	0	153631.39	153631.38	-0.00010794005	629269	279902.4	-0.00032835145	279902.2	629268.6	-0.00030193236
0	0.6493058	0.6493057	6.1188346e-11	0.058124106	0.058124106	0	153607.2	153607.16	1.4668367e-05	629355.94	279672.34	0.00018776419	279672.12	629355.6	-0.00010567633
0	0.64920545	0.64920527	-4.6431153e-10	0.05798278	0.05798278	0	153583.45	153583.42	-0.000108737244	629442.56	279445.28	-0.000494886	279445.1	629442.1	-0.0001660628
0	0.6491028	0.64910275	-2.9514377e-10	0.05784131	0.05784131	0	153559.19	153559.14	-6.736288e-05	629530	279214.2	-0.0002660779	279214	629529.6	-0.0001320954
0	0.64900064	0.64900047	-4.1032183e-10	0.057699848	0.057699848	0	153535	153534.97	-9.725765e-05	629617.6	278983.34	-0.00020993735	278983.2	629617.3	-0.0003509964
0	0.6488986	0.6488985	-1.4937154e-10	0.05755853	0.05755853	0	153510.86	153510.84	-3.236607e-05	629704.75	278753.47	-0.00013492603	278753.34	629704.4	-5.661232e-05
0	0.64879626	0.64879614	-2.6814892e-10	0.05741706	0.057417054	0	153486.69	153486.66	-6.218112e-05	629791.8	278523.38	-0.00014105903	278523.16	629791.3	-0.00021323973
0	0.64869267	0.6486925	-4.184203e-10	0.057275645	0.057275645	0	153462.14	153462.11	-9.845344e-05	629879.2	278290.6	-0.00031325483	278290.4	629878.94	-0.00021890097
0	0.64858985	0.64858973	-1.385736e-10	0.05713419	0.05713419	0	153437.81	153437.8	-3.0771684e-05	629965.94	278060.03	4.717693e-05	278059.8	629965.56	-0.00019814311
0	0.6484859	0.6484858	-2.1235955e-10	0.056992844	0.056992844	0	153413.23	153413.22	-4.823023e-05	630054.2	277826.3	-0.00010520456	277826.06	630053.8	-0.00016983696
0	0.6483829	0.6483827	-3.9772424e-10	0.056851387	0.056851387	0	153388.88	153388.83	-9.821429e-05	630141.75	277594.4	-0.00023564878	277594.22	630141.4	-0.0003245773
0	0.64827853	0.6482784	-4.5261378e-10	0.056709927	0.056709927	0	153364.17	153364.14	-0.00010825893	630229.25	277360.78	-0.00033165384	277360.6	630228.94	-0.00030193236
0	0.6481746	0.6481745	-3.5363262e-10	0.056568585	0.056568585	0	153339.61	153339.56	-8.466199e-05	630317.7	277127.03	-0.00032882323	277126.84	630317.3	-0.00014719203
0	0.6480709	0.6480707	-6.6587313e-10	0.056427047	0.056427047	0	153315.05	153315	-0.00015513392	630405.06	276894.34	-0.0004352072	276894.2	630404.6	-0.00048309178
0	0.64796525	0.6479651	-3.2213862e-10	0.05628571	0.05628571	0	153290.06	153290.02	-7.142857e-05	630493.1	276658.47	-0.00022692104	276658.25	630492.75	-0.0002245622
0	0.6478616	0.6478614	-4.6341173e-10	0.05614425	0.05614424	0	153265.53	153265.52	-0.00010889668	630580.5	276425.9	-0.00033141795	276425.72	630580.2	-0.00035477054
0	0.64775586	0.6477557	-4.787088e-10	0.056002792	0.0560028	0	153240.53	153240.5	-0.00010905612	630668.3	276190	-0.00036231885	276189.8	630668	-0.00032835145
0	0.6476497	0.6476495	-2.6634925e-10	0.05586147	0.05586147	0	153215.42	153215.38	-6.090561e-05	630757	275952.78	-0.00016228865	275952.56	630756.6	-0.00021512681
0	0.6475448	0.6475446	-5.4709576e-10	0.055719994	0.055719994	0	153190.6	153190.56	-0.00012627551	630845.25	275717.6	-0.00032245435	275717.38	630844.9	-0.000415157
0	0.6474394	0.64743924	-2.2135783e-10	0.055578664	0.055578664	0	153165.67	153165.62	-5.3571428e-05	630933	275482.25	-0.0001660628	275482.1	630932.7	-0.0001245471
0	0.64733225	0.6473321	-2.8794514e-10	0.055437125	0.055437125	0	153140.33	153140.28	-6.664541e-05	631021.5	275243.9	-0.00023045932	275243.72	631021.2	-0.00016228865
0	0.64722687	0.64722675	-2.8434582e-10	0.05529578	0.05529578	0	153115.39	153115.34	-7.302296e-05	631109.56	275008.3	-0.00019602015	275008.12	631109.1	-0.00021512681
0	0.64711976	0.64711964	-1.842399e-10	0.055154327	0.055154327	0	153090.05	153090	-3.902264e-05	631197.6	274770.25	-6.0386472e-05	274770.06	631197.2	-0.00018493357
0	0.6470126	0.6470125	-3.1494e-10	0.05501287	0.05501287	0	153064.7	153064.66	-7.429847e-05	631286.6	274531.16	-0.000167714	274530.97	631286.25	-0.0002641908
0	0.64690685	0.64690673	1.4307275e-10	0.054871522	0.054871522	0	153039.69	153039.64	3.603316e-05	631374.2	274295.66	0.000103553364	274295.5	631373.8	0.00013398248
0	0.6467984	0.64679825	-6.2988e-11	0.05473008	0.05473008	0	153014.03	153014	-2.0647321e-05	631462.94	274055.03	-0.00016535514	274054.84	631462.6	6.416063e-05
0	0.6466902	0.64669013	-4.751095e-10	0.05458865	0.05458865	0	152988.44	152988.38	-0.00011415816	631551.8	273814.7	-0.00034934518	273814.53	631551.4	-0.00028117452
0	0.6465834	0.6465832	-1.2642591e-10	0.054447185	0.054447185	0	152963.16	152963.11	-2.8220664e-05	631640.56	273576.38	0.00010520456	273576.2	631640.2	-0.00024154589
0	0.6464743	0.6464742	-3.905256e-10	0.054305855	0.054305855	0	152937.38	152937.33	-9.231505e-05	631729.4	273334.9	-0.0003321256	273334.72	631729	-0.00020003019
0	0.646366	0.6463658	-2.1190963e-10	0.054164406	0.054164406	0	152911.73	152911.69	-4.93463e-05	631818.6	273093.94	-0.00015875038	273093.78	631818.2	-0.00015474034
0	0.6462575	0.6462573	-1.3767378e-10	0.054022938	0.054022938	0	152886.06	152886.02	-3.2684948e-05	631907.44	272853.25	-0.0001223062	272853.1	631907	-4.5289857e-05
0	0.64614904	0.64614886	-3.1494e-11	0.0538816	0.0538816	0	152860.42	152860.38	-4.6237246e-06	631995.9	272613.03	5.4253474e-06	272612.84	631995.5	-6.0386472e-05
0	0.6460378	0.64603764	-2.2135783e-10	0.05374007	0.05374007	0	152834.1	152834.03	-5.2774234e-05	632086.2	272367	-0.00020675291	272366.78	632085.7	-0.000116998795
0	0.6459291	0.64592886	1.0258046e-10	0.05359871	0.05359871	0	152808.36	152808.33	1.9252233e-05	632174.5	272126.4	7.418573e-05	272126.22	632174.06	4.906401e-05
0	0.64581996	0.6458198	-2.6904876e-10	0.053457264	0.053457264	0	152782.55	152782.52	-5.883291e-05	632263.75	271884.38	-0.000108389	271884.2	632263.3	-0.00025664252
0	0.6457102	0.6457099	-1.6736812e-10	0.053315822	0.053315822	0	152756.56	152756.5	-4.0816325e-05	632352.6	271641.66	-4.2341297e-05	271641.47	632352.2	-0.0001660628
0	0.6456	0.6455998	-7.936488e-10	0.053174462	0.053174462	0	152730.52	152730.48	-0.00018706154	632441.75	271398.4	-0.00055680575	271398.25	632441.3	-0.00054347824
0	0.64548886	0.64548874	-9.313226e-11	0.053033024	0.053033024	0	152704.23	152704.2	-2.1404656e-05	632531	271153.66	-8.432876e-05	271153.5	632530.5	-4.15157e-05
0	0.64537746	0.6453773	-2.5735097e-10	0.052891586	0.052891586	0	152677.86	152677.83	-6.0427297e-05	632620.75	270907.84	-0.00010284571	270907.66	632620.25	-0.00027551327
0	0.64526814	0.64526796	2.2450723e-10	0.052750126	0.052750126	0	152652.02	152651.97	5.6839923e-05	632709.25	270666.3	0.00018693859	270666.2	632708.9	0.00017361112
0	0.6451554	0.64515525	-2.6994856e-10	0.052608777	0.052608777	0	152625.31	152625.28	-6.728317e-05	632799.4	270418.28	-0.00023965881	270418.12	632798.94	-0.00014341787
0	0.64504427	0.6450441	-4.193201e-10	0.052467346	0.05246734	0	152599.05	152598.98	-9.454719e-05	632889	270173	-0.00033589976	270172.84	632888.6	-0.00024532006
0	0.64493287	0.6449326	-2.8884498e-10	0.052325882	0.052325882	0	152572.67	152572.64	-6.9794325e-05	632978.4	269927.78	-0.00019602015	269927.62	632977.9	-0.00020003019
0	0.6448198	0.64481956	-3.0594172e-10	0.05218454	0.05218454	0	152545.92	152545.89	-7.2265626e-05	633068.1	269679.62	-0.00018870772	269679.5	633067.7	-0.00021890097
0	0.64470744	0.64470714	-9.7181485e-11	0.052043002	0.052043002	0	152519.34	152519.33	-2.1524234e-05	633157.9	269432.7	-0.00024248943	269432.53	633157.5	0.0001320954
0	0.644595	0.6445948	-1.8356502e-10	0.051901635	0.051901635	0	152492.75	152492.69	-4.6077806e-05	633247.5	269185.6	-0.00016853958	269185.47	633247.06	-0.000116998795
0	0.6444821	0.64448184	-3.6150613e-10	0.0517602	0.0517602	0	152466.03	152465.98	-8.968431e-05	633337.1	268937.84	-0.00028435895	268937.72	633336.6	-0.00025664252
0	0.64436805	0.64436775	-3.9232526e-10	0.051618766	0.051618766	0	152439.08	152439.03	-9.3311544e-05	633427.6	268687.75	-0.00015733507	268687.6	633427.25	-0.0003887379
0	0.6442553	0.6442551	-3.2888733e-10	0.05147742	0.05147742	0	152412.39	152412.34	-7.557398e-05	633517.7	268439.8	-0.00018729242	268439.62	633517.3	-0.00023399759
0	0.6441409	0.64414066	-2.1438416e-10	0.05133596	0.05133596	0	152385.34	152385.3	-5.0223214e-05	633608.2	268189.25	-0.0001646475	268189.12	633607.7	-0.00013964371
0	0.6440278	0.6440276	1.5747e-10	0.051194515	0.051194515	0	152358.58	152358.52	4.3407206e-05	633697.56	267941.4	0.0001930716	267941.28	633697.2	6.0386472e-05
0	0.64391255	0.6439123	-3.664552e-10	0.05105309	0.05105309	0	152331.3	152331.25	-8.657525e-05	633787.8	267689.9	-0.0002705597	267689.75	633787.4	-0.00028306158
0	0.6437983	0.6437981	-6.703723e-10	0.050911706	0.050911706	0	152304.28	152304.25	-0.00015784439	633878.3	267439.56	-0.00046422103	267439.38	633877.8	-0.0004491244
0	0.64368284	0.6436826	-4.769091e-10	0.05077028	0.05077028	0	152276.97	152276.92	-0.00011383928	633968.56	267187.5	-0.0003530014	267187.38	633968.2	-0.000317029
0	0.6435682	0.6435679	-2.3035611e-10	0.050628845	0.050628845	0	152249.83	152249.77	-5.6600766e-05	634058.94	266936.62	-0.0002742159	266936.47	634058.44	-3.7741545e-05
0	0.64345264	0.64345247	-2.6724908e-10	0.050487474	0.050487474	0	152222.52	152222.47	-6.441327e-05	634149.25	266684.75	-0.00022644928	266684.56	634148.75	-0.00015096618
0	0.64333636	0.64333624	-3.491335e-10	0.050345946	0.050345946	0	152195.02	152194.95	-8.215083e-05	634239.2	266432	-0.00021406534	266431.84	634238.75	-0.00023777173
0	0.64322066	0.6432204	-1.5297086e-10	0.05020459	0.05020459	0	152167.62	152167.58	-3.890306e-05	634330.25	266178.75	-0.00010862489	266178.6	634329.9	-0.0001245471
0	0.6431037	0.6431035	-4.3641685e-10	0.050063137	0.050063137	0	152139.97	152139.92	-0.00010602678	634421.3	265924.1	-0.00027173912	265923.94	634420.8	-0.00033967392
0	0.6429879	0.64298767	-4.697105e-10	0.04992171	0.04992171	0	152112.56	152112.5	-0.00011352041	634511.75	265671.4	-0.0003736413	265671.28	634511.25	-0.00030193236
0	0.6428711	0.6428709	-5.0570365e-10	0.049780354	0.049780354	0	152084.95	152084.89	-0.00012149235	634602.44	265417.28	-0.00036491358	265417.16	634601.94	-0.0003585447
0	0.64275306	0.6427529	-4.35742e-10	0.0496389	0.0496389	0	152057.03	152056.95	-0.00010578763	634693	265161.44	-0.00023871528	265161.3	634692.6	-0.00039817332
0	0.6426365	0.6426363	-3.815273e-10	0.049497455	0.049497455	0	152029.44	152029.38	-8.657525e-05	634783.9	264907.44	-0.00024532006	264907.3	634783.4	-0.00027173912
0	0.6425182	0.6425179	-3.3473624e-10	0.04935602	0.04935602	0	152001.44	152001.38	-7.8284436e-05	634874.56	264651.03	-0.00028636397	264650.88	634874.06	-0.00019625603
0	0.64239985	0.6423996	-4.0042372e-10	0.04921464	0.04921464	0	151973.47	151973.4	-9.948979e-05	634966.06	264393.94	-0.00025286837	264393.78	634965.56	-0.00033967392
0	0.64228165	0.6422814	-2.555513e-10	0.04907321	0.04907321	0	151945.5	151945.45	-5.8992347e-05	635057.3	264137.2	-0.00017361112	264137.1	635056.8	-0.00020380435
0	0.6421633	0.642163	-1.275507e-10	0.04893179	0.04893179	0	151917.48	151917.44	-2.9017858e-05	635148.3	263880.38	-2.783439e-05	263880.25	635147.75	-0.00013586956
0	0.6420443	0.642044	-1.642187e-11	0.048790418	0.048790418	0	151889.33	151889.27	-5.2614796e-06	635238.8	263623.28	-7.548309e-06	263623.16	635238.4	-2.2644928e-05
0	0.64192486	0.6419246	-3.7882783e-10	0.048648883	0.048648883	0	151861.08	151861.02	-8.8209505e-05	635330.2	263364.78	-0.00032198257	263364.66	635329.6	-0.00020003019
0	0.64180547	0.6418052	-4.40916e-10	0.04850753	0.04850753	0	151832.84	151832.78	-0.00010411352	635421.7	263106.16	-0.00043756605	263106.03	635421.2	-0.00016228865
0	0.6416852	0.64168495	-1.7096743e-10	0.048366077	0.048366077	0	151804.39	151804.33	-3.9421237e-05	635513.3	262846.1	-0.00021135266	262845.97	635512.8	-1.1322464e-05
0	0.6415654	0.64156514	-3.6982956e-10	0.048224654	0.048224654	0	151776.03	151775.97	-8.506059e-05	635604.8	262586.78	-0.00028306158	262586.62	635604.4	-0.00025664252
0	0.641445	0.64144474	-1.6736812e-10	0.04808329	0.04808329	0	151747.56	151747.5	-4.2729593e-05	635696.44	262326.72	-0.000124783	262326.6	635696	-0.0001245471
0	0.64132386	0.6413236	-1.7096743e-10	0.04794185	0.047941845	0	151718.9	151718.84	-3.4598215e-05	635788.1	262065.44	-0.00015096618	262065.28	635787.6	-3.396739e-05
0	0.6412034	0.64120317	1.4397257e-11	0.047800384	0.047800384	0	151690.39	151690.33	2.3915816e-06	635879.44	261805.39	7.123717e-05	261805.3	635879	-4.15157e-05
0	0.6410818	0.6410816	-4.6791085e-11	0.047658965	0.047658965	0	151661.64	151661.56	-1.0602678e-05	635970.6	261544.06	1.214806e-05	261543.95	635970.06	-7.925725e-05
0	0.6409602	0.6409599	-4.5441342e-10	0.04751758	0.04751758	0	151632.86	151632.8	-0.00010853795	636063.2	261281.14	-0.00031231128	261281.05	636062.75	-0.0003245773
0	0.6408385	0.64083815	-1.88964e-10	0.047376156	0.047376156	0	151604.06	151604	-4.3207907e-05	636154.6	261019.2	-0.000102256	261019.08	636154.2	-0.0001585145
0	0.6407164	0.6407161	-2.2405731e-10	0.047234733	0.047234733	0	151575.2	151575.12	-5.2774234e-05	636246.06	260756.94	-0.00016983696	260756.84	636245.56	-9.057971e-05
0	0.6405939	0.6405936	-6.5597505e-10	0.047093347	0.047093347	0	151546.2	151546.16	-0.00015353954	636337.94	260493.58	-0.0004462938	260493.48	636337.44	-0.00049441424
0	0.6404711	0.64047074	-7.378594e-11	0.046951823	0.046951823	0	151517.16	151517.06	-1.5784439e-05	636430.44	260229.16	-4.646928e-05	260229.02	636429.94	-4.5289857e-05
0	0.640348	0.6403477	-1.5387068e-10	0.046810463	0.046810463	0	151488.06	151487.97	-3.4638073e-05	636522.4	259964.97	-0.000120772944	259964.84	636521.9	-0.000116998795
0	0.64022434	0.64022404	-7.018663e-11	0.04666902	0.04666902	0	151458.78	151458.73	-1.2914541e-05	636614.6	259699.58	-7.925725e-05	259699.48	636614.1	0
0	0.6401007	0.6401004	-2.5735097e-10	0.046527658	0.046527658	0	151429.55	151429.48	-6.0746173e-05	636705.6	259435.56	-0.00011735262	259435.44	636705.06	-0.00024154589
0	0.6399769	0.6399767	3.77928e-11	0.046386234	0.046386234	0	151400.25	151400.19	7.3740434e-06	636798.56	259169.2	2.6654967e-05	259169.08	636798.06	3.9628623e-05
0	0.63985217	0.6398519	-1.3407446e-10	0.0462448	0.0462448	0	151370.75	151370.69	-3.4598215e-05	636890.6	258902.56	-0.00014341787	258902.44	636890.2	-8.30314e-05
0	0.6397267	0.63972646	-8.998286e-12	0.04610342	0.04610342	0	151341.06	151341	-3.507653e-06	636983.9	258633.55	6.9585976e-06	258633.45	636983.4	-1.8870773e-05
0	0.6396024	0.6396021	-1.2867549e-10	0.045961898	0.045961898	0	151311.66	151311.6	-3.3601722e-05	637076	258367.56	-2.9485582e-06	258367.47	637075.44	-0.00015474034
0	0.63947684	0.63947654	1.4869667e-10	0.045820512	0.045820512	0	151281.95	151281.88	3.7149235e-05	637168.44	258099.27	2.2644928e-05	258099.16	637167.9	0.00021135266
0	0.6393516	0.6393513	-1.9616263e-10	0.0456791	0.0456791	0	151252.33	151252.25	-4.2091837e-05	637260.94	257831.45	-5.708409e-05	257831.34	637260.44	-0.00017361112
0	0.63922584	0.6392255	-3.5813177e-10	0.045537677	0.045537677	0	151222.55	151222.48	-8.80102e-05	637353.25	257563.06	-0.00028966638	257562.95	637352.7	-0.00021512681
0	0.6390998	0.6390994	-3.716292e-10	0.045396283	0.045396283	0	151192.75	151192.66	-8.5220025e-05	637445.56	257294.1	-0.00014719203	257294	637445.1	-0.000415157
0	0.6389731	0.63897276	-3.617311e-10	0.04525487	0.04525487	0	151162.78	151162.7	-8.59375e-05	637538.5	257023.94	-0.00026796496	257023.86	637537.9	-0.00022644928
0	0.63884634	0.638846	-1.7906589e-10	0.045113385	0.045113385	0	151132.78	151132.7	-3.5355548e-05	637631.4	256753.58	-0.00012596241	256753.47	637630.8	-7.925725e-05