# t (s)	mx ()	my ()	mz ()	B_extx (T)	B_exty (T)	B_extz (T)	m_fullx (A/m)	m_fully (A/m)	m_fullz (A/m)	m_full.region1x (A/m)	m_full.region1y (A/m)	m_full.region1z (A/m)	m_full.region2x (A/m)	m_full.region2y (A/m)	m_full.region2z (A/m)
0	0.6389378	0.63893557	-4.4788534e-10	0.07071097	0.07071097	0	46461.82	46461.656	-3.0151283e-05	656005.94	238504.52	-0.00036695047	238506.88	656005.25	-0.00021354147
0	0.6388161	0.63881326	-2.237471e-10	0.070569366	0.070569366	0	46452.973	46452.77	-1.6720209e-05	656103.75	238235.88	-0.00021853822	238238.83	656102.7	-0.00010337
0	0.63869166	0.6386888	-3.3896178e-10	0.07042761	0.07042761	0	46443.926	46443.71	-2.256515e-05	656203.8	237961.55	-0.00022644375	237964.61	656202.75	-0.00020799502
0	0.63856566	0.63856274	-3.5326211e-10	0.07028633	0.07028633	0	46434.76	46434.55	-3.1305655e-05	656304.8	237684.11	-0.00021059095	237687.12	656303.75	-0.00039212566
0	0.6384404	0.63843733	-3.9278888e-10	0.07014479	0.07014479	0	46425.65	46425.43	-2.4901048e-05	656405.2	237408.27	-0.00031859457	237411.28	656404.1	-0.00016081645
0	0.638314	0.6383111	-3.0795155e-10	0.07000352	0.07000352	0	46416.46	46416.246	-2.6116712e-05	656506	237130.56	-0.0002579049	237133.6	656504.94	-0.00024491083
0	0.6381874	0.6381844	-3.2381314e-10	0.06986232	0.06986232	0	46407.254	46407.04	-2.0659392e-05	656606.9	236852.42	-0.00019206054	236855.47	656605.75	-0.00020568738
0	0.6380608	0.6380578	-2.795511e-10	0.0697207	0.0697207	0	46398.05	46397.836	-2.0211495e-05	656707.56	236574.53	-0.0002273197	236577.58	656706.5	-0.00016180503
0	0.6379332	0.6379303	-1.1377399e-10	0.06957944	0.06957944	0	46388.77	46388.555	-7.837216e-06	656808.7	236294.7	-0.00012912543	236297.75	656807.7	-2.1761705e-05
0	0.63780624	0.6378033	-3.1641406e-10	0.0694377	0.0694377	0	46379.54	46379.32	-2.1624908e-05	656909.4	236016.3	-0.00017084768	236019.34	656908.25	-0.000245489
0	0.6376779	0.6376749	-2.2858851e-10	0.069296405	0.069296405	0	46370.207	46369.992	-1.9187439e-05	657010.6	235735.4	-0.00015372748	235738.48	657009.5	-0.00021568146
0	0.6375498	0.63754684	-3.0773586e-10	0.06915487	0.06915487	0	46360.887	46360.676	-2.627942e-05	657111.9	235454.77	-0.00028889495	235457.84	657110.8	-0.00021705336
0	0.6374216	0.6374186	-4.6999193e-10	0.0690136	0.0690136	0	46351.57	46351.355	-3.734972e-05	657212.5	235174.66	-0.00040619454	235177.72	657211.5	-0.00031288632
0	0.63729274	0.6372898	-5.573996e-10	0.06887232	0.06887232	0	46342.203	46341.984	-4.3554126e-05	657313.8	234893.05	-0.0004251664	234896.12	657312.8	-0.00041336572
0	0.63716406	0.6371611	-3.0682665e-10	0.06873079	0.06873079	0	46332.836	46332.625	-2.617549e-05	657414.9	234611.64	-0.00027959075	234614.73	657413.9	-0.00022435664
0	0.6370345	0.6370315	-2.1212526e-10	0.0685895	0.0685895	0	46323.414	46323.2	-1.8220051e-05	657516.2	234329.02	-0.00019629476	234332.1	657515.1	-0.00015448942
0	0.63690424	0.63690126	-3.6238848e-10	0.068447776	0.068447776	0	46313.95	46313.734	-2.8610764e-05	657617.9	234045.03	-0.000314037	234048.14	657616.8	-0.00023679588
0	0.636775	0.6367721	-3.5336034e-10	0.0683065	0.0683065	0	46304.55	46304.336	-2.7671282e-05	657718.5	233763.44	-0.00033920267	233766.53	657717.44	-0.00019354266
0	0.6366434	0.6366405	-2.2817095e-10	0.06816496	0.06816496	0	46294.98	46294.773	-1.5099527e-05	657820.75	233476.95	-0.00016072001	233480.06	657819.75	-0.00012998581
0	0.63651335	0.6365104	-4.5780404e-10	0.068023674	0.068023674	0	46285.523	46285.305	-3.29033e-05	657921.9	233193.77	-0.00026682485	233196.88	657920.8	-0.00036665067
0	0.6363829	0.6363799	-4.3249226e-10	0.067882404	0.067882404	0	46276.03	46275.82	-3.0837466e-05	658022.94	232909.94	-0.00029148872	232913.05	658021.94	-0.000302214
0	0.6362512	0.63624823	-3.3485015e-10	0.067740865	0.067740865	0	46266.46	46266.25	-2.0444335e-05	658124.6	232624.02	-0.00028335827	232627.11	658123.6	-0.00011024923
0	0.63611937	0.6361164	-4.252764e-10	0.06759956	0.06759956	0	46256.88	46256.656	-3.1971536e-05	658226.44	232337.69	-0.00035389475	232340.8	658225.2	-0.00026164184
0	0.6359882	0.63598526	-5.6480254e-10	0.06745787	0.06745787	0	46247.336	46247.117	-2.9721112e-05	658327.3	232053.05	-0.0002971201	232056.16	658326.25	-0.00027508987
0	0.63585424	0.6358513	-2.0853282e-10	0.067316584	0.067316584	0	46237.594	46237.383	-1.301883e-05	658430.06	231762.84	-0.00017359697	231765.94	658429	-7.704994e-05
0	0.63572264	0.63571966	-3.8675016e-10	0.067174956	0.067174956	0	46228.027	46227.805	-2.86659e-05	658531.06	231477.48	-0.00035321363	231480.6	658530	-0.00019868073
0	0.6355895	0.63558656	-8.18915e-10	0.06703376	0.06703376	0	46218.344	46218.13	-5.7391047e-05	658632.9	231189.34	-0.0005933395	231192.47	658631.8	-0.0005115899
0	0.6354561	0.63545305	-1.820717e-10	0.06689248	0.06689248	0	46208.64	46208.42	-1.5980733e-05	658734.75	230900.58	-0.0002477842	230903.72	658733.7	-5.988716e-05
0	0.6353225	0.6353195	-5.3446314e-10	0.06675091	0.06675091	0	46198.926	46198.71	-3.4435463e-05	658836.44	230611.89	-0.0003284324	230615.03	658835.4	-0.00033454134
0	0.63518816	0.6351852	-3.4390527e-10	0.06660963	0.06660963	0	46189.156	46188.938	-2.6434456e-05	658938.56	230321.75	-0.00023478061	230324.88	658937.5	-0.00027415255
0	0.63505435	0.6350513	-1.988988e-10	0.066467956	0.066467956	0	46179.426	46179.21	-1.0804838e-05	659040.1	230032.8	-0.00016801937	230035.94	659039.06	-4.0002324e-05
0	0.6349196	0.6349166	-3.2839087e-10	0.06632633	0.06632633	0	46169.63	46169.41	-2.7024153e-05	659142	229742.17	-0.00037283511	229745.31	659141	-0.00014745127
0	0.63478416	0.6347812	-3.626033e-10	0.06618504	0.06618504	0	46159.78	46159.562	-2.8246559e-05	659244.25	229450.39	-0.00021566913	229453.56	659243.25	-0.00032815183
0	0.63464975	0.6346468	-5.9318184e-10	0.06604385	0.06604385	0	46150.01	46149.793	-4.291011e-05	659345.6	229160.94	-0.0004150082	229164.08	659344.56	-0.00041112484
0	0.6345134	0.6345104	-1.1650547e-10	0.06590254	0.06590254	0	46140.09	46139.87	-4.765825e-06	659448.2	228867.45	2.3084242e-05	228870.6	659447.06	-0.00011483897
0	0.63437754	0.63437456	-3.148372e-10	0.065760985	0.065760985	0	46130.21	46129.992	-2.0834856e-05	659550.2	228575.2	-0.00017017775	228578.38	659549.1	-0.00023094832
0	0.63424057	0.6342376	-2.512717e-10	0.0656197	0.0656197	0	46120.25	46120.035	-1.5473637e-05	659652.6	228280.97	-0.00011682628	228284.16	659651.6	-0.00018108213
0	0.6341043	0.6341013	-3.2973801e-10	0.06547804	0.06547804	0	46110.336	46110.12	-2.5393902e-05	659754.7	227988.17	-0.00036447938	227991.33	659753.56	-0.00012442034
0	0.6339672	0.6339642	-2.3656946e-10	0.06533641	0.06533641	0	46100.37	46100.152	-1.7149083e-05	659856.8	227694.12	-0.00020425857	227697.28	659855.8	-0.0001259066
0	0.6338302	0.63382715	-9.410043e-11	0.06519513	0.06519513	0	46090.41	46090.195	-6.647932e-06	659958.8	227400.25	8.9554276e-05	227403.44	659957.8	-0.00021754454
0	0.63369185	0.6336888	-4.671937e-10	0.06505393	0.06505393	0	46080.35	46080.133	-3.3414362e-05	660061.4	227104	-0.00027011018	227107.17	660060.4	-0.0003732047
0	0.63355404	0.6335511	-2.0513674e-10	0.06491261	0.06491261	0	46070.336	46070.117	-8.9651585e-06	660163.56	226809	-9.4167044e-05	226812.19	660162.5	-7.843596e-05
0	0.6334147	0.63341177	-4.818393e-10	0.064771056	0.064771056	0	46060.2	46059.977	-3.5874742e-05	660266.44	226511	-0.00035902188	226514.17	660265.4	-0.0003316617
0	0.6332771	0.63327414	-2.87735e-10	0.06462978	0.06462978	0	46050.195	46049.973	-2.3894716e-05	660368.1	226216.72	-0.00029651058	226219.9	660367.06	-0.0001635259
0	0.6331374	0.6331344	-4.5706364e-10	0.06448806	0.06448806	0	46040.04	46039.812	-3.216702e-05	660470.9	225918.28	-0.00038252023	225921.47	660469.9	-0.00023677996
0	0.6329984	0.63299537	-2.7242497e-10	0.0643465	0.0643465	0	46029.92	46029.707	-2.2690283e-05	660573.06	225621.45	-0.000222104	225624.64	660572.1	-0.00021474392
0	0.6328579	0.63285494	-4.9722676e-10	0.064205214	0.064205214	0	46019.71	46019.492	-3.7186845e-05	660675.9	225322.03	-0.00040031472	225325.22	660674.9	-0.00031563034
0	0.63271797	0.6327149	-2.840586e-10	0.06406398	0.06406398	0	46009.535	46009.312	-2.8970133e-05	660778.44	225023.48	-0.00031122883	225026.66	660777.44	-0.0002465228
0	0.63257724	0.6325743	-1.7659978e-10	0.063922696	0.063922696	0	45999.305	45999.086	-1.7367536e-05	660881.1	224723.95	-0.0001962926	224727.17	660880.06	-0.00013807837
0	0.63243663	0.63243353	-1.8626051e-10	0.06378113	0.06378113	0	45989.07	45988.85	-1.8023227e-05	660983.5	224424.5	-0.00015119763	224427.67	660982.5	-0.00019579718
0	0.6322951	0.63229203	-2.2274882e-10	0.06363943	0.06363943	0	45978.785	45978.562	-2.167653e-05	661086.4	224123.5	-0.00029002666	224126.72	661085.4	-0.00012730384
0	0.6321539	0.63215095	-2.609836e-10	0.06349815	0.06349815	0	45968.52	45968.305	-1.7030501e-05	661188.7	223823.69	-0.00022075635	223826.9	661187.6	-0.00010712581
0	0.6320114	0.6320084	-4.338743e-10	0.063356586	0.063356586	0	45958.152	45957.93	-2.823307e-05	661291.9	223520.81	-0.00028524583	223524.05	661290.8	-0.0002583154
0	0.6318692	0.6318662	-1.8457896e-10	0.06321526	0.06321526	0	45947.816	45947.6	-1.0168662e-05	661394.4	223219.33	-0.00012364637	223222.55	661393.4	-7.212725e-05
0	0.6317263	0.63172334	-3.5023176e-10	0.06307407	0.06307407	0	45937.43	45937.21	-2.308829e-05	661497.3	222916.39	-0.00018715125	222919.6	661496.25	-0.00025735938
0	0.63158345	0.6315805	-4.3720846e-10	0.062932774	0.062932774	0	45927.04	45926.812	-3.0146013e-05	661600	222613.7	-0.00035969788	222616.92	661598.94	-0.00022069257
0	0.6314401	0.6314371	-2.6847619e-10	0.06279112	0.06279112	0	45916.613	45916.39	-1.80497e-05	661702.8	222310.12	-0.00022608906	222313.36	661701.8	-0.0001214154
0	0.6312968	0.63129383	-3.288762e-10	0.06264953	0.06264953	0	45906.19	45905.973	-2.0688773e-05	661805.3	222007.02	-0.00026797844	222010.27	661804.25	-0.00013033512
0	0.6311521	0.631149	-3.6615858e-10	0.06250824	0.06250824	0	45895.664	45895.44	-2.5719812e-05	661908.56	221701.16	-0.00024418999	221704.38	661907.5	-0.0002509844
0	0.6310073	0.63100433	-3.063461e-10	0.062366635	0.062366635	0	45885.137	45884.914	-2.5998292e-05	662011.8	221395.14	-0.00029086304	221398.39	662010.75	-0.00020967281
0	0.6308629	0.63085985	-2.6919256e-10	0.06222535	0.06222535	0	45874.637	45874.418	-2.2006476e-05	662114.4	221090.38	-0.00027965786	221093.61	662113.4	-0.00014402499
0	0.6307172	0.6307142	-2.7348537e-10	0.06208415	0.06208415	0	45864.043	45863.82	-1.8290244e-05	662217.6	220783.22	-0.00018268634	220786.47	662216.56	-0.00016944921
0	0.63057166	0.63056856	-3.6453687e-10	0.061942477	0.061942477	0	45853.457	45853.24	-2.4779947e-05	662320.7	220476.34	-0.0002541008	220479.6	662319.56	-0.00022297869
0	0.6304257	0.63042265	-1.5151949e-10	0.061801177	0.061801177	0	45842.85	45842.63	-1.2875555e-05	662423.7	220169.06	-0.00016230701	220172.3	662422.7	-8.558146e-05
0	0.6302792	0.63027614	-3.4285366e-10	0.061659623	0.061659623	0	45832.195	45831.965	-2.0299382e-05	662527.06	219860.56	-0.00023138708	219863.84	662526	-0.00015942969
0	0.6301325	0.6301295	-1.3275796e-10	0.06151831	0.06151831	0	45821.527	45821.305	-1.323164e-05	662630	219552.34	-7.229529e-05	219555.61	662628.94	-0.00018244877
0	0.6299852	0.6299821	-4.786474e-10	0.06137672	0.06137672	0	45810.82	45810.594	-2.9273855e-05	662733.3	219242.7	-0.00030402667	219245.98	662732.3	-0.00025957244
0	0.6298382	0.6298352	-4.0925285e-10	0.061235435	0.061235435	0	45800.125	45799.902	-2.0139232e-05	662836.06	218934.12	-0.00019172212	218937.39	662835.06	-0.00019601134
0	0.62968946	0.6296864	-1.8093552e-10	0.061094135	0.061094135	0	45789.305	45789.086	-1.7013113e-05	662939.9	218622.14	-0.0002539529	218625.39	662938.9	-7.359452e-05
0	0.6295414	0.62953836	-1.8959956e-10	0.06095255	0.06095255	0	45778.543	45778.324	-1.1691329e-05	663042.9	218311.81	-0.00014319716	218315.06	663041.94	-8.189182e-05
0	0.6293931	0.62939006	-4.844285e-10	0.06081125	0.06081125	0	45767.758	45767.535	-3.311276e-05	663146	218001.03	-0.0003205306	218004.31	663145.06	-0.0003169776
0	0.62924445	0.6292414	-3.920812e-10	0.06066969	0.06066969	0	45756.945	45756.727	-2.3292285e-05	663249.2	217689.8	-0.0004104175	217693.06	663248.2	-3.8020564e-05
0	0.62909424	0.62909114	-2.4254754e-10	0.060528405	0.060528405	0	45746.023	45745.797	-1.4977244e-05	663353	217375.6	-0.00013222243	217378.86	663351.94	-0.00015612914
0	0.6289448	0.6289417	-7.58116e-11	0.060386807	0.060386807	0	45735.156	45734.938	-9.996341e-06	663456.1	217063.31	-0.00011111686	217066.6	663455	-8.1339116e-05
0	0.62879395	0.6287909	-3.3489161e-10	0.060245506	0.060245506	0	45724.195	45723.97	-1.9535084e-05	663559.9	216748.39	-0.00024859788	216751.67	663558.94	-0.00012750413
0	0.62864417	0.6286412	-4.491941e-10	0.06010422	0.06010422	0	45713.297	45713.074	-3.777607e-05	663662.8	216435.72	-0.00036644688	216439.02	663661.9	-0.00036084236
0	0.628493	0.62849003	-1.9005826e-10	0.05996261	0.05996261	0	45702.31	45702.086	-1.1704927e-05	663766.44	216120.53	-2.3583127e-05	216123.83	663765.44	-0.00020176767
0	0.6283412	0.6283381	-3.6407435e-10	0.059821296	0.059821296	0	45691.26	45691.04	-1.7966533e-05	663870.25	215804.06	-0.0002464069	215807.38	663869.3	-9.949636e-05
0	0.6281901	0.62818706	-6.092677e-11	0.059679788	0.059679788	0	45680.28	45680.06	-3.3288597e-08	663973.25	215489.61	-2.7440263e-05	215492.92	663972.25	2.679937e-05
0	0.6280378	0.6280348	-5.9273597e-10	0.05953849	0.05953849	0	45669.203	45668.98	-3.9002407e-05	664077.06	215172.55	-0.00039993323	215175.84	664076.06	-0.0003509662
0	0.62788534	0.62788224	-2.1111915e-10	0.059396796	0.059396796	0	45658.113	45657.89	-1.37477155e-05	664180.6	214855.53	-0.00014192659	214858.83	664179.5	-0.00012275326
0	0.6277324	0.6277293	-4.1502096e-10	0.059255593	0.059255593	0	45646.996	45646.773	-2.6599222e-05	664284.1	214537.95	-0.00022185988	214541.28	664283.1	-0.00029024546
0	0.6275793	0.62757623	3.9724907e-11	0.05911429	0.05911429	0	45635.863	45635.64	5.1942334e-07	664387.56	214220.11	-0.00012401237	214223.4	664386.6	0.00013401265
0	0.627425	0.62742203	-6.54208e-10	0.058972668	0.058972668	0	45624.645	45624.42	-4.91778e-05	664491.5	213900.25	-0.00052289973	213903.55	664490.5	-0.00042390297
0	0.6272711	0.627268	-4.2893938e-10	0.058831364	0.058831364	0	45613.45	45613.227	-3.5069803e-05	664595.06	213581.14	-0.00042915612	213584.44	664594.1	-0.00024603028
0	0.6271167	0.62711364	-4.8913934e-10	0.05868988	0.05868988	0	45602.227	45602.004	-3.0521496e-05	664698.7	213261.48	-0.0003601497	213264.78	664697.6	-0.00022746982
0	0.6269625	0.6269594	-3.1964298e-10	0.05854817	0.05854817	0	45591.008	45590.78	-2.5837977e-05	664802	212942.19	-0.00028381599	212945.5	664801	-0.00021363335
0	0.62680566	0.6268027	-3.542631e-10	0.05840688	0.05840688	0	45579.613	45579.39	-2.4359417e-05	664906.5	212618.25	-0.0003259643	212621.58	664905.5	-0.00014301887
0	0.62665075	0.62664765	-3.859396e-10	0.05826568	0.05826568	0	45568.344	45568.117	-2.3752018e-05	665009.94	212297.8	-0.00033174793	212301.11	665008.94	-0.00012554119
0	0.6264947	0.62649167	-4.913454e-10	0.058124352	0.058124352	0	45556.99	45556.77	-3.631044e-05	665113.6	211975.58	-0.00035370028	211978.89	665112.75	-0.00034537175
0	0.62633777	0.62633467	-1.125543e-10	0.057982735	0.057982735	0	45545.582	45545.355	-8.653107e-06	665217.5	211651.95	1.6162427e-05	211655.27	665216.5	-0.00018275762
0	0.62618136	0.6261783	-2.3935376e-10	0.05784144	0.05784144	0	45534.21	45533.98	-1.7644063e-05	665321.06	211329.47	-0.00021138747	211332.84	665320.2	-0.00012830741
0	0.6260238	0.6260207	-1.8386029e-10	0.057699878	0.057699878	0	45522.754	45522.53	-1.1072759e-05	665424.94	211005.05	-0.00016613136	211008.4	665423.94	-4.7048532e-05
0	0.62586635	0.62586325	-3.5394018e-10	0.057558257	0.057558257	0	45511.305	45511.074	-1.8788627e-05	665528.6	210680.86	-0.00027577678	210684.22	665527.75	-8.595396e-05
0	0.6257078	0.62570477	-1.1780125e-10	0.057416957	0.057416957	0	45499.773	45499.55	-8.832564e-06	665632.7	210354.89	-0.00013916596	210358.22	665631.8	-3.0884254e-05
0	0.6255495	0.62554634	-3.5272435e-10	0.05727573	0.05727573	0	45488.258	45488.04	-1.914854e-05	665736.56	210029.31	-0.00033069952	210032.66	665735.7	-3.7960497e-05
0	0.62539077	0.6253877	-2.1934488e-10	0.05713443	0.05713443	0	45476.727	45476.504	-1.9673695e-05	665840.25	209703.52	-0.00021729329	209706.84	665839.3	-0.00016147735
0	0.6252316	0.6252285	-2.7411955e-11	0.05699281	0.05699281	0	45465.15	45464.92	-2.2426873e-06	665944.1	209376.81	-0.00014483911	209380.17	665943.2	0.000101661455
0	0.62507105	0.62506795	-1.4822589e-10	0.056851286	0.056851286	0	45453.47	45453.242	-9.630775e-06	666048.44	209047.58	-5.4914e-05	209050.92	666047.56	-0.00013050389
0	0.62491155	0.62490845	1.1901978e-10	0.056709964	0.056709964	0	45441.867	45441.64	2.3338732e-06	666152.06	208720.7	7.833985e-05	208724.06	666151.1	-3.3406617e-05
0	0.6247508	0.62474763	-3.675563e-10	0.056568343	0.056568343	0	45430.18	45429.96	-2.6487576e-05	666256.06	208391.7	-0.00039227176	208395.08	666255.06	-0.00011768408
0	0.6245893	0.6245863	-4.8099413e-10	0.05642702	0.05642702	0	45418.44	45418.223	-3.5848727e-05	666360.25	208061.48	-0.00029246832	208064.88	666359.3	-0.00039771447
0	0.6244285	0.6244254	-3.2241218e-10	0.05628581	0.05628581	0	45406.742	45406.52	-2.3491788e-05	666463.9	207732.56	-0.00024141895	207735.92	666463	-0.00021086007
0	0.6242665	0.6242634	-1.7825637e-10	0.056144506	0.056144506	0	45394.96	45394.74	-1.0279293e-05	666568	207401.66	-0.00014802348	207405.03	666567	-4.988008e-05
0	0.624104	0.6241009	-2.2196678e-10	0.056002766	0.056002766	0	45383.15	45382.926	-1.1430369e-05	666672	207070.14	-0.00016499367	207073.52	666671.1	-5.5071163e-05
0	0.6239413	0.62393814	-4.3540985e-10	0.055861373	0.055861373	0	45371.312	45371.086	-3.0108164e-05	666776.1	206738.16	-0.00027565323	206741.56	666775.2	-0.0003040085
0	0.6237783	0.6237752	-2.1327036e-10	0.05572006	0.05572006	0	45359.465	45359.24	-1.3662206e-05	666880.1	206406.06	-7.501551e-05	206409.44	666879.1	-0.00018801806
0	0.6236149	0.6236118	-3.2007688e-10	0.05557843	0.05557843	0	45347.586	45347.36	-2.02537e-05	666984	206073.44	-0.00020556299	206076.84	666983.1	-0.00018437426
0	0.6234507	0.6234477	-2.0955576e-10	0.055437095	0.055437095	0	45335.645	45335.42	-1.8990884e-05	667088.25	205739.4	-0.00016875811	205742.8	667087.3	-0.00019686662
0	0.62328625	0.62328315	-2.0661069e-10	0.055295892	0.055295892	0	45323.68	45323.46	-1.7579634e-05	667192.3	205405.05	-0.0002776622	205408.42	667191.4	-6.0792197e-05
0	0.6231203	0.6231171	-4.4419737e-10	0.055154584	0.055154584	0	45311.61	45311.387	-3.0063547e-05	667297.06	205067.94	-0.00040209037	205071.34	667296.1	-0.00017671238
0	0.6229555	0.6229524	-3.175793e-10	0.05501284	0.05501284	0	45299.633	45299.406	-2.530675e-05	667400.8	204733.5	-0.0003022086	204736.92	667399.9	-0.00018501327
0	0.6227905	0.6227874	-3.2980232e-10	0.054871462	0.054871462	0	45287.633	45287.406	-2.5466175e-05	667504.6	204398.64	-0.00019261795	204402.05	667503.7	-0.00029767325
0	0.6226242	0.62262106	-4.1616746e-10	0.05473016	0.05473016	0	45275.543	45275.312	-2.9324045e-05	667608.8	204061.66	-0.00045782447	204065.08	667607.94	-0.000106740925
0	0.6224578	0.62245464	-1.9982614e-10	0.054588504	0.054588504	0	45263.438	45263.21	-1.3096875e-05	667712.94	203724.56	-0.00011530135	203727.94	667711.94	-0.00013684812
0	0.62229055	0.62228745	-5.1268354e-11	0.05444718	0.05444718	0	45251.277	45251.05	-1.3211975e-07	667817.06	203386.2	-3.9158025e-05	203389.62	667816.2	3.661437e-05
0	0.6221229	0.6221198	-2.1150603e-10	0.054305978	0.054305978	0	45239.086	45238.86	-1.2279471e-05	667921.44	203047.2	-0.00015931067	203050.6	667920.56	-7.71016e-05
0	0.62195534	0.62195224	-3.7439724e-10	0.054164223	0.054164223	0	45226.906	45226.68	-2.6190904e-05	668025.3	202708.78	-0.00034651038	202712.17	668024.44	-0.00015773375
0	0.6217869	0.6217838	-2.3852847e-10	0.0540229	0.0540229	0	45214.656	45214.426	-1.1187285e-05	668129.6	202368.61	-0.0001272229	202372.06	668128.6	-8.816193e-05
0	0.62161785	0.62161475	-4.109307e-10	0.053881556	0.053881556	0	45202.363	45202.133	-2.8800476e-05	668233.9	202027.69	-0.00031723536	202031.1	668233	-0.00023724996
0	0.6214479	0.62144476	-7.137337e-11	0.053740222	0.053740222	0	45190.008	45189.78	-8.541971e-06	668338.3	201685.31	-3.232086e-05	201688.73	668337.4	-0.00013213466
0	0.6212794	0.6212763	-1.519289e-10	0.053598575	0.053598575	0	45177.758	45177.527	-1.92018e-05	668441.9	201345.84	-0.00028527167	201349.27	668441.06	-8.441374e-05
0	0.6211089	0.62110585	-3.8399545e-10	0.053457268	0.053457268	0	45165.355	45165.133	-2.9127084e-05	668546.25	201002.81	-0.0002839337	201006.22	668545.44	-0.00027683965
0	0.62093866	0.62093556	-3.1009156e-10	0.053315945	0.053315945	0	45152.977	45152.754	-2.082299e-05	668650.3	200660.38	-0.000272501	200663.78	668649.5	-0.00012839661
0	0.6207675	0.6207643	1.5677215e-11	0.0531743	0.0531743	0	45140.523	45140.297	7.959048e-06	668754.7	200316.25	1.7348804e-05	200319.69	668753.9	0.0001358839
0	0.6205962	0.6205931	-2.5884825e-10	0.053032976	0.053032976	0	45128.07	45127.844	-1.6151802e-05	668858.8	199972.42	-0.00018902906	199975.86	668857.94	-0.00012193583
0	0.6204248	0.62042165	-4.5745105e-10	0.052891634	0.052891634	0	45115.6	45115.38	-2.8693752e-05	668962.7	199628.6	-0.00028170564	199632	668961.75	-0.00027072494
0	0.62025124	0.62024814	-1.0246756e-10	0.05275032	0.05275032	0	45102.98	45102.76	-5.6584076e-06	669067.44	199280.78	-0.00013690964	199284.22	669066.56	2.7970338e-05
0	0.6200791	0.620076	-2.763334e-10	0.05260866	0.05260866	0	45090.465	45090.242	-1.5871105e-05	669171.4	198935.88	-0.00012269591	198939.31	669170.4	-0.00018286481
0	0.6199062	0.61990315	-7.3413955e-11	0.05246734	0.05246734	0	45077.902	45077.676	-8.591208e-06	669275.3	198590	-8.1030936e-05	198593.4	669274.44	-8.437253e-05
0	0.6197313	0.61972815	-2.821112e-10	0.052326016	0.052326016	0	45065.18	45064.953	-1.923088e-05	669380.1	198240.2	-0.0002873209	198243.66	669379.2	-8.2924395e-05
0	0.6195581	0.619555	-2.3932367e-10	0.052184362	0.052184362	0	45052.582	45052.36	-1.7454713e-05	669483.9	197894.02	-9.590736e-05	197897.45	669483	-0.00024014204
0	0.6193825	0.61937946	-2.2479658e-10	0.052043013	0.052043013	0	45039.82	45039.598	-1.5216411e-05	669588.5	197543.66	-0.00014230676	197547.11	669587.56	-0.00015064939
0	0.6192074	0.6192043	-1.1601567e-10	0.051901728	0.051901728	0	45027.082	45026.855	-1.10961355e-05	669692.7	197194.19	-5.583685e-05	197197.61	669691.9	-0.0001577931
0	0.6190316	0.6190285	-4.815698e-10	0.051760413	0.051760413	0	45014.293	45014.074	-3.906631e-05	669797.06	196843.7	-0.00039280058	196847.16	669796.25	-0.00035932925
0	0.6188568	0.61885375	-1.4910399e-10	0.05161863	0.05161863	0	45001.586	45001.36	-9.464051e-06	669900.7	196495.45	-0.000116352916	196498.92	669899.7	-6.585508e-05
0	0.61868006	0.618677	-3.7061082e-10	0.051477425	0.051477425	0	44988.734	44988.51	-2.8160377e-05	670005	196143.67	-0.00023911249	196147.14	670004.1	-0.00030304922
0	0.61850315	0.61850005	-4.98787e-10	0.0513361	0.0513361	0	44975.87	44975.65	-3.096785e-05	670109.1	195791.84	-0.00034330264	195795.31	670108.3	-0.0002529104
0	0.6183248	0.6183218	-1.8976302e-10	0.0511944	0.0511944	0	44962.902	44962.68	-1.6356105e-05	670213.75	195437.62	-0.00021010212	195441.08	670212.8	-0.00010479614
0	0.61814755	0.61814445	-1.2364189e-10	0.051053077	0.051053077	0	44950.008	44949.78	-1.186945e-05	670317.75	195085.31	-0.00013075785	195088.75	670316.9	-9.776044e-05
0	0.617969	0.61796594	-5.780825e-10	0.050911825	0.050911825	0	44937.03	44936.805	-3.397973e-05	670421.94	194731.22	-0.0003904618	194734.69	670421.1	-0.00026373783
0	0.61779046	0.6177873	-2.7232602e-10	0.050770037	0.050770037	0	44924.043	44923.82	-2.1875458e-05	670526	194377.14	-0.00025761602	194380.61	670525.1	-0.00016354439
0	0.6176104	0.6176073	-2.6622916e-11	0.050628714	0.050628714	0	44910.95	44910.727	-2.7209412e-06	670630.5	194020.61	-8.42591e-05	194024.05	670629.6	3.187379e-05
0	0.6174314	0.61742836	-2.865306e-10	0.0504875	0.0504875	0	44897.938	44897.71	-2.1707227e-05	670734.2	193666.25	-0.0002472781	193669.72	670733.4	-0.00017064338
0	0.617251	0.6172479	-2.964549e-10	0.050346155	0.050346155	0	44884.82	44884.59	-2.2880007e-05	670838.4	193309.47	-0.00029699763	193312.92	670837.56	-0.000143503
0	0.61707026	0.6170671	-2.7140365e-10	0.050204474	0.050204474	0	44871.67	44871.445	-1.7773975e-05	670942.56	192952.27	-0.00022525107	192955.75	670941.75	-0.0001169449
0	0.6168888	0.6168857	-2.6409103e-10	0.05006314	0.05006314	0	44858.477	44858.25	-1.9816152e-05	671046.9	192593.9	-0.00025875043	192597.39	671046	-0.00012276288
0	0.6167073	0.6167042	-1.4405944e-10	0.049921803	0.049921803	0	44845.28	44845.062	-1.4339899e-05	671150.8	192235.94	-0.00020478819	192239.4	671150	-7.1292816e-05
0	0.6165255	0.6165223	-3.7853562e-10	0.049780127	0.049780127	0	44832.055	44831.832	-3.1009648e-05	671254.8	191877.38	-0.00032516598	191880.86	671253.94	-0.00027185175
0	0.6163417	0.6163387	-1.4955402e-10	0.049638797	0.049638797	0	44818.695	44818.473	-1.7212462e-05	671359.4	191515.56	-0.0001968382	191519.02	671358.5	-0.00013454718
0	0.61615866	0.6161555	-3.3236883e-10	0.04949756	0.04949756	0	44805.383	44805.156	-2.0041185e-05	671463.4	191155.22	-0.00012860385	191158.69	671462.56	-0.00025724195
0	0.61597466	0.61597157	-3.8144553e-11	0.04935623	0.04935623	0	44792.008	44791.777	5.6061765e-07	671567.7	190793.36	-0.000108493914	190796.81	671566.8	0.00011928729
0	0.6157914	0.6157883	-2.3370372e-10	0.04921455	0.04921455	0	44778.68	44778.45	-2.1068165e-05	671671.4	190433.05	-0.00018958315	190436.53	671670.56	-0.00021603469
0	0.6156063	0.6156032	-2.5891175e-12	0.049073216	0.049073216	0	44765.22	44764.992	-2.8441295e-06	671775.56	190069.75	-0.0001977138	190073.25	671774.75	0.0001429568
0	0.6154208	0.6154178	-3.6358014e-10	0.04893189	0.04893189	0	44751.73	44751.508	-3.0450203e-05	671879.8	189705.83	-0.00026144	189709.33	671879	-0.0003248069
0	0.61523527	0.6152322	-1.5021358e-10	0.048790213	0.048790213	0	44738.242	44738.02	-6.239392e-06	671983.8	189342.16	-0.00022462015	189345.62	671983	0.00010449536
0	0.6150481	0.6150449	-1.1324979e-10	0.048648853	0.048648853	0	44724.625	44724.4	-8.072961e-06	672088.4	188975.48	-0.00012786352	188978.97	672087.5	-2.7562308e-05
0	0.614862	0.6148589	-1.423697e-10	0.04850764	0.04850764	0	44711.098	44710.875	-1.4187174e-05	672192.06	188611.3	-0.00015940513	188614.77	672191.25	-0.0001137355
0	0.61467505	0.6146719	-1.4358634e-10	0.048366304	0.048366304	0	44697.5	44697.273	-7.3661563e-06	672296	188245.55	-0.00014505442	188249.05	672295.2	3.2364412e-06
0	0.6144867	0.61448354	-2.331898e-10	0.048224516	0.048224516	0	44683.8	44683.574	-1.17917225e-05	672400.25	187877.44	-0.00018972544	187880.92	672399.56	-3.72964e-05
0	0.61430043	0.61429733	-2.1294655e-10	0.0480833	0.0480833	0	44670.26	44670.04	-1.4839259e-05	672503.3	187513.77	-8.569837e-05	187517.25	672502.56	-0.0001999966
0	0.61411107	0.61410797	-7.757481e-11	0.047941964	0.047941964	0	44656.484	44656.26	-8.463703e-06	672607.75	187144.33	-0.00019638262	187147.84	672606.8	3.343396e-05
0	0.61392194	0.61391884	-2.535536e-10	0.04780026	0.04780026	0	44642.74	44642.516	-2.7107226e-05	672711.5	186775.61	-0.00020706614	186779.14	672710.75	-0.00031481966
0	0.6137321	0.613729	-3.0964037e-10	0.04765894	0.04765894	0	44628.93	44628.71	-2.2528231e-05	672815.6	186405.9	-0.00022821399	186409.4	672814.8	-0.000205514
0	0.613542	0.613539	-3.4908842e-10	0.047517724	0.047517724	0	44615.113	44614.887	-2.8031869e-05	672919.25	186036.08	-0.00034931223	186039.6	672918.44	-0.00019037536
0	0.6133514	0.6133483	-5.1996124e-10	0.047376387	0.047376387	0	44601.25	44601.027	-3.977294e-05	673023.2	185665.25	-0.00043624846	185668.78	673022.4	-0.00032948586
0	0.61315966	0.6131566	-9.575882e-11	0.047234587	0.047234587	0	44587.31	44587.086	-1.0518274e-05	673127.4	185292.78	-0.00014769017	185296.3	673126.5	-5.481442e-05
0	0.6129687	0.61296564	-2.4443242e-10	0.047093373	0.047093373	0	44573.418	44573.195	-1.7951053e-05	673230.8	184921.84	-0.00025706168	184925.34	673230	-8.854356e-05
0	0.6127747	0.61277163	-2.2705701e-10	0.04695201	0.04695201	0	44559.316	44559.094	-2.3392731e-05	673335.4	184545.78	-0.00021986513	184549.27	673334.6	-0.00023050678
0	0.6125836	0.6125805	-1.6161686e-10	0.046810348	0.046810348	0	44545.414	44545.195	-1.0721963e-05	673438.4	184175.14	-0.0001421557	184178.66	673437.56	-6.427045e-05
0	0.61239004	0.612387	-3.8629397e-10	0.04666901	0.04666901	0	44531.344	44531.117	-3.1890948e-05	673542.2	183800.4	-0.0003309083	183803.9	673541.5	-0.00028307675
0	0.61219496	0.61219186	-1.5424416e-10	0.046527795	0.046527795	0	44517.156	44516.93	-1.374439e-05	673646.56	183422.8	-0.00013231668	183426.31	673645.9	-0.00013229917
0	0.61200225	0.6119992	-2.2108793e-10	0.046386022	0.046386022	0	44503.14	44502.918	-1.8544839e-05	673749.4	183050.2	-0.00022527033	183053.73	673748.7	-0.00013176686
0	0.6118069	0.61180377	-4.128227e-10	0.046244673	0.046244673	0	44488.934	44488.72	-2.6735554e-05	673853.5	182672.67	-0.00037320523	182676.22	673852.7	-0.00014152483
0	0.61161184	0.6116088	-3.4407785e-10	0.046103455	0.046103455	0	44474.75	44474.53	-2.9697816e-05	673957.06	182295.98	-0.00028141506	182299.53	673956.25	-0.00029034642
0	0.61141604	0.61141306	-1.6632655e-10	0.045962088	0.045962088	0	44460.51	44460.29	-1.14058985e-05	674060.56	181918.34	-0.000210533	181921.84	674059.94	-9.060691e-06
0	0.61121917	0.6112161	-3.0798752e-10	0.045820434	0.045820434	0	44446.2	44445.977	-2.3267352e-05	674164.44	181539.05	-0.00017207743	181542.53	674163.56	-0.00027588062
0	0.61102206	0.61101896	-3.0301386e-10	0.045679096	0.045679096	0	44431.863	44431.645	-2.1633467e-05	674267.94	181159.44	-0.00025963938	181162.95	674267.2	-0.00015686205
0	0.61082506	0.6108221	-2.7433766e-10	0.04553775	0.04553775	0	44417.54	44417.32	-1.7198769e-05	674371.25	180780.36	-0.00034109803	180783.88	674370.5	9.976263e-06
0	0.6106272	0.61062413	-4.2054962e-10	0.045396097	0.045396097	0	44403.156	44402.93	-2.368861e-05	674474.75	180399.95	-0.00033408997	180403.47	674473.9	-0.00012197842
0	0.6104288	0.6104258	-5.236226e-10	0.04525476	0.04525476	0	44388.727	44388.5	-3.370116e-05	674578.06	180018.75	-0.00047613741	180022.27	674577.3	-0.00017269899
0	0.610229	0.6102259	-2.4522784e-10	0.04511351	0.04511351	0	44374.195	44373.973	-1.6620466e-05	674681.9	179635.12	-0.00026556622	179638.66	674681.25	-5.442169e-05