# t (s)	mx ()	my ()	mz ()	B_extx (T)	B_exty (T)	B_extz (T)	m_fullx (A/m)	m_fully (A/m)	m_fullz (A/m)	m_full.region1x (A/m)	m_full.region1y (A/m)	m_full.region1z (A/m)	m_full.region2x (A/m)	m_full.region2y (A/m)	m_full.region2z (A/m)
0	0.63563913	0.63563704	-5.304084e-11	0.070710756	0.070710756	0	112043.06	112042.69	-3.501278e-06	659320.44	230571.88	-0.00030589543	230574.3	659320	0.0002502781
0	0.6353454	0.63534266	-2.51944e-10	0.07035723	0.07035723	0	111991.26	111990.8	-3.851406e-05	659540.9	229939.61	-0.00012513905	229942.58	659540.1	-0.00020856508
0	0.63504684	0.6350442	-4.6410736e-10	0.07000352	0.07000352	0	111938.664	111938.18	-8.05294e-05	659763.6	229299	-0.00034760847	229301.98	659762.9	-0.00041713016
0	0.634746	0.6347433	-1.8564295e-10	0.06965002	0.06965001	0	111885.625	111885.16	-3.1511503e-05	659987.1	228654.27	-0.00017901836	228657.25	659986.4	-0.0001112347
0	0.63444287	0.6344401	-5.5692884e-10	0.06929647	0.06929647	0	111832.18	111831.72	-9.803578e-05	660211.25	228005.81	-0.00033022804	228008.8	660210.4	-0.00047969967
0	0.6341394	0.6341368	-1.0608168e-10	0.068942994	0.068943	0	111778.71	111778.24	-3.501278e-05	660434.4	227357.9	-5.561735e-05	227360.88	660433.6	-0.00012513905
0	0.63383275	0.63383013	-2.2542357e-10	0.06858929	0.06858929	0	111724.66	111724.18	-4.2015337e-05	660658.75	226704.11	-0.00019466074	226707.08	660658.06	-9.733037e-05
0	0.6335265	0.6335239	-1.4586231e-10	0.06823578	0.06823578	0	111670.68	111670.2	-3.1511503e-05	660881.94	226052.12	-0.00012513905	226055.12	660881.3	-0.00012513905
0	0.6332171	0.6332145	-2.1216336e-10	0.06788223	0.06788223	0	111616.125	111615.66	-4.5516612e-05	661106.4	225394.56	-0.00015294772	225397.55	661105.6	-0.0002016129
0	0.63290644	0.6329038	-3.3150527e-10	0.06752871	0.06752872	0	111561.37	111560.9	-4.726725e-05	661330.44	224735.6	-0.0003337041	224738.56	661329.8	-0.00012513905
0	0.6325933	0.63259065	-1.9890316e-10	0.067175016	0.067175016	0	111506.164	111505.695	-4.2015337e-05	661555.4	224072.19	-0.00018423249	224075.2	661554.7	-0.0001112347
0	0.63227934	0.63227665	1.326021e-11	0.06682165	0.06682164	0	111450.82	111450.36	0	661779.56	223408.39	-4.1713014e-05	223411.42	661778.94	-2.7808675e-05
0	0.6319634	0.63196075	-3.1824504e-10	0.066468135	0.066468135	0	111395.13	111394.66	-5.2519168e-05	662004.2	222741.45	-0.0002919911	222744.47	662003.5	-0.00019466074
0	0.6316454	0.63164276	-1.5912252e-10	0.06611443	0.06611443	0	111339.11	111338.625	-3.3262142e-05	662229.06	222071.55	-0.00016337597	222074.56	662228.44	-9.733037e-05
0	0.63132554	0.63132286	-3.712859e-10	0.06576095	0.06576095	0	111282.71	111282.24	-5.9521724e-05	662454.2	221398.56	-0.0002224694	221401.64	662453.56	-0.0002919911
0	0.6310032	0.6310005	-2.7846442e-10	0.06540735	0.065407366	0	111225.88	111225.414	-3.851406e-05	662679.75	220721.67	-0.00026418242	220724.69	662679.06	-6.952169e-05
0	0.630681	0.6306783	-2.9172462e-10	0.065053925	0.06505391	0	111169.086	111168.6	-5.9521724e-05	662904.4	220045.88	-0.00019466074	220048.92	662903.7	-0.00027808675
0	0.630356	0.63035333	-1.326021e-10	0.0647002	0.0647002	0	111111.8	111111.33	-2.2758306e-05	663129.56	219365.69	-0.00012513905	219368.75	663129.06	-7.647386e-05
0	0.630029	0.63002634	-2.652042e-10	0.064346716	0.064346716	0	111054.164	111053.695	-4.5516612e-05	663355.25	218682.38	-0.0002919911	218685.39	663354.56	-0.00012513905
0	0.6297004	0.62969774	-1.193419e-10	0.063993126	0.063993126	0	110996.26	110995.78	-2.8010223e-05	663580.56	217996.92	-0.00013904338	217999.98	663579.94	-9.03782e-05
0	0.62936985	0.6293672	-3.1824504e-10	0.06363964	0.06363964	0	110937.98	110937.516	-5.2519168e-05	663806.25	217308.5	-0.0002224694	217311.56	663805.56	-0.00021204115
0	0.62903744	0.62903476	-2.386838e-10	0.06328593	0.06328593	0	110879.375	110878.914	-4.5516612e-05	664031.94	216617.31	-0.00016685206	216620.36	664031.3	-0.00019466074
0	0.6287032	0.62870044	-2.7846442e-10	0.062932536	0.062932536	0	110820.47	110820	-4.726725e-05	664257.75	215923.67	-0.000246802	215926.7	664257.06	-0.00013904338
0	0.62836677	0.62836415	-3.3150527e-10	0.06257906	0.06257905	0	110761.164	110760.695	-5.7771085e-05	664483.8	215226.61	-0.0002224694	215229.66	664483.2	-0.00023637374
0	0.628029	0.6280263	-4.773676e-10	0.06222535	0.06222535	0	110701.625	110701.14	-7.352684e-05	664709.6	214527.89	-0.00037541712	214530.95	664709	-0.00030589543
0	0.6276886	0.62768596	-2.2542357e-10	0.06187189	0.06187189	0	110641.62	110641.16	-3.1511503e-05	664935.94	213825.03	-0.0001112347	213828.1	664935.25	-0.00019466074
0	0.6273469	0.62734425	-2.652042e-10	0.061518256	0.061518256	0	110581.4	110580.93	-5.6020446e-05	665161.94	213120.62	-0.0003197998	213123.69	665161.25	-0.00018770856
0	0.6270031	0.62700045	-9.282147e-11	0.06116483	0.06116483	0	110520.8	110520.33	-1.4005112e-05	665388.1	212413.19	-0.0001112347	212416.23	665387.5	-6.952169e-05
0	0.6266571	0.62665445	-2.1216336e-10	0.060811132	0.060811132	0	110459.805	110459.336	-3.676342e-05	665614.56	211702.3	-0.0003128476	211705.34	665613.94	0
0	0.6263085	0.6263058	-2.9172462e-10	0.06045766	0.06045766	0	110398.35	110397.9	-5.4269807e-05	665841.3	210987.5	-0.00019466074	210990.58	665840.6	-0.00028503893
0	0.62595975	0.6259572	-5.304084e-11	0.060104016	0.060104016	0	110336.9	110336.44	-2.4508945e-05	666067.1	210273.53	-1.3904338e-05	210276.58	666066.56	-0.0001112347
0	0.6256074	0.62560475	-2.652042e-11	0.059750553	0.059750546	0	110274.766	110274.29	-7.002556e-06	666294.06	209553.12	-6.6045606e-05	209556.2	666293.44	2.7808675e-05
0	0.6252542	0.6252516	-1.8564295e-10	0.059396863	0.059396856	0	110212.516	110212.05	-3.1511503e-05	666520.2	208832.62	-0.00015294772	208835.69	666519.6	-0.00014599555
0	0.6248985	0.6248958	-3.712859e-10	0.059043426	0.059043426	0	110149.81	110149.34	-6.6524284e-05	666746.75	208107.95	-0.00027808675	208111.03	666746.2	-0.00026418242
0	0.62454015	0.6245376	-2.1216336e-10	0.058689952	0.058689952	0	110086.66	110086.195	-4.2015337e-05	666973.7	207379.45	-0.00023984983	207382.53	666973.06	-4.1713014e-05
0	0.624181	0.62417835	-1.4586231e-10	0.05833626	0.05833626	0	110023.33	110022.875	-3.3262142e-05	667199.8	206650.34	-0.00016685206	206653.44	667199.25	-5.561735e-05
0	0.6238187	0.6238161	-2.652042e-10	0.057982825	0.057982825	0	109959.48	109959.016	-6.127237e-05	667426.8	205916.27	-0.00027808675	205919.36	667426.25	-0.0001807564
0	0.6234552	0.6234526	-3.3150527e-10	0.057629142	0.057629142	0	109895.41	109894.945	-5.7771085e-05	667653.25	205181.02	-0.0003197998	205184.1	667652.6	-0.00019466074
0	0.623089	0.62308633	-1.8564295e-10	0.057275683	0.057275683	0	109830.87	109830.4	-4.02647e-05	667879.94	204441.6	-0.00020856508	204444.69	667879.3	-0.00015294772
0	0.6227211	0.62271845	-2.652042e-11	0.056922052	0.056922052	0	109766.01	109765.54	0	668106.56	203699.89	-8.342603e-05	203702.97	668105.94	6.952169e-05
0	0.6223506	0.6223479	-2.7846442e-10	0.0565686	0.0565686	0	109700.695	109700.23	-4.901789e-05	668333.5	202954.19	-0.00022942158	202957.25	668332.94	-0.00020856508
0	0.6219783	0.6219756	-4.6410736e-10	0.05621492	0.05621492	0	109635.08	109634.62	-7.527748e-05	668560.06	202206.47	-0.00016685206	202209.58	668559.44	-0.0005005562
0	0.6216035	0.6216008	-2.386838e-10	0.055861466	0.05586147	0	109569.01	109568.55	-5.076853e-05	668786.94	201454.81	-0.00031632368	201457.92	668786.4	-9.733037e-05
0	0.6212273	0.6212247	-5.03888e-10	0.055507783	0.055507783	0	109502.71	109502.24	-8.7531946e-05	669013.25	200701.8	-0.00032675194	200704.9	669012.75	-0.00043103448
0	0.6208485	0.62084585	-1.8564295e-10	0.055154327	0.055154327	0	109435.94	109435.48	-3.676342e-05	669240	199944.8	-0.0001807564	199947.9	669239.44	-8.342603e-05
0	0.6204663	0.62046367	-5.171482e-10	0.054800868	0.054800868	0	109368.57	109368.09	-8.7531946e-05	669467.25	199182.52	-0.00038932147	199185.62	669466.7	-0.0003337041
0	0.6200815	0.6200789	-5.304084e-11	0.05444718	0.05444718	0	109300.74	109300.28	-1.4005112e-05	669694.7	198416.39	-0.00013209121	198419.52	669694.06	-2.7808675e-05
0	0.61969876	0.61969614	-4.773676e-10	0.054093733	0.054093737	0	109233.26	109232.82	-8.578131e-05	669919.8	197655.3	-0.0003615128	197658.4	669919.3	-0.0003337041
0	0.6193105	0.61930794	-1.4586231e-10	0.053740054	0.053740058	0	109164.84	109164.39	-2.8010223e-05	670146.75	196884.98	-0.0001807564	196888.12	670146.1	-8.342603e-05
0	0.618921	0.61891836	-4.773676e-10	0.05338659	0.05338659	0	109096.18	109095.71	-8.7531946e-05	670373	196113.33	-0.0004240823	196116.44	670372.5	-0.00026418242
0	0.6185289	0.6185263	-1.0608168e-10	0.053032976	0.053032972	0	109027.055	109026.586	-1.750639e-05	670599.4	195337.88	-0.0002502781	195341	670598.9	6.952169e-05
0	0.6181346	0.61813194	-5.304084e-11	0.05267951	0.052679513	0	108957.555	108957.086	-2.6259584e-05	670825.75	194559.53	-9.733037e-05	194562.66	670825.2	-8.342603e-05
0	0.617737	0.6177344	-5.5692884e-10	0.052325834	0.052325834	0	108887.47	108887	-0.00010153706	671052.5	193776.1	-0.00041713016	193779.25	671052	-0.0004032258
0	0.6173385	0.61733586	-4.243267e-10	0.051972385	0.05197238	0	108817.22	108816.77	-6.3023006e-05	671278.44	192992.3	-0.0004449388	192995.4	671277.94	-0.0001598999
0	0.61693054	0.61692786	-3.0498484e-10	0.051618706	0.051618706	0	108745.305	108744.86	-5.4269807e-05	671508.3	192191.22	-0.0002919911	192194.33	671507.9	-0.0002224694
0	0.6165333	0.6165307	-1.5912252e-10	0.051265247	0.051265247	0	108675.3	108674.836	-4.02647e-05	671730.75	191412.73	-0.0002224694	191415.86	671730.2	-6.952169e-05
0	0.6161264	0.61612386	-4.5084714e-10	0.05091177	0.05091177	0	108603.58	108603.125	-8.05294e-05	671957.06	190616.83	-0.00030589543	190619.94	671956.56	-0.00036846497
0	0.61571896	0.61571634	-4.243267e-10	0.050558098	0.0505581	0	108531.76	108531.3	-7.352684e-05	672182.6	189820.75	-0.00019466074	189823.89	672182.06	-0.00037541712
0	0.6153015	0.6152989	-2.1216336e-10	0.050204646	0.050204646	0	108458.164	108457.71	-3.851406e-05	672412.06	189006.88	-0.00014599555	189010	672411.56	-0.00012513905
0	0.6148952	0.6148926	-1.4586231e-10	0.049850963	0.049850963	0	108386.56	108386.1	-2.8010223e-05	672633.8	188216.3	-0.00023637374	188219.42	672633.4	-2.0856507e-05
0	0.6144794	0.6144769	-1.5912252e-10	0.0494975	0.0494975	0	108313.266	108312.81	-2.1007669e-05	672859.5	187408.56	-6.952169e-05	187411.69	672859.1	-0.0001112347
0	0.6140612	0.6140586	-5.304084e-11	0.049143896	0.049143896	0	108239.54	108239.08	-1.4005112e-05	673085.06	186597.3	-9.733037e-05	186600.45	673084.6	-2.7808675e-05
0	0.61364067	0.6136381	2.652042e-11	0.048790425	0.048790425	0	108165.414	108164.96	0	673310.4	185783.44	-0.00012513905	185786.6	673309.9	0.00010428254
0	0.6132176	0.61321497	-3.845461e-10	0.048436753	0.048436757	0	108090.85	108090.39	-5.9521724e-05	673535.5	184966.02	-0.0002502781	184969.16	673535.06	-0.00023637374
0	0.6127923	0.61278975	-3.1824504e-10	0.0480833	0.0480833	0	108015.875	108015.43	-5.2519168e-05	673760.44	184145.72	-0.00035456062	184148.83	673760	-0.0001112347
0	0.61236435	0.6123618	-3.4476547e-10	0.04772963	0.04772963	0	107940.45	107939.99	-5.9521724e-05	673985.3	183321.72	-0.0001807564	183324.83	673984.8	-0.0002589683
0	0.6119328	0.6119303	-2.652042e-10	0.04737616	0.047376152	0	107864.38	107863.94	-5.2519168e-05	674210.4	182492.5	-0.00023637374	182495.62	674209.94	-0.00023637374
0	0.611501	0.6114985	-3.5802566e-10	0.047022674	0.047022674	0	107788.266	107787.805	-7.002556e-05	674434.4	181663.88	-0.0003615128	181667	674433.94	-0.00019466074
0	0.6110596	0.61105704	-3.4476547e-10	0.046669014	0.046669014	0	107710.46	107710.03	-5.7771085e-05	674661.56	180818.7	-0.00020856508	180821.86	674661.2	-0.00027808675
0	0.610626	0.61062354	3.978063e-11	0.046315555	0.04631555	0	107634.03	107633.586	1.22544725e-05	674883.3	179989.98	2.7808675e-05	179993.11	674882.94	8.342603e-05
0	0.6101863	0.6101837	-1.4586231e-10	0.045961887	0.045961887	0	107556.53	107556.08	-2.1007669e-05	675106.9	179150.89	-0.00021551724	179154	675106.44	-4.1713014e-05
0	0.60974216	0.6097396	-2.51944e-10	0.04560841	0.04560841	0	107478.24	107477.8	-4.726725e-05	675330.94	178305.03	-0.0002919911	178308.12	675330.5	-2.7808675e-05
0	0.6092968	0.6092943	-3.4476547e-10	0.045254823	0.045254823	0	107399.74	107399.31	-6.3023006e-05	675554.1	177458.34	-0.00026418242	177461.45	675553.7	-0.00026418242
0	0.6088485	0.6088461	-7.956126e-11	0.044901334	0.044901334	0	107320.73	107320.29	-2.2758306e-05	675777.4	176607.58	-0.0002016129	176610.72	675776.9	2.7808675e-05
0	0.6083971	0.60839456	-3.1824504e-10	0.04454768	0.04454768	0	107241.13	107240.695	-4.5516612e-05	676000.5	175752.33	-0.00026418242	175755.45	676000.06	-0.00018770856
0	0.6079429	0.6079404	-3.1824504e-10	0.04419421	0.04419421	0	107161.08	107160.64	-4.5516612e-05	676223.4	174893.55	-0.0002224694	174896.66	676223.06	-0.00015294772
0	0.6074865	0.607484	0	0.04384056	0.043840565	0	107080.63	107080.19	-1.750639e-06	676445.9	174032.08	-0.0001355673	174035.17	676445.44	0.00013904338
0	0.60702693	0.60702443	-2.7846442e-10	0.04348707	0.04348707	0	106999.63	106999.19	-5.6020446e-05	676668.3	173166.34	-0.00023637374	173169.44	676667.94	-0.00014599555
0	0.606565	0.6065625	-1.326021e-10	0.043133575	0.043133575	0	106918.2	106917.76	-2.4508945e-05	676890.25	172297.62	-0.00013904338	172300.73	676890	-4.1713014e-05
0	0.6060997	0.6060973	-1.4586231e-10	0.04277993	0.042779934	0	106836.195	106835.766	-2.2758306e-05	677112.2	171424.4	-0.0002016129	171427.52	677111.8	0.0001112347
0	0.60563225	0.60562974	-3.1824504e-10	0.042426433	0.042426433	0	106753.77	106753.336	-4.901789e-05	677333.75	170548.23	-0.00020856508	170551.34	677333.4	-0.00012861512
0	0.6051608	0.6051583	-1.7238273e-10	0.042072814	0.042072814	0	106670.69	106670.25	-2.8010223e-05	677555.3	169666.78	-9.733037e-05	169669.88	677554.94	-2.7808675e-05
0	0.6046879	0.60468554	-4.243267e-10	0.04171931	0.04171931	0	106587.336	106586.91	-7.352684e-05	677776.06	168784	-0.0004240823	168787.11	677775.7	-0.00020856508
0	0.60421246	0.60421	-2.386838e-10	0.041365746	0.041365746	0	106503.53	106503.1	-4.2015337e-05	677996.44	167897.95	-0.00019466074	167901.06	677996.1	-0.00019466074
0	0.6037338	0.60373133	-5.03888e-10	0.041012246	0.041012246	0	106419.14	106418.71	-9.278386e-05	678216.6	167007.47	-0.0005005562	167010.53	678216.3	-0.00026418242
0	0.6032517	0.60324925	-3.4476547e-10	0.04065861	0.04065861	0	106334.18	106333.75	-5.6020446e-05	678436.7	166112.62	-0.0002711346	166115.7	678436.3	-0.00020856508
0	0.6027668	0.6027644	-4.1106651e-10	0.04030513	0.04030513	0	106248.7	106248.28	-6.3023006e-05	678656.3	165214.16	-0.00027808675	165217.25	678656	-0.0003128476
0	0.60227966	0.6022772	-6.630105e-11	0.03995149	0.03995149	0	106162.83	106162.4	-1.750639e-05	678875.44	164312.95	-0.00012513905	164316.06	678875.1	-5.561735e-05
0	0.60178894	0.60178655	-2.9172462e-10	0.039597984	0.039597984	0	106076.336	106075.92	-5.4269807e-05	679094.4	163407.08	-0.00016337597	163410.14	679094.06	-0.00023637374
0	0.60129523	0.6012928	-3.9780632e-10	0.03924448	0.03924448	0	105989.31	105988.89	-5.9521724e-05	679312.94	162497.2	-0.0003406563	162500.28	679312.7	-0.00017380423
0	0.6007987	0.60079634	-2.1216336e-10	0.038890846	0.03889085	0	105901.8	105901.37	-3.3262142e-05	679531.2	161583.95	-0.0001807564	161587.03	679530.8	-0.0001112347
0	0.60029924	0.6002968	-1.326021e-11	0.038537335	0.038537335	0	105813.734	105813.33	1.750639e-06	679749	160666.86	-9.733037e-05	160669.92	679748.75	0
0	0.59979177	0.59978944	-3.1824504e-10	0.038183726	0.038183726	0	105724.305	105723.88	-6.127237e-05	679968.4	159737.02	-0.0003615128	159740.11	679968.1	-0.00016685206
0	0.59929156	0.5992892	-2.652042e-11	0.03783022	0.03783022	0	105636.13	105635.7	-7.002556e-06	680183.1	158822.1	-1.3904338e-05	158825.16	680182.9	2.7808675e-05
0	0.598782	0.5987797	5.304084e-11	0.037476588	0.037476588	0	105546.32	105545.9	-1.750639e-06	680400	157891.84	3.4760844e-06	157894.92	680399.7	5.561735e-05
0	0.5982704	0.59826815	-3.0498484e-10	0.03712316	0.03712316	0	105456.16	105455.73	-4.3765973e-05	680616	156959.56	-0.00023637374	156962.64	680615.8	-0.0002016129
0	0.5977557	0.59775335	-3.1824504e-10	0.03676954	0.03676954	0	105365.41	105364.984	-6.6524284e-05	680831.75	156023.17	-0.00037541712	156026.25	680831.5	-0.0001112347
0	0.59723765	0.5972353	-2.9172462e-10	0.03641604	0.03641604	0	105274.09	105273.67	-5.7771085e-05	681047	155082.69	-0.00019466074	155085.73	681046.75	-0.00026418242
0	0.5967102	0.59670794	0	0.03606242	0.03606242	0	105181.125	105180.72	0	681264.44	154126.89	-0.0001112347	154129.92	681264.2	0.0001112347
0	0.59619224	0.59618986	-2.7846442e-10	0.0357089	0.0357089	0	105089.81	105089.414	-4.2015337e-05	681475.94	153190.1	-0.0002502781	153193.14	681475.75	-0.0001112347
0	0.59566456	0.5956622	-1.12711784e-10	0.035355378	0.035355378	0	104996.79	104996.39	-1.750639e-05	681689.8	152237.55	-0.00013904338	152240.6	681689.6	-6.952169e-05
0	0.595129	0.59512675	-2.386838e-10	0.03500176	0.03500176	0	104902.41	104902.01	-4.5516612e-05	681904.94	151272.7	-0.00025723025	151275.75	681904.75	-7.82119e-05
0	0.59459984	0.59459764	-1.6575263e-10	0.034648232	0.034648236	0	104809.13	104808.734	-3.501278e-05	682115.9	150320.92	-9.03782e-05	150323.95	682115.7	-0.00016685206
0	0.59406304	0.5940608	-2.2542357e-10	0.034294646	0.034294646	0	104714.5	104714.09	-4.726725e-05	682328	149357.28	-0.00018423249	149360.3	682327.8	-0.00013904338
0	0.5935217	0.5935195	-1.193419e-10	0.033941116	0.033941116	0	104619.09	104618.695	-1.0503834e-05	682540	148387.47	-0.00023637374	148390.48	682539.9	9.733037e-05
0	0.5929779	0.59297556	-7.2931154e-11	0.033587508	0.033587508	0	104523.2	104522.81	-2.1007669e-05	682751.1	147414.7	-4.1713014e-05	147417.73	682751.06	-0.00012513905
0	0.592431	0.5924287	-5.03888e-10	0.033234067	0.033234067	0	104426.83	104426.43	-9.628514e-05	682961.7	146438.72	-0.00050750835	146441.72	682961.6	-0.0002502781
0	0.5918803	0.591878	-2.386838e-10	0.032880474	0.032880474	0	104329.76	104329.35	-3.676342e-05	683171.8	145457.62	-0.00019466074	145460.64	683171.6	-0.00016685206
0	0.59132653	0.59132427	-1.7238273e-10	0.032526955	0.032526955	0	104232.13	104231.74	-3.501278e-05	683381.1	144472.92	-0.00014599555	144475.89	683381.06	-0.00013904338
0	0.5907688	0.5907666	-2.386838e-10	0.032173358	0.032173358	0	104133.84	104133.445	-4.2015337e-05	683590.2	143483.2	-0.00020508899	143486.17	683589.94	-0.0001807564
0	0.5902026	0.5902003	-6.364901e-10	0.031819817	0.031819817	0	104034.02	104033.65	-0.00011554217	683800.3	142480.3	-0.00046579534	142483.31	683800.2	-0.0004449388
0	0.5896434	0.5896412	3.3150524e-11	0.031466268	0.031466268	0	103935.48	103935.086	1.5755752e-05	684006	141491.81	-0.00015294772	141494.8	684005.94	0.0002224694
0	0.5890742	0.5890719	-6.630105e-12	0.031112675	0.031112675	0	103835.13	103834.75	1.750639e-06	684213.44	140487.5	-7.299778e-05	140490.47	684213.3	5.561735e-05
0	0.58850235	0.5885002	-1.25972e-10	0.030759128	0.030759128	0	103734.33	103733.95	-3.501278e-05	684419.94	139480.33	-0.00028503893	139483.3	684419.9	6.2569525e-05
0	0.5879298	0.58792764	-1.12711784e-10	0.030405566	0.030405566	0	103633.41	103633.02	-1.5755752e-05	684625.06	138473.78	-1.3904338e-05	138476.72	684624.94	-0.0001112347
0	0.58735114	0.58734894	-4.3758694e-10	0.030052008	0.030052008	0	103531.4	103531.04	-8.578131e-05	684830	137458.58	-0.00043451056	137461.52	684830	-0.0002224694
0	0.58676916	0.586767	-2.652042e-10	0.029698431	0.029698428	0	103428.82	103428.45	-4.726725e-05	685034.4	136439.6	-0.0003128476	136442.55	685034.3	-4.345106e-05
0	0.58618355	0.5861814	-5.9670946e-10	0.029344976	0.029344976	0	103325.59	103325.21	-9.978642e-05	685237.9	135416.11	-0.00043103448	135419.06	685237.9	-0.00045884316
0	0.58559394	0.58559185	-3.5802566e-10	0.028991412	0.028991412	0	103221.68	103221.305	-5.9521724e-05	685440.75	134387.81	-0.0002676585	134390.75	685440.7	-0.00027808675
0	0.58499897	0.5849969	8.619137e-11	0.028637841	0.028637841	0	103116.79	103116.43	1.750639e-05	685643.5	133352.08	4.1713014e-05	133355.02	685643.56	4.8665184e-05
0	0.58440447	0.5844024	-2.718343e-10	0.028284298	0.028284298	0	103012.01	103011.64	-3.501278e-05	685844.3	132319.06	-0.00016685206	132321.98	685844.3	-0.00020856508
0	0.58380425	0.58380216	-2.1879347e-10	0.027930735	0.027930735	0	102906.2	102905.836	-3.676342e-05	686044.9	131278.16	-0.0001807564	131281.05	686044.94	-8.342603e-05
0	0.58319354	0.58319145	-4.1769663e-10	0.027577164	0.027577164	0	102798.55	102798.19	-7.702812e-05	686246.94	130221.06	-0.0003337041	130223.95	686246.94	-0.00026418242
0	0.582592	0.5825899	-2.51944e-10	0.02722359	0.02722359	0	102692.52	102692.16	-5.2519168e-05	686443.8	129182.16	-0.0001112347	129185.05	686443.8	-0.0001807564
0	0.5819786	0.5819765	-1.25972e-10	0.026870027	0.026870029	0	102584.4	102584.04	-2.1007669e-05	686642.4	128124.766	-0.000246802	128127.66	686642.44	8.342603e-05
0	0.5813639	0.58136183	-4.6410736e-11	0.026516486	0.026516488	0	102476.03	102475.68	5.251917e-06	686839.5	127066.92	-0.00014599555	127069.81	686839.56	0.00013382925
0	0.5807451	0.580743	3.978063e-11	0.026162917	0.026162917	0	102366.98	102366.61	0	687035.94	126004.3	-2.7808675e-05	126007.14	687036.06	6.952169e-05
0	0.5801211	0.58011913	-9.282147e-11	0.025809353	0.025809353	0	102256.984	102256.63	-1.5755752e-05	687231.8	124934.92	-0.0001112347	124937.766	687231.9	-2.7808675e-05
0	0.57949305	0.579491	2.2542357e-10	0.025455885	0.025455886	0	102146.266	102145.93	4.2015337e-05	687426.8	123860.586	6.952169e-06	123863.44	687426.9	0.0003615128
0	0.57886267	0.57886076	-1.5912252e-10	0.025102323	0.025102323	0	102035.164	102034.805	-3.3262142e-05	687620.56	122784.41	-0.00013209121	122787.25	687620.6	-0.00019466074
0	0.57822686	0.57822496	-8.619137e-11	0.024748752	0.02474875	0	101923.1	101922.75	-5.251917e-06	687813.7	121701.234	-0.00010428254	121704.055	687813.7	-4.1713014e-05
0	0.57758814	0.57758623	1.9890315e-11	0.024395213	0.024395213	0	101810.51	101810.164	1.750639e-06	688005.56	120615.04	4.1713014e-05	120617.86	688005.7	1.3904338e-05
0	0.5769403	0.57693833	-3.1824504e-10	0.024041649	0.024041649	0	101696.31	101695.98	-5.9521724e-05	688198	119515.63	-0.0003337041	119518.44	688198.06	-0.00015294772
0	0.5762971	0.5762952	-3.3150527e-10	0.023688078	0.023688078	0	101582.94	101582.6	-6.3023006e-05	688387	118426.18	-0.00032675194	118428.984	688387.1	-0.0002224694
0	0.5756453	0.5756434	-2.2542357e-10	0.023334507	0.023334507	0	101468.04	101467.7	-2.9760862e-05	688576.2	117324.44	-0.00026418242	117327.234	688576.25	1.3904338e-05
0	0.5749895	0.57498765	3.978063e-11	0.022980943	0.022980943	0	101352.445	101352.12	1.0503834e-05	688764.5	116218.1	-0.00010428254	116220.87	688764.56	0.00015294772
0	0.57432985	0.574328	-1.7238273e-10	0.022627411	0.022627411	0	101236.17	101235.84	-2.2758306e-05	688951.56	115107.445	-0.0002016129	115110.21	688951.6	5.561735e-05
0	0.57366556	0.5736638	-1.7238273e-10	0.02227384	0.02227384	0	101119.09	101118.76	-2.9760862e-05	689137.75	113991.34	-0.0001807564	113994.09	689137.94	-4.1713014e-05
0	0.57299626	0.57299435	-2.386838e-10	0.021920282	0.021920282	0	101001.09	101000.766	-4.02647e-05	689323.06	112868.85	-0.00019466074	112871.58	689323.2	-0.0001112347
0	0.57232434	0.5723224	-1.0608168e-10	0.021566788	0.021566788	0	100882.65	100882.33	-2.4508945e-05	689507.06	111744.266	-0.00017728031	111746.99	689507.1	4.1713014e-05
0	0.57164764	0.57164586	-1.25972e-10	0.021213217	0.021213217	0	100763.38	100763.06	-1.750639e-05	689689.94	110614.02	-0.00023637374	110616.734	689690.1	7.994995e-05
0	0.57096595	0.5709642	-3.9780632e-10	0.020859655	0.020859655	0	100643.23	100642.914	-7.002556e-05	689871.9	109477.74	-0.00046579534	109480.445	689872.1	-0.0001807564
0	0.57028043	0.5702787	-3.3813535e-10	0.020506123	0.020506123	0	100522.39	100522.07	-5.6020446e-05	690052.6	108337.41	-0.00043451056	108340.086	690052.75	-4.1713014e-05
0	0.56959015	0.5695884	-2.7846442e-10	0.020152565	0.020152565	0	100400.71	100400.4	-5.6020446e-05	690232.25	107191.37	-0.0002711346	107194.03	690232.44	-0.00018423249
0	0.5688899	0.56888825	1.5249242e-10	0.019798992	0.019798992	0	100277.28	100276.984	1.22544725e-05	690412.2	106031.055	2.0856507e-05	106033.695	690412.5	0.00019466074
0	0.56819546	0.5681938	-1.25972e-10	0.019445425	0.019445425	0	100154.88	100154.56	-3.1511503e-05	690588.1	104882.91	-0.00012166296	104885.54	690588.25	-5.561735e-05
0	0.56749254	0.5674908	-3.4476547e-10	0.019091863	0.019091863	0	100030.96	100030.66	-6.127237e-05	690764	103722.83	-0.00043103448	103725.46	690764.2	-5.561735e-05
0	0.5667845	0.5667828	1.0608168e-10	0.018738294	0.018738292	0	99906.16	99905.86	2.9760862e-05	690938.8	102556.914	-0.00010428254	102559.52	690939.06	0.0002919911
0	0.5660717	0.56607	-6.630105e-11	0.01838477	0.01838477	0	99780.52	99780.22	-1.0503834e-05	691112.3	101385.42	-6.952169e-05	101388.04	691112.6	1.3904338e-05
0	0.56535447	0.56535286	-2.51944e-10	0.01803121	0.01803121	0	99654.1	99653.81	-3.851406e-05	691284.6	100209.09	-0.00043103448	100211.68	691284.9	8.342603e-05
0	0.5646291	0.5646274	-1.9227304e-10	0.017677689	0.017677689	0	99526.234	99525.945	-3.501278e-05	691456.4	99021.76	-8.342603e-05	99024.336	691456.7	-0.00018770856
0	0.5639051	0.5639035	-3.0498484e-10	0.017324118	0.017324118	0	99398.625	99398.336	-5.2519168e-05	691625.4	97839.23	-0.00030937153	97841.79	691625.7	-0.00012513905
0	0.56317335	0.56317186	-8.619137e-11	0.016970558	0.016970558	0	99269.65	99269.375	-2.2758306e-05	691793.8	96646.5	0.00017380423	96649.03	691794.2	-0.0003197998
0	0.56243765	0.56243604	-2.585741e-10	0.016617034	0.016617034	0	99139.945	99139.67	-4.5516612e-05	691960.7	95449.39	-0.0003337041	95451.92	691961.06	-5.561735e-05
0	0.5616968	0.56169516	-4.6410736e-10	0.016263478	0.016263478	0	99009.35	99009.08	-7.877876e-05	692126.25	94246.62	-0.00050750835	94249.125	692126.6	-0.0001112347
0	0.5609505	0.5609491	-3.3150527e-10	0.01590991	0.01590991	0	98877.83	98877.56	-6.127237e-05	692290.6	93037.734	-0.00046579534	93040.234	692290.94	-1.3904338e-05
0	0.5601995	0.56019795	-6.4312017e-10	0.015556337	0.015556337	0	98745.43	98745.18	-0.00011379153	692453.44	91823.43	-0.000493604	91825.9	692453.75	-0.0004727475
0	0.5594443	0.55944276	-5.171482e-10	0.015202783	0.015202783	0	98612.31	98612.06	-8.4030675e-05	692614.7	90604.94	-0.00030937153	90607.4	692615.06	-0.00041713016
0	0.558683	0.55868155	-6.8953093e-10	0.014849216	0.014849214	0	98478.11	98477.85	-0.00012954729	692774.75	89379.016	-0.0005422692	89381.45	692775	-0.00055269746
0	0.5579176	0.5579161	-1.326021e-10	0.014495706	0.014495706	0	98343.2	98342.94	-2.6259584e-05	692933	88149.164	-0.00021551724	88151.586	692933.3	8.342603e-05
0	0.5571468	0.55714536	-5.967095e-11	0.01414215	0.01414215	0	98207.34	98207.08	-1.5755752e-05	693089.9	86913.22	-8.8640154e-05	86915.63	693090.25	-6.952169e-06
0	0.55637085	0.5563694	-9.282147e-11	0.013788582	0.013788582	0	98070.57	98070.31	-8.753195e-06	693245.2	85671.62	-0.00021204115	85674	693245.6	0.00012513905
0	0.5555859	0.5555845	-2.9835473e-10	0.013435014	0.013435014	0	97932.2	97931.945	-4.726725e-05	693399.6	84418.22	-0.00019379171	84420.6	693400.06	-0.00023637374
0	0.55480355	0.5548022	1.326021e-11	0.013081458	0.013081458	0	97794.3	97794.06	0	693551.1	83171.57	-0.0002919911	83173.914	693551.5	0.00034760847
0	0.5540119	0.55401057	-5.304084e-11	0.012727943	0.012727943	0	97654.766	97654.52	-7.002556e-06	693701.56	81912.74	-4.51891e-05	81915.07	693702.06	1.3904338e-05
0	0.553214	0.55321264	-1.326021e-10	0.012374375	0.012374375	0	97514.11	97513.87	-2.8010223e-05	693850.7	80646.62	-0.00024332592	80648.94	693851.2	6.952169e-05
0	0.5524129	0.5524116	-4.4421705e-10	0.0120208245	0.0120208245	0	97372.91	97372.69	-7.877876e-05	693997.75	79378.09	-0.00030589543	79380.38	693998.25	-0.00032675194
0	0.55160576	0.5516045	-4.1106651e-10	0.011667253	0.011667253	0	97230.625	97230.4	-6.3023006e-05	694143.25	78102.484	-0.0003823693	78104.76	694143.75	-0.00016685206
0	0.550793	0.55079174	-6.630105e-12	0.011313706	0.011313706	0	97087.36	97087.14	-3.501278e-06	694287.06	76820.89	-1.7380422e-05	76823.14	694287.56	-4.1713014e-05
0	0.54997474	0.5499735	7.2931154e-11	0.01096014	0.010960141	0	96943.13	96942.91	1.750639e-05	694429.06	75533.31	-5.214127e-05	75535.54	694429.5	0.00019466074
0	0.5491509	0.5491497	1.9890315e-11	0.010606608	0.010606608	0	96797.914	96797.7	7.002556e-06	694569.4	74239.75	3.4760844e-06	74241.97	694569.75	1.3904338e-05
0	0.54831827	0.54831713	-1.9227304e-10	0.010253062	0.010253062	0	96651.15	96650.94	-4.02647e-05	694708.4	72935.17	-0.00043103448	72937.35	694708.75	0.00015294772
0	0.54748344	0.5474823	-2.7846442e-10	0.009899496	0.009899496	0	96504	96503.79	-4.901789e-05	694844.9	71629.81	-0.0002711346	71631.984	694845.44	-0.00015294772
0	0.54664606	0.5466449	-4.7073745e-10	0.009545932	0.009545932	0	96356.39	96356.19	-8.2280036e-05	694979.1	70323.23	-0.00034413236	70325.375	694979.7	-0.00033891824
0	0.54579884	0.54579777	-2.2542357e-10	0.009192385	0.009192385	0	96207.06	96206.85	-4.2015337e-05	695112	69004.234	-0.00019118465	69006.35	695112.56	-0.00019466074
0	0.54494774	0.5449467	-4.3095683e-10	0.0088388445	0.0088388445	0	96057.05	96056.84	-7.702812e-05	695242.8	67681.93	-0.0003736791	67684.02	695243.5	-0.00025723025
0	0.54409	0.54408884	1.326021e-11	0.008485279	0.008485279	0	95905.83	95905.63	-1.0503834e-05	695371.75	66352.055	1.7380422e-05	66354.15	695372.44	-7.647386e-05
0	0.54322666	0.5432255	-5.304084e-11	0.008131739	0.008131739	0	95753.64	95753.47	-1.4005112e-05	695498.7	65016.426	-0.00039279755	65018.477	695499.3	0.0002711346
0	0.5423566	0.54235554	-1.7901283e-10	0.0077781687	0.0077781687	0	95600.3	95600.11	-2.9760862e-05	695623.7	63673.457	-0.0001112347	63675.49	695624.25	-8.342603e-05
0	0.5414823	0.5414813	-1.193419e-10	0.007424608	0.007424607	0	95446.19	95446.01	-1.750639e-05	695746.5	62326.758	-0.00017380423	62328.76	695747.06	1.3904338e-05
0	0.54060036	0.5405994	-3.845461e-10	0.007071075	0.0070710746	0	95290.734	95290.56	-7.17762e-05	695867.4	60971.168	-0.00033022804	60973.15	695868	-0.0002502781
0	0.53971297	0.539712	-3.9780632e-10	0.006717507	0.006717507	0	95134.305	95134.14	-6.6524284e-05	695986.06	59610.05	-0.00027808675	59612.008	695986.7	-0.0003337041