# t (s)	mx ()	my ()	mz ()	B_extx (T)	B_exty (T)	B_extz (T)	m_fullx (A/m)	m_fully (A/m)	m_fullz (A/m)	m_full.region1x (A/m)	m_full.region1y (A/m)	m_full.region1z (A/m)	m_full.region2x (A/m)	m_full.region2y (A/m)	m_full.region2z (A/m)
0	0.652477	0.6534945	-6.348634e-10	0.070710704	0.070710704	0	114397.57	114575.95	-0.00010774105	642120.25	272239.34	-0.00046141635	271347.62	642652.94	-0.00045842677
0	0.6523769	0.65339476	-3.0064212e-10	0.07056914	0.07056914	0	114380.03	114558.47	-5.3435408e-05	642220.7	271999.12	-0.00012868391	271107.1	642753.5	-0.00028931038
0	0.65226823	0.65328956	9.5809236e-11	0.07042789	0.07042789	0	114360.96	114540.02	1.7357912e-05	642327.44	271743.47	1.1247731e-05	270847.97	642861.9	0.00018525058
0	0.65216243	0.65318877	-3.00449e-10	0.0702864	0.0702864	0	114342.42	114522.36	-5.443318e-05	642430.8	271496.75	-0.00033500462	270596.6	642967.5	-9.700592e-05
0	0.65205467	0.6530853	-1.4481374e-10	0.07014501	0.07014501	0	114323.53	114504.22	-2.2351564e-05	642536.2	271244.66	-0.00012637857	270340.4	643074.7	-6.313305e-05
0	0.65194714	0.6529821	-2.7479596e-10	0.07000352	0.07000352	0	114304.664	114486.13	-4.7141213e-05	642641.06	270993.47	-0.0001788016	270084.97	643181.5	-0.00021778364
0	0.6518386	0.652878	-4.0645964e-10	0.069862254	0.069862254	0	114285.64	114467.875	-6.8881825e-05	642746.5	270740.12	-0.00031498633	269827.44	643289.06	-0.00026582094
0	0.65172964	0.65277374	1.2364522e-10	0.0697207	0.0697207	0	114266.555	114449.57	2.4615667e-05	642852.25	270486.34	9.424105e-05	269569.3	643396.75	0.00012306569
0	0.6516209	0.65266937	-3.0185035e-10	0.06957923	0.06957923	0	114247.47	114431.3	-5.3072094e-05	642957.6	270232.88	-0.0002536478	269311.6	643504.2	-0.00016997757
0	0.65151167	0.65256464	-2.5289115e-10	0.06943795	0.06943795	0	114228.32	114412.945	-4.2621727e-05	643063.4	269978.7	-0.00034372607	269053	643611.94	-1.9306513e-05
0	0.6514027	0.65246	-3.9412928e-10	0.06929643	0.06929643	0	114209.22	114394.586	-6.85819e-05	643168.44	269725.03	-0.00031353135	268795.25	643719.06	-0.00025858663
0	0.6512921	0.6523538	-3.401311e-10	0.06915509	0.06915509	0	114189.82	114375.984	-6.0744405e-05	643275.2	269467.8	-0.00018595235	268533.78	643827.7	-0.0002928999
0	0.6511827	0.6522492	-3.5378137e-10	0.0690136	0.0690136	0	114170.66	114357.62	-6.241833e-05	643380.3	269214.03	-0.00029938543	268275.53	643934.8	-0.00021828421
0	0.65107214	0.65214294	-4.060528e-11	0.068872124	0.068872124	0	114151.266	114339.01	-8.2344095e-06	643486.44	268957.3	9.1522445e-05	268014.6	644043	-0.00014166375
0	0.6509614	0.65203696	-4.200025e-10	0.06873078	0.06873078	0	114131.84	114320.42	-7.305143e-05	643592.56	268700.7	-0.0002574955	267753.44	644151.1	-0.0003327472
0	0.6508505	0.6519301	-1.7358576e-10	0.06858929	0.06858929	0	114112.4	114301.69	-3.0003192e-05	643698.7	268443.2	-0.000108449145	267492.03	644259	-0.000115631185
0	0.6507382	0.6518223	-2.0030681e-10	0.06844799	0.06844799	0	114092.71	114282.79	-3.339555e-05	643806	268183	-0.000102862236	267227.53	644368.25	-0.00017492606
0	0.6506282	0.65171736	-2.0913356e-11	0.0683065	0.0683065	0	114073.42	114264.38	-5.0874537e-06	643910.6	267929.16	-6.3506704e-05	266968.88	644475.1	6.0851606e-05
0	0.65051633	0.65161	-4.0360001e-10	0.06816516	0.06816516	0	114053.805	114245.57	-6.720099e-05	644017.06	267670.5	-0.00027853815	266705.84	644583.6	-0.00028243547
0	0.65040416	0.6515023	-4.895139e-10	0.068023674	0.068023674	0	114034.125	114226.69	-8.511317e-05	644123.56	267411.25	-0.00029771432	266442.22	644692.06	-0.00040629602
0	0.6502911	0.6513939	-2.6278285e-10	0.067882195	0.067882195	0	114014.32	114207.67	-4.627166e-05	644230.7	267150.4	-0.00023365632	266176.9	644801.25	-0.00011573329
0	0.6501791	0.6512868	-1.8227013e-10	0.067740865	0.067740865	0	113994.68	114188.9	-3.260889e-05	644336.5	266892.34	-6.632031e-05	265914.16	644909.1	-0.00019572508
0	0.65006566	0.6511781	-3.4443418e-10	0.06759933	0.06759933	0	113974.805	114169.84	-6.164951e-05	644443.44	266631.2	-0.00033314296	265648.56	645018.2	-0.00016888605
0	0.64995295	0.6510699	-7.978818e-10	0.06745806	0.06745806	0	113955.02	114150.87	-0.00014284323	644549.75	266371.44	-0.0007563378	265384.4	645126.4	-0.00040704611
0	0.64983845	0.65095997	-3.5159026e-10	0.06731656	0.06731656	0	113934.96	114131.6	-6.656804e-05	644657.25	266107.97	-0.0003443189	265116.53	645236	-0.00016878695
0	0.6497249	0.65085137	-1.925703e-10	0.06717502	0.06717502	0	113915.03	114112.56	-3.5382785e-05	644764	265847.12	-0.00012410291	264850.78	645344.9	-0.00017770374
0	0.6496102	0.6507415	3.0216413e-11	0.06703376	0.06703376	0	113894.945	114093.3	3.8520707e-06	644871.25	265584.03	-7.464911e-05	264583.1	645454.2	0.00011332426
0	0.6494961	0.65063226	-4.2086853e-10	0.066892266	0.066892266	0	113874.93	114074.125	-7.4867654e-05	644977.9	265322.25	-0.00035540087	264316.62	645562.94	-0.00024808414
0	0.64938134	0.6505222	-3.5426495e-10	0.06675089	0.06675089	0	113854.81	114054.83	-6.402917e-05	645085.06	265059.03	-0.00036266717	264048.97	645672	-0.00015872388
0	0.6492653	0.65041065	-5.6540156e-10	0.066609405	0.066609405	0	113834.46	114035.28	-9.59338e-05	645193.06	264792.8	-0.00040751306	263778.28	645782.1	-0.00040387773
0	0.64915085	0.6503012	-1.969228e-10	0.066468135	0.066468135	0	113814.4	114016.08	-3.3378205e-05	645299.4	264531.03	-4.7699898e-05	263511.75	645890.5	-0.00020529752
0	0.6490339	0.6501889	-4.2360981e-10	0.066326596	0.066326596	0	113793.91	113996.4	-7.81691e-05	645407.9	264263.5	-0.00031342506	263239.62	646001.06	-0.0003116297
0	0.64891833	0.6500785	-7.883543e-10	0.06618511	0.06618511	0	113773.65	113977.03	-0.00013823308	645514.6	263999.75	-0.0005882738	262971.03	646110	-0.00054777035
0	0.6488019	0.64996684	-7.911051e-11	0.06604383	0.06604383	0	113753.21	113957.46	-1.63751e-05	645622.4	263733.78	-0.000122009085	262700.3	646219.75	1.4954519e-05
0	0.6486843	0.649854	-4.416722e-10	0.06590228	0.06590228	0	113732.62	113937.69	-8.047e-05	645730.6	263465.5	-0.0004131533	262427.5	646330.06	-0.00023503421
0	0.6485676	0.64974254	-4.4611248e-10	0.065760985	0.065760985	0	113712.16	113918.14	-7.597339e-05	645838	263199.88	-0.00033819958	262156.75	646439.7	-0.00031061596
0	0.64845	0.64962953	-1.4294517e-10	0.065619476	0.065619476	0	113691.516	113898.336	-2.3851215e-05	645946.2	262931.5	-6.921613e-05	261883.77	646549.9	-0.00013589967
0	0.6483318	0.64951634	-3.823789e-10	0.065478206	0.065478206	0	113670.8	113878.48	-6.752704e-05	646054.44	262662.53	-0.00033852996	261610.05	646660.2	-0.00019783308
0	0.6482143	0.64940387	-1.6706186e-10	0.065336674	0.065336674	0	113650.195	113858.78	-3.1077125e-05	646161.8	262395.56	-0.00012176911	261338.11	646769.9	-0.00013376563
0	0.6480954	0.64928997	-5.0361293e-10	0.06519518	0.06519518	0	113629.36	113838.8	-9.482597e-05	646270.44	262125.44	-0.00040396268	261063.2	646880.56	-0.00034906995
0	0.6479774	0.64917713	-4.871766e-10	0.0650539	0.0650539	0	113608.67	113819	-8.202213e-05	646377.8	261857.81	-0.00045799866	260790.61	646990.2	-0.00027126633
0	0.6478578	0.6490624	-3.9464038e-10	0.06491235	0.06491235	0	113587.695	113798.89	-6.9330286e-05	646486.7	261586.22	-0.00035623388	260514.19	647101.1	-0.00019387063
0	0.6477379	0.6489474	-5.0456334e-10	0.064771056	0.064771056	0	113566.68	113778.72	-8.9216206e-05	646595.5	261314.47	-0.00018676634	260237.73	647211.9	-0.00056483946
0	0.6476183	0.6488328	-6.1324656e-10	0.06462957	0.06462957	0	113545.71	113758.63	-0.00010915433	646703.9	261043.5	-0.00040409007	259961.75	647322.44	-0.00049745385
0	0.6474984	0.64871836	1.0709981e-11	0.064488046	0.064488046	0	113524.68	113738.57	4.223589e-06	646812.06	260772.69	-7.8115714e-05	259685.69	647433.06	9.9208184e-05
0	0.6473779	0.64860296	-5.239249e-10	0.06434676	0.06434676	0	113503.555	113718.34	-9.112742e-05	646920.8	260500.36	-0.00035851807	259408.31	647543.8	-0.00039077742
0	0.6472574	0.64848745	-1.1057291e-10	0.06420526	0.06420526	0	113482.42	113698.09	-2.109297e-05	647029.25	260228.02	-1.192316e-05	259131.05	647654.5	-0.00015574764
0	0.64713633	0.6483716	-2.9308164e-10	0.06406394	0.06406394	0	113461.2	113677.77	-5.1781753e-05	647138.1	259954.8	-0.00024839965	258852.89	647765.4	-0.00018573584
0	0.6470149	0.6482551	-5.1309074e-10	0.06392242	0.06392242	0	113439.914	113657.35	-9.234318e-05	647246.94	259680.75	-0.00040534508	258573.94	647876.44	-0.0003487291
0	0.6468935	0.64813876	-7.249424e-10	0.063781135	0.063781135	0	113418.63	113636.945	-0.00012851643	647355.6	259407.05	-0.00049180206	258295.28	647987.2	-0.0005762622
0	0.64677066	0.6480211	-3.2484623e-10	0.06363964	0.06363964	0	113397.086	113616.336	-5.7612535e-05	647465.3	259130.47	-0.00029646684	258013.62	648099.1	-0.00017352347
0	0.6466486	0.64790404	-3.9267709e-10	0.06349811	0.06349811	0	113375.664	113595.8	-6.9125366e-05	647574.1	258855.6	-0.00028376252	257733.73	648210.06	-0.0002950827
0	0.64652604	0.64778686	-1.06750185e-10	0.06335685	0.06335685	0	113354.2	113575.26	-1.8540211e-05	647683	258580.4	-0.00013500394	257453.4	648321.2	-7.794153e-06
0	0.64640206	0.6476681	-2.628022e-10	0.06321528	0.06321528	0	113332.46	113554.43	-5.1080035e-05	647793.1	258301.98	-0.00023722237	257169.88	648433.4	-0.000169728
0	0.6462799	0.64755136	1.2738528e-10	0.063074	0.063074	0	113311.04	113533.96	2.2759154e-05	647901.25	258028.03	1.6379121e-05	256890.62	648543.8	0.00016948927
0	0.6461553	0.6474316	-4.2336804e-10	0.0629325	0.0629325	0	113289.18	113512.98	-7.412216e-05	648011.56	257748.14	-0.00029357302	256605.78	648656.1	-0.00031883206
0	0.64603096	0.6473128	-2.854425e-10	0.06279099	0.06279099	0	113267.39	113492.14	-5.1275583e-05	648121.06	257469.89	-0.0002749022	256322.12	648768	-0.00014366473
0	0.6459071	0.6471942	-3.083368e-10	0.06264971	0.06264971	0	113245.67	113471.336	-5.2811523e-05	648230.25	257192.42	-0.00030598362	256039.52	648879.4	-0.00013176414
0	0.6457824	0.64707494	-5.986998e-10	0.0625082	0.0625082	0	113223.805	113450.44	-0.00010640387	648339.7	256913.83	-0.0005179313	255755.56	648991	-0.0003640495
0	0.6456563	0.6469543	-3.429464e-10	0.062366873	0.062366873	0	113201.7	113429.29	-5.8022782e-05	648450.3	256632.1	-0.0002860688	255468.52	649103.94	-0.0001803216
0	0.6455311	0.64683473	-3.2223726e-10	0.062225346	0.062225346	0	113179.76	113408.3	-5.740692e-05	648559.8	256352.81	-0.00033173437	255183.8	649215.75	-0.00013500778
0	0.6454054	0.6467144	-5.0505145e-10	0.062084075	0.062084075	0	113157.72	113387.22	-8.934434e-05	648669.5	256072.44	-0.00051078567	254898.11	649327.6	-0.00020109616
0	0.6452793	0.6465936	-8.850514e-11	0.06194257	0.06194257	0	113135.62	113366.03	-1.81665e-05	648779.44	255791.19	-3.7316106e-05	254611.53	649439.75	-0.00010484166
0	0.6451531	0.6464726	-2.3088259e-10	0.061801057	0.061801057	0	113113.484	113344.81	-3.963148e-05	648889.2	255509.95	-0.00026135496	254325.2	649551.56	-8.534802e-05
0	0.6450253	0.64634997	-2.5261343e-10	0.061659787	0.061659787	0	113091.06	113323.32	-4.4934466e-05	649000.1	255225.16	-0.00024435206	254035.2	649664.8	-8.908761e-05
0	0.64489776	0.646228	-2.960533e-11	0.061518222	0.061518222	0	113068.72	113301.96	-4.1349977e-06	649110.6	254941.75	0.00018993506	253746.23	649777.44	-0.00017400229
0	0.64477056	0.64610654	-5.7084887e-10	0.061376926	0.061376926	0	113046.414	113280.66	-9.951196e-05	649220.5	254659.48	-0.00039590563	253458.28	649889.75	-0.0004092549
0	0.64464206	0.6459833	-8.313594e-11	0.061235435	0.061235435	0	113023.875	113259.055	-1.3654856e-05	649331.4	254373.92	7.2838804e-05	253167.53	650002.7	-0.00015941451
0	0.6445141	0.64586115	-3.128032e-10	0.06109393	0.06109393	0	113001.43	113237.63	-5.5656565e-05	649441.44	254090.42	-0.00021658147	252878.25	650115.25	-0.00024938615
0	0.6443855	0.64573824	-2.6211655e-10	0.06095266	0.06095266	0	112978.91	113216.06	-4.103972e-05	649551.8	253805.6	-0.00019007549	252587.92	650227.9	-0.00014463681
0	0.6442566	0.6456148	-5.319275e-10	0.060811136	0.060811136	0	112956.305	113194.43	-9.184306e-05	649662.25	253520.11	-0.00038941015	252296.98	650340.56	-0.0003897714
0	0.644127	0.6454909	-3.985289e-10	0.060669802	0.060669802	0	112933.586	113172.7	-6.92965e-05	649773	253233.58	-0.0003884443	252004.81	650453.75	-0.00017480804
0	0.64399713	0.64536667	-4.1596418e-10	0.060528312	0.060528312	0	112910.81	113150.914	-7.007088e-05	649883.9	252946.5	-0.00027113702	251712.22	650566.75	-0.00030730205
0	0.6438672	0.6452421	-4.1713277e-10	0.060387015	0.060387015	0	112888.02	113129.086	-7.561054e-05	649994.56	252659.17	-0.00029298232	251419.47	650679.6	-0.00031413476
0	0.64373595	0.64511627	-3.503233e-10	0.06024551	0.06024551	0	112865.01	113107.016	-6.117274e-05	650106.2	252369.27	-0.000286735	251124.08	650793.44	-0.0001966178
0	0.6436058	0.64499205	-2.5878005e-10	0.06010401	0.06010401	0	112842.23	113085.25	-4.5164452e-05	650216.4	252082.83	-0.00016860825	250831.88	650906	-0.00018852216
0	0.6434741	0.6448655	-1.1291605e-10	0.059962716	0.059962716	0	112819.086	113063.06	-2.2167489e-05	650328	251791.94	-0.000113413	250535.64	651019.8	-5.0652376e-05
0	0.64334303	0.6447407	1.4428742e-10	0.059821162	0.059821162	0	112796.125	113041.18	2.6646778e-05	650438.7	251504.08	0.00013777964	250241.72	651132.8	0.00011453487
0	0.64321065	0.6446135	-5.128276e-10	0.059679877	0.059679877	0	112772.93	113018.9	-8.848728e-05	650550.1	251212.48	-0.0002597173	249944.88	651246.5	-0.00044594723
0	0.64307815	0.64448696	-2.808413e-10	0.059538364	0.059538364	0	112749.69	112996.7	-4.981547e-05	650661.56	250921.45	-0.00019194152	249647.9	651360.25	-0.0002201259
0	0.6429452	0.6443599	-1.7419693e-10	0.059396874	0.059396874	0	112726.37	112974.42	-3.183678e-05	650773.1	250629.53	-0.00017196983	249350.06	651474.4	-6.719821e-05
0	0.64281285	0.64423317	-3.1299718e-10	0.05925559	0.05925559	0	112703.18	112952.21	-5.483408e-05	650883.94	250339.19	-0.00020979189	249054.14	651587.25	-0.00022906721
0	0.6426785	0.6441044	-1.0070095e-10	0.05911408	0.05911408	0	112679.62	112929.625	-1.9922558e-05	650996.1	250044.34	-7.397745e-05	248753.69	651701.9	-8.5818705e-05
0	0.64254475	0.64397675	1.1947493e-10	0.05897274	0.05897274	0	112656.16	112907.234	1.8761755e-05	651107.7	249751.69	-0.00011366155	248454.94	651815.8	0.00028104708
0	0.64241034	0.64384854	-4.867756e-10	0.05883124	0.05883124	0	112632.62	112884.76	-8.534531e-05	651219.5	249458	-0.00037522145	248155.12	651929.9	-0.00031786357
0	0.642276	0.64372	-9.2926784e-11	0.05868994	0.05868994	0	112609.07	112862.22	-1.7305212e-05	651330.94	249164.23	-0.000102802755	247855.62	652043.7	-2.0020914e-05
0	0.6421409	0.64359057	-5.2794796e-10	0.058548454	0.058548454	0	112585.35	112839.516	-9.102087e-05	651442.94	248868.73	-0.00034377907	247554.27	652158	-0.0004427426
0	0.6420058	0.64346135	-5.535853e-11	0.058406953	0.058406953	0	112561.67	112816.88	-1.05261915e-05	651554.56	248573.9	-0.00028354555	247253.45	652271.94	0.00022112363
0	0.6418695	0.643331	-1.7947525e-10	0.05826566	0.05826566	0	112537.766	112794.01	-2.8173463e-05	651667	248276.53	-0.00019599416	246950.23	652386.75	-3.563711e-05
0	0.64173394	0.6432013	-6.258825e-10	0.05812409	0.05812409	0	112514	112771.28	-0.000108632805	651778.56	247981.19	-0.00042953325	246648.9	652500.7	-0.00046075913
0	0.64159715	0.6430706	-4.785594e-10	0.057982814	0.057982814	0	112490.03	112748.36	-8.4527164e-05	651890.8	247683.56	-0.00037733756	246345.27	652615.25	-0.0003151162
0	0.64146024	0.6429396	-3.531765e-10	0.05784131	0.05784131	0	112466.04	112725.41	-6.1386294e-05	652002.94	247385.69	-0.00026607353	246041.4	652729.8	-0.00023487446
0	0.6413226	0.64280766	-2.8503744e-10	0.057699807	0.057699807	0	112441.89	112702.26	-5.191367e-05	652115.56	247086.1	-0.0002843121	245736.02	652844.56	-0.00013360745
0	0.64118516	0.6426766	-1.2005792e-10	0.05755853	0.05755853	0	112417.805	112679.28	-1.8431865e-05	652227.7	246788.03	3.425068e-05	245431.58	652959.25	-0.00018645736
0	0.64104694	0.6425444	-2.9529348e-10	0.057417024	0.057417024	0	112393.56	112656.1	-5.3110423e-05	652340.2	246488.06	-0.0001816581	245125.5	653074.1	-0.00023969986
0	0.6409082	0.64241177	-1.9905771e-10	0.057275668	0.057275668	0	112369.22	112632.85	-3.5231405e-05	652452.94	246187.27	-0.00026026063	244818.4	653189.25	-3.605118e-05
0	0.64076936	0.64227873	-3.5360595e-10	0.05713418	0.05713418	0	112344.9	112609.54	-6.171093e-05	652565.44	245886.34	-0.00019769759	244511.69	653304	-0.0002941793
0	0.64063054	0.6421463	-3.8517142e-10	0.056992885	0.056992885	0	112320.57	112586.31	-6.946654e-05	652677.56	245586.27	-0.00027818242	244205.25	653418.56	-0.00028438843
0	0.6404903	0.6420118	-4.664918e-10	0.056851383	0.056851383	0	112295.96	112562.72	-7.893739e-05	652790.9	245282.47	-0.00043512843	243895.53	653534.1	-0.00023826558
0	0.64035016	0.6418779	-8.913582e-11	0.056709897	0.056709897	0	112271.39	112539.25	-1.4048478e-05	652903.7	244979.8	-0.00019423732	243586.61	653649.4	5.8384292e-05
0	0.64021	0.64174414	-2.2919781e-10	0.0565686	0.0565686	0	112246.805	112515.79	-3.7069556e-05	653016.3	244677.3	-0.00019315263	243277.6	653764.4	-0.00010585339
0	0.64006853	0.641609	-4.0783715e-10	0.056427035	0.056427035	0	112222.016	112492.1	-7.6477874e-05	653129.56	244372.45	-0.000318563	242966.34	653880.2	-0.0002842576
0	0.63992816	0.6414747	-5.071993e-10	0.056285743	0.056285743	0	112197.41	112468.55	-8.837823e-05	653241.94	244069.8	-0.00018639203	242657.53	653994.8	-0.0005426861
0	0.6397857	0.6413382	-2.1703321e-10	0.05614425	0.05614425	0	112172.445	112444.625	-3.6115012e-05	653355.56	243762.75	-0.0002796897	242344.47	654110.75	-2.109283e-05
0	0.63964427	0.64120317	-2.0911253e-10	0.05600275	0.05600275	0	112147.63	112420.93	-3.5231526e-05	653468.2	243458.52	-8.80485e-05	242033.8	654225.9	-0.00020654738
0	0.63950104	0.64106584	-5.3439664e-10	0.05586146	0.05586146	0	112122.516	112396.88	-9.238855e-05	653582	243150.28	-0.00034404974	241719.39	654341.94	-0.00044021505
0	0.6393579	0.64092916	-2.1371069e-10	0.055719968	0.055719968	0	112097.42	112372.914	-3.7094105e-05	653695.5	242842.98	-0.00019656168	241405.58	654457.8	-0.000111936424
0	0.6392151	0.64079314	-2.0037276e-10	0.055578675	0.055578675	0	112072.39	112349.07	-3.7946575e-05	653808.4	242537.14	-0.00020715939	241092.86	654573.4	-9.282932e-05
0	0.6390714	0.6406556	-1.701855e-10	0.055437125	0.055437125	0	112047.195	112324.945	-2.976176e-05	653921.75	242228.83	-0.00028098308	240778.23	654689.06	3.980005e-05
0	0.63892746	0.64051807	-1.2797625e-10	0.05529581	0.05529581	0	112021.95	112300.83	-2.2403328e-05	654035.1	241920.44	9.396002e-05	240463.28	654804.9	-0.0002524032
0	0.63878286	0.64037985	-2.8891334e-10	0.055154327	0.055154327	0	111996.6	112276.6	-5.014496e-05	654148.6	241611.02	-0.00016049852	240147.34	654920.8	-0.00024040083
0	0.63863724	0.64024067	-6.5230304e-10	0.055012826	0.055012826	0	111971.07	112252.19	-0.00011396799	654262.8	241299.53	-0.00040687004	239829.39	655037.4	-0.0005021719
0	0.63849247	0.64010245	2.42148e-10	0.05487153	0.05487153	0	111945.695	112227.96	4.0031853e-05	654375.94	240990.36	0.00020286003	239513.53	655152.94	0.00015469709
0	0.6383465	0.63996255	-5.0766497e-10	0.054730047	0.054730047	0	111920.09	112203.42	-9.333007e-05	654489.8	240678.27	-0.0004259289	239195.22	655269.2	-0.00031304383
0	0.63820004	0.6398225	-2.1677338e-10	0.054588683	0.054588683	0	111894.4	112178.89	-3.8399183e-05	654603.9	240365.88	-0.00015169082	238876.16	655385.7	-0.0001562273
0	0.63805366	0.6396829	-3.5671188e-10	0.05444718	0.05444718	0	111868.75	112154.41	-6.126732e-05	654717.56	240054.22	-0.00027074857	238557.55	655501.9	-0.00022409252
0	0.63790697	0.6395426	-3.9820724e-10	0.0543059	0.0543059	0	111843.02	112129.79	-7.0284594e-05	654831.2	239741.6	-0.00032445684	238238.45	655617.94	-0.00026171317
0	0.6377584	0.63940024	-5.295809e-10	0.054164402	0.054164402	0	111816.984	112104.84	-9.289001e-05	654946.06	239425.2	-0.0003477695	237915.64	655735.25	-0.00038961248
0	0.63761145	0.6392602	-6.457346e-10	0.054022897	0.054022897	0	111791.23	112080.3	-0.00011324515	655059.44	239113.28	-0.00054167636	237596.67	655851.06	-0.00040582506
0	0.6374627	0.6391177	-6.333825e-10	0.053881615	0.053881615	0	111765.13	112055.31	-0.00011121037	655174	238796.84	-0.0005003992	237273.75	655967.94	-0.00042030384
0	0.6373135	0.63897496	-1.872373e-10	0.053740054	0.053740054	0	111738.96	112030.29	-3.175261e-05	655288.56	238480.06	-0.0002447134	236950.28	656084.94	-6.495902e-06
0	0.6371645	0.63883317	-1.3412822e-10	0.05359875	0.05359875	0	111712.85	112005.414	-2.3589104e-05	655402.6	238164.78	-0.00011220701	236627.72	656201.7	-5.970617e-05
0	0.63701427	0.63868934	-1.4597372e-10	0.053457268	0.053457268	0	111686.53	111980.2	-2.5077343e-05	655517.4	237846.3	-6.7024564e-05	236302.66	656318.75	-0.00010869427
0	0.6368651	0.6385471	-1.8443165e-10	0.05331579	0.05331579	0	111660.37	111955.27	-3.2229334e-05	655631.1	237530.98	-9.396421e-05	235980.12	656435	-0.00016426331
0	0.6367134	0.63840187	-3.4858438e-10	0.05317447	0.05317447	0	111633.76	111929.79	-5.944616e-05	655746.56	237209.7	-0.00025628664	235652.23	656552.9	-0.00023185617
0	0.63656324	0.6382586	-1.2764637e-10	0.053032987	0.053032987	0	111607.44	111904.67	-2.4954063e-05	655860.44	236892.69	-0.00010698092	235328.11	656669.4	-7.203778e-05
0	0.636412	0.6381143	-2.546587e-10	0.052891623	0.052891623	0	111580.93	111879.375	-4.320449e-05	655975	236573.64	-0.000175236	235001.9	656786.3	-0.00019304155
0	0.6362599	0.6379683	-4.3896678e-10	0.05275012	0.05275012	0	111554.26	111853.79	-7.3994095e-05	656089.9	236252.12	-0.00043472534	234674	656903.5	-0.0001564131
0	0.63610756	0.6378233	-6.0285325e-11	0.05260882	0.05260882	0	111527.555	111828.38	-1.6193702e-05	656204.6	235931.77	-9.1401555e-05	234346.11	657020.94	-2.7817394e-05
0	0.6359554	0.637678	-2.501058e-10	0.052467342	0.052467342	0	111500.88	111802.89	-4.067111e-05	656319.1	235611.3	-0.00019451979	234018.53	657137.94	-0.00013623458
0	0.6358019	0.6375307	-5.879019e-11	0.05232584	0.05232584	0	111473.95	111777.07	-7.6001343e-06	656434.2	235287.77	-0.00023939794	233688.52	657255.3	0.00017623087
0	0.63564813	0.63738376	2.2883025e-11	0.052184545	0.052184545	0	111446.99	111751.3	1.9442132e-06	656549.25	234964.39	0.000101018195	233358.08	657372.9	-5.062952e-05
0	0.6354944	0.63723755	-7.558532e-11	0.052042995	0.052042995	0	111420.05	111725.664	-1.5199889e-05	656663.94	234642.28	-0.00013241955	233028.25	657490.25	2.952756e-05
0	0.63534045	0.6370903	-1.4398498e-10	0.051901676	0.051901676	0	111393.05	111699.86	-2.5162466e-05	656778.6	234319.1	-0.0001296836	232698	657607.44	-5.939011e-05
0	0.63518417	0.63694054	-1.3264866e-10	0.051760197	0.051760197	0	111365.65	111673.586	-2.4289046e-05	656894.8	233990.9	-0.00021151226	232363.02	657725.9	4.4163986e-05
0	0.63502955	0.63679326	-2.6025182e-10	0.051618718	0.051618718	0	111338.555	111647.77	-4.89957e-05	657009.44	233667.45	-0.0003718855	232031.95	657843.2	-1.8722625e-05
0	0.63487357	0.63664454	-3.241337e-10	0.05147742	0.05147742	0	111311.2	111621.69	-5.613032e-05	657124.6	233341.3	-0.00033591312	231698.4	657961	-0.0001101075
0	0.63471806	0.6364957	-5.456438e-10	0.05133593	0.05133593	0	111283.92	111595.6	-9.331771e-05	657239.5	233015.78	-0.0003942003	231365.73	658078.25	-0.0003543996
0	0.63456064	0.63634485	-4.4387766e-10	0.051194552	0.051194552	0	111256.33	111569.16	-7.690802e-05	657355.3	232686.45	-0.0004508014	231029.58	658196.44	-0.00019647898
0	0.6344032	0.636195	-1.5046193e-10	0.051053073	0.051053073	0	111228.72	111542.88	-2.371779e-05	657470.94	232358.27	-0.00020989703	230693.56	658314.7	6.0950676e-08
0	0.634245	0.63604325	-1.0206858e-10	0.05091175	0.05091175	0	111200.98	111516.28	-1.67022e-05	657586.75	232027.77	-5.920482e-05	230356.17	658432.9	-5.488204e-05
0	0.6340879	0.6358939	-4.6505436e-10	0.05077028	0.05077028	0	111173.445	111490.08	-8.32786e-05	657701.5	231701.12	-0.00041070388	230021.64	658550.25	-0.0002721661
0	0.6339282	0.63574094	-1.9400105e-10	0.050628807	0.050628807	0	111145.445	111463.26	-3.5807323e-05	657818.06	231368.06	-0.00021632956	229681.47	658669.1	-5.8832855e-05
0	0.63377005	0.6355902	-7.548316e-10	0.050487485	0.050487485	0	111117.73	111436.83	-0.00013413845	657932.9	231039.44	-0.0007228777	229345.14	658786.75	-0.00040435063
0	0.63361037	0.6354377	-7.182889e-11	0.05034594	0.05034594	0	111089.71	111410.11	-1.7157812e-05	658048.7	230707.67	-0.00012928712	229005.78	658905.1	2.8602555e-05
0	0.6334504	0.6352849	-3.5366937e-10	0.050204627	0.050204627	0	111061.67	111383.33	-5.926089e-05	658164.56	230375.58	-0.00019391549	228666.06	659023.4	-0.00030103928
0	0.6332906	0.63513225	-1.5567582e-10	0.050063137	0.050063137	0	111033.65	111356.55	-2.8178554e-05	658279.8	230043.94	-0.00016804681	228327.02	659141.2	-5.893148e-05
0	0.63312817	0.6349766	-7.2817485e-10	0.049921665	0.049921665	0	111005.17	111329.26	-0.00012565748	658396.9	229706.67	-0.00051339675	227982.58	659260.56	-0.0005466868
0	0.6329676	0.6348235	-6.311715e-10	0.04978036	0.04978036	0	110977.02	111302.41	-0.000110641195	658512.2	229374.34	-0.00055490114	227642.52	659378.5	-0.00038894574
0	0.6328058	0.63466924	-4.1708945e-10	0.049638864	0.049638864	0	110948.66	111275.36	-7.177835e-05	658628.06	229039.83	-0.00034036505	227300.06	659497	-0.0002463462
0	0.6326441	0.6345146	-6.2295474e-10	0.049497493	0.049497493	0	110920.305	111248.27	-0.00011066866	658743.6	228705.36	-0.0005434887	226958.08	659615.1	-0.000340113
0	0.6324798	0.63435733	-1.3056772e-10	0.049356014	0.049356014	0	110891.484	111220.69	-2.2499982e-05	658860.8	228365.64	-6.30429e-05	226610.94	659734.6	-0.00011156931
0	0.63231695	0.63420206	-4.9471727e-10	0.049214687	0.049214687	0	110862.96	111193.445	-8.801338e-05	658976.6	228029.73	-0.00040528082	226267.17	659853.06	-0.00029750713
0	0.6321534	0.634046	-7.2665055e-11	0.049073216	0.049073216	0	110834.27	111166.11	-1.2676093e-05	659092.7	227692.72	-4.3658918e-05	225922.03	659971.8	-2.5674453e-05
0	0.63198936	0.63388956	-3.9207368e-10	0.04893174	0.04893174	0	110805.49	111138.67	-7.010598e-05	659208.8	227354.84	-0.00039007296	225576.3	660090.44	-0.0001753356
0	0.6318242	0.6337316	-3.73264e-10	0.04879043	0.04879043	0	110776.555	111110.97	-6.445351e-05	659325.4	227014.7	-0.00024277397	225228.52	660209.6	-0.00027943854
0	0.63165927	0.63357425	-1.8404885e-10	0.048648868	0.048648868	0	110747.65	111083.375	-3.3849486e-05	659441.56	226675.67	-0.00019081876	224881.52	660328.25	-8.1048216e-05
0	0.63149345	0.63341576	-1.57385e-10	0.048507564	0.048507564	0	110718.56	111055.586	-2.873301e-05	659558.06	226334.8	-9.536483e-05	224532.78	660447.3	-0.00013167762
0	0.6313269	0.6332566	-1.8343672e-10	0.04836608	0.04836608	0	110689.36	111027.7	-3.279252e-05	659674.75	225992.75	-6.0302387e-05	224182.92	660566.56	-0.00021944496
0	0.63116074	0.63309795	-5.000463e-10	0.048224606	0.048224606	0	110660.23	110999.88	-9.186513e-05	659790.94	225651.89	-0.0003356485	223834.11	660685.25	-0.00039946273
0	0.6309933	0.63293767	-6.5368466e-10	0.04808329	0.04808329	0	110630.87	110971.77	-0.00011494876	659907.6	225308.42	-0.00049954624	223482.89	660804.5	-0.00046046282
0	0.6308249	0.63277674	-4.1819423e-10	0.047941808	0.047941808	0	110601.34	110943.55	-7.5134e-05	660024.8	224963.34	-0.00033996647	223130.06	660924.06	-0.00026979196
0	0.6306572	0.63261694	-3.2104142e-10	0.047800418	0.047800418	0	110571.945	110915.54	-5.7836343e-05	660141.1	224620.62	-0.00028862213	222778.92	661043.06	-0.00017898108
0	0.6304895	0.6324571	-4.1639692e-10	0.047658958	0.047658958	0	110542.555	110887.53	-7.187433e-05	660257.06	224278.33	-0.00043339096	222428.3	661161.7	-0.00017706786
0	0.63031894	0.63229376	-3.9724737e-10	0.047517624	0.047517624	0	110512.65	110858.88	-7.142398e-05	660374.8	223929.42	-0.00038958396	222071.75	661281.9	-0.00018091369
0	0.6301499	0.63213235	-5.817689e-10	0.047376156	0.047376156	0	110482.99	110830.586	-0.000101396785	660491.25	223584.48	-0.00059318426	221718.55	661400.8	-0.00025829216
0	0.62997943	0.6319701	-3.927179e-10	0.047234684	0.047234684	0	110453.11	110802.125	-6.645088e-05	660608.25	223237.55	-0.00039320957	221362.95	661520.6	-0.00016530382
0	0.6298093	0.63180774	-1.561615e-10	0.047093358	0.047093358	0	110423.3	110773.664	-2.7656071e-05	660724.75	222891.2	-0.00023486762	221008.38	661639.56	2.0250305e-05
0	0.62963706	0.63164264	-4.766453e-10	0.04695181	0.04695181	0	110393.08	110744.72	-8.372529e-05	660842.4	222540.05	-0.00023152378	220649.48	661759.56	-0.0004528299
0	0.629466	0.6314799	-3.4605654e-10	0.046810493	0.046810493	0	110363.09	110716.18	-6.10068e-05	660959.06	222192.77	-0.00033291226	220293.3	661879.06	-0.00015904751
0	0.6292946	0.631316	-2.117875e-10	0.046669014	0.046669014	0	110333.03	110687.44	-3.6106863e-05	661075.6	221844.23	-0.00012142716	219936.75	661998.06	-0.00018715166
0	0.62912065	0.63114935	-4.762206e-10	0.046527706	0.046527706	0	110302.55	110658.24	-8.4107734e-05	661193.5	221490.73	-0.000293032	219575.34	662118.4	-0.0003913943
0	0.62894803	0.630985	-3.216958e-10	0.046386234	0.046386234	0	110272.27	110629.42	-5.543246e-05	661310.2	221141.22	-0.00030153315	219217	662237.9	-0.00014615913
0	0.6287738	0.6308186	-2.949852e-10	0.046244755	0.046244755	0	110241.73	110600.26	-5.242074e-05	661427.75	220788.2	-0.00032827698	218855.53	662357.94	-8.513664e-05
0	0.62859976	0.63065267	-2.7558741e-10	0.046103433	0.046103433	0	110211.2	110571.15	-4.68916e-05	661544.8	220436.11	-0.0002076256	218494.77	662477.6	-0.00016880101
0	0.62842536	0.630486	7.321375e-12	0.045961887	0.045961887	0	110180.625	110541.94	1.2808256e-06	661661.9	220083.22	2.9945552e-06	218133.56	662597.2	3.737574e-05
0	0.6282503	0.63031846	-2.4796726e-10	0.045820557	0.045820557	0	110149.945	110512.57	-4.2164425e-05	661778.94	219729.2	-0.00025350138	217771.39	662716.7	-7.608628e-05
0	0.62807363	0.63014984	-1.2024624e-10	0.0456791	0.0456791	0	110118.984	110482.99	-2.2282034e-05	661896.9	219372.62	-0.00017789824	217406.28	662837.2	-5.840883e-06
0	0.6278978	0.62998253	-2.8337507e-10	0.045537632	0.045537632	0	110088.16	110453.65	-5.0278126e-05	662013.9	219018.62	-0.00027469025	217043.16	662956.94	-0.00014576579
0	0.6277207	0.6298128	-2.1631893e-10	0.0453963	0.0453963	0	110057.11	110423.9	-3.7493846e-05	662131.44	218660.95	-7.761243e-05	216677.58	663076.8	-0.00023657092
0	0.6275428	0.6296429	1.4906975e-11	0.04525483	0.04525483	0	110025.91	110394.1	6.4100063e-06	662249.4	218302.7	-8.420757e-05	216310.55	663197.3	0.00014478306