# t (s)	mx ()	my ()	mz ()	B_extx (T)	B_exty (T)	B_extz (T)	m_fullx (A/m)	m_fully (A/m)	m_fullz (A/m)	m_full.region1x (A/m)	m_full.region1y (A/m)	m_full.region1z (A/m)	m_full.region2x (A/m)	m_full.region2y (A/m)	m_full.region2z (A/m)
0	0.6551377	0.65513664	-5.025216e-10	0.070710756	0.070710756	0	108412.81	108412.66	-7.958477e-05	619783.06	297409.06	-0.00040983607	297409.66	619782.4	-0.00032201406
0	0.65505445	0.65505373	-2.2334293e-10	0.07056913	0.07056913	0	108399.05	108398.914	-4.1522493e-05	619856.25	297219.44	-0.00026346603	297219.97	619855.7	-0.00010245902
0	0.65496635	0.6549656	1.3958933e-10	0.07042789	0.07042789	0	108384.47	108384.34	2.4221454e-05	619936.44	297015.97	0.00011709602	297016.44	619935.9	5.854801e-05
0	0.6548784	0.6548775	-2.7917865e-10	0.07028644	0.07028644	0	108369.88	108369.766	-5.1903113e-05	620016.6	296812.53	-0.00021955503	296813.03	620016	-0.00021955503
0	0.6547902	0.6547895	-1.11671464e-10	0.07014497	0.07014497	0	108355.33	108355.195	-2.0761247e-05	620096	296609.84	-0.00014637002	296610.28	620095.4	-2.9274004e-05
0	0.65470123	0.65470046	-3.9085013e-10	0.07000352	0.07000352	0	108340.6	108340.47	-5.882353e-05	620176.3	296404.97	-0.00017564403	296405.44	620175.75	-0.00032201406
0	0.6546127	0.6546119	-3.6293227e-10	0.06986227	0.06986227	0	108325.94	108325.805	-5.882353e-05	620256.3	296200.97	-0.00020491803	296201.44	620255.6	-0.00030737705
0	0.6545239	0.6545231	2.7917866e-11	0.069720656	0.069720656	0	108311.234	108311.125	1.384083e-05	620335.8	295997.16	5.854801e-05	295997.66	620335.2	-3.6592504e-05
0	0.6544348	0.6544339	-2.512608e-10	0.06957922	0.06957922	0	108296.5	108296.37	-3.114187e-05	620415.8	295792.34	-0.00019028103	295792.84	620415.2	-8.7822016e-05
0	0.6543453	0.65434444	-2.7917865e-10	0.06943796	0.06943796	0	108281.68	108281.54	-5.882353e-05	620495.7	295587.12	-0.00014637002	295587.62	620495	-0.00035128806
0	0.6542553	0.65425444	-5.025216e-10	0.06929647	0.06929648	0	108266.79	108266.664	-8.650519e-05	620576.6	295380.22	-0.00038056207	295380.72	620576	-0.00038056207
0	0.65416586	0.65416497	1.11671464e-10	0.069155045	0.069155045	0	108251.984	108251.87	1.384083e-05	620656.94	295174.72	-2.9274004e-05	295175.12	620656.3	0.00016100703
0	0.6540758	0.6540749	-5.5835732e-11	0.0690136	0.0690136	0	108237.09	108236.95	-3.4602076e-06	620737.2	294968.34	1.4637002e-05	294968.84	620736.56	-7.318501e-06
0	0.6539858	0.653985	-5.583573e-10	0.06887216	0.06887216	0	108222.19	108222.06	-8.3044986e-05	620817.44	294762.16	-0.00029274003	294762.66	620816.8	-0.00043911007
0	0.65389574	0.65389496	-3.9085013e-10	0.068730734	0.068730734	0	108207.305	108207.17	-5.536332e-05	620897.5	294556.12	-0.00026346603	294556.6	620896.9	-0.00024882905
0	0.6538037	0.6538029	-5.583573e-10	0.068589285	0.068589285	0	108192.07	108191.93	-9.6885815e-05	620978.56	294346	-0.00032201406	294346.53	620977.94	-0.00042447308
0	0.65371376	0.65371287	-5.025216e-10	0.06844799	0.06844799	0	108177.18	108177.05	-8.650519e-05	621059.25	294139.53	-0.00026346603	294140	621058.5	-0.00036592505
0	0.6536226	0.65362185	-1.9542507e-10	0.06830654	0.06830654	0	108162.1	108161.98	-2.768166e-05	621139.75	293931.47	0	293931.94	621139.1	-0.00027078454
0	0.653532	0.6535312	5.5835732e-11	0.06816512	0.06816512	0	108147.11	108146.97	0	621219.8	293724.44	8.7822016e-05	293724.97	621219.25	-8.7822016e-05
0	0.65343976	0.6534389	-2.7917866e-11	0.06802368	0.06802368	0	108131.86	108131.72	-3.4602076e-06	621300.9	293514.3	0	293514.8	621300.25	-0.00010245902
0	0.65334904	0.6533481	-3.350144e-10	0.06788223	0.06788223	0	108116.81	108116.69	-5.1903113e-05	621381.25	293306.72	-0.00023419203	293307.22	621380.6	-0.00026346603
0	0.65325606	0.65325516	2.7917866e-11	0.06774082	0.06774082	0	108101.44	108101.305	6.920415e-06	621462.25	293095.7	4.3911008e-05	293096.22	621461.5	-4.3911008e-05
0	0.6531639	0.6531631	-2.512608e-10	0.06759933	0.06759933	0	108086.195	108086.06	-3.8062284e-05	621543.56	292885.47	-0.00029274003	292885.97	621542.9	-2.9274004e-05
0	0.6530722	0.6530713	-4.7460375e-10	0.06745807	0.06745807	0	108071.01	108070.875	-8.650519e-05	621624.5	292676.03	-0.00029274003	292676.53	621623.9	-0.0004903396
0	0.65298	0.65297914	-5.025216e-10	0.067316614	0.067316614	0	108055.75	108055.625	-7.266436e-05	621705.2	292466.28	-0.00029274003	292466.8	621704.5	-0.00042447308
0	0.6528868	0.65288603	2.7917865e-10	0.06717501	0.06717501	0	108040.336	108040.2	4.8442907e-05	621786.5	292254.5	0.00017564403	292254.97	621785.94	0.00017564403
0	0.6527937	0.65279293	-3.0709654e-10	0.06703377	0.06703377	0	108024.945	108024.805	-4.8442907e-05	621867.5	292043.25	-0.00011709602	292043.75	621866.9	-0.00030005854
0	0.6527007	0.6526999	-1.675072e-10	0.06689231	0.0668923	0	108009.54	108009.42	-3.4602075e-05	621948.6	291831.84	-0.00017564403	291832.34	621948.1	-4.3911008e-05
0	0.65260756	0.6526066	-1.11671464e-10	0.066750854	0.066750854	0	107994.125	107993.98	-1.5570935e-05	622029.9	291620	-5.854801e-05	291620.53	622029.3	1.4637002e-05
0	0.6525142	0.65251344	8.37536e-11	0.06660941	0.066609405	0	107978.695	107978.56	3.4602076e-06	622110.8	291408.6	1.4637002e-05	291409.12	622110.2	8.7822016e-05
0	0.6524203	0.65241957	-6.700288e-10	0.06646814	0.06646814	0	107963.164	107963.016	-0.00010726644	622192.25	291195.78	-0.00040983607	291196.3	622191.56	-0.00048302108
0	0.6523262	0.65232533	-1.11671464e-10	0.06632655	0.06632654	0	107947.57	107947.44	-1.25432525e-05	622273.8	290982.38	0	290982.9	622273.1	-0.00017564403
0	0.6522319	0.65223104	-2.7917865e-10	0.0661851	0.066185094	0	107931.96	107931.836	-3.114187e-05	622355.3	290768.75	-0.00017564403	290769.28	622354.7	-0.00012441452
0	0.6521376	0.6521368	-1.9542507e-10	0.06604383	0.06604383	0	107916.37	107916.22	-3.8062284e-05	622436.75	290555.38	-0.00023419203	290555.94	622436.06	-7.318501e-05
0	0.65204334	0.65204257	-3.6293227e-10	0.06590232	0.06590232	0	107900.766	107900.62	-5.7958478e-05	622517.9	290342.25	-0.00020491803	290342.75	622517.2	-0.00030737705
0	0.6519479	0.6519471	-5.5835732e-11	0.06576094	0.06576094	0	107884.96	107884.83	-6.920415e-06	622599.3	290127.12	-2.9274004e-05	290127.7	622598.7	-5.854801e-05
0	0.65185267	0.6518519	-8.37536e-11	0.06561947	0.06561947	0	107869.21	107869.08	-1.384083e-05	622681	289912.28	-8.7822016e-05	289912.8	622680.4	-7.318501e-05
0	0.6517573	0.6517565	-2.512608e-10	0.06547822	0.06547822	0	107853.44	107853.29	-3.1682524e-05	622763.06	289696.72	-0.00020491803	289697.22	622762.4	-0.00019028103
0	0.6516623	0.6516614	-5.583573e-10	0.06533663	0.06533663	0	107837.695	107837.56	-9.6885815e-05	622844.8	289481.75	-0.00036592505	289482.28	622844.2	-0.00045374708
0	0.6515664	0.65156555	-6.700288e-10	0.06519517	0.06519517	0	107821.836	107821.7	-0.00011072664	622926.75	289265.66	-0.00040983607	289266.22	622926.1	-0.00052693207
0	0.6514705	0.6514697	-5.5835732e-11	0.06505391	0.0650539	0	107805.984	107805.84	-1.6219723e-05	623008.5	289049.78	-0.00019028103	289050.3	623007.8	1.4637002e-05
0	0.65137464	0.6513738	0	0.06491239	0.06491239	0	107790.12	107789.97	-6.920415e-06	623090	288833.88	-5.854801e-05	288834.47	623089.4	-2.9274004e-05
0	0.6512779	0.65127695	-2.2334293e-10	0.06477102	0.06477102	0	107774.08	107773.94	-3.8062284e-05	623172.1	288616.3	-8.7822016e-05	288616.84	623171.4	-0.00023419203
0	0.6511809	0.6511801	-3.350144e-10	0.06462957	0.06462957	0	107758.06	107757.914	-5.1038063e-05	623253.6	288399.1	-0.00038056207	288399.7	623253.06	-0.00011709602
0	0.6510844	0.6510836	-5.583573e-10	0.06448808	0.06448808	0	107742.086	107741.94	-8.650519e-05	623336.06	288181.47	-0.00033665105	288182.03	623335.5	-0.00039519905
0	0.6509876	0.6509868	-8.37536e-11	0.064346716	0.064346716	0	107726.055	107725.92	-1.0380623e-05	623418.4	287963.75	-2.9274004e-05	287964.3	623417.7	-7.318501e-05
0	0.6508901	0.65088934	-2.512608e-10	0.064205244	0.064205244	0	107709.93	107709.79	-4.1522493e-05	623500.6	287744.97	-0.00032201406	287745.53	623499.94	-7.318501e-05
0	0.65079266	0.65079176	-1.11671464e-10	0.064063944	0.064063944	0	107693.82	107693.67	-1.7301038e-05	623582.9	287526.38	2.9274004e-05	287526.97	623582.2	-0.00011709602
0	0.65069515	0.65069425	-4.7460375e-10	0.06392247	0.06392247	0	107677.664	107677.516	-7.958477e-05	623665.06	287307.53	-0.00035128806	287308.12	623664.3	-0.00032201406
0	0.6505968	0.650596	-4.7460375e-10	0.063781105	0.063781105	0	107661.4	107661.25	-7.612457e-05	623747.5	287087.53	-0.00020491803	287088.12	623746.8	-0.00046838407
0	0.65049845	0.6504977	-5.5835732e-11	0.06363964	0.06363964	0	107645.12	107644.98	-1.7301038e-05	623829.6	286867.72	0	286868.28	623828.94	-0.00016100703
0	0.65040034	0.65039945	-1.11671464e-10	0.063498154	0.063498154	0	107628.875	107628.73	-1.7301038e-05	623911.56	286648.25	-8.7822016e-05	286648.8	623911	-8.7822016e-05
0	0.65030086	0.65029997	-1.3958933e-10	0.0633568	0.063356794	0	107612.41	107612.266	-1.967993e-05	623994.8	286425.78	-0.00016100703	286426.3	623994.1	-1.4637002e-05
0	0.6502028	0.6502019	-4.4668585e-10	0.06321528	0.06321528	0	107596.19	107596.05	-6.5743945e-05	624077.25	286206.03	-0.00040983607	286206.6	624076.6	-0.00021955503
0	0.6501037	0.6501028	-7.2586454e-10	0.06307401	0.06307401	0	107579.79	107579.64	-0.00012456748	624159.9	285984.75	-0.0004976581	285985.3	624159.25	-0.0005708431
0	0.6500046	0.6500038	-5.025216e-10	0.06293254	0.06293254	0	107563.39	107563.25	-8.650519e-05	624242.1	285763.8	-0.00032201406	285764.38	624241.44	-0.00038056207
0	0.6499045	0.64990366	-1.11671464e-10	0.062790975	0.062790975	0	107546.83	107546.695	-6.920415e-06	624324.44	285541.3	0	285541.88	624323.8	-0.00016283664
0	0.6498042	0.6498033	-6.421109e-10	0.06264971	0.06264971	0	107530.22	107530.06	-0.00011072664	624407.8	285317.4	-0.00046838407	285317.94	624407.1	-0.00043911007
0	0.64970493	0.64970404	-1.3958933e-10	0.06250823	0.06250823	0	107513.79	107513.65	-2.4221454e-05	624490.7	285095.56	-0.00014637002	285096.12	624490.06	-5.854801e-05
0	0.6496047	0.64960384	-4.18768e-10	0.062366836	0.062366836	0	107497.22	107497.08	-6.228374e-05	624573.6	284872.44	-0.00023419203	284872.97	624573	-0.00035128806
0	0.6495044	0.6495035	-5.5835732e-11	0.062225346	0.062225346	0	107480.61	107480.47	-6.920415e-06	624656.2	284649.38	-2.9274004e-05	284649.9	624655.56	-2.9274004e-05
0	0.6494032	0.64940226	-2.7917865e-10	0.062084086	0.062084086	0	107463.87	107463.734	-3.633218e-05	624738.75	284425.22	-0.00014637002	284425.78	624738	-0.00023419203
0	0.6493022	0.6493013	-1.3958933e-10	0.061942536	0.061942536	0	107447.15	107447.01	-2.4221454e-05	624822.1	284200.34	-4.3911008e-05	284200.9	624821.44	-0.00013173302
0	0.64920163	0.6492007	-1.9542507e-10	0.061801046	0.061801046	0	107430.5	107430.36	-3.4602075e-05	624905.1	283976.5	-5.854801e-05	283977.1	624904.4	-0.00023419203
0	0.6490993	0.64909846	-1.11671464e-10	0.061659783	0.06165979	0	107413.58	107413.43	-2.0761247e-05	624988.5	283749.97	-0.00017564403	283750.6	624987.8	0
0	0.64899814	0.64899725	-1.675072e-10	0.061518256	0.061518256	0	107396.85	107396.7	-2.768166e-05	625071.8	283525.1	-0.00011709602	283525.7	625071.1	-0.00010245902
0	0.64889634	0.64889544	-8.37536e-11	0.061376907	0.061376907	0	107380	107379.84	-1.0380623e-05	625154.9	283299.38	-0.00011709602	283299.94	625154.2	-1.4637002e-05
0	0.6487942	0.64879316	-3.0709654e-10	0.061235435	0.061235435	0	107363.086	107362.92	-5.801254e-05	625238.3	283072.9	-0.00023419203	283073.47	625237.6	-0.00026346603
0	0.64869183	0.6486909	-3.350144e-10	0.061093953	0.061093953	0	107346.16	107345.99	-4.1522493e-05	625321.56	282846.4	-0.00021955503	282846.97	625320.8	-0.00016100703
0	0.6485891	0.6485882	-5.3043947e-10	0.06095263	0.06095263	0	107329.16	107329	-7.612457e-05	625404.94	282619.16	-0.00035128806	282619.75	625404.25	-0.00035128806
0	0.64848614	0.64848524	-4.18768e-10	0.060811136	0.060811136	0	107312.12	107311.98	-7.24481e-05	625488.5	282391.53	-0.00029274003	282392.1	625487.9	-0.00029274003
0	0.6483828	0.6483819	-4.18768e-10	0.060669806	0.060669806	0	107295.01	107294.86	-6.920415e-05	625572.1	282163.12	-0.00029274003	282163.75	625571.5	-0.00024882905
0	0.6482799	0.648279	-3.350144e-10	0.060528323	0.060528323	0	107277.99	107277.83	-6.5743945e-05	625655.06	281936.2	-0.00026346603	281936.78	625654.4	-0.00021955503
0	0.64817584	0.64817494	-2.512608e-10	0.06038699	0.06038699	0	107260.77	107260.61	-4.0873703e-05	625738.7	281706.97	-0.00017564403	281707.53	625738	-0.00014637002
0	0.64807266	0.6480717	-3.6293227e-10	0.060245514	0.060245514	0	107243.68	107243.53	-5.882353e-05	625822.25	281478.8	-0.00023419203	281479.38	625821.6	-0.00027078454
0	0.64796776	0.6479668	-2.2334293e-10	0.060104024	0.060104024	0	107226.33	107226.17	-3.8062284e-05	625906.1	281248	-0.00017564403	281248.62	625905.5	-0.00017564403
0	0.6478646	0.6478637	-1.9542507e-10	0.0599627	0.0599627	0	107209.25	107209.1	-3.114187e-05	625989.44	281020.4	-0.00017564403	281020.97	625988.6	-0.00012441452
0	0.64775914	0.6477583	-1.11671464e-10	0.05982116	0.05982116	0	107191.82	107191.67	-2.768166e-05	626073.6	280788.66	-5.854801e-05	280789.25	626072.94	-8.7822016e-05
0	0.6476545	0.64765364	-2.7917865e-10	0.059679892	0.059679892	0	107174.49	107174.34	-4.49827e-05	626157.7	280558	-0.00026346603	280558.62	626156.94	-0.00010245902
0	0.6475498	0.6475488	-4.18768e-10	0.059538387	0.059538387	0	107157.164	107157	-7.650303e-05	626241.4	280327.72	-0.00035128806	280328.34	626240.6	-0.00026346603
0	0.64744335	0.64744234	-3.9085013e-10	0.059396863	0.059396863	0	107139.555	107139.4	-6.920415e-05	626325.2	280094.94	-0.00027810305	280095.5	626324.44	-0.00027810305
0	0.64733857	0.6473377	1.675072e-10	0.05925559	0.05925559	0	107122.23	107122.07	3.114187e-05	626409.25	279864.22	0.00020491803	279864.78	626408.56	-1.4637002e-05
0	0.6472332	0.64723223	-5.862752e-10	0.059114084	0.059114084	0	107104.79	107104.62	-0.00010726644	626493.1	279632.72	-0.00046838407	279633.34	626492.44	-0.00040251756
0	0.6471267	0.6471257	-1.9542507e-10	0.05897273	0.05897273	0	107087.15	107086.984	-2.768166e-05	626576.94	279399.8	-5.854801e-05	279400.4	626576.2	-0.00013173302
0	0.64701986	0.6470189	-3.0709654e-10	0.05883124	0.05883124	0	107069.47	107069.31	-5.1903113e-05	626661.2	279165.97	-0.00011709602	279166.6	626660.5	-0.00027810305
0	0.6469146	0.6469135	-3.350144e-10	0.05868996	0.05868996	0	107052.055	107051.89	-5.931012e-05	626745.3	278934.47	-0.00038056207	278935.12	626744.56	-0.00016832553
0	0.64680654	0.6468056	0	0.058548428	0.058548428	0	107034.18	107034.016	6.379758e-06	626829.6	278698.94	-5.854801e-05	278699.53	626828.94	5.854801e-05
0	0.6467005	0.64669955	-2.7917865e-10	0.058406938	0.058406938	0	107016.63	107016.48	-4.49827e-05	626913.94	278466.12	-0.00035128806	278466.72	626913.25	-5.122951e-05
0	0.64659244	0.64659154	-2.2334293e-10	0.05826566	0.05826566	0	106998.74	106998.586	-3.4602075e-05	626998.56	278230.22	-0.00017564403	278230.84	626997.75	-0.00013173302
0	0.64648515	0.64648414	-4.18768e-10	0.058124106	0.058124106	0	106980.984	106980.82	-6.228374e-05	627083.25	277995.3	-0.00038056207	277995.97	627082.56	-0.00026346603
0	0.64637816	0.6463771	0	0.057982814	0.057982814	0	106963.27	106963.12	1.0380623e-05	627167	277761.72	-5.854801e-05	277762.34	627166.3	8.7822016e-05
0	0.6462692	0.6462683	-1.9542507e-10	0.057841305	0.057841312	0	106945.266	106945.11	-2.9790224e-05	627252	277524.38	-0.00017564403	277525	627251.2	-8.7822016e-05
0	0.6461609	0.6461599	-6.9794664e-10	0.057699807	0.057699807	0	106927.34	106927.17	-0.00011678201	627336.8	277287.75	-0.0005562061	277288.4	627336.06	-0.00045374708
0	0.64605284	0.6460518	-4.7460375e-10	0.057558525	0.057558525	0	106909.45	106909.28	-7.612457e-05	627421	277052.28	-0.00026346603	277052.9	627420.3	-0.00035128806
0	0.6459436	0.6459427	-1.675072e-10	0.05741701	0.05741701	0	106891.37	106891.21	-2.768166e-05	627505.75	276814.62	0	276815.3	627505	-0.00021223654
0	0.6458347	0.6458337	-5.583573e-10	0.057275683	0.057275683	0	106873.35	106873.18	-0.000103806226	627590.56	276577.3	-0.00043911007	276577.9	627589.8	-0.00036592505
0	0.6457247	0.6457238	1.1725504e-09	0.057134178	0.057134178	0	106855.17	106855	0.0001868512	627674.8	276339.22	0.00087822013	276339.88	627674.1	0.0008050351
0	0.64561564	0.6456146	-4.18768e-10	0.056992896	0.056992896	0	106837.1	106836.945	-7.612457e-05	627760.06	276101.22	-0.00032201406	276101.84	627759.3	-0.00027810305
0	0.6455066	0.64550567	0	0.056851387	0.056851387	0	106819.05	106818.9	-3.4602076e-06	627844.25	275864.3	-4.3911008e-05	275864.97	627843.44	4.3911008e-05
0	0.6453958	0.64539474	-4.4668585e-10	0.056709882	0.056709882	0	106800.71	106800.55	-7.266436e-05	627929.8	275623.56	-0.00019028103	275624.16	627929.06	-0.00040983607
0	0.6452854	0.6452845	-3.350144e-10	0.056568604	0.056568604	0	106782.46	106782.3	-4.6929064e-05	628014.6	275384.3	-0.00026346603	275385	628013.9	-0.00016100703
0	0.64517516	0.64517415	-4.18768e-10	0.05642703	0.056427035	0	106764.21	106764.04	-7.958477e-05	628099.56	275144.97	-0.00027810305	275145.62	628098.8	-0.00035128806
0	0.6450644	0.64506346	-5.583573e-10	0.056285758	0.056285758	0	106745.89	106745.71	-9.6885815e-05	628184.3	274905.25	-0.00045374708	274905.9	628183.56	-0.00032201406
0	0.64495295	0.64495194	-5.025216e-10	0.05614425	0.05614425	0	106727.445	106727.28	-8.99654e-05	628269.5	274664.03	-0.00035128806	274664.7	628268.8	-0.00035128806
0	0.6448414	0.64484036	-2.7917865e-10	0.056002736	0.056002736	0	106708.97	106708.8	-3.8062284e-05	628354.6	274422.62	-0.00017564403	274423.28	628353.9	-0.00019028103
0	0.6447298	0.6447287	2.2334293e-10	0.05586146	0.055861462	0	106690.51	106690.336	3.4602075e-05	628440	274180.9	0.00020491803	274181.56	628439.3	0.00011709602
0	0.6446178	0.6446168	-3.350144e-10	0.055719953	0.055719953	0	106671.98	106671.82	-5.0227078e-05	628525	273939.3	-0.00029274003	273939.94	628524.25	-0.00019028103
0	0.64450544	0.64450437	-3.350144e-10	0.05557868	0.05557868	0	106653.38	106653.2	-4.8442907e-05	628610.5	273696.47	-0.00035128806	273697.12	628609.7	-0.00012441452
0	0.64439386	0.64439285	-5.3043947e-10	0.05543712	0.05543712	0	106634.914	106634.75	-7.958477e-05	628695.25	273455.53	-0.00043911007	273456.2	628694.44	-0.00020491803
0	0.64427984	0.6442789	-5.3043947e-10	0.05529583	0.05529583	0	106616.06	106615.875	-9.439879e-05	628780.8	273210.3	-0.00040983607	273211	628780.06	-0.00038056207
0	0.64416766	0.6441667	-6.421109e-10	0.055154327	0.055154327	0	106597.49	106597.336	-9.6885815e-05	628866.3	272967.8	-0.00040983607	272968.47	628865.5	-0.00039519905
0	0.64405423	0.64405316	-3.350144e-10	0.055012815	0.055012815	0	106578.73	106578.55	-6.228374e-05	628952.2	272723.12	-0.00029274003	272723.78	628951.3	-0.00023419203
0	0.64394087	0.64393985	-3.350144e-10	0.054871533	0.054871533	0	106559.945	106559.79	-5.579585e-05	629037.44	272479.06	-0.00027810305	272479.7	629036.6	-0.00021955503
0	0.6438272	0.6438262	-3.350144e-10	0.05473003	0.05473003	0	106541.15	106540.97	-6.228374e-05	629122.9	272234.5	-0.00024882905	272235.16	629122.1	-0.00026346603
0	0.6437117	0.6437107	-3.6293227e-10	0.054588694	0.054588694	0	106522.04	106521.875	-6.920415e-05	629208.8	271986.94	-0.00032201406	271987.6	629208	-0.00020491803
0	0.64359766	0.64359665	-2.2334293e-10	0.05444718	0.05444718	0	106503.164	106502.984	-4.000865e-05	629294.44	271741.56	-0.00013173302	271742.2	629293.75	-0.00020491803
0	0.643484	0.643483	-4.18768e-10	0.054305915	0.05430591	0	106484.35	106484.18	-7.41782e-05	629379.9	271497.06	-0.00032201406	271497.7	629379.1	-0.00024882905
0	0.64336896	0.6433679	-3.6293227e-10	0.054164402	0.054164402	0	106465.31	106465.14	-5.882353e-05	629465.94	271249.94	-0.00013173302	271250.66	629465	-0.00036592505
0	0.6432543	0.6432532	-3.350144e-10	0.054022882	0.054022882	0	106446.35	106446.17	-6.5743945e-05	629551.06	271004.25	-0.00026346603	271004.97	629550.25	-0.00024882905
0	0.64313865	0.64313763	-3.350144e-10	0.053881615	0.053881615	0	106427.2	106427.03	-6.228374e-05	629636.9	270756.56	-0.00020491803	270757.22	629636.1	-0.00024882905
0	0.6430221	0.643021	-5.025216e-10	0.05374005	0.05374005	0	106407.914	106407.74	-8.650519e-05	629722.94	270507.25	-0.00033665105	270507.94	629722.1	-0.00040983607
0	0.64290595	0.64290494	-5.583573e-10	0.053598765	0.053598765	0	106388.7	106388.52	-8.99654e-05	629809.25	270258.4	-0.00046838407	270259.1	629808.44	-0.00039519905
0	0.6427907	0.64278966	-4.18768e-10	0.053457264	0.053457264	0	106369.63	106369.445	-6.920415e-05	629894.8	270011.47	-0.00026346603	270012.12	629894.06	-0.00033665105
0	0.64267355	0.6426725	-1.675072e-10	0.05331577	0.05331577	0	106350.234	106350.06	-2.4221454e-05	629981.1	269761.12	-0.00014637002	269761.84	629980.3	-0.00010245902
0	0.6425572	0.6425562	4.7460375e-10	0.053174473	0.053174473	0	106330.99	106330.81	8.131488e-05	630067.1	269512.25	0.00026346603	269512.94	630066.4	0.00038056207
0	0.6424398	0.64243865	-3.9085013e-10	0.053032972	0.053032972	0	106311.55	106311.37	-6.5743945e-05	630153.56	269261.44	-0.00017564403	269262.12	630152.75	-0.00036592505
0	0.6423226	0.6423216	-2.7917866e-11	0.052891634	0.052891634	0	106292.17	106291.98	6.920415e-06	630239.5	269011.5	-1.4637002e-05	269012.2	630238.7	1.4637002e-05
0	0.64220536	0.6422042	-7.5378237e-10	0.05275012	0.05275012	0	106272.78	106272.59	-0.00013343425	630325.25	268761.62	-0.00052693207	268762.28	630324.4	-0.00052693207
0	0.6420866	0.6420855	-1.675072e-10	0.052608836	0.052608836	0	106253.125	106252.945	-3.4602075e-05	630411.5	268509.1	-0.00010245902	268509.78	630410.7	-0.00013173302
0	0.64196837	0.6419672	-4.4668585e-10	0.052467342	0.052467342	0	106233.54	106233.36	-7.266436e-05	630497.8	268257.12	-0.00026346603	268257.78	630497.06	-0.00032201406
0	0.64184934	0.64184827	-8.37536e-11	0.052325826	0.052325826	0	106213.86	106213.664	-2.2058823e-05	630584.7	268003.66	-5.854801e-05	268004.34	630583.94	-8.0503516e-05
0	0.64173114	0.64173007	-5.3043947e-10	0.05218455	0.05218455	0	106194.28	106194.11	-7.958477e-05	630671.2	267751.7	-0.00026346603	267752.44	630670.3	-0.0004976581
0	0.641612	0.64161086	-4.4668585e-10	0.05204299	0.05204299	0	106174.58	106174.38	-7.612457e-05	630757.56	267498.5	-0.00038056207	267499.2	630756.8	-0.00024882905
0	0.64149284	0.6414917	-3.6293227e-10	0.051901694	0.051901694	0	106154.85	106154.66	-6.0553633e-05	630843.06	267246.1	-5.854801e-05	267246.8	630842.25	-0.00042447308
0	0.6413733	0.64137214	-2.7917865e-10	0.051760197	0.051760197	0	106135.07	106134.88	-4.8442907e-05	630929.56	266992.25	-0.00029274003	266992.94	630928.75	-0.00013173302
0	0.6412531	0.64125216	-5.583573e-10	0.051618703	0.051618703	0	106115.195	106115.01	-8.99654e-05	631016.75	266737.06	-0.00029274003	266737.75	631015.9	-0.00048302108
0	0.6411331	0.64113206	5.5835732e-11	0.05147742	0.05147742	0	106095.34	106095.15	2.4653978e-05	631103.5	266482.28	0.00017564403	266482.97	631102.56	-2.9274004e-05
0	0.6410132	0.6410121	-5.583573e-10	0.051335912	0.051335912	0	106075.484	106075.305	-8.650519e-05	631189.75	266228	-0.00040983607	266228.72	631188.94	-0.00033665105
0	0.6408921	0.6408909	-5.025216e-10	0.051194567	0.051194567	0	106055.43	106055.25	-7.612457e-05	631275.9	265972.2	-0.00040983607	265972.88	631275.06	-0.00026346603
0	0.6407707	0.6407694	-3.350144e-10	0.051053073	0.051053073	0	106035.34	106035.164	-5.579585e-05	631363.75	265714.4	-0.00026346603	265715.12	631362.94	-0.00023419203
0	0.6406494	0.6406483	-4.18768e-10	0.05091177	0.05091177	0	106015.28	106015.09	-6.5743945e-05	631449.8	265458.56	-0.00032201406	265459.28	631449	-0.00027810305
0	0.6405277	0.64052653	-5.583573e-10	0.050770275	0.050770275	0	105995.14	105994.96	-9.6885815e-05	631536.44	265201.66	-0.00046838407	265202.38	631535.7	-0.00031469556
0	0.64040565	0.6404045	-3.350144e-10	0.05062879	0.05062879	0	105974.945	105974.766	-7.1691175e-05	631623.8	264943.34	-0.00019028103	264944.06	631623	-0.00038056207
0	0.6402839	0.64028275	-2.7917865e-10	0.05048749	0.05048749	0	105954.8	105954.61	-4.130623e-05	631710.75	264685.94	-0.00023419203	264686.66	631709.94	-0.00017564403
0	0.64016134	0.64016026	-3.6293227e-10	0.05034593	0.05034593	0	105934.53	105934.34	-6.228374e-05	631797.44	264427.78	-0.00014637002	264428.5	631796.56	-0.00038056207
0	0.6400384	0.6400373	-3.350144e-10	0.050204642	0.050204646	0	105914.17	105913.99	-6.228374e-05	631884	264168.9	-0.00027810305	264169.66	631883.2	-0.00020491803
0	0.6399152	0.6399141	-8.37536e-11	0.050063137	0.050063137	0	105893.78	105893.6	-3.4602076e-06	631971.7	263908.9	1.4637002e-05	263909.66	631970.75	-7.318501e-05
0	0.6397922	0.639791	-5.5835732e-11	0.04992165	0.04992165	0	105873.42	105873.234	-1.0380623e-05	632058.4	263649.88	-8.7822016e-05	263650.62	632057.5	-2.9274004e-05
0	0.6396681	0.63966703	-2.7917865e-10	0.04978036	0.04978036	0	105852.91	105852.72	-4.4766435e-05	632145.75	263388.88	-0.00020491803	263389.6	632144.94	-0.00011709602
0	0.63954383	0.63954264	-6.700288e-10	0.049638852	0.049638852	0	105832.32	105832.14	-0.00011072664	632233.06	263127.5	-0.00052693207	263128.25	632232.25	-0.00039519905
0	0.6394187	0.6394176	-2.2334293e-10	0.049497508	0.049497508	0	105811.63	105811.43	-3.4602075e-05	632320.75	262864.8	-0.00029274003	262865.53	632319.75	-7.318501e-06
0	0.63929415	0.639293	-8.37536e-10	0.04935601	0.04935601	0	105791.02	105790.82	-0.00014186851	632407.06	262603.97	-0.00043911007	262604.75	632406.2	-0.00082699064
0	0.6391694	0.63916826	-3.0709654e-10	0.049214706	0.049214706	0	105770.375	105770.18	-6.25e-05	632494.94	262341.5	-0.00023419203	262342.25	632494.06	-0.00027810305
0	0.63904387	0.63904274	-5.025216e-10	0.049073216	0.049073216	0	105749.6	105749.41	-8.650519e-05	632582.4	262078.23	-0.00058548007	262079.02	632581.5	-8.7822016e-05
0	0.63891786	0.6389167	7.2586454e-10	0.048931725	0.048931725	0	105728.73	105728.55	0.00012370243	632669.3	261814.89	0.00023419203	261815.67	632668.44	0.0007903981
0	0.63879365	0.63879246	-5.583573e-10	0.048790433	0.048790433	0	105708.19	105708	-0.00010034602	632756.75	261553.64	-0.0004976581	261554.39	632755.94	-0.00035128806
0	0.6386671	0.6386659	-1.3958933e-10	0.048648868	0.048648868	0	105687.24	105687.06	-2.0761247e-05	632844.7	261288.47	-0.00011709602	261289.22	632843.8	-0.00011709602
0	0.6385414	0.63854027	-2.7917865e-10	0.04850758	0.04850758	0	105666.45	105666.266	-4.0873703e-05	632931.75	261025.45	-0.00014637002	261026.23	632930.9	-0.00020491803
0	0.63841414	0.6384129	-3.9085013e-10	0.04836608	0.04836608	0	105645.375	105645.18	-6.920415e-05	633019.75	260759.08	-0.00038056207	260759.86	633018.94	-0.00021955503
0	0.6382873	0.63828605	-3.350144e-10	0.04822459	0.04822459	0	105624.41	105624.19	-6.228374e-05	633107.3	260494.16	-0.00029274003	260494.89	633106.4	-0.00017564403
0	0.63816005	0.6381589	-2.2334293e-10	0.04808329	0.04808329	0	105603.34	105603.13	-4.584775e-05	633194.75	260228.5	-0.00011709602	260229.25	633193.94	-0.00020491803
0	0.6380319	0.6380307	-4.4668585e-10	0.047941796	0.047941796	0	105582.13	105581.93	-7.612457e-05	633282.7	259961.11	-0.00038056207	259961.92	633281.8	-0.00024882905
0	0.6379043	0.63790315	-4.18768e-10	0.047800433	0.047800433	0	105561.02	105560.83	-7.958477e-05	633370.2	259695.03	-0.00042447308	259695.81	633369.3	-0.00024882905
0	0.6377764	0.63777524	-3.0709654e-10	0.047658954	0.047658954	0	105539.85	105539.67	-5.882353e-05	633457.44	259428.78	-0.00030005854	259429.56	633456.56	-0.00017564403
0	0.6376466	0.63764536	-2.512608e-10	0.047517646	0.047517646	0	105518.375	105518.17	-3.4602075e-05	633545.7	259158.69	-0.00017564403	259159.44	633544.8	-0.00010245902
0	0.63751817	0.63751704	-2.2334293e-10	0.047376156	0.047376156	0	105497.13	105496.94	-4.1522493e-05	633633.6	258891.19	-0.00017564403	258891.94	633632.75	-0.00017564403
0	0.6373882	0.63738704	-3.350144e-10	0.04723467	0.04723467	0	105475.625	105475.43	-4.801038e-05	633721.4	258621.42	-0.00040983607	258622.2	633720.44	5.854801e-05
0	0.6372576	0.6372563	-5.025216e-10	0.04709336	0.04709336	0	105454	105453.8	-7.612457e-05	633810.2	258349.6	-0.00032201406	258350.38	633809.25	-0.00035860654
0	0.6371305	0.63712925	-4.18768e-10	0.046951808	0.046951808	0	105432.96	105432.766	-7.612457e-05	633896.8	258084.98	-0.00023419203	258085.8	633895.9	-0.00033665105
0	0.63699925	0.63699806	-2.512608e-10	0.046810508	0.04681051	0	105411.26	105411.06	-3.6764704e-05	633985.56	257812.62	0	257813.44	633984.75	-0.00029274003
0	0.63686925	0.6368681	-2.7917865e-10	0.046669018	0.046669018	0	105389.75	105389.54	-3.8062284e-05	634073.3	257542.8	-0.00027810305	257543.64	634072.5	-8.7822016e-05
0	0.6367383	0.63673717	-4.7460375e-10	0.04652772	0.04652772	0	105368.08	105367.88	-6.920415e-05	634161.3	257271.61	-0.00035128806	257272.45	634160.3	-0.00026346603
0	0.63660717	0.636606	-5.583573e-10	0.046386234	0.046386234	0	105346.375	105346.17	-0.00010110294	634249.56	256999.66	-0.0005562061	257000.5	634248.75	-0.00027810305
0	0.63647604	0.63647485	-3.9085013e-10	0.04624474	0.04624474	0	105324.67	105324.48	-7.266436e-05	634337.5	256728.08	-0.00032201406	256728.9	634336.6	-0.00023419203
0	0.63634473	0.63634354	-2.7917865e-10	0.046103436	0.046103436	0	105302.945	105302.74	-4.1522493e-05	634425.44	256456.45	-0.00023419203	256457.27	634424.5	-0.00016100703
0	0.6362126	0.63621134	-3.6293227e-10	0.045961883	0.045961883	0	105281.06	105280.87	-5.968858e-05	634513.56	256183.25	-0.00023419203	256184.03	634512.6	-0.00030737705
0	0.6360791	0.63607794	0	0.045820575	0.045820575	0	105258.984	105258.78	-3.4602076e-06	634602.6	255907.34	-0.00010245902	255908.16	634601.6	9.5140516e-05
0	0.63594764	0.63594633	-5.3043947e-10	0.0456791	0.0456791	0	105237.23	105237.02	-8.9100344e-05	634690.2	255635.64	-0.00039519905	255636.47	634689.3	-0.00029274003
0	0.635814	0.63581276	-5.025216e-10	0.045537613	0.045537613	0	105215.12	105214.91	-7.698962e-05	634778.4	255360.39	-0.00038056207	255361.2	634777.44	-0.00030737705
0	0.6356803	0.63567907	-7.8170026e-10	0.0453963	0.0453963	0	105193	105192.79	-0.00012456748	634867	255084.64	-0.00051229505	255085.44	634866.06	-0.00051229505
0	0.63554716	0.63554597	-3.350144e-10	0.04525482	0.04525482	0	105170.97	105170.766	-5.536332e-05	634955.25	254810.02	-0.00029274003	254810.86	634954.3	-0.00023419203
0	0.6354129	0.6354117	-2.512608e-10	0.045113448	0.045113444	0	105148.734	105148.53	-3.935986e-05	635044	254533.25	-0.00020491803	254534.06	635043	-0.00018296253