//mumax 3.10 [windows_amd64 go1.11.6(gc) CUDA-11.0]
//GPU info: NVIDIA GeForce RTX 3090(24575MB), CUDA Driver 12.0, cc=8.6, using cc=80 PTX
//(c) Arne Vansteenkiste, Dynamat LAB, Ghent University, Belgium
//This is free software without any warranty. See license.txt
//********************************************************************//
//  If you use mumax in any work or publication,                      //
//  we kindly ask you to cite the references in references.bib        //
//********************************************************************//
//output directory: r1;p0.8;a3.2e-07;l2.3000000000000002e-07;s1.out/
randSeed(1)
ThermSeed(1)
resolution := 2e-09
zResolution := 5e-09
a := 3.2e-07
gridSize := 320
gridDepth := 5
SetCellsize(resolution, resolution, zResolution)
SetGridsize(gridSize, gridSize, gridDepth)
SetPBC(16, 16, 0)
//resizing...
Msat = 700e3
Aex = 13e-12
alpha = 0.2
Bmax := 0.1
Bstep := Bmax / 500.0
TableAdd(B_ext)
TableAdd(m_full)
islandWidth := 8e-08
islandLength := 2.3000000000000002e-07
ellipseConstant := 9.200000000000002e-08
hIsland := rect(islandLength-2*ellipseConstant, islandWidth)
hIsland = hIsland.add(ellipse(ellipseConstant*2, islandWidth).transl(islandLength/2-ellipseConstant, 0, 0))
hIsland = hIsland.add(ellipse(ellipseConstant*2, islandWidth).transl(-islandLength/2+ellipseConstant, 0, 0))
hIsland = hIsland.sub(rect(1e-08, -2.6474986233943946e-09).transl(1.8597388504270367e-08, -4e-08, 0))
hIsland = hIsland.add(rect(1e-08, 8.070902633401037e-09).transl(3.855091637677444e-08, -3.942442460161882e-08, 0))
hIsland = hIsland.add(rect(1e-08, 9.98721645957517e-10).transl(-1.0442246843157126e-07, -1.8621600739061748e-08, 0))
hIsland = hIsland.add(rect(1e-08, 1.4551804717976498e-09).transl(-3.198634270324056e-08, -3.9808724250231705e-08, 0))
hIsland = hIsland.add(rect(1e-08, 5.879182626917465e-09).transl(1.0331335140319038e-07, -1.9510869378164758e-08, 0))
hIsland = hIsland.add(rect(1e-08, 7.0221638490561415e-09).transl(-8.054334976015527e-08, -3.120989039828642e-08, 0))
hIsland = hIsland.add(rect(1e-08, 2.3162661953897737e-09).transl(-1.7548209955874798e-08, -4e-08, 0))
hIsland = hIsland.add(rect(1e-08, 7.048386377261435e-10).transl(6.329217844418764e-08, -3.5959808367277116e-08, 0))
hIsland = hIsland.sub(rect(1e-08, -5.587063667992971e-09).transl(7.772369920371482e-09, -4e-08, 0))
hIsland = hIsland.add(rect(1e-08, 8.007109294757657e-10).transl(1.1422248377683629e-07, -5.189389596355984e-09, 0))
hIsland = hIsland.sub(rect(1e-08, -2.391807315569158e-09).transl(2.899973360102003e-08, -3.991485076119687e-08, 0))
hIsland = hIsland.add(rect(1e-08, 1.739969642524833e-09).transl(3.147315748895593e-08, -3.982999221921671e-08, 0))
hIsland = hIsland.add(rect(1e-08, 5.668717011962491e-09).transl(6.675282683979719e-08, -3.5187024329942676e-08, 0))
hIsland = hIsland.add(rect(1e-08, 3.070706855690788e-09).transl(7.394635795651491e-08, -3.330692637017262e-08, 0))
hIsland = hIsland.add(rect(1e-08, 3.192054819797786e-09).transl(-9.888679418011427e-08, -2.2613688700595562e-08, 0))
hIsland = hIsland.sub(rect(1e-08, -1.4211657243905714e-09).transl(6.336165642023732e-08, -3.594507648929554e-08, 0))
hIsland = hIsland.sub(rect(1e-08, -1.0830313068201353e-09).transl(-8.165471768901906e-08, -3.08163168819155e-08, 0))
hIsland = hIsland.add(rect(1e-08, 5.734548441512598e-10).transl(1.0055496218365062e-07, -2.1517249600649674e-08, 0))
hIsland = hIsland.add(rect(1e-08, 1.1672246343091772e-10).transl(-9.32578985945752e-08, -2.5824138724182463e-08, 0))
hIsland = hIsland.add(rect(1e-08, 7.101171188685615e-10).transl(2.9584772743222816e-08, -3.9897412795956896e-08, 0))
hIsland = hIsland.add(rect(1e-08, 2.14556301921365e-09).transl(6.395357881008894e-08, -3.581828846804284e-08, 0))
hIsland = hIsland.sub(rect(1e-08, -2.624374133828948e-09).transl(-3.205487541391771e-08, -3.980578852197298e-08, 0))
hIsland = hIsland.sub(rect(1e-08, -3.5429081325373936e-10).transl(-9.73672549503887e-08, -2.3548652091767576e-08, 0))
hIsland = hIsland.sub(rect(1e-08, -5.68913538180372e-09).transl(-9.246142714503111e-08, -2.622827713643178e-08, 0))
hIsland = hIsland.sub(rect(1e-08, -5.257789863672308e-09).transl(8.750322663342623e-08, -2.852165215348898e-08, 0))
hIsland = hIsland.sub(rect(1e-08, -1.3240316508016333e-09).transl(-9.533942545811966e-08, -2.4713892239766295e-08, 0))
hIsland = hIsland.add(rect(1e-08, 6.485190603301535e-09).transl(-3.203112072951111e-08, -3.9806808648955456e-08, 0))
hIsland = hIsland.add(rect(1e-08, 2.821935076717409e-09).transl(1.944457954480334e-08, -4e-08, 0))
hIsland = hIsland.sub(rect(1e-08, -4.837869172078883e-10).transl(1.0501375552299544e-07, -1.8124458951649968e-08, 0))
hIsland = hIsland.sub(rect(1e-08, -3.024687533662272e-09).transl(-4.5134553633375365e-08, -3.882504389136713e-08, 0))
hIsland = hIsland.sub(rect(1e-08, -1.099866600461321e-09).transl(-1.0360273758924432e-07, -1.9283962469606475e-08, 0))
hIsland = hIsland.sub(rect(1e-08, -2.462199476855808e-09).transl(-2.1574164775472736e-09, -4e-08, 0))
hIsland = hIsland.sub(rect(1e-08, -2.827589340788667e-10).transl(1.848746066633353e-08, -4e-08, 0))
hIsland = hIsland.add(rect(1e-08, 5.398929112332324e-09).transl(1.0491384119971776e-07, -1.820967264055731e-08, 0))
hIsland = hIsland.sub(rect(1e-08, -9.507972659569735e-10).transl(3.5952104062220244e-08, -3.960161488840631e-08, 0))
hIsland = hIsland.sub(rect(1e-08, -3.2305815422740734e-09).transl(3.697028357494859e-08, -3.9536136414394406e-08, 0))
hIsland = hIsland.sub(rect(1e-08, -1.0581401378184891e-08).transl(9.870334049554474e-08, -2.2729627400815216e-08, 0))
hIsland = hIsland.add(rect(1e-08, 7.385664290830851e-10).transl(-3.393935773191341e-08, -3.971622033069105e-08, 0))
hIsland = hIsland.sub(rect(1e-08, -5.083665612817169e-09).transl(1.1491314125092901e-07, -1.7377421299390192e-09, 0))
hIsland = hIsland.add(rect(1e-08, 9.290956179980409e-09).transl(6.33709072815515e-08, -3.5943112596854556e-08, 0))
hIsland = hIsland.sub(rect(1e-08, -7.2069257749526004e-09).transl(2.5703870952792986e-09, -4e-08, 0))
hIsland = hIsland.add(rect(1e-08, 6.402389808711904e-09).transl(1.1355296462990805e-07, -7.0665296003453085e-09, 0))
hIsland = hIsland.sub(rect(1e-08, -4.955032837210034e-09).transl(-1.2858861172088264e-08, -4e-08, 0))
hIsland = hIsland.sub(rect(1e-08, -2.9059121674025866e-09).transl(-3.315880711032042e-08, -3.9755392539061165e-08, 0))
hIsland = hIsland.add(rect(1e-08, 8.120396830518182e-09).transl(2.5624923738708582e-08, -3.998371543602696e-08, 0))
hIsland = hIsland.add(rect(1e-08, 2.6634463292100482e-09).transl(-7.831821857241716e-08, -3.196138588823769e-08, 0))
hIsland = hIsland.add(rect(1e-08, 4.418436404542609e-09).transl(5.824161364739885e-08, -3.694892164186509e-08, 0))
hIsland = hIsland.sub(rect(1e-08, -1.9454171543235035e-09).transl(1.0679040567122703e-07, -1.6516978246842108e-08, 0))
hIsland = hIsland.add(rect(1e-08, 3.3948025879861217e-09).transl(-1.980144207390501e-08, -4e-08, 0))
hIsland = hIsland.add(rect(1e-08, 5.864689949328618e-09).transl(9.819052122045689e-09, -4e-08, 0))
hIsland = hIsland.sub(rect(1e-08, -7.376239155660447e-10).transl(1.0959359021509961e-07, -1.3510131559538254e-08, 0))
hIsland = hIsland.sub(rect(1e-08, -4.026982798891992e-09).transl(-9.198019102428901e-08, -2.646727567603561e-08, 0))
hIsland = hIsland.add(rect(1e-08, 3.4545021035470636e-09).transl(-6.710718221846509e-08, -3.510329471648204e-08, 0))
hIsland = hIsland.sub(rect(1e-08, -1.103743086776321e-09).transl(-4.35448979458666e-08, -3.898986143335758e-08, 0))
hIsland = hIsland.add(rect(1e-08, 4.832841432094533e-09).transl(2.4166327173631432e-08, -3.999678550629168e-08, 0))
hIsland = hIsland.sub(rect(1e-08, -2.433951969318602e-09).transl(-4.500707820851984e-09, -4e-08, 0))
hIsland = hIsland.add(rect(1e-08, 1.844724053631002e-09).transl(7.286926296101493e-08, -3.361366353891805e-08, 0))
hIsland = hIsland.add(rect(1e-08, 8.886305940911602e-10).transl(6.5096891933714e-08, -3.5566842977416344e-08, 0))
hIsland = hIsland.sub(rect(1e-08, -8.141265302909185e-10).transl(5.644790136285935e-08, -3.726276666678949e-08, 0))
hIsland = hIsland.add(rect(1e-08, 1.715268004233934e-09).transl(8.306723671817612e-08, -3.02976009988257e-08, 0))
hIsland = hIsland.add(rect(1e-08, 4.489836837319042e-10).transl(-3.0769080294556026e-08, -3.9857120506638076e-08, 0))
hIsland = hIsland.add(rect(1e-08, 3.078339781678695e-09).transl(4.823647492355873e-08, -3.846565829832815e-08, 0))
hIsland = hIsland.add(rect(1e-08, 4.052418185744084e-09).transl(5.840207630543842e-08, -3.6919912796747706e-08, 0))
hIsland = hIsland.sub(rect(1e-08, -1.0835771994789594e-09).transl(-1.1111425295693669e-07, -1.1502267597927132e-08, 0))
hIsland = hIsland.sub(rect(1e-08, -2.1154297889875898e-09).transl(-5.522401379387524e-08, -3.746608531928086e-08, 0))
hIsland = hIsland.sub(rect(1e-08, -2.0953166516995256e-09).transl(1.2964161876874458e-08, -4e-08, 0))
hIsland = hIsland.add(rect(1e-08, 2.5889880492798243e-09).transl(-5.266330800023962e-08, -3.7863769731952884e-08, 0))
hIsland = hIsland.sub(rect(1e-08, -2.3302784832237356e-09).transl(-4.867723825168465e-08, -3.841047686060434e-08, 0))
hIsland = hIsland.sub(rect(1e-08, -2.808800046175716e-09).transl(-7.35349714937278e-08, -3.3425188469488343e-08, 0))
hIsland = hIsland.sub(rect(1e-08, -8.153493260638265e-09).transl(-2.615214532899341e-08, -3.9976514797023234e-08, 0))
hIsland = hIsland.sub(rect(1e-08, -1.65413452132607e-09).transl(1.3974856444374155e-08, -4e-08, 0))
hIsland = hIsland.add(rect(1e-08, 4.12802775213905e-11).transl(-1.3585819014293329e-08, -4e-08, 0))
hIsland = hIsland.add(rect(1e-08, 1.6455945377005347e-09).transl(-1.1353432544808176e-07, -7.1115326829273365e-09, 0))
hIsland = hIsland.sub(rect(1e-08, -5.323335997341662e-09).transl(7.226076464306779e-08, -3.3782852292726697e-08, 0))
hIsland = hIsland.sub(rect(1e-08, -3.970587260778375e-09).transl(-4.599267512205397e-08, -3.873065561604054e-08, 0))
hIsland = hIsland.add(rect(1e-08, 7.467729655428834e-09).transl(-2.2543018583973026e-08, -4e-08, 0))
hIsland = hIsland.sub(rect(1e-08, -4.727300405992142e-09).transl(7.8349916380697e-08, -3.1951010340027655e-08, 0))
hIsland = hIsland.sub(rect(1e-08, -2.4866352642890973e-09).transl(3.920062529988926e-08, -3.937493598852801e-08, 0))
hIsland = hIsland.sub(rect(1e-08, -2.474930325811741e-09).transl(7.096620254902097e-08, -3.4133185746310236e-08, 0))
hIsland = hIsland.sub(rect(1e-08, -5.144482794589288e-09).transl(-5.119867817792248e-08, -3.807473138377583e-08, 0))
hIsland = hIsland.sub(rect(1e-08, -1.650319965728032e-09).transl(-2.8399457501331093e-09, -4e-08, 0))
hIsland = hIsland.add(rect(1e-08, 2.574734567196311e-10).transl(-5.950962449525182e-09, -4e-08, 0))
hIsland = hIsland.sub(rect(1e-08, -2.5985191508370025e-09).transl(-1.5892624312390775e-08, -4e-08, 0))
hIsland = hIsland.sub(rect(1e-08, -4.121402438932474e-09).transl(8.32453677483394e-08, -3.0230668540255654e-08, 0))
hIsland = hIsland.sub(rect(1e-08, -9.98247226736815e-10).transl(4.809515930399798e-09, -4e-08, 0))
hIsland = hIsland.sub(rect(1e-08, -2.5524094572102907e-09).transl(-1.0280264390721374e-07, -1.9903063881597278e-08, 0))
hIsland = hIsland.add(rect(1e-08, 5.3525260688460566e-09).transl(6.630992838864603e-08, -3.529045052818267e-08, 0))
hIsland = hIsland.sub(rect(1e-08, -1.986529839127042e-09).transl(-1.00958204905788e-07, -2.1240001708208096e-08, 0))
hIsland = hIsland.add(rect(1e-08, 1.0309423376634863e-09).transl(-1.0511763012780947e-07, -1.80353298635696e-08, 0))
hIsland = hIsland.add(rect(1e-08, 4.695567295868931e-09).transl(3.837041428466063e-08, -3.9437803356615415e-08, 0))
hIsland = hIsland.add(rect(1e-08, 4.738463350878094e-09).transl(-6.546946505915867e-08, -3.548301475393752e-08, 0))
hIsland = hIsland.sub(rect(1e-08, -2.4281624417849304e-10).transl(-4.1637020409390264e-08, -3.917065920535708e-08, 0))
hIsland = hIsland.add(rect(1e-08, 3.0916940608864266e-09).transl(-9.859073649873931e-08, -2.2800360473629376e-08, 0))
hIsland = hIsland.sub(rect(1e-08, -6.022431666293783e-09).transl(-1.0414911069253159e-07, -1.8845816721591804e-08, 0))
hIsland = hIsland.sub(rect(1e-08, -2.7634900576510935e-09).transl(8.739433717521096e-08, -2.856812684463578e-08, 0))
hIsland = hIsland.add(rect(1e-08, 7.565140009683503e-09).transl(-9.381329791922187e-08, -2.5535759565715303e-08, 0))
hIsland = hIsland.sub(rect(1e-08, -3.3989040966302196e-09).transl(-5.373541330352228e-09, -4e-08, 0))
hIsland = hIsland.add(rect(1e-08, 5.59338516099515e-09).transl(-3.4913746967615826e-08, -3.966319124495363e-08, 0))
hIsland = hIsland.add(rect(1e-08, 3.1128520007661226e-09).transl(-5.402027818031295e-08, -3.765765182969161e-08, 0))
hIsland = hIsland.add(rect(1e-08, 5.484821103696735e-09).transl(9.36821643017005e-08, -2.5604346163545158e-08, 0))
hIsland = hIsland.add(rect(1e-08, 3.4779302355796366e-09).transl(6.784451501894143e-08, 3.492625087972383e-08, 0))
hIsland = hIsland.add(rect(1e-08, 2.0685338659928854e-09).transl(2.4088079483029e-08, 3.999720236681261e-08, 0))
hIsland = hIsland.sub(rect(1e-08, -2.100397045088381e-09).transl(-8.518384823384341e-08, 2.9479315803973197e-08, 0))
hIsland = hIsland.sub(rect(1e-08, -7.774375289899324e-11).transl(-1.9270401570563086e-08, 4e-08, 0))
hIsland = hIsland.sub(rect(1e-08, -2.446568739745152e-09).transl(-7.965785577909001e-09, 4e-08, 0))
hIsland = hIsland.add(rect(1e-08, 1.9326793699749537e-09).transl(4.907610050096088e-08, 3.8359647647121344e-08, 0))
hIsland = hIsland.add(rect(1e-08, 6.814666078532515e-09).transl(-5.849533692946801e-08, 3.6902981821888126e-08, 0))
hIsland = hIsland.add(rect(1e-08, 1.0617142317870804e-09).transl(-6.404770890115596e-08, 3.579791419182211e-08, 0))
hIsland = hIsland.add(rect(1e-08, 2.329048743243432e-09).transl(1.008295096047125e-07, 2.132903376657913e-08, 0))
hIsland = hIsland.add(rect(1e-08, 5.896693830889094e-09).transl(-8.030662394554443e-08, 3.129211974931204e-08, 0))
hIsland = hIsland.sub(rect(1e-08, -3.7601559071325e-09).transl(-1.0673461516040714e-07, 1.6570375916749853e-08, 0))
hIsland = hIsland.add(rect(1e-08, 7.282642522584337e-10).transl(-7.723536956253468e-08, 3.231030048852601e-08, 0))
hIsland = hIsland.add(rect(1e-08, 2.2328164299578797e-09).transl(-7.563832205038166e-08, 3.280580154015337e-08, 0))
hIsland = hIsland.sub(rect(1e-08, -2.722589081846878e-09).transl(-5.2580105736961276e-08, 3.787607228223825e-08, 0))
hIsland = hIsland.add(rect(1e-08, 3.0785359536415294e-09).transl(-4.764889288802872e-08, 3.853761592386543e-08, 0))
hIsland = hIsland.sub(rect(1e-08, -1.6430880533550114e-09).transl(9.953933370053833e-08, 2.2194067552673508e-08, 0))
hIsland = hIsland.add(rect(1e-08, 2.2823578927190877e-09).transl(5.695217215966077e-08, 3.717645555922744e-08, 0))
hIsland = hIsland.sub(rect(1e-08, -5.871579253792809e-09).transl(-7.140414310784823e-08, 3.401611685728097e-08, 0))
hIsland = hIsland.add(rect(1e-08, 3.5762381360184543e-09).transl(-6.746491396732864e-08, 3.50178766819398e-08, 0))
hIsland = hIsland.sub(rect(1e-08, -1.7057092412230264e-10).transl(-8.248896681714076e-09, 4e-08, 0))
hIsland = hIsland.sub(rect(1e-08, -3.5283395989037116e-09).transl(2.1274283716839116e-08, 4e-08, 0))
hIsland = hIsland.add(rect(1e-08, 2.5556962549916316e-09).transl(-2.977534967007414e-09, 4e-08, 0))
hIsland = hIsland.sub(rect(1e-08, -1.9027892819871905e-09).transl(9.832153529793948e-08, 2.2968155485800283e-08, 0))
hIsland = hIsland.add(rect(1e-08, 9.79196501639278e-10).transl(-8.996451089959165e-09, 4e-08, 0))
hIsland = hIsland.sub(rect(1e-08, -2.012089734015739e-09).transl(-4.246099425562334e-08, 3.9094838163095143e-08, 0))
hIsland = hIsland.add(rect(1e-08, 1.1284743209921952e-09).transl(-7.612409176576277e-08, 3.265744435569818e-08, 0))
hIsland = hIsland.sub(rect(1e-08, -8.047696990016783e-09).transl(9.922219299828092e-08, 2.239943834755632e-08, 0))
hIsland = hIsland.sub(rect(1e-08, -1.6768299012389816e-09).transl(8.083939812123036e-08, 3.1106269540414965e-08, 0))
hIsland = hIsland.add(rect(1e-08, 1.8828557120308264e-09).transl(-8.456409219630427e-08, 2.9724197089847457e-08, 0))
hIsland = hIsland.add(rect(1e-08, 1.6965649976179865e-09).transl(-3.702319388415537e-08, 3.953259532650283e-08, 0))
hIsland = hIsland.add(rect(1e-08, 3.381913374703078e-09).transl(-2.7881764314490445e-09, 4e-08, 0))
hIsland = hIsland.sub(rect(1e-08, -2.6663853908903207e-10).transl(5.756230010894474e-08, 3.707002368730765e-08, 0))
hIsland = hIsland.add(rect(1e-08, 3.369317368613761e-09).transl(1.7184092958270125e-08, 4e-08, 0))
hIsland = hIsland.add(rect(1e-08, 3.828885823926297e-11).transl(-6.108446584647981e-08, 3.6411774049743674e-08, 0))
hIsland = hIsland.add(rect(1e-08, 3.3582719835864945e-10).transl(-9.163239526128044e-08, 2.6637645237511198e-08, 0))
hIsland = hIsland.sub(rect(1e-08, -2.855907146455231e-10).transl(-1.126035942074933e-07, 9.070151978798482e-09, 0))
hIsland = hIsland.sub(rect(1e-08, -4.447693394621189e-09).transl(3.0053919404777626e-08, 3.98822515993448e-08, 0))
hIsland = hIsland.sub(rect(1e-08, -3.399379781521875e-09).transl(2.102031317285442e-08, 4e-08, 0))
hIsland = hIsland.add(rect(1e-08, 5.078793407431281e-09).transl(-2.4238505312816534e-08, 3.999637531920714e-08, 0))
hIsland = hIsland.add(rect(1e-08, 1.965959262631887e-09).transl(7.605870267680451e-08, 3.26775333417824e-08, 0))
hIsland = hIsland.add(rect(1e-08, 3.446876186912559e-10).transl(4.4606973303443576e-08, 3.8881183714059936e-08, 0))
hIsland = hIsland.sub(rect(1e-08, -1.582817398464454e-09).transl(-5.3050694060449226e-08, 3.780598112951785e-08, 0))
hIsland = hIsland.sub(rect(1e-08, -1.2621547106185346e-09).transl(-8.011753994818813e-08, 3.135740259640506e-08, 0))
hIsland = hIsland.add(rect(1e-08, 4.3138675930506395e-09).transl(-7.742896098804601e-08, 3.224870333631539e-08, 0))
hIsland = hIsland.sub(rect(1e-08, -3.759412303896087e-09).transl(5.886048083927641e-08, 3.6836187501372536e-08, 0))
hIsland = hIsland.sub(rect(1e-08, -2.899086251135339e-09).transl(8.078934379432208e-08, 3.1123850845608244e-08, 0))
hIsland = hIsland.add(rect(1e-08, 4.803927563477083e-09).transl(-1.1032532179009345e-07, 1.2588350709425143e-08, 0))
hIsland = hIsland.add(rect(1e-08, 3.2838954153747965e-09).transl(-8.451045005371584e-09, 4e-08, 0))
hIsland = hIsland.add(rect(1e-08, 5.702041803701413e-10).transl(-5.5500188096544327e-08, 3.742096339810853e-08, 0))
hIsland = hIsland.add(rect(1e-08, 1.1751829163190226e-08).transl(-1.114023072083378e-08, 4e-08, 0))
hIsland = hIsland.add(rect(1e-08, 5.865158121402435e-09).transl(-2.607969594818722e-08, 3.9977582264535663e-08, 0))
hIsland = hIsland.sub(rect(1e-08, -2.2050277383218268e-09).transl(9.954497369968348e-08, 2.219039030298098e-08, 0))
hIsland = hIsland.sub(rect(1e-08, -1.5354674912073597e-09).transl(2.6728526574937803e-08, 3.99671369955135e-08, 0))
hIsland = hIsland.add(rect(1e-08, 1.3398140748933723e-09).transl(-1.4195498118961961e-08, 4e-08, 0))
hIsland = hIsland.sub(rect(1e-08, -7.705386628835654e-09).transl(2.1019560978325467e-08, 4e-08, 0))
hIsland = hIsland.add(rect(1e-08, 1.5241550072307699e-09).transl(-5.565213248053085e-08, 3.739595078429243e-08, 0))
hIsland = hIsland.add(rect(1e-08, 2.7595377703927594e-09).transl(-6.619569781246519e-09, 4e-08, 0))
hIsland = hIsland.add(rect(1e-08, 3.701180470736441e-10).transl(-6.183538722787121e-08, 3.62615282467057e-08, 0))
hIsland = hIsland.sub(rect(1e-08, -1.0743728831651507e-08).transl(3.956354660490235e-08, 3.9346382207155165e-08, 0))
hIsland = hIsland.sub(rect(1e-08, -3.35711303836867e-09).transl(5.5187448520587045e-08, 3.7472026510962694e-08, 0))
hIsland = hIsland.add(rect(1e-08, 2.1429799442130523e-09).transl(-5.332324751761301e-08, 3.7764819597624585e-08, 0))
hIsland = hIsland.add(rect(1e-08, 7.597304798863444e-09).transl(-3.687643755377856e-08, 3.954238347509555e-08, 0))
hIsland = hIsland.sub(rect(1e-08, -6.526871661968874e-09).transl(6.146146765366827e-08, 3.63367871367141e-08, 0))
hIsland = hIsland.add(rect(1e-08, 4.916597201236794e-10).transl(-1.7033159241708566e-08, 4e-08, 0))
hIsland = hIsland.sub(rect(1e-08, -3.54289345617278e-09).transl(1.094556952310816e-07, 1.3676057494873592e-08, 0))
hIsland = hIsland.sub(rect(1e-08, -2.3253536479816553e-09).transl(-9.27530917046164e-09, 4e-08, 0))
hIsland = hIsland.sub(rect(1e-08, -2.4101649683886686e-09).transl(-6.139282708640399e-08, 3.635050652773583e-08, 0))
hIsland = hIsland.add(rect(1e-08, 6.504110311484595e-09).transl(-9.315765130366713e-08, 2.5875607491487182e-08, 0))
hIsland = hIsland.sub(rect(1e-08, -1.194414836791055e-09).transl(8.258918373224802e-08, 3.047552919013219e-08, 0))
hIsland = hIsland.add(rect(1e-08, 3.620721959323361e-09).transl(3.3893273919817677e-08, 3.971861468168423e-08, 0))
hIsland = hIsland.add(rect(1e-08, 7.045300018077014e-10).transl(4.372941309252707e-08, 3.8971395241119835e-08, 0))
hIsland = hIsland.add(rect(1e-08, 3.0357203990399966e-09).transl(3.867679000485554e-08, 3.94149997239727e-08, 0))
hIsland = hIsland.add(rect(1e-08, 1.0631675897020719e-09).transl(-5.6042336016351396e-08, 3.7331104295696984e-08, 0))
hIsland = hIsland.sub(rect(1e-08, -4.8414427829702875e-09).transl(6.99296213870485e-08, 3.440449545424148e-08, 0))
hIsland = hIsland.add(rect(1e-08, 1.9301160109376578e-09).transl(6.58304230572824e-08, 3.540090367822834e-08, 0))
hIsland = hIsland.add(rect(1e-08, 1.7745122297878653e-09).transl(-8.199171640608815e-08, 3.069447403658428e-08, 0))
hIsland = hIsland.add(rect(1e-08, 1.7582040530035108e-09).transl(1.889300718009491e-08, 4e-08, 0))
hIsland = hIsland.add(rect(1e-08, 6.569489439851531e-09).transl(8.562607877769657e-08, 2.9301813388434056e-08, 0))
hIsland = hIsland.add(rect(1e-08, 5.086355741362478e-09).transl(-7.855349720169452e-08, 3.188415037468556e-08, 0))
hIsland = hIsland.sub(rect(1e-08, -2.353207885463007e-11).transl(-2.3813642926585675e-08, 3.999843566219891e-08, 0))
hIsland = hIsland.add(rect(1e-08, 6.07855772115725e-09).transl(6.532266831612738e-08, 3.5516155557661967e-08, 0))
hIsland = hIsland.sub(rect(1e-08, -1.092219036600718e-09).transl(6.453004647077564e-08, 3.5692594372379715e-08, 0))
hIsland = hIsland.sub(rect(1e-08, -3.902635971392877e-09).transl(-1.1350319880639477e-07, 7.186037262157527e-09, 0))
hIsland = hIsland.sub(rect(1e-08, -5.89099206453689e-10).transl(8.091905789687685e-08, 3.107823754998464e-08, 0))
hIsland = hIsland.sub(rect(1e-08, -5.22081588133418e-09).transl(7.003508469640917e-08, 3.437725983663535e-08, 0))
hIsland = hIsland.add(rect(1e-08, 8.915920140167997e-10).transl(-1.0562664880813676e-07, 1.759036569707063e-08, 0))
hIsland = hIsland.add(rect(1e-08, 1.8951993855736012e-09).transl(-2.4620501103239627e-08, 3.999379435835671e-08, 0))
hIsland = hIsland.add(rect(1e-08, 4.2524636676655565e-09).transl(2.782629425554511e-08, 3.9944921634867045e-08, 0))
hIsland = hIsland.sub(rect(1e-08, -5.70666794220839e-10).transl(-5.4561844872533786e-08, 3.7572488095300223e-08, 0))
hIsland = hIsland.add(rect(1e-08, 5.1890455964093775e-09).transl(9.360141290413406e-09, 4e-08, 0))
hIsland = hIsland.add(rect(1e-08, 3.496454116425758e-10).transl(-6.092685727322902e-08, 3.6442858649863555e-08, 0))
hIsland = hIsland.add(rect(1e-08, 3.79066852008075e-09).transl(-8.64420270244863e-08, 2.8968104508796917e-08, 0))
hIsland = hIsland.sub(rect(1e-08, -3.66171661332911e-09).transl(3.967677643474061e-08, 3.93373397694984e-08, 0))
hIsland = hIsland.add(rect(1e-08, 5.283159394844878e-09).transl(-5.204008709479893e-09, 4e-08, 0))
hIsland = hIsland.sub(rect(1e-08, -5.850975625049844e-09).transl(9.40085411875907e-08, 2.5433062291915777e-08, 0))
hIsland = hIsland.sub(rect(1e-08, -7.649196117486685e-10).transl(8.737054710955103e-08, 2.8578260091735858e-08, 0))
hIsland = hIsland.add(rect(1e-08, 3.937403345058567e-09).transl(-2.2643720223579023e-08, 4e-08, 0))
hIsland = hIsland.sub(rect(1e-08, -4.421529336220448e-09).transl(4.855556003629514e-09, 4e-08, 0))
hIsland = hIsland.sub(rect(1e-08, -2.934009564267881e-11).transl(-3.3010047237477626e-08, 3.9762525114233035e-08, 0))
hIsland = hIsland.sub(rect(1e-08, -9.136504298704066e-09).transl(-1.7193050533992582e-08, 4e-08, 0))
vIsland := hIsland.rotz(pi / 2)
vIslands := Universe().Inverse()
hIslands := Universe().Inverse()
hIslands = hIslands.add(hIsland.transl(-a/2, a, 0))
hIslands = hIslands.add(hIsland.transl(-a/2, -a, 0))
hIslands = hIslands.add(hIsland.transl(a/2, a, 0))
hIslands = hIslands.add(hIsland.transl(a/2, -a, 0))
hIslands = hIslands.add(hIsland.transl(-a/2, 0, 0))
hIslands = hIslands.add(hIsland.transl(a/2, 0, 0))
vIslands = vIslands.add(vIsland.transl(-a, a/2, 0))
vIslands = vIslands.add(vIsland.transl(a, a/2, 0))
vIslands = vIslands.add(vIsland.transl(-a, -a/2, 0))
vIslands = vIslands.add(vIsland.transl(a, -a/2, 0))
vIslands = vIslands.add(vIsland.transl(0, a/2, 0))
vIslands = vIslands.add(vIsland.transl(0, -a/2, 0))
DefRegion(1, hIslands)
DefRegion(2, vIslands)
TableAdd(m_full.Region(1))
TableAdd(m_full.Region(2))
setgeom(hIslands.add(vIslands))
save(m)
r2o2 := sqrt(2) / 2
m = RandomMagSeed(4)
B_ext = vector(Bmax*r2o2, Bmax*r2o2, 0)
relax()
minimize()
for B := Bmax; B >= -Bmax; B -= Bstep {
	B_ext = vector(B*r2o2, B*r2o2, 0)
	minimize()
	tablesave()
}
//********************************************************************//
//Please cite the following references, relevant for your simulation. //
//See bibtex file in output folder for justification.                 //
//********************************************************************//
//   * Exl et al., J. Appl. Phys. 115, 17D118 (2014).
//   * Vansteenkiste et al., AIP Adv. 4, 107133 (2014).
