//mumax 3.10 [windows_amd64 go1.11.6(gc) CUDA-11.0]
//GPU info: NVIDIA GeForce RTX 3090(24575MB), CUDA Driver 12.0, cc=8.6, using cc=80 PTX
//(c) Arne Vansteenkiste, Dynamat LAB, Ghent University, Belgium
//This is free software without any warranty. See license.txt
//********************************************************************//
//  If you use mumax in any work or publication,                      //
//  we kindly ask you to cite the references in references.bib        //
//********************************************************************//
//output directory: r1;p0.1;a3.2e-07;l2.3000000000000002e-07;s1.out/
randSeed(1)
ThermSeed(1)
resolution := 2e-09
zResolution := 5e-09
a := 3.2e-07
gridSize := 320
gridDepth := 5
SetCellsize(resolution, resolution, zResolution)
SetGridsize(gridSize, gridSize, gridDepth)
SetPBC(16, 16, 0)
//resizing...
Msat = 700e3
Aex = 13e-12
alpha = 0.2
Bmax := 0.1
Bstep := Bmax / 500.0
TableAdd(B_ext)
TableAdd(m_full)
islandWidth := 8e-08
islandLength := 2.3000000000000002e-07
ellipseConstant := 1.1500000000000002e-08
hIsland := rect(islandLength-2*ellipseConstant, islandWidth)
hIsland = hIsland.add(ellipse(ellipseConstant*2, islandWidth).transl(islandLength/2-ellipseConstant, 0, 0))
hIsland = hIsland.add(ellipse(ellipseConstant*2, islandWidth).transl(-islandLength/2+ellipseConstant, 0, 0))
hIsland = hIsland.sub(rect(1e-08, -4.607728509438819e-09).transl(9.061669059922868e-08, -4e-08, 0))
hIsland = hIsland.add(rect(1e-08, 2.4288118570216663e-09).transl(7.403667808469473e-08, -4e-08, 0))
hIsland = hIsland.add(rect(1e-08, 7.316230060171601e-10).transl(-6.906614030510788e-09, -4e-08, 0))
hIsland = hIsland.add(rect(1e-08, 2.244237736253452e-09).transl(-5.466985430852566e-08, -4e-08, 0))
hIsland = hIsland.add(rect(1e-08, 3.654686319741335e-10).transl(-2.1560182241458204e-08, -4e-08, 0))
hIsland = hIsland.add(rect(1e-08, 4.448308239658888e-09).transl(-5.798439227893031e-08, -4e-08, 0))
hIsland = hIsland.add(rect(1e-08, 2.584507340976486e-09).transl(2.189876825949583e-08, -4e-08, 0))
hIsland = hIsland.add(rect(1e-08, 3.917359063307856e-09).transl(-9.577631303230909e-08, -4e-08, 0))
hIsland = hIsland.add(rect(1e-08, 2.540488357514956e-09).transl(-4.7511314773213015e-08, -4e-08, 0))
hIsland = hIsland.sub(rect(1e-08, -1.1841600804805437e-09).transl(9.567635380744776e-08, -4e-08, 0))
hIsland = hIsland.add(rect(1e-08, 9.864637757554459e-11).transl(-2.8665641581100106e-08, -4e-08, 0))
hIsland = hIsland.sub(rect(1e-08, -9.494214603285287e-10).transl(-9.678377782128141e-08, -4e-08, 0))
hIsland = hIsland.add(rect(1e-08, 3.2008833020800722e-09).transl(1.1166935180785447e-07, -2.8152797463392636e-08, 0))
hIsland = hIsland.add(rect(1e-08, 1.8306903120921205e-09).transl(-7.546077250303095e-08, -4e-08, 0))
hIsland = hIsland.add(rect(1e-08, 1.583313107958267e-09).transl(3.235158077188287e-08, -4e-08, 0))
hIsland = hIsland.add(rect(1e-08, 6.1886263888660315e-09).transl(-4.639138049297988e-08, -4e-08, 0))
hIsland = hIsland.sub(rect(1e-08, -1.0846808038034175e-09).transl(-1.0087271712432011e-07, -4e-08, 0))
hIsland = hIsland.add(rect(1e-08, 3.010095501685076e-09).transl(7.731242790871559e-08, -4e-08, 0))
hIsland = hIsland.add(rect(1e-08, 2.737945657665691e-09).transl(-3.8629372135948015e-08, -4e-08, 0))
hIsland = hIsland.sub(rect(1e-08, -5.354772861466638e-10).transl(1.0619089645659411e-07, -3.888955054891457e-08, 0))
hIsland = hIsland.add(rect(1e-08, 5.445543049527851e-09).transl(-1.8663177094701175e-08, -4e-08, 0))
hIsland = hIsland.sub(rect(1e-08, -2.206617728421972e-09).transl(9.144755969390241e-08, -4e-08, 0))
hIsland = hIsland.sub(rect(1e-08, -2.8652165926820778e-09).transl(1.0857052757369198e-07, -3.590194587973623e-08, 0))
hIsland = hIsland.add(rect(1e-08, 4.633830033692858e-09).transl(8.764063508807923e-08, -4e-08, 0))
hIsland = hIsland.sub(rect(1e-08, -4.1365966349053e-09).transl(7.947367779342792e-08, -4e-08, 0))
hIsland = hIsland.sub(rect(1e-08, -3.354686997954127e-09).transl(-2.7657984546347795e-08, -4e-08, 0))
hIsland = hIsland.sub(rect(1e-08, -2.89176154069047e-09).transl(-3.869230851067961e-08, -4e-08, 0))
hIsland = hIsland.sub(rect(1e-08, -2.3742441216363738e-09).transl(3.1485102804298117e-09, -4e-08, 0))
hIsland = hIsland.sub(rect(1e-08, -8.429975766350103e-09).transl(1.7545052695541283e-08, -4e-08, 0))
hIsland = hIsland.add(rect(1e-08, 2.6925008568027915e-09).transl(7.641989327539416e-08, -4e-08, 0))
hIsland = hIsland.sub(rect(1e-08, -3.3387132485395565e-09).transl(-1.585356330904604e-08, -4e-08, 0))
hIsland = hIsland.add(rect(1e-08, 1.329834697889812e-09).transl(-2.3474066450652978e-08, -4e-08, 0))
hIsland = hIsland.sub(rect(1e-08, -2.5763595472301277e-09).transl(-5.190421459612008e-08, -4e-08, 0))
hIsland = hIsland.sub(rect(1e-08, -5.799724528611988e-09).transl(8.878761958758168e-08, -4e-08, 0))
hIsland = hIsland.sub(rect(1e-08, -8.920043744004272e-09).transl(-8.102404276572588e-09, -4e-08, 0))
hIsland = hIsland.add(rect(1e-08, 2.1775376071342574e-09).transl(-1.1298937110092853e-07, -2.2595805317629497e-08, 0))
hIsland = hIsland.sub(rect(1e-08, -5.248362982531516e-09).transl(5.549582683116541e-08, -4e-08, 0))
hIsland = hIsland.sub(rect(1e-08, -6.5793636744942504e-09).transl(-4.489253417030711e-08, -4e-08, 0))
hIsland = hIsland.add(rect(1e-08, 1.2361550637868673e-09).transl(-1.1378060432739754e-07, -1.792542405877467e-08, 0))
hIsland = hIsland.sub(rect(1e-08, -4.6748976582602175e-09).transl(-9.474595754182974e-08, -4e-08, 0))
hIsland = hIsland.sub(rect(1e-08, -5.291082229798007e-09).transl(-5.486273734627291e-08, -4e-08, 0))
hIsland = hIsland.sub(rect(1e-08, -6.008804772010173e-11).transl(8.824443120162368e-08, -4e-08, 0))
hIsland = hIsland.sub(rect(1e-08, -2.14952642186549e-09).transl(1.9564033222668276e-08, -4e-08, 0))
hIsland = hIsland.sub(rect(1e-08, -4.748858923535565e-09).transl(9.749751434453669e-08, -4e-08, 0))
hIsland = hIsland.sub(rect(1e-08, -1.4430453190133406e-09).transl(9.854297799460139e-08, -4e-08, 0))
hIsland = hIsland.add(rect(1e-08, 1.1769214750541873e-09).transl(8.924907439850019e-08, -4e-08, 0))
hIsland = hIsland.add(rect(1e-08, 2.675624541148591e-10).transl(-8.335250088437128e-08, -4e-08, 0))
hIsland = hIsland.sub(rect(1e-08, -1.2648046413953467e-08).transl(-4.3894382513027466e-08, -4e-08, 0))
hIsland = hIsland.sub(rect(1e-08, -3.58336239766336e-09).transl(5.815395486129182e-09, -4e-08, 0))
hIsland = hIsland.add(rect(1e-08, 1.8224440101452207e-09).transl(-5.362254119063462e-08, -4e-08, 0))
hIsland = hIsland.add(rect(1e-08, 1.1759496041928819e-09).transl(7.798516473736606e-08, -4e-08, 0))
hIsland = hIsland.add(rect(1e-08, 2.915241318949855e-09).transl(-6.993772408930269e-08, -4e-08, 0))
hIsland = hIsland.add(rect(1e-08, 5.75698084961678e-09).transl(-2.6323307876476228e-08, -4e-08, 0))
hIsland = hIsland.sub(rect(1e-08, -2.715843349693322e-09).transl(6.712685325575865e-09, -4e-08, 0))
hIsland = hIsland.add(rect(1e-08, 2.3896447604708793e-09).transl(2.9739191631638666e-08, -4e-08, 0))
hIsland = hIsland.add(rect(1e-08, 7.006110079117299e-10).transl(-1.654585105551607e-08, -4e-08, 0))
hIsland = hIsland.add(rect(1e-08, 2.5029096014783863e-09).transl(8.686880554643264e-08, -4e-08, 0))
hIsland = hIsland.sub(rect(1e-08, -6.19983753524585e-10).transl(-5.176648261471839e-08, -4e-08, 0))
hIsland = hIsland.sub(rect(1e-08, -1.2444931755612943e-09).transl(-1.7699336662940388e-08, -4e-08, 0))
hIsland = hIsland.add(rect(1e-08, 1.5577667325158692e-09).transl(-1.3878831388040666e-08, -4e-08, 0))
hIsland = hIsland.sub(rect(1e-08, -1.137321127321591e-09).transl(-5.47551612657847e-08, -4e-08, 0))
hIsland = hIsland.add(rect(1e-08, 8.731727991777971e-09).transl(-8.13726731941699e-08, -4e-08, 0))
hIsland = hIsland.add(rect(1e-08, 6.615420817723457e-09).transl(-4.756413482960798e-08, -4e-08, 0))
hIsland = hIsland.sub(rect(1e-08, -7.786909473249687e-09).transl(-1.1302377600317897e-07, -2.2419999346727648e-08, 0))
hIsland = hIsland.sub(rect(1e-08, -1.5819049212838926e-09).transl(7.663421929819525e-08, -4e-08, 0))
hIsland = hIsland.sub(rect(1e-08, -7.482158623848072e-10).transl(5.037802734270452e-08, -4e-08, 0))
hIsland = hIsland.add(rect(1e-08, 2.169392423495151e-09).transl(9.886882192847982e-08, -4e-08, 0))
hIsland = hIsland.add(rect(1e-08, 1.3940291828776662e-08).transl(1.1490188343824498e-07, -5.213974603778613e-09, 0))
hIsland = hIsland.sub(rect(1e-08, -1.796042935172864e-09).transl(6.135416672899952e-08, -4e-08, 0))
hIsland = hIsland.add(rect(1e-08, 8.004971591355594e-10).transl(4.833054084455867e-09, -4e-08, 0))
hIsland = hIsland.sub(rect(1e-08, -4.463382865370586e-10).transl(-5.150452210937805e-08, -4e-08, 0))
hIsland = hIsland.sub(rect(1e-08, -1.8373796327389214e-10).transl(5.348990126018255e-08, -4e-08, 0))
hIsland = hIsland.sub(rect(1e-08, -4.756642255629787e-10).transl(-6.58344947971089e-09, -4e-08, 0))
hIsland = hIsland.add(rect(1e-08, 5.448970956810218e-09).transl(-3.85803110806759e-08, -4e-08, 0))
hIsland = hIsland.sub(rect(1e-08, -5.255760908335609e-09).transl(-4.9142338083870846e-08, -4e-08, 0))
hIsland = hIsland.sub(rect(1e-08, -4.020125118316861e-09).transl(5.294340688825599e-08, -4e-08, 0))
hIsland = hIsland.sub(rect(1e-08, -5.898710978012526e-09).transl(3.9262078384908966e-08, -4e-08, 0))
hIsland = hIsland.add(rect(1e-08, 5.590126830297356e-09).transl(-1.017464285148717e-07, -4e-08, 0))
hIsland = hIsland.add(rect(1e-08, 4.7992077780192904e-09).transl(-4.021891456199093e-08, -4e-08, 0))
hIsland = hIsland.sub(rect(1e-08, -3.492805296638793e-09).transl(-1.779597050109857e-08, -4e-08, 0))
hIsland = hIsland.add(rect(1e-08, 1.254946763668773e-09).transl(5.827959009553421e-08, -4e-08, 0))
hIsland = hIsland.sub(rect(1e-08, -2.1386921979834318e-09).transl(2.0350836289149264e-08, -4e-08, 0))
hIsland = hIsland.sub(rect(1e-08, -1.7829350705608525e-09).transl(2.1023209440312402e-08, -4e-08, 0))
hIsland = hIsland.sub(rect(1e-08, -3.630722577379794e-09).transl(8.918594181838985e-08, -4e-08, 0))
hIsland = hIsland.sub(rect(1e-08, -1.1006286370371438e-09).transl(-2.1941109842892196e-08, -4e-08, 0))
hIsland = hIsland.add(rect(1e-08, 5.560372891007194e-09).transl(6.009964855251552e-08, -4e-08, 0))
hIsland = hIsland.sub(rect(1e-08, -4.670964307686191e-09).transl(-1.876665468702407e-08, -4e-08, 0))
hIsland = hIsland.add(rect(1e-08, 4.5428151419543975e-09).transl(4.6925611986150933e-08, -4e-08, 0))
hIsland = hIsland.sub(rect(1e-08, -4.682960275307076e-09).transl(3.6583954021094056e-08, -4e-08, 0))
hIsland = hIsland.sub(rect(1e-08, -1.4884282267324085e-09).transl(1.0900069410211632e-07, -3.5127397956549475e-08, 0))
hIsland = hIsland.sub(rect(1e-08, -1.0526368328181025e-09).transl(-3.81631138627498e-08, -4e-08, 0))
hIsland = hIsland.add(rect(1e-08, 3.772484410812414e-09).transl(-1.1040269255108377e-07, -3.199297381185165e-08, 0))
hIsland = hIsland.sub(rect(1e-08, -2.7305700529331776e-10).transl(8.3824775132406e-08, -4e-08, 0))
hIsland = hIsland.sub(rect(1e-08, -7.93770597578783e-09).transl(-4.1249603915273566e-08, -4e-08, 0))
hIsland = hIsland.sub(rect(1e-08, -1.2603754538572255e-08).transl(6.40767474488722e-08, -4e-08, 0))
hIsland = hIsland.add(rect(1e-08, 1.6007026629078105e-09).transl(-6.111989188128992e-08, -4e-08, 0))
hIsland = hIsland.sub(rect(1e-08, -2.7254376550874115e-09).transl(8.196348293045964e-08, -4e-08, 0))
hIsland = hIsland.sub(rect(1e-08, -3.5013936193465377e-09).transl(-2.8650935874265704e-08, -4e-08, 0))
hIsland = hIsland.add(rect(1e-08, 1.4168060645308208e-09).transl(9.723897280276131e-08, -4e-08, 0))
hIsland = hIsland.sub(rect(1e-08, -1.4304578384237587e-09).transl(-9.57816102511319e-08, -4e-08, 0))
hIsland = hIsland.add(rect(1e-08, 4.267155904325009e-09).transl(9.44041921429779e-08, 4e-08, 0))
hIsland = hIsland.sub(rect(1e-08, -2.1342091563577817e-09).transl(-7.446177662953792e-08, 4e-08, 0))
hIsland = hIsland.add(rect(1e-08, 4.0489706755517515e-09).transl(9.842382245524611e-08, 4e-08, 0))
hIsland = hIsland.add(rect(1e-08, 1.736880989602093e-09).transl(1.086859012282086e-07, 3.5702010292403576e-08, 0))
hIsland = hIsland.sub(rect(1e-08, -1.0855711807119288e-09).transl(-2.900188114568754e-08, 4e-08, 0))
hIsland = hIsland.add(rect(1e-08, 6.108905987536119e-09).transl(-6.53123698933787e-08, 4e-08, 0))
hIsland = hIsland.add(rect(1e-08, 8.919581242956846e-10).transl(3.5698697165421346e-08, 4e-08, 0))
hIsland = hIsland.sub(rect(1e-08, -7.437823646196129e-09).transl(4.186641001038504e-08, 4e-08, 0))
hIsland = hIsland.sub(rect(1e-08, -1.8330262836339845e-09).transl(4.931965298454483e-08, 4e-08, 0))
hIsland = hIsland.add(rect(1e-08, 4.997012677976573e-09).transl(5.7470030545503274e-08, 4e-08, 0))
hIsland = hIsland.sub(rect(1e-08, -7.697956630013362e-09).transl(-5.0391763879353825e-08, 4e-08, 0))
hIsland = hIsland.sub(rect(1e-08, -6.122874924256656e-09).transl(-9.579844226330835e-08, 4e-08, 0))
hIsland = hIsland.add(rect(1e-08, 3.562215646450133e-09).transl(-1.6089953844417556e-08, 4e-08, 0))
hIsland = hIsland.sub(rect(1e-08, -3.5107930649824717e-10).transl(-1.1317649614816347e-07, 2.1614368194526922e-08, 0))
hIsland = hIsland.add(rect(1e-08, 2.2972680982227095e-09).transl(4.775910516648971e-08, 4e-08, 0))
hIsland = hIsland.sub(rect(1e-08, -7.420643055194372e-09).transl(2.209366589907853e-08, 4e-08, 0))
hIsland = hIsland.add(rect(1e-08, 7.976796536922366e-10).transl(-7.008946085491765e-08, 4e-08, 0))
hIsland = hIsland.add(rect(1e-08, 6.490315715055385e-10).transl(9.954184287079052e-08, 4e-08, 0))
hIsland = hIsland.add(rect(1e-08, 2.248879997597876e-09).transl(-6.000169526395351e-08, 4e-08, 0))
hIsland = hIsland.add(rect(1e-08, 1.5513528284808466e-09).transl(-8.431306427555034e-08, 4e-08, 0))
hIsland = hIsland.sub(rect(1e-08, -1.5208074181961564e-09).transl(-1.0853294122994584e-07, 3.596587377685637e-08, 0))
hIsland = hIsland.add(rect(1e-08, 2.9202920907611617e-09).transl(-8.007049874386919e-08, 4e-08, 0))
hIsland = hIsland.sub(rect(1e-08, -6.3545918035730664e-09).transl(-4.168032147807262e-08, 4e-08, 0))
hIsland = hIsland.add(rect(1e-08, 4.756465100783791e-09).transl(1.0978505909252567e-07, 3.349766253454353e-08, 0))
hIsland = hIsland.sub(rect(1e-08, -1.7382587921303108e-10).transl(8.461688245649609e-08, 4e-08, 0))
hIsland = hIsland.add(rect(1e-08, 1.1975578767814078e-09).transl(6.705422917679697e-08, 4e-08, 0))
hIsland = hIsland.sub(rect(1e-08, -1.4611316996377007e-09).transl(4.359216894424894e-08, 4e-08, 0))
hIsland = hIsland.add(rect(1e-08, 7.749215110029598e-09).transl(-1.0667432763694775e-07, 3.844597815355607e-08, 0))
hIsland = hIsland.sub(rect(1e-08, -8.65375456667367e-09).transl(1.02344242045396e-07, 4e-08, 0))
hIsland = hIsland.sub(rect(1e-08, -4.680822156685818e-10).transl(-8.504385971990567e-08, 4e-08, 0))
hIsland = hIsland.add(rect(1e-08, 2.509183493766729e-09).transl(-2.6387787704275278e-08, 4e-08, 0))
hIsland = hIsland.sub(rect(1e-08, -5.571412928453358e-09).transl(5.4611199347219973e-08, 4e-08, 0))
hIsland = hIsland.add(rect(1e-08, 2.6371558569586072e-09).transl(-1.9911617748692356e-08, 4e-08, 0))
hIsland = hIsland.sub(rect(1e-08, -1.5880243897200291e-09).transl(-9.834369076895396e-08, 4e-08, 0))
hIsland = hIsland.sub(rect(1e-08, -5.361551540017835e-09).transl(2.4297993161630587e-08, 4e-08, 0))
hIsland = hIsland.sub(rect(1e-08, -4.173016394003155e-09).transl(6.116832863435667e-08, 4e-08, 0))
hIsland = hIsland.sub(rect(1e-08, -3.6508021834208055e-09).transl(-1.2634280011203826e-08, 4e-08, 0))
hIsland = hIsland.sub(rect(1e-08, -1.291637832588389e-09).transl(-1.0108320286946115e-07, 4e-08, 0))
hIsland = hIsland.add(rect(1e-08, 2.0041647434794635e-09).transl(-2.1589465672463363e-08, 4e-08, 0))
hIsland = hIsland.add(rect(1e-08, 8.222815180417344e-10).transl(-9.52106212608644e-08, 4e-08, 0))
hIsland = hIsland.add(rect(1e-08, 4.018246529755746e-09).transl(3.48863222165064e-08, 4e-08, 0))
hIsland = hIsland.sub(rect(1e-08, -2.279780511581003e-09).transl(-1.5265521527928447e-08, 4e-08, 0))
hIsland = hIsland.sub(rect(1e-08, -1.0448273163301057e-09).transl(7.95803800440431e-08, 4e-08, 0))
hIsland = hIsland.add(rect(1e-08, 9.687849934214547e-10).transl(-3.840245783240705e-08, 4e-08, 0))
hIsland = hIsland.sub(rect(1e-08, -1.6319044965826285e-09).transl(-2.395311062037551e-08, 4e-08, 0))
hIsland = hIsland.add(rect(1e-08, 4.487353495664361e-09).transl(5.3101677766225224e-08, 4e-08, 0))
hIsland = hIsland.sub(rect(1e-08, -2.506538927364534e-09).transl(-8.845808403204137e-08, 4e-08, 0))
hIsland = hIsland.add(rect(1e-08, 4.117584329015205e-09).transl(-6.813289682034909e-08, 4e-08, 0))
hIsland = hIsland.add(rect(1e-08, 7.599180685978351e-09).transl(-8.146982066703671e-08, 4e-08, 0))
hIsland = hIsland.add(rect(1e-08, 2.742415413987056e-09).transl(-9.63927566510551e-08, 4e-08, 0))
hIsland = hIsland.sub(rect(1e-08, -1.4397209309330811e-09).transl(-1.0201405035270994e-08, 4e-08, 0))
hIsland = hIsland.add(rect(1e-08, 3.553448433265846e-09).transl(-2.036565493251051e-08, 4e-08, 0))
hIsland = hIsland.sub(rect(1e-08, -4.757837293114368e-09).transl(-4.7293197635706034e-09, 4e-08, 0))
hIsland = hIsland.sub(rect(1e-08, -2.5038687743944355e-09).transl(4.58216633103656e-08, 4e-08, 0))
hIsland = hIsland.add(rect(1e-08, 4.430161283295582e-09).transl(-5.400727269324416e-08, 4e-08, 0))
hIsland = hIsland.add(rect(1e-08, 4.343695718522416e-09).transl(8.990216592326019e-08, 4e-08, 0))
hIsland = hIsland.add(rect(1e-08, 7.711372571844412e-10).transl(-2.5924017247215363e-08, 4e-08, 0))
hIsland = hIsland.sub(rect(1e-08, -1.4337330935728932e-09).transl(2.969247433515508e-08, 4e-08, 0))
hIsland = hIsland.sub(rect(1e-08, -5.7290643148618194e-09).transl(-6.69780837332235e-08, 4e-08, 0))
hIsland = hIsland.sub(rect(1e-08, -3.2010280191937143e-09).transl(-4.714987398736034e-08, 4e-08, 0))
hIsland = hIsland.sub(rect(1e-08, -9.360413494190504e-10).transl(-2.9933661865528385e-08, 4e-08, 0))
hIsland = hIsland.sub(rect(1e-08, -2.675914308796978e-09).transl(-9.870266584681903e-08, 4e-08, 0))
hIsland = hIsland.add(rect(1e-08, 3.2659979900058896e-09).transl(8.49157345144096e-08, 4e-08, 0))
hIsland = hIsland.add(rect(1e-08, 2.174420637103329e-09).transl(-4.5817725733707114e-08, 4e-08, 0))
hIsland = hIsland.sub(rect(1e-08, -5.628747167208907e-09).transl(-6.713705332367602e-08, 4e-08, 0))
hIsland = hIsland.sub(rect(1e-08, -4.190089929852179e-11).transl(-1.0639486090544878e-07, 3.871193097164781e-08, 0))
hIsland = hIsland.sub(rect(1e-08, -5.021091507804131e-09).transl(1.234380799370174e-08, 4e-08, 0))
hIsland = hIsland.add(rect(1e-08, 2.6747505053803913e-10).transl(1.5355160744261982e-08, 4e-08, 0))
hIsland = hIsland.sub(rect(1e-08, -3.4471579082972763e-09).transl(6.996784990786322e-08, 4e-08, 0))
hIsland = hIsland.sub(rect(1e-08, -8.416175065233408e-10).transl(2.0030634900211765e-08, 4e-08, 0))
hIsland = hIsland.add(rect(1e-08, 6.947096098774383e-10).transl(-1.0560274647435137e-07, 3.9325651366190464e-08, 0))
hIsland = hIsland.sub(rect(1e-08, -6.608707254438372e-10).transl(1.0239656789708686e-07, 4e-08, 0))
hIsland = hIsland.add(rect(1e-08, 3.817730702607002e-09).transl(3.962064724057991e-09, 4e-08, 0))
hIsland = hIsland.add(rect(1e-08, 1.6296918393500684e-09).transl(7.571739491438791e-09, 4e-08, 0))
hIsland = hIsland.add(rect(1e-08, 4.1802305520879846e-10).transl(6.819145584073265e-08, 4e-08, 0))
hIsland = hIsland.add(rect(1e-08, 3.7657469188321804e-10).transl(5.076372015576905e-08, 4e-08, 0))
hIsland = hIsland.sub(rect(1e-08, -2.063462875025369e-09).transl(-2.8077271874043224e-08, 4e-08, 0))
hIsland = hIsland.sub(rect(1e-08, -2.9401348069329656e-09).transl(-4.7286600498082395e-08, 4e-08, 0))
hIsland = hIsland.add(rect(1e-08, 4.273413790438804e-10).transl(-1.4766625632194428e-08, 4e-08, 0))
hIsland = hIsland.sub(rect(1e-08, -9.527130398151663e-10).transl(9.931446012372508e-08, 4e-08, 0))
hIsland = hIsland.sub(rect(1e-08, -1.84433601589447e-09).transl(-6.074573906245392e-08, 4e-08, 0))
hIsland = hIsland.add(rect(1e-08, 6.517000481180931e-09).transl(8.788747923200078e-08, 4e-08, 0))
hIsland = hIsland.sub(rect(1e-08, -9.394566085029915e-09).transl(-1.0997370462977351e-07, 3.306016024972896e-08, 0))
hIsland = hIsland.add(rect(1e-08, 1.1796414178720611e-09).transl(-6.986960867393667e-08, 4e-08, 0))
hIsland = hIsland.add(rect(1e-08, 6.477841306296856e-09).transl(3.0652931499697496e-09, 4e-08, 0))
hIsland = hIsland.add(rect(1e-08, 4.434738956983541e-09).transl(-4.264240279489207e-08, 4e-08, 0))
hIsland = hIsland.add(rect(1e-08, 3.85430128177279e-09).transl(6.278622409826555e-08, 4e-08, 0))
hIsland = hIsland.add(rect(1e-08, 3.1466988940443636e-10).transl(-7.779093166211317e-08, 4e-08, 0))
hIsland = hIsland.add(rect(1e-08, 1.734529077723477e-09).transl(7.850271514249736e-08, 4e-08, 0))
hIsland = hIsland.add(rect(1e-08, 3.895733394773371e-09).transl(8.736258803208227e-08, 4e-08, 0))
hIsland = hIsland.add(rect(1e-08, 5.383941946144636e-09).transl(3.9927100932000466e-08, 4e-08, 0))
hIsland = hIsland.add(rect(1e-08, 6.423983956810488e-09).transl(4.855466614815314e-09, 4e-08, 0))
hIsland = hIsland.sub(rect(1e-08, -1.173618880688921e-09).transl(-3.4890610374319006e-08, 4e-08, 0))
hIsland = hIsland.sub(rect(1e-08, -1.9313226863984574e-09).transl(1.793774582545784e-08, 4e-08, 0))
hIsland = hIsland.add(rect(1e-08, 5.387708069444781e-10).transl(1.1179260992357631e-07, 2.7713384951532088e-08, 0))
hIsland = hIsland.sub(rect(1e-08, -2.0363632377510136e-10).transl(7.339612498459205e-08, 4e-08, 0))
hIsland = hIsland.sub(rect(1e-08, -1.2392801988838e-09).transl(-7.64984018172752e-08, 4e-08, 0))
hIsland = hIsland.sub(rect(1e-08, -3.1968796362554533e-09).transl(-1.8490194519335095e-08, 4e-08, 0))
hIsland = hIsland.sub(rect(1e-08, -1.4380515154867991e-09).transl(-7.876118097603318e-08, 4e-08, 0))
hIsland = hIsland.sub(rect(1e-08, -3.6066469425332565e-09).transl(5.452582027062825e-08, 4e-08, 0))
vIsland := hIsland.rotz(pi / 2)
vIslands := Universe().Inverse()
hIslands := Universe().Inverse()
hIslands = hIslands.add(hIsland.transl(-a/2, a, 0))
hIslands = hIslands.add(hIsland.transl(-a/2, -a, 0))
hIslands = hIslands.add(hIsland.transl(a/2, a, 0))
hIslands = hIslands.add(hIsland.transl(a/2, -a, 0))
hIslands = hIslands.add(hIsland.transl(-a/2, 0, 0))
hIslands = hIslands.add(hIsland.transl(a/2, 0, 0))
vIslands = vIslands.add(vIsland.transl(-a, a/2, 0))
vIslands = vIslands.add(vIsland.transl(a, a/2, 0))
vIslands = vIslands.add(vIsland.transl(-a, -a/2, 0))
vIslands = vIslands.add(vIsland.transl(a, -a/2, 0))
vIslands = vIslands.add(vIsland.transl(0, a/2, 0))
vIslands = vIslands.add(vIsland.transl(0, -a/2, 0))
DefRegion(1, hIslands)
DefRegion(2, vIslands)
TableAdd(m_full.Region(1))
TableAdd(m_full.Region(2))
setgeom(hIslands.add(vIslands))
save(m)
r2o2 := sqrt(2) / 2
m = RandomMagSeed(4)
B_ext = vector(Bmax*r2o2, Bmax*r2o2, 0)
relax()
minimize()
for B := Bmax; B >= -Bmax; B -= Bstep {
	B_ext = vector(B*r2o2, B*r2o2, 0)
	minimize()
	tablesave()
}
//********************************************************************//
//Please cite the following references, relevant for your simulation. //
//See bibtex file in output folder for justification.                 //
//********************************************************************//
//   * Vansteenkiste et al., AIP Adv. 4, 107133 (2014).
//   * Exl et al., J. Appl. Phys. 115, 17D118 (2014).
