//mumax 3.10 [windows_amd64 go1.11.6(gc) CUDA-11.0]
//GPU info: NVIDIA GeForce RTX 3090(24575MB), CUDA Driver 12.0, cc=8.6, using cc=80 PTX
//(c) Arne Vansteenkiste, Dynamat LAB, Ghent University, Belgium
//This is free software without any warranty. See license.txt
//********************************************************************//
//  If you use mumax in any work or publication,                      //
//  we kindly ask you to cite the references in references.bib        //
//********************************************************************//
//output directory: r1;p0.1;a4.0000000000000003e-07;l2.3000000000000002e-07;s2.out/
randSeed(2)
ThermSeed(2)
resolution := 2e-09
zResolution := 5e-09
a := 4.0000000000000003e-07
gridSize := 400
gridDepth := 5
SetCellsize(resolution, resolution, zResolution)
SetGridsize(gridSize, gridSize, gridDepth)
SetPBC(16, 16, 0)
//resizing...
Msat = 700e3
Aex = 13e-12
alpha = 0.2
Bmax := 0.1
Bstep := Bmax / 500.0
TableAdd(B_ext)
TableAdd(m_full)
islandWidth := 8e-08
islandLength := 2.3000000000000002e-07
ellipseConstant := 1.1500000000000002e-08
hIsland := Universe().Inverse()
vIsland := Universe().Inverse()
vIslands := Universe().Inverse()
hIslands := Universe().Inverse()
hIsland = rect(islandLength-2*ellipseConstant, islandWidth)
hIsland = hIsland.add(ellipse(ellipseConstant*2, islandWidth).transl(islandLength/2-ellipseConstant, 0, 0))
hIsland = hIsland.add(ellipse(ellipseConstant*2, islandWidth).transl(-islandLength/2+ellipseConstant, 0, 0))
hIsland = hIsland.sub(rect(6.672280813526877e-09, -8.201088483427332e-10).transl(-1.4284922440307175e-08, -4e-08, 0))
hIsland = hIsland.sub(rect(9.00109620028357e-09, -1.7786047685021194e-09).transl(-7.103545562323732e-10, -4e-08, 0))
hIsland = hIsland.sub(rect(3.93184237445835e-09, -2.3501281935104818e-09).transl(-2.1250584611303237e-08, -4e-08, 0))
hIsland = hIsland.add(rect(8.259877511281322e-09, 1.134878804757235e-09).transl(7.412465330658627e-08, -4e-08, 0))
hIsland = hIsland.sub(rect(2.0109573321197125e-09, -2.773795896071134e-09).transl(-3.926256013546295e-08, -4e-08, 0))
hIsland = hIsland.add(rect(2.5637566749548207e-09, 7.050979562190453e-10).transl(-1.0158031099006264e-08, -4e-08, 0))
hIsland = hIsland.add(rect(6.711211473875206e-09, 1.3573870805884005e-09).transl(-1.003506418293126e-07, -4e-08, 0))
hIsland = hIsland.sub(rect(7.588449965638042e-09, -4.186853848782645e-10).transl(-1.0597869869576283e-07, -3.905980915756393e-08, 0))
hIsland = hIsland.sub(rect(8.808064126718449e-09, -1.255672478547808e-09).transl(-1.059929666128515e-08, -4e-08, 0))
hIsland = hIsland.add(rect(8.509221990091696e-09, 3.371504899426586e-09).transl(-2.300032963484186e-08, -4e-08, 0))
hIsland = hIsland.add(rect(2.81196277593201e-09, 3.863952254404484e-10).transl(-1.1683157914532712e-10, -4e-08, 0))
hIsland = hIsland.sub(rect(2.0783092691240975e-09, -2.1734530653917375e-09).transl(-2.8136395009852262e-08, -4e-08, 0))
hIsland = hIsland.add(rect(4.479514225714549e-09, 3.218578761876596e-09).transl(-5.552703627929037e-08, -4e-08, 0))
hIsland = hIsland.add(rect(4.641483397282879e-09, 1.8428809093209508e-09).transl(1.9936055718449443e-08, -4e-08, 0))
hIsland = hIsland.sub(rect(4.9267395170856436e-09, -3.568403067321852e-09).transl(2.8494732025556465e-08, -4e-08, 0))
hIsland = hIsland.sub(rect(2.1143565900434762e-09, -1.6381802556688516e-09).transl(-8.132327412184862e-08, -4e-08, 0))
hIsland = hIsland.sub(rect(3.927460434359487e-09, -6.703540141715934e-10).transl(-4.05318545235471e-08, -4e-08, 0))
hIsland = hIsland.sub(rect(7.943146435027576e-09, -1.3356449491162488e-09).transl(-4.998307501203958e-09, -4e-08, 0))
hIsland = hIsland.add(rect(2.516791187602686e-09, 2.0117277328311804e-09).transl(7.940043385151139e-08, -4e-08, 0))
hIsland = hIsland.sub(rect(7.843515034406255e-09, -1.6949295207713608e-09).transl(-3.0534564498226336e-08, -4e-08, 0))
hIsland = hIsland.add(rect(6.7702442903296735e-09, 3.921054049014004e-09).transl(-8.705976574924999e-08, -4e-08, 0))
hIsland = hIsland.add(rect(5.617913169785391e-09, 5.823965451499304e-10).transl(-4.719486298635157e-08, -4e-08, 0))
hIsland = hIsland.add(rect(5.919897524487464e-09, 3.4048760943749064e-10).transl(-4.81856236671378e-09, -4e-08, 0))
hIsland = hIsland.add(rect(8.619652976921878e-09, 1.6427198406876576e-09).transl(-2.052530358719374e-08, -4e-08, 0))
hIsland = hIsland.add(rect(4.742790019562351e-09, 2.746736192765863e-09).transl(-3.098425924196732e-08, -4e-08, 0))
hIsland = hIsland.add(rect(9.48460149638958e-09, 2.7522199532424117e-09).transl(-4.802555851962199e-08, -4e-08, 0))
hIsland = hIsland.sub(rect(5.412413386971664e-09, -2.7041967870882913e-10).transl(-3.6655003699557646e-08, -4e-08, 0))
hIsland = hIsland.sub(rect(7.777522249811296e-09, -1.886403323769902e-09).transl(2.3426177474713416e-09, -4e-08, 0))
hIsland = hIsland.sub(rect(7.336149541252198e-09, -9.39953522097209e-11).transl(4.507713331898626e-08, -4e-08, 0))
hIsland = hIsland.add(rect(3.0756660381448722e-09, 3.148191123901429e-09).transl(-2.292443842523963e-09, -4e-08, 0))
hIsland = hIsland.sub(rect(7.143502114610455e-09, -2.7584157441882327e-09).transl(1.1081831559713304e-07, -3.085518475985768e-08, 0))
hIsland = hIsland.sub(rect(6.654864572037146e-09, -2.6737267807036835e-09).transl(-1.0019154529221893e-07, -4e-08, 0))
hIsland = hIsland.sub(rect(9.195117666813114e-09, -3.1154346785463505e-09).transl(1.738086468395827e-08, -4e-08, 0))
hIsland = hIsland.sub(rect(6.354497614755793e-09, -2.5923785968966087e-09).transl(-7.1318302326677805e-09, -4e-08, 0))
hIsland = hIsland.add(rect(3.882689657257161e-09, 1.3042667536863166e-09).transl(5.997234199821546e-08, -4e-08, 0))
hIsland = hIsland.add(rect(7.000170196377341e-09, 2.069873301100962e-10).transl(1.8080079427146284e-08, -4e-08, 0))
hIsland = hIsland.add(rect(3.122293847152431e-09, 8.893721000861476e-10).transl(7.938680588742729e-08, -4e-08, 0))
hIsland = hIsland.add(rect(8.281425209309516e-09, 1.2200215478244145e-09).transl(-5.4599687095361446e-08, -4e-08, 0))
hIsland = hIsland.add(rect(3.253957476337422e-09, 1.7449979505625528e-09).transl(-9.401840810460972e-10, -4e-08, 0))
hIsland = hIsland.add(rect(2.0703998433732925e-09, 2.0764923076310456e-09).transl(-4.872432624276389e-08, -4e-08, 0))
hIsland = hIsland.add(rect(3.396198166719388e-09, 1.039437360649107e-10).transl(-1.1347243598062994e-07, -1.9920604788000266e-08, 0))
hIsland = hIsland.add(rect(3.8113559445342655e-09, 9.446819012485018e-12).transl(-1.8177594993909998e-08, -4e-08, 0))
hIsland = hIsland.sub(rect(5.830597110291393e-09, -9.114813772045198e-10).transl(-9.856541176583046e-09, -4e-08, 0))
hIsland = hIsland.add(rect(5.324185852246989e-09, 5.387359066679705e-10).transl(5.3203634200541006e-08, -4e-08, 0))
hIsland = hIsland.sub(rect(4.06190226226092e-09, -4.1185717414942226e-10).transl(-9.800363289557513e-10, -4e-08, 0))
hIsland = hIsland.sub(rect(4.854548680104755e-09, -6.226428093487986e-10).transl(9.224444987125036e-08, -4e-08, 0))
hIsland = hIsland.add(rect(6.418745643384735e-09, 1.8715312118886695e-09).transl(1.0249969436378548e-07, -4e-08, 0))
hIsland = hIsland.add(rect(6.41600359685964e-09, 8.968144038439157e-10).transl(-5.700424061807125e-08, -4e-08, 0))
hIsland = hIsland.add(rect(4.6657302355703895e-09, 1.6201539387452346e-09).transl(-1.8681393532610985e-08, -4e-08, 0))
hIsland = hIsland.sub(rect(4.1448192192407e-09, -1.6585806069637532e-09).transl(-9.110095545498686e-08, -4e-08, 0))
hIsland = hIsland.add(rect(7.829116826177088e-09, 2.307644193232265e-09).transl(2.6966225445277094e-08, -4e-08, 0))
hIsland = hIsland.sub(rect(8.748764472730475e-09, -3.105657476960432e-09).transl(5.748222370132115e-08, -4e-08, 0))
hIsland = hIsland.add(rect(6.304430834252559e-09, 2.9412687173928957e-09).transl(9.2604071087115e-08, -4e-08, 0))
hIsland = hIsland.add(rect(2.6750565945892187e-09, 4.663767968013929e-10).transl(3.67213765438084e-08, -4e-08, 0))
hIsland = hIsland.add(rect(4.080879426238862e-09, 2.3817983946588858e-09).transl(5.319928554424064e-08, -4e-08, 0))
hIsland = hIsland.sub(rect(8.45137199573648e-09, -1.4601010377439818e-09).transl(4.314000255977785e-08, -4e-08, 0))
hIsland = hIsland.add(rect(7.896920653395697e-09, 2.6134774061760334e-10).transl(-7.231022008682651e-08, -4e-08, 0))
hIsland = hIsland.sub(rect(4.619196104082393e-09, -9.076817297575971e-10).transl(-1.0834231560393807e-07, -3.628110866172368e-08, 0))
hIsland = hIsland.sub(rect(9.525762070603151e-09, -1.3548021538865126e-09).transl(-6.80050812706525e-08, -4e-08, 0))
hIsland = hIsland.sub(rect(7.597266761594068e-09, -1.0227230097225815e-09).transl(-1.6217731540670087e-08, -4e-08, 0))
hIsland = hIsland.add(rect(9.869298566356946e-09, 1.552027411813985e-10).transl(-8.83280700459821e-08, -4e-08, 0))
hIsland = hIsland.add(rect(2.832952595870862e-09, 1.0652727874521698e-09).transl(9.835871814634908e-09, -4e-08, 0))
hIsland = hIsland.sub(rect(6.99783103397304e-09, -1.885441098322951e-10).transl(-1.0085466802408218e-08, -4e-08, 0))
hIsland = hIsland.sub(rect(5.625611179547005e-09, -2.1847645688649623e-09).transl(2.2400407484136037e-08, -4e-08, 0))
hIsland = hIsland.sub(rect(5.5521043740970195e-09, -1.258527477168435e-09).transl(7.644645238486281e-08, -4e-08, 0))
hIsland = hIsland.sub(rect(7.060586715226445e-09, -1.3345210984771311e-09).transl(-4.776799453850396e-08, -4e-08, 0))
hIsland = hIsland.add(rect(7.657715309520116e-09, 1.3621253290388552e-09).transl(-2.0770676617819714e-08, -4e-08, 0))
hIsland = hIsland.sub(rect(2.689466275363138e-09, -1.4535241627821824e-09).transl(-8.301604595105625e-08, -4e-08, 0))
hIsland = hIsland.add(rect(6.649323946278707e-09, 4.089642000278556e-10).transl(-4.318649846880085e-08, -4e-08, 0))
hIsland = hIsland.add(rect(3.960496368306056e-09, 2.0347942424534128e-09).transl(5.364040271312143e-08, -4e-08, 0))
hIsland = hIsland.add(rect(7.011826592295889e-09, 1.3569423215879918e-09).transl(-2.998815559603097e-08, -4e-08, 0))
hIsland = hIsland.sub(rect(6.111323090566487e-09, -5.787427908464361e-10).transl(1.912544992169408e-08, -4e-08, 0))
hIsland = hIsland.sub(rect(4.7376118815984346e-09, -1.0144000399891816e-09).transl(3.027389090728152e-08, -4e-08, 0))
hIsland = hIsland.sub(rect(5.9139242402924704e-09, -4.292894810807304e-09).transl(9.139205761373577e-08, -4e-08, 0))
hIsland = hIsland.sub(rect(9.363390781470358e-09, -1.0953846146123e-09).transl(8.170498106707308e-08, -4e-08, 0))
hIsland = hIsland.add(rect(2.320744560619004e-09, 2.305629334055143e-09).transl(-1.096085249589669e-08, -4e-08, 0))
hIsland = hIsland.sub(rect(3.376794420999331e-09, -1.0899571312147812e-09).transl(-1.40122281940546e-08, -4e-08, 0))
hIsland = hIsland.add(rect(5.269187320885422e-09, 2.35770728936054e-09).transl(-8.856465341432512e-08, -4e-08, 0))
hIsland = hIsland.sub(rect(2.3514253404820452e-09, -4.526088892445348e-09).transl(6.958230401309787e-08, -4e-08, 0))
hIsland = hIsland.sub(rect(9.109079325109644e-09, -1.6772465510549869e-09).transl(-1.1007278059256218e-07, -3.2822797238124824e-08, 0))
hIsland = hIsland.sub(rect(6.214565845871242e-09, -9.416716743896584e-10).transl(8.620932836683793e-08, -4e-08, 0))
hIsland = hIsland.sub(rect(3.309678448228183e-09, -8.083544334860282e-10).transl(-3.2822414044713513e-08, -4e-08, 0))
hIsland = hIsland.sub(rect(8.641017196420397e-09, -1.5501851310838202e-09).transl(-1.2057346010883048e-08, -4e-08, 0))
hIsland = hIsland.add(rect(3.903858255330073e-09, 1.0029461805140475e-09).transl(8.226024171578786e-08, -4e-08, 0))
hIsland = hIsland.sub(rect(5.440454471046744e-09, -1.2291000278297855e-09).transl(9.815895278493329e-08, -4e-08, 0))
hIsland = hIsland.sub(rect(6.44095915146445e-09, -2.6644923193090194e-09).transl(-3.091298992468073e-08, -4e-08, 0))
hIsland = hIsland.add(rect(5.228189540573611e-09, 1.4642172389666337e-09).transl(-7.87282198001855e-08, -4e-08, 0))
hIsland = hIsland.sub(rect(5.549496364962614e-09, -9.33523560644389e-10).transl(-1.1410320925617313e-07, -1.54858617272114e-08, 0))
hIsland = hIsland.add(rect(7.431192787482995e-09, 6.610112626853964e-11).transl(-6.147458976424209e-08, -4e-08, 0))
hIsland = hIsland.sub(rect(3.530507281557056e-09, -2.9777813772826873e-09).transl(-8.079123419717424e-09, -4e-08, 0))
hIsland = hIsland.sub(rect(8.124181093144412e-09, -3.597217793956318e-09).transl(5.9238713238498574e-08, -4e-08, 0))
hIsland = hIsland.sub(rect(8.763026673372058e-09, -2.048513748599611e-09).transl(-3.053311648062482e-08, -4e-08, 0))
hIsland = hIsland.add(rect(6.1476356129197476e-09, 3.3880438641207248e-09).transl(-6.899672527504166e-08, -4e-08, 0))
hIsland = hIsland.add(rect(7.911657006186163e-09, 1.2262434844605056e-09).transl(-1.632393749783311e-08, -4e-08, 0))
hIsland = hIsland.sub(rect(6.0925257029663695e-09, -1.3750034923322048e-10).transl(-6.073616415135434e-08, -4e-08, 0))
hIsland = hIsland.sub(rect(6.7427537518241356e-09, -1.7323933429382785e-09).transl(-8.970451813613013e-09, -4e-08, 0))
hIsland = hIsland.sub(rect(6.652587156901434e-09, -7.606710920444402e-10).transl(4.293841269523307e-08, -4e-08, 0))
hIsland = hIsland.add(rect(2.4064266049279662e-09, 1.515545511397885e-09).transl(-1.4860446788033137e-08, -4e-08, 0))
hIsland = hIsland.add(rect(4.00481970884022e-09, 1.6989864945455856e-09).transl(1.0544428136109987e-07, -3.942417593632944e-08, 0))
hIsland = hIsland.add(rect(3.444557935354788e-09, 1.6311183294059907e-09).transl(-7.067633778416515e-09, -4e-08, 0))
hIsland = hIsland.add(rect(6.06220784191126e-09, 1.3301205855847656e-09).transl(-5.692732058441415e-08, -4e-08, 0))
hIsland = hIsland.add(rect(3.0585459374760594e-09, 2.457039829873831e-09).transl(-7.806184566997717e-08, -4e-08, 0))
hIsland = hIsland.sub(rect(7.492571381240067e-09, -1.4881600426829945e-10).transl(1.0575120460450021e-07, -3.9226097994840366e-08, 0))
hIsland = hIsland.sub(rect(6.997739560621956e-09, -1.003164893363966e-10).transl(7.964688401486826e-09, -4e-08, 0))
hIsland = hIsland.sub(rect(6.79809037985879e-09, -1.347090789593671e-09).transl(2.4058595005715173e-09, -4e-08, 0))
hIsland = hIsland.sub(rect(6.5589253240240145e-09, -1.0011532693154657e-09).transl(3.834837334304773e-08, -4e-08, 0))
hIsland = hIsland.sub(rect(2.2362575020964776e-09, -2.0475684437999973e-09).transl(-2.4189212113692766e-08, -4e-08, 0))
hIsland = hIsland.sub(rect(6.944292244646935e-09, -1.5751272324263298e-09).transl(-1.3036671001000039e-09, -4e-08, 0))
hIsland = hIsland.add(rect(9.45642191681299e-09, 3.6662742903737346e-09).transl(-4.201262244480715e-08, -4e-08, 0))
hIsland = hIsland.add(rect(3.918225010052835e-09, 1.7041000721147785e-09).transl(1.1006313317496421e-07, -3.284614448367849e-08, 0))
hIsland = hIsland.add(rect(7.225907022054666e-09, 6.502575856789949e-10).transl(3.25259021022531e-08, -4e-08, 0))
hIsland = hIsland.add(rect(2.601287725033556e-09, 3.301932837378486e-09).transl(-2.833390808477355e-08, -4e-08, 0))
hIsland = hIsland.add(rect(7.005743093719214e-09, 1.6020231603555853e-09).transl(1.0659512674010728e-07, -3.8524026307631093e-08, 0))
hIsland = hIsland.sub(rect(5.428610393861424e-09, -6.477271137655908e-10).transl(1.1480565228715021e-08, -4e-08, 0))
hIsland = hIsland.add(rect(9.461942185753558e-09, 1.887194686464404e-09).transl(7.878523434427548e-08, -4e-08, 0))
hIsland = hIsland.sub(rect(7.711841381854032e-09, -7.926044926457418e-10).transl(2.339832686950251e-09, -4e-08, 0))
hIsland = hIsland.add(rect(3.757591271424801e-09, 2.2884531446744053e-09).transl(6.875720535647515e-08, -4e-08, 0))
hIsland = hIsland.sub(rect(7.68552386740901e-09, -1.407492530472707e-09).transl(-9.77618111270963e-08, -4e-08, 0))
hIsland = hIsland.sub(rect(8.407322581325755e-09, -7.320603319339304e-10).transl(-7.479516904575674e-08, -4e-08, 0))
hIsland = hIsland.add(rect(2.398607159626315e-09, 1.3883315017279718e-09).transl(8.290000151038919e-08, -4e-08, 0))
hIsland = hIsland.sub(rect(2.033101070808037e-09, -6.47797611676253e-10).transl(8.654325788976615e-08, -4e-08, 0))
hIsland = hIsland.sub(rect(3.171900696946374e-09, -6.016275185517556e-10).transl(1.264431825613271e-08, -4e-08, 0))
hIsland = hIsland.add(rect(6.4762740822440024e-09, 1.7598915298895993e-09).transl(-3.1653535764657915e-08, -4e-08, 0))
hIsland = hIsland.sub(rect(5.639013411640999e-09, -6.279609844159788e-10).transl(-7.704962022838133e-08, -4e-08, 0))
hIsland = hIsland.add(rect(5.984985863005961e-09, 3.574203331207785e-09).transl(5.176487355731616e-08, -4e-08, 0))
hIsland = hIsland.sub(rect(8.48335195766197e-09, -2.4472514704505075e-10).transl(6.611292414944787e-08, -4e-08, 0))
hIsland = hIsland.sub(rect(2.1832734128045027e-09, -1.2743804423144762e-09).transl(4.951545561979329e-09, -4e-08, 0))
hIsland = hIsland.sub(rect(8.10646685075286e-09, -1.6378822733725828e-09).transl(5.1612648984953146e-08, -4e-08, 0))
hIsland = hIsland.sub(rect(8.004959306782095e-09, -1.4571180657022497e-10).transl(6.387559855043018e-08, -4e-08, 0))
hIsland = hIsland.sub(rect(3.982883167497153e-09, -3.348554662644251e-09).transl(-1.442610836025392e-08, -4e-08, 0))
hIsland = hIsland.add(rect(9.959498316555653e-09, 3.8271012152322896e-09).transl(-3.01388361186836e-08, -4e-08, 0))
hIsland = hIsland.sub(rect(4.555337707496261e-09, -9.585491409144739e-10).transl(-1.11397263028963e-07, -2.9076937072295466e-08, 0))
hIsland = hIsland.add(rect(3.188840399307128e-09, 2.0303520090650797e-09).transl(2.815748106141209e-08, -4e-08, 0))
hIsland = hIsland.sub(rect(8.98459790248938e-09, -5.264269522468729e-10).transl(1.0161681219578162e-07, -4e-08, 0))
hIsland = hIsland.add(rect(2.5814024868317286e-09, 1.6431120807638664e-09).transl(1.8179783841767792e-08, -4e-08, 0))
hIsland = hIsland.add(rect(2.5825178028272558e-09, 6.471516857926596e-12).transl(-2.924930897053545e-08, -4e-08, 0))
hIsland = hIsland.add(rect(6.351589303516688e-09, 2.04333156783489e-09).transl(-3.61652144750997e-08, -4e-08, 0))
hIsland = hIsland.sub(rect(9.544296041524579e-09, -7.112047232341621e-10).transl(5.8576475139493605e-08, -4e-08, 0))
hIsland = hIsland.sub(rect(8.630714869676052e-09, -7.38641455209887e-10).transl(-1.0812885581847841e-08, -4e-08, 0))
hIsland = hIsland.sub(rect(6.295820489105842e-09, -1.4371891552141816e-09).transl(7.16654781468891e-08, -4e-08, 0))
hIsland = hIsland.add(rect(2.705434290365899e-09, 1.3823080457809425e-09).transl(7.19647012238945e-08, -4e-08, 0))
hIsland = hIsland.add(rect(5.000924756101929e-09, 1.891050983218534e-09).transl(3.109479192503127e-08, -4e-08, 0))
hIsland = hIsland.sub(rect(7.167832175492386e-09, -1.1200649010761858e-09).transl(-1.1021842556270373e-08, -4e-08, 0))
hIsland = hIsland.sub(rect(5.727882723391432e-09, -1.0066820681703346e-09).transl(-1.1472681726838955e-07, -8.666786190806924e-09, 0))
hIsland = hIsland.sub(rect(4.178989757206772e-09, -1.393053555268348e-09).transl(-6.771918268685565e-08, -4e-08, 0))
hIsland = hIsland.add(rect(9.12562679485775e-09, 2.541709837929027e-09).transl(6.51167272638558e-08, -4e-08, 0))
hIsland = hIsland.add(rect(2.5637772187268686e-09, 1.431061704595617e-09).transl(-5.4356407589383e-08, -4e-08, 0))
hIsland = hIsland.add(rect(2.626137931904876e-09, 1.5962717049000085e-09).transl(-3.0395743590006395e-08, -4e-08, 0))
hIsland = hIsland.sub(rect(2.469502427310392e-09, -3.9213352426452426e-10).transl(8.610434872573646e-09, -4e-08, 0))
hIsland = hIsland.sub(rect(2.836314802595048e-09, -1.0143040123328784e-09).transl(8.270717938316291e-08, -4e-08, 0))
hIsland = hIsland.add(rect(3.351800844642397e-09, 2.5209060376501047e-09).transl(-3.246641187566137e-08, -4e-08, 0))
hIsland = hIsland.add(rect(2.303166205329762e-09, 2.964270901957751e-11).transl(-6.006543338400052e-08, -4e-08, 0))
hIsland = hIsland.sub(rect(2.3505783397127777e-09, -1.3291368760568821e-09).transl(4.279775921683078e-08, -4e-08, 0))
hIsland = hIsland.add(rect(5.213217067089515e-09, 3.928819188259337e-09).transl(9.221747610736806e-08, -4e-08, 0))
hIsland = hIsland.sub(rect(9.379722685343653e-09, -3.815667867034713e-09).transl(-3.849693088693778e-08, -4e-08, 0))
hIsland = hIsland.add(rect(6.4665007712013536e-09, 1.2097696412815018e-09).transl(3.0546832025190404e-08, -4e-08, 0))
hIsland = hIsland.sub(rect(6.687645470270195e-09, -1.5256075251884943e-09).transl(3.10269450867278e-08, -4e-08, 0))
hIsland = hIsland.add(rect(8.370961792311787e-09, 3.1046513080275645e-09).transl(-4.937939852821804e-08, -4e-08, 0))
hIsland = hIsland.sub(rect(8.225671663913541e-09, -2.1485902432514854e-09).transl(-8.976617687128533e-08, -4e-08, 0))
hIsland = hIsland.sub(rect(7.833741704066474e-09, -5.844715462608572e-10).transl(-9.62855894281371e-09, -4e-08, 0))
hIsland = hIsland.sub(rect(9.138284641515611e-09, -2.4056757928762875e-10).transl(-6.113129202046166e-08, -4e-08, 0))
hIsland = hIsland.add(rect(3.636386596475398e-09, 1.7063775542112917e-10).transl(5.330819445877735e-09, -4e-08, 0))
hIsland = hIsland.add(rect(7.842419468025255e-09, 1.7427386793267455e-10).transl(7.057077107308959e-09, -4e-08, 0))
hIsland = hIsland.add(rect(2.4335904515739078e-09, 5.564424066973765e-10).transl(6.360497237696756e-09, -4e-08, 0))
hIsland = hIsland.add(rect(7.221496505525065e-09, 1.531875558698105e-09).transl(1.0413625076718329e-07, -3.993873341447458e-08, 0))
hIsland = hIsland.sub(rect(7.681503279712973e-09, -9.679746287219444e-10).transl(-7.401282172979986e-08, -4e-08, 0))
hIsland = hIsland.add(rect(5.690167436002203e-09, 1.3612304154409263e-09).transl(5.874654412058449e-08, -4e-08, 0))
hIsland = hIsland.add(rect(6.8542592719326696e-09, 1.1791693428037505e-09).transl(-4.152045681161337e-08, -4e-08, 0))
hIsland = hIsland.add(rect(7.006365061060208e-09, 1.1136218266496249e-09).transl(1.1408489476308628e-07, -1.5636708438489775e-08, 0))
hIsland = hIsland.add(rect(6.7574576648969405e-09, 7.692173766763631e-10).transl(-1.0753990078219237e-07, -3.745058220056377e-08, 0))
hIsland = hIsland.sub(rect(7.410662855343561e-09, -9.62494415487036e-10).transl(4.6921289484072755e-08, -4e-08, 0))
hIsland = hIsland.add(rect(6.801597433315817e-09, 2.9620171304314114e-09).transl(-2.3427341265507157e-08, -4e-08, 0))
hIsland = hIsland.add(rect(5.396041083827471e-09, 2.133116340512803e-09).transl(-6.548088234425388e-08, -4e-08, 0))
hIsland = hIsland.sub(rect(3.8143324927141365e-09, -1.1652547252965977e-09).transl(-7.734213280811976e-08, -4e-08, 0))
hIsland = hIsland.add(rect(4.0913501368490856e-09, 5.706321497208204e-10).transl(2.7822814920705792e-08, -4e-08, 0))
hIsland = hIsland.sub(rect(5.766624645225147e-09, -2.0893439842530183e-10).transl(-1.0798158209381778e-07, -3.6837627173716755e-08, 0))
hIsland = hIsland.add(rect(2.8528153359473035e-09, 1.7933682573207733e-09).transl(5.9040422461409816e-08, -4e-08, 0))
hIsland = hIsland.add(rect(5.783943854073167e-09, 1.8186582918694156e-10).transl(-8.405946407149412e-08, -4e-08, 0))
hIsland = hIsland.sub(rect(3.6574881846138916e-09, -3.4662566131314547e-09).transl(-6.806188097277761e-08, -4e-08, 0))
hIsland = hIsland.sub(rect(3.0842379996540957e-09, -1.8362011469506023e-09).transl(1.115385034424092e-07, -2.860485501512466e-08, 0))
hIsland = hIsland.add(rect(8.870104838356178e-09, 1.2019874904227907e-09).transl(1.0328770031607811e-07, -4e-08, 0))
hIsland = hIsland.add(rect(7.436879842749515e-09, 4.419364183083185e-09).transl(5.361657503207562e-08, -4e-08, 0))
hIsland = hIsland.add(rect(8.210255734224531e-09, 2.041193938273102e-10).transl(6.612555178712811e-08, -4e-08, 0))
hIsland = hIsland.add(rect(6.074551184976069e-09, 6.342191744369126e-09).transl(4.453457426752491e-08, -4e-08, 0))
hIsland = hIsland.sub(rect(3.893438920030825e-09, -5.978670037697607e-10).transl(9.214839713709434e-08, -4e-08, 0))
hIsland = hIsland.add(rect(7.04603397089294e-09, 1.5982312624575867e-09).transl(8.769917004369904e-08, -4e-08, 0))
hIsland = hIsland.sub(rect(5.363754171339945e-09, -8.13614225491803e-11).transl(3.9975618173746314e-08, -4e-08, 0))
hIsland = hIsland.add(rect(8.457950835861312e-09, 1.1052067770874047e-09).transl(-7.832135010916746e-10, -4e-08, 0))
hIsland = hIsland.sub(rect(3.6826106256147802e-09, -4.1733901205450195e-10).transl(5.8891191905615174e-09, -4e-08, 0))
hIsland = hIsland.sub(rect(5.844203285130101e-09, -2.3463957403253754e-09).transl(-2.7022517410291362e-08, -4e-08, 0))
hIsland = hIsland.sub(rect(7.224486924311065e-09, -1.2395218513847947e-09).transl(-3.117707923016376e-08, -4e-08, 0))
hIsland = hIsland.sub(rect(6.800417900515497e-09, -3.4382947727886306e-09).transl(2.019993524944854e-08, -4e-08, 0))
hIsland = hIsland.add(rect(6.914479280616942e-09, 1.7891484069644828e-09).transl(5.04550789286491e-09, -4e-08, 0))
hIsland = hIsland.add(rect(2.564669693215218e-09, 1.0582483372672794e-09).transl(-5.068705802830234e-08, -4e-08, 0))
hIsland = hIsland.add(rect(5.174083054625598e-09, 1.8789119332930687e-09).transl(-4.059311961541439e-09, -4e-08, 0))
hIsland = hIsland.sub(rect(5.440286243822029e-09, -4.166506363388352e-09).transl(-1.4623988090900832e-08, -4e-08, 0))
hIsland = hIsland.add(rect(8.02400570510673e-09, 1.366836206513518e-09).transl(-5.583291708691543e-08, -4e-08, 0))
hIsland = hIsland.add(rect(2.7128484726122465e-09, 8.017900594902476e-10).transl(-8.244528199648727e-08, -4e-08, 0))
hIsland = hIsland.sub(rect(9.531887509421214e-09, -4.924361953346867e-10).transl(-6.233764480002393e-09, -4e-08, 0))
hIsland = hIsland.sub(rect(5.74558085580435e-09, -2.10861913671023e-09).transl(1.0557606024713597e-08, -4e-08, 0))
hIsland = hIsland.sub(rect(4.94029777255527e-09, -5.931811921756884e-10).transl(7.64989302933806e-08, 4e-08, 0))
hIsland = hIsland.add(rect(3.6224157571719184e-09, 1.7021405351406284e-09).transl(7.047232939212601e-08, 4e-08, 0))
hIsland = hIsland.add(rect(6.488955593762405e-09, 1.834936627239812e-10).transl(8.611890997589839e-08, 4e-08, 0))
hIsland = hIsland.sub(rect(7.234724754653719e-09, -1.4297312891181148e-09).transl(3.8063914197297844e-08, 4e-08, 0))
hIsland = hIsland.add(rect(3.178549884647368e-09, 1.618844966536014e-09).transl(-9.865394272319382e-08, 4e-08, 0))
hIsland = hIsland.add(rect(7.1851809111235536e-09, 1.880156629553704e-09).transl(6.096478870806381e-08, 4e-08, 0))
hIsland = hIsland.sub(rect(7.796710886445101e-09, -1.851091456545107e-09).transl(2.5799327979547652e-08, 4e-08, 0))
hIsland = hIsland.add(rect(8.999303633209041e-09, 4.313197438866697e-09).transl(7.85442630852402e-08, 4e-08, 0))
hIsland = hIsland.sub(rect(5.352384937276833e-09, -1.7333537079584124e-10).transl(9.771029158258761e-08, 4e-08, 0))
hIsland = hIsland.sub(rect(6.298024303265875e-09, -7.680268150121076e-11).transl(-5.75081570933137e-09, 4e-08, 0))
hIsland = hIsland.sub(rect(4.1108736170190225e-09, -4.853171420012283e-10).transl(9.539867757667714e-08, 4e-08, 0))
hIsland = hIsland.add(rect(8.046032749648024e-09, 5.439962070730185e-10).transl(4.3091061293100195e-08, 4e-08, 0))
hIsland = hIsland.sub(rect(6.99677342987082e-09, -1.5822278382094637e-09).transl(-1.0188242749861013e-07, 4e-08, 0))
hIsland = hIsland.add(rect(7.80269373398589e-09, 1.7097401629651046e-09).transl(8.134452210513418e-08, 4e-08, 0))
hIsland = hIsland.sub(rect(6.94708347777353e-09, -7.432471918841928e-10).transl(4.1101167069259914e-08, 4e-08, 0))
hIsland = hIsland.add(rect(9.411789566131873e-09, 1.5458146290388428e-09).transl(1.5456689013572658e-08, 4e-08, 0))
hIsland = hIsland.sub(rect(6.196052080897892e-09, -2.294099356314717e-09).transl(3.748731081431586e-08, 4e-08, 0))
hIsland = hIsland.add(rect(2.3388744299695175e-09, 4.697337796311213e-09).transl(9.48814793150586e-08, 4e-08, 0))
hIsland = hIsland.add(rect(3.382657851628758e-09, 1.8788741109946355e-09).transl(1.0656986622476387e-07, 3.854847184889389e-08, 0))
hIsland = hIsland.add(rect(3.829885268429718e-09, 1.55593996190842e-09).transl(5.633959939496883e-08, 4e-08, 0))
hIsland = hIsland.add(rect(4.159405049454662e-09, 9.49316125131686e-10).transl(-9.52398442928231e-08, 4e-08, 0))
hIsland = hIsland.add(rect(6.194279095888238e-09, 2.0603140290625954e-09).transl(4.980899862899318e-09, 4e-08, 0))
hIsland = hIsland.add(rect(7.772074170256073e-09, 4.750743101364762e-09).transl(8.995968714087613e-08, 4e-08, 0))
hIsland = hIsland.sub(rect(5.070135096458991e-09, -3.2226586267746053e-09).transl(1.1329263816996004e-07, 2.0971991453466888e-08, 0))
hIsland = hIsland.sub(rect(6.118261683731647e-09, -2.4138092660035507e-09).transl(-4.577714253498389e-08, 4e-08, 0))
hIsland = hIsland.add(rect(6.821036805866757e-09, 7.78167484438248e-10).transl(9.02975523419279e-08, 4e-08, 0))
hIsland = hIsland.sub(rect(9.094141590015752e-09, -2.670763769997406e-10).transl(-6.24015104986058e-08, 4e-08, 0))
hIsland = hIsland.add(rect(2.2583787669755885e-09, 2.4401387697776773e-09).transl(1.033060441865874e-07, 4e-08, 0))
hIsland = hIsland.add(rect(9.17442081682049e-09, 1.8586109431082952e-09).transl(1.0075119798549157e-07, 4e-08, 0))
hIsland = hIsland.sub(rect(2.4689977162891286e-09, -8.091135737191501e-10).transl(-3.3088199457346366e-08, 4e-08, 0))
hIsland = hIsland.add(rect(2.54882607429688e-09, 8.98023535634373e-10).transl(-1.0422455830155763e-07, 3.992052827690565e-08, 0))
hIsland = hIsland.add(rect(8.361296966367334e-09, 4.609253616794013e-09).transl(1.3981542172844013e-08, 4e-08, 0))
hIsland = hIsland.add(rect(7.19814288957782e-09, 2.0897322916138353e-10).transl(9.782110223659077e-08, 4e-08, 0))
hIsland = hIsland.sub(rect(9.177892894419375e-09, -8.659516729623855e-10).transl(-4.066176186173932e-08, 4e-08, 0))
hIsland = hIsland.add(rect(7.786586119484816e-09, 3.080441018279522e-09).transl(1.2251592816889849e-08, 4e-08, 0))
hIsland = hIsland.sub(rect(8.958981979431595e-09, -8.458024114465963e-10).transl(1.5650854587631528e-08, 4e-08, 0))
hIsland = hIsland.sub(rect(8.278458207492043e-09, -1.8949792033190038e-10).transl(7.790145769657506e-08, 4e-08, 0))
hIsland = hIsland.sub(rect(5.722550752913328e-09, -3.665447077823637e-12).transl(-9.137969014312844e-08, 4e-08, 0))
hIsland = hIsland.add(rect(4.960993091122874e-09, 4.036805578001735e-10).transl(-3.320180094653114e-08, 4e-08, 0))
hIsland = hIsland.sub(rect(9.78735441531082e-09, -6.266166460450149e-10).transl(6.486663590703578e-08, 4e-08, 0))
hIsland = hIsland.sub(rect(6.040620827133133e-09, -4.022811630584679e-10).transl(-7.827076200400269e-08, 4e-08, 0))
hIsland = hIsland.add(rect(8.869447829582059e-09, 2.842411317283299e-10).transl(-3.3810567617065674e-09, 4e-08, 0))
hIsland = hIsland.sub(rect(8.859951004288566e-09, -1.0082201560133771e-09).transl(6.02728571712665e-08, 4e-08, 0))
hIsland = hIsland.sub(rect(3.0633276442497064e-09, -1.6390228377890317e-09).transl(-4.0764489844084406e-08, 4e-08, 0))
hIsland = hIsland.sub(rect(4.624462102884817e-09, -1.7134351739712112e-09).transl(-1.0375515453123706e-07, 3.9990153217529154e-08, 0))
hIsland = hIsland.sub(rect(6.134449721545774e-09, -5.2618013627034045e-09).transl(1.6609782227470292e-08, 4e-08, 0))
hIsland = hIsland.sub(rect(2.134826454258129e-09, -5.515539151786061e-10).transl(8.084349807828957e-09, 4e-08, 0))
hIsland = hIsland.add(rect(4.93351768970756e-09, 2.3794347358124473e-09).transl(-8.149819168709239e-09, 4e-08, 0))
hIsland = hIsland.add(rect(9.382500439560207e-09, 2.9100946286386112e-09).transl(6.206928057397868e-08, 4e-08, 0))
hIsland = hIsland.add(rect(3.677274471354113e-09, 1.473275143130506e-09).transl(-1.0190484326701667e-07, 4e-08, 0))
hIsland = hIsland.add(rect(2.1126726440807426e-09, 1.9632037805474648e-10).transl(4.887695602662846e-10, 4e-08, 0))
hIsland = hIsland.sub(rect(3.6318123940368045e-09, -1.2096621801574382e-09).transl(-7.234854686897555e-08, 4e-08, 0))
hIsland = hIsland.add(rect(2.2084058740315024e-09, 2.223543621944419e-10).transl(2.978864087952457e-08, 4e-08, 0))
hIsland = hIsland.add(rect(6.669163640242871e-09, 1.1324358976267311e-09).transl(1.888675829424384e-08, 4e-08, 0))
hIsland = hIsland.sub(rect(3.25124747870977e-09, -4.954887385636728e-10).transl(2.728397623377584e-09, 4e-08, 0))
hIsland = hIsland.add(rect(3.858564330916082e-09, 2.8370055796819917e-09).transl(8.563496543593476e-08, 4e-08, 0))
hIsland = hIsland.add(rect(9.975194761745331e-09, 5.757481336855585e-10).transl(-6.253348631250239e-08, 4e-08, 0))
hIsland = hIsland.add(rect(2.647928767931408e-09, 1.4595384542285922e-09).transl(7.159730342577079e-08, 4e-08, 0))
hIsland = hIsland.add(rect(4.78119007042154e-09, 3.5113229142347137e-09).transl(-8.111777222817547e-09, 4e-08, 0))
hIsland = hIsland.sub(rect(2.583052936770364e-09, -4.6787289083021294e-09).transl(4.6482892495770805e-08, 4e-08, 0))
hIsland = hIsland.add(rect(6.214417355394545e-09, 5.9551032328210246e-09).transl(2.0817462990222863e-08, 4e-08, 0))
hIsland = hIsland.add(rect(7.3523775291578625e-09, 1.9381324278598357e-09).transl(-3.7880672981694756e-08, 4e-08, 0))
hIsland = hIsland.add(rect(8.234672485293166e-09, 1.93821123031529e-09).transl(6.345110063483525e-08, 4e-08, 0))
hIsland = hIsland.sub(rect(9.891527003608986e-09, -2.634589299938245e-09).transl(-1.9087686908548944e-08, 4e-08, 0))
hIsland = hIsland.add(rect(3.615401959625522e-09, 2.974500972356492e-09).transl(-1.4158151942628826e-08, 4e-08, 0))
hIsland = hIsland.sub(rect(4.377791088882086e-09, -1.3698865033868154e-09).transl(3.9848974072444015e-08, 4e-08, 0))
hIsland = hIsland.sub(rect(6.306873574729817e-09, -9.210842865852847e-10).transl(-7.070321650661867e-08, 4e-08, 0))
hIsland = hIsland.add(rect(3.160261211207722e-09, 1.0489456968304964e-09).transl(6.553780947398858e-08, 4e-08, 0))
hIsland = hIsland.add(rect(6.838697449102739e-09, 2.620870515705829e-09).transl(-5.276944100981236e-08, 4e-08, 0))
hIsland = hIsland.add(rect(7.686429873064546e-09, 1.9237810707085958e-09).transl(-1.1871265609245477e-08, 4e-08, 0))
hIsland = hIsland.sub(rect(4.04971823436769e-09, -9.277763375190846e-10).transl(3.489053270358497e-08, 4e-08, 0))
hIsland = hIsland.add(rect(3.2891207241418503e-09, 1.0103844465170515e-11).transl(-9.465427355632888e-08, 4e-08, 0))
hIsland = hIsland.sub(rect(2.28601247573441e-09, -6.781737560235277e-10).transl(2.838491090146645e-08, 4e-08, 0))
hIsland = hIsland.add(rect(3.5282454363907567e-09, 3.3445334584621397e-09).transl(-7.487138923804942e-08, 4e-08, 0))
hIsland = hIsland.add(rect(3.807916733573877e-09, 1.429098959734636e-10).transl(6.84151924784613e-08, 4e-08, 0))
hIsland = hIsland.add(rect(2.89616681202437e-09, 2.643096027220756e-09).transl(1.0354872463843608e-07, 3.999964096770579e-08, 0))
hIsland = hIsland.sub(rect(2.5763874617517256e-09, -2.4905354209935546e-09).transl(-4.383697083160601e-08, 4e-08, 0))
hIsland = hIsland.sub(rect(2.38773418744748e-09, -1.5010248750668589e-09).transl(-1.0056912686312816e-07, 4e-08, 0))
hIsland = hIsland.add(rect(8.529434888977075e-09, 1.4582718230673437e-09).transl(5.3906623298873845e-08, 4e-08, 0))
hIsland = hIsland.add(rect(3.648913907722124e-09, 2.0404318276342778e-09).transl(-3.0459800384975136e-08, 4e-08, 0))
hIsland = hIsland.add(rect(9.309919124966191e-09, 1.3984516617315326e-09).transl(-1.0933461811890336e-07, 3.446941278544188e-08, 0))
hIsland = hIsland.sub(rect(2.1077929380284478e-09, -1.631185522959425e-09).transl(7.288404067754093e-08, 4e-08, 0))
hIsland = hIsland.sub(rect(4.294731424224713e-09, -3.85224160032243e-09).transl(-6.188868201694118e-08, 4e-08, 0))
hIsland = hIsland.add(rect(2.3084012454919984e-09, 1.570859060267482e-10).transl(8.626031740154959e-08, 4e-08, 0))
hIsland = hIsland.add(rect(8.401664757207828e-09, 4.2077917650959517e-10).transl(7.929224418095022e-09, 4e-08, 0))
hIsland = hIsland.add(rect(9.357813414394156e-09, 8.457278299777076e-10).transl(7.204452170106216e-08, 4e-08, 0))
hIsland = hIsland.sub(rect(5.540419980832157e-09, -5.602231132282742e-10).transl(2.129974511437175e-09, 4e-08, 0))
hIsland = hIsland.add(rect(7.906366074778144e-09, 2.375744868247493e-09).transl(5.07389828508442e-08, 4e-08, 0))
hIsland = hIsland.sub(rect(5.630245698051034e-09, -2.027831892575588e-09).transl(4.794556670600306e-08, 4e-08, 0))
hIsland = hIsland.sub(rect(3.2654368721524e-09, -4.116908767895891e-09).transl(-1.0678927523856859e-07, 3.8328898952098496e-08, 0))
hIsland = hIsland.sub(rect(9.11187589457806e-09, -1.214819714450677e-09).transl(-9.718293583804282e-08, 4e-08, 0))
hIsland = hIsland.add(rect(3.751059262967618e-09, 3.6227357933781513e-09).transl(2.26177675631984e-08, 4e-08, 0))
hIsland = hIsland.add(rect(7.818410959071636e-09, 6.566825784352072e-10).transl(-2.840274722196644e-08, 4e-08, 0))
hIsland = hIsland.add(rect(6.644650222190784e-09, 2.051905220151924e-09).transl(1.1263599107106397e-07, 2.4294019340590977e-08, 0))
hIsland = hIsland.sub(rect(4.957040457107587e-09, -1.801504260609423e-09).transl(8.851175398056957e-08, 4e-08, 0))
hIsland = hIsland.sub(rect(2.9445355236321324e-09, -6.999195601053995e-10).transl(2.4780206680225287e-08, 4e-08, 0))
hIsland = hIsland.sub(rect(6.4744679688117606e-09, -1.0908279857617933e-09).transl(-2.412738124226554e-08, 4e-08, 0))
hIsland = hIsland.add(rect(3.845894942878408e-09, 2.7853898106257177e-09).transl(-2.366934068868653e-08, 4e-08, 0))
hIsland = hIsland.add(rect(9.856744719946076e-09, 4.1317797678227296e-10).transl(-1.0335803485195046e-07, 4e-08, 0))
hIsland = hIsland.add(rect(9.778033414026616e-09, 1.6807802833604521e-09).transl(-7.14349998587039e-08, 4e-08, 0))
hIsland = hIsland.add(rect(8.762109551486937e-09, 3.3204684423792207e-09).transl(4.9578717880844705e-08, 4e-08, 0))
hIsland = hIsland.sub(rect(2.3583089615854676e-09, -1.939124621146289e-09).transl(5.1204067853531375e-08, 4e-08, 0))
hIsland = hIsland.sub(rect(6.885736145380263e-09, -1.2539062916317598e-09).transl(-5.198435163019553e-08, 4e-08, 0))
hIsland = hIsland.add(rect(6.621253441483331e-09, 2.9602996945103734e-09).transl(3.433090918413917e-08, 4e-08, 0))
hIsland = hIsland.add(rect(8.866633581832212e-09, 2.1184906994341146e-09).transl(1.5247768168189123e-08, 4e-08, 0))
hIsland = hIsland.sub(rect(3.4117487212548777e-09, -6.345150866009635e-10).transl(-1.0489274573503388e-07, 3.970557187433797e-08, 0))
hIsland = hIsland.add(rect(2.173631855015506e-09, 3.025049372293895e-09).transl(-3.8867525708716436e-08, 4e-08, 0))
hIsland = hIsland.add(rect(3.3908669244054455e-09, 2.2597440253154953e-09).transl(-6.755020906342089e-08, 4e-08, 0))
hIsland = hIsland.sub(rect(6.015272642812738e-09, -1.1006807257497472e-09).transl(-1.1317341630922694e-07, 2.1631040332954665e-08, 0))
hIsland = hIsland.add(rect(4.2813640348479345e-09, 3.238283633532245e-09).transl(-4.135773592329778e-08, 4e-08, 0))
hIsland = hIsland.sub(rect(9.09405588668587e-09, -3.704678680198585e-09).transl(-2.6403917943663385e-08, 4e-08, 0))
hIsland = hIsland.add(rect(6.255281210076501e-09, 1.4224959007476176e-09).transl(-5.7162180739815315e-09, 4e-08, 0))
hIsland = hIsland.sub(rect(8.66322748177426e-09, -7.039104958247637e-10).transl(-2.00370662354951e-08, 4e-08, 0))
hIsland = hIsland.add(rect(8.542078544663508e-09, 3.893329326014227e-09).transl(2.7082526094688205e-09, 4e-08, 0))
hIsland = hIsland.sub(rect(8.937696682827922e-09, -2.360919997580136e-09).transl(7.376648912751316e-08, 4e-08, 0))
hIsland = hIsland.add(rect(9.203543768852075e-09, 1.217375647240254e-09).transl(-9.523233653715337e-08, 4e-08, 0))
hIsland = hIsland.add(rect(9.919789797363581e-09, 2.507261144731654e-09).transl(-4.8810905376724096e-08, 4e-08, 0))
hIsland = hIsland.sub(rect(4.134972497594577e-09, -2.6435529619654394e-09).transl(9.795925165425491e-08, 4e-08, 0))
hIsland = hIsland.sub(rect(3.6876300193083936e-09, -1.4501893084047427e-09).transl(-8.127900354901442e-08, 4e-08, 0))
hIsland = hIsland.sub(rect(4.436359731423898e-09, -1.534714498758025e-09).transl(-7.739950815963364e-08, 4e-08, 0))
hIsland = hIsland.sub(rect(9.010718188971062e-09, -3.3762528354746355e-09).transl(-1.9154415957872447e-08, 4e-08, 0))
hIsland = hIsland.sub(rect(7.566025908017865e-09, -4.873352529064833e-09).transl(4.7626142096243925e-08, 4e-08, 0))
hIsland = hIsland.add(rect(2.591345294134165e-09, 1.2487786234917274e-09).transl(-1.0897105209152245e-07, 3.518335901744098e-08, 0))
hIsland = hIsland.sub(rect(3.958593235507938e-09, -5.596466474038221e-10).transl(-8.556410342964711e-08, 4e-08, 0))
hIsland = hIsland.add(rect(3.668484313620378e-09, 3.417357692938047e-10).transl(7.266047578752766e-08, 4e-08, 0))
hIsland = hIsland.sub(rect(5.887144499709977e-09, -2.12129640425676e-09).transl(-9.32862145241702e-08, 4e-08, 0))
hIsland = hIsland.add(rect(5.2475618806782365e-09, 7.70789265213383e-10).transl(-6.432328353498472e-08, 4e-08, 0))
hIsland = hIsland.sub(rect(2.2294072253178855e-09, -1.6764656198254986e-09).transl(1.0126705272352168e-07, 4e-08, 0))
hIsland = hIsland.sub(rect(2.4497632104393967e-09, -3.277762314026287e-09).transl(2.798353704483227e-08, 4e-08, 0))
hIsland = hIsland.sub(rect(5.808588215530634e-09, -5.237872356029968e-10).transl(-1.1095607745296194e-07, 3.04535413524445e-08, 0))
hIsland = hIsland.add(rect(2.5334245521216917e-09, 1.2879354207960303e-09).transl(-9.615987982157453e-08, 4e-08, 0))
hIsland = hIsland.sub(rect(5.894573253307755e-09, -9.018727113434916e-10).transl(5.8624217795894765e-08, 4e-08, 0))
hIsland = hIsland.add(rect(7.2429736087796054e-09, 1.8938409202731842e-10).transl(1.535020902191108e-08, 4e-08, 0))
hIsland = hIsland.sub(rect(5.300738263092034e-09, -2.80293585106015e-09).transl(-1.2437191489022335e-08, 4e-08, 0))
hIsland = hIsland.add(rect(7.257286657591033e-09, 1.813067979808131e-09).transl(-7.775552984495934e-08, 4e-08, 0))
hIsland = hIsland.add(rect(6.291458170100719e-09, 1.2066025707104427e-09).transl(6.946570231675006e-08, 4e-08, 0))
hIsland = hIsland.sub(rect(7.080879052776493e-09, -9.485380069283884e-10).transl(3.338049322580555e-08, 4e-08, 0))
hIsland = hIsland.sub(rect(4.674817244472512e-09, -1.3720796945357435e-09).transl(1.170224011709233e-09, 4e-08, 0))
hIsland = hIsland.add(rect(8.574328034185733e-09, 4.193636816536306e-09).transl(-8.512128718837372e-08, 4e-08, 0))
hIsland = hIsland.add(rect(4.834060476428418e-09, 2.739434502317283e-09).transl(-1.1372233455150218e-08, 4e-08, 0))
hIsland = hIsland.add(rect(3.398070806105093e-09, 4.344184843701107e-09).transl(-1.2017050144748564e-08, 4e-08, 0))
hIsland = hIsland.add(rect(8.805339359668008e-09, 4.437080929745676e-10).transl(9.519133228419216e-09, 4e-08, 0))
hIsland = hIsland.sub(rect(2.1529656646048044e-09, -2.3363932066974107e-09).transl(7.216196232985266e-08, 4e-08, 0))
hIsland = hIsland.add(rect(2.474122278827365e-09, 1.1917554187444016e-09).transl(9.030995405457763e-09, 4e-08, 0))
hIsland = hIsland.sub(rect(5.36400228905879e-09, -6.714325872536705e-10).transl(-3.316656255175821e-09, 4e-08, 0))
hIsland = hIsland.add(rect(3.2114429446415438e-09, 1.5908722600649428e-09).transl(-2.3388668746118063e-09, 4e-08, 0))
hIsland = hIsland.sub(rect(3.144120282705072e-09, -1.3352531621672024e-09).transl(7.536114502138396e-08, 4e-08, 0))
hIsland = hIsland.add(rect(8.967390792764342e-09, 7.315559648080615e-10).transl(-9.659022019316364e-08, 4e-08, 0))
hIsland = hIsland.add(rect(8.151541073794093e-09, 1.692983371380847e-09).transl(-6.352876059208633e-08, 4e-08, 0))
hIsland = hIsland.add(rect(9.838221199753445e-09, 9.724134686312062e-10).transl(7.847237771418285e-08, 4e-08, 0))
hIsland = hIsland.sub(rect(9.147618022035282e-09, -4.2008732170903765e-10).transl(-2.6671365571314473e-08, 4e-08, 0))
hIsland = hIsland.sub(rect(4.027018223435027e-09, -3.6453894308355754e-09).transl(6.011967370673853e-08, 4e-08, 0))
hIsland = hIsland.sub(rect(9.527337570681918e-09, -1.346859698520737e-09).transl(-8.733158469775819e-08, 4e-08, 0))
hIsland = hIsland.sub(rect(8.23350588444135e-09, -2.388578572598759e-09).transl(9.597007836500227e-08, 4e-08, 0))
hIsland = hIsland.add(rect(3.0893305616358648e-09, 4.783102581413625e-10).transl(3.175840503929071e-08, 4e-08, 0))
hIsland = hIsland.add(rect(5.831998559810053e-09, 7.231094261127326e-10).transl(-4.224836600857486e-09, 4e-08, 0))
hIsland = hIsland.sub(rect(2.434637726955835e-09, -9.172507743311658e-10).transl(-2.944223828136515e-08, 4e-08, 0))
hIsland = hIsland.add(rect(7.775237603429969e-09, 1.888391546185283e-09).transl(-7.828032839747489e-08, 4e-08, 0))
hIsland = hIsland.add(rect(8.644424878896559e-09, 3.3512122519415608e-09).transl(1.7324485850707604e-08, 4e-08, 0))
hIsland = hIsland.sub(rect(5.765964071746628e-09, -1.8195335628805743e-09).transl(-8.639231537805721e-08, 4e-08, 0))
hIsland = hIsland.sub(rect(4.983598381945786e-09, -6.361042026374913e-10).transl(4.0639177952490036e-08, 4e-08, 0))
hIsland = hIsland.add(rect(2.6218501436841423e-09, 1.7554891990950781e-09).transl(-7.323412130226117e-08, 4e-08, 0))
hIsland = hIsland.sub(rect(8.21169351431551e-09, -1.5486038674189885e-09).transl(2.0547436644861428e-08, 4e-08, 0))
hIsland = hIsland.sub(rect(3.915026052851098e-09, -1.4522443757818075e-10).transl(4.241728744095983e-08, 4e-08, 0))
hIsland = hIsland.add(rect(7.79119230822552e-09, 1.4806142477764143e-09).transl(-2.173302187853991e-08, 4e-08, 0))
hIsland = hIsland.sub(rect(4.4241208650177586e-09, -9.140535351912712e-12).transl(-6.942025538977253e-08, 4e-08, 0))
hIsland = hIsland.add(rect(6.763718583295696e-09, 4.0002502236154346e-11).transl(8.121397923608357e-08, 4e-08, 0))
hIsland = hIsland.sub(rect(3.810536857384912e-09, -9.480236860093828e-10).transl(1.0699608818480246e-07, 3.8106783388767594e-08, 0))
hIsland = hIsland.sub(rect(3.994334994376489e-09, -1.475966854113422e-10).transl(1.0539932255385479e-07, 3.9450681626794165e-08, 0))
hIsland = hIsland.add(rect(4.870298852942134e-09, 1.7451487202374813e-09).transl(1.7772794192235322e-08, 4e-08, 0))
hIsland = hIsland.sub(rect(3.1697795478343407e-09, -1.8527806002438477e-09).transl(9.217671872714796e-08, 4e-08, 0))
hIsland = hIsland.add(rect(2.677523955486135e-09, 2.2244597591125896e-09).transl(-8.377750479615324e-09, 4e-08, 0))
hIsland = hIsland.add(rect(7.3069351613328845e-09, 1.590157818844693e-09).transl(9.259580281318783e-08, 4e-08, 0))
hIsland = hIsland.add(rect(6.487611557255799e-09, 1.999144345781794e-09).transl(5.7698849475684916e-08, 4e-08, 0))
hIsland = hIsland.sub(rect(6.546471732295325e-09, -2.5003154052505183e-09).transl(-3.486494146463798e-08, 4e-08, 0))
hIsland = hIsland.sub(rect(7.4380759665134396e-09, -1.7755448541034856e-09).transl(5.372239949770894e-08, 4e-08, 0))
hIsland = hIsland.sub(rect(2.3820429763226232e-09, -1.3592117755577876e-10).transl(5.985176888040621e-08, 4e-08, 0))
hIsland = hIsland.add(rect(8.124464570832584e-09, 8.668099392953949e-10).transl(9.594036446928698e-08, 4e-08, 0))
hIsland = hIsland.add(rect(3.5987314093309498e-09, 2.2214504126915344e-09).transl(8.975776086354644e-08, 4e-08, 0))
hIsland = hIsland.sub(rect(7.75098802310851e-09, -1.459283162070342e-09).transl(6.630818784069574e-08, 4e-08, 0))
hIsland = hIsland.add(rect(7.399400349767964e-09, 1.5606270569485106e-10).transl(-9.05538058940428e-08, 4e-08, 0))
hIsland = hIsland.add(rect(5.4227643989602565e-09, 1.6130447159987683e-09).transl(6.358005508255075e-08, 4e-08, 0))
hIsland = hIsland.sub(rect(6.755610460862466e-09, -4.997262826623135e-10).transl(-1.0391763010781776e-07, 3.9973614752258405e-08, 0))
hIsland = hIsland.sub(rect(5.860931132469341e-09, -1.5400049527903008e-09).transl(9.254269026783682e-08, 4e-08, 0))
hIsland = hIsland.add(rect(6.243821489061402e-09, 1.7328564361355334e-09).transl(5.613158240193742e-08, 4e-08, 0))
hIsland = hIsland.sub(rect(4.324751291006508e-09, -1.641114635252795e-09).transl(3.861129213243948e-08, 4e-08, 0))
hIsland = hIsland.sub(rect(4.955316814191065e-09, -4.357425589190164e-10).transl(6.051978365227299e-08, 4e-08, 0))
hIsland = hIsland.add(rect(3.735224151793396e-09, 6.730721186219508e-10).transl(7.02743979465275e-08, 4e-08, 0))
hIsland = hIsland.sub(rect(7.455598063727126e-09, -3.2416391844310995e-09).transl(9.446615205887762e-08, 4e-08, 0))
hIsland = hIsland.sub(rect(8.821841974937617e-09, -1.5275711497096893e-09).transl(-7.301694986608715e-08, 4e-08, 0))
hIsland = hIsland.add(rect(8.505270881597813e-09, 1.4460091290140854e-09).transl(-1.1033422437408693e-07, 3.217031748738976e-08, 0))
hIsland = hIsland.add(rect(7.230476421821072e-09, 4.3361579380520056e-10).transl(1.2431248850252877e-08, 4e-08, 0))
hIsland = hIsland.sub(rect(7.261842678694072e-09, -2.241368930284301e-10).transl(2.043890153289871e-08, 4e-08, 0))
hIsland = hIsland.add(rect(5.704440147134428e-09, 1.502554503551813e-09).transl(-5.732432200166474e-08, 4e-08, 0))
hIsland = hIsland.add(rect(3.3884864634127885e-09, 9.923233576485669e-10).transl(-6.026123190632049e-08, 4e-08, 0))
hIsland = hIsland.add(rect(7.124131846117463e-09, 1.7497964090355904e-09).transl(6.454519281487847e-08, 4e-08, 0))
hIsland = hIsland.add(rect(3.0138354126478027e-09, 2.1508793823747616e-09).transl(-4.7145675820459674e-08, 4e-08, 0))
hIsland = hIsland.sub(rect(3.859350592040435e-09, -1.786040079387707e-09).transl(1.0328551024865471e-08, 4e-08, 0))
hIsland = hIsland.sub(rect(6.609099820439303e-09, -2.0500030578970452e-09).transl(-6.773344376797368e-08, 4e-08, 0))
hIsland = hIsland.add(rect(2.4154942717556074e-09, 4.910684028775441e-10).transl(5.886969647850647e-08, 4e-08, 0))
vIsland = hIsland.rotz(pi / 2)
hIslands = hIslands.add(hIsland.transl(-a/2, a, 0))
hIsland = rect(islandLength-2*ellipseConstant, islandWidth)
hIsland = hIsland.add(ellipse(ellipseConstant*2, islandWidth).transl(islandLength/2-ellipseConstant, 0, 0))
hIsland = hIsland.add(ellipse(ellipseConstant*2, islandWidth).transl(-islandLength/2+ellipseConstant, 0, 0))
hIsland = hIsland.add(rect(9.506903216465162e-09, 2.2178857850455373e-09).transl(-7.685412332772867e-08, -4e-08, 0))
hIsland = hIsland.sub(rect(4.459430855589466e-09, -8.043089439642073e-10).transl(-1.0006180417623655e-07, -4e-08, 0))
hIsland = hIsland.sub(rect(9.40351795670652e-09, -3.8233553090047294e-10).transl(-6.307493306457511e-08, -4e-08, 0))
hIsland = hIsland.add(rect(3.851497339836266e-09, 3.8231339790760786e-10).transl(8.94112675136326e-08, -4e-08, 0))
hIsland = hIsland.add(rect(2.6875928114859796e-09, 2.239788965606449e-10).transl(6.10078064333532e-08, -4e-08, 0))
hIsland = hIsland.add(rect(6.4338876030159796e-09, 7.375367974808347e-10).transl(2.4060348138252913e-09, -4e-08, 0))
hIsland = hIsland.sub(rect(2.6172715682461787e-09, -2.0128244075378205e-09).transl(5.6692788631971006e-08, -4e-08, 0))
hIsland = hIsland.sub(rect(9.222943386191976e-09, -5.594674155979411e-10).transl(-3.8492603071598254e-08, -4e-08, 0))
hIsland = hIsland.add(rect(4.901895507482044e-09, 4.5898273990319816e-10).transl(3.660206919931351e-08, -4e-08, 0))
hIsland = hIsland.add(rect(8.683328892192862e-09, 4.478776220452543e-12).transl(7.83784033238892e-08, -4e-08, 0))
hIsland = hIsland.sub(rect(8.055078201172206e-09, -3.6998476899349886e-09).transl(-4.043611488114639e-08, -4e-08, 0))
hIsland = hIsland.sub(rect(7.226605726092366e-09, -4.646083301397725e-10).transl(1.1238203317065564e-07, -2.5407853274224373e-08, 0))
hIsland = hIsland.add(rect(4.645333991877409e-09, 3.9194542082306824e-11).transl(5.712362794178232e-09, -4e-08, 0))
hIsland = hIsland.sub(rect(6.254899079849006e-09, -1.4312481060966553e-10).transl(-8.268189482062853e-08, -4e-08, 0))
hIsland = hIsland.sub(rect(9.418430409082245e-09, -4.145634720288203e-09).transl(-5.819611173250628e-08, -4e-08, 0))
hIsland = hIsland.add(rect(6.9260627277202554e-09, 1.2905379873858305e-11).transl(9.951087372508422e-08, -4e-08, 0))
hIsland = hIsland.sub(rect(2.037087450683374e-09, -1.0553581924432198e-09).transl(-9.177401217604823e-08, -4e-08, 0))
hIsland = hIsland.sub(rect(8.132999153991393e-09, -6.601654208670735e-10).transl(7.714484671888133e-08, -4e-08, 0))
hIsland = hIsland.sub(rect(8.58822804777439e-09, -3.2170818367568107e-09).transl(-3.425916506190648e-08, -4e-08, 0))
hIsland = hIsland.sub(rect(7.292530379750375e-09, -8.819894415445985e-11).transl(8.313303802854576e-08, -4e-08, 0))
hIsland = hIsland.add(rect(7.793020650996731e-09, 3.9755186848999833e-10).transl(9.32629527482325e-08, -4e-08, 0))
hIsland = hIsland.sub(rect(4.874794638017407e-09, -1.0870200704476666e-09).transl(1.8853430790993262e-08, -4e-08, 0))
hIsland = hIsland.sub(rect(6.990356750905976e-09, -2.1670884511246365e-10).transl(-5.2773410444701374e-08, -4e-08, 0))
hIsland = hIsland.add(rect(4.666922081052357e-09, 3.1445533628183023e-09).transl(-3.40669461808765e-08, -4e-08, 0))
hIsland = hIsland.sub(rect(7.279327656094805e-09, -2.654205148450994e-09).transl(-8.53763467889151e-09, -4e-08, 0))
hIsland = hIsland.add(rect(6.792670716550742e-09, 3.081523381811061e-09).transl(9.657610323865604e-08, -4e-08, 0))
hIsland = hIsland.add(rect(2.2809073609975777e-09, 1.8854180638411533e-09).transl(9.341181106736153e-08, -4e-08, 0))
hIsland = hIsland.add(rect(9.47928467060142e-09, 5.090312254606955e-09).transl(-7.975154691871312e-08, -4e-08, 0))
hIsland = hIsland.add(rect(5.6350053440599545e-09, 3.183328703993017e-11).transl(-8.287450076502725e-08, -4e-08, 0))
hIsland = hIsland.add(rect(4.791157535276714e-09, 2.35627415275339e-09).transl(1.415410377579635e-09, -4e-08, 0))
hIsland = hIsland.add(rect(3.3629512280350574e-09, 5.016970737631081e-10).transl(-1.1228645170557617e-07, -2.5806789200787294e-08, 0))
hIsland = hIsland.add(rect(2.9282012551826686e-09, 9.545144184586472e-10).transl(4.5014253710097604e-08, -4e-08, 0))
hIsland = hIsland.sub(rect(9.596517986086443e-09, -3.800046322595752e-09).transl(6.790505432149592e-08, -4e-08, 0))
hIsland = hIsland.add(rect(9.451901174424617e-09, 6.484979534667653e-10).transl(-1.0359531184782397e-07, -3.9998626161914014e-08, 0))
hIsland = hIsland.add(rect(5.594329676180147e-09, 5.283376658228921e-11).transl(-8.017407186498703e-08, -4e-08, 0))
hIsland = hIsland.add(rect(7.163958221954671e-09, 1.034672914135758e-09).transl(-2.3735141987437846e-08, -4e-08, 0))
hIsland = hIsland.sub(rect(2.0254051646247816e-09, -2.3522180958666676e-09).transl(2.0453978278035632e-08, -4e-08, 0))
hIsland = hIsland.sub(rect(5.24402262536121e-09, -5.018306223709562e-09).transl(-5.627236701901934e-08, -4e-08, 0))
hIsland = hIsland.add(rect(9.791897210455963e-09, 7.373914532496353e-10).transl(6.784714837924915e-08, -4e-08, 0))
hIsland = hIsland.sub(rect(9.833056701985567e-09, -2.552661667804962e-09).transl(-7.451235570679062e-08, -4e-08, 0))
hIsland = hIsland.add(rect(7.625777534631048e-09, 2.1853957758738152e-09).transl(8.737247857739153e-08, -4e-08, 0))
hIsland = hIsland.add(rect(9.805974048840856e-09, 1.5569973870260298e-10).transl(-3.295147943318123e-08, -4e-08, 0))
hIsland = hIsland.add(rect(8.944088395003408e-09, 2.7407583194856413e-11).transl(1.1164658518230955e-07, -2.8232499444089042e-08, 0))
hIsland = hIsland.sub(rect(6.436266976992404e-09, -6.263684434359008e-10).transl(-1.0227255608022435e-07, -4e-08, 0))
hIsland = hIsland.sub(rect(2.1944993281151783e-09, -2.9894450567978277e-09).transl(3.205566676706225e-08, -4e-08, 0))
hIsland = hIsland.add(rect(7.977370480864591e-09, 1.3430886211367451e-09).transl(1.4103969669886937e-08, -4e-08, 0))
hIsland = hIsland.add(rect(8.123484895429662e-09, 1.7267759396194173e-09).transl(1.0108482694236459e-07, -4e-08, 0))
hIsland = hIsland.add(rect(4.9422164012121265e-09, 3.141938221263872e-10).transl(1.1363547119524283e-08, -4e-08, 0))
hIsland = hIsland.add(rect(4.9263678713910895e-09, 3.46019003215114e-09).transl(9.380997332176166e-08, -4e-08, 0))
hIsland = hIsland.add(rect(7.472059594347359e-09, 9.459335521841042e-10).transl(-2.9697255348537544e-08, -4e-08, 0))
hIsland = hIsland.sub(rect(7.444177204915718e-09, -3.107737670826004e-09).transl(-1.6347238942363353e-08, -4e-08, 0))
hIsland = hIsland.sub(rect(6.457706904289749e-09, -6.717375663343536e-10).transl(-2.9516555270249964e-08, -4e-08, 0))
hIsland = hIsland.add(rect(5.597547544194098e-09, 6.120478789630189e-10).transl(-1.9634464141903103e-08, -4e-08, 0))
hIsland = hIsland.sub(rect(4.6274884186901964e-09, -1.501666538930644e-09).transl(2.3453982073777344e-08, -4e-08, 0))
hIsland = hIsland.add(rect(2.22396071381601e-09, 6.635050301170086e-10).transl(1.09298315583927e-07, -3.454344495827909e-08, 0))
hIsland = hIsland.sub(rect(9.790239597090297e-09, -1.3760100995012588e-09).transl(-8.439062818651172e-08, -4e-08, 0))
hIsland = hIsland.sub(rect(9.663087674956502e-09, -3.9554385793858706e-10).transl(-1.1272790147847817e-07, -2.387005382973429e-08, 0))
hIsland = hIsland.sub(rect(8.996328765056227e-09, -1.7747570820058638e-10).transl(4.144292419413664e-08, -4e-08, 0))
hIsland = hIsland.add(rect(8.920474019478124e-09, 4.402442596092736e-09).transl(4.282358139042586e-08, -4e-08, 0))
hIsland = hIsland.sub(rect(5.487191114545745e-09, -1.0784493173134026e-09).transl(4.818324503510736e-08, -4e-08, 0))
hIsland = hIsland.sub(rect(6.371723644117415e-09, -3.1893681504700842e-09).transl(-7.014492600192969e-08, -4e-08, 0))
hIsland = hIsland.add(rect(2.255748045227682e-09, 2.1750558575610397e-09).transl(-8.480387670084418e-08, -4e-08, 0))
hIsland = hIsland.sub(rect(2.216619918840212e-09, -2.6845896936829495e-09).transl(-7.346650338626778e-08, -4e-08, 0))
hIsland = hIsland.add(rect(5.992380416943341e-09, 2.4710408346265808e-09).transl(-8.539187505821488e-08, -4e-08, 0))
hIsland = hIsland.sub(rect(8.92359876351608e-09, -3.029520677987731e-09).transl(-1.0113445090971966e-07, -4e-08, 0))
hIsland = hIsland.sub(rect(4.412048290937989e-09, -2.555489618716903e-09).transl(-3.274020229486456e-08, -4e-08, 0))
hIsland = hIsland.sub(rect(4.141757256505223e-09, -3.191622392994513e-10).transl(-1.0601149730095757e-07, -3.90344533087946e-08, 0))
hIsland = hIsland.add(rect(2.907831974270476e-09, 2.960964064681866e-09).transl(7.397816109748751e-08, -4e-08, 0))
hIsland = hIsland.add(rect(2.3464728429852484e-09, 3.971713945774498e-10).transl(4.983737602817315e-08, -4e-08, 0))
hIsland = hIsland.sub(rect(4.58049716944487e-09, -9.87288342624103e-10).transl(6.274376859991196e-08, -4e-08, 0))
hIsland = hIsland.add(rect(3.4506810965757025e-09, 8.799591026843733e-10).transl(5.6974380819041466e-08, -4e-08, 0))
hIsland = hIsland.sub(rect(6.743401987721794e-09, -5.271517726554433e-10).transl(-3.2163729849436687e-09, -4e-08, 0))
hIsland = hIsland.add(rect(5.7656767489232694e-09, 1.204473678447046e-09).transl(8.43129154369974e-08, -4e-08, 0))
hIsland = hIsland.add(rect(2.7751462018562912e-09, 7.112324933264108e-10).transl(-5.435094659493544e-08, -4e-08, 0))
hIsland = hIsland.add(rect(8.206818319469812e-09, 2.3221329838249665e-09).transl(2.6250920130520116e-08, -4e-08, 0))
hIsland = hIsland.add(rect(6.900227972855465e-09, 1.0362561755637003e-09).transl(-1.0131553459152069e-07, -4e-08, 0))
hIsland = hIsland.sub(rect(8.559322277443909e-09, -1.9353001148383047e-10).transl(1.7622841638404554e-08, -4e-08, 0))
hIsland = hIsland.sub(rect(2.8189263431139455e-09, -1.855240858281563e-09).transl(-1.4281746190075358e-09, -4e-08, 0))
hIsland = hIsland.add(rect(3.068034005517814e-09, 1.250617099614445e-09).transl(-6.798557897593923e-08, -4e-08, 0))
hIsland = hIsland.sub(rect(3.1384366744353946e-09, -1.95458963065122e-09).transl(-4.9041357754033025e-08, -4e-08, 0))
hIsland = hIsland.add(rect(2.944561766978029e-09, 3.3137169708577478e-09).transl(7.829950066521496e-08, -4e-08, 0))
hIsland = hIsland.sub(rect(4.10969432969693e-09, -1.2129484676591126e-09).transl(8.225751692570578e-08, -4e-08, 0))
hIsland = hIsland.sub(rect(4.321286379197132e-09, -2.1013948600767423e-10).transl(-1.099338016519264e-07, -3.315426668643255e-08, 0))
hIsland = hIsland.sub(rect(6.305722081555355e-09, -1.0118454487921786e-09).transl(-6.565097171536788e-08, -4e-08, 0))
hIsland = hIsland.sub(rect(5.174441402325429e-09, -3.782507144152646e-09).transl(6.067477311126016e-08, -4e-08, 0))
hIsland = hIsland.add(rect(5.904228522183451e-09, 4.485550289462254e-09).transl(-4.5209794735980244e-08, -4e-08, 0))
hIsland = hIsland.add(rect(8.504731599014477e-09, 1.3354746876477212e-09).transl(1.608158344158527e-08, -4e-08, 0))
hIsland = hIsland.sub(rect(9.252290192976053e-09, -1.4960764257396558e-09).transl(1.1439358912517035e-07, -1.2817623015766713e-08, 0))
hIsland = hIsland.sub(rect(3.192280441276798e-09, -2.1892219085913193e-09).transl(-6.583691400440575e-08, -4e-08, 0))
hIsland = hIsland.sub(rect(6.602264343867247e-09, -2.1865404776975194e-09).transl(-6.716245700845894e-08, -4e-08, 0))
hIsland = hIsland.sub(rect(9.469152213225532e-09, -4.972381861767427e-10).transl(5.806757686861483e-08, -4e-08, 0))
hIsland = hIsland.add(rect(4.4099602967972345e-09, 1.3451374123754694e-09).transl(8.295514939926918e-08, -4e-08, 0))
hIsland = hIsland.sub(rect(6.231374836626679e-09, -6.237134954212225e-10).transl(5.980726314821441e-08, -4e-08, 0))
hIsland = hIsland.add(rect(4.913138337216802e-09, 5.16700114933402e-10).transl(7.822096612414441e-08, -4e-08, 0))
hIsland = hIsland.add(rect(2.9746768806564303e-09, 1.6273730484127685e-09).transl(1.0317559739092237e-07, -4e-08, 0))
hIsland = hIsland.sub(rect(6.220395946906444e-09, -3.4834452170701145e-09).transl(3.551970678666079e-09, -4e-08, 0))
hIsland = hIsland.sub(rect(4.041057544089127e-09, -6.990022457614475e-10).transl(-4.803102682256136e-08, -4e-08, 0))
hIsland = hIsland.sub(rect(3.899954224322886e-09, -7.645337171677336e-10).transl(1.1021602047123485e-07, -3.2470095061922184e-08, 0))
hIsland = hIsland.sub(rect(9.89169803125218e-09, -1.8033332428669445e-09).transl(3.943055870338171e-08, -4e-08, 0))
hIsland = hIsland.add(rect(7.076544378053156e-09, 3.2461149320317343e-10).transl(-3.5245723120017565e-08, -4e-08, 0))
hIsland = hIsland.sub(rect(6.100302218606632e-09, -1.209637047314279e-10).transl(-8.205537249321547e-08, -4e-08, 0))
hIsland = hIsland.add(rect(7.258609715296974e-09, 1.8724482079437156e-09).transl(-8.593407160295424e-09, -4e-08, 0))
hIsland = hIsland.add(rect(3.065830969341179e-09, 4.6041888470633645e-10).transl(-7.804874212009125e-08, -4e-08, 0))
hIsland = hIsland.add(rect(4.559931578833573e-09, 1.621353605501042e-09).transl(1.2616558678094765e-08, -4e-08, 0))
hIsland = hIsland.sub(rect(6.911604328807897e-09, -1.907353417509337e-09).transl(-1.061284545819486e-07, -3.8941181220343597e-08, 0))
hIsland = hIsland.add(rect(2.577474365969506e-09, 1.9078281287106655e-09).transl(-3.543956836930361e-08, -4e-08, 0))
hIsland = hIsland.sub(rect(7.38087054659742e-09, -1.3089050844705065e-09).transl(1.0109316372493111e-07, -4e-08, 0))
hIsland = hIsland.sub(rect(4.7116033435975166e-09, -9.3829897584757e-10).transl(8.996937081562962e-08, -4e-08, 0))
hIsland = hIsland.sub(rect(7.743627569428733e-09, -2.8755850877609696e-09).transl(-2.009391326633573e-08, -4e-08, 0))
hIsland = hIsland.sub(rect(4.2606618032620875e-09, -2.859157357482509e-09).transl(4.3420259361137276e-08, -4e-08, 0))
hIsland = hIsland.sub(rect(8.641233450628583e-09, -1.0004303284961582e-10).transl(-4.284325013654681e-08, -4e-08, 0))
hIsland = hIsland.add(rect(5.223186617975102e-09, 1.505076956096079e-09).transl(4.2012651265819266e-08, -4e-08, 0))
hIsland = hIsland.add(rect(3.5277916844173475e-09, 2.361666852749182e-10).transl(6.85067591991534e-09, -4e-08, 0))
hIsland = hIsland.sub(rect(6.176190406849478e-09, -5.138440646022941e-09).transl(-1.0517354213123885e-07, -3.957418061644179e-08, 0))
hIsland = hIsland.sub(rect(3.368183913943244e-09, -2.1053223554099225e-10).transl(9.236341121968705e-09, -4e-08, 0))
hIsland = hIsland.sub(rect(8.183789546867704e-09, -6.709016989502655e-10).transl(5.3520385309994775e-08, -4e-08, 0))
hIsland = hIsland.add(rect(7.309525474902213e-09, 8.714687623173751e-10).transl(-8.303858746391917e-08, -4e-08, 0))
hIsland = hIsland.sub(rect(7.379254964537216e-09, -2.7965480214809148e-09).transl(-1.099251310587519e-07, -3.3174603150218845e-08, 0))
hIsland = hIsland.sub(rect(2.2503111638312376e-09, -1.3387039711770834e-09).transl(-1.0071142259301571e-08, -4e-08, 0))
hIsland = hIsland.sub(rect(2.3634084379835817e-09, -2.184247997885372e-09).transl(1.0945749807758894e-07, -3.4214175490987383e-08, 0))
hIsland = hIsland.sub(rect(4.827256779298041e-09, -8.731038825451231e-10).transl(-3.2604951523784555e-08, -4e-08, 0))
hIsland = hIsland.add(rect(3.550510265677856e-09, 1.8853689057202113e-09).transl(8.489637192388813e-08, -4e-08, 0))
hIsland = hIsland.sub(rect(5.675376978091469e-09, -1.9682243788193264e-09).transl(-7.31381003046716e-08, -4e-08, 0))
hIsland = hIsland.add(rect(9.961154044464469e-09, 2.0843718892373195e-09).transl(2.6827276161594882e-08, -4e-08, 0))
hIsland = hIsland.sub(rect(6.6524271330678026e-09, -1.839671586713569e-09).transl(-4.460308208009443e-08, -4e-08, 0))
hIsland = hIsland.add(rect(8.495294801583365e-09, 3.1998171651880085e-09).transl(-1.0135328846477249e-07, -4e-08, 0))
hIsland = hIsland.add(rect(9.1300613051082e-09, 1.7046399512838333e-09).transl(-2.0513819346287768e-08, -4e-08, 0))
hIsland = hIsland.add(rect(6.420327952362268e-09, 2.766009006455555e-09).transl(-1.0545343502476814e-07, -3.941870115189223e-08, 0))
hIsland = hIsland.sub(rect(8.404876878506003e-09, -8.398568637598038e-10).transl(-1.0499610705546697e-07, -3.966005469795106e-08, 0))
hIsland = hIsland.sub(rect(7.806391275137343e-09, -5.312708332880077e-10).transl(-3.268883458383819e-08, -4e-08, 0))
hIsland = hIsland.sub(rect(2.26944485164558e-09, -6.884624980398122e-10).transl(-3.043395574015069e-08, -4e-08, 0))
hIsland = hIsland.sub(rect(2.7277029109808145e-09, -3.891292242455531e-09).transl(9.415051297537171e-08, -4e-08, 0))
hIsland = hIsland.add(rect(3.9454738421169295e-09, 6.502115147985918e-10).transl(-6.6805067854297e-08, -4e-08, 0))
hIsland = hIsland.add(rect(4.847572629554689e-09, 6.20825415707525e-10).transl(3.62512921750793e-08, -4e-08, 0))
hIsland = hIsland.sub(rect(8.281220188386257e-09, -1.1672713283860939e-09).transl(-1.1288356865660951e-07, -2.3124193801176136e-08, 0))
hIsland = hIsland.add(rect(8.723515950918518e-09, 1.6198925637630275e-09).transl(6.085147320744037e-08, -4e-08, 0))
hIsland = hIsland.add(rect(9.539216270196604e-09, 2.3920564460588237e-09).transl(4.418707197072434e-08, -4e-08, 0))
hIsland = hIsland.sub(rect(7.414567660620429e-09, -2.9614821820582237e-09).transl(1.8172192288278658e-09, -4e-08, 0))
hIsland = hIsland.sub(rect(7.3988028237336835e-09, -2.43084684662735e-09).transl(5.449184386505275e-08, -4e-08, 0))
hIsland = hIsland.sub(rect(4.826244036281068e-09, -1.3720933966630746e-09).transl(-4.670650283437472e-08, -4e-08, 0))
hIsland = hIsland.add(rect(2.003047691616139e-09, 2.1380107818837635e-09).transl(-9.660454641565289e-08, -4e-08, 0))
hIsland = hIsland.sub(rect(9.126589035885584e-09, -7.956540421153527e-11).transl(-7.670077257940182e-08, -4e-08, 0))
hIsland = hIsland.add(rect(8.138859795854061e-09, 6.322921320054769e-10).transl(7.299235948215868e-08, -4e-08, 0))
hIsland = hIsland.sub(rect(3.2857984050700496e-09, -3.769628778142766e-10).transl(-9.175217139706273e-11, -4e-08, 0))
hIsland = hIsland.sub(rect(7.497006115621866e-09, -7.872901117191919e-10).transl(-1.9789255076581365e-08, -4e-08, 0))
hIsland = hIsland.add(rect(5.729664826096555e-09, 2.411041981840717e-09).transl(-7.591970336382555e-08, -4e-08, 0))
hIsland = hIsland.sub(rect(8.392573985993054e-09, -8.305234691114487e-10).transl(-1.4394681355855507e-08, -4e-08, 0))
hIsland = hIsland.add(rect(4.010220900810481e-09, 6.389876964515487e-10).transl(5.0381801577060016e-08, -4e-08, 0))
hIsland = hIsland.sub(rect(9.883924848382029e-09, -5.984189341970383e-10).transl(1.124006624435544e-08, -4e-08, 0))
hIsland = hIsland.sub(rect(3.7546950765845955e-09, -5.693369454167266e-10).transl(5.778101083351654e-08, -4e-08, 0))
hIsland = hIsland.add(rect(6.571065891944698e-09, 1.222616918290082e-09).transl(1.0073424104720478e-07, -4e-08, 0))
hIsland = hIsland.add(rect(4.999017657056247e-09, 1.923598164593926e-09).transl(-4.332045504574129e-08, -4e-08, 0))
hIsland = hIsland.add(rect(8.354001423050981e-09, 4.3466097555451075e-09).transl(5.325114282529516e-08, -4e-08, 0))
hIsland = hIsland.sub(rect(8.627540293671253e-09, -1.9874723233244066e-09).transl(-7.14481356510857e-08, -4e-08, 0))
hIsland = hIsland.sub(rect(8.122000622128959e-09, -3.1955569192825226e-09).transl(-4.830778018329582e-08, -4e-08, 0))
hIsland = hIsland.sub(rect(8.717592937534682e-09, -4.417906713228846e-09).transl(-7.983514785464749e-08, -4e-08, 0))
hIsland = hIsland.add(rect(4.860208334249394e-09, 3.233532899017449e-09).transl(3.725149952310058e-08, -4e-08, 0))
hIsland = hIsland.add(rect(8.945440131138534e-09, 2.471354389246902e-10).transl(1.1378285324178664e-07, -1.7909811175788565e-08, 0))
hIsland = hIsland.sub(rect(7.637954307616513e-09, -1.5728333208570531e-09).transl(-9.277492757408773e-08, -4e-08, 0))
hIsland = hIsland.add(rect(4.130326916349184e-09, 1.7671194083362035e-10).transl(6.8012788519195e-08, -4e-08, 0))
hIsland = hIsland.add(rect(2.612926069518135e-09, 2.9516247480247176e-10).transl(1.0919556482641024e-07, -3.474964373679327e-08, 0))
hIsland = hIsland.sub(rect(2.1669187011475417e-09, -5.019880306242098e-09).transl(-1.0151172619042218e-07, -4e-08, 0))
hIsland = hIsland.sub(rect(8.183295631674692e-09, -1.2780817453212036e-09).transl(-9.121634510232519e-08, -4e-08, 0))
hIsland = hIsland.sub(rect(9.354013545924029e-09, -1.5210185785925783e-09).transl(-1.0868093216251626e-07, -3.5710737381621106e-08, 0))
hIsland = hIsland.sub(rect(3.066465927205257e-09, -3.710312293615569e-09).transl(-1.0157700514245046e-07, -4e-08, 0))
hIsland = hIsland.add(rect(5.231043896132342e-09, 8.022611647864531e-10).transl(9.745547574661351e-08, -4e-08, 0))
hIsland = hIsland.add(rect(3.3186892614860046e-09, 2.6329598705911314e-09).transl(-1.0267377782357879e-08, -4e-08, 0))
hIsland = hIsland.sub(rect(4.580240770372656e-09, -2.7416746376367496e-09).transl(7.872541915034903e-08, -4e-08, 0))
hIsland = hIsland.sub(rect(5.91087739853872e-09, -3.370902674832067e-09).transl(5.438457584730123e-08, -4e-08, 0))
hIsland = hIsland.sub(rect(7.67139839610626e-09, -1.0419657312639298e-09).transl(3.403842580797587e-08, -4e-08, 0))
hIsland = hIsland.sub(rect(6.298683674400956e-09, -1.9947187235341048e-09).transl(1.826167206351234e-08, -4e-08, 0))
hIsland = hIsland.add(rect(8.671930542286718e-09, 1.6874111206918138e-09).transl(2.3528176696078283e-08, -4e-08, 0))
hIsland = hIsland.sub(rect(8.489877269414346e-09, -6.949146671551897e-09).transl(-1.0946906092491033e-07, -3.418978486158059e-08, 0))
hIsland = hIsland.sub(rect(6.192595404359732e-09, -2.0577068195195675e-09).transl(-4.652476232710913e-08, -4e-08, 0))
hIsland = hIsland.sub(rect(5.705982843190706e-09, -1.938745958051139e-09).transl(2.87566228128638e-08, -4e-08, 0))
hIsland = hIsland.add(rect(9.75298554573884e-09, 2.5428579741205943e-09).transl(-7.852180439620755e-08, -4e-08, 0))
hIsland = hIsland.add(rect(7.976905380827833e-09, 2.2345809512485683e-10).transl(8.824683505752692e-08, -4e-08, 0))
hIsland = hIsland.sub(rect(4.755321623087318e-09, -5.531748670041375e-10).transl(-1.033848976999728e-07, -4e-08, 0))
hIsland = hIsland.add(rect(3.1245078273409494e-09, 9.287755786393806e-10).transl(5.139577436174847e-08, -4e-08, 0))
hIsland = hIsland.sub(rect(7.020168934302051e-09, -1.9323888024801545e-09).transl(-5.715803461537553e-08, -4e-08, 0))
hIsland = hIsland.sub(rect(9.745779331397302e-09, -1.8062427308699232e-09).transl(1.6501470731906116e-08, -4e-08, 0))
hIsland = hIsland.add(rect(2.9188451514102944e-09, 2.1572551210290018e-09).transl(-1.0446999989129823e-07, -3.9857454927859534e-08, 0))
hIsland = hIsland.add(rect(4.0826530569268794e-09, 2.3973446226731266e-09).transl(1.0158460232598217e-07, -4e-08, 0))
hIsland = hIsland.sub(rect(8.531594930568752e-09, -3.9962505622747543e-10).transl(3.523586296466053e-08, -4e-08, 0))
hIsland = hIsland.sub(rect(3.800831234714673e-09, -1.0224085935537153e-09).transl(1.4240303865156449e-08, -4e-08, 0))
hIsland = hIsland.sub(rect(9.251802778936993e-09, -8.498259331812215e-10).transl(-8.725613616122646e-08, -4e-08, 0))
hIsland = hIsland.sub(rect(7.017218662290805e-09, -1.7707389836538176e-10).transl(-7.038414471743354e-08, -4e-08, 0))
hIsland = hIsland.add(rect(6.1284994103736504e-09, 1.751421380605565e-10).transl(9.362189893003931e-08, -4e-08, 0))
hIsland = hIsland.add(rect(9.739562412725988e-09, 2.488270523804726e-10).transl(3.0934588747147454e-08, -4e-08, 0))
hIsland = hIsland.add(rect(7.139595674329407e-09, 1.7969260801871465e-09).transl(-1.0075412192781136e-07, -4e-08, 0))
hIsland = hIsland.add(rect(3.642886639815535e-09, 2.7119045781424285e-09).transl(9.455742149239466e-08, -4e-08, 0))
hIsland = hIsland.sub(rect(3.082176571416598e-09, -4.834597279202884e-11).transl(1.0598165301199164e-07, -3.905753957358172e-08, 0))
hIsland = hIsland.add(rect(3.0082883126986336e-09, 2.137722160078393e-09).transl(-3.840069247066918e-08, -4e-08, 0))
hIsland = hIsland.add(rect(8.673029775781611e-09, 4.2055479023924995e-09).transl(-9.177419228581072e-08, -4e-08, 0))
hIsland = hIsland.add(rect(7.734660008773257e-09, 2.1264439054026296e-09).transl(9.853978915340384e-08, -4e-08, 0))
hIsland = hIsland.sub(rect(4.995280943672341e-09, -6.450341077915596e-10).transl(6.918716194404641e-08, -4e-08, 0))
hIsland = hIsland.add(rect(2.8468828681078373e-09, 1.8805776719982797e-09).transl(9.779361390912402e-08, -4e-08, 0))
hIsland = hIsland.sub(rect(2.8482861747465915e-09, -1.4330431793200579e-09).transl(6.9898241796120214e-09, -4e-08, 0))
hIsland = hIsland.sub(rect(9.125887259016699e-09, -2.3066889132059874e-09).transl(-4.0032128839685676e-08, -4e-08, 0))
hIsland = hIsland.add(rect(7.84819999585694e-09, 3.108497635513823e-10).transl(-5.6328505124193564e-08, -4e-08, 0))
hIsland = hIsland.sub(rect(6.940165380165661e-09, -3.640299389175551e-10).transl(-8.955464211379028e-08, 4e-08, 0))
hIsland = hIsland.add(rect(6.4891886118013006e-09, 8.758799954118937e-10).transl(7.32620173290049e-08, 4e-08, 0))
hIsland = hIsland.sub(rect(9.590145890380044e-09, -6.886224778288209e-10).transl(1.875871390311212e-09, 4e-08, 0))
hIsland = hIsland.add(rect(3.469519342842242e-09, 3.2243416462294744e-09).transl(-4.386021499926382e-08, 4e-08, 0))
hIsland = hIsland.add(rect(4.923347620896603e-09, 9.223689176551067e-10).transl(-1.1619042330932794e-09, 4e-08, 0))
hIsland = hIsland.sub(rect(2.799794899035721e-09, -2.635477966606453e-09).transl(1.4757753537993012e-08, 4e-08, 0))
hIsland = hIsland.add(rect(9.572934157620999e-09, 7.549672002294871e-10).transl(-6.431137051602408e-08, 4e-08, 0))
hIsland = hIsland.add(rect(4.049800294429952e-09, 1.062044929413941e-09).transl(9.866212757067301e-08, 4e-08, 0))
hIsland = hIsland.add(rect(9.213275137198153e-09, 8.881144542434383e-10).transl(-7.642492556153944e-08, 4e-08, 0))
hIsland = hIsland.add(rect(5.9998164566315775e-09, 2.5728675282811083e-09).transl(-3.933156296955613e-09, 4e-08, 0))
hIsland = hIsland.sub(rect(7.738234318710559e-09, -8.209120075088081e-10).transl(8.511253012093758e-08, 4e-08, 0))
hIsland = hIsland.sub(rect(4.670239297938968e-09, -2.6199388012885335e-09).transl(8.452859050194712e-08, 4e-08, 0))
hIsland = hIsland.add(rect(3.2033039910492448e-09, 5.456049997919126e-10).transl(-5.0066386818872216e-08, 4e-08, 0))
hIsland = hIsland.sub(rect(5.563175617317863e-09, -1.6880151045529994e-10).transl(-7.600712406754609e-09, 4e-08, 0))
hIsland = hIsland.add(rect(3.925867007907904e-09, 3.5917124329888265e-09).transl(-5.118408111697159e-08, 4e-08, 0))
hIsland = hIsland.sub(rect(8.077290331249876e-09, -3.6477078201600005e-09).transl(-1.0596517311899625e-07, 3.90701636692866e-08, 0))
hIsland = hIsland.sub(rect(5.188492451731845e-09, -2.8689810740460665e-09).transl(-8.084369616477037e-08, 4e-08, 0))
hIsland = hIsland.sub(rect(6.865499910387878e-09, -1.0127739245033314e-09).transl(3.707853162603316e-08, 4e-08, 0))
hIsland = hIsland.add(rect(9.04468833789655e-09, 1.496455024651443e-09).transl(1.4715342683814019e-08, 4e-08, 0))
hIsland = hIsland.add(rect(7.819724585120281e-09, 5.921804718534878e-09).transl(5.130493906097302e-08, 4e-08, 0))
hIsland = hIsland.add(rect(7.131727282970222e-09, 4.2791875463969436e-09).transl(-1.1325210107294204e-07, 2.1199286548789055e-08, 0))
hIsland = hIsland.sub(rect(2.7343882027318983e-09, -4.72804455653208e-10).transl(4.853494966962698e-08, 4e-08, 0))
hIsland = hIsland.sub(rect(6.917761867679266e-09, -1.731797133693733e-10).transl(-6.070630278351848e-08, 4e-08, 0))
hIsland = hIsland.add(rect(4.269650698636197e-09, 2.1019527039329475e-09).transl(-1.1381499624760178e-07, 1.7684776886589688e-08, 0))
hIsland = hIsland.sub(rect(3.4793082842275926e-09, -1.4503562387957807e-09).transl(1.1190941536583723e-07, 2.728423146086271e-08, 0))
hIsland = hIsland.add(rect(7.398780870113968e-09, 7.912162064799456e-10).transl(-1.103430639960008e-07, 3.21475756166955e-08, 0))
hIsland = hIsland.add(rect(6.390708619368941e-09, 1.4136466420946388e-09).transl(-4.755406338455573e-08, 4e-08, 0))
hIsland = hIsland.add(rect(5.214924485700926e-09, 3.181196558694193e-09).transl(-9.974944644666054e-08, 4e-08, 0))
hIsland = hIsland.sub(rect(8.850496012579176e-09, -6.723123892415367e-10).transl(1.1497910495798197e-07, 2.4101847254294808e-09, 0))
hIsland = hIsland.add(rect(3.3849818624510297e-09, 1.704978263116791e-10).transl(-8.515338871947718e-08, 4e-08, 0))
hIsland = hIsland.sub(rect(9.19593467645468e-09, -2.316623085348529e-09).transl(-2.020521921663478e-08, 4e-08, 0))
hIsland = hIsland.add(rect(8.754278399423822e-09, 1.5143088032511512e-09).transl(7.533641456948698e-08, 4e-08, 0))
hIsland = hIsland.add(rect(4.999762016169397e-09, 2.5045515164604922e-09).transl(5.4706693641996935e-08, 4e-08, 0))
hIsland = hIsland.add(rect(3.412087667518929e-09, 3.587136063891912e-09).transl(8.426034420412434e-08, 4e-08, 0))
hIsland = hIsland.add(rect(3.5970932032638523e-09, 2.335861608322191e-09).transl(-4.891454230095867e-08, 4e-08, 0))
hIsland = hIsland.sub(rect(6.4250921780393474e-09, -1.4388855867513929e-09).transl(3.912667276341648e-08, 4e-08, 0))
hIsland = hIsland.sub(rect(3.0619061636546817e-09, -3.72530579285356e-09).transl(-2.723341555648966e-08, 4e-08, 0))
hIsland = hIsland.sub(rect(2.380429401778271e-09, -1.221027256733947e-10).transl(-3.733663098002034e-08, 4e-08, 0))
hIsland = hIsland.add(rect(2.071498723749141e-09, 2.5845046567613596e-09).transl(6.958332492727185e-08, 4e-08, 0))
hIsland = hIsland.add(rect(5.4572560602560406e-09, 4.530904829066228e-10).transl(-6.108968998707556e-08, 4e-08, 0))
hIsland = hIsland.sub(rect(3.1566705791578633e-09, -1.864063511277658e-09).transl(5.3601044866887246e-08, 4e-08, 0))
hIsland = hIsland.add(rect(7.308338203066215e-09, 7.689163672381041e-10).transl(-6.758505412161513e-08, 4e-08, 0))
hIsland = hIsland.sub(rect(3.5207570600490517e-09, -2.538943344193735e-09).transl(1.0869483434714879e-07, 3.5686294782521946e-08, 0))
hIsland = hIsland.sub(rect(2.4144238957067064e-09, -3.2367939979529304e-10).transl(4.287001542117902e-08, 4e-08, 0))
hIsland = hIsland.add(rect(7.829300273979603e-09, 8.229747708355565e-11).transl(-7.754045139667486e-08, 4e-08, 0))
hIsland = hIsland.add(rect(3.739390770760514e-09, 9.813098527607e-10).transl(5.204305326126926e-08, 4e-08, 0))
hIsland = hIsland.sub(rect(7.866386346156202e-09, -6.998741679392085e-10).transl(8.858478019890874e-09, 4e-08, 0))
hIsland = hIsland.sub(rect(7.522848691793808e-09, -3.2246773654983873e-09).transl(-6.651844953314144e-08, 4e-08, 0))
hIsland = hIsland.sub(rect(8.01156274744503e-09, -9.125296189008649e-10).transl(3.968729407671962e-08, 4e-08, 0))
hIsland = hIsland.sub(rect(6.937933170096873e-09, -1.7023152625554688e-09).transl(-4.712177872143553e-08, 4e-08, 0))
hIsland = hIsland.sub(rect(8.498874471492152e-09, -2.7553843200094984e-09).transl(-7.304988102338101e-08, 4e-08, 0))
hIsland = hIsland.sub(rect(5.595383422145561e-09, -5.818981827773753e-10).transl(2.0737964145072165e-09, 4e-08, 0))
hIsland = hIsland.sub(rect(4.499085203649308e-09, -4.398892106102307e-10).transl(-2.9340989524859636e-08, 4e-08, 0))
hIsland = hIsland.add(rect(6.3899644630178714e-09, 4.5031335100180004e-10).transl(5.3719690609529906e-08, 4e-08, 0))
hIsland = hIsland.add(rect(2.3887749011572713e-09, 9.808752711925956e-10).transl(8.130072303397216e-08, 4e-08, 0))
hIsland = hIsland.sub(rect(4.667540247996565e-09, -4.099891463653051e-10).transl(1.0916644321497874e-07, 3.4807195013355024e-08, 0))
hIsland = hIsland.sub(rect(5.749308090225909e-09, -1.2347012458485723e-10).transl(-7.214584895877898e-08, 4e-08, 0))
hIsland = hIsland.sub(rect(9.436015763668965e-09, -3.4289253614053226e-10).transl(-4.16276226879069e-08, 4e-08, 0))
hIsland = hIsland.add(rect(6.442361072095525e-09, 8.829985636447266e-10).transl(3.1213556116536495e-08, 4e-08, 0))
hIsland = hIsland.sub(rect(4.864337468930144e-09, -1.9931189242606646e-09).transl(-1.0242485971731534e-07, 4e-08, 0))
hIsland = hIsland.sub(rect(8.174181238498638e-09, -3.7735031649402343e-10).transl(1.0700752437397597e-07, 3.809406687903078e-08, 0))
hIsland = hIsland.add(rect(9.296950338537118e-09, 6.291349772680173e-10).transl(4.6686431427126025e-08, 4e-08, 0))
[...]
hIsland = hIsland.sub(rect(6.272356183703156e-09, -1.310300913030282e-10).transl(7.972006204590182e-08, 4e-08, 0))
hIsland = hIsland.add(rect(5.5450538480898844e-09, 2.8550978438912186e-09).transl(-2.2658608517278546e-08, 4e-08, 0))
hIsland = hIsland.add(rect(2.112990753745752e-09, 4.012362388575821e-10).transl(-9.584954329830381e-08, 4e-08, 0))
hIsland = hIsland.add(rect(8.895506504727884e-09, 3.356417562558091e-09).transl(-7.163634374895742e-08, 4e-08, 0))
hIsland = hIsland.add(rect(2.8297307699037557e-09, 1.7600139330569675e-09).transl(8.78707905601943e-09, 4e-08, 0))
hIsland = hIsland.add(rect(4.9474852837937885e-09, 7.107870830246602e-10).transl(-9.355740069780122e-08, 4e-08, 0))
hIsland = hIsland.sub(rect(4.25648652633821e-09, -1.6782418415437743e-09).transl(-2.313943700751226e-08, 4e-08, 0))
hIsland = hIsland.sub(rect(6.842058046745905e-09, -1.0418030521730175e-09).transl(4.6498461292228725e-09, 4e-08, 0))
hIsland = hIsland.add(rect(4.6560098763938795e-09, 2.8362623874419704e-09).transl(4.0715978002121664e-08, 4e-08, 0))
hIsland = hIsland.sub(rect(5.940216170533531e-09, -7.835209933992343e-10).transl(1.0679007295851536e-07, 3.832807061716362e-08, 0))
hIsland = hIsland.sub(rect(7.2179975723078995e-09, -2.428510396704143e-09).transl(8.595417800960526e-08, 4e-08, 0))
hIsland = hIsland.sub(rect(2.944548033406201e-09, -7.033156658825306e-10).transl(1.1228689299076974e-07, 2.580497138692303e-08, 0))
hIsland = hIsland.add(rect(7.592599974223653e-09, 7.024566787473195e-10).transl(6.1690039512887186e-09, 4e-08, 0))
hIsland = hIsland.add(rect(6.043959477353917e-09, 2.289580426044928e-09).transl(-4.592152368160892e-08, 4e-08, 0))
hIsland = hIsland.add(rect(5.162582920203477e-09, 1.157563457698328e-10).transl(8.618491715393036e-08, 4e-08, 0))
hIsland = hIsland.add(rect(8.519723148272018e-09, 1.4159927122898411e-09).transl(-6.664351368925778e-08, 4e-08, 0))
hIsland = hIsland.add(rect(4.714243905983564e-09, 4.570184167452809e-09).transl(-1.1430837346496513e-07, 1.3662555141061231e-08, 0))
hIsland = hIsland.sub(rect(3.3757943133537103e-09, -9.998670677753389e-10).transl(6.123984580553826e-08, 4e-08, 0))
hIsland = hIsland.add(rect(6.7774965338987056e-09, 1.8557244306969619e-09).transl(9.420735891672996e-08, 4e-08, 0))
hIsland = hIsland.sub(rect(2.0821232519875802e-09, -4.262696709717999e-10).transl(-7.008716685973114e-08, 4e-08, 0))
hIsland = hIsland.sub(rect(6.311417945084535e-09, -2.6249297945133597e-09).transl(7.975658170319334e-08, 4e-08, 0))
hIsland = hIsland.add(rect(3.0417919080064452e-09, 1.1010602513331705e-09).transl(4.481258637581674e-08, 4e-08, 0))
hIsland = hIsland.add(rect(9.730747063960093e-09, 2.5437881072159425e-09).transl(-7.480353419418788e-09, 4e-08, 0))
hIsland = hIsland.add(rect(4.891354924773456e-09, 8.101089550924868e-10).transl(-1.1212607464665108e-07, 2.6453274125226777e-08, 0))
hIsland = hIsland.sub(rect(4.683932066063281e-09, -2.4819547455770292e-09).transl(2.7738029261689988e-08, 4e-08, 0))
hIsland = hIsland.add(rect(2.7053672894334097e-09, 1.138625686787335e-09).transl(8.965761452392312e-09, 4e-08, 0))
hIsland = hIsland.sub(rect(2.7132859267776014e-09, -8.463408533380286e-10).transl(1.0434246310944916e-07, 3.9892521905811536e-08, 0))
hIsland = hIsland.sub(rect(5.735707074015161e-09, -8.441172634034708e-10).transl(3.0275074887835744e-08, 4e-08, 0))
hIsland = hIsland.add(rect(6.524474020851676e-09, 1.1967893392796244e-09).transl(4.429283847589501e-08, 4e-08, 0))
hIsland = hIsland.sub(rect(7.52055468103198e-09, -1.2072878679652561e-09).transl(-9.705053615319375e-08, 4e-08, 0))
hIsland = hIsland.add(rect(3.133487003530389e-09, 8.850392030590083e-10).transl(3.9444036391631127e-08, 4e-08, 0))
hIsland = hIsland.add(rect(7.976811475755115e-09, 1.3062727381548298e-09).transl(-1.2824809004767769e-08, 4e-08, 0))
hIsland = hIsland.sub(rect(7.874663066690285e-09, -2.4180264516744537e-09).transl(-1.0720940914635957e-07, 3.786199735252313e-08, 0))
hIsland = hIsland.sub(rect(4.354195144733488e-09, -2.1097122934574042e-09).transl(3.5210074575326125e-08, 4e-08, 0))
hIsland = hIsland.add(rect(4.7522135518965344e-09, 4.3183204840554447e-10).transl(7.521282544596933e-08, 4e-08, 0))
hIsland = hIsland.add(rect(6.0328863218468925e-09, 3.7375483234991883e-10).transl(-9.967000274522644e-08, 4e-08, 0))
hIsland = hIsland.sub(rect(4.4901795746981665e-09, -1.3649074922049117e-10).transl(-1.377735445235447e-08, 4e-08, 0))
hIsland = hIsland.add(rect(8.694419147196847e-09, 1.0509014624050302e-09).transl(-1.0008599429093196e-07, 4e-08, 0))
hIsland = hIsland.sub(rect(9.592667080670429e-09, -4.778677341508568e-11).transl(-2.751896726979713e-08, 4e-08, 0))
hIsland = hIsland.sub(rect(4.191012861305253e-09, -3.039708728355016e-09).transl(-1.1495207453928415e-07, 3.648012115988322e-09, 0))
hIsland = hIsland.sub(rect(8.175146280451355e-09, -1.366537937460071e-09).transl(6.722418023578611e-08, 4e-08, 0))
hIsland = hIsland.add(rect(6.931042777504106e-09, 1.6902587796076106e-09).transl(-6.963994492201833e-09, 4e-08, 0))
hIsland = hIsland.add(rect(4.068766264759081e-09, 2.5079337362397856e-09).transl(3.0289445470478535e-08, 4e-08, 0))
hIsland = hIsland.add(rect(8.507898298726688e-09, 4.5352382240453387e-10).transl(-1.1435412270247108e-07, 1.3216485259427108e-08, 0))
hIsland = hIsland.add(rect(8.954567323187579e-09, 5.559027384618627e-10).transl(-3.994076082757965e-09, 4e-08, 0))
hIsland = hIsland.sub(rect(5.140626580610545e-09, -2.9068291820776528e-09).transl(-7.928654824948131e-08, 4e-08, 0))
hIsland = hIsland.sub(rect(4.411389766250127e-09, -9.460424959866584e-10).transl(-7.071846602659539e-08, 4e-08, 0))
hIsland = hIsland.add(rect(7.306693477468583e-09, 1.609705960239917e-09).transl(1.017488946638729e-08, 4e-08, 0))
hIsland = hIsland.add(rect(8.751895282413388e-09, 9.689331456951152e-10).transl(-1.1922413072524756e-08, 4e-08, 0))
hIsland = hIsland.add(rect(5.129586551689832e-09, 1.0594924503887387e-09).transl(-7.1112673909879e-08, 4e-08, 0))
hIsland = hIsland.add(rect(4.161100859969798e-09, 4.904289052339684e-10).transl(6.156403350798813e-08, 4e-08, 0))
hIsland = hIsland.add(rect(3.147851438648729e-09, 1.865939600971015e-09).transl(-5.780117214427559e-08, 4e-08, 0))
hIsland = hIsland.sub(rect(2.9483870763507184e-09, -3.763938995844984e-09).transl(3.766288314481345e-08, 4e-08, 0))
hIsland = hIsland.sub(rect(8.180248487296993e-09, -7.796776944975068e-10).transl(-1.1231587441137078e-07, 2.568510390138533e-08, 0))
hIsland = hIsland.add(rect(8.368484263221715e-09, 3.1770079858186623e-09).transl(-6.396139930169236e-08, 4e-08, 0))
hIsland = hIsland.sub(rect(5.0546882598633325e-09, -1.9668078816633876e-09).transl(-5.2124134099788654e-08, 4e-08, 0))
hIsland = hIsland.sub(rect(7.627664075764267e-09, -6.966538649528863e-10).transl(-2.2827320250037197e-08, 4e-08, 0))
hIsland = hIsland.sub(rect(5.593996627009498e-09, -2.7145648233559182e-09).transl(-4.638708086359991e-09, 4e-08, 0))
hIsland = hIsland.add(rect(9.816093673700166e-09, 3.648381488251283e-09).transl(5.0059164866450646e-08, 4e-08, 0))
hIsland = hIsland.sub(rect(7.091212525978351e-09, -2.4367805766718442e-09).transl(-6.569995139478471e-08, 4e-08, 0))
hIsland = hIsland.add(rect(8.975616186956593e-09, 1.4928001471121103e-09).transl(-7.366922916770624e-08, 4e-08, 0))
hIsland = hIsland.add(rect(6.080378268696771e-09, 1.8325103290334764e-09).transl(1.6780230207251395e-08, 4e-08, 0))
hIsland = hIsland.sub(rect(7.078389082971032e-09, -5.421205863571524e-09).transl(-6.723423715064676e-08, 4e-08, 0))
hIsland = hIsland.sub(rect(2.2308928571786853e-09, -5.330920242577869e-11).transl(-4.876838761811931e-08, 4e-08, 0))
hIsland = hIsland.add(rect(3.9525673022399796e-09, 1.066770223896524e-09).transl(4.547681320725066e-08, 4e-08, 0))
hIsland = hIsland.sub(rect(9.42470518895324e-09, -3.449175888098767e-09).transl(1.093005028668015e-07, 3.453900196871378e-08, 0))
hIsland = hIsland.sub(rect(8.719127260083077e-09, -2.2093683312700246e-09).transl(-1.1373633955709126e-08, 4e-08, 0))
hIsland = hIsland.sub(rect(6.158566324974561e-09, -1.9018413024206098e-09).transl(-6.633497187166468e-08, 4e-08, 0))
hIsland = hIsland.sub(rect(7.0229815800994425e-09, -1.091606417348323e-09).transl(-6.891216601871757e-08, 4e-08, 0))
hIsland = hIsland.add(rect(6.9869813598234545e-09, 1.2551637344056104e-09).transl(-6.036171667235418e-08, 4e-08, 0))
hIsland = hIsland.add(rect(5.726997236913328e-09, 4.965145478131181e-10).transl(8.648387631793365e-08, 4e-08, 0))
hIsland = hIsland.add(rect(3.93393442354865e-09, 6.193176284347504e-10).transl(-2.66534945963392e-08, 4e-08, 0))
hIsland = hIsland.add(rect(9.075842281452548e-09, 4.1920602153309334e-10).transl(-9.158365923753693e-09, 4e-08, 0))
hIsland = hIsland.add(rect(9.542917512245372e-09, 9.584737398661368e-10).transl(1.0940589917698904e-08, 4e-08, 0))
hIsland = hIsland.sub(rect(5.9835147307343845e-09, -3.100731078035058e-09).transl(-4.569204618329223e-08, 4e-08, 0))
hIsland = hIsland.add(rect(2.1473750968817485e-09, 2.112454470513362e-09).transl(2.6815876903554444e-08, 4e-08, 0))
hIsland = hIsland.sub(rect(8.359926773723218e-09, -4.1237145643624214e-10).transl(9.586057482014259e-08, 4e-08, 0))
hIsland = hIsland.add(rect(7.762262495956686e-09, 4.1683492331392204e-11).transl(3.644878021372275e-08, 4e-08, 0))
hIsland = hIsland.add(rect(6.680250692698761e-09, 6.773852655651737e-10).transl(2.964936173137289e-08, 4e-08, 0))
hIsland = hIsland.add(rect(8.816894577694377e-09, 2.30979219708802e-09).transl(-6.112908267135122e-08, 4e-08, 0))
hIsland = hIsland.sub(rect(2.014595614486571e-09, -2.8508799579975225e-09).transl(6.010504914869927e-08, 4e-08, 0))
hIsland = hIsland.sub(rect(4.6856047610575555e-09, -1.109755339605093e-09).transl(-7.335059498537817e-08, 4e-08, 0))
hIsland = hIsland.add(rect(8.307943201180935e-09, 5.16176998502207e-10).transl(9.544889148617423e-08, 4e-08, 0))
hIsland = hIsland.add(rect(9.50482410270052e-09, 2.6308856096257557e-10).transl(-8.392734048544576e-08, 4e-08, 0))
hIsland = hIsland.add(rect(4.3132645386116e-09, 1.3149002976565044e-09).transl(6.510536051005186e-08, 4e-08, 0))
hIsland = hIsland.add(rect(4.566654381772911e-09, 2.6562502055863707e-09).transl(6.65960592247199e-08, 4e-08, 0))
hIsland = hIsland.sub(rect(8.783563747539518e-09, -4.996256260650924e-09).transl(1.044479448032705e-07, 3.9863874330932674e-08, 0))
hIsland = hIsland.add(rect(3.894410300839078e-09, 1.3850103589288864e-09).transl(1.1161130044282997e-07, 2.8355145521026627e-08, 0))
hIsland = hIsland.sub(rect(3.139686911870044e-09, -2.7277302300707372e-09).transl(-5.117753454163927e-08, 4e-08, 0))
hIsland = hIsland.sub(rect(3.07759350803398e-09, -3.3190101753165138e-09).transl(1.3137630983023613e-08, 4e-08, 0))
hIsland = hIsland.add(rect(2.305682542690182e-09, 1.972427447669337e-09).transl(8.564166621983906e-08, 4e-08, 0))
hIsland = hIsland.add(rect(2.0946100550545426e-09, 1.4993464261208772e-10).transl(9.489404640230371e-08, 4e-08, 0))
hIsland = hIsland.sub(rect(3.1560952625924108e-09, -9.991057773332025e-10).transl(6.989589784928214e-08, 4e-08, 0))
hIsland = hIsland.sub(rect(9.205026543789313e-09, -5.879855817961482e-10).transl(2.4521996071026173e-08, 4e-08, 0))
hIsland = hIsland.add(rect(9.440810373592116e-09, 3.171903388287357e-09).transl(4.918952785346469e-08, 4e-08, 0))
hIsland = hIsland.add(rect(4.8841166451661195e-09, 2.0066753035533252e-10).transl(-8.320829429200773e-08, 4e-08, 0))
hIsland = hIsland.sub(rect(7.232167537904355e-09, -5.961551509499803e-10).transl(1.1085573494445326e-07, 3.074734672594058e-08, 0))
hIsland = hIsland.add(rect(2.7361166689757495e-09, 2.6996572554079055e-09).transl(5.443975120797269e-09, 4e-08, 0))
hIsland = hIsland.add(rect(5.234551711910187e-09, 5.936808931683022e-10).transl(1.4436809878843542e-08, 4e-08, 0))
hIsland = hIsland.add(rect(8.990665905230622e-09, 1.0477312906196057e-09).transl(7.954385878604975e-09, 4e-08, 0))
hIsland = hIsland.add(rect(5.509818632272148e-09, 7.860562335248323e-10).transl(1.0144805537207549e-07, 4e-08, 0))
hIsland = hIsland.sub(rect(6.404327674768353e-09, -1.2199183449348089e-09).transl(1.1283969568879867e-07, 2.333808963936963e-08, 0))
hIsland = hIsland.sub(rect(6.2243623720596535e-09, -3.534082972589858e-10).transl(-1.1209134995449709e-07, 2.6589639316452958e-08, 0))
hIsland = hIsland.add(rect(2.443523404561552e-09, 1.3193429877379212e-10).transl(6.907914870334483e-08, 4e-08, 0))
hIsland = hIsland.add(rect(9.691493782012977e-09, 1.582469721526646e-09).transl(1.0564931230673704e-09, 4e-08, 0))
hIsland = hIsland.sub(rect(5.184454027830747e-09, -8.001604100259851e-10).transl(2.2942297812788954e-08, 4e-08, 0))
hIsland = hIsland.sub(rect(6.589004365685564e-09, -2.269554703553366e-09).transl(3.5332492297186274e-08, 4e-08, 0))
hIsland = hIsland.add(rect(3.797313110986523e-09, 1.1222382201188985e-09).transl(-7.682350930161261e-08, 4e-08, 0))
hIsland = hIsland.sub(rect(2.128240519435342e-09, -9.528254694939744e-11).transl(9.336033713092439e-08, 4e-08, 0))
hIsland = hIsland.sub(rect(4.370230673656628e-09, -2.775292851217466e-09).transl(-3.45755270195668e-08, 4e-08, 0))
hIsland = hIsland.add(rect(7.877961338284598e-09, 6.270539978151551e-10).transl(2.466842509342011e-08, 4e-08, 0))
hIsland = hIsland.sub(rect(2.2112211425093424e-09, -1.361334682373122e-09).transl(9.505574321426968e-08, 4e-08, 0))
hIsland = hIsland.sub(rect(4.6291153612410305e-09, -1.7178806411220352e-09).transl(2.1042708586916314e-08, 4e-08, 0))
hIsland = hIsland.sub(rect(4.026587299058002e-09, -4.381271885629051e-10).transl(7.322674273976085e-08, 4e-08, 0))
hIsland = hIsland.sub(rect(6.61551452948687e-09, -2.6675846320635544e-09).transl(9.025256126501702e-08, 4e-08, 0))
hIsland = hIsland.add(rect(4.9472575878826765e-09, 2.829630321434287e-10).transl(2.0241032674463602e-09, 4e-08, 0))
hIsland = hIsland.sub(rect(3.822366706881653e-09, -3.9435259395556535e-09).transl(-1.090901170993162e-07, 3.495619135745805e-08, 0))
hIsland = hIsland.add(rect(4.049281731805379e-09, 8.120865665035066e-10).transl(-6.698012409396092e-09, 4e-08, 0))
hIsland = hIsland.sub(rect(4.91563131885533e-09, -1.2782863166358832e-09).transl(-1.0615348922534867e-07, 3.892063485723526e-08, 0))
hIsland = hIsland.sub(rect(5.154273214929802e-09, -1.8180736014168523e-09).transl(5.4566051616635976e-08, 4e-08, 0))
hIsland = hIsland.add(rect(7.238726081183319e-09, 2.0608332888135268e-10).transl(-7.155046045061311e-08, 4e-08, 0))
hIsland = hIsland.sub(rect(6.5085398707902586e-09, -8.747424262064606e-10).transl(-5.3648754330963024e-08, 4e-08, 0))
hIsland = hIsland.add(rect(5.2693266248898876e-09, 4.2005674919779977e-10).transl(2.1821681520355e-08, 4e-08, 0))
hIsland = hIsland.add(rect(7.077903717234825e-09, 2.7133136708898597e-10).transl(2.6674333717751164e-08, 4e-08, 0))
hIsland = hIsland.sub(rect(7.889209220728631e-09, -2.5036119563957895e-09).transl(-1.0791699376926365e-07, 3.693188597466702e-08, 0))
hIsland = hIsland.add(rect(5.288102386231187e-09, 1.2087764802114857e-10).transl(-5.0537203846789524e-08, 4e-08, 0))
hIsland = hIsland.sub(rect(5.88143805286925e-09, -4.0124163811482087e-10).transl(-6.358931510037141e-08, 4e-08, 0))
hIsland = hIsland.add(rect(8.634395877457795e-09, 7.167100520341992e-10).transl(-5.71267974598941e-08, 4e-08, 0))
hIsland = hIsland.add(rect(3.1868495806070714e-09, 3.1604104223678604e-09).transl(-1.2727839636899298e-08, 4e-08, 0))
hIsland = hIsland.add(rect(7.905265330597739e-09, 1.8421670247319318e-09).transl(4.011091176478875e-08, 4e-08, 0))
hIsland = hIsland.sub(rect(7.327852323335638e-09, -2.57092135128385e-11).transl(3.1687978798222685e-08, 4e-08, 0))
hIsland = hIsland.add(rect(6.099100660525854e-09, 6.923314043288872e-10).transl(-1.041016763846984e-07, 3.9945215493142645e-08, 0))
hIsland = hIsland.add(rect(8.717013913842288e-09, 1.7028905937926546e-09).transl(8.07761120685951e-08, 4e-08, 0))
hIsland = hIsland.sub(rect(3.1089495376596113e-09, -3.1531261503746796e-10).transl(-8.380712018729545e-08, 4e-08, 0))
hIsland = hIsland.sub(rect(8.411786493872967e-09, -1.7299942621841682e-09).transl(1.0558488646072474e-07, 3.9337154211060017e-08, 0))
hIsland = hIsland.sub(rect(7.912629723993349e-09, -1.1883152767096047e-09).transl(-6.159931559578343e-08, 4e-08, 0))
hIsland = hIsland.add(rect(5.695238419816355e-09, 1.0326265322826996e-10).transl(6.293157178635627e-08, 4e-08, 0))
hIsland = hIsland.add(rect(3.95777574705179e-09, 2.722915426232503e-09).transl(7.493345852354576e-08, 4e-08, 0))
hIsland = hIsland.add(rect(7.651558046039072e-09, 1.8578127738477871e-09).transl(7.410585711355459e-08, 4e-08, 0))
hIsland = hIsland.add(rect(8.136516403024669e-09, 3.777882670709642e-09).transl(6.511478120454097e-08, 4e-08, 0))
hIsland = hIsland.sub(rect(3.371665236281694e-09, -4.858177864443385e-09).transl(7.840241674969e-09, 4e-08, 0))
hIsland = hIsland.add(rect(2.228025275696328e-09, 1.4320951788554545e-09).transl(-1.0887609520459313e-07, 3.5360007587293714e-08, 0))
hIsland = hIsland.sub(rect(5.0005679117463865e-09, -5.78380223220429e-09).transl(9.78293404070026e-08, 4e-08, 0))
hIsland = hIsland.add(rect(2.1388361113839748e-09, 2.1837709400285611e-10).transl(-9.546371444122795e-08, 4e-08, 0))
hIsland = hIsland.add(rect(8.14274626738027e-09, 5.984396445838082e-10).transl(-4.359627351491334e-09, 4e-08, 0))
hIsland = hIsland.sub(rect(2.3360497066385263e-09, -4.134310846935456e-09).transl(7.815556871339169e-08, 4e-08, 0))
hIsland = hIsland.add(rect(6.396376695296758e-09, 1.4457449292750048e-09).transl(7.539996226386677e-08, 4e-08, 0))
hIsland = hIsland.add(rect(3.0750644020975626e-09, 4.692799297244984e-09).transl(-5.104069129727997e-08, 4e-08, 0))
hIsland = hIsland.add(rect(5.636644772127783e-09, 2.0914578304035933e-10).transl(1.3601434165295836e-08, 4e-08, 0))
hIsland = hIsland.sub(rect(6.243171113444398e-09, -2.1827707057973827e-09).transl(-7.898624524521448e-08, 4e-08, 0))
hIsland = hIsland.sub(rect(8.262173873672354e-09, -1.2898974607113994e-10).transl(-8.320290208347699e-08, 4e-08, 0))
hIsland = hIsland.add(rect(9.585271294796407e-09, 3.169593774053576e-09).transl(-2.8974952621578443e-08, 4e-08, 0))
hIsland = hIsland.sub(rect(6.382516857437544e-09, -8.478959493840568e-10).transl(-5.1773580458089866e-08, 4e-08, 0))
hIsland = hIsland.sub(rect(9.827259908507392e-09, -1.6175330174578774e-09).transl(-1.4380912159953225e-09, 4e-08, 0))
hIsland = hIsland.add(rect(5.1345507198933645e-09, 2.877689097335707e-09).transl(-7.098226402728613e-08, 4e-08, 0))
hIsland = hIsland.sub(rect(6.525631430933098e-09, -1.9035067293353797e-09).transl(1.1451107951467986e-08, 4e-08, 0))
hIsland = hIsland.sub(rect(7.321884441763287e-09, -2.622765384278322e-10).transl(-2.525438131925319e-08, 4e-08, 0))
hIsland = hIsland.add(rect(8.850944140892828e-09, 3.709339011043458e-09).transl(-3.259979281745097e-08, 4e-08, 0))
hIsland = hIsland.sub(rect(7.512216140105213e-09, -3.805908850946947e-10).transl(1.0002608709406764e-08, 4e-08, 0))
hIsland = hIsland.add(rect(9.582871904678144e-09, 2.4729975126263658e-09).transl(1.6795075886841848e-08, 4e-08, 0))
hIsland = hIsland.add(rect(7.821680089038551e-09, 1.9558883352929086e-10).transl(5.2794512213997415e-08, 4e-08, 0))
hIsland = hIsland.add(rect(2.1875229431975785e-09, 3.918981717140885e-09).transl(1.1144956261394405e-08, 4e-08, 0))
vIsland = hIsland.rotz(pi / 2)
vIslands = vIslands.add(vIsland.transl(0, -a/2, 0))
DefRegion(1, hIslands)
DefRegion(2, vIslands)
TableAdd(m_full.Region(1))
TableAdd(m_full.Region(2))
setgeom(hIslands.add(vIslands))
save(m)
r2o2 := sqrt(2) / 2
m = RandomMagSeed(4)
B_ext = vector(Bmax*r2o2, Bmax*r2o2, 0)
relax()
minimize()
for B := Bmax; B >= -Bmax; B -= Bstep {
	B_ext = vector(B*r2o2, B*r2o2, 0)
	minimize()
	tablesave()
}
//********************************************************************//
//Please cite the following references, relevant for your simulation. //
//See bibtex file in output folder for justification.                 //
//********************************************************************//
//   * Vansteenkiste et al., AIP Adv. 4, 107133 (2014).
//   * Exl et al., J. Appl. Phys. 115, 17D118 (2014).
