# t (s)	mx ()	my ()	mz ()	B_extx (T)	B_exty (T)	B_extz (T)	m_fullx (A/m)	m_fully (A/m)	m_fullz (A/m)	m_full.region1x (A/m)	m_full.region1y (A/m)	m_full.region1z (A/m)	m_full.region2x (A/m)	m_full.region2y (A/m)	m_full.region2z (A/m)
0	0.6479335	0.64793086	-6.079674e-10	0.07071083	0.07071083	0	100510.46	100510.06	-9.626039e-05	625438.94	281665.62	-0.0003875	281667.97	625437.7	-0.00046875
0	0.64769626	0.64769584	-1.7881394e-10	0.07035724	0.07035724	0	100473.66	100473.6	-2.7700831e-05	625629.7	281144.66	-8.75e-05	281145.12	625629.5	-0.000175
0	0.6474543	0.647454	-2.5629998e-10	0.07000352	0.07000351	0	100436.13	100436.08	-4.2243766e-05	625828.94	280606.75	-0.0001375	280607.16	625828.9	-0.000225
0	0.647213	0.6472126	-4.053116e-10	0.06964995	0.06964995	0	100398.68	100398.64	-5.8864265e-05	626025.5	280072.25	-0.0003	280072.6	626025.5	-0.00024375
0	0.64696753	0.6469672	-2.861023e-10	0.06929654	0.06929654	0	100360.61	100360.57	-4.362881e-05	626225.5	279528.7	-0.0002375	279529.03	626225.44	-0.000165625
0	0.6467244	0.64672405	-1.7285347e-10	0.06894301	0.06894301	0	100322.9	100322.84	-2.7008311e-05	626422	278991.78	-6.25e-05	278992.2	626421.94	-0.00019375
0	0.6464781	0.64647776	-5.90086e-10	0.06858926	0.06858927	0	100284.695	100284.65	-9.1412745e-05	626620.7	278448.25	-0.00041875	278448.62	626620.7	-0.00041875
0	0.6462297	0.64622945	-2.6226044e-10	0.0682357	0.0682357	0	100246.164	100246.12	-4.501385e-05	626820.44	277900.78	-0.000225	277901.12	626820.44	-0.000209375
0	0.6459801	0.6459798	-3.2782554e-10	0.06788229	0.06788229	0	100207.445	100207.39	-5.193906e-05	627020.94	277350.88	-0.0002625	277351.28	627020.9	-0.000203125
0	0.6457291	0.6457288	-3.5166742e-10	0.06752872	0.06752872	0	100168.51	100168.45	-5.2631578e-05	627221.2	276799.2	-0.0003375	276799.56	627221.2	-0.00016875
0	0.64547867	0.6454783	-5.662441e-10	0.06717499	0.06717499	0	100129.66	100129.6	-8.864266e-05	627419.6	276250.03	-0.0003625	276250.4	627419.6	-0.000403125
0	0.64522344	0.6452232	-2.2649765e-10	0.06682174	0.06682174	0	100090.07	100090.016	-3.3933517e-05	627620.44	275692.03	-0.0001375	275692.4	627620.4	-0.000140625
0	0.6449706	0.64497024	-2.503395e-10	0.06646816	0.06646816	0	100050.84	100050.79	-4.0858726e-05	627820.75	275137.72	-0.00015625	275138.06	627820.75	-0.000215625
0	0.64471287	0.6447126	-3.874302e-10	0.066114426	0.066114426	0	100010.875	100010.83	-5.7479225e-05	628023.5	274574.22	-0.0002375	274574.56	628023.5	-0.000309375
0	0.6444564	0.644456	-2.2649765e-10	0.06576087	0.06576087	0	99971.06	99971.016	-3.3240998e-05	628224.25	274014.3	-0.0002	274014.66	628224.2	-0.00011875
0	0.6441983	0.64419794	-3.4570694e-10	0.06540745	0.06540745	0	99931.03	99930.984	-5.8171747e-05	628424.75	273452.38	-0.00025	273452.78	628424.7	-0.00024375
0	0.64393824	0.64393806	-2.5629998e-10	0.06505392	0.06505392	0	99890.7	99890.664	-3.8781163e-05	628626.25	272887	-0.0001625	272887.4	628626.2	-0.000190625
0	0.6436752	0.6436749	-1.7881394e-10	0.06470019	0.06470019	0	99849.88	99849.836	-2.7700831e-05	628830.1	272314.78	-0.000125	272315.12	628830.06	-9.375e-05
0	0.64341307	0.64341277	-2.384186e-10	0.06434663	0.06434663	0	99809.23	99809.18	-3.7396123e-05	629031.1	271746.75	-0.0002625	271747.12	629031.2	-4.0625e-05
0	0.643147	0.64314675	-1.4901161e-10	0.06399319	0.06399319	0	99767.96	99767.914	-2.1468144e-05	629235.5	271169.9	0	271170.28	629235.56	-0.000178125
0	0.6428818	0.64288163	-1.66893e-10	0.06363963	0.06363963	0	99726.836	99726.79	-2.5623269e-05	629437.44	270596.78	-7.5e-05	270597.12	629437.44	-0.00018125
0	0.64261395	0.64261377	-1.0728836e-10	0.06328592	0.06328592	0	99685.27	99685.23	-1.5235457e-05	629640.7	270018.53	-8.125e-05	270018.9	629640.7	-6.5625e-05
0	0.6423453	0.6423451	-8.940697e-11	0.062932625	0.062932625	0	99643.59	99643.56	-1.3850416e-05	629844	269439.1	2.5e-05	269439.44	629844	-0.00016875
0	0.6420746	0.6420743	-8.34465e-11	0.06257908	0.06257908	0	99601.59	99601.555	-1.1080332e-05	630048.25	268855.84	-0.0001	268856.16	630048.1	1.875e-05
0	0.64180094	0.64180064	-8.34465e-11	0.062225346	0.062225346	0	99559.13	99559.1	-1.3850416e-05	630252.75	268268.2	-6.25e-05	268268.53	630252.75	-4.6875e-05
0	0.6415284	0.6415281	-4.3511392e-10	0.061871808	0.061871808	0	99516.87	99516.836	-6.6481996e-05	630456.75	267682.56	-0.00033125	267682.9	630456.75	-0.000290625
0	0.641252	0.6412518	-2.026558e-10	0.06151834	0.06151834	0	99474	99473.96	-3.1163436e-05	630661.94	267090.53	-0.0001375	267090.84	630661.94	-0.00015625
0	0.64097667	0.64097637	-3.874302e-10	0.06116483	0.06116483	0	99431.27	99431.25	-5.7479225e-05	630866.3	266500.6	-0.00038125	266500.9	630866.3	-0.00014375
0	0.6406967	0.64069647	-3.6358833e-10	0.06081111	0.060811114	0	99387.86	99387.83	-5.6094184e-05	631073.9	265901.22	-0.0002625	265901.53	631073.94	-0.000234375
0	0.6404186	0.6404184	-1.6093255e-10	0.060457572	0.060457572	0	99344.71	99344.68	-2.3545706e-05	631277.7	265307.97	-6.25e-05	265308.3	631277.75	-0.00015
0	0.64013475	0.6401346	-1.5497208e-10	0.060104094	0.060104094	0	99300.68	99300.66	-2.4930749e-05	631485.8	264702.53	-1.875e-05	264702.88	631485.9	-0.000203125
0	0.6398535	0.6398533	-2.2649765e-10	0.059750553	0.059750553	0	99257.055	99257.01	-3.531856e-05	631690.06	264104.5	-0.00015	264104.84	631690.06	-0.000159375
0	0.6395676	0.6395674	-3.218651e-10	0.05939683	0.059396837	0	99212.7	99212.68	-4.9168975e-05	631896.75	263497.6	-0.0003	263497.94	631896.75	-0.00014375
0	0.6392827	0.6392825	-2.2053719e-10	0.05904352	0.05904352	0	99168.516	99168.484	-3.462604e-05	632103.5	262892.06	-8.125e-05	262892.38	632103.5	-0.00023125
0	0.6389949	0.6389947	-6.556511e-11	0.058689978	0.058689978	0	99123.86	99123.836	-9.695291e-06	632310.5	262282.03	-7.5e-05	262282.34	632310.5	-3.4375e-05
0	0.6387037	0.63870347	-3.8146972e-10	0.05833626	0.05833626	0	99078.69	99078.66	-5.6786703e-05	632518.2	261666.58	-0.000275	261666.92	632518.25	-0.0002140625
0	0.6384123	0.6384121	-6.079674e-10	0.057982747	0.057982747	0	99033.484	99033.45	-9.210526e-05	632727.3	261049.66	-0.00041875	261049.95	632727.25	-0.000396875
0	0.63812023	0.63812006	-2.6226044e-10	0.05762923	0.05762923	0	98988.19	98988.15	-4.2243766e-05	632934.8	260433.28	-0.000175	260433.56	632934.75	-0.0001875
0	0.637827	0.63782686	-1.1324883e-10	0.057275705	0.057275698	0	98942.695	98942.67	-1.6620499e-05	633141.4	259816.17	-7.5e-05	259816.45	633141.4	-6.875e-05
0	0.6375284	0.63752824	-6.556511e-11	0.056922037	0.056922037	0	98896.37	98896.34	-1.1080332e-05	633351.94	259187.48	-7.5e-05	259187.81	633352.06	1.5625e-05
0	0.6372318	0.63723177	-2.5629998e-10	0.05656851	0.056568507	0	98850.37	98850.34	-3.7396123e-05	633559.94	258564.36	-0.0001375	258564.66	633559.94	-0.0002
0	0.6369335	0.63693327	-3.4570694e-10	0.056214985	0.05621499	0	98804.08	98804.055	-5.5401662e-05	633767.5	257939.1	-0.0001375	257939.4	633767.5	-0.000353125
0	0.6366316	0.6366314	-2.2649765e-10	0.05586147	0.05586147	0	98757.25	98757.234	-3.531856e-05	633977.2	257306.78	-0.00015	257307.06	633977.25	-0.0001375
0	0.6363281	0.63632786	-4.887581e-10	0.055507753	0.055507753	0	98710.17	98710.15	-7.686981e-05	634187.8	256671.23	-0.00035	256671.52	634187.9	-0.000328125
0	0.63602376	0.63602346	-4.6491622e-10	0.05515441	0.05515441	0	98662.96	98662.93	-7.4792246e-05	634395.6	256037.22	-0.0003125	256037.48	634395.75	-0.000315625
0	0.6357172	0.63571703	-1.0728836e-10	0.054800894	0.05480089	0	98615.41	98615.375	-1.731302e-05	634607.1	255396.61	-6.25e-05	255396.86	634607.2	-5.9375e-05
0	0.63540846	0.6354082	-1.7285347e-10	0.054447185	0.054447185	0	98567.51	98567.484	-2.4930749e-05	634817.8	254753.69	-6.25e-05	254753.95	634817.8	-0.0001515625
0	0.6351003	0.6351002	-2.0861626e-10	0.054093685	0.05409368	0	98519.7	98519.695	-3.3240998e-05	635026.2	254114	-0.0002375	254114.28	635026.2	-2.5e-05
0	0.6347884	0.63478816	-4.1723253e-10	0.05374012	0.05374012	0	98471.32	98471.3	-6.509695e-05	635236.94	253466.42	-0.00036875	253466.7	635236.94	-0.0002375
0	0.63447464	0.6344744	-2.9802322e-10	0.05338661	0.05338661	0	98422.66	98422.63	-4.639889e-05	635448.2	252815.95	-0.000275	252816.23	635448.3	-0.000109375
0	0.6341568	0.63415676	-1.2516975e-10	0.05303296	0.05303296	0	98373.37	98373.336	-1.9390582e-05	635661.44	252157.9	-7.5e-05	252158.16	635661.56	-0.00011875
0	0.63384193	0.6338418	-2.682209e-10	0.052679453	0.052679453	0	98324.5	98324.49	-4.0858726e-05	635871.1	251507.3	-0.0001875	251507.56	635871.25	-0.000175
0	0.6335229	0.6335228	-2.7418137e-10	0.052325867	0.052325867	0	98275.02	98275.01	-4.0858726e-05	636082.1	250849.73	-0.0001875	250849.97	636082.25	-0.0001609375
0	0.63320225	0.6332021	-9.536743e-11	0.051972385	0.051972385	0	98225.266	98225.26	-1.5927977e-05	636294.25	250188.6	-7.5e-05	250188.83	636294.4	-6.09375e-05
0	0.63287854	0.6328784	-2.2053719e-10	0.051618677	0.05161868	0	98175.06	98175.04	-3.7396123e-05	636508.3	249521.38	-0.0002	249521.64	636508.44	-0.000125
0	0.63255405	0.63255394	-3.5762787e-10	0.051265296	0.051265296	0	98124.73	98124.7	-5.7479225e-05	636720.6	248854.73	-0.000175	248854.98	636720.75	-0.000325
0	0.6322285	0.63222843	-2.026558e-10	0.050911795	0.050911795	0	98074.234	98074.22	-3.2548476e-05	636932.1	248187.62	-0.000125	248187.88	636932.2	-0.00015
0	0.63189983	0.6318997	-4.887581e-10	0.050558098	0.050558098	0	98023.23	98023.23	-7.409972e-05	637144.75	247514.78	-0.0003796875	247515.02	637144.8	-0.000278125
0	0.63157	0.63156986	-1.1920929e-11	0.050204623	0.050204623	0	97972.08	97972.055	-4.1551248e-06	637357.8	246839.9	-6.25e-05	246840.17	637357.9	5.46875e-05
0	0.6312372	0.63123715	-8.34465e-11	0.049851004	0.049851004	0	97920.46	97920.44	-1.5235457e-05	637571.8	246160.16	-7.5e-05	246160.39	637571.8	-3.125e-05
0	0.63090396	0.6309038	-3.5762787e-10	0.049497522	0.049497515	0	97868.76	97868.734	-5.6094184e-05	637784.75	245480.58	-0.0003703125	245480.81	637784.8	-0.000134375
0	0.630568	0.63056797	-1.013279e-10	0.04914388	0.04914388	0	97816.66	97816.64	-1.5235457e-05	637998.5	244796.56	6.25e-06	244796.78	637998.56	-0.000121875
0	0.6302297	0.6302296	-2.9802322e-10	0.048790403	0.048790403	0	97764.164	97764.15	-4.2936288e-05	638212.9	244108.42	-0.0002375	244108.64	638213	-0.000146875
0	0.6298879	0.6298879	-1.0728836e-10	0.048436765	0.048436765	0	97711.13	97711.13	-1.6620499e-05	638427.44	243415.42	-8.4375e-05	243415.62	638427.6	-7.1875e-05
0	0.62954617	0.62954617	-3.33786e-10	0.048083298	0.048083298	0	97658.125	97658.125	-5.193906e-05	638643.2	242721.28	-0.0002125	242721.48	638643.3	-0.000240625
0	0.6292041	0.629204	7.748604e-11	0.047729604	0.047729604	0	97605.07	97605.06	1.31578945e-05	638855.8	242029.83	6.25e-05	242030	638855.9	2.1875e-05
0	0.6288564	0.6288564	-3.695488e-10	0.04737618	0.047376174	0	97551.13	97551.13	-5.6786703e-05	639072.6	241326.12	-0.00026875	241326.34	639072.8	-0.000221875
0	0.62850964	0.62850964	-2.6226044e-10	0.047022708	0.047022708	0	97497.336	97497.336	-4.0166204e-05	639285.9	240627.45	-0.0002875	240627.61	639286	-9.6875e-05
0	0.6281591	0.6281591	-2.503395e-10	0.046669014	0.046669014	0	97442.97	97442.95	-4.0858726e-05	639501.25	239921.31	-0.0002	239921.52	639501.44	-0.000125
0	0.6278075	0.6278075	-3.6358833e-10	0.04631557	0.04631557	0	97388.42	97388.42	-5.6786703e-05	639717.25	239213.2	-0.00025	239213.36	639717.3	-0.00024375
0	0.6274536	0.6274536	-1.2516975e-10	0.045961883	0.045961883	0	97333.53	97333.53	-2.0083102e-05	639932.56	238502.34	-2.5e-05	238502.53	639932.75	-0.0001390625
0	0.62709606	0.627096	-3.33786e-10	0.045608435	0.045608427	0	97278.06	97278.05	-5.193906e-05	640150.3	237784.02	-0.000225	237784.17	640150.4	-0.000225
0	0.6267386	0.62673867	-3.159046e-10	0.0452548	0.0452548	0	97222.61	97222.625	-4.8476453e-05	640364.94	237068.98	-0.00024375	237069.12	640365.1	-0.000175
0	0.62637687	0.62637687	-3.33786e-10	0.04490134	0.04490134	0	97166.49	97166.49	-5.2631578e-05	640581.5	236345.86	-0.000275	236346.06	640581.75	-0.000146875
0	0.62601346	0.6260135	-3.0696393e-10	0.044547655	0.044547655	0	97110.125	97110.13	-4.8476453e-05	640799.7	235619	-0.000225	235619.16	640799.9	-0.000209375
0	0.6256508	0.6256508	-1.9073486e-10	0.044194214	0.044194214	0	97053.87	97053.87	-2.9778394e-05	641014.44	234896.56	-0.0001703125	234896.69	641014.56	-0.0001
0	0.6252837	0.62528384	-5.00679e-10	0.04384053	0.04384053	0	96996.92	96996.92	-7.617728e-05	641231.5	234165.61	-0.0002875	234165.73	641231.7	-0.000390625
0	0.6249122	0.6249122	-8.6426734e-11	0.043487072	0.043487072	0	96939.3	96939.28	-9.00277e-06	641450.6	233426.33	-8.75e-05	233426.44	641450.8	-2.5e-05
0	0.6245433	0.6245434	-3.8444997e-10	0.04313361	0.043133613	0	96882.08	96882.08	-5.6786703e-05	641665.6	232694.98	-0.0003125	232695.1	641665.8	-0.00021875
0	0.62416834	0.62416834	-1.7285347e-10	0.04277993	0.04277993	0	96823.89	96823.91	-2.6315789e-05	641885	231950.56	-0.0001125	231950.69	641885.2	-0.000128125
0	0.6237922	0.62379223	-2.4735927e-10	0.042426463	0.042426463	0	96765.55	96765.55	-3.601108e-05	642102.56	231206.3	-0.0002	231206.42	642102.8	-0.00010625
0	0.6234156	0.62341565	-3.1888486e-10	0.0420728	0.042072795	0	96707.125	96707.14	-4.9861497e-05	642318.75	230463.03	-0.00019375	230463.11	642318.94	-0.000275
0	0.6230332	0.6230332	-3.0994415e-10	0.041719336	0.041719336	0	96647.81	96647.82	-5.193906e-05	642538.8	229707.62	-0.00028125	229707.7	642539	-0.000171875
0	0.6226521	0.62265223	-1.847744e-10	0.041365717	0.041365717	0	96588.695	96588.72	-2.8393351e-05	642754.9	228958.03	-0.00015	228958.11	642755.1	-0.000103125
0	0.62226623	0.6222663	-6.854534e-11	0.041012254	0.041012254	0	96528.84	96528.85	-1.1772853e-05	642975.2	228197.53	-2.8125e-05	228197.61	642975.3	-8.125e-05
0	0.6218806	0.62188065	-4.261732e-10	0.040658582	0.040658582	0	96469.016	96469.02	-6.6481996e-05	643191.94	227440.84	-0.00035	227440.92	643192.1	-0.00021875
0	0.6214906	0.6214907	-4.5597554e-10	0.04030513	0.04030513	0	96408.516	96408.53	-6.9944595e-05	643410.56	226676.22	-0.0002875	226676.28	643410.8	-0.0003375
0	0.62109727	0.6210974	-1.1324883e-10	0.039951455	0.039951455	0	96347.5	96347.516	-1.800554e-05	643631.4	225904.75	-5e-05	225904.8	643631.6	-0.0001
0	0.62070465	0.6207047	-1.6391277e-10	0.039597988	0.039597988	0	96286.586	96286.625	-2.7008311e-05	643848.6	225137.88	-0.0001875	225137.89	643848.75	-4.0625e-05
0	0.62030715	0.62030727	-2.4139882e-10	0.039244518	0.039244518	0	96224.94	96224.95	-3.67036e-05	644067.75	224362.22	-0.000225	224362.23	644067.94	-8.4375e-05
0	0.61990774	0.61990786	-6.3478944e-10	0.038890842	0.038890842	0	96162.984	96163.01	-9.556787e-05	644287.2	223583.64	-0.0004421875	223583.64	644287.44	-0.0004125
0	0.6195071	0.61950725	-2.9802322e-10	0.03853737	0.03853737	0	96100.82	96100.85	-4.5706372e-05	644506.56	222803.3	-0.00013125	222803.3	644506.8	-0.0002828125
0	0.61910415	0.6191043	-5.364418e-11	0.038183715	0.038183715	0	96038.31	96038.34	-9.695291e-06	644725.6	222020.2	-8.75e-05	222020.22	644725.9	1.875e-05
0	0.618696	0.61869615	-1.937151e-10	0.037830245	0.037830245	0	95975	95975.03	-3.0470914e-05	644947.6	221226.78	-0.00015625	221226.78	644947.9	-0.00011875
0	0.6182892	0.6182893	-1.6093255e-10	0.03747658	0.03747658	0	95911.89	95911.914	-2.3545706e-05	645165.2	220439.58	-0.0001625	220439.58	645165.44	-5.15625e-05
0	0.6178758	0.61787605	-3.784895e-10	0.037123166	0.037123166	0	95847.77	95847.805	-6.232687e-05	645387.3	219638.86	-0.00028125	219638.83	645387.56	-0.00023125
0	0.6174624	0.61746264	-3.2782554e-10	0.03676951	0.03676951	0	95783.64	95783.68	-5.1246538e-05	645607.44	218839.98	-0.00018125	218839.97	645607.7	-0.00025625
0	0.61704755	0.6170477	-1.4305115e-10	0.036416043	0.036416043	0	95719.27	95719.31	-2.2853186e-05	645825.7	218040.83	-0.0002625	218040.81	645826.06	5.15625e-05
0	0.61662775	0.616628	-2.682209e-10	0.036062382	0.036062382	0	95654.164	95654.2	-4.2243766e-05	646046.7	217232.23	-0.0002625	217232.2	646047	-9.6875e-05
0	0.6162062	0.61620647	-3.9339065e-10	0.035708904	0.035708904	0	95588.78	95588.82	-5.8864265e-05	646267.3	216421.48	-0.00025	216421.42	646267.6	-0.000290625
0	0.6157827	0.61578286	-3.1888486e-10	0.035355415	0.035355415	0	95523.06	95523.1	-5.1246538e-05	646487.75	215608.02	-0.00020625	215607.94	646488.06	-0.00024375
0	0.61535454	0.6153548	-2.2947788e-10	0.03500176	0.03500176	0	95456.664	95456.71	-3.462604e-05	646710.4	214786.1	-0.0001625	214786.05	646710.6	-0.000153125
0	0.61492455	0.6149248	-7.0035455e-10	0.034648273	0.03464827	0	95389.95	95390	-0.00011149584	646931.4	213963.02	-0.0005140625	213962.94	646931.7	-0.0004125
0	0.6144926	0.6144929	-1.579523e-10	0.034294635	0.034294635	0	95322.96	95323.01	-2.4238227e-05	647152.56	213137.28	-0.00015	213137.19	647152.8	-5.9375e-05
0	0.61405766	0.614058	-6.4074995e-10	0.033941146	0.033941146	0	95255.484	95255.53	-9.833795e-05	647373.75	212307.11	-0.00043125	212307	647374.1	-0.0004125
0	0.6136212	0.61362153	-4.6491622e-10	0.033587497	0.033587497	0	95187.77	95187.83	-7.063712e-05	647594.7	211475.1	-0.00035	211474.97	647595	-0.000284375
0	0.6131831	0.6131834	-2.7120114e-10	0.03323408	0.03323408	0	95119.82	95119.87	-4.362881e-05	647813.8	210642.67	-0.00023125	210642.53	647814.06	-0.00014375
0	0.61274	0.61274034	-3.039837e-10	0.032880437	0.032880437	0	95051.08	95051.13	-4.9168975e-05	648035.7	209800.5	-0.0002375	209800.36	648036	-0.000128125
0	0.61229295	0.61229324	-2.1159649e-10	0.03252696	0.03252696	0	94981.73	94981.8	-3.3240998e-05	648259	208951.27	-0.0002	208951.11	648259.3	-8.75e-05
0	0.6118461	0.6118465	-2.7120114e-10	0.032173313	0.032173313	0	94912.42	94912.48	-4.0858726e-05	648478.75	208106.1	-0.00016875	208105.95	648479	-0.0001890625
0	0.61139363	0.61139417	-1.7583371e-10	0.031819817	0.031819817	0	94842.24	94842.29	-2.4930749e-05	648702.44	207248.95	-0.00010625	207248.8	648702.8	-0.000128125
0	0.61093974	0.61094016	-2.0861626e-10	0.031466313	0.031466313	0	94771.82	94771.88	-3.1855954e-05	648924.25	206391.64	-0.000153125	206391.47	648924.56	-0.00015
0	0.6104825	0.61048293	-1.4603138e-10	0.031112673	0.031112673	0	94700.89	94700.95	-2.2160664e-05	649146.4	205529.34	-0.0001625	205529.16	649146.75	-3.90625e-05
0	0.6100234	0.61002374	-7.748604e-11	0.030759167	0.03075917	0	94629.664	94629.73	-9.695291e-06	649368.2	204664.73	-5.625e-05	204664.52	649368.6	-4.6875e-05
0	0.60956055	0.60956097	-6.67572e-10	0.030405557	0.030405557	0	94557.86	94557.93	-0.00010387812	649590.4	203794.55	-0.000415625	203794.31	649590.75	-0.00044375
0	0.6090968	0.60909724	-3.2782554e-10	0.030052047	0.030052047	0	94485.93	94485.99	-5.2631578e-05	649810.6	202925.14	-0.0002375	202924.92	649811	-0.000196875
0	0.60862833	0.6086288	-2.4735927e-10	0.029698415	0.029698418	0	94413.25	94413.336	-3.8781163e-05	650032.8	202047.12	-0.00015625	202046.88	650033.1	-0.000175
0	0.6081555	0.60815597	-4.4107437e-10	0.029344989	0.029344989	0	94339.914	94339.984	-6.855956e-05	650257.1	201160.83	-0.000359375	201160.58	650257.44	-0.00024375
0	0.6076829	0.6076834	-3.427267e-10	0.028991373	0.028991373	0	94266.6	94266.68	-5.470914e-05	650477.44	200278.9	-0.00019375	200278.62	650477.9	-0.000275
0	0.60720444	0.607205	-5.573034e-10	0.028637853	0.028637849	0	94192.39	94192.46	-8.933518e-05	650700.25	199386.38	-0.000375	199386.08	650700.6	-0.000409375
0	0.6067232	0.60672367	-3.6358833e-10	0.028284254	0.028284255	0	94117.72	94117.8	-5.5401662e-05	650924.6	198488.19	-0.00023984375	198487.89	650925	-0.000228125
0	0.6062414	0.60624194	-2.2351741e-10	0.027930735	0.027930735	0	94042.99	94043.08	-3.2548476e-05	651145.5	197592.86	-0.0002015625	197592.53	651145.9	-0.00011875
0	0.60575515	0.60575575	-4.0233136e-10	0.027577205	0.027577205	0	93967.57	93967.65	-6.371191e-05	651367.5	196690.1	-0.00024375	196689.77	651368	-0.00026875
0	0.6052644	0.60526496	-5.543232e-10	0.027223593	0.027223593	0	93891.43	93891.52	-8.448753e-05	651590.9	195779.62	-0.00035625	195779.28	651591.3	-0.000378125
0	0.6047729	0.60477346	-1.3411044e-10	0.02687006	0.02687006	0	93815.195	93815.27	-1.9390582e-05	651813	194869.38	-1.5625e-05	194869	651813.5	-0.0001625
0	0.60427594	0.60427654	-2.2053719e-10	0.02651648	0.02651648	0	93738.09	93738.19	-3.3240998e-05	652036.06	193950.67	-0.00020625	193950.31	652036.5	-0.0001125
0	0.6037769	0.60377747	-3.3676625e-10	0.026162934	0.026162937	0	93660.664	93660.77	-5.1246538e-05	652259	193029.02	-0.00022109375	193028.66	652259.3	-0.000225
0	0.6032752	0.6032759	-2.95043e-10	0.02580934	0.025809338	0	93582.86	93582.96	-4.432133e-05	652481.56	192104.17	-0.000225	192103.75	652482.06	-0.000175
0	0.60276806	0.6027688	-3.159046e-10	0.025455898	0.025455898	0	93504.195	93504.3	-4.7783935e-05	652706.44	191169.34	-0.00021875	191168.89	652706.94	-0.0002125
0	0.6022606	0.6022613	-2.95043e-10	0.025102312	0.025102312	0	93425.484	93425.58	-4.7091413e-05	652927.3	190238	-0.000225	190237.56	652927.8	-0.00018125
0	0.601747	0.60174763	-3.2782554e-10	0.024748761	0.024748761	0	93345.8	93345.91	-5.2631578e-05	653152.6	189293.75	-0.00025625	189293.28	653153	-0.000225
0	0.6012333	0.60123396	-4.172325e-11	0.024395201	0.024395201	0	93266.11	93266.22	-8.3102495e-06	653373.6	188353.45	-3.125e-05	188352.97	653374.2	-3.125e-05
0	0.6007145	0.6007153	-3.993511e-10	0.024041649	0.024041649	0	93185.65	93185.75	-6.371191e-05	653596.6	187404.28	-0.000203125	187403.78	653597.1	-0.000340625
0	0.60019183	0.6001926	-7.1823597e-10	0.02368809	0.02368809	0	93104.555	93104.664	-0.00011218837	653819.4	186449.69	-0.00045	186449.17	653819.9	-0.0005046875
0	0.59966594	0.5996667	-3.2782554e-11	0.023334507	0.023334507	0	93022.98	93023.09	-2.0775624e-06	654042.9	185489.95	0	185489.44	654043.44	-4.375e-05
0	0.5991377	0.59913856	-1.579523e-10	0.022980941	0.022980941	0	92941.03	92941.15	-2.6315789e-05	654265.56	184527.83	-0.0001234375	184527.25	654266	-8.75e-05
0	0.5986043	0.5986051	-2.3245811e-10	0.0226274	0.0226274	0	92858.28	92858.41	-3.427978e-05	654489.06	183557.6	-0.000225	183557	654489.6	-6.5625e-05
0	0.59806824	0.5980691	-1.7285347e-10	0.022273827	0.022273827	0	92775.125	92775.25	-2.5277008e-05	654712.56	182583.52	-5e-05	182582.92	654713.06	-0.0001625
0	0.59752893	0.59752977	5.066395e-11	0.021920266	0.021920266	0	92691.46	92691.59	7.9639885e-06	654935.06	181606.05	-0.00010625	181605.4	654935.56	0.000190625
0	0.59698606	0.59698683	-3.6358833e-10	0.021566806	0.021566806	0	92607.25	92607.39	-5.6786703e-05	655158.25	180622.78	-0.0002375	180622.19	655158.9	-0.00023125
0	0.5964386	0.5964395	-7.152558e-11	0.021213232	0.021213232	0	92522.32	92522.47	-1.1772853e-05	655381.9	179632.78	-2.5e-05	179632.14	655382.5	-5.625e-05
0	0.5958887	0.5958896	-1.66893e-10	0.020859668	0.020859668	0	92437.03	92437.164	-2.735457e-05	655604.6	178640.17	-0.0001671875	178639.5	655605.25	-7.5e-05
0	0.59533465	0.59533566	-1.3411044e-10	0.020506127	0.020506127	0	92351.09	92351.24	-1.9390582e-05	655827.7	177641.6	-0.00010625	177640.89	655828.25	-7.65625e-05
0	0.59477633	0.5947772	-3.0994415e-10	0.020152565	0.020152565	0	92264.47	92264.61	-5.1592797e-05	656051.1	176636.28	-0.00025	176635.56	656051.9	-0.000184375
0	0.5942144	0.59421533	4.4703484e-11	0.019798994	0.019798994	0	92177.3	92177.45	8.65651e-06	656274.4	175626.5	-6.5625e-05	175625.77	656275	0.0001125
0	0.59364897	0.5936499	-1.2814999e-10	0.019445421	0.019445421	0	92089.59	92089.74	-2.0429363e-05	656497.7	174611.56	-0.000125	174610.81	656498.44	-4.375e-05
0	0.5930805	0.59308153	-3.3676625e-10	0.019091858	0.019091858	0	92001.414	92001.57	-5.228532e-05	656720.6	173592.81	-0.0002875	173592.02	656721.4	-0.000184375
0	0.5925057	0.59250677	-2.8312205e-10	0.01873829	0.01873829	0	91912.24	91912.414	-4.259003e-05	656946.06	172562.69	-0.000178125	172561.89	656946.8	-0.000184375
0	0.59192884	0.5919299	-1.1920929e-11	0.018384755	0.018384755	0	91822.766	91822.93	-2.770083e-06	657167.1	171534.2	-0.00011875	171533.38	657167.75	7.65625e-05
0	0.5913492	0.59135026	-3.6358833e-10	0.018031191	0.018031191	0	91732.836	91733.01	-5.8171747e-05	657390.3	170499.4	-0.0001875	170498.56	657390.9	-0.000271875
0	0.5907632	0.5907644	-2.6524066e-10	0.017677708	0.017677708	0	91641.94	91642.11	-3.9473685e-05	657615.44	169453.97	-0.00035625	169453.1	657616.1	-2.5e-05
0	0.5901755	0.59017664	-2.4139882e-10	0.017324135	0.017324135	0	91550.78	91550.95	-3.7742382e-05	657836.44	168410.28	-0.000184375	168409.38	657837.1	-0.0001609375
0	0.589583	0.5895842	-4.3511392e-10	0.016970573	0.016970573	0	91458.86	91459.04	-6.959834e-05	658059.5	167357.69	-0.0003	167356.75	658060.2	-0.00031875
0	0.58898616	0.58898735	-1.8179416e-10	0.01661704	0.01661704	0	91366.27	91366.47	-2.9432133e-05	658282.6	166299	-0.00011445313	166298.03	658283.4	-0.00015625
0	0.58838445	0.5883857	-3.144145e-10	0.01626348	0.01626348	0	91272.93	91273.125	-4.8822716e-05	658506.06	165233.17	-0.00033125	165232.19	658506.7	-0.0001265625
0	0.58777887	0.5877802	-2.026558e-10	0.015909908	0.015909908	0	91178.99	91179.19	-3.0124655e-05	658729.2	164162.22	-0.00016875	164161.19	658729.94	-9.375e-05
0	0.58716995	0.5871713	-8.34465e-11	0.015556336	0.015556336	0	91084.53	91084.734	-1.31578945e-05	658952.06	163086.95	-0.0001375	163085.9	658952.9	5.3125e-05
0	0.58655614	0.58655745	2.0861625e-11	0.015202778	0.015202778	0	90989.32	90989.52	3.4626038e-07	659174.9	162004.77	-6.25e-05	162003.72	659175.7	9.0625e-05
0	0.58593667	0.58593804	-6.556511e-11	0.014849207	0.014849209	0	90893.22	90893.44	-9.00277e-06	659400.25	160912.25	-0.00011875	160911.14	659400.94	5e-05
0	0.585316	0.58531743	-4.9471854e-10	0.014495687	0.014495687	0	90796.95	90797.164	-7.7216064e-05	659620.9	159822.77	-0.000346875	159821.62	659621.7	-0.000340625
0	0.584688	0.5846894	-1.579523e-10	0.014142128	0.014142127	0	90699.52	90699.75	-2.4238227e-05	659844.75	158719.67	-0.0002	158718.5	659845.56	-9.375e-06
0	0.584056	0.58405745	-2.2053719e-10	0.013788602	0.013788602	0	90601.49	90601.71	-3.601108e-05	660069.3	157610.23	-0.000225	157609.06	660070.1	-7.8125e-05
0	0.58342165	0.58342314	-2.682209e-10	0.01343503	0.01343503	0	90503.08	90503.3	-4.1551248e-05	660290.3	156501.17	-0.00029375	156499.94	660291.2	-5.9375e-05
0	0.5827813	0.5827828	5.066395e-11	0.013081469	0.013081467	0	90403.75	90403.984	4.8476454e-06	660513.25	155381.77	-6.25e-05	155380.5	660514.1	0.0001234375
0	0.5821368	0.58213836	-3.9339065e-10	0.012727949	0.012727949	0	90303.766	90304.016	-5.9903046e-05	660736	154256.8	-0.00035	154255.52	660736.8	-0.000196875
0	0.5814857	0.58148724	-3.0100344e-10	0.012374381	0.012374381	0	90202.77	90203.01	-4.536011e-05	660961.25	153120.03	-0.00028251953	153118.69	660962.1	-0.00011875
0	0.58083135	0.5808329	-2.1457672e-10	0.0120208245	0.0120208245	0	90101.27	90101.516	-3.3587257e-05	661184.3	151980.97	-0.00014375	151979.58	661185.2	-0.0001328125
0	0.58017224	0.58017397	-2.8908254e-10	0.011667253	0.011667253	0	89999.03	89999.28	-4.501385e-05	661407.4	150835.25	-0.0003375	150833.86	661408.3	-7.5e-05
0	0.5795105	0.5795122	-4.2915344e-10	0.0113137	0.0113137	0	89896.37	89896.625	-6.855956e-05	661627.94	149688.16	-0.0003640625	149686.69	661628.9	-0.00020625
0	0.5788415	0.57884324	-4.3213366e-10	0.010960133	0.010960133	0	89792.59	89792.87	-6.301939e-05	661851.1	148528.45	-0.000375	148526.97	661852.2	-0.0001890625
0	0.5781681	0.57816994	-4.8577786e-10	0.010606616	0.010606616	0	89688.125	89688.39	-7.756233e-05	662074.06	147362.75	-0.00033125	147361.23	662075	-0.00035
0	0.5774894	0.57749116	-3.039837e-10	0.010253063	0.010253063	0	89582.836	89583.12	-4.8476453e-05	662297.2	146189.44	-0.000296875	146187.89	662298.1	-0.00016875
0	0.57680607	0.5768079	-1.6987324e-10	0.009899497	0.009899497	0	89476.83	89477.125	-2.2853186e-05	662520.2	145009.92	-0.00020976563	145008.33	662521.1	-6.25e-06
0	0.5761153	0.5761172	6.556511e-11	0.009545929	0.009545929	0	89369.695	89369.99	1.1772853e-05	662745.7	143817.48	2.5e-05	143815.83	662746.7	3.125e-05
0	0.5754235	0.5754254	-5.155802e-10	0.009192377	0.009192377	0	89262.375	89262.67	-8.240997e-05	662966.25	142628.27	-0.00035	142626.58	662967.3	-0.000325
0	0.57472235	0.5747243	-1.013279e-10	0.008838854	0.008838854	0	89153.6	89153.914	-1.83518e-05	663189.6	141423.34	-0.0002	141421.62	663190.7	4.53125e-05
0	0.57401985	0.57402194	-1.4901162e-11	0.0084852865	0.008485286	0	89044.63	89044.95	-1.731302e-06	663412.8	140216.88	-2.5e-05	140215.12	663413.8	9.375e-06
0	0.5733101	0.5733121	-2.8759242e-10	0.00813174	0.00813174	0	88934.53	88934.85	-4.397507e-05	663635.94	138999.9	-0.000203125	138998.1	663637.1	-0.000178125
0	0.57259476	0.57259685	-2.6375055e-10	0.007778168	0.007778168	0	88823.56	88823.89	-3.9127422e-05	663859.5	137775.11	-0.0001875	137773.23	663860.5	-0.0001828125
0	0.5718721	0.5718743	-3.8295983e-10	0.0074246037	0.0074246037	0	88711.46	88711.805	-5.9210528e-05	664085.2	136537.72	-0.000425	136535.81	664086.25	-0.000121875
0	0.57114774	0.57114995	-1.4454127e-10	0.0070710634	0.007071064	0	88599.1	88599.44	-2.2853186e-05	664306.1	135302.69	-0.0001390625	135300.72	664307.2	-6.875e-05
0	0.570415	0.57041734	-3.054738e-10	0.006717515	0.006717515	0	88485.44	88485.79	-4.7437672e-05	664529.94	134053.2	-0.0002875	134051.2	664531.06	-0.00015
0	0.56967777	0.56968015	-1.5944243e-10	0.0063639744	0.0063639744	0	88371.06	88371.43	-2.6315789e-05	664753.7	132797.31	-0.00010625	132795.25	664754.8	-0.00011875
0	0.5689344	0.56893665	-1.7732382e-10	0.0060104122	0.0060104122	0	88255.75	88256.11	-2.735457e-05	664977.4	131532.88	-0.0002046875	131530.75	664978.5	-5.625e-05
0	0.5681845	0.5681869	-3.2559036e-10	0.00565685	0.00565685	0	88139.42	88139.79	-4.9168975e-05	665201.6	130258.79	-0.00035625	130256.64	665202.8	-8.28125e-05
0	0.56742674	0.56742924	-1.4007091e-10	0.005303308	0.005303308	0	88021.88	88022.266	-1.9736843e-05	665428.3	128971.43	-0.00016875	128969.2	665429.56	-6.25e-06
0	0.56666505	0.56666756	-3.4570694e-10	0.004949748	0.0049497485	0	87903.73	87904.12	-5.5574794e-05	665652.6	127680.69	-0.0002328125	127678.4	665653.94	-0.0002375
0	0.56589895	0.5659016	-1.8626452e-10	0.0045961887	0.0045961887	0	87784.87	87785.27	-2.9778394e-05	665875.06	126385.79	-0.000175	126383.45	665876.25	-9.375e-05
0	0.56512284	0.56512547	-4.4107437e-10	0.0042426432	0.0042426432	0	87664.484	87664.9	-6.752078e-05	666101.94	125072.46	-0.000275	125070.055	666103.3	-0.0003375
0	0.5643422	0.5643449	-4.1127204e-10	0.003889084	0.003889084	0	87543.39	87543.81	-6.319252e-05	666327	123754.57	-0.0003328125	123752.12	666328.3	-0.000225