//mumax 3.10 [windows_amd64 go1.11.6(gc) CUDA-11.0]
//GPU info: NVIDIA GeForce RTX 3090(24575MB), CUDA Driver 12.1, cc=8.6, using cc=80 PTX
//(c) Arne Vansteenkiste, Dynamat LAB, Ghent University, Belgium
//This is free software without any warranty. See license.txt
//********************************************************************//
//  If you use mumax in any work or publication,                      //
//  we kindly ask you to cite the references in references.bib        //
//********************************************************************//
//output directory: r1;p0.5;a8.000000000000001e-07;l1.8000000000000002e-07;s6.out/
randSeed(6)
ThermSeed(6)
resolution := 2e-09
zResolution := 5e-09
a := 8.000000000000001e-07
gridSize := 800
gridDepth := 5
SetCellsize(resolution, resolution, zResolution)
SetGridsize(gridSize, gridSize, gridDepth)
SetPBC(16, 16, 0)
//resizing...
Msat = 700e3
Aex = 13e-12
alpha = 0.2
Bmax := 0.1
Bstep := Bmax / 500.0
TableAdd(B_ext)
TableAdd(m_full)
islandWidth := 8e-08
islandLength := 1.8000000000000002e-07
ellipseConstant := 4.5000000000000006e-08
hIsland := Universe().Inverse()
vIsland := Universe().Inverse()
vIslands := Universe().Inverse()
hIslands := Universe().Inverse()
hIsland = rect(islandLength-2*ellipseConstant, islandWidth)
hIsland = hIsland.add(ellipse(ellipseConstant*2, islandWidth).transl(islandLength/2-ellipseConstant, 0, 0))
hIsland = hIsland.add(ellipse(ellipseConstant*2, islandWidth).transl(-islandLength/2+ellipseConstant, 0, 0))
hIsland = hIsland.sub(rect(7.658654273494559e-09, -1.5072784475342055e-09).transl(-3.8006630124952446e-08, -4e-08, 0))
hIsland = hIsland.sub(rect(2.333158505400703e-09, -5.735603736482896e-10).transl(8.073315306379475e-08, -2.4313049236080665e-08, 0))
hIsland = hIsland.sub(rect(9.986100785741582e-09, -1.4293671482855173e-09).transl(5.33527111314233e-08, -3.930489585191487e-08, 0))
hIsland = hIsland.sub(rect(4.704941122010422e-09, -2.015189931482993e-09).transl(-5.195478437189951e-08, -3.951939395087244e-08, 0))
hIsland = hIsland.add(rect(8.05942959155766e-09, 2.5242335291162066e-09).transl(2.038367871856296e-10, -4e-08, 0))
hIsland = hIsland.sub(rect(3.2555361548871205e-09, -1.7732708423484673e-09).transl(3.099088700936162e-08, -4e-08, 0))
hIsland = hIsland.add(rect(4.211856804853744e-09, 1.6142357086798474e-09).transl(-5.704221423924506e-08, -3.854115082783242e-08, 0))
hIsland = hIsland.add(rect(5.4448061110809185e-09, 7.208255171339502e-10).transl(-6.348538448776749e-08, -3.646926591415784e-08, 0))
hIsland = hIsland.sub(rect(7.192057565933338e-09, -2.310056867787103e-09).transl(2.2585994859719138e-09, -4e-08, 0))
hIsland = hIsland.add(rect(8.194930396787147e-09, 1.5580603371186396e-10).transl(-1.2456347027355304e-09, -4e-08, 0))
hIsland = hIsland.add(rect(2.2788978650821977e-09, 1.467553589184251e-09).transl(-4.801040333335713e-08, -3.9910393181075766e-08, 0))
hIsland = hIsland.add(rect(3.78064601529582e-09, 1.202432618582523e-09).transl(-8.806805849762195e-08, -1.159454404669275e-08, 0))
hIsland = hIsland.sub(rect(2.88768831746009e-09, -9.68331433766759e-10).transl(9.032036301184636e-10, -4e-08, 0))
hIsland = hIsland.add(rect(3.428671682784549e-09, 1.3810805939824736e-09).transl(4.555609200088113e-08, -3.999694567782407e-08, 0))
hIsland = hIsland.sub(rect(2.188611461877554e-09, -1.8578505392587623e-09).transl(8.820783740779126e-10, -4e-08, 0))
hIsland = hIsland.add(rect(5.069249796336466e-09, 1.4609051960080752e-09).transl(-6.349234590590878e-08, -3.6466477273757965e-08, 0))
hIsland = hIsland.add(rect(4.744567822431544e-09, 4.600691589110397e-10).transl(1.8524899853397347e-08, -4e-08, 0))
hIsland = hIsland.add(rect(6.796660149162149e-09, 1.3740393828835806e-09).transl(8.25340069161675e-08, -2.2065193189110387e-08, 0))
hIsland = hIsland.sub(rect(3.5464666014196572e-09, -8.132524175266384e-10).transl(7.965723227124534e-08, -2.551399521129601e-08, 0))
hIsland = hIsland.add(rect(3.2670906894114975e-09, 9.303913239567628e-10).transl(-2.641700152531732e-08, -4e-08, 0))
hIsland = hIsland.sub(rect(4.811674338532844e-09, -1.3865307407086638e-09).transl(-7.867857571478967e-09, -4e-08, 0))
hIsland = hIsland.sub(rect(2.9333180988365984e-09, -2.271581741616666e-09).transl(-3.64544691244058e-08, -4e-08, 0))
hIsland = hIsland.add(rect(6.843833667950669e-09, 1.4477386917223023e-09).transl(8.856736307156401e-08, -1.0012727702374297e-08, 0))
hIsland = hIsland.sub(rect(6.7061482798105395e-09, -1.3514792549473752e-09).transl(-2.4596308834225038e-08, -4e-08, 0))
hIsland = hIsland.add(rect(7.915286374313869e-09, 1.5607246444797732e-09).transl(7.752605625986957e-08, -2.764223877131179e-08, 0))
hIsland = hIsland.sub(rect(4.255110637494103e-09, -5.884158677935183e-10).transl(1.7086190670380387e-08, -4e-08, 0))
hIsland = hIsland.sub(rect(9.51074687755824e-09, -1.5870870690336338e-10).transl(-4.235607851214282e-08, -4e-08, 0))
hIsland = hIsland.sub(rect(5.290378791322782e-09, -1.122941021711434e-09).transl(-4.0810364957122914e-08, -4e-08, 0))
hIsland = hIsland.add(rect(3.2047498838256793e-09, 2.5218605647503e-09).transl(-2.5539491705434657e-08, -4e-08, 0))
hIsland = hIsland.add(rect(6.292313220580707e-09, 1.5367870897015064e-09).transl(8.729355658153403e-09, -4e-08, 0))
hIsland = hIsland.add(rect(5.3092602059761045e-09, 5.811133833287865e-10).transl(-5.200267740079963e-08, -3.951271097093761e-08, 0))
hIsland = hIsland.add(rect(6.3185242812754325e-09, 2.841256249797221e-09).transl(4.731515278313336e-08, -3.994702731964723e-08, 0))
hIsland = hIsland.add(rect(5.5291967720715884e-09, 1.976865356953987e-09).transl(5.203864185142034e-08, -3.950766160057599e-08, 0))
hIsland = hIsland.sub(rect(6.93105899015768e-09, -2.2118508250211608e-09).transl(-3.573038220896744e-08, -4e-08, 0))
hIsland = hIsland.sub(rect(9.864601335930967e-09, -2.3512314305717614e-10).transl(1.424646694629166e-08, -4e-08, 0))
hIsland = hIsland.add(rect(7.683644939424952e-09, 2.4140421049015523e-10).transl(-7.371192115859204e-08, -3.080003954953748e-08, 0))
hIsland = hIsland.add(rect(9.916512526464491e-09, 3.8148020817669573e-10).transl(4.711419562947881e-08, -3.995582921018923e-08, 0))
hIsland = hIsland.add(rect(6.485771535286628e-09, 2.5792134686572433e-09).transl(8.547346813372733e-08, -1.7484206680373076e-08, 0))
hIsland = hIsland.add(rect(3.7812825511850206e-09, 2.5831363329944863e-09).transl(7.297863873521167e-08, -3.132870918785824e-08, 0))
hIsland = hIsland.add(rect(6.280132293924735e-09, 6.203262150553143e-11).transl(-4.84587214453241e-08, -3.988167433080102e-08, 0))
hIsland = hIsland.sub(rect(8.952893614663236e-09, -1.794395014410862e-09).transl(1.2427298650605363e-08, -4e-08, 0))
hIsland = hIsland.add(rect(7.0623410864974786e-09, 9.09226645784213e-10).transl(3.867525882448364e-09, -4e-08, 0))
hIsland = hIsland.add(rect(7.444382294014136e-09, 6.751336512139174e-10).transl(5.088703644318979e-08, -3.9656229458278664e-08, 0))
hIsland = hIsland.sub(rect(4.302844139651362e-09, -2.71767283883784e-09).transl(-2.93912191265098e-08, -4e-08, 0))
hIsland = hIsland.sub(rect(7.043290438629469e-09, -1.5813137751340497e-09).transl(2.5770742674212607e-08, -4e-08, 0))
hIsland = hIsland.add(rect(3.367013503149697e-09, 2.8373308052222314e-10).transl(4.0354186167750936e-08, -4e-08, 0))
hIsland = hIsland.add(rect(9.752801324015417e-09, 1.1960576690398644e-09).transl(-5.236071604529938e-08, -3.946125948244828e-08, 0))
hIsland = hIsland.add(rect(4.818781248071861e-09, 1.948919601254276e-09).transl(-8.791093728908852e-09, -4e-08, 0))
hIsland = hIsland.add(rect(9.643166220497773e-09, 4.6198994330414115e-09).transl(-6.48288639986572e-08, -3.590732821134482e-08, 0))
hIsland = hIsland.add(rect(4.949439596211332e-09, 3.2248923579864556e-10).transl(6.607343379835195e-08, -3.5342812290474094e-08, 0))
hIsland = hIsland.sub(rect(2.9958403979959043e-09, -8.727010183181687e-10).transl(-8.100507694811881e-08, -2.3993981697434568e-08, 0))
hIsland = hIsland.sub(rect(8.42379159139157e-09, -3.911513866072802e-09).transl(-6.837769947792259e-08, -3.4178710198174765e-08, 0))
hIsland = hIsland.sub(rect(4.361870480944442e-09, -1.5881036226750873e-09).transl(-7.734361774455344e-08, -2.7810865856873356e-08, 0))
hIsland = hIsland.add(rect(5.328302400370529e-09, 1.3787998025359335e-09).transl(-5.572269377032629e-08, -3.884783954964939e-08, 0))
hIsland = hIsland.add(rect(9.672939158140448e-09, 1.1692806194699358e-09).transl(7.977977679353607e-08, -2.538189694053032e-08, 0))
hIsland = hIsland.add(rect(4.09886917767768e-09, 7.224204081491271e-10).transl(4.480499421493865e-08, -4e-08, 0))
hIsland = hIsland.sub(rect(5.909168189556651e-09, -2.8569490526674774e-09).transl(-6.646422670625899e-08, -3.515650479856061e-08, 0))
hIsland = hIsland.sub(rect(7.82004284857314e-09, -9.86005577120234e-10).transl(2.1169078134171873e-08, -4e-08, 0))
hIsland = hIsland.sub(rect(3.172213837117105e-09, -2.7239514214749697e-09).transl(-3.316410133248984e-08, -4e-08, 0))
hIsland = hIsland.add(rect(5.4710291867553594e-09, 2.2607915666155518e-10).transl(-4.028684777622184e-08, -4e-08, 0))
hIsland = hIsland.sub(rect(6.14287387622889e-09, -2.9478539585196885e-09).transl(3.4061083848488666e-08, -4e-08, 0))
hIsland = hIsland.sub(rect(5.52233242804695e-09, -2.362487177737132e-10).transl(3.338751718674054e-08, -4e-08, 0))
hIsland = hIsland.add(rect(5.185509312806134e-09, 2.1730522320409063e-09).transl(-1.8553769114275456e-08, -4e-08, 0))
hIsland = hIsland.add(rect(2.4082639561329525e-09, 2.7541948157346133e-09).transl(8.333608390048092e-09, -4e-08, 0))
hIsland = hIsland.add(rect(5.595541804931653e-09, 1.1996737044106846e-09).transl(6.349435078624316e-08, -3.6465673914258685e-08, 0))
hIsland = hIsland.add(rect(9.958925771130399e-09, 8.102439801193512e-10).transl(7.957351570432752e-08, -2.5603580179324658e-08, 0))
hIsland = hIsland.sub(rect(4.264436485669858e-09, -1.3587016135794237e-09).transl(3.225027059477911e-08, -4e-08, 0))
hIsland = hIsland.sub(rect(9.335750021376641e-09, -1.6531290893899691e-09).transl(5.837489508913437e-08, -3.8192362303925253e-08, 0))
hIsland = hIsland.add(rect(3.5797284696292924e-09, 1.542383117035057e-09).transl(4.273849809571936e-08, -4e-08, 0))
hIsland = hIsland.add(rect(6.840843949579444e-09, 2.5727133319259845e-10).transl(8.224697046222382e-08, -2.2446216720104703e-08, 0))
hIsland = hIsland.sub(rect(6.195955439311995e-09, -3.4094526463233324e-09).transl(-1.31917322378327e-08, -4e-08, 0))
hIsland = hIsland.sub(rect(9.594808632922863e-09, -3.899342766576993e-09).transl(-1.7536354617756712e-08, -4e-08, 0))
hIsland = hIsland.sub(rect(5.29141912102239e-09, -1.865144109594263e-09).transl(-1.7860301982156655e-08, -4e-08, 0))
hIsland = hIsland.sub(rect(7.1926265265641745e-09, -8.966148787664824e-10).transl(-1.0266110058135322e-08, -4e-08, 0))
hIsland = hIsland.add(rect(4.580636132400592e-09, 1.254964802062747e-09).transl(-4.4406918993870015e-08, -4e-08, 0))
hIsland = hIsland.sub(rect(8.210554284219455e-09, -6.423887681225274e-10).transl(-7.105216311206561e-08, -3.2614892269846476e-08, 0))
hIsland = hIsland.add(rect(2.744955309478633e-09, 2.852050122892555e-10).transl(-4.857976679023984e-08, -3.9873233892164504e-08, 0))
hIsland = hIsland.sub(rect(6.970421362000712e-09, -1.1822883606754736e-09).transl(6.769048880786717e-08, -3.4542703921386024e-08, 0))
hIsland = hIsland.add(rect(9.657142397058062e-09, 2.327264193383426e-09).transl(-2.4176396858131353e-08, -4e-08, 0))
hIsland = hIsland.sub(rect(8.768849320789663e-09, -7.884189198814446e-10).transl(5.228102492448434e-08, -3.947293920173581e-08, 0))
hIsland = hIsland.add(rect(9.083029366880264e-09, 3.759964963565778e-09).transl(-3.600080424770769e-08, -4e-08, 0))
hIsland = hIsland.sub(rect(3.1493378597093802e-09, -9.026188192946458e-10).transl(-4.6172521541825856e-08, -3.998641935614633e-08, 0))
hIsland = hIsland.sub(rect(8.822224491907444e-09, -2.1956444705885752e-10).transl(4.4687110388187984e-08, -4e-08, 0))
hIsland = hIsland.sub(rect(8.724156134845964e-09, -9.321897927992156e-11).transl(-4.699230567367486e-08, -3.996077798624904e-08, 0))
hIsland = hIsland.sub(rect(9.95067858672615e-09, -8.960113023111821e-10).transl(-7.577917544382206e-08, -2.9179967544109716e-08, 0))
hIsland = hIsland.add(rect(3.626982899684406e-09, 1.282637837816308e-09).transl(5.1847059387669937e-08, -3.953425421691025e-08, 0))
hIsland = hIsland.add(rect(8.213866582214118e-09, 1.8505067919157313e-09).transl(-4.9952930008563134e-08, -3.975697516208616e-08, 0))
hIsland = hIsland.sub(rect(9.496959156410802e-09, -3.726005552793987e-10).transl(-7.913538663307404e-09, -4e-08, 0))
hIsland = hIsland.sub(rect(7.948864012722316e-09, -1.634122749013762e-09).transl(1.9643142553707765e-08, -4e-08, 0))
hIsland = hIsland.add(rect(3.1920686582067166e-09, 1.6081981460562945e-09).transl(2.9271742280488412e-08, -4e-08, 0))
hIsland = hIsland.add(rect(5.351194843308403e-09, 1.2122154093882528e-09).transl(2.261980446538079e-08, -4e-08, 0))
hIsland = hIsland.add(rect(5.153795657902356e-09, 1.5888691915518397e-09).transl(1.2839672295419816e-08, -4e-08, 0))
hIsland = hIsland.sub(rect(6.184867722632695e-09, -4.8866819572444553e-11).transl(-3.2978258319291024e-08, -4e-08, 0))
hIsland = hIsland.sub(rect(9.057890423860219e-09, -4.91799859762021e-10).transl(3.360286664426197e-08, -4e-08, 0))
hIsland = hIsland.add(rect(7.27688156913896e-09, 1.7654098619941494e-09).transl(-3.412683243757654e-08, -4e-08, 0))
hIsland = hIsland.sub(rect(8.373156857884025e-09, -6.555172293419717e-10).transl(-1.165758230212984e-08, -4e-08, 0))
hIsland = hIsland.add(rect(5.543184537535996e-09, 3.775079717896586e-09).transl(8.800973211106856e-08, -1.1764367837021089e-08, 0))
hIsland = hIsland.add(rect(3.6967260240895553e-09, 8.613266974080771e-10).transl(-5.9751629711760325e-09, -4e-08, 0))
hIsland = hIsland.add(rect(5.508945608192741e-09, 8.359368052416234e-10).transl(4.4618467593727066e-08, -4e-08, 0))
hIsland = hIsland.sub(rect(8.988071417323646e-09, -1.2153573296644053e-09).transl(-2.3731255011285537e-08, -4e-08, 0))
hIsland = hIsland.add(rect(2.1047555316756556e-09, 2.2453003361341263e-09).transl(-3.2900621978173433e-09, -4e-08, 0))
hIsland = hIsland.add(rect(8.057282395612768e-09, 2.1598454302531304e-09).transl(6.169230682452746e-09, -4e-08, 0))
hIsland = hIsland.add(rect(5.111495130591241e-09, 2.537422384821754e-09).transl(-2.5063688475068803e-08, -4e-08, 0))
hIsland = hIsland.sub(rect(5.04935628851988e-09, -1.797535800541587e-09).transl(2.688097442156164e-08, -4e-08, 0))
hIsland = hIsland.add(rect(7.436954320108642e-09, 1.4329974769925256e-10).transl(3.120571443568388e-08, -4e-08, 0))
hIsland = hIsland.add(rect(8.99023511540489e-09, 2.6742638907232797e-09).transl(-1.3928492115801767e-08, -4e-08, 0))
hIsland = hIsland.add(rect(2.3749317386400035e-09, 3.3807675270388564e-10).transl(-2.7427794676841363e-08, -4e-08, 0))
hIsland = hIsland.sub(rect(7.913923947494847e-09, -1.1671017580084775e-09).transl(-2.884957314759943e-08, -4e-08, 0))
hIsland = hIsland.sub(rect(6.9203461016669025e-09, -9.135996689297429e-10).transl(6.747423329879504e-08, -3.465422953688521e-08, 0))
hIsland = hIsland.add(rect(7.655161551512276e-09, 1.3275431068612794e-10).transl(7.247835475281457e-08, -3.1676638056784404e-08, 0))
hIsland = hIsland.add(rect(4.137276868771493e-09, 1.4016454697528497e-09).transl(8.425194275195769e-08, -1.95613120860042e-08, 0))
hIsland = hIsland.sub(rect(2.3139259685947613e-09, -5.46515744080834e-10).transl(-3.126967518020155e-08, -4e-08, 0))
hIsland = hIsland.sub(rect(9.359741618034967e-09, -5.626964196276276e-10).transl(2.816801517702154e-09, -4e-08, 0))
hIsland = hIsland.sub(rect(9.781921423050077e-09, -2.6841704859409364e-09).transl(3.539578459090632e-08, -4e-08, 0))
hIsland = hIsland.sub(rect(8.273570638104181e-09, -3.04691060852312e-10).transl(-8.867928408776064e-08, -9.61973862043518e-09, 0))
hIsland = hIsland.add(rect(7.411682065139295e-09, 7.002207126877313e-10).transl(6.86186310733661e-08, -3.4047580548565304e-08, 0))
hIsland = hIsland.sub(rect(4.868354085739241e-09, -7.674012776389782e-11).transl(-4.0326404963796316e-08, -4e-08, 0))
hIsland = hIsland.sub(rect(5.85195743118671e-09, -1.1074594557359763e-09).transl(8.832670625485431e-08, -1.080636392677857e-08, 0))
hIsland = hIsland.add(rect(7.1943495895940046e-09, 1.721094628713692e-09).transl(8.332396587114037e-08, -2.096484799098414e-08, 0))
hIsland = hIsland.add(rect(9.048772400296902e-09, 2.1455030481577247e-09).transl(-4.600578596372284e-08, -3.999000758740407e-08, 0))
hIsland = hIsland.sub(rect(7.3490141195040045e-09, -9.260849283797098e-10).transl(-1.252139290442139e-08, -4e-08, 0))
hIsland = hIsland.sub(rect(5.574846614194829e-09, -1.8344271656993239e-10).transl(-4.552177838893537e-08, -3.999731099418685e-08, 0))
hIsland = hIsland.sub(rect(8.059971651115775e-09, -1.33966616487234e-09).transl(-4.164274603865366e-08, -4e-08, 0))
hIsland = hIsland.sub(rect(7.765714593961431e-09, -1.9125421700100147e-11).transl(-1.313523156580653e-08, -4e-08, 0))
hIsland = hIsland.add(rect(2.815036055175974e-09, 3.1234281099016212e-09).transl(-5.428967269250561e-08, -3.913839433502407e-08, 0))
hIsland = hIsland.add(rect(5.816958270995546e-09, 2.805895334378513e-09).transl(-7.56583104264571e-08, -2.9280329240474937e-08, 0))
hIsland = hIsland.add(rect(9.577409573885917e-09, 2.3670477644373773e-09).transl(-6.794949399228865e-09, -4e-08, 0))
hIsland = hIsland.sub(rect(5.690064808605948e-09, -3.74700770655166e-10).transl(-3.007412845673031e-08, -4e-08, 0))
hIsland = hIsland.sub(rect(9.85313351411337e-09, -3.108691862173532e-09).transl(4.5927968981314353e-08, -3.999149414323217e-08, 0))
hIsland = hIsland.sub(rect(3.39058574087767e-09, -1.6021077239124954e-09).transl(8.360035998132583e-08, -2.0560294167315955e-08, 0))
hIsland = hIsland.add(rect(8.921674364616361e-09, 1.958239892377981e-11).transl(-6.881983323977391e-08, -3.393665028601888e-08, 0))
hIsland = hIsland.add(rect(9.516529896563565e-09, 3.805223277540827e-09).transl(2.316734972488097e-08, -4e-08, 0))
hIsland = hIsland.add(rect(8.373101157396876e-09, 1.2736564341021127e-09).transl(-7.84151018319889e-08, -2.6791278766087717e-08, 0))
hIsland = hIsland.sub(rect(8.874514678891314e-09, -1.7423073148985489e-09).transl(-6.450751262072902e-08, -3.604613725414788e-08, 0))
hIsland = hIsland.add(rect(4.265592932676325e-09, 2.9117197616183095e-09).transl(-8.780768516665886e-08, -1.2332899793692354e-08, 0))
hIsland = hIsland.sub(rect(3.5643688388623396e-09, -5.759849651112757e-10).transl(-2.6781774577524913e-08, -4e-08, 0))
hIsland = hIsland.add(rect(2.9450227491023695e-09, 1.7522981595763012e-09).transl(-8.917395710535952e-08, -7.62900319835948e-09, 0))
hIsland = hIsland.add(rect(4.409309104653629e-09, 9.422142817855937e-10).transl(-7.851183033197426e-08, -2.669564688684168e-08, 0))
hIsland = hIsland.sub(rect(9.355728959294001e-09, -2.1796155521780016e-10).transl(2.5486191781063505e-08, -4e-08, 0))
hIsland = hIsland.add(rect(4.912577894032215e-09, 4.457406036795239e-10).transl(3.1868333899157523e-09, -4e-08, 0))
hIsland = hIsland.sub(rect(5.529892981592053e-09, -3.975235978415233e-10).transl(-4.563664776009502e-08, -3.9995996635510975e-08, 0))
hIsland = hIsland.add(rect(5.699101263618369e-09, 4.127329739366533e-10).transl(1.69517118144232e-09, -4e-08, 0))
hIsland = hIsland.sub(rect(2.35784200742512e-09, -3.551359476339822e-09).transl(-2.0871467069521264e-08, -4e-08, 0))
hIsland = hIsland.sub(rect(8.689779933199244e-09, -8.951058540949569e-10).transl(8.574821467471533e-08, -1.697249483421439e-08, 0))
hIsland = hIsland.sub(rect(6.755485533859175e-09, -1.5783377810496473e-09).transl(-3.163004278462943e-09, -4e-08, 0))
hIsland = hIsland.add(rect(4.9665221971724855e-09, 1.6958174738141661e-09).transl(3.586418395745188e-08, -4e-08, 0))
hIsland = hIsland.sub(rect(6.001302276588064e-09, -3.923036888074715e-09).transl(-2.2828531100889477e-08, -4e-08, 0))
hIsland = hIsland.add(rect(9.724695979286264e-09, 4.846187079982781e-10).transl(2.7266702889534605e-09, -4e-08, 0))
hIsland = hIsland.add(rect(6.9706237996925635e-09, 7.144634640408505e-10).transl(-3.8997294478332366e-08, -4e-08, 0))
hIsland = hIsland.sub(rect(2.199521807914369e-09, -1.5891211754415947e-09).transl(-8.418512341826719e-08, -1.966687714027074e-08, 0))
hIsland = hIsland.sub(rect(7.93567666023319e-09, -3.158872846561778e-09).transl(-1.7380238698372422e-08, -4e-08, 0))
hIsland = hIsland.add(rect(4.448536970760058e-09, 3.5319288620912033e-09).transl(-7.87769537330338e-08, -2.6430321480146564e-08, 0))
hIsland = hIsland.add(rect(9.615375387383485e-09, 4.541680971399694e-10).transl(-2.7279798765961173e-09, -4e-08, 0))
hIsland = hIsland.add(rect(5.6729259537266175e-09, 1.725646237294878e-09).transl(-4.1634700969494965e-08, -4e-08, 0))
hIsland = hIsland.sub(rect(5.707542370007909e-09, -2.3994058089098266e-10).transl(5.70876050164018e-08, -3.8529922237510536e-08, 0))
hIsland = hIsland.add(rect(8.374870296426938e-09, 9.124620456947006e-10).transl(-7.667392706104324e-10, -4e-08, 0))
hIsland = hIsland.sub(rect(8.175034437326378e-09, -1.3976999426950152e-09).transl(-2.2258099503327453e-08, -4e-08, 0))
hIsland = hIsland.add(rect(7.740036078705557e-09, 2.27042134061056e-09).transl(-1.3454834080158689e-08, -4e-08, 0))
hIsland = hIsland.sub(rect(5.8716222707453414e-09, -5.7165021306063875e-09).transl(6.447861722301387e-08, -3.6058481673607294e-08, 0))
hIsland = hIsland.add(rect(3.196882089047368e-09, 1.959923549229124e-09).transl(5.861197729229391e-08, -3.812612285307364e-08, 0))
hIsland = hIsland.sub(rect(9.08119199425171e-09, -2.4005225573402158e-09).transl(4.966720563876583e-08, -3.978427945897109e-08, 0))
hIsland = hIsland.sub(rect(5.39985728174686e-09, -2.8228478085588057e-09).transl(7.024066829105369e-08, -3.31152410754211e-08, 0))
hIsland = hIsland.sub(rect(3.964123426543113e-09, -3.1594417832301627e-09).transl(-3.4750935983635453e-09, -4e-08, 0))
hIsland = hIsland.add(rect(4.863571759008596e-09, 1.3663681468208074e-10).transl(-2.5252065895084297e-08, -4e-08, 0))
hIsland = hIsland.add(rect(8.960875680307538e-09, 1.1879386504569192e-09).transl(-7.399764914597126e-08, -3.058780641755388e-08, 0))
hIsland = hIsland.add(rect(7.970230315030926e-09, 3.745811977554431e-09).transl(-5.074154761100563e-08, -3.967308015160281e-08, 0))
hIsland = hIsland.add(rect(4.813220570953419e-09, 4.450367804062059e-10).transl(7.893369272636837e-08, -2.6271208450390765e-08, 0))
hIsland = hIsland.add(rect(7.78098807298444e-09, 2.4650267222330787e-09).transl(-1.633466084598557e-08, -4e-08, 0))
hIsland = hIsland.sub(rect(7.343397780344559e-09, -7.549018951529869e-11).transl(-8.548167267700618e-08, -1.7469192404814543e-08, 0))
hIsland = hIsland.sub(rect(4.4097682310108175e-09, -2.637216633806618e-10).transl(1.6012122204129822e-08, -4e-08, 0))
hIsland = hIsland.sub(rect(5.361095397572663e-09, -3.771898797547327e-10).transl(8.502529798578274e-09, -4e-08, 0))
hIsland = hIsland.add(rect(8.607415156577305e-09, 5.250922980600213e-10).transl(8.810244657612077e-09, -4e-08, 0))
hIsland = hIsland.sub(rect(8.507421321996675e-09, -3.6912864098496507e-09).transl(4.660249273099959e-09, -4e-08, 0))
hIsland = hIsland.add(rect(7.424850459516507e-09, 1.345636730229126e-09).transl(-5.972056053291746e-08, -3.779926288493357e-08, 0))
hIsland = hIsland.add(rect(6.370765332487154e-09, 1.723244602041665e-10).transl(1.4092757774568125e-08, -4e-08, 0))
hIsland = hIsland.add(rect(9.781222144548607e-09, 1.86759131016135e-09).transl(5.5954545104932894e-08, -3.8796695203983644e-08, 0))
hIsland = hIsland.add(rect(9.163829953467667e-09, 1.749251774116046e-10).transl(3.710527097267651e-08, -4e-08, 0))
hIsland = hIsland.sub(rect(2.730111782299315e-09, -4.82016150720717e-10).transl(4.510070704985048e-08, -3.999989983286333e-08, 0))
hIsland = hIsland.add(rect(4.918745224247602e-09, 1.5541041619122002e-09).transl(7.918384300500773e-08, -2.6013707724154132e-08, 0))
hIsland = hIsland.sub(rect(4.039095482541006e-09, -2.0291820965432683e-10).transl(2.7340858428057676e-08, -4e-08, 0))
hIsland = hIsland.sub(rect(2.9960018810041237e-09, -3.197393446288903e-09).transl(2.6883792898434365e-08, -4e-08, 0))
hIsland = hIsland.add(rect(7.000508666377234e-09, 1.8976325941251674e-09).transl(-6.042490355666262e-08, -3.757669201682782e-08, 0))
hIsland = hIsland.sub(rect(2.7069699573131276e-09, -2.9885355711970338e-09).transl(6.293046398568698e-08, -3.668751957881335e-08, 0))
hIsland = hIsland.sub(rect(8.087982242947008e-09, -4.371118683304236e-10).transl(8.77256694325596e-08, -1.2555604217475586e-08, 0))
hIsland = hIsland.add(rect(4.234774070907429e-09, 3.2609023256076888e-09).transl(-8.389370313616825e-08, -2.0118755700779495e-08, 0))
hIsland = hIsland.sub(rect(5.7482123904789025e-09, -1.9372881584784944e-09).transl(3.877150159177789e-08, -4e-08, 0))
hIsland = hIsland.add(rect(5.429077241016469e-09, 9.365970732276743e-10).transl(6.332221194465616e-08, -3.653426924408221e-08, 0))
hIsland = hIsland.sub(rect(9.784053731245441e-09, -7.64057917774598e-10).transl(-2.9294271499588477e-08, -4e-08, 0))
hIsland = hIsland.sub(rect(8.71821850778974e-09, -3.563672139640262e-09).transl(-2.1570941527738345e-08, -4e-08, 0))
hIsland = hIsland.sub(rect(5.372002567013032e-09, -2.3148695145699247e-09).transl(3.1752300768643206e-08, -4e-08, 0))
hIsland = hIsland.add(rect(3.0677965153780716e-09, 2.433954628171891e-09).transl(7.391041063292222e-08, -3.065298447804091e-08, 0))
hIsland = hIsland.sub(rect(7.0034798873279345e-09, -1.8850250003258774e-09).transl(3.994876100470518e-08, -4e-08, 0))
hIsland = hIsland.add(rect(2.0359467993984647e-09, 1.0657096503836016e-09).transl(3.954612850513709e-08, -4e-08, 0))
hIsland = hIsland.add(rect(5.591473288397438e-09, 4.540547131911777e-09).transl(4.5130370893903674e-08, -3.9999832132289957e-08, 0))
hIsland = hIsland.sub(rect(5.706648951668543e-09, -2.0693464380218017e-09).transl(6.421585679484961e-08, -3.616970532531834e-08, 0))
hIsland = hIsland.sub(rect(6.566395681227075e-09, -8.401884999379509e-11).transl(-4.374457274310134e-08, -4e-08, 0))
hIsland = hIsland.sub(rect(8.857980401632884e-09, -2.2915757479496607e-09).transl(-5.930727386310505e-08, -3.792444121104833e-08, 0))
hIsland = hIsland.add(rect(7.385778116553523e-09, 1.816052165589177e-09).transl(2.049553126594159e-08, -4e-08, 0))
hIsland = hIsland.add(rect(3.9873326525344604e-09, 2.1672740330421363e-10).transl(-2.7602269698476968e-08, -4e-08, 0))
hIsland = hIsland.add(rect(7.3229879377904005e-09, 1.087638504587161e-09).transl(2.4075312696124117e-08, -4e-08, 0))
hIsland = hIsland.add(rect(9.469115594203784e-09, 5.3160402147669646e-11).transl(5.530318730023977e-08, 3.8937435922416474e-08, 0))
hIsland = hIsland.sub(rect(9.645717327862633e-09, -2.83542864579673e-09).transl(1.7945518156643596e-08, 4e-08, 0))
hIsland = hIsland.add(rect(3.66327144700072e-09, 1.6334707734219009e-09).transl(-6.616237520155572e-08, 3.5300797048503295e-08, 0))
hIsland = hIsland.sub(rect(3.70139146053492e-09, -4.743124724271844e-10).transl(-8.939945462283545e-08, 6.513101201809233e-09, 0))
hIsland = hIsland.sub(rect(7.475655738861444e-09, -2.513479241859193e-09).transl(1.6376129786860208e-09, 4e-08, 0))
hIsland = hIsland.add(rect(9.019180403157166e-09, 1.979206738935908e-09).transl(3.799744954992032e-08, 4e-08, 0))
hIsland = hIsland.add(rect(3.813549208889534e-09, 1.6778775577138404e-09).transl(8.316621072889598e-08, 2.119101339644709e-08, 0))
hIsland = hIsland.add(rect(3.3093316832613538e-09, 5.884548426935368e-10).transl(-1.3773979877109014e-08, 4e-08, 0))
hIsland = hIsland.sub(rect(6.8375430741119415e-09, -2.061329228132104e-10).transl(2.2698273727251524e-08, 4e-08, 0))
hIsland = hIsland.sub(rect(5.452886163274835e-09, -1.0076425615034052e-09).transl(-2.4463566540243716e-08, 4e-08, 0))
hIsland = hIsland.sub(rect(9.526905761902023e-09, -3.6564168900480783e-09).transl(1.137499857219671e-08, 4e-08, 0))
hIsland = hIsland.add(rect(8.778234779097038e-09, 2.312646345182091e-09).transl(-5.676235330005435e-08, 3.8609378197732814e-08, 0))
hIsland = hIsland.sub(rect(2.8284515910732647e-09, -2.3254054572969625e-09).transl(-2.94337534463951e-08, 4e-08, 0))
hIsland = hIsland.sub(rect(4.8328333787028355e-09, -2.239974672759739e-09).transl(3.999239168405504e-08, 4e-08, 0))
hIsland = hIsland.add(rect(9.748953618919997e-09, 1.4646596759607931e-09).transl(-5.5387195480666505e-08, 3.8919796429461866e-08, 0))
hIsland = hIsland.add(rect(9.54648032732294e-09, 1.3107934971860327e-09).transl(6.272650771592478e-08, 3.676574814148045e-08, 0))
hIsland = hIsland.add(rect(8.269614061775873e-09, 3.968431133145315e-09).transl(2.9985159791912154e-08, 4e-08, 0))
hIsland = hIsland.sub(rect(2.71128686309351e-09, -8.410855514381031e-10).transl(-8.24377764443017e-08, 2.2193989085584712e-08, 0))
hIsland = hIsland.add(rect(4.750294916340335e-09, 5.150345306609524e-10).transl(-1.9031427136270218e-08, 4e-08, 0))
hIsland = hIsland.add(rect(6.1765237017217814e-09, 3.785391888831261e-09).transl(9.356124079193922e-10, 4e-08, 0))
hIsland = hIsland.sub(rect(2.104478279246829e-09, -2.2782341857551227e-09).transl(4.103907335088282e-08, 4e-08, 0))
hIsland = hIsland.sub(rect(9.349786617392133e-09, -8.890343759340831e-10).transl(4.739293223493279e-08, 3.9943405645651356e-08, 0))
hIsland = hIsland.sub(rect(2.1140333518075264e-09, -1.6310726415651424e-09).transl(-2.047115574606501e-08, 4e-08, 0))
hIsland = hIsland.sub(rect(3.732205841230944e-09, -3.389185560256011e-09).transl(2.918117645379882e-08, 4e-08, 0))
hIsland = hIsland.add(rect(8.635077629608077e-09, 5.0243881058414706e-09).transl(6.947692952138106e-08, 3.356517797227353e-08, 0))
hIsland = hIsland.sub(rect(9.200885188594867e-09, -1.2043360677678555e-09).transl(-6.036784618554651e-08, 3.759515916952124e-08, 0))
hIsland = hIsland.sub(rect(6.239467823827775e-09, -5.323110981152888e-10).transl(-5.494726566030967e-09, 4e-08, 0))
hIsland = hIsland.add(rect(7.972338511715492e-09, 2.5316567967077402e-09).transl(5.091483254270338e-09, 4e-08, 0))
hIsland = hIsland.add(rect(2.790432499986258e-09, 1.2288220673517422e-09).transl(-5.660346053165953e-08, 3.864734846863974e-08, 0))
hIsland = hIsland.sub(rect(5.464126405466725e-09, -1.9665123105241162e-10).transl(-5.876626384281464e-08, 3.8082327761720694e-08, 0))
hIsland = hIsland.add(rect(7.356627874059784e-09, 2.910257596393803e-10).transl(6.036668372353913e-08, 3.759553460577334e-08, 0))
hIsland = hIsland.sub(rect(4.5962468010038295e-09, -1.4649824688563141e-09).transl(-8.331216492374959e-08, 2.0981883192542816e-08, 0))
hIsland = hIsland.add(rect(7.30378935614329e-09, 4.842656715839199e-10).transl(8.787044104754784e-08, 1.215944392454093e-08, 0))
hIsland = hIsland.sub(rect(4.296470173142461e-09, -6.777024577433385e-10).transl(4.175888752518394e-08, 4e-08, 0))
hIsland = hIsland.sub(rect(8.767152369355538e-09, -1.5669296574061734e-09).transl(-5.9131358483210773e-08, 3.797651991851248e-08, 0))
hIsland = hIsland.sub(rect(7.172862302137043e-09, -9.256535643045763e-12).transl(-1.3496894197114775e-08, 4e-08, 0))
hIsland = hIsland.sub(rect(8.658151609377417e-09, -1.5895216932139143e-09).transl(-2.5683161220531057e-08, 4e-08, 0))
hIsland = hIsland.sub(rect(5.4705169227459735e-09, -1.1031464211252845e-09).transl(-1.2363773572520555e-08, 4e-08, 0))
hIsland = hIsland.add(rect(7.784717373805037e-09, 3.3812733560982783e-09).transl(-5.1247893053452536e-08, 3.96125814396161e-08, 0))
hIsland = hIsland.sub(rect(7.977762105861679e-09, -4.098641256261676e-09).transl(3.068025813230871e-08, 4e-08, 0))
hIsland = hIsland.add(rect(5.013885369635463e-09, 3.2930180450219535e-09).transl(-7.800156445189321e-08, 2.7193270681413506e-08, 0))
hIsland = hIsland.sub(rect(7.795286024100076e-09, -1.4707674287641314e-09).transl(-7.495431030730213e-09, 4e-08, 0))
hIsland = hIsland.add(rect(4.678017527374384e-09, 2.67233645051704e-10).transl(4.1136240985285164e-08, 4e-08, 0))
hIsland = hIsland.add(rect(4.150729239144706e-09, 2.121260195396809e-09).transl(-2.108165231650929e-08, 4e-08, 0))
hIsland = hIsland.add(rect(5.253996670336711e-09, 1.7567325451829375e-09).transl(-4.170891599504662e-08, 4e-08, 0))
hIsland = hIsland.sub(rect(4.386189228390046e-09, -1.495250733019176e-09).transl(1.563410145988766e-08, 4e-08, 0))
hIsland = hIsland.sub(rect(4.6286183993955225e-09, -1.191501136864791e-10).transl(3.22697156906599e-09, 4e-08, 0))
hIsland = hIsland.add(rect(9.617422025061964e-09, 1.2749199179540062e-09).transl(-7.645158517469062e-08, 2.8607833374265234e-08, 0))
hIsland = hIsland.sub(rect(9.213838710216902e-09, -2.403600446051728e-09).transl(6.241956131392041e-08, 3.6881486632210616e-08, 0))
hIsland = hIsland.add(rect(5.821536550927163e-09, 1.2944243218709994e-09).transl(-7.890721871090883e-08, 2.6298202828940138e-08, 0))
hIsland = hIsland.sub(rect(8.862847471666026e-09, -1.3615429852101746e-09).transl(-4.452987060168264e-08, 4e-08, 0))
hIsland = hIsland.add(rect(3.638393813800055e-09, 1.86685009514343e-09).transl(-7.264875488579921e-08, 3.15592655504833e-08, 0))
hIsland = hIsland.sub(rect(5.618180340347542e-09, -2.0953205827980706e-10).transl(1.670735817291105e-08, 4e-08, 0))
hIsland = hIsland.add(rect(8.962231154926553e-09, 1.3036069892232094e-09).transl(-8.308428822350953e-08, 2.1307150423445457e-08, 0))
hIsland = hIsland.sub(rect(4.695654323331201e-09, -2.1797019626487985e-09).transl(-4.5546149473926125e-08, 3.999705392362773e-08, 0))
hIsland = hIsland.add(rect(7.688139639725239e-09, 1.22082489343276e-09).transl(-1.0208946798439645e-08, 4e-08, 0))
hIsland = hIsland.add(rect(7.2850266074217835e-09, 4.287876303278289e-09).transl(6.525753993848925e-08, 3.571776416643817e-08, 0))
hIsland = hIsland.add(rect(9.020721459610805e-09, 1.2591209706265346e-09).transl(4.186729239853931e-08, 4e-08, 0))
hIsland = hIsland.add(rect(6.5092655325673126e-09, 6.322754073769417e-10).transl(1.4860340087316078e-09, 4e-08, 0))
hIsland = hIsland.sub(rect(9.315891146273106e-09, -1.05698699954414e-10).transl(4.370728206142302e-09, 4e-08, 0))
hIsland = hIsland.add(rect(9.880009920336513e-09, 1.6554447655733797e-09).transl(3.596841751281971e-08, 4e-08, 0))
hIsland = hIsland.sub(rect(8.767057246217188e-09, -2.653614857378234e-09).transl(4.503336591207992e-08, 3.9999989004600084e-08, 0))
hIsland = hIsland.add(rect(4.990460480090806e-09, 2.7020291332180577e-09).transl(4.036417276974216e-09, 4e-08, 0))
hIsland = hIsland.add(rect(4.115536316406817e-09, 2.589972505198139e-09).transl(-1.7687084626261186e-08, 4e-08, 0))
hIsland = hIsland.sub(rect(9.947179500642095e-09, -1.419405312571917e-09).transl(2.3448073544131278e-08, 4e-08, 0))
hIsland = hIsland.add(rect(2.799073298550189e-09, 2.33535697959913e-09).transl(-1.803595998889703e-08, 4e-08, 0))
hIsland = hIsland.add(rect(3.9073901774329315e-09, 2.6064613352809754e-09).transl(-2.155082253802938e-08, 4e-08, 0))
hIsland = hIsland.add(rect(6.49847801526855e-09, 3.732262188645256e-09).transl(6.89797253093434e-08, 3.384756269680758e-08, 0))
hIsland = hIsland.sub(rect(6.126059310355504e-09, -2.084096478044069e-09).transl(-1.0499537456188727e-08, 4e-08, 0))
hIsland = hIsland.sub(rect(3.4041918128386953e-09, -1.8061711196957672e-10).transl(5.655097455771177e-08, 3.865976936457523e-08, 0))
hIsland = hIsland.add(rect(8.419610057590078e-09, 1.4038846465193892e-09).transl(-8.976975080002557e-08, 4.041211240367547e-09, 0))
hIsland = hIsland.sub(rect(2.3629821749054002e-09, -1.0178330059624991e-09).transl(-3.935184999725515e-08, 4e-08, 0))
hIsland = hIsland.add(rect(5.495285672826888e-09, 3.0601032648662705e-10).transl(1.7870120669170824e-08, 4e-08, 0))
hIsland = hIsland.add(rect(3.0502756533276084e-09, 3.68353668545333e-10).transl(-1.2648650220929272e-08, 4e-08, 0))
hIsland = hIsland.sub(rect(7.601214673371541e-09, -2.2395262510898035e-09).transl(-5.674935009176979e-08, 3.861250635927446e-08, 0))
hIsland = hIsland.add(rect(9.863102735824605e-09, 9.489982132245798e-10).transl(-7.912589971741124e-08, 2.6073748678600447e-08, 0))
hIsland = hIsland.add(rect(4.018773221176772e-09, 4.065846998561992e-09).transl(2.103579319005771e-08, 4e-08, 0))
hIsland = hIsland.add(rect(3.885540244332395e-09, 1.1168015816524115e-09).transl(8.144305433384706e-08, 2.3465720365099688e-08, 0))
hIsland = hIsland.add(rect(3.0642692413574048e-09, 1.2475958977498064e-09).transl(3.7996910345214747e-08, 4e-08, 0))
hIsland = hIsland.sub(rect(2.268909400521416e-09, -1.6370871298710463e-09).transl(4.744827397527096e-09, 4e-08, 0))
hIsland = hIsland.add(rect(9.000932039794517e-09, 1.6033946851048572e-09).transl(-3.2932024499742796e-08, 4e-08, 0))
hIsland = hIsland.sub(rect(8.869403283850137e-09, -1.7451711739012856e-10).transl(3.8679083048176066e-08, 4e-08, 0))
hIsland = hIsland.add(rect(3.1088473993511373e-09, 8.738109654371369e-10).transl(4.0059869742960025e-08, 4e-08, 0))
hIsland = hIsland.sub(rect(6.2285743689572565e-09, -1.97574017417147e-09).transl(-5.838071343456953e-09, 4e-08, 0))
hIsland = hIsland.sub(rect(4.5517721206667545e-09, -2.085225098889179e-09).transl(3.053425258124424e-08, 4e-08, 0))
hIsland = hIsland.add(rect(3.666349549446893e-09, 1.3815280167986898e-09).transl(-5.8098301241021473e-08, 3.8268029446369616e-08, 0))
hIsland = hIsland.add(rect(9.990285763029818e-09, 2.012717259965034e-09).transl(1.8323276280331225e-08, 4e-08, 0))
hIsland = hIsland.sub(rect(6.483423316190105e-09, -4.574772466316739e-09).transl(7.782903457434143e-08, 2.7357777527475095e-08, 0))
hIsland = hIsland.add(rect(7.512397889141776e-09, 6.820386868818841e-10).transl(-8.521500782005369e-09, 4e-08, 0))
hIsland = hIsland.add(rect(9.158267647614537e-09, 8.252931546581485e-10).transl(4.898593857363501e-08, 3.9842775387360647e-08, 0))
hIsland = hIsland.sub(rect(4.297042093191132e-09, -1.3602466470085345e-09).transl(-8.455971781213055e-08, 1.9065138019521105e-08, 0))
hIsland = hIsland.sub(rect(4.447205649523171e-09, -8.528734460038843e-10).transl(4.7410283675023895e-08, 3.994258133296438e-08, 0))
hIsland = hIsland.add(rect(4.9468830861385824e-09, 1.2143047168316302e-09).transl(-6.31145965130907e-08, 3.6615979976829025e-08, 0))
hIsland = hIsland.add(rect(2.7292144816246973e-09, 3.462529491088115e-09).transl(-6.954084204518349e-08, 3.352828409626985e-08, 0))
hIsland = hIsland.sub(rect(4.430173561337533e-09, -2.349207558450456e-09).transl(7.004775392874957e-08, 3.3230775836803747e-08, 0))
hIsland = hIsland.add(rect(5.83002360291661e-09, 1.245284021664259e-09).transl(-7.102558103582485e-08, 3.263165630160149e-08, 0))
hIsland = hIsland.add(rect(2.9188419099546083e-09, 4.075130452866138e-09).transl(2.0716923715650724e-10, 4e-08, 0))
hIsland = hIsland.add(rect(5.5721751791355e-09, 2.7447252509193947e-09).transl(-3.5889654311466113e-09, 4e-08, 0))
hIsland = hIsland.add(rect(5.577179632564338e-09, 1.6783428252735257e-10).transl(7.2837878680639e-08, 3.142762814490523e-08, 0))
hIsland = hIsland.add(rect(5.6054540907218265e-09, 2.4840000728339913e-09).transl(2.6393406549306723e-08, 4e-08, 0))
hIsland = hIsland.sub(rect(6.8145313349144926e-09, -1.3046088278230265e-09).transl(-6.986850211441366e-08, 3.333697879426401e-08, 0))
hIsland = hIsland.sub(rect(8.332291817205807e-09, -3.0158850925812575e-09).transl(-5.3778166773266575e-08, 3.9231569934008343e-08, 0))
hIsland = hIsland.add(rect(5.268282863772169e-09, 1.0607098125821178e-09).transl(-7.805863502453171e-08, 2.713844378576143e-08, 0))
hIsland = hIsland.sub(rect(6.898526328867071e-09, -9.26926678267197e-10).transl(2.3349160841217872e-08, 4e-08, 0))
hIsland = hIsland.add(rect(6.481595933914526e-09, 6.628252493820694e-10).transl(-8.23189457324392e-08, 2.2351557661861352e-08, 0))
hIsland = hIsland.sub(rect(6.533221509275559e-09, -2.066512247425862e-09).transl(-4.220565231428001e-08, 4e-08, 0))
hIsland = hIsland.sub(rect(3.5856692001943637e-09, -3.204830494514907e-09).transl(-8.486183280043311e-08, 1.8561274664409694e-08, 0))
hIsland = hIsland.sub(rect(7.412035988822152e-09, -2.29905023946132e-09).transl(3.930736211948023e-08, 4e-08, 0))
hIsland = hIsland.sub(rect(7.230713909059003e-09, -1.0346799166927076e-09).transl(-4.1723813391308946e-08, 4e-08, 0))
hIsland = hIsland.sub(rect(4.7163572036279194e-09, -1.4098305002257817e-09).transl(-7.928631693928716e-08, 2.5906932702757107e-08, 0))
hIsland = hIsland.add(rect(9.404441786661552e-09, 3.9730018247167945e-10).transl(8.996608898751482e-08, 1.5525917586114366e-09, 0))
hIsland = hIsland.sub(rect(5.205272460317392e-09, -1.1970973540080114e-10).transl(-5.448975373697453e-08, 3.910044878918043e-08, 0))
hIsland = hIsland.sub(rect(8.262123698720285e-09, -2.2504194860795396e-09).transl(-5.957121602365231e-08, 3.7844956359474316e-08, 0))
hIsland = hIsland.add(rect(2.916154866550457e-09, 4.904259286606818e-11).transl(2.5996365273038176e-08, 4e-08, 0))
hIsland = hIsland.sub(rect(3.3289636025639137e-09, -2.206484690346317e-09).transl(-2.9047916733816005e-08, 4e-08, 0))
hIsland = hIsland.sub(rect(3.849855552798662e-09, -5.336877145185814e-09).transl(6.040611621693264e-08, 3.758278127525288e-08, 0))
hIsland = hIsland.add(rect(3.932255138952085e-09, 2.0503437331307633e-09).transl(1.5684456886295594e-08, 4e-08, 0))
hIsland = hIsland.sub(rect(5.352731841078927e-09, -1.0167103718938229e-09).transl(6.111315935508655e-08, 3.734778657368665e-08, 0))
hIsland = hIsland.sub(rect(9.910923236452346e-09, -1.605227763849912e-09).transl(4.467388702687393e-08, 4e-08, 0))
hIsland = hIsland.sub(rect(7.485981443300181e-09, -1.6302228149979778e-09).transl(-4.917475338678573e-09, 4e-08, 0))
hIsland = hIsland.sub(rect(2.624323643564445e-09, -4.63754574620292e-09).transl(6.328901366952192e-08, 3.654740987524922e-08, 0))
hIsland = hIsland.sub(rect(9.378783159712879e-09, -1.148320953471754e-10).transl(-1.251271487579805e-08, 4e-08, 0))
hIsland = hIsland.add(rect(9.18689408789234e-09, 2.308711544794413e-09).transl(3.308641668904273e-08, 4e-08, 0))
hIsland = hIsland.sub(rect(9.385949239546897e-09, -2.692336201496058e-09).transl(-3.882623301705398e-08, 4e-08, 0))
hIsland = hIsland.sub(rect(8.415866190139376e-09, -2.325881853991902e-09).transl(-8.284690932619087e-08, 2.1638766391074067e-08, 0))
hIsland = hIsland.add(rect(9.942087770196688e-09, 1.6349575492531029e-10).transl(5.712181872128744e-08, 3.8521428491782375e-08, 0))
hIsland = hIsland.sub(rect(7.668977750943406e-09, -1.175057014968479e-09).transl(4.798905760122501e-08, 3.991166081934287e-08, 0))
hIsland = hIsland.sub(rect(2.0493493336030328e-09, -5.845976414376132e-10).transl(-1.4441514738127726e-08, 4e-08, 0))
hIsland = hIsland.sub(rect(4.637354357034647e-09, -3.699838748179204e-10).transl(4.413951468079861e-08, 4e-08, 0))
hIsland = hIsland.add(rect(8.373818829048837e-09, 4.280123043814156e-09).transl(-5.915498138590417e-08, 3.796956808179141e-08, 0))
hIsland = hIsland.sub(rect(6.514583339846919e-09, -5.248877517914309e-10).transl(1.4143612048774069e-08, 4e-08, 0))
hIsland = hIsland.sub(rect(5.990402582636746e-09, -1.6198060344552195e-09).transl(1.1145692310190566e-08, 4e-08, 0))
hIsland = hIsland.add(rect(3.965165300385289e-09, 2.5508253523410726e-09).transl(4.288041986329821e-08, 4e-08, 0))
hIsland = hIsland.add(rect(8.316412557163812e-09, 1.5183457408912074e-09).transl(-5.206745741221528e-08, 3.950359679303125e-08, 0))
hIsland = hIsland.add(rect(5.366388456014453e-09, 5.630401790720123e-09).transl(-4.404972079215841e-09, 4e-08, 0))
hIsland = hIsland.sub(rect(5.653832137876733e-09, -2.832623855967588e-09).transl(7.013602666172977e-08, 3.317806996862701e-08, 0))
hIsland = hIsland.add(rect(4.551530276389711e-09, 1.390323916644398e-10).transl(7.632547648707631e-08, 2.8716951904795266e-08, 0))
hIsland = hIsland.sub(rect(7.91903147006143e-09, -2.5291691602092666e-09).transl(-5.785740376622466e-08, 3.833252475429108e-08, 0))
hIsland = hIsland.add(rect(3.50528215206633e-09, 3.6608739570321312e-09).transl(-4.2664890654655516e-08, 4e-08, 0))
hIsland = hIsland.add(rect(3.326248379981449e-09, 1.7788337730194948e-09).transl(8.632472834558679e-09, 4e-08, 0))
hIsland = hIsland.sub(rect(6.340185082295159e-09, -3.039453580428466e-09).transl(1.8627997364057105e-08, 4e-08, 0))
hIsland = hIsland.add(rect(5.857803608432445e-09, 2.1473543302120578e-09).transl(-1.0092559672689027e-08, 4e-08, 0))
hIsland = hIsland.add(rect(3.787313832194935e-09, 5.986564177357004e-10).transl(-3.31754415037707e-08, 4e-08, 0))
hIsland = hIsland.sub(rect(5.828133145956894e-09, -7.240621582991644e-10).transl(7.427788929812134e-08, 3.03761465643086e-08, 0))
hIsland = hIsland.sub(rect(9.706782400939904e-09, -1.8267340975404879e-09).transl(-2.1692338807475624e-08, 4e-08, 0))
hIsland = hIsland.sub(rect(7.342701593522064e-09, -2.2329798975160344e-09).transl(3.169934421464792e-08, 4e-08, 0))
hIsland = hIsland.sub(rect(6.5890805757141074e-09, -1.9692821453386237e-09).transl(-5.3168957721287936e-08, 3.933539861242377e-08, 0))
hIsland = hIsland.sub(rect(3.242497372721216e-09, -1.3950954437505048e-09).transl(-4.0828462538681325e-08, 4e-08, 0))
hIsland = hIsland.add(rect(7.0914230407278435e-09, 3.3893459367333093e-09).transl(3.31461247348519e-08, 4e-08, 0))
hIsland = hIsland.sub(rect(3.3821555759424533e-09, -5.835991514299828e-10).transl(6.992042997026608e-10, 4e-08, 0))
hIsland = hIsland.add(rect(5.506972631816859e-09, 1.3043320965607776e-09).transl(-3.0215580748479297e-08, 4e-08, 0))
hIsland = hIsland.sub(rect(3.785943312283329e-09, -5.60479908250542e-10).transl(3.061748620798357e-08, 4e-08, 0))
hIsland = hIsland.sub(rect(3.329842714131685e-09, -2.677812354212999e-09).transl(-7.09789645582079e-08, 3.26609930127585e-08, 0))
hIsland = hIsland.sub(rect(8.889784242044487e-09, -2.3105480729429865e-09).transl(-8.850122531464687e-08, 1.0237414647562898e-08, 0))
hIsland = hIsland.sub(rect(2.614463246682943e-09, -4.5063223795516375e-10).transl(6.022933830245528e-08, 3.763966654574085e-08, 0))
hIsland = hIsland.sub(rect(2.0312482869909093e-09, -1.1005927985065354e-10).transl(6.988128676577509e-08, 3.3329440589044984e-08, 0))
hIsland = hIsland.sub(rect(3.869186772188388e-09, -9.247630438649509e-10).transl(2.0565605636908065e-08, 4e-08, 0))
hIsland = hIsland.add(rect(3.2275105420742006e-09, 2.6608194290115612e-11).transl(5.0760351504866195e-08, 3.9670926387304996e-08, 0))
hIsland = hIsland.add(rect(4.376303165746317e-09, 1.6775549693362228e-09).transl(-2.3293262843424646e-08, 4e-08, 0))
hIsland = hIsland.sub(rect(9.760632821217713e-09, -5.042384206532888e-09).transl(-8.142162990002923e-08, 2.3491987608917188e-08, 0))
hIsland = hIsland.add(rect(4.004895859320302e-09, 1.7890423925001674e-09).transl(-5.258548873270382e-08, 3.942761191452995e-08, 0))
hIsland = hIsland.sub(rect(3.227714348331322e-09, -1.539782783323983e-10).transl(6.611287769815508e-08, 3.5324207294431216e-08, 0))
hIsland = hIsland.add(rect(2.631487629322077e-09, 2.7508170349753462e-09).transl(-5.833424333716876e-08, 3.820359188982216e-08, 0))
hIsland = hIsland.add(rect(5.0483162900945765e-09, 2.379535595501062e-10).transl(8.541172035316228e-08, 1.7596696841498514e-08, 0))
hIsland = hIsland.sub(rect(6.132945563344631e-09, -1.2403554729176763e-09).transl(-3.105005550165977e-08, 4e-08, 0))
hIsland = hIsland.sub(rect(9.846195070180106e-09, -8.49669367036153e-10).transl(8.39590474402791e-08, 2.001861104533878e-08, 0))
hIsland = hIsland.add(rect(5.433238461098852e-09, 7.653843001813748e-10).transl(4.47830037418548e-08, 4e-08, 0))
hIsland = hIsland.sub(rect(4.065024896515926e-09, -1.7380838339482608e-09).transl(-1.987117450944638e-08, 4e-08, 0))
hIsland = hIsland.add(rect(5.436157842146595e-09, 8.364358905994233e-10).transl(-5.3343974755297866e-09, 4e-08, 0))
hIsland = hIsland.add(rect(2.210166464636314e-09, 2.4424333014181664e-09).transl(2.3964449523374183e-08, 4e-08, 0))
hIsland = hIsland.sub(rect(3.0353794142470633e-09, -3.669557883879794e-10).transl(-6.174453481943932e-08, 3.712769347348691e-08, 0))
hIsland = hIsland.add(rect(8.577799562288321e-09, 2.835410445663805e-09).transl(-3.291046103599059e-09, 4e-08, 0))
hIsland = hIsland.sub(rect(4.055511337033534e-09, -3.6905081992162416e-09).transl(-7.86914089188813e-08, 2.6516450464441253e-08, 0))
hIsland = hIsland.add(rect(3.2612710917090395e-09, 7.858423520268805e-10).transl(2.946644518540255e-08, 4e-08, 0))
hIsland = hIsland.add(rect(6.003930714261419e-09, 2.236212634495426e-09).transl(6.997033760990762e-08, 3.327677856734387e-08, 0))
hIsland = hIsland.sub(rect(3.728315103065983e-09, -1.5916455067780495e-09).transl(-6.072930456570807e-08, 3.747685616422397e-08, 0))
hIsland = hIsland.sub(rect(2.1230470334178853e-09, -5.384771742263161e-10).transl(-5.244367981230755e-08, 3.944896130234048e-08, 0))
hIsland = hIsland.add(rect(2.605608308333376e-09, 1.6512591918627351e-09).transl(-3.5706844669768784e-09, 4e-08, 0))
hIsland = hIsland.sub(rect(3.1635492213537387e-09, -1.871828285045956e-09).transl(1.3218892131665527e-08, 4e-08, 0))
hIsland = hIsland.add(rect(3.990838954793668e-09, 8.742245647425094e-10).transl(-6.32183368614854e-08, 3.657529033801074e-08, 0))
hIsland = hIsland.add(rect(2.7969873771076312e-09, 5.262556007603033e-10).transl(3.691378330967116e-08, 4e-08, 0))
hIsland = hIsland.sub(rect(8.742363342154363e-09, -2.329627900048261e-09).transl(8.13966255151104e-08, 2.3522587429910433e-08, 0))
hIsland = hIsland.sub(rect(4.566574932027422e-09, -2.9712590269111603e-09).transl(-8.8687703540136e-08, 9.589482279121323e-09, 0))
hIsland = hIsland.add(rect(7.095375125528381e-09, 6.088651629022746e-10).transl(-3.5050752459724155e-08, 4e-08, 0))
hIsland = hIsland.sub(rect(3.207873971274471e-09, -2.8615473225388025e-09).transl(-5.430469707728337e-08, 3.913557429182065e-08, 0))
hIsland = hIsland.add(rect(5.432220754016334e-09, 1.333711998646752e-09).transl(8.843408885913444e-08, 1.0460221652465955e-08, 0))
hIsland = hIsland.sub(rect(8.561565807724773e-09, -1.2552372816243304e-09).transl(2.2893214613109818e-08, 4e-08, 0))
hIsland = hIsland.add(rect(7.700512808981493e-09, 9.276974187165476e-10).transl(4.055094162924074e-08, 4e-08, 0))
hIsland = hIsland.sub(rect(2.774700464490056e-09, -1.7155936570933817e-09).transl(-6.604546270220298e-09, 4e-08, 0))
hIsland = hIsland.sub(rect(2.892362460570044e-09, -9.989651720033174e-10).transl(-1.9716608524193643e-08, 4e-08, 0))
hIsland = hIsland.add(rect(6.705476058534404e-09, 3.597937152462733e-09).transl(-8.585387496369241e-08, 1.6770600977498057e-08, 0))
hIsland = hIsland.sub(rect(4.623250317621654e-09, -1.40866032152566e-09).transl(-3.785317880051924e-08, 4e-08, 0))
hIsland = hIsland.add(rect(3.583308326324214e-09, 2.433075024925259e-10).transl(-1.6051240075235756e-08, 4e-08, 0))
hIsland = hIsland.add(rect(2.1036981459036303e-09, 3.1095672051116867e-09).transl(4.3440179372687547e-10, 4e-08, 0))
hIsland = hIsland.sub(rect(8.292946207562445e-09, -1.5267246012549886e-09).transl(-3.092927997043832e-08, 4e-08, 0))
hIsland = hIsland.add(rect(4.641031541554558e-09, 2.0322352457773286e-10).transl(2.2306902352318343e-08, 4e-08, 0))
hIsland = hIsland.add(rect(3.899944826826389e-09, 1.0337028766215597e-09).transl(1.176155747957951e-08, 4e-08, 0))
hIsland = hIsland.add(rect(5.770482027818761e-09, 8.099245676379742e-10).transl(1.8216928342988774e-08, 4e-08, 0))
hIsland = hIsland.add(rect(5.246118060667739e-09, 4.956277088541004e-10).transl(-3.325506505293984e-08, 4e-08, 0))
hIsland = hIsland.add(rect(7.176502404613864e-09, 6.52311033681817e-10).transl(-7.409128103807901e-08, 3.0517477591843914e-08, 0))
vIsland = hIsland.rotz(pi / 2)
hIslands = hIslands.add(hIsland.transl(-a/2, a, 0))
hIsland = rect(islandLength-2*ellipseConstant, islandWidth)
hIsland = hIsland.add(ellipse(ellipseConstant*2, islandWidth).transl(islandLength/2-ellipseConstant, 0, 0))
hIsland = hIsland.add(ellipse(ellipseConstant*2, islandWidth).transl(-islandLength/2+ellipseConstant, 0, 0))
hIsland = hIsland.add(rect(2.2813566367203802e-09, 2.9898834773388225e-09).transl(-2.9704091348112395e-08, -4e-08, 0))
hIsland = hIsland.add(rect(6.9653408025693124e-09, 1.3962783164086097e-09).transl(1.4713611977757356e-08, -4e-08, 0))
hIsland = hIsland.add(rect(4.913074302654779e-09, 2.0576187723259304e-09).transl(6.169859379303768e-08, -3.714403825042102e-08, 0))
hIsland = hIsland.sub(rect(3.714757219911901e-09, -1.101653821098973e-09).transl(-7.18749188945451e-08, -3.2083086387186983e-08, 0))
hIsland = hIsland.add(rect(9.737453747500488e-09, 1.4673870218715997e-09).transl(2.810048257819146e-08, -4e-08, 0))
hIsland = hIsland.add(rect(7.20695966372616e-09, 1.7912665020786457e-11).transl(-7.341310556425577e-08, -3.101821600613144e-08, 0))
hIsland = hIsland.sub(rect(4.516762355397018e-09, -1.3087575970304156e-09).transl(-8.912386653083011e-08, -7.854700371215531e-09, 0))
hIsland = hIsland.sub(rect(8.989403403810788e-09, -1.5214802420754984e-09).transl(-4.26093719975622e-08, -4e-08, 0))
hIsland = hIsland.sub(rect(6.1884558297752515e-09, -2.114523276194484e-10).transl(6.003663535608259e-08, -3.770083245941533e-08, 0))
hIsland = hIsland.add(rect(8.514946618212236e-09, 3.2972383537522295e-11).transl(3.1177533132542435e-08, -4e-08, 0))
hIsland = hIsland.add(rect(7.315082068878553e-09, 9.669034621300012e-10).transl(5.2543664645320994e-08, -3.94339516431929e-08, 0))
hIsland = hIsland.sub(rect(4.790733648478917e-09, -1.2187266988857962e-09).transl(7.904109964631429e-09, -4e-08, 0))
hIsland = hIsland.sub(rect(5.602075805552795e-09, -1.9796581960166353e-09).transl(8.765227095321535e-08, -1.2751258510700757e-08, 0))
hIsland = hIsland.sub(rect(6.465791566642669e-09, -4.079149564677588e-09).transl(7.652889230810595e-08, -2.8540517611631346e-08, 0))
hIsland = hIsland.sub(rect(2.472251184518319e-09, -4.7839586824348e-10).transl(8.697440166503367e-08, -1.4419454755532545e-08, 0))
hIsland = hIsland.add(rect(2.1861488286931997e-09, 6.381133103752098e-10).transl(-8.395176198838763e-08, -2.0029809646353025e-08, 0))
hIsland = hIsland.sub(rect(9.97000748590018e-09, -2.232835303453801e-09).transl(7.45420083728538e-08, -3.017342127020441e-08, 0))
hIsland = hIsland.add(rect(6.236336335264313e-09, 4.077502691186644e-09).transl(-1.8615189210505907e-08, -4e-08, 0))
hIsland = hIsland.sub(rect(9.571289374547682e-09, -4.154989827057062e-10).transl(8.299598082956574e-08, -2.143135703438371e-08, 0))
hIsland = hIsland.add(rect(5.842930854195976e-09, 1.948573543628491e-10).transl(8.617120204010553e-08, -1.6145807790052875e-08, 0))
hIsland = hIsland.sub(rect(6.080470920954122e-09, -2.5775012986879517e-10).transl(-2.988484065719961e-08, -4e-08, 0))
hIsland = hIsland.sub(rect(8.656008232369434e-09, -7.876673640273028e-10).transl(-5.504130047105394e-08, -3.8991456207295486e-08, 0))
hIsland = hIsland.add(rect(6.324475199063961e-09, 4.247348432453527e-09).transl(3.477621308010369e-08, -4e-08, 0))
hIsland = hIsland.sub(rect(5.0664783332561025e-09, -3.726525039707943e-10).transl(6.397903276022253e-08, -3.6268369409770485e-08, 0))
hIsland = hIsland.add(rect(5.316336700947158e-09, 5.057388153726424e-10).transl(7.713563624347058e-08, -2.8000717919929823e-08, 0))
hIsland = hIsland.add(rect(6.989287727242395e-09, 6.023711539708604e-11).transl(6.768562093902892e-08, -3.4545230069885026e-08, 0))
hIsland = hIsland.sub(rect(2.722109030348283e-09, -4.478678246794797e-10).transl(7.472737479659019e-08, -3.00292293847909e-08, 0))
hIsland = hIsland.add(rect(4.914342236588208e-09, 2.163464639865e-09).transl(1.2334195346493044e-08, -4e-08, 0))
hIsland = hIsland.add(rect(5.611658805384532e-09, 3.966143523248252e-12).transl(5.7822200056533345e-08, -3.834184058344887e-08, 0))
hIsland = hIsland.sub(rect(3.1318471305705846e-09, -1.296695188457937e-09).transl(8.242247180547395e-08, -2.2214373795711905e-08, 0))
hIsland = hIsland.add(rect(8.032126080336996e-09, 3.4354560492680163e-09).transl(1.3370364223028133e-08, -4e-08, 0))
hIsland = hIsland.add(rect(5.0056263614652265e-09, 1.556053737332803e-09).transl(-4.360072723198919e-08, -4e-08, 0))
hIsland = hIsland.sub(rect(5.218292250776445e-09, -2.1946000082017715e-09).transl(-8.743902571445083e-08, -1.3301565010551269e-08, 0))
hIsland = hIsland.sub(rect(6.598561471193331e-09, -2.835925004248206e-11).transl(2.961036542534814e-09, -4e-08, 0))
hIsland = hIsland.sub(rect(5.020404699347371e-09, -9.505852774855384e-10).transl(-8.637539814997121e-08, -1.5727969655255252e-08, 0))
hIsland = hIsland.add(rect(8.02561759237727e-09, 2.211235435613729e-09).transl(1.045437959218954e-08, -4e-08, 0))
hIsland = hIsland.sub(rect(6.827972304280997e-09, -2.5654840691307054e-09).transl(4.1459878921112844e-08, -4e-08, 0))
hIsland = hIsland.add(rect(3.3592976412778274e-09, 7.37553026816299e-10).transl(6.677802130525208e-08, -3.500369265067054e-08, 0))
hIsland = hIsland.sub(rect(3.706311777543366e-09, -3.1458310919612826e-09).transl(-1.7614950970618965e-09, -4e-08, 0))
hIsland = hIsland.sub(rect(8.547591738145325e-09, -1.9332821661258513e-09).transl(-8.983041530686858e-08, -3.4693850781786944e-09, 0))
hIsland = hIsland.sub(rect(6.32739338701249e-09, -1.4370395235036949e-09).transl(-1.2002026976074505e-08, -4e-08, 0))
hIsland = hIsland.sub(rect(5.849782356232211e-09, -5.802909412796589e-10).transl(4.8237658590302226e-08, -3.989633546688265e-08, 0))
hIsland = hIsland.add(rect(4.6051020861249245e-09, 1.1696718422857754e-09).transl(4.201010246994038e-08, -4e-08, 0))
hIsland = hIsland.add(rect(6.295366646833487e-09, 9.587259015989292e-10).transl(7.175031834798833e-08, -3.2165258071250526e-08, 0))
hIsland = hIsland.sub(rect(8.785528724622755e-09, -6.881475443478575e-10).transl(3.8400455368267594e-08, -4e-08, 0))
hIsland = hIsland.sub(rect(4.7016374349349896e-09, -1.2511510612978966e-09).transl(5.367715410013297e-09, -4e-08, 0))
hIsland = hIsland.add(rect(4.847103133064412e-09, 5.282073885538633e-10).transl(3.988081075304049e-08, -4e-08, 0))
hIsland = hIsland.sub(rect(8.134516457551926e-09, -3.3247190322436277e-10).transl(-7.641711048762879e-08, -2.863774828872542e-08, 0))
hIsland = hIsland.add(rect(2.5485514329216853e-09, 7.592692643077549e-10).transl(-8.188812613253127e-08, -2.2909654449746437e-08, 0))
hIsland = hIsland.sub(rect(4.9513979871446855e-09, -1.9224491374324433e-10).transl(8.068110880530289e-08, -2.4373366957171675e-08, 0))
hIsland = hIsland.add(rect(8.499688953843932e-09, 8.898436997007028e-10).transl(8.174140674609622e-08, -2.309519161658436e-08, 0))
hIsland = hIsland.add(rect(7.072278943185422e-09, 5.87737744137111e-10).transl(-2.8290092619573115e-09, -4e-08, 0))
hIsland = hIsland.sub(rect(8.551975387905594e-09, -4.690102244444103e-09).transl(1.0305656230530958e-08, -4e-08, 0))
hIsland = hIsland.sub(rect(8.28601584741573e-09, -1.1063606050222396e-09).transl(1.528526361677769e-08, -4e-08, 0))
hIsland = hIsland.sub(rect(5.685652709940578e-09, -9.571091259524342e-11).transl(-4.373173234856416e-08, -4e-08, 0))
hIsland = hIsland.sub(rect(7.052524787355865e-09, -1.967145235530909e-09).transl(-8.125813110948726e-08, -2.369098057802654e-08, 0))
hIsland = hIsland.add(rect(9.738913386901267e-09, 3.1020151730851845e-09).transl(2.7534574892114097e-08, -4e-08, 0))
hIsland = hIsland.sub(rect(2.3935163427815963e-09, -3.8797212907260044e-10).transl(6.472794104729053e-08, -3.595122448338196e-08, 0))
hIsland = hIsland.sub(rect(6.563466876096528e-09, -1.162846676916466e-09).transl(-4.04072264274262e-08, -4e-08, 0))
hIsland = hIsland.sub(rect(7.434291781114243e-09, -3.487182921700918e-09).transl(2.771403762846701e-08, -4e-08, 0))
hIsland = hIsland.add(rect(5.099676584031401e-09, 2.2722264020434486e-09).transl(8.747876906462816e-08, -1.320094807680911e-08, 0))
hIsland = hIsland.sub(rect(6.310695975780235e-09, -3.4452054079346847e-09).transl(-3.999611203821338e-08, -4e-08, 0))
hIsland = hIsland.sub(rect(9.507824804235395e-09, -1.9933606206941444e-09).transl(-8.253719329701691e-08, -2.2060909968716472e-08, 0))
hIsland = hIsland.add(rect(6.718789921739254e-09, 2.6853406397842214e-09).transl(-5.0433369876421755e-08, -3.970735906453979e-08, 0))
hIsland = hIsland.sub(rect(5.5224610103399805e-09, -1.4385794636119022e-09).transl(1.0068052053981394e-08, -4e-08, 0))
hIsland = hIsland.sub(rect(8.552592791526603e-09, -8.426918099903913e-10).transl(7.984157211535836e-08, -2.5314844754850847e-08, 0))
hIsland = hIsland.sub(rect(9.340245053167355e-09, -3.4552961992436975e-10).transl(-4.9978995755155094e-08, -3.975440257959316e-08, 0))
hIsland = hIsland.sub(rect(3.917471890042572e-09, -2.2854251942262663e-09).transl(3.406688731096048e-08, -4e-08, 0))
hIsland = hIsland.sub(rect(3.109119287711697e-09, -1.172730482360173e-09).transl(5.714376223191342e-08, -3.851596726558682e-08, 0))
hIsland = hIsland.sub(rect(3.87214088206493e-09, -3.100231670580088e-11).transl(5.4773191410237076e-08, -3.904524483751923e-08, 0))
hIsland = hIsland.sub(rect(7.0013339895879235e-09, -2.339210585333701e-09).transl(5.658037324587458e-09, -4e-08, 0))
hIsland = hIsland.sub(rect(8.184931978462614e-09, -3.7719421539813174e-09).transl(5.967679254474118e-08, -3.781270814505509e-08, 0))
hIsland = hIsland.sub(rect(8.576254020502476e-09, -1.7322590362113553e-09).transl(-7.033309113141151e-08, -3.305943163055571e-08, 0))
hIsland = hIsland.sub(rect(6.836270894282588e-09, -2.177518075214811e-09).transl(-4.121576078051777e-08, -4e-08, 0))
hIsland = hIsland.add(rect(9.916312427250497e-09, 8.100604449475933e-10).transl(7.426001488130996e-08, -3.0389751737763175e-08, 0))
hIsland = hIsland.add(rect(6.881496101063311e-09, 5.006011799431294e-10).transl(8.029941476401029e-08, -2.4808621636657153e-08, 0))
hIsland = hIsland.sub(rect(7.557316959982892e-09, -1.6131002069720448e-09).transl(4.931110568935098e-08, -3.981601506916962e-08, 0))
hIsland = hIsland.add(rect(8.907163231883558e-09, 7.251546484636508e-10).transl(1.679588555627644e-08, -4e-08, 0))
hIsland = hIsland.sub(rect(4.8760133993558185e-09, -1.486715939877276e-09).transl(-4.191570025457548e-08, -4e-08, 0))
hIsland = hIsland.sub(rect(6.915779880927444e-09, -1.878389650892167e-09).transl(2.1493642122569154e-08, -4e-08, 0))
hIsland = hIsland.add(rect(5.7863568046679184e-09, 1.7040857864465222e-09).transl(-3.6769775790050396e-08, -4e-08, 0))
hIsland = hIsland.sub(rect(3.4342724329603965e-09, -3.2749335657976016e-10).transl(-4.335191219282361e-08, -4e-08, 0))
hIsland = hIsland.sub(rect(3.7807743516951264e-09, -7.725803535848076e-11).transl(-2.211762672396362e-08, -4e-08, 0))
hIsland = hIsland.sub(rect(9.519727916008371e-09, -9.45614879795141e-10).transl(8.18625783822413e-08, -2.2942122605373588e-08, 0))
hIsland = hIsland.add(rect(8.284907583173933e-09, 7.211912690121341e-10).transl(5.4183794425019214e-08, -3.915813254185042e-08, 0))
hIsland = hIsland.sub(rect(7.933360180653095e-09, -1.3251175395737696e-09).transl(-8.861126766492183e-08, -9.860551965460219e-09, 0))
hIsland = hIsland.sub(rect(7.404882670809019e-09, -2.7132675083275476e-10).transl(-7.477410030401798e-08, -2.999263054948742e-08, 0))
hIsland = hIsland.sub(rect(7.567000845497334e-09, -1.359359364104477e-09).transl(5.185781530211993e-08, -3.953278115191921e-08, 0))
hIsland = hIsland.sub(rect(4.7570988287760204e-09, -2.3703120538878846e-09).transl(3.5619562801269395e-08, -4e-08, 0))
hIsland = hIsland.add(rect(7.110251740647957e-09, 4.377256684946464e-10).transl(-2.1877810128517323e-08, -4e-08, 0))
hIsland = hIsland.add(rect(5.2270390315110354e-09, 2.7175446712073504e-09).transl(3.0633988213519554e-08, -4e-08, 0))
hIsland = hIsland.sub(rect(2.582098203866665e-09, -2.109369650571714e-09).transl(-7.708052374374251e-08, -2.805060677254398e-08, 0))
hIsland = hIsland.sub(rect(8.660224625209017e-09, -4.618768740363965e-10).transl(-4.275617900111744e-08, -4e-08, 0))
hIsland = hIsland.sub(rect(9.715659318591493e-09, -2.7819043764339302e-09).transl(1.4846885761379381e-08, -4e-08, 0))
hIsland = hIsland.add(rect(2.327862190610411e-09, 1.7715296014347639e-09).transl(1.085435289334559e-08, -4e-08, 0))
hIsland = hIsland.sub(rect(5.534591664715787e-09, -4.401139697820824e-09).transl(8.517204035479323e-08, -1.8025105646478433e-08, 0))
hIsland = hIsland.add(rect(6.913472770999857e-09, 3.3311119895156287e-09).transl(5.908638187432957e-08, -3.798972020217383e-08, 0))
hIsland = hIsland.sub(rect(8.761563782856797e-09, -3.6717077111466165e-09).transl(-8.857014553794495e-08, -1.000315674825752e-08, 0))
hIsland = hIsland.sub(rect(3.5384334253731656e-09, -2.3733526650084817e-10).transl(3.484899823089172e-08, -4e-08, 0))
hIsland = hIsland.sub(rect(7.693483237607646e-09, -4.775722541438915e-10).transl(6.42407441714873e-08, -3.615925011488782e-08, 0))
hIsland = hIsland.add(rect(4.769184160114227e-09, 1.2126869658340502e-09).transl(6.243558519363109e-08, -3.687550353088487e-08, 0))
hIsland = hIsland.sub(rect(8.046445003543562e-09, -1.6378766057852961e-09).transl(-6.639764088944447e-08, -3.5188561153343107e-08, 0))
hIsland = hIsland.sub(rect(7.323406768093246e-09, -6.226063799152143e-10).transl(3.010855694218852e-08, -4e-08, 0))
hIsland = hIsland.sub(rect(5.779117413416458e-09, -1.8785254538047445e-09).transl(1.1812340361129932e-08, -4e-08, 0))
hIsland = hIsland.sub(rect(5.347163482805327e-09, -6.251408777450297e-10).transl(-4.16616682234864e-08, -4e-08, 0))
hIsland = hIsland.add(rect(3.2086071911667757e-09, 1.070458337298956e-09).transl(-4.609810507024934e-09, -4e-08, 0))
hIsland = hIsland.sub(rect(8.281653105418641e-09, -1.1997842139594215e-09).transl(-1.2376669888881188e-08, -4e-08, 0))
hIsland = hIsland.sub(rect(8.273132063000692e-09, -2.2698289602588386e-09).transl(3.3930067938485604e-08, -4e-08, 0))
hIsland = hIsland.sub(rect(9.68773185970926e-09, -4.922768879902271e-09).transl(6.761818023190061e-09, -4e-08, 0))
hIsland = hIsland.add(rect(4.944688584565907e-09, 2.256352720000752e-09).transl(-6.438209788320806e-08, -3.609955268443625e-08, 0))
hIsland = hIsland.sub(rect(9.39174286676148e-09, -2.7977562652472e-09).transl(-7.824650016859091e-08, -2.6956502341747716e-08, 0))
hIsland = hIsland.sub(rect(6.804740561296209e-09, -3.4850603251019327e-09).transl(-2.4397322401199902e-08, -4e-08, 0))
hIsland = hIsland.sub(rect(9.495340262693824e-09, -2.5233373287113936e-09).transl(-7.93508567909408e-08, -2.5839292697245938e-08, 0))
hIsland = hIsland.add(rect(5.799887771587231e-09, 2.0407934366993355e-09).transl(8.595321910532143e-08, -1.657804813390597e-08, 0))
hIsland = hIsland.add(rect(2.3043565630474075e-09, 8.948117713265393e-10).transl(1.1998374567741931e-08, -4e-08, 0))
hIsland = hIsland.add(rect(9.299976289745642e-09, 2.89003795303228e-09).transl(4.276792600930815e-08, -4e-08, 0))
hIsland = hIsland.add(rect(5.68716795378263e-09, 3.907025304417966e-10).transl(2.140512322682544e-09, -4e-08, 0))
hIsland = hIsland.sub(rect(4.812020699268326e-09, -2.0442854853260546e-09).transl(4.2513773590112664e-08, -4e-08, 0))
hIsland = hIsland.sub(rect(6.703229614108309e-09, -1.522360522319372e-09).transl(-4.48695270816623e-08, -4e-08, 0))
hIsland = hIsland.sub(rect(9.407246886033059e-09, -2.1387660660115512e-10).transl(-6.108164033567459e-08, -3.7358518955644014e-08, 0))
hIsland = hIsland.sub(rect(9.726855619932103e-09, -1.1607854946265382e-10).transl(-4.860738487921372e-08, -3.98712671626094e-08, 0))
hIsland = hIsland.sub(rect(9.300883928417518e-09, -2.1329138631785662e-10).transl(-2.2792111822632352e-08, -4e-08, 0))
hIsland = hIsland.add(rect(8.405891665969304e-09, 1.7606143885454853e-09).transl(-6.542329949542465e-08, -3.564310152881941e-08, 0))
hIsland = hIsland.sub(rect(2.733797428530805e-09, -1.370687750310351e-09).transl(-3.789789314384637e-08, -4e-08, 0))
hIsland = hIsland.add(rect(8.930393826949454e-09, 5.098279685941397e-10).transl(2.9473706641467483e-08, -4e-08, 0))
hIsland = hIsland.sub(rect(8.64409823055514e-09, -1.758802958876724e-09).transl(1.2453179222748251e-08, -4e-08, 0))
hIsland = hIsland.add(rect(5.462450753852263e-09, 1.6420578522311484e-09).transl(-8.398543373771673e-08, -1.9977982078443175e-08, 0))
hIsland = hIsland.sub(rect(7.0189638209720964e-09, -6.381592973929775e-10).transl(-2.892537763248074e-08, -4e-08, 0))
hIsland = hIsland.sub(rect(4.382384478580887e-09, -1.0849854874570722e-09).transl(3.1420497506038926e-08, -4e-08, 0))
hIsland = hIsland.add(rect(9.08191686215495e-09, 5.22945723180537e-10).transl(-8.317460058136856e-09, -4e-08, 0))
hIsland = hIsland.add(rect(9.991043135888863e-09, 5.487105890856243e-10).transl(2.023638142255987e-08, -4e-08, 0))
hIsland = hIsland.sub(rect(5.685109271078348e-09, -1.926563254869579e-09).transl(8.883571309222567e-08, -9.04005933318566e-09, 0))
hIsland = hIsland.add(rect(2.628685455858226e-09, 7.507997391210077e-10).transl(-5.5051686365116326e-08, -3.898934176582384e-08, 0))
hIsland = hIsland.sub(rect(8.193319876003269e-09, -3.839586930040114e-09).transl(-4.4236820646008706e-08, -4e-08, 0))
hIsland = hIsland.add(rect(4.480535109335567e-09, 3.3634836253317933e-09).transl(8.263415578590436e-08, -2.192999534716644e-08, 0))
hIsland = hIsland.add(rect(3.441211106120065e-09, 8.146570178609868e-11).transl(-3.043487109762833e-08, -4e-08, 0))
hIsland = hIsland.add(rect(9.327994434170326e-09, 9.911491542556025e-10).transl(-4.895746810970599e-08, -3.984501774302223e-08, 0))
hIsland = hIsland.sub(rect(2.622130734199125e-09, -3.527365384544764e-10).transl(-2.9056695615825827e-08, -4e-08, 0))
hIsland = hIsland.add(rect(3.0449866396781e-09, 1.431277879782577e-09).transl(-2.452480907152227e-08, -4e-08, 0))
hIsland = hIsland.add(rect(5.602500641582501e-09, 8.196493741266585e-10).transl(3.8052334551453914e-08, -4e-08, 0))
hIsland = hIsland.add(rect(6.341087598991171e-09, 3.4013877402246814e-10).transl(2.623486495457947e-08, -4e-08, 0))
hIsland = hIsland.sub(rect(4.826564689469315e-09, -1.1297709320723099e-09).transl(-1.8174341308841415e-08, -4e-08, 0))
hIsland = hIsland.add(rect(9.925000104753401e-09, 1.6459691875303226e-09).transl(3.023290614066375e-08, -4e-08, 0))
hIsland = hIsland.add(rect(5.003276830515612e-09, 5.199955371181998e-10).transl(-2.3425368613166156e-08, -4e-08, 0))
hIsland = hIsland.add(rect(8.941795798444119e-09, 2.0388510094882238e-09).transl(4.502183103425998e-08, -3.999999529289793e-08, 0))
hIsland = hIsland.sub(rect(9.399819746486667e-09, -1.6718467656296372e-09).transl(7.044820442133054e-08, -3.2989502458784695e-08, 0))
hIsland = hIsland.add(rect(5.188391669278269e-09, 1.6106887125546381e-09).transl(1.1250877229049346e-08, -4e-08, 0))
hIsland = hIsland.sub(rect(3.7956138855780505e-09, -2.6991922778885486e-09).transl(-1.15416534028418e-08, -4e-08, 0))
hIsland = hIsland.sub(rect(3.935623387738828e-09, -4.6152519724907333e-10).transl(-7.314726762277977e-08, -3.1209132254775845e-08, 0))
hIsland = hIsland.sub(rect(9.579312189284465e-09, -6.211696144291888e-10).transl(1.2115957780005381e-08, -4e-08, 0))
hIsland = hIsland.sub(rect(3.6637626719508297e-09, -9.0190661611786e-10).transl(7.761181176812735e-09, -4e-08, 0))
hIsland = hIsland.add(rect(7.415103943738278e-09, 1.9238193652808597e-09).transl(3.02845904839621e-09, -4e-08, 0))
hIsland = hIsland.sub(rect(2.253556588896138e-09, -9.215574779379953e-10).transl(-4.682399011544743e-08, -3.996712782666633e-08, 0))
hIsland = hIsland.sub(rect(3.2100585490200155e-09, -4.846732473249272e-10).transl(4.9503990073755905e-08, -3.979914086463263e-08, 0))
hIsland = hIsland.add(rect(3.448427011486624e-09, 3.09774986448271e-10).transl(-7.082618251166693e-08, -3.2756590327380056e-08, 0))
hIsland = hIsland.add(rect(7.079352199643737e-09, 1.485730784844109e-10).transl(7.124728017268605e-09, -4e-08, 0))
hIsland = hIsland.sub(rect(8.660546645110824e-09, -1.057982490728851e-10).transl(6.918638998740378e-08, -3.3731178843535684e-08, 0))
hIsland = hIsland.add(rect(3.844153845817139e-09, 1.2223851676664742e-09).transl(-8.583568387918244e-08, -1.6805570437329216e-08, 0))
hIsland = hIsland.add(rect(2.308079554138659e-09, 2.809946311403426e-10).transl(8.878590519733947e-08, -9.228811827255716e-09, 0))
hIsland = hIsland.sub(rect(2.2738599213294057e-09, -7.229949229357006e-10).transl(-3.240792067453595e-08, -4e-08, 0))
hIsland = hIsland.sub(rect(7.022988453683561e-09, -3.0648869856766216e-10).transl(-6.119669039302199e-08, -3.73192271796191e-08, 0))
hIsland = hIsland.sub(rect(6.802946596981524e-09, -1.3909612308782355e-09).transl(-2.1615185356843593e-08, -4e-08, 0))
hIsland = hIsland.add(rect(2.0631622515816546e-09, 1.6018296899256513e-10).transl(1.8504282293783116e-08, -4e-08, 0))
hIsland = hIsland.add(rect(2.8423568562870073e-09, 7.719476156996507e-10).transl(-3.546286619124126e-08, -4e-08, 0))
hIsland = hIsland.add(rect(2.8723932653242017e-09, 1.880128890644702e-09).transl(-1.4138650361507064e-08, -4e-08, 0))
hIsland = hIsland.sub(rect(6.228510319091299e-09, -2.9904693022172354e-09).transl(-7.169050814083533e-08, -3.2204491982471784e-08, 0))
hIsland = hIsland.sub(rect(7.945058383713687e-09, -2.4271360497234776e-09).transl(4.312140055933368e-08, -4e-08, 0))
hIsland = hIsland.add(rect(8.764375840495966e-09, 5.150013461058701e-10).transl(5.21021369482358e-08, -3.9498682217303265e-08, 0))
hIsland = hIsland.add(rect(3.4568356813668788e-09, 5.569058651583941e-10).transl(2.0083313338689955e-08, -4e-08, 0))
hIsland = hIsland.add(rect(4.947011421735188e-09, 8.98174084947791e-10).transl(-5.404861146100808e-08, -3.918299082355362e-08, 0))
hIsland = hIsland.sub(rect(5.735817178738985e-09, -1.1583621088550602e-09).transl(8.608885598050239e-08, -1.6310709391687294e-08, 0))
hIsland = hIsland.sub(rect(2.3964103736774893e-09, -2.208371001943487e-11).transl(3.3137308478671414e-09, -4e-08, 0))
hIsland = hIsland.sub(rect(8.833700207973858e-09, -5.949551103664088e-10).transl(3.971239998134227e-08, -4e-08, 0))
hIsland = hIsland.sub(rect(9.241996873390925e-09, -2.2522076582043124e-09).transl(-2.913263308082209e-08, -4e-08, 0))
hIsland = hIsland.sub(rect(8.661131806379862e-09, -1.0084996670897637e-10).transl(3.001610108777378e-09, -4e-08, 0))
hIsland = hIsland.sub(rect(7.216523761645102e-09, -4.636474706789146e-09).transl(2.5096740801160117e-09, -4e-08, 0))
hIsland = hIsland.add(rect(4.622279664997624e-09, 9.850550302224674e-10).transl(-7.306566176641209e-08, -3.126714686025769e-08, 0))
hIsland = hIsland.sub(rect(5.742177536622662e-09, -3.938231172699956e-09).transl(8.308272537021474e-08, -2.130935742295395e-08, 0))
hIsland = hIsland.sub(rect(4.64390207241798e-09, -2.8665699000567834e-09).transl(-5.6327922459444105e-08, -3.871188337285897e-08, 0))
hIsland = hIsland.sub(rect(4.62464181929722e-09, -2.0754769895352e-09).transl(3.9170506501643334e-08, -4e-08, 0))
hIsland = hIsland.add(rect(2.4649155710379927e-09, 7.165094118671313e-10).transl(5.7845338992516026e-08, -3.833572054317388e-08, 0))
hIsland = hIsland.sub(rect(3.4354333811699487e-09, -1.2189285262923727e-09).transl(-7.82840227660619e-08, -2.6919891453317356e-08, 0))
hIsland = hIsland.add(rect(4.201782275731953e-09, 1.2057636682193636e-09).transl(7.29337072918031e-08, -3.136037284907942e-08, 0))
hIsland = hIsland.sub(rect(3.554993604074718e-09, -1.6888267022675292e-09).transl(4.223580796994089e-08, -4e-08, 0))
hIsland = hIsland.sub(rect(3.427312604040239e-09, -2.693352029673436e-09).transl(-6.927038868501648e-08, -3.368347342082518e-08, 0))
hIsland = hIsland.add(rect(5.390444779659935e-09, 1.971482102193935e-10).transl(8.342506144418747e-08, -2.0818124164694255e-08, 0))
hIsland = hIsland.add(rect(6.562143213485453e-09, 9.174858821440164e-10).transl(-7.714728201971558e-09, -4e-08, 0))
hIsland = hIsland.sub(rect(6.8520283262530176e-09, -2.8921848178489696e-09).transl(-7.055317158648043e-08, -3.292533022412855e-08, 0))
hIsland = hIsland.sub(rect(8.719017345145207e-09, -5.881595154896164e-10).transl(1.211997461297133e-08, -4e-08, 0))
hIsland = hIsland.add(rect(6.228870043958558e-09, 2.5919751061418314e-09).transl(9.110200725595889e-10, -4e-08, 0))
hIsland = hIsland.add(rect(8.584277966224034e-09, 1.2170738961699863e-09).transl(-3.545110501993472e-08, -4e-08, 0))
hIsland = hIsland.sub(rect(8.711356250308574e-09, -1.658532094394618e-09).transl(-5.748682121960409e-08, -3.8429199760543664e-08, 0))
hIsland = hIsland.add(rect(6.403427317217202e-09, 1.0231233879711616e-09).transl(-4.515775114509284e-08, -3.999975421728165e-08, 0))
hIsland = hIsland.add(rect(5.2713967279296405e-09, 1.1611010770104802e-09).transl(1.2893050233376309e-08, -4e-08, 0))
hIsland = hIsland.add(rect(7.1302589939215375e-09, 1.344034808481303e-09).transl(-2.2301132962362278e-08, -4e-08, 0))
hIsland = hIsland.sub(rect(9.376189450002171e-09, -1.8549485968998367e-09).transl(-2.167565497877425e-08, -4e-08, 0))
hIsland = hIsland.add(rect(6.424891522296748e-09, 5.859317865272508e-10).transl(1.849084257184286e-08, -4e-08, 0))
hIsland = hIsland.add(rect(3.228138700198622e-09, 5.167369436628989e-10).transl(4.787430691527849e-08, -3.991832015819644e-08, 0))
hIsland = hIsland.sub(rect(8.488464574360368e-09, -2.2214852370434946e-09).transl(-4.9220158080157796e-08, -3.982371292625009e-08, 0))
hIsland = hIsland.sub(rect(8.923534241049015e-09, -5.013733023288012e-10).transl(5.190654279231663e-09, -4e-08, 0))
hIsland = hIsland.sub(rect(8.566897182689654e-09, -2.2897082960129686e-09).transl(-3.848347261883892e-08, 4e-08, 0))
hIsland = hIsland.sub(rect(9.065881232883444e-09, -7.060612842748099e-11).transl(6.079173910318779e-09, 4e-08, 0))
hIsland = hIsland.add(rect(5.9074375562518626e-09, 2.8822522524096945e-09).transl(6.281973594387443e-08, 3.673012164103741e-08, 0))
hIsland = hIsland.sub(rect(5.040017357503411e-09, -1.2930442777121913e-09).transl(-4.9505275019817445e-08, 3.979902595242904e-08, 0))
hIsland = hIsland.sub(rect(7.764486381989177e-09, -2.3130989718267354e-10).transl(-3.285114118822512e-08, 4e-08, 0))
hIsland = hIsland.add(rect(5.690623116396002e-09, 2.2093621877455903e-09).transl(-3.185862098939081e-08, 4e-08, 0))
hIsland = hIsland.add(rect(7.442599679799096e-09, 1.3149627761959687e-10).transl(6.555679412733275e-08, 3.55824144687005e-08, 0))
hIsland = hIsland.add(rect(3.949678757149787e-09, 8.828160443408031e-10).transl(4.209848900111844e-09, 4e-08, 0))
hIsland = hIsland.sub(rect(5.682677355055942e-09, -1.1273621350860245e-09).transl(-7.593302924873421e-08, 2.9051136884280427e-08, 0))
hIsland = hIsland.add(rect(4.41550485118866e-09, 2.5064542950282457e-09).transl(-4.4237944457536e-08, 4e-08, 0))
hIsland = hIsland.add(rect(5.198222196982413e-09, 4.014620844098234e-09).transl(1.7019081434320357e-08, 4e-08, 0))
hIsland = hIsland.add(rect(4.6312553408304355e-09, 4.242995770091759e-10).transl(8.490029509731968e-08, 1.849586302539756e-08, 0))
hIsland = hIsland.sub(rect(9.86005379052304e-09, -7.185943223074687e-10).transl(-8.011699564595439e-08, 2.5012338554048434e-08, 0))
hIsland = hIsland.add(rect(6.747932167709178e-09, 9.870228452995212e-11).transl(5.297493007313798e-08, 3.936684563904307e-08, 0))
hIsland = hIsland.sub(rect(3.826976341575269e-09, -4.922656780671585e-09).transl(-8.933186188496087e-08, 6.867264803161787e-09, 0))
hIsland = hIsland.add(rect(7.0621243183980426e-09, 2.7011623782673627e-10).transl(-1.420089936125451e-08, 4e-08, 0))
hIsland = hIsland.add(rect(8.789047723165869e-09, 9.140312491103953e-10).transl(-8.954492836605617e-08, 5.674242038061902e-09, 0))
hIsland = hIsland.add(rect(8.865626616984354e-09, 8.660959125856776e-10).transl(-2.6357740092162902e-08, 4e-08, 0))
hIsland = hIsland.sub(rect(2.7495049517144894e-09, -1.8088216760500587e-09).transl(2.953899333506732e-08, 4e-08, 0))
hIsland = hIsland.sub(rect(2.3797869899757125e-09, -2.9447639065412703e-09).transl(-3.656518700543696e-08, 4e-08, 0))
hIsland = hIsland.sub(rect(8.461367819403019e-09, -4.608572348041931e-09).transl(5.388897155820108e-08, 3.9211851920963885e-08, 0))
hIsland = hIsland.sub(rect(3.301750739016927e-09, -3.268530369157731e-10).transl(1.7316461563590748e-08, 4e-08, 0))
hIsland = hIsland.sub(rect(7.565706458667926e-09, -2.4492008515801e-09).transl(4.012106890451888e-08, 4e-08, 0))
hIsland = hIsland.sub(rect(2.0014516545328522e-09, -2.0913951741978657e-09).transl(-2.1583357389551445e-08, 4e-08, 0))
hIsland = hIsland.add(rect(3.1287436380576523e-09, 2.1825017694737176e-09).transl(-6.939801458586254e-08, 3.3610543722144754e-08, 0))
hIsland = hIsland.add(rect(9.251862419439002e-09, 3.1896159845194414e-09).transl(-4.715155853157491e-09, 4e-08, 0))
hIsland = hIsland.sub(rect(3.3142896172144777e-09, -2.1644235766949428e-10).transl(-8.239583377068604e-08, 2.2249789418366506e-08, 0))
hIsland = hIsland.add(rect(8.014018700564664e-09, 3.925813251069216e-09).transl(1.1130159675455348e-08, 4e-08, 0))
hIsland = hIsland.add(rect(5.015365784109143e-09, 1.1402457643799656e-09).transl(6.358323758963486e-08, 3.6429951380423166e-08, 0))
hIsland = hIsland.add(rect(6.758858215454868e-09, 2.690663127474362e-09).transl(-7.371221152656972e-08, 3.079982567535746e-08, 0))
[...]
hIsland = hIsland.add(rect(8.902548296037532e-09, 8.469044773222389e-10).transl(4.422641917334291e-08, 4e-08, 0))
hIsland = hIsland.sub(rect(9.603780125798722e-09, -1.1329224538970468e-09).transl(7.822095546081646e-08, 2.698137436425467e-08, 0))
hIsland = hIsland.add(rect(5.65040443400377e-09, 1.5640336688885258e-10).transl(-3.964391802210222e-08, 4e-08, 0))
hIsland = hIsland.add(rect(7.284227141410918e-09, 2.3450155479939754e-09).transl(-1.496162769413836e-08, 4e-08, 0))
hIsland = hIsland.add(rect(2.9774982755458147e-09, 2.1190396422032847e-09).transl(5.705893338744354e-08, 3.8537020206110674e-08, 0))
hIsland = hIsland.add(rect(9.264231425108537e-09, 9.643135252726774e-10).transl(7.124151888122663e-08, 3.249472738912898e-08, 0))
hIsland = hIsland.add(rect(4.521829595679506e-09, 1.9980607095583237e-09).transl(-7.858432725148791e-08, 2.6623564619317725e-08, 0))
hIsland = hIsland.add(rect(6.000659398049265e-09, 1.6084731833551701e-09).transl(-5.037570870813231e-08, 3.971355964233044e-08, 0))
hIsland = hIsland.sub(rect(3.3683446181102785e-09, -2.342860927232187e-09).transl(-7.258942947103133e-08, 3.1600261057999495e-08, 0))
hIsland = hIsland.add(rect(5.555103584381435e-09, 1.17454478872337e-09).transl(-3.518666993959308e-10, 4e-08, 0))
hIsland = hIsland.sub(rect(9.33263530646568e-09, -1.0593256336773314e-09).transl(-6.785244782236974e-08, 3.445824100496487e-08, 0))
hIsland = hIsland.sub(rect(6.298370731218747e-09, -1.1593975382193508e-09).transl(6.449816253174048e-08, 3.605013417633859e-08, 0))
hIsland = hIsland.sub(rect(8.087463750241057e-09, -1.0474415824382198e-09).transl(-4.368454382562457e-08, 4e-08, 0))
hIsland = hIsland.sub(rect(6.1999689779651684e-09, -9.092477608340745e-10).transl(-6.557701427646052e-08, 3.5573178782121266e-08, 0))
hIsland = hIsland.sub(rect(5.138156322653351e-09, -3.4947795477789506e-09).transl(2.2369255988177824e-08, 4e-08, 0))
hIsland = hIsland.sub(rect(8.730441321550146e-09, -6.882795665535275e-10).transl(-3.593240658047116e-08, 4e-08, 0))
hIsland = hIsland.sub(rect(4.33347530481178e-09, -2.6748787223466694e-10).transl(-4.358770409624981e-08, 4e-08, 0))
hIsland = hIsland.add(rect(7.580388524320166e-09, 6.983452827984943e-10).transl(-4.3023176971067526e-08, 4e-08, 0))
hIsland = hIsland.sub(rect(7.3732652468119535e-09, -1.431150954639385e-09).transl(7.571510414035986e-08, 2.9233261997758802e-08, 0))
hIsland = hIsland.add(rect(6.0437562830539274e-09, 5.00159026634574e-11).transl(-5.239794779807357e-08, 3.945575793560641e-08, 0))
hIsland = hIsland.add(rect(9.096221505229808e-09, 7.533974580531016e-10).transl(4.994477645959634e-08, 3.975777707738462e-08, 0))
hIsland = hIsland.add(rect(6.309524065969026e-09, 2.177276100759254e-09).transl(-8.541231451354927e-09, 4e-08, 0))
hIsland = hIsland.add(rect(5.371400386631308e-09, 3.3248121252307363e-10).transl(6.850526156478625e-08, 3.410951343369244e-08, 0))
hIsland = hIsland.sub(rect(6.225266303192895e-09, -1.0032181485949173e-09).transl(-6.08935732340144e-08, 3.7422056794092224e-08, 0))
hIsland = hIsland.add(rect(9.510102832781489e-09, 1.0995394117102151e-09).transl(1.4790284199550666e-08, 4e-08, 0))
hIsland = hIsland.add(rect(6.030653479901049e-09, 2.2658992953818692e-09).transl(8.475940022447527e-08, 1.8734060221353023e-08, 0))
hIsland = hIsland.add(rect(4.1371024344206765e-09, 1.7061883304931596e-09).transl(4.314470154265905e-08, 4e-08, 0))
hIsland = hIsland.add(rect(4.857730649863157e-09, 3.6973133505321457e-09).transl(-3.098685190428004e-08, 4e-08, 0))
hIsland = hIsland.add(rect(9.181547465303675e-09, 3.763691652964684e-09).transl(8.089850519173511e-08, 2.4119821468110114e-08, 0))
hIsland = hIsland.sub(rect(5.4903151612498625e-09, -2.4356381930034672e-09).transl(1.0718650854244314e-08, 4e-08, 0))
hIsland = hIsland.sub(rect(4.337052673192309e-09, -1.330370607123687e-09).transl(-4.305013976694002e-08, 4e-08, 0))
hIsland = hIsland.add(rect(4.890543451678885e-09, 7.993180892586898e-10).transl(-7.679183437357101e-08, 2.830911232662942e-08, 0))
hIsland = hIsland.add(rect(7.284463248194864e-09, 2.4121234222104136e-09).transl(7.7255023696682e-08, 2.7892045099158974e-08, 0))
hIsland = hIsland.add(rect(7.721947709298583e-09, 1.263962049312147e-09).transl(-1.8905415558074718e-08, 4e-08, 0))
hIsland = hIsland.add(rect(7.631134783433413e-09, 1.2066256948843667e-09).transl(-5.3053745293034854e-08, 3.935416585041112e-08, 0))
hIsland = hIsland.sub(rect(7.811334884752292e-09, -2.0221118243740206e-10).transl(-2.9883166744737106e-08, 4e-08, 0))
hIsland = hIsland.add(rect(7.508683305552396e-09, 4.4134744029166426e-11).transl(-5.2978840918388415e-08, 3.936621949856408e-08, 0))
hIsland = hIsland.sub(rect(4.588452527974609e-09, -8.384850423968052e-10).transl(1.7887102394109587e-08, 4e-08, 0))
hIsland = hIsland.sub(rect(8.006286740500127e-09, -2.3105720092318415e-09).transl(-1.717840579069943e-08, 4e-08, 0))
hIsland = hIsland.sub(rect(8.146125179934426e-09, -1.4004251590724415e-09).transl(7.317204230598719e-08, 3.119146489536441e-08, 0))
hIsland = hIsland.add(rect(5.658193487989592e-09, 5.394484714842551e-10).transl(2.6567278988926548e-08, 4e-08, 0))
hIsland = hIsland.sub(rect(2.430787679511145e-09, -4.822530636982195e-09).transl(2.109229385109323e-08, 4e-08, 0))
hIsland = hIsland.add(rect(2.7396691841354175e-09, 2.519961933912285e-09).transl(7.063790176891696e-08, 3.287324544344654e-08, 0))
hIsland = hIsland.add(rect(9.87634765555903e-09, 1.9701336702248952e-09).transl(-1.6014964644700457e-08, 4e-08, 0))
hIsland = hIsland.sub(rect(3.4411111798664982e-09, -5.302923285121784e-10).transl(-6.183146608733409e-08, 3.709662258069535e-08, 0))
hIsland = hIsland.add(rect(5.305678280543643e-09, 5.977296354020855e-11).transl(7.736346173931686e-08, 2.779261959760193e-08, 0))
hIsland = hIsland.sub(rect(6.029622347827365e-09, -3.306214657770978e-10).transl(-6.111153557787988e-08, 3.734834006668118e-08, 0))
hIsland = hIsland.sub(rect(8.797811549463657e-09, -1.015182792975262e-09).transl(7.54733371359467e-08, 2.9432502048395174e-08, 0))
hIsland = hIsland.sub(rect(6.004157649755652e-09, -6.572576021976824e-10).transl(8.119860428494575e-08, 2.376279565914536e-08, 0))
hIsland = hIsland.add(rect(9.553786676512687e-09, 9.327935911268164e-10).transl(-5.907113216727846e-09, 4e-08, 0))
hIsland = hIsland.sub(rect(2.775226878911897e-09, -4.652423840274068e-09).transl(5.239909944172856e-08, 3.9455587308240044e-08, 0))
hIsland = hIsland.add(rect(5.278988817543631e-09, 3.2637885017982335e-09).transl(1.1487015841248867e-08, 4e-08, 0))
hIsland = hIsland.sub(rect(4.5795048453651735e-09, -2.0352653715011905e-09).transl(6.623571728574544e-08, 3.5265979816708734e-08, 0))
hIsland = hIsland.sub(rect(2.539035586329484e-09, -4.927616924427116e-09).transl(-5.218829363119803e-08, 3.948636580118547e-08, 0))
hIsland = hIsland.add(rect(5.903820359345342e-09, 1.3709594383017188e-09).transl(2.6080580863400978e-09, 4e-08, 0))
hIsland = hIsland.add(rect(3.865936906690896e-09, 1.1376505211532847e-09).transl(-8.346281705349828e-08, 2.076296235785912e-08, 0))
hIsland = hIsland.add(rect(4.016297899882954e-09, 1.0846244835321731e-10).transl(-3.7179623500311765e-08, 4e-08, 0))
hIsland = hIsland.add(rect(6.372401759012195e-09, 4.138156298433138e-12).transl(5.7689556619088215e-08, 3.837669202927592e-08, 0))
hIsland = hIsland.sub(rect(7.927485751486598e-09, -3.8758054767593814e-10).transl(4.8248573422885074e-08, 3.989563442280278e-08, 0))
hIsland = hIsland.sub(rect(4.6292628155485535e-09, -6.3851582312616614e-09).transl(1.0563519641909642e-08, 4e-08, 0))
hIsland = hIsland.sub(rect(7.339626717631672e-09, -2.181067717453018e-09).transl(5.6046959284108756e-08, 3.8775985344886585e-08, 0))
hIsland = hIsland.sub(rect(9.471234448049019e-09, -3.4177724151598787e-09).transl(2.630134794560571e-08, 4e-08, 0))
hIsland = hIsland.sub(rect(4.39112303336039e-09, -1.9093929236992786e-10).transl(-1.5906016343762606e-08, 4e-08, 0))
hIsland = hIsland.add(rect(8.853677478791585e-09, 1.0250940894692512e-10).transl(-1.4051604947750874e-08, 4e-08, 0))
hIsland = hIsland.sub(rect(8.47533826033738e-09, -1.6130262951877763e-09).transl(2.0871553294322002e-09, 4e-08, 0))
hIsland = hIsland.sub(rect(3.800371128383034e-09, -2.013137824620217e-09).transl(-5.7022414425881164e-08, 3.854603457336761e-08, 0))
hIsland = hIsland.add(rect(6.061374397976512e-09, 5.540155154363463e-10).transl(-8.034892999046609e-08, 2.4752852811234098e-08, 0))
hIsland = hIsland.sub(rect(8.183997165637124e-09, -7.840477526314615e-10).transl(8.303678450610982e-08, 2.137409114778194e-08, 0))
hIsland = hIsland.sub(rect(3.753337153413352e-09, -5.052323566759577e-10).transl(1.1418905381734513e-08, 4e-08, 0))
hIsland = hIsland.add(rect(9.014646151882212e-09, 2.005945700778917e-09).transl(-5.974512043524214e-08, 3.779169859436164e-08, 0))
hIsland = hIsland.add(rect(2.0748926298131833e-09, 2.2825225342235685e-09).transl(-2.6728602800213412e-08, 4e-08, 0))
hIsland = hIsland.add(rect(6.902456770386793e-09, 2.293028239455628e-09).transl(6.289039838348995e-08, 3.670297080240897e-08, 0))
hIsland = hIsland.sub(rect(6.031913171123607e-09, -4.376973053554228e-09).transl(-4.166485994041985e-09, 4e-08, 0))
hIsland = hIsland.sub(rect(8.381313459169814e-09, -3.840452760456295e-09).transl(-8.894028738806573e-08, 8.62960253456364e-09, 0))
hIsland = hIsland.sub(rect(8.158584517021139e-09, -3.849645517353957e-09).transl(3.528010158197334e-08, 4e-08, 0))
hIsland = hIsland.sub(rect(7.01514946547463e-09, -1.1855246934243047e-09).transl(7.571858992691192e-08, 2.9230367877324674e-08, 0))
hIsland = hIsland.add(rect(7.953190690516336e-09, 3.837704148711562e-09).transl(8.232827327760902e-08, 2.2339247669941256e-08, 0))
hIsland = hIsland.add(rect(7.50972918701382e-09, 1.9769407616235434e-09).transl(1.8015245380265722e-08, 4e-08, 0))
hIsland = hIsland.add(rect(5.142528596218519e-09, 1.5539214025309725e-09).transl(5.567153485122817e-08, 3.885896849161483e-08, 0))
hIsland = hIsland.sub(rect(9.613665697868261e-09, -9.240763550330968e-10).transl(6.828554820536489e-08, 3.422837745252607e-08, 0))
hIsland = hIsland.sub(rect(6.739194326865047e-09, -1.921986218053381e-09).transl(-5.9239058616040806e-08, 3.7944720907184334e-08, 0))
hIsland = hIsland.add(rect(7.87255722493197e-09, 1.4832373242615702e-09).transl(8.926956338630548e-09, 4e-08, 0))
hIsland = hIsland.add(rect(9.641499432932365e-09, 2.9200475134330344e-09).transl(7.036845631485128e-08, 3.3037997418777473e-08, 0))
hIsland = hIsland.add(rect(6.232541940543045e-09, 1.6729665816644122e-09).transl(-7.571165032463787e-08, 2.9236128967548827e-08, 0))
hIsland = hIsland.add(rect(6.27821721850377e-09, 1.471811350095087e-09).transl(1.622468319140482e-08, 4e-08, 0))
hIsland = hIsland.add(rect(9.012629419043976e-09, 1.5854343465073235e-10).transl(8.566490279906982e-08, 1.7129644919997574e-08, 0))
hIsland = hIsland.sub(rect(2.903480546799789e-09, -4.360664839348048e-09).transl(2.859943114960581e-08, 4e-08, 0))
hIsland = hIsland.add(rect(3.3144482209027777e-09, 6.732792661078188e-10).transl(-7.341900981850544e-09, 4e-08, 0))
hIsland = hIsland.sub(rect(8.955355547181584e-09, -4.99491328757175e-10).transl(7.511711692049275e-08, 2.9720798133574535e-08, 0))
hIsland = hIsland.sub(rect(6.200530359811239e-09, -3.262055473933413e-09).transl(5.1121876450461677e-08, 3.962812448068939e-08, 0))
hIsland = hIsland.add(rect(6.911474571688995e-09, 1.6874570248815347e-09).transl(3.475320890746034e-08, 4e-08, 0))
hIsland = hIsland.add(rect(8.290358782389499e-09, 1.3730873335481019e-09).transl(1.235011881799726e-08, 4e-08, 0))
hIsland = hIsland.add(rect(3.176698047840066e-09, 3.8180245850365577e-10).transl(-4.012868135160904e-08, 4e-08, 0))
hIsland = hIsland.add(rect(4.525021488967259e-09, 5.54865586652986e-11).transl(-6.713134350874901e-08, 3.482815531385672e-08, 0))
hIsland = hIsland.add(rect(6.678832615453701e-09, 2.820231948147916e-09).transl(7.814824975752996e-08, 2.7051935973439024e-08, 0))
hIsland = hIsland.add(rect(8.755894458722573e-09, 1.6804939690213452e-10).transl(4.302678061681209e-09, 4e-08, 0))
hIsland = hIsland.sub(rect(7.295424270312556e-09, -4.924921142843607e-10).transl(-3.081335005064786e-08, 4e-08, 0))
hIsland = hIsland.sub(rect(3.403946277498311e-09, -1.219938454978975e-09).transl(8.370047186617555e-08, 2.041105442121891e-08, 0))
hIsland = hIsland.add(rect(2.752550506735184e-09, 4.3739149501191907e-10).transl(-1.3999897293477001e-08, 4e-08, 0))
hIsland = hIsland.sub(rect(5.053260842144825e-09, -8.220119535854739e-10).transl(-2.6280295840627558e-09, 4e-08, 0))
hIsland = hIsland.sub(rect(9.382762947487543e-09, -3.051347298353355e-10).transl(5.663260062737431e-08, 3.864042637235313e-08, 0))
hIsland = hIsland.sub(rect(7.5759823781561e-09, -1.1940924832787868e-09).transl(-8.517272388824036e-08, 1.8023901944447935e-08, 0))
hIsland = hIsland.add(rect(5.8276661811781136e-09, 1.1485164463321318e-09).transl(-6.34002281531212e-08, 3.650327613412145e-08, 0))
hIsland = hIsland.add(rect(4.3609710125471685e-09, 6.224480198530792e-10).transl(1.747515263627725e-08, 4e-08, 0))
hIsland = hIsland.sub(rect(7.430823365354604e-09, -2.0054645971371494e-11).transl(7.978043609230696e-08, 2.5381183118152642e-08, 0))
hIsland = hIsland.sub(rect(2.518595505071736e-09, -1.7347912113937108e-09).transl(-2.8356647329781753e-08, 4e-08, 0))
hIsland = hIsland.add(rect(8.76139427901757e-09, 1.6105226092766413e-09).transl(-6.658141687106161e-08, 3.509977252460447e-08, 0))
hIsland = hIsland.add(rect(6.350217079840078e-09, 8.572580016458998e-10).transl(-1.0750831487964984e-08, 4e-08, 0))
hIsland = hIsland.add(rect(2.5954379866635437e-09, 1.982036203749771e-09).transl(8.845009535565587e-08, 1.0407564716395266e-08, 0))
hIsland = hIsland.add(rect(4.639378553682498e-09, 9.816322789713263e-10).transl(3.020908659731871e-08, 4e-08, 0))
hIsland = hIsland.add(rect(4.478415790904292e-09, 4.190087261535251e-09).transl(2.3496047655823345e-08, 4e-08, 0))
hIsland = hIsland.sub(rect(8.957905032552586e-09, -1.1968998763936616e-09).transl(-8.255208035666905e-08, 2.2040882523816028e-08, 0))
hIsland = hIsland.add(rect(6.47276022437344e-09, 8.392956007133924e-10).transl(6.475047017155774e-08, 3.5941449539005325e-08, 0))
hIsland = hIsland.sub(rect(5.976665444202554e-09, -4.045703023431675e-09).transl(4.763625327299857e-08, 3.993130069574257e-08, 0))
hIsland = hIsland.sub(rect(8.732507894891061e-09, -2.292734886097116e-09).transl(-3.865826731798667e-08, 4e-08, 0))
hIsland = hIsland.add(rect(5.847244231274725e-09, 9.047860700822114e-10).transl(-4.9205107578150564e-08, 3.98249708402233e-08, 0))
hIsland = hIsland.add(rect(7.771402029638511e-09, 1.6154587021802997e-09).transl(-3.960290495359859e-08, 4e-08, 0))
hIsland = hIsland.sub(rect(4.874574078080537e-09, -2.2609662338559134e-09).transl(9.13542064599747e-09, 4e-08, 0))
hIsland = hIsland.add(rect(9.108948253237072e-09, 3.4031608824879295e-11).transl(1.7195683015213088e-08, 4e-08, 0))
hIsland = hIsland.add(rect(4.748402401225828e-09, 2.8285570678646258e-09).transl(-3.740087879049579e-09, 4e-08, 0))
hIsland = hIsland.add(rect(9.82538635006013e-09, 1.4630138066846411e-10).transl(7.740987187929943e-08, 2.774985554519478e-08, 0))
hIsland = hIsland.sub(rect(4.3530743460190526e-09, -1.7928912563116377e-09).transl(2.147008524261608e-08, 4e-08, 0))
hIsland = hIsland.add(rect(7.925511213240606e-09, 1.5593599181674359e-09).transl(-6.831540028550214e-08, 3.4212317291305107e-08, 0))
hIsland = hIsland.add(rect(4.492503964055423e-09, 5.299769593316124e-09).transl(5.317902735543858e-08, 3.9333745248504645e-08, 0))
hIsland = hIsland.sub(rect(7.422666026454097e-09, -4.75676040322808e-10).transl(3.696527302402373e-08, 4e-08, 0))
hIsland = hIsland.add(rect(3.4659405925819194e-09, 9.293645248438156e-10).transl(-6.343185105938435e-08, 3.6490668426220056e-08, 0))
hIsland = hIsland.add(rect(4.899086819098161e-09, 2.427846701011677e-09).transl(3.8400998822492226e-08, 4e-08, 0))
hIsland = hIsland.add(rect(5.3329244410226506e-09, 1.659203680095547e-09).transl(3.78770026127111e-08, 4e-08, 0))
hIsland = hIsland.add(rect(7.884662644495565e-09, 5.032542071235537e-09).transl(3.579194447427523e-08, 4e-08, 0))
hIsland = hIsland.sub(rect(7.454343325710225e-09, -1.9376761031861362e-09).transl(-2.742698673825282e-08, 4e-08, 0))
hIsland = hIsland.sub(rect(8.721675993635439e-09, -2.5678062236460356e-10).transl(9.294281446166324e-09, 4e-08, 0))
hIsland = hIsland.sub(rect(2.7537835079511854e-09, -3.9133811082815684e-09).transl(-6.143794410699758e-08, 3.7235787840820515e-08, 0))
hIsland = hIsland.sub(rect(9.079457487927143e-09, -2.1771460998861523e-10).transl(-4.998855845106008e-08, 3.975345535306254e-08, 0))
hIsland = hIsland.add(rect(3.400732678359807e-09, 3.173190696010036e-09).transl(-2.797721908499768e-08, 4e-08, 0))
hIsland = hIsland.add(rect(3.81472697931538e-09, 1.391703734784416e-09).transl(8.506023806223068e-08, 1.8220646574640268e-08, 0))
hIsland = hIsland.add(rect(8.20989256746714e-09, 7.491931435227351e-10).transl(-1.7999391760849717e-08, 4e-08, 0))
hIsland = hIsland.sub(rect(2.1244427362757297e-09, -1.0836254381533957e-09).transl(-8.088829282258503e-08, 2.4131826239504626e-08, 0))
hIsland = hIsland.sub(rect(5.541168752764204e-09, -5.347922528987519e-09).transl(4.349772962450739e-08, 4e-08, 0))
hIsland = hIsland.add(rect(8.580629139264869e-09, 4.5347003247062255e-10).transl(3.402560742436284e-08, 4e-08, 0))
hIsland = hIsland.sub(rect(8.450533307680563e-09, -2.8528931422264774e-09).transl(-2.4908617088652773e-08, 4e-08, 0))
hIsland = hIsland.sub(rect(5.707787411367922e-09, -1.1565015250723944e-09).transl(4.364813485680136e-08, 4e-08, 0))
hIsland = hIsland.add(rect(8.9399894753897e-09, 2.1182224709547345e-09).transl(-1.3810765037236652e-08, 4e-08, 0))
hIsland = hIsland.sub(rect(3.1990611788330183e-09, -1.3959015779436026e-09).transl(8.010008423586611e-09, 4e-08, 0))
hIsland = hIsland.add(rect(8.287953788742761e-09, 1.4806111836940122e-09).transl(-2.346399164010265e-08, 4e-08, 0))
hIsland = hIsland.add(rect(4.960172158771092e-09, 2.0283613761697573e-09).transl(-4.493592416894445e-08, 4e-08, 0))
hIsland = hIsland.sub(rect(2.235982364523216e-09, -5.734406600605238e-09).transl(-8.003513793683003e-08, 2.510287549901106e-08, 0))
hIsland = hIsland.sub(rect(8.146486385642285e-09, -3.761913740547513e-09).transl(-1.584909835750268e-10, 4e-08, 0))
hIsland = hIsland.add(rect(5.788872054993703e-09, 2.944785794150927e-09).transl(7.033872084268578e-08, 3.305602249298819e-08, 0))
hIsland = hIsland.sub(rect(2.279411169877161e-09, -1.729611953292216e-10).transl(8.812747286809598e-08, 1.1418713996879646e-08, 0))
hIsland = hIsland.sub(rect(8.552888231918674e-09, -3.2861963278802182e-09).transl(-7.037011129809996e-08, 3.3036993289455425e-08, 0))
hIsland = hIsland.sub(rect(4.7750912151668204e-09, -6.565039107465672e-10).transl(-8.921487082826818e-08, 7.439378582282086e-09, 0))
hIsland = hIsland.sub(rect(8.990599850670211e-09, -2.3089249725024843e-09).transl(-4.534280868857614e-09, 4e-08, 0))
hIsland = hIsland.sub(rect(7.2595048268930135e-09, -1.216665789221045e-09).transl(8.825687268761082e-08, 1.1025195487430753e-08, 0))
hIsland = hIsland.add(rect(4.542660016797437e-09, 6.674308215872679e-10).transl(-2.6882797764279424e-08, 4e-08, 0))
vIsland = hIsland.rotz(pi / 2)
vIslands = vIslands.add(vIsland.transl(0, -a/2, 0))
DefRegion(1, hIslands)
DefRegion(2, vIslands)
TableAdd(m_full.Region(1))
TableAdd(m_full.Region(2))
setgeom(hIslands.add(vIslands))
save(geom)
r2o2 := sqrt(2) / 2
m = RandomMagSeed(4)
B_ext = vector(Bmax*r2o2, Bmax*r2o2, 0)
relax()
minimize()
for B := Bmax; B >= -Bmax; B -= Bstep {
	B_ext = vector(B*r2o2, B*r2o2, 0)
	minimize()
	tablesave()
}
//********************************************************************//
//Please cite the following references, relevant for your simulation. //
//See bibtex file in output folder for justification.                 //
//********************************************************************//
//   * Vansteenkiste et al., AIP Adv. 4, 107133 (2014).
//   * Exl et al., J. Appl. Phys. 115, 17D118 (2014).
