# t (s)	mx ()	my ()	mz ()	B_extx (T)	B_exty (T)	B_extz (T)	m_fullx (A/m)	m_fully (A/m)	m_fullz (A/m)	m_full.region1x (A/m)	m_full.region1y (A/m)	m_full.region1z (A/m)	m_full.region2x (A/m)	m_full.region2y (A/m)	m_full.region2z (A/m)
0	0.64154214	0.6415395	2.0668825e-10	0.07071067	0.07071067	0	167167.56	167166.88	4.830995e-05	652672.44	245484.02	0.00022957785	245486.62	652671.3	3.5121986e-05
0	0.6412844	0.64128226	3.5945785e-11	0.070357196	0.070357196	0	167100.39	167099.84	1.2117347e-05	652880.6	244915.39	6.85307e-05	244917.45	652879.8	-1.9702577e-05
0	0.6410225	0.6410205	-3.112578e-10	0.07000352	0.07000352	0	167032.16	167031.62	-7.461735e-05	653092.1	244337.4	-5.653783e-05	244339.42	653091.25	-0.00035464638
0	0.6407591	0.640757	-2.7286118e-10	0.069650054	0.069650054	0	166963.52	166962.98	-6.855867e-05	653303.8	243756.94	-0.0002587034	243758.94	653302.9	-0.00010536595
0	0.64049417	0.6404921	-1.9361707e-10	0.0692964	0.0692964	0	166894.47	166893.92	-4.448342e-05	653515.8	243173.89	-0.00010279605	243175.92	653515	-0.00017047011
0	0.6402276	0.6402256	-2.0178656e-10	0.06894299	0.06894299	0	166825.02	166824.5	-4.655612e-05	653728	242588.58	-0.00015590734	242590.62	653727.2	-0.00010236773
0	0.63996005	0.63995796	-1.2172549e-10	0.06858932	0.06858932	0	166755.3	166754.77	-2.8061224e-05	653940.4	242001.6	-4.4544955e-05	242003.66	653939.56	-9.251645e-05
0	0.6396908	0.63968873	-2.6959338e-11	0.06823584	0.06823584	0	166685.12	166684.6	-1.3711735e-05	654153.06	241411.95	8.737665e-05	241414	654152.2	-0.00013620478
0	0.63942	0.6394178	-1.070204e-10	0.067882195	0.06788219	0	166614.56	166614.03	-2.2799744e-05	654365.94	240819.94	-1.0279606e-05	240822	654365.06	-0.00011864378
0	0.6391477	0.6391456	-2.5570523e-10	0.067528725	0.067528725	0	166543.62	166543.08	-7.2385206e-05	654579.1	240225.6	-0.00033580043	240227.66	654578.3	-5.910773e-05
0	0.638874	0.6388719	-3.0063746e-10	0.06717506	0.06717506	0	166472.31	166471.75	-8.0516584e-05	654792.3	239629.14	-0.00019873903	239631.19	654791.56	-0.00022101152
0	0.63859755	0.6385955	-2.6469169e-10	0.066821575	0.066821575	0	166400.3	166399.73	-6.839923e-05	655006.5	239028.12	-0.00018331963	239030.2	655005.6	-0.00021158854
0	0.6383221	0.63832	-3.390341e-10	0.06646809	0.06646809	0	166328.48	166327.94	-8.6894135e-05	655219.6	238429.19	-0.0001953125	238431.27	655218.75	-0.00031095807
0	0.6380438	0.63804173	-3.8886802e-10	0.06611443	0.06611443	0	166255.98	166255.44	-9.9808676e-05	655433.44	237825.77	-0.0003700658	237827.84	655432.6	-0.00020901865
0	0.6377642	0.63776207	-2.3119674e-10	0.06576097	0.06576097	0	166183.12	166182.58	-5.723852e-05	655647.56	237220.27	-0.00027240955	237222.34	655646.7	-4.7543173e-05
0	0.63748264	0.6374806	-2.8103067e-10	0.06540731	0.06540731	0	166109.8	166109.25	-7.52551e-05	655861.9	236611.8	-0.00014391447	236613.89	655861.2	-0.00025956004
0	0.63719994	0.63719785	-2.124069e-10	0.0650539	0.0650539	0	166036.1	166035.55	-5.086097e-05	656076.4	236001.34	-7.5383774e-05	236003.48	656075.6	-0.0002004523
0	0.6369158	0.6369138	-7.3525463e-11	0.064700246	0.064700246	0	165962.08	165961.53	-2.072704e-05	656290.8	235389.31	-4.4544955e-05	235391.4	656290	-8.138021e-05
0	0.63663	0.6366279	-3.9295278e-10	0.06434675	0.06434676	0	165887.58	165887.03	-0.000103635204	656505.6	234774.28	-0.00020730538	234776.36	656504.75	-0.00037349234
0	0.6363407	0.6363387	-4.4442058e-10	0.063993126	0.063993126	0	165812.22	165811.69	-0.00011670918	656721.56	234153.4	-0.00029125548	234155.52	656720.8	-0.0003323739
0	0.6360533	0.6360512	-2.532544e-10	0.06363964	0.06363964	0	165737.3	165736.77	-6.552933e-05	656936	233536.39	-0.00025185032	233538.5	656935.2	-0.000109649125
0	0.6357611	0.635759	5.0650876e-11	0.063285984	0.063285984	0	165661.19	165660.64	1.5943877e-05	657152.2	232911.27	-8.566338e-06	232913.38	657151.4	8.8233275e-05
0	0.63547015	0.635468	5.1467827e-11	0.06293249	0.06293249	0	165585.38	165584.81	1.2117347e-05	657367	232289.03	0.00010450932	232291.19	657366.2	-3.169545e-05
0	0.63517684	0.6351747	-3.5619005e-10	0.062579	0.062579	0	165508.94	165508.38	-9.375e-05	657582.44	231662.97	-0.00029810856	231665.11	657581.6	-0.00023771587
0	0.6348814	0.6348793	-3.9213582e-10	0.062225346	0.062225346	0	165431.94	165431.39	-9.821429e-05	657798.3	231033.45	-0.00025527686	231035.61	657797.44	-0.00028697232
0	0.63458437	0.6345823	-1.086543e-10	0.061871883	0.061871875	0	165354.55	165354	-2.5191326e-05	658014.25	230401.73	-3.426535e-05	230403.88	658013.44	-0.00010879249
0	0.63428545	0.63428336	-3.7988157e-10	0.061518237	0.06151823	0	165276.67	165276.12	-9.614158e-05	658230.56	229766.94	-0.00031352797	229769.08	658229.75	-0.00023900082
0	0.6339854	0.6339832	-1.021187e-10	0.061164815	0.061164815	0	165198.47	165197.92	-2.8220664e-05	658446.7	229130.7	2.0559211e-05	229132.86	658445.9	-0.00019702577
0	0.63368267	0.6336806	-3.0390526e-10	0.060811166	0.060811166	0	165119.61	165119.06	-8.5459185e-05	658663.44	228490.25	-0.00030496164	228492.4	658662.56	-0.00014734101
0	0.6333785	0.6333764	3.5128834e-11	0.06045767	0.06045767	0	165040.36	165039.8	5.1020406e-06	658880.44	227847.39	7.8810306e-05	227849.56	658879.7	-2.3129112e-05
0	0.633074	0.6330719	-3.0390526e-10	0.06010405	0.06010405	0	164960.98	164960.42	-7.716837e-05	659096.75	227204.62	-0.00021587171	227206.81	659096	-0.00020302221
0	0.6327671	0.6327649	-2.6550862e-10	0.05975055	0.05975055	0	164881.02	164880.45	-7.8922196e-05	659313.56	226558.11	-0.00015419407	226560.28	659312.8	-0.00024499727
0	0.6324579	0.63245577	-2.7286118e-10	0.059396908	0.059396908	0	164800.47	164799.9	-7.047194e-05	659530.8	225908.11	-6.681743e-05	225910.28	659530.06	-0.00033922697
0	0.6321477	0.6321456	3.7579682e-11	0.05904341	0.05904341	0	164719.64	164719.08	1.307398e-05	659747.8	225256.77	8.566338e-06	225258.95	659747.06	5.653783e-05
0	0.6318357	0.63183355	9.394921e-11	0.0586899	0.0586899	0	164638.33	164637.77	2.4075254e-05	659965	224602.72	9.765625e-05	224604.94	659964.2	3.854852e-05
0	0.63152146	0.6315194	-1.9525095e-10	0.05833626	0.058336265	0	164556.45	164555.9	-5.2933672e-05	660182.56	223945.3	-8.737665e-05	223947.45	660181.8	-0.00019809656
0	0.63120574	0.63120353	-1.03752604e-10	0.05798278	0.05798278	0	164474.17	164473.61	-2.2959184e-05	660400.2	223285.64	1.3706141e-05	223287.8	660399.3	-0.00011821546
0	0.6308882	0.6308861	-1.4623398e-10	0.05762915	0.05762915	0	164391.45	164390.89	-3.7149235e-05	660617.9	222623.44	-0.0001747533	222625.62	660617.1	-2.1415844e-05
0	0.63056904	0.6305669	-1.5522043e-10	0.057275645	0.057275645	0	164308.27	164307.7	-4.448342e-05	660835.56	221958.83	-6.167763e-05	221961.03	660834.8	-0.00018696031
0	0.6302482	0.63024604	-1.9443401e-10	0.05692209	0.05692209	0	164224.64	164224.08	-5.0701532e-05	661053.44	221291.66	-0.00012849507	221293.86	661052.6	-0.00014391447
0	0.62992513	0.6299229	-8.087801e-11	0.056568585	0.056568585	0	164140.48	164139.92	-2.5510204e-05	661271.56	220621.31	-5.653783e-05	220623.53	661270.8	-7.024397e-05
0	0.62960064	0.62959844	-2.2629505e-10	0.056214973	0.056214973	0	164055.92	164055.36	-5.9151786e-05	661489.6	219949.03	-0.0001850329	219951.25	661488.8	-0.00013620478
0	0.62927413	0.629272	-9.885091e-11	0.05586147	0.05586147	0	163970.86	163970.3	-2.5031888e-05	661707.9	219273.62	-6.33909e-05	219275.84	661707.06	-7.281387e-05
0	0.62894577	0.6289436	-2.1975945e-10	0.055507842	0.055507842	0	163885.31	163884.75	-5.7716836e-05	661926.2	218595.7	-9.251645e-05	218597.94	661925.4	-0.00022615131
0	0.62861586	0.62861365	-3.9131887e-10	0.055154327	0.055154327	0	163799.31	163798.77	-0.00010028699	662144.44	217915.48	-0.00024671052	217917.7	662143.6	-0.00030838815
0	0.62828356	0.6282815	-2.352815e-10	0.054800812	0.054800812	0	163712.75	163712.2	-5.978954e-05	662363.06	217231.75	-0.00017132676	217233.97	662362.25	-0.0001422012
0	0.62794983	0.62794757	-3.2677985e-10	0.054447185	0.054447185	0	163625.77	163625.2	-7.924107e-05	662581.6	216545.81	-0.00018845942	216548.03	662580.75	-0.00025442024
0	0.62761426	0.62761205	-3.790646e-10	0.054093685	0.054093685	0	163538.34	163537.77	-9.119898e-05	662800.06	215857.58	-0.00029468202	215859.8	662799.25	-0.00025270696
0	0.6272762	0.627274	-2.173086e-10	0.05374007	0.05374007	0	163450.25	163449.67	-5.3890308e-05	663019.06	215165.33	-0.00014734101	215167.58	663018.2	-0.00016019051
0	0.62693673	0.6269345	-1.282611e-10	0.05338655	0.05338655	0	163361.8	163361.25	-3.4757653e-05	663237.7	214471.5	-0.000109649125	214473.73	663236.9	-6.0821e-05
0	0.62659556	0.6265934	-1.3071194e-11	0.05303302	0.053033024	0	163272.89	163272.31	-2.072704e-06	663456.3	213775.11	1.0279606e-05	213777.34	663455.6	-3.7906044e-05
0	0.6262518	0.6262497	-1.29895e-10	0.0526795	0.0526795	0	163183.34	163182.78	-3.252551e-05	663675.4	213074.9	-9.251645e-05	213077.17	663674.7	-0.00010022615
0	0.6259064	0.62590414	-4.411528e-11	0.052325882	0.052325882	0	163093.33	163092.75	-1.0841837e-05	663894.5	212372.2	7.709704e-05	212374.45	663893.75	-0.00012763843
0	0.62555885	0.6255567	-2.189425e-10	0.05197238	0.05197238	0	163002.78	163002.2	-5.8035715e-05	664113.6	211666.5	-0.0001901727	211668.77	664112.8	-0.00014862596
0	0.6252097	0.6252074	-9.231531e-11	0.051618766	0.051618766	0	162911.77	162911.19	-2.088648e-05	664332.6	210958.53	-3.0838815e-05	210960.78	664331.9	-7.709704e-05
0	0.6248571	0.6248549	9.803396e-12	0.05126524	0.05126524	0	162819.89	162819.33	1.9132654e-06	664552.4	210245.27	-8.566338e-05	210247.52	664551.5	8.908991e-05
0	0.62450516	0.6245031	-1.2335939e-10	0.05091171	0.050911706	0	162728.22	162727.64	-3.140944e-05	664770.75	209534.31	2.3985745e-05	209536.61	664769.94	-0.00019595497
0	0.6241497	0.6241475	-2.1322386e-10	0.050558105	0.050558105	0	162635.58	162635	-5.978954e-05	664990.06	208817.17	-4.797149e-05	208819.45	664989.25	-0.00028354579
0	0.6237921	0.62378997	8.087801e-11	0.05020459	0.05020459	0	162542.42	162541.84	1.945153e-05	665209.4	208097.42	6.8530703e-06	208099.69	665208.56	0.00010450932
0	0.6234328	0.62343055	-1.5031873e-10	0.049850978	0.049850978	0	162448.77	162448.2	-4.001913e-05	665428.6	207374.95	-6.33909e-05	207377.23	665427.8	-0.00016019051
0	0.6230715	0.62306935	-1.0783735e-10	0.049497455	0.049497455	0	162354.62	162354.06	-2.7104592e-05	665647.75	206650.08	-8.0523576e-05	206652.36	665646.94	-6.33909e-05
0	0.62270796	0.62270564	-1.9361707e-10	0.049143948	0.049143948	0	162259.89	162259.33	-5.0382652e-05	665866.94	205921.83	-0.00013277824	205924.1	665866.2	-0.00011221902
0	0.62234217	0.62234	-1.9770181e-10	0.048790418	0.048790418	0	162164.61	162164.05	-5.3252552e-05	666086.3	205190.55	-9.765625e-05	205192.84	666085.5	-0.00017560992
0	0.6219741	0.62197196	-1.4051534e-10	0.048436802	0.048436802	0	162068.7	162068.11	-3.8105867e-05	666305.8	204455.67	-0.000106222586	204457.98	666305	-9.3373084e-05
0	0.62160426	0.621602	-2.5325438e-11	0.04808329	0.04808329	0	161972.3	161971.73	-7.3341835e-06	666525.06	203718.6	-4.1118423e-05	203720.9	666524.25	1.0279606e-05
0	0.62123173	0.6212295	-1.5440348e-10	0.047729697	0.047729697	0	161875.25	161874.67	-3.8265305e-05	666744.5	202977.64	-0.00018845942	202979.95	666743.7	-7.9238625e-06
0	0.6208581	0.62085587	-3.4311884e-10	0.047376156	0.047376156	0	161777.88	161777.31	-8.6894135e-05	666963.56	202235.34	-0.00023814419	202237.66	666962.8	-0.00023471765
0	0.62048125	0.6204791	-3.3658323e-10	0.047022615	0.047022615	0	161679.69	161679.11	-8.928571e-05	667182.94	201488.5	-0.00018674617	201490.83	667182.1	-0.00029468202
0	0.6201032	0.6201009	-2.0178656e-10	0.04666902	0.04666902	0	161581.14	161580.58	-4.942602e-05	667402.2	200739.83	-9.594298e-05	200742.16	667401.3	-0.00015419407
0	0.61972255	0.6197203	4.8200027e-11	0.046315495	0.046315495	0	161481.98	161481.4	8.769132e-06	667621.25	199987.9	-3.4265352e-06	199990.23	667620.5	7.624041e-05
0	0.6193399	0.6193377	-1.2090855e-10	0.045961898	0.045961898	0	161382.31	161381.7	-3.125e-05	667840.25	199233.28	-0.00011478893	199235.62	667839.56	-3.7691887e-05
0	0.6189548	0.6189526	-2.2956284e-10	0.04560836	0.04560836	0	161281.94	161281.34	-5.7876274e-05	668059.4	198474.92	-0.00012506853	198477.25	668058.6	-0.00021415844
0	0.6185671	0.61856484	-2.7286118e-10	0.04525487	0.04525487	0	161180.9	161180.34	-7.270408e-05	668278.7	197712.89	-0.0001901727	197715.25	668277.9	-0.00021158854
0	0.61817753	0.61817545	-3.6272563e-10	0.04490132	0.04490131	0	161079.42	161078.86	-9.773597e-05	668497.6	196948.75	-0.00025013706	196951.08	668496.8	-0.00029468202
0	0.61778575	0.6177835	-4.3298332e-10	0.044547737	0.044547737	0	160977.3	160976.73	-0.00011894132	668716.5	196181.1	-0.00030838815	196183.45	668715.8	-0.000325735
0	0.61739194	0.6173897	1.1927465e-10	0.044194207	0.044194207	0	160874.69	160874.1	2.9336734e-05	668935.3	195410.95	6.510417e-05	195413.31	668934.44	0.00012506853
0	0.61699504	0.6169928	-2.238442e-10	0.04384063	0.04384063	0	160771.27	160770.67	-6.218112e-05	669154.3	194636.34	-0.000121642	194638.69	669153.56	-0.00020730538
0	0.61659634	0.61659414	-3.259629e-10	0.043487072	0.043487072	0	160667.4	160666.81	-8.514031e-05	669372.75	193859.81	-0.00038377193	193862.19	669372.06	-0.00010258189
0	0.61619467	0.6161924	-2.0913911e-10	0.043133505	0.043133505	0	160562.72	160562.14	-5.0701532e-05	669591.8	193078.3	-0.00020216557	193080.66	669591.06	-9.8512886e-05
0	0.6157918	0.61578953	-4.2889856e-10	0.04277994	0.04277994	0	160457.75	160457.16	-0.00011352041	669810.1	192296	-0.00033751372	192298.33	669809.4	-0.0002638432
0	0.61538595	0.6153837	-5.5552573e-11	0.042426363	0.042426363	0	160351.98	160351.4	-1.1957908e-05	670028.5	191509.34	-8.395011e-05	191511.7	670027.9	1.7560993e-05
0	0.61497766	0.61497545	-3.9213584e-11	0.042072818	0.042072818	0	160245.61	160245.03	-8.928571e-06	670246.94	190719.38	-0.00013020834	190721.73	670246.25	5.910773e-05
0	0.614567	0.61456484	5.7186473e-12	0.041719254	0.041719254	0	160138.61	160138.02	3.0293368e-06	670465.2	189926.28	-8.566338e-06	189928.64	670464.44	2.0559211e-05
0	0.6141539	0.6141518	-3.1697645e-10	0.041365802	0.041365802	0	160030.97	160030.39	-8.418367e-05	670683.3	189129.75	-0.00023643092	189132.16	670682.6	-0.00022015488
0	0.6137386	0.6137364	-1.3888143e-10	0.04101223	0.04101223	0	159922.73	159922.17	-3.9859693e-05	670901.3	188330.33	-1.7132676e-05	188332.69	670900.7	-0.00018331963
0	0.61331993	0.61331767	-1.8136281e-10	0.040658668	0.040658668	0	159813.62	159813.06	-4.6077806e-05	671119.3	187526.1	-0.00014734101	187528.5	671118.6	-0.00011821546
0	0.61289996	0.6128977	-3.9213582e-10	0.040305123	0.040305123	0	159704.2	159703.62	-0.00010411352	671336.8	186720.69	-0.0003477933	186723.1	671336.06	-0.00022700796
0	0.61247754	0.61247534	-2.499866e-10	0.03995156	0.03995156	0	159594.16	159593.56	-6.8877554e-05	671554.25	185911.88	-0.00015762061	185914.28	671553.5	-0.00019188596
0	0.61205184	0.6120496	-9.149836e-11	0.039597988	0.039597984	0	159483.23	159482.66	-2.2480868e-05	671771.9	185098.36	-6.167763e-05	185100.77	671771.2	-4.9684757e-05
0	0.6116239	0.6116216	-2.1322386e-10	0.039244413	0.039244413	0	159371.69	159371.12	-4.9744896e-05	671989.25	184281.75	-0.00016790022	184284.19	671988.44	-0.00011864378
0	0.6111937	0.61119145	-1.5930518e-10	0.038890854	0.038890854	0	159259.61	159259.03	-3.6670917e-05	672206.2	183462.53	-0.00011821546	183464.92	672205.5	-8.0523576e-05
0	0.61076057	0.61075824	-3.3494935e-10	0.038537282	0.038537282	0	159146.75	159146.17	-8.434311e-05	672423.2	182639.1	-0.00026726973	182641.48	672422.5	-0.0001850329
0	0.6103251	0.6103229	-2.3936625e-10	0.038183745	0.038183745	0	159033.3	159032.72	-6.7442605e-05	672639.8	181812.94	-0.00014391447	181815.36	672639.1	-0.000208162
0	0.60988694	0.6098847	-2.009696e-10	0.037830174	0.037830174	0	158919.11	158918.53	-5.1658164e-05	672856.4	180982.98	-0.00023985746	180985.4	672855.6	-4.7114856e-05
0	0.6094463	0.609444	-1.4051534e-10	0.037476614	0.037476607	0	158804.28	158803.7	-3.7308673e-05	673072.4	180149.92	-0.00013363487	180152.34	673071.75	-8.9946545e-05
0	0.60900265	0.60900044	-1.0947125e-10	0.03712314	0.03712314	0	158688.69	158688.11	-3.0612246e-05	673288.8	179312.5	-0.00010450932	179314.92	673288.1	-4.283169e-05
0	0.60855657	0.6085543	-2.483527e-10	0.036769573	0.036769576	0	158572.45	158571.88	-6.114477e-05	673504.75	178472.03	-0.00023643092	178474.45	673504	-0.00010365269
0	0.60810775	0.6081055	-3.73346e-10	0.036416035	0.03641604	0	158455.52	158454.9	-9.438775e-05	673720.5	177627.86	-0.00033066064	177630.28	673719.9	-0.00019359923
0	0.60765564	0.6076534	-4.395189e-10	0.036062464	0.036062464	0	158337.69	158337.11	-0.0001171875	673935.9	176779.52	-0.0002638432	176781.95	673935.2	-0.00037734717
0	0.6072023	0.6072001	-7.5159365e-11	0.0357089	0.0357089	0	158219.56	158219	-2.4314413e-05	674151.06	175929.73	6.8530703e-06	175932.17	674150.4	-0.00011650219
0	0.60674554	0.6067433	7.3525465e-12	0.035355333	0.035355333	0	158100.55	158099.97	3.1887755e-06	674365.94	175075.38	-3.426535e-05	175077.81	674365.25	7.8810306e-05
0	0.60628575	0.60628355	-2.385493e-10	0.03500176	0.03500176	0	157980.75	157980.19	-6.441327e-05	674580.7	174217.03	-0.00022272478	174219.47	674580	-0.00013127913
0	0.6058219	0.6058197	-4.0684092e-10	0.0346482	0.0346482	0	157859.88	157859.3	-0.000101243626	674795.44	173352.78	-0.0005174068	173355.23	674794.75	-4.9684757e-05
0	0.60535806	0.60535586	-3.0063746e-10	0.03429466	0.03429466	0	157739.02	157738.44	-7.9878824e-05	675009.4	172489.53	-0.0002998218	172491.98	675008.7	-0.0001344915
0	0.6048903	0.6048881	-2.9410185e-10	0.033941094	0.033941094	0	157617.14	157616.55	-7.629146e-05	675223.2	171620.81	-0.00022101152	171623.23	675222.5	-0.00020473546
0	0.6044195	0.6044174	-8.414581e-11	0.03358753	0.03358753	0	157494.48	157493.89	-2.2959184e-05	675436.7	170748.36	-8.908991e-05	170750.78	675436	-2.5699013e-05
0	0.60394585	0.6039436	-4.4442058e-10	0.033234045	0.033234045	0	157371.02	157370.45	-0.000114317605	675649.94	169871.75	-0.00033922697	169874.19	675649.3	-0.00030324835
0	0.6034694	0.6034672	-2.6142389e-11	0.032880485	0.032880485	0	157246.88	157246.31	-5.739796e-06	675862.9	168991.8	-4.1118423e-05	168994.28	675862.25	3.2123767e-06
0	0.60298955	0.60298735	5.963732e-11	0.03252695	0.03252695	0	157121.84	157121.28	1.1080995e-05	676075.5	168107.42	5.139803e-06	168109.89	676074.9	4.6258225e-05
0	0.60250723	0.602505	-2.205764e-10	0.03217338	0.03217338	0	156996.17	156995.61	-5.628189e-05	676287.8	167219.83	-0.00036663926	167222.28	676287.2	5.9964364e-05
0	0.60202205	0.6020198	-1.3071194e-10	0.03181982	0.03181982	0	156869.72	156869.14	-3.356186e-05	676499.9	166328.45	-0.00013534813	166330.9	676499.2	-3.876268e-05
0	0.601534	0.6015318	-3.4025952e-10	0.031466246	0.031466246	0	156742.58	156742.02	-8.896684e-05	676711.3	165433.84	-0.00023985746	165436.33	676710.7	-0.00023643092
0	0.6010425	0.6010403	-2.140408e-10	0.031112673	0.031112673	0	156614.5	156613.9	-5.3252552e-05	676922.75	164534.27	-0.00016276042	164536.73	676922.06	-0.00012506853
0	0.6005481	0.60054576	-8.659666e-11	0.030759115	0.030759118	0	156485.64	156485.08	-1.4907526e-05	677133.44	163631.34	5.653783e-05	163633.81	677132.8	-0.00015762061
0	0.6000511	0.6000489	-2.2956284e-10	0.030405583	0.030405583	0	156356.14	156355.58	-6.090561e-05	677344.1	162724.94	-0.00015076755	162727.4	677343.5	-0.00019616913
0	0.59955114	0.5995489	-4.493223e-10	0.030052025	0.030052025	0	156225.89	156225.31	-0.000115513394	677554	161815.03	-0.00033580043	161817.52	677553.44	-0.00030324835
0	0.59904766	0.59904546	-1.9688486e-10	0.029698454	0.029698454	0	156094.7	156094.11	-4.5121174e-05	677763.8	160900.48	-0.00019359923	160902.95	677763.1	-7.302803e-05
0	0.59854114	0.5985389	-3.5700698e-10	0.02934495	0.02934495	0	155962.72	155962.14	-8.9365436e-05	677973	159982	-0.0003015351	159984.48	677972.4	-0.00017989309
0	0.5980315	0.5980293	-1.168238e-10	0.02899139	0.02899139	0	155829.94	155829.36	-2.7662627e-05	678181.9	159059.72	-6.167763e-05	159062.2	678181.3	-9.765625e-05
0	0.5975183	0.5975161	-2.2221029e-10	0.028637823	0.028637823	0	155696.22	155695.64	-5.6680485e-05	678390.4	158132.86	-9.594298e-05	158135.33	678389.8	-0.00021908409
0	0.59700304	0.5970008	-1.4337466e-10	0.028284293	0.028284293	0	155561.9	155561.34	-3.7308673e-05	678598.3	157203.38	-0.00022272478	157205.84	678597.75	3.169545e-05
0	0.5964839	0.5964817	-7.5976316e-11	0.027930735	0.027930735	0	155426.66	155426.1	-2.6546557e-05	678805.8	156269.14	-0.00014391447	156271.64	678805.25	4.0261788e-05
0	0.5959616	0.59595937	-2.6550862e-10	0.027577164	0.027577164	0	155290.56	155289.98	-7.31824e-05	679012.94	155330.8	-0.00030496164	155333.28	679012.25	-8.8233275e-05
0	0.595436	0.5954338	-8.1694964e-13	0.027223593	0.027223593	0	155153.61	155153.02	2.7901785e-06	679219.56	154388.34	-3.0838815e-05	154390.84	679218.8	2.7412281e-05
0	0.5949073	0.59490514	-2.8266456e-10	0.026870035	0.026870035	0	155015.84	155015.27	-6.648597e-05	679425.5	153442.19	-0.00022101152	153444.69	679424.94	-0.00013106497
0	0.59437484	0.5943727	-8.169496e-11	0.026516512	0.026516512	0	154877.11	154876.53	-1.4030612e-05	679631.2	152491.14	-8.908991e-05	152493.64	679630.56	-1.0922081e-05
0	0.59383994	0.5938378	-2.2506962e-10	0.026162941	0.026162941	0	154737.72	154737.14	-5.707908e-05	679836.06	151537.27	-0.00018331963	151539.77	679835.5	-0.00013020834
0	0.5933007	0.5932985	-1.7155942e-10	0.025809383	0.025809383	0	154597.22	154596.66	-4.3845663e-05	680040.56	150578	-0.00022443804	150580.48	680039.94	-1.4562774e-05
0	0.59275866	0.59275645	-5.882037e-11	0.025455853	0.025455853	0	154455.97	154455.39	-1.5306123e-05	680244.7	149614.89	-5.8251095e-05	149617.38	680244.1	-3.5978617e-05
0	0.59221345	0.59221125	2.6142389e-11	0.025102295	0.025102295	0	154313.9	154313.36	1.434949e-06	680448.25	148648.19	7.5383774e-05	148650.69	680447.6	-4.1975054e-05
0	0.59166485	0.59166265	-1.8136281e-10	0.024748728	0.024748728	0	154170.94	154170.38	-4.9744896e-05	680650.94	147677.27	-0.0002004523	147679.75	680650.44	-7.5383774e-05
0	0.59111273	0.5911105	-1.4214924e-10	0.024395209	0.024395209	0	154027.11	154026.53	-4.0816325e-05	680853.1	146702.27	-0.00018160636	146704.77	680852.56	-1.7132676e-05
0	0.5905568	0.5905546	-9.7217005e-11	0.024041645	0.024041645	0	153882.22	153881.64	-2.479273e-05	681055	145721.98	-6.167763e-05	145724.48	681054.44	-7.5383774e-05
0	0.58999735	0.58999515	-4.1664432e-11	0.023688078	0.023688078	0	153736.44	153735.9	-8.609694e-06	681256.06	144737.73	-5.139803e-06	144740.23	681255.5	-5.4824563e-05
0	0.5894347	0.58943254	-3.4965444e-10	0.02333451	0.02333451	0	153589.84	153589.3	-8.944515e-05	681456.6	143749.56	-0.00030496164	143752.06	681456	-0.0001700418
0	0.5888685	0.58886635	-1.3193736e-10	0.022980949	0.022980949	0	153442.3	153441.73	-3.3322704e-05	681656.44	142756.94	-0.00011821546	142759.44	681655.9	-4.283169e-05
0	0.5882987	0.58829653	-1.1600685e-10	0.022627436	0.022627436	0	153293.84	153293.27	-2.7024873e-05	681855.56	141760.2	-7.8810306e-05	141762.69	681855.1	-6.2534265e-05
0	0.5877249	0.58772284	-3.3004766e-10	0.022273868	0.022273868	0	153144.34	153143.77	-8.290816e-05	682054.2	140758.28	-0.0002844024	140760.77	682053.7	-0.00019616913
0	0.58714795	0.5871458	-1.11513625e-10	0.021920316	0.021920316	0	152993.98	152993.4	-2.9177296e-05	682252.06	139752.53	-8.395011e-05	139755.03	682251.56	-5.225466e-05
0	0.58656496	0.5865629	-4.8200027e-11	0.021566752	0.021566752	0	152842.08	152841.52	-1.2755102e-05	682449.4	138739.11	-8.395011e-05	138741.6	682448.9	1.6276043e-05
0	0.5859826	0.5859805	-4.672952e-10	0.021213181	0.021213181	0	152690.33	152689.77	-0.00011766582	682645.8	137727.39	-0.00033580043	137729.9	682645.25	-0.00031781112
0	0.58539456	0.5853924	-2.336476e-10	0.020859627	0.020859627	0	152537.12	152536.55	-6.122449e-05	682841.5	136708.47	-0.000106222586	136710.97	682841.06	-0.00025013706
0	0.5848028	0.58480066	-1.5113569e-10	0.020506116	0.020506116	0	152382.9	152382.34	-4.049745e-05	683036.44	135684.92	-6.510417e-05	135687.45	683035.94	-0.00013620478
0	0.5842067	0.5842045	-2.7939678e-10	0.020152561	0.020152561	0	152227.56	152227.02	-6.9674745e-05	683230.75	134656.02	-0.00023643092	134658.52	683230.3	-0.00014498527
0	0.5836058	0.58360374	-2.8103067e-10	0.019798994	0.019798994	0	152071.03	152070.45	-6.903699e-05	683424.44	133621.31	-0.00016104715	133623.83	683423.9	-0.00020644873
0	0.58300394	0.5830018	-1.7482722e-10	0.019445427	0.019445427	0	151914.16	151913.61	-4.033801e-05	683617.25	132585.73	-0.00020901865	132588.23	683616.8	-1.1136239e-05
0	0.5823974	0.5823953	-1.9606791e-10	0.019091872	0.019091872	0	151756.12	151755.58	-4.583865e-05	683808.9	131545.02	-6.510417e-05	131547.52	683808.44	-0.00019188596
0	0.58178604	0.5817839	-1.9300435e-10	0.018738307	0.018738303	0	151596.81	151596.27	-4.846939e-05	684000.25	130497.73	3.0838815e-05	130500.23	683999.75	-0.00029639527
0	0.58117115	0.581169	-2.205764e-10	0.018384786	0.018384786	0	151436.6	151436.03	-5.321269e-05	684190.56	129446.516	-0.00014734101	129449.01	684190.06	-0.0001267818
0	0.5805519	0.58054984	-3.5128833e-10	0.018031232	0.018031232	0	151275.23	151274.7	-9.151786e-05	684380.2	128390.02	-0.00026041668	128392.53	684379.75	-0.00023814419
0	0.57992923	0.57992715	-6.617292e-11	0.017677667	0.017677667	0	151113	151112.44	-1.7338967e-05	684568.8	127329.69	-0.00022272478	127332.18	684568.3	0.00013020834
0	0.5793022	0.57930017	-2.238442e-10	0.0173241	0.0173241	0	150949.6	150949.05	-5.6800065e-05	684756.56	126264	-0.00013363487	126266.484	684756.1	-0.00018417626
0	0.5786715	0.5786695	-1.6093908e-10	0.016970549	0.016970547	0	150785.28	150784.75	-3.5953442e-05	684943.25	125194.414	-0.00019873903	125196.914	684942.8	-8.566338e-06
0	0.5780359	0.5780338	-4.248138e-11	0.016617022	0.016617022	0	150619.66	150619.11	-8.808993e-06	685129.56	124118.26	-5.8251095e-05	124120.76	685129.1	6.8530703e-06
0	0.5773971	0.57739496	-5.0650876e-11	0.016263476	0.016263476	0	150453.17	150452.62	-9.885204e-06	685314.5	123038.93	-0.00017132676	123041.41	685314	0.00013791803
0	0.576754	0.57675195	-2.5488828e-10	0.01590991	0.01590991	0	150285.62	150285.08	-6.931601e-05	685498.5	121954.586	-0.00014391447	121957.09	685498.2	-0.00022700796
0	0.57610345	0.57610136	-5.99641e-10	0.015556336	0.015556336	0	150116.1	150115.56	-0.00014887596	685681.94	120860.35	-0.00070929277	120862.836	685681.6	-0.00013277824
0	0.57545435	0.5754522	-2.287459e-10	0.015202791	0.015202791	0	149946.94	149946.4	-6.3536354e-05	685864	119769.46	-0.0001747533	119771.96	685863.56	-0.00016618695
0	0.57479846	0.5747964	-1.168238e-10	0.014849227	0.014849227	0	149776.06	149775.53	-2.6785714e-05	686045.2	118670.2	-0.00019188596	118672.67	686044.75	2.5913172e-05
0	0.5741375	0.5741354	1.3275431e-11	0.014495695	0.014495695	0	149603.84	149603.3	6.138393e-06	686225.5	117564.58	-0.00033922697	117567.06	686225.06	0.00037434895
0	0.5734738	0.5734717	-1.4296618e-10	0.014142146	0.014142146	0	149430.89	149430.36	-3.8185586e-05	686404.44	116456.35	-6.85307e-05	116458.836	686404.1	-0.00013877467
0	0.57280445	0.5728024	-8.9864456e-11	0.013788582	0.013788582	0	149256.47	149255.95	-2.5271045e-05	686582.75	115341.055	-2.7412281e-05	115343.54	686582.4	-0.00011821546
0	0.5721312	0.5721291	-1.2213397e-10	0.013435017	0.013435017	0	149081.03	149080.52	-3.1967473e-05	686759.6	114221.445	-9.251645e-05	114223.93	686759.4	-0.00010365269
0	0.57145345	0.57145137	-2.418171e-10	0.0130814705	0.0130814705	0	148904.44	148903.9	-6.684471e-05	686935.6	113096.64	-0.00022272478	113099.13	686935.3	-0.00011650219
0	0.57077116	0.57076913	-1.6502383e-10	0.0127279265	0.0127279265	0	148726.66	148726.14	-4.5280613e-05	687110.5	111966.7	-4.1118423e-05	111969.195	687110.06	-0.00019359923
0	0.5700846	0.5700826	-3.9662904e-10	0.012374364	0.012374364	0	148547.77	148547.22	-0.00010511001	687284.2	110831.766	-0.00030838815	110834.26	687283.94	-0.00027326617
0	0.56939316	0.5693912	-2.483527e-10	0.012020823	0.012020823	0	148367.61	148367.06	-6.134407e-05	687456.8	109691.2	-0.0003323739	109693.69	687456.4	-3.5121986e-05
0	0.56869733	0.5686953	-1.5195263e-10	0.011667255	0.011667255	0	148186.27	148185.77	-3.6989797e-05	687628.1	108545.6	-0.00015076755	108548.08	687627.9	-5.5467037e-05
0	0.5679968	0.5679949	-7.5159365e-11	0.011313718	0.011313718	0	148003.75	148003.23	-1.8734056e-05	687798.44	107394.73	-0.00015076755	107397.195	687798.2	4.6258225e-05
0	0.5672919	0.5672899	-2.7531202e-10	0.010960158	0.010960158	0	147820.05	147819.55	-7.425861e-05	687967.4	106238.77	-0.00018845942	106241.24	687967.06	-0.00021415844
0	0.56658226	0.56658024	-1.102882e-10	0.010606591	0.010606591	0	147635.16	147634.64	-2.742347e-05	688135.06	105077.69	-0.00011992873	105080.15	688134.75	-2.5699013e-05
0	0.56586754	0.5658656	-1.8075011e-10	0.010253058	0.010253058	0	147448.92	147448.38	-4.7393176e-05	688301.6	103910.44	-0.00029810856	103912.89	688301.3	5.8251095e-05
0	0.5651472	0.5651453	-2.8184763e-10	0.009899496	0.009899496	0	147261.22	147260.7	-7.429847e-05	688466.9	102736.734	-0.0003529331	102739.195	688466.7	-3.426535e-05
0	0.56442356	0.5644216	-1.04569554e-10	0.009545936	0.009545936	0	147072.66	147072.16	-2.614796e-05	688631	101559.58	-0.00016447369	101562.03	688630.75	-5.139803e-06
0	0.5636949	0.563693	5.6369524e-11	0.009192393	0.009192393	0	146882.78	146882.28	1.9052934e-05	688793.44	100376.97	7.1957234e-05	100379.414	688793.1	8.566338e-06
0	0.5629607	0.5629588	-2.6469169e-10	0.008838833	0.008838833	0	146691.48	146690.97	-7.3979594e-05	688954.75	99187.78	-8.2236846e-05	99190.24	688954.5	-0.0003272341
0	0.56222194	0.56222	-2.124069e-10	0.008485274	0.008485273	0	146498.95	146498.45	-5.8035715e-05	689114.75	97993.4	-0.00015762061	97995.83	689114.5	-0.00015676398
0	0.5614783	0.5614764	-3.374002e-10	0.008131738	0.008131738	0	146305.2	146304.7	-8.8329085e-05	689273.1	96794.09	-0.00026726973	96796.53	689272.94	-0.00021158854
0	0.5607291	0.5607272	-2.058713e-10	0.007778168	0.007778168	0	146109.97	146109.5	-5.5564415e-05	689430.4	95587.92	-0.00025013706	95590.36	689430.1	-4.6258225e-05
0	0.55996853	0.5599666	-2.205764e-11	0.0074246135	0.0074246135	0	145911.81	145911.31	-1.1479592e-05	689587.3	94366.2	2.3985745e-05	94368.63	689587.2	-7.8810306e-05
0	0.55921596	0.5592142	-2.320137e-10	0.0070710736	0.007071073	0	145715.72	145715.23	-6.186224e-05	689740.25	93159.77	-6.167763e-05	93162.195	689740.06	-0.00028354579