//mumax 3.10 [windows_amd64 go1.11.6(gc) CUDA-11.0]
//GPU info: NVIDIA GeForce RTX 3090(24575MB), CUDA Driver 12.1, cc=8.6, using cc=80 PTX
//(c) Arne Vansteenkiste, Dynamat LAB, Ghent University, Belgium
//This is free software without any warranty. See license.txt
//********************************************************************//
//  If you use mumax in any work or publication,                      //
//  we kindly ask you to cite the references in references.bib        //
//********************************************************************//
//output directory: r1;p0.1;a4.2e-07;l3.0000000000000004e-07;s1.out/
randSeed(1)
ThermSeed(1)
resolution := 2e-09
zResolution := 5e-09
a := 4.2e-07
gridSize := 420
gridDepth := 5
SetCellsize(resolution, resolution, zResolution)
SetGridsize(gridSize, gridSize, gridDepth)
SetPBC(16, 16, 0)
//resizing...
Msat = 700e3
Aex = 13e-12
alpha = 0.2
Bmax := 0.1
Bstep := Bmax / 500.0
TableAdd(B_ext)
TableAdd(m_full)
islandWidth := 8e-08
islandLength := 3.0000000000000004e-07
ellipseConstant := 1.5000000000000002e-08
hIsland := Universe().Inverse()
vIsland := Universe().Inverse()
vIslands := Universe().Inverse()
hIslands := Universe().Inverse()
hIsland = rect(islandLength-2*ellipseConstant, islandWidth)
hIsland = hIsland.add(ellipse(ellipseConstant*2, islandWidth).transl(islandLength/2-ellipseConstant, 0, 0))
hIsland = hIsland.add(ellipse(ellipseConstant*2, islandWidth).transl(-islandLength/2+ellipseConstant, 0, 0))
hIsland = hIsland.add(rect(4.058740874480858e-09, 1.1980324290722753e-09).transl(6.427721746363432e-08, -4e-08, 0))
hIsland = hIsland.sub(rect(3.519449176500164e-09, -2.2124971705984693e-09).transl(1.2397237216114862e-07, -4e-08, 0))
hIsland = hIsland.add(rect(9.511197382160545e-09, 3.352882510048652e-09).transl(6.146626670999955e-08, -4e-08, 0))
hIsland = hIsland.sub(rect(5.2853975108024924e-09, -1.6751141059691006e-09).transl(1.1024112071939771e-07, -4e-08, 0))
hIsland = hIsland.add(rect(4.036424340190304e-09, 3.2608450218615812e-09).transl(9.467908059934285e-08, -4e-08, 0))
hIsland = hIsland.sub(rect(6.970686210214362e-09, -6.260113546702089e-10).transl(-9.55142625050184e-08, -4e-08, 0))
hIsland = hIsland.add(rect(6.286761980944944e-09, 1.4929541082662636e-09).transl(-1.2829663538629803e-07, -4e-08, 0))
hIsland = hIsland.sub(rect(7.818770888001454e-09, -2.6414247439244957e-09).transl(-7.731320022261447e-08, -4e-08, 0))
hIsland = hIsland.sub(rect(3.281942607266738e-09, -2.3496520403286783e-10).transl(-4.28288704623981e-08, -4e-08, 0))
hIsland = hIsland.sub(rect(6.422701037972379e-09, -1.4004357472582533e-09).transl(-7.777741491796824e-08, -4e-08, 0))
hIsland = hIsland.sub(rect(8.304697631360316e-09, -1.2399543924822976e-09).transl(-1.387962525576395e-07, -3.869777750895236e-08, 0))
hIsland = hIsland.sub(rect(2.980504444735366e-09, -1.2270193235596824e-10).transl(2.6162824402999235e-08, -4e-08, 0))
hIsland = hIsland.add(rect(2.700194665909665e-09, 3.208483840710888e-09).transl(-5.825861325612486e-08, -4e-08, 0))
hIsland = hIsland.sub(rect(2.8543799289166342e-09, -2.9654725572032697e-10).transl(-1.2723759985115825e-07, -4e-08, 0))
hIsland = hIsland.sub(rect(2.0129539685919015e-09, -1.0041780235163628e-09).transl(8.565408879179587e-08, -4e-08, 0))
hIsland = hIsland.sub(rect(8.225302190873992e-09, -1.933296496937883e-09).transl(1.2266838105024399e-07, -4e-08, 0))
hIsland = hIsland.add(rect(3.955583430947075e-09, 4.666272882222354e-11).transl(-1.0992591870700458e-07, -4e-08, 0))
hIsland = hIsland.add(rect(9.145256881484514e-09, 3.903500241488128e-10).transl(1.4942954365241764e-07, -1.0926264375909157e-08, 0))
hIsland = hIsland.add(rect(5.542894272952364e-09, 8.868234577024839e-10).transl(-1.2044394165528935e-07, -4e-08, 0))
hIsland = hIsland.add(rect(8.478685817729414e-09, 1.376433373550816e-09).transl(9.009758703893718e-09, -4e-08, 0))
hIsland = hIsland.sub(rect(4.490113107418433e-09, -2.7865994696044375e-09).transl(-4.1927031369673893e-08, -4e-08, 0))
hIsland = hIsland.sub(rect(2.9734974494331006e-09, -1.9720239827548865e-09).transl(-3.988179964482483e-08, -4e-08, 0))
hIsland = hIsland.sub(rect(8.581104068938573e-09, -2.8149001054168306e-09).transl(3.3964198477086466e-08, -4e-08, 0))
hIsland = hIsland.add(rect(4.755828869662391e-09, 1.6741887212798038e-09).transl(6.717533726393342e-08, -4e-08, 0))
hIsland = hIsland.sub(rect(8.568657362694329e-09, -9.708861003175684e-10).transl(1.926754694343094e-08, -4e-08, 0))
hIsland = hIsland.add(rect(4.396679331511888e-09, 3.460566883129437e-09).transl(-1.1670211085513567e-07, -4e-08, 0))
hIsland = hIsland.sub(rect(8.820697524854502e-09, -2.5886143862902664e-10).transl(-7.018456573758192e-08, -4e-08, 0))
hIsland = hIsland.sub(rect(9.55508971910053e-09, -1.5093927840099113e-09).transl(-1.2099617843665747e-07, -4e-08, 0))
hIsland = hIsland.add(rect(8.979301951231917e-09, 1.288938248977794e-09).transl(1.6664841640215086e-08, -4e-08, 0))
hIsland = hIsland.sub(rect(4.044894235193774e-09, -1.2991670113929747e-09).transl(-3.4246841273682494e-09, -4e-08, 0))
hIsland = hIsland.sub(rect(2.8434393358637973e-09, -1.5504886553103722e-09).transl(7.37596665109694e-08, -4e-08, 0))
hIsland = hIsland.sub(rect(8.519194153009743e-09, -1.7922689505847118e-10).transl(-3.058637312063616e-08, -4e-08, 0))
hIsland = hIsland.sub(rect(6.635970205737319e-09, -1.265743314660775e-09).transl(2.1827715866466822e-08, -4e-08, 0))
hIsland = hIsland.add(rect(6.122739957750358e-09, 2.6597833479741056e-09).transl(-6.432052572306067e-08, -4e-08, 0))
hIsland = hIsland.sub(rect(2.3307328791244474e-09, -5.977384606129954e-10).transl(-4.2509944336180664e-08, -4e-08, 0))
hIsland = hIsland.sub(rect(6.897588892501741e-09, -1.7352700118607494e-09).transl(-6.663260418961073e-08, -4e-08, 0))
hIsland = hIsland.sub(rect(7.3164471702715145e-09, -2.1649533395790387e-09).transl(-7.855796107793234e-08, -4e-08, 0))
hIsland = hIsland.add(rect(9.186157459509037e-09, 8.470426009238206e-10).transl(-1.354823562941803e-07, -3.9979313086686524e-08, 0))
hIsland = hIsland.sub(rect(3.560209033634493e-09, -1.5647760365718797e-11).transl(-4.791277423673077e-08, -4e-08, 0))
hIsland = hIsland.add(rect(9.15939600278326e-09, 1.8420834961713846e-09).transl(-2.0249673655752252e-08, -4e-08, 0))
hIsland = hIsland.sub(rect(2.9324478328435266e-09, -1.5908997436898511e-09).transl(-7.247051186284729e-08, -4e-08, 0))
hIsland = hIsland.sub(rect(7.50492213530813e-09, -5.112573160227685e-10).transl(-1.028178463296323e-07, -4e-08, 0))
hIsland = hIsland.sub(rect(3.968796522691108e-09, -1.0690495974841771e-09).transl(-7.500395379529296e-09, -4e-08, 0))
hIsland = hIsland.add(rect(3.059053731701587e-09, 2.8609599795171113e-09).transl(1.1338253777521264e-07, -4e-08, 0))
hIsland = hIsland.add(rect(4.0889549659686605e-09, 9.176201422114185e-10).transl(1.2365145176577824e-08, -4e-08, 0))
hIsland = hIsland.sub(rect(2.697785515521898e-09, -1.42559668377111e-10).transl(1.725652549704161e-08, -4e-08, 0))
hIsland = hIsland.sub(rect(7.6313576733854e-09, -2.842936641066015e-10).transl(1.2737521803788118e-07, -4e-08, 0))
hIsland = hIsland.add(rect(5.9757877313105615e-09, 3.730862736099307e-09).transl(8.83017549416299e-08, -4e-08, 0))
hIsland = hIsland.add(rect(6.9351531417148686e-09, 1.6635046191663177e-09).transl(6.193230631186329e-08, -4e-08, 0))
hIsland = hIsland.add(rect(3.962637827517629e-09, 4.397651699554459e-09).transl(3.321310495715467e-08, -4e-08, 0))
hIsland = hIsland.add(rect(7.475159140486607e-09, 4.683546250368955e-10).transl(-1.1491400621899136e-08, -4e-08, 0))
hIsland = hIsland.add(rect(2.2744451113671253e-09, 2.41941035540529e-09).transl(-1.0544497096860446e-07, -4e-08, 0))
hIsland = hIsland.sub(rect(3.5519542652618963e-09, -4.1780361368681507e-10).transl(-4.171366738676694e-08, -4e-08, 0))
hIsland = hIsland.sub(rect(3.942940989055557e-09, -2.1430984540540975e-09).transl(-2.018076686666774e-08, -4e-08, 0))
hIsland = hIsland.add(rect(9.889284814357481e-09, 2.383848162078679e-11).transl(-2.7634975818089816e-08, -4e-08, 0))
hIsland = hIsland.sub(rect(3.691388170769069e-09, -1.831849253282725e-09).transl(6.436411572455537e-08, -4e-08, 0))
hIsland = hIsland.sub(rect(7.469136987819272e-09, -1.2314115227864894e-09).transl(1.385180481287612e-08, -4e-08, 0))
hIsland = hIsland.sub(rect(7.181284224984861e-09, -2.2103138951788663e-09).transl(-1.2750618727948783e-07, -4e-08, 0))
hIsland = hIsland.add(rect(5.060486390847085e-09, 9.66910479552759e-10).transl(-1.1610020408528566e-07, -4e-08, 0))
hIsland = hIsland.sub(rect(4.093797336082798e-09, -3.424339772633786e-10).transl(-9.085878015044126e-08, -4e-08, 0))
hIsland = hIsland.sub(rect(5.621274446220814e-09, -1.4713409849253853e-10).transl(-2.492059888829196e-08, -4e-08, 0))
hIsland = hIsland.sub(rect(4.907735063057019e-09, -1.8119909745970718e-09).transl(-8.509490294540927e-08, -4e-08, 0))
hIsland = hIsland.add(rect(4.270978708474228e-09, 6.81299785070823e-10).transl(1.1743680032400936e-07, -4e-08, 0))
hIsland = hIsland.sub(rect(8.014190950796977e-09, -1.0469357646825613e-09).transl(9.281693367005343e-08, -4e-08, 0))
hIsland = hIsland.add(rect(3.6819615921928126e-09, 2.209845226227763e-09).transl(7.08595568615982e-08, -4e-08, 0))
hIsland = hIsland.sub(rect(5.178182321683866e-09, -6.996466451364926e-10).transl(5.1555038624485674e-08, -4e-08, 0))
hIsland = hIsland.add(rect(9.933797659915846e-09, 1.7677450104960758e-09).transl(1.4293584316265337e-07, -3.394347126073839e-08, 0))
hIsland = hIsland.sub(rect(6.178280175432555e-09, -1.6211262423413237e-10).transl(1.351098995014683e-07, -3.999892639444343e-08, 0))
hIsland = hIsland.add(rect(3.3858617508358977e-09, 3.2493942005640964e-09).transl(-1.0372004565573025e-07, -4e-08, 0))
hIsland = hIsland.sub(rect(6.86546364779037e-09, -3.9596692776407605e-09).transl(-4.7654900698285697e-08, -4e-08, 0))
hIsland = hIsland.add(rect(6.942958587997286e-09, 8.773408922773593e-10).transl(-1.716243634850363e-08, -4e-08, 0))
hIsland = hIsland.add(rect(4.3161718036501526e-09, 3.374709821572148e-09).transl(-4.406192817618733e-08, -4e-08, 0))
hIsland = hIsland.add(rect(5.663493566589845e-09, 1.6414230301173756e-09).transl(7.243229053140458e-08, -4e-08, 0))
hIsland = hIsland.add(rect(5.7041123840631764e-09, 4.908762963298381e-10).transl(-5.35417173939778e-08, -4e-08, 0))
hIsland = hIsland.add(rect(2.161241765748218e-09, 9.518615378049039e-10).transl(8.262820058408573e-08, -4e-08, 0))
hIsland = hIsland.add(rect(4.970015070616571e-09, 3.004768393676985e-10).transl(-1.1451434406855663e-07, -4e-08, 0))
hIsland = hIsland.add(rect(3.0031711025870847e-09, 1.12622064236629e-09).transl(-1.3860123360864549e-07, -3.8830102091234994e-08, 0))
hIsland = hIsland.sub(rect(9.222992139464673e-09, -2.603298655692108e-10).transl(-1.0378073923485818e-07, -4e-08, 0))
hIsland = hIsland.add(rect(2.8830811366277323e-09, 2.2654622297372754e-09).transl(1.2656872911386116e-07, -4e-08, 0))
hIsland = hIsland.sub(rect(2.2131165162770322e-09, -3.024333874633395e-09).transl(-1.4234725241798462e-07, -3.4873014785410045e-08, 0))
hIsland = hIsland.add(rect(8.789374313377536e-09, 2.5172466501091055e-09).transl(-5.822483216411756e-08, -4e-08, 0))
hIsland = hIsland.sub(rect(2.6835490406189815e-09, -6.436247470195701e-10).transl(-3.941433170782809e-08, -4e-08, 0))
hIsland = hIsland.add(rect(5.253768054125674e-09, 1.7290513774675465e-09).transl(-1.2362134352600862e-07, -4e-08, 0))
hIsland = hIsland.add(rect(3.2245735898907057e-09, 5.417692406214421e-11).transl(-1.5232653458889628e-08, -4e-08, 0))
hIsland = hIsland.add(rect(6.314212093909165e-09, 1.5579835299052246e-09).transl(2.3773867900582296e-08, -4e-08, 0))
hIsland = hIsland.sub(rect(5.028353628596898e-09, -4.815292339696035e-09).transl(8.922356751364062e-08, -4e-08, 0))
hIsland = hIsland.sub(rect(3.5994590523187e-09, -3.1732673854056675e-09).transl(-1.4309793011621275e-07, -3.36701413740025e-08, 0))
hIsland = hIsland.sub(rect(6.448573570797578e-09, -8.108077949582676e-10).transl(-1.2603833007984997e-07, -4e-08, 0))
hIsland = hIsland.sub(rect(9.296355385241743e-09, -2.707665879101041e-09).transl(-1.1981149333537073e-07, -4e-08, 0))
hIsland = hIsland.sub(rect(8.804869499932682e-09, -2.5379400287824236e-09).transl(-1.2360384335583056e-07, -4e-08, 0))
hIsland = hIsland.sub(rect(4.763952774904186e-09, -1.0678566773355493e-09).transl(-2.4983098884272345e-08, -4e-08, 0))
hIsland = hIsland.add(rect(9.93967958734476e-09, 1.2654665421153222e-09).transl(4.118597254060569e-08, -4e-08, 0))
hIsland = hIsland.sub(rect(8.134864770882926e-09, -3.419588690654792e-09).transl(7.843637688291145e-08, -4e-08, 0))
hIsland = hIsland.sub(rect(7.228312116925124e-09, -6.735163436980278e-10).transl(8.688857632759743e-08, -4e-08, 0))
hIsland = hIsland.add(rect(9.996970621382773e-09, 2.0855648211935744e-09).transl(-9.595185184519179e-08, -4e-08, 0))
hIsland = hIsland.add(rect(2.8704536929198386e-09, 1.251008992270598e-09).transl(1.1817363935511814e-07, -4e-08, 0))
hIsland = hIsland.sub(rect(9.418973746544826e-09, -2.674795816187552e-09).transl(-1.4434638815605446e-07, -3.12859248081792e-08, 0))
hIsland = hIsland.add(rect(9.991547744460171e-09, 4.812565948486528e-10).transl(-1.3102574707180659e-08, -4e-08, 0))
hIsland = hIsland.add(rect(2.309433315039791e-09, 1.5181661046735532e-09).transl(-7.469744875686509e-08, -4e-08, 0))
hIsland = hIsland.add(rect(6.961930786592398e-09, 9.296523050861094e-10).transl(8.431209274108361e-08, -4e-08, 0))
hIsland = hIsland.add(rect(5.723255531032499e-09, 1.6770251605755735e-09).transl(5.480371044390956e-08, -4e-08, 0))
hIsland = hIsland.sub(rect(6.20525535626399e-09, -6.549084663319153e-10).transl(-3.6660159237069295e-08, -4e-08, 0))
hIsland = hIsland.sub(rect(8.172845124666231e-09, -2.466967080398676e-09).transl(-6.026888447261656e-08, -4e-08, 0))
hIsland = hIsland.sub(rect(4.956328871750129e-09, -1.2247295604267816e-09).transl(2.1368419435852974e-08, -4e-08, 0))
hIsland = hIsland.sub(rect(3.73949488968771e-09, -4.214847258653071e-09).transl(6.140419514749531e-09, -4e-08, 0))
hIsland = hIsland.sub(rect(2.911494883114959e-09, -1.5535063298014224e-09).transl(5.2620331053842933e-08, -4e-08, 0))
hIsland = hIsland.sub(rect(5.302169178411064e-09, -1.616115691117654e-10).transl(1.4631580839671467e-07, -2.6257186827918383e-08, 0))
hIsland = hIsland.sub(rect(6.95803236966187e-09, -3.841289435674183e-09).transl(-6.327592124058501e-08, -4e-08, 0))
hIsland = hIsland.sub(rect(2.7007596136113616e-09, -1.3816059299406357e-09).transl(-2.193593890198734e-08, -4e-08, 0))
hIsland = hIsland.add(rect(2.859074503810452e-09, 1.848593187831469e-10).transl(-4.86347356418285e-08, -4e-08, 0))
hIsland = hIsland.add(rect(7.0400804008264805e-09, 2.196108026024239e-09).transl(-7.376035369342399e-08, -4e-08, 0))
hIsland = hIsland.add(rect(5.544559010493882e-09, 2.1668166366626946e-10).transl(3.837526672678509e-08, -4e-08, 0))
hIsland = hIsland.add(rect(7.523638584970723e-09, 7.471720198540404e-10).transl(-8.395932139098978e-08, -4e-08, 0))
hIsland = hIsland.sub(rect(4.890298803015681e-09, -5.158223646969871e-10).transl(-1.0088534204224549e-07, -4e-08, 0))
hIsland = hIsland.add(rect(3.876502304392052e-09, 3.048100808504804e-09).transl(6.990400787107295e-08, -4e-08, 0))
hIsland = hIsland.add(rect(4.07002661016082e-09, 1.6063870241713503e-09).transl(-1.4756670829952775e-07, -2.1840283679815084e-08, 0))
hIsland = hIsland.sub(rect(2.4635518036826912e-09, -6.433934022051068e-10).transl(8.669857655374175e-08, -4e-08, 0))
hIsland = hIsland.add(rect(4.0439139948551165e-09, 3.3492391030318383e-10).transl(-1.1291203636684365e-07, -4e-08, 0))
hIsland = hIsland.add(rect(9.361995549689074e-09, 3.233887250967017e-09).transl(-6.259736361572239e-08, -4e-08, 0))
hIsland = hIsland.add(rect(8.464148797035985e-09, 1.9744038242272987e-10).transl(6.18208255654471e-08, -4e-08, 0))
hIsland = hIsland.sub(rect(8.08588160376825e-09, -1.4096513509578934e-09).transl(4.735917067403489e-08, -4e-08, 0))
hIsland = hIsland.sub(rect(3.638521304521888e-09, -8.82807048082109e-10).transl(-5.973054300720239e-08, -4e-08, 0))
hIsland = hIsland.add(rect(3.241566802724087e-09, 4.3974227168046653e-10).transl(-1.0682939652009382e-07, -4e-08, 0))
hIsland = hIsland.sub(rect(3.80057903116422e-09, -7.810359619156655e-10).transl(-5.7853641786749524e-08, -4e-08, 0))
hIsland = hIsland.sub(rect(6.399869351258323e-09, -1.6128291723443334e-09).transl(-4.302607629178553e-08, -4e-08, 0))
hIsland = hIsland.add(rect(7.258991755573374e-09, 1.985257888855644e-11).transl(-1.0667299532959211e-07, -4e-08, 0))
hIsland = hIsland.sub(rect(6.999943872994917e-09, -1.570049964686492e-09).transl(-1.1923907356628896e-07, -4e-08, 0))
hIsland = hIsland.add(rect(8.484849981579496e-09, 1.267981895419807e-09).transl(-8.777446389186628e-09, -4e-08, 0))
hIsland = hIsland.sub(rect(3.8599455748597465e-09, -2.0307989167278416e-09).transl(9.93518284788384e-08, -4e-08, 0))
hIsland = hIsland.add(rect(5.733975560563159e-09, 1.189686587528189e-09).transl(-1.1406266551852755e-07, -4e-08, 0))
hIsland = hIsland.sub(rect(7.551594806067431e-09, -2.7186915326587953e-09).transl(-3.405392176794015e-08, -4e-08, 0))
hIsland = hIsland.add(rect(5.145932530051014e-09, 1.8851818802894317e-09).transl(1.4460157945047075e-07, -3.0731487673436257e-08, 0))
hIsland = hIsland.sub(rect(7.761532139136372e-09, -8.590251096234655e-10).transl(4.609435389588298e-08, -4e-08, 0))
hIsland = hIsland.add(rect(2.0732651474466667e-09, 2.04644212231865e-09).transl(7.161405565414556e-08, -4e-08, 0))
hIsland = hIsland.add(rect(3.499076168635673e-09, 1.1204475849016632e-09).transl(-1.4692368445081454e-07, -2.4268974119951458e-08, 0))
hIsland = hIsland.sub(rect(6.0319204369757014e-09, -5.428336979095794e-10).transl(-1.4096063929454883e-07, -3.6706236026075956e-08, 0))
hIsland = hIsland.sub(rect(5.56305800805826e-09, -1.8272088981956288e-10).transl(-1.0717899726288146e-07, -4e-08, 0))
hIsland = hIsland.sub(rect(4.901049078494239e-09, -4.058595414360444e-09).transl(-1.9733155699748385e-08, -4e-08, 0))
hIsland = hIsland.sub(rect(9.323500582700428e-09, -4.0176368930312484e-11).transl(-3.0832374716572127e-08, -4e-08, 0))
hIsland = hIsland.add(rect(2.894088727746375e-09, 1.822893151926026e-09).transl(3.956805546089714e-08, -4e-08, 0))
hIsland = hIsland.sub(rect(9.761113164876378e-09, -1.4437933157957143e-09).transl(1.2883550844397784e-07, -4e-08, 0))
hIsland = hIsland.sub(rect(8.961702691174139e-09, -8.305677014445168e-10).transl(-1.184858483315058e-07, -4e-08, 0))
hIsland = hIsland.sub(rect(6.914529800912292e-09, -7.925879220357617e-11).transl(-8.387544393629622e-08, -4e-08, 0))
hIsland = hIsland.add(rect(5.692868185368262e-09, 2.224015952941728e-09).transl(4.362219581798804e-08, -4e-08, 0))
hIsland = hIsland.sub(rect(9.316168956992428e-09, -2.41419204186907e-09).transl(-1.5477471628968194e-08, -4e-08, 0))
hIsland = hIsland.add(rect(9.806344635125276e-09, 6.467876133423468e-10).transl(3.461171963829942e-08, -4e-08, 0))
hIsland = hIsland.add(rect(9.607501399326694e-09, 3.0300379384534634e-09).transl(5.4954031079977496e-08, -4e-08, 0))
hIsland = hIsland.add(rect(5.98116959918567e-09, 2.876344240695336e-09).transl(-8.791768715093294e-09, -4e-08, 0))
hIsland = hIsland.sub(rect(3.048696452621398e-09, -5.016342969845154e-10).transl(-7.734814222841405e-08, -4e-08, 0))
hIsland = hIsland.add(rect(3.59848786031513e-09, 1.2026549397352762e-09).transl(-2.7676370110022917e-08, -4e-08, 0))
hIsland = hIsland.add(rect(4.760075404137006e-09, 2.528174177299505e-09).transl(8.436147745147262e-08, -4e-08, 0))
hIsland = hIsland.add(rect(8.799783415921845e-09, 2.6351502557364285e-09).transl(4.7085134982478476e-08, -4e-08, 0))
hIsland = hIsland.sub(rect(9.504103247382749e-09, -6.223972444717589e-10).transl(2.9532282259960387e-08, -4e-08, 0))
hIsland = hIsland.sub(rect(9.481324451173343e-09, -1.1566946802004499e-09).transl(-4.916568241951112e-08, -4e-08, 0))
hIsland = hIsland.add(rect(3.771677518643598e-09, 3.2683400286121392e-09).transl(-5.48926253373975e-08, -4e-08, 0))
hIsland = hIsland.sub(rect(5.438004540895935e-09, -1.3726851241108373e-09).transl(5.427878032206038e-08, -4e-08, 0))
hIsland = hIsland.sub(rect(6.476163755195593e-09, -2.2962609450036703e-09).transl(-1.885387445030435e-08, -4e-08, 0))
hIsland = hIsland.sub(rect(9.359972891844987e-09, -4.547458859636447e-09).transl(6.755374591273163e-08, -4e-08, 0))
hIsland = hIsland.sub(rect(5.0393495383670805e-09, -2.666568683944239e-09).transl(6.584661361556832e-08, -4e-08, 0))
hIsland = hIsland.add(rect(9.034766029336478e-09, 5.395969629751842e-10).transl(-5.5366452976867725e-08, -4e-08, 0))
hIsland = hIsland.sub(rect(2.210847705322033e-09, -8.29286573418927e-10).transl(-1.5188462578170315e-08, -4e-08, 0))
hIsland = hIsland.sub(rect(3.0769887051461683e-09, -1.7857869660222345e-09).transl(4.636412105396359e-08, -4e-08, 0))
hIsland = hIsland.add(rect(7.782980273067723e-09, 4.41923858283801e-09).transl(-8.226887833242502e-08, -4e-08, 0))
hIsland = hIsland.add(rect(9.140685627264336e-09, 2.855172839199551e-09).transl(-7.712937353111314e-08, -4e-08, 0))
hIsland = hIsland.sub(rect(9.382945181849303e-09, -9.410978377048266e-10).transl(2.3758295255932254e-08, -4e-08, 0))
hIsland = hIsland.add(rect(4.479724965475781e-09, 2.0519973904085996e-09).transl(1.2981059959734563e-07, -4e-08, 0))
hIsland = hIsland.add(rect(2.824387698289105e-09, 2.332127628515918e-09).transl(9.980167465213018e-08, -4e-08, 0))
hIsland = hIsland.sub(rect(9.378705232457419e-09, -2.251157620513047e-09).transl(1.3342671239233286e-07, -4e-08, 0))
hIsland = hIsland.add(rect(3.0957932474430978e-09, 7.727500659912208e-10).transl(8.162183606699872e-08, -4e-08, 0))
hIsland = hIsland.sub(rect(6.57516010038909e-09, -2.6466913402741288e-09).transl(-1.1090389404591399e-07, -4e-08, 0))
hIsland = hIsland.sub(rect(8.307337845119005e-09, -6.522534356467317e-10).transl(-2.226912295684078e-08, -4e-08, 0))
hIsland = hIsland.sub(rect(9.25098617816616e-09, -1.3507592988540093e-09).transl(-5.810724394608289e-08, -4e-08, 0))
hIsland = hIsland.add(rect(2.255308390789213e-09, 1.3497825534944415e-09).transl(-7.436729832303194e-08, -4e-08, 0))
hIsland = hIsland.sub(rect(7.056759939626578e-09, -1.6483110024766761e-09).transl(1.1532494910699724e-07, -4e-08, 0))
hIsland = hIsland.sub(rect(7.348081000134031e-09, -2.6515391640904235e-09).transl(-1.2131399032349166e-07, -4e-08, 0))
hIsland = hIsland.sub(rect(9.370571761648156e-09, -6.201011114021714e-09).transl(1.3447854956709097e-07, -4e-08, 0))
hIsland = hIsland.add(rect(6.793765395516449e-09, 2.2278877147765885e-09).transl(9.44394215455387e-08, -4e-08, 0))
hIsland = hIsland.sub(rect(2.054422787545919e-09, -4.6178499625438843e-10).transl(-3.1870748240882453e-09, -4e-08, 0))
hIsland = hIsland.sub(rect(8.17631762741597e-09, -4.696877171656158e-09).transl(8.175822847222864e-09, -4e-08, 0))
hIsland = hIsland.sub(rect(9.109296950336062e-09, -1.9462168742129378e-10).transl(-7.285698985835877e-08, -4e-08, 0))
hIsland = hIsland.sub(rect(7.33085110494905e-09, -4.1813053005861783e-11).transl(-2.5338749788739004e-08, -4e-08, 0))
hIsland = hIsland.sub(rect(9.12427111710151e-09, -2.9438538287860465e-09).transl(3.19075861687061e-08, -4e-08, 0))
hIsland = hIsland.sub(rect(4.090891688679749e-09, -1.235385594973488e-09).transl(7.935068064218132e-08, -4e-08, 0))
hIsland = hIsland.add(rect(9.850039389187856e-09, 2.7849235285628315e-12).transl(2.2527726203394806e-08, -4e-08, 0))
hIsland = hIsland.sub(rect(8.362188521171007e-09, -2.1005448919707946e-09).transl(5.527569033974617e-08, -4e-08, 0))
hIsland = hIsland.sub(rect(7.649068666613202e-09, -3.040745797491326e-09).transl(6.201882286474217e-08, -4e-08, 0))
hIsland = hIsland.sub(rect(9.973995533822873e-09, -1.0976023847963843e-09).transl(1.2547759502817678e-07, -4e-08, 0))
hIsland = hIsland.sub(rect(5.6829628135858e-09, -1.1097705475681624e-09).transl(1.0778676715134442e-08, -4e-08, 0))
hIsland = hIsland.sub(rect(3.2236694618852993e-09, -1.919144068653357e-10).transl(8.637333755806825e-08, -4e-08, 0))
hIsland = hIsland.sub(rect(8.76459931492014e-09, -1.463467039765301e-09).transl(-9.22596940846738e-08, -4e-08, 0))
hIsland = hIsland.add(rect(7.899269379344508e-09, 8.416978296572824e-10).transl(-5.578548260898587e-08, -4e-08, 0))
hIsland = hIsland.sub(rect(5.137741668813513e-09, -5.818952457195655e-10).transl(1.3345458058768402e-08, -4e-08, 0))
hIsland = hIsland.sub(rect(7.788802382427887e-09, -7.059051410993482e-10).transl(-1.5978420344702653e-08, -4e-08, 0))
hIsland = hIsland.add(rect(8.882026136394355e-09, 4.083080445665186e-09).transl(1.2645510632660965e-07, -4e-08, 0))
hIsland = hIsland.add(rect(3.0965730932199342e-09, 1.11875938939595e-09).transl(-9.117288480689876e-08, -4e-08, 0))
hIsland = hIsland.add(rect(8.578955023336481e-09, 1.8288158889041536e-09).transl(-9.798530831280926e-08, -4e-08, 0))
hIsland = hIsland.add(rect(9.10152958949697e-09, 3.8411191246902405e-09).transl(1.4029638384749213e-07, -3.7423540364858255e-08, 0))
hIsland = hIsland.sub(rect(8.208952780306276e-09, -3.062825349909823e-09).transl(-1.466870973504263e-07, -2.507400680072711e-08, 0))
hIsland = hIsland.add(rect(2.2029039568047024e-09, 5.201704464195322e-10).transl(7.366144403870822e-08, -4e-08, 0))
hIsland = hIsland.sub(rect(5.902936406080303e-09, -2.3321009910655256e-09).transl(7.555163988314871e-08, -4e-08, 0))
hIsland = hIsland.sub(rect(8.938611389420504e-09, -2.256217888312967e-10).transl(-7.287122981470975e-08, 4e-08, 0))
hIsland = hIsland.sub(rect(3.246175738875625e-09, -9.415502263364292e-10).transl(-6.836766668148504e-08, 4e-08, 0))
hIsland = hIsland.sub(rect(5.393651845670605e-09, -2.116713351810173e-09).transl(1.0978717858201358e-07, 4e-08, 0))
hIsland = hIsland.add(rect(8.215339307868301e-09, 2.8191675123096696e-09).transl(7.018085017060726e-08, 4e-08, 0))
hIsland = hIsland.add(rect(3.862001615649081e-09, 3.3433079497873515e-10).transl(1.2110667074815463e-07, 4e-08, 0))
hIsland = hIsland.add(rect(7.764812595225176e-09, 2.133032883612053e-09).transl(-9.748828868161733e-08, 4e-08, 0))
hIsland = hIsland.add(rect(3.248995428285965e-09, 1.5257418433710047e-09).transl(-3.521376544334695e-08, 4e-08, 0))
hIsland = hIsland.add(rect(3.798063018937668e-09, 3.007669213292371e-10).transl(2.3455882129137813e-08, 4e-08, 0))
hIsland = hIsland.sub(rect(3.114012966779213e-09, -2.034466207997395e-09).transl(-1.384458819705399e-07, 3.893021882018436e-08, 0))
hIsland = hIsland.add(rect(2.383433203617685e-09, 1.1345043302154289e-09).transl(-4.878260780439672e-08, 4e-08, 0))
hIsland = hIsland.add(rect(5.457498529567404e-09, 5.636923270442234e-10).transl(1.750755861814912e-08, 4e-08, 0))
hIsland = hIsland.add(rect(4.410292292991304e-09, 1.134698530720671e-09).transl(3.641023129134136e-08, 4e-08, 0))
hIsland = hIsland.sub(rect(5.296788723282455e-09, -3.238331522920273e-10).transl(1.2257051962022264e-07, 4e-08, 0))
hIsland = hIsland.sub(rect(5.638132316968129e-09, -1.3824816839720812e-09).transl(9.109067089660552e-08, 4e-08, 0))
hIsland = hIsland.sub(rect(8.066407918058137e-09, -7.698463876433504e-10).transl(-4.8529878580562105e-09, 4e-08, 0))
hIsland = hIsland.add(rect(6.7067639835743745e-09, 4.562016890673037e-09).transl(7.14982835047131e-08, 4e-08, 0))
hIsland = hIsland.sub(rect(8.574279904981867e-09, -3.7211521727347915e-09).transl(1.4882133876855539e-07, 1.5542479629386394e-08, 0))
hIsland = hIsland.sub(rect(5.5527880371191745e-09, -4.158766549368562e-10).transl(9.874546784384371e-08, 4e-08, 0))
hIsland = hIsland.sub(rect(4.079266552407118e-09, -2.4392934960948845e-10).transl(1.4111041348861298e-07, 3.6530690609834895e-08, 0))
hIsland = hIsland.sub(rect(3.7061912790655005e-09, -2.6507496689200224e-09).transl(9.293067241913589e-08, 4e-08, 0))
hIsland = hIsland.sub(rect(4.480723134394025e-09, -3.805087705744022e-10).transl(-1.3302965405646974e-07, 4e-08, 0))
hIsland = hIsland.add(rect(7.684577614982014e-09, 1.1528200086129438e-09).transl(-2.058469879432877e-08, 4e-08, 0))
hIsland = hIsland.add(rect(2.3114624121601396e-09, 9.568553439389572e-10).transl(8.7583790218982e-08, 4e-08, 0))
hIsland = hIsland.sub(rect(4.835733696526998e-09, -3.0362288431991874e-10).transl(7.142064788191303e-08, 4e-08, 0))
hIsland = hIsland.sub(rect(8.18086490337093e-09, -1.7754364271435007e-09).transl(8.924060994648e-08, 4e-08, 0))
hIsland = hIsland.add(rect(9.993615876335903e-09, 7.689628046578828e-10).transl(3.51045566687003e-08, 4e-08, 0))
hIsland = hIsland.sub(rect(7.864210733964035e-09, -2.295036454574093e-09).transl(-3.074275946463291e-08, 4e-08, 0))
hIsland = hIsland.add(rect(5.618229816785848e-09, 1.1976113849701572e-09).transl(4.309894055468591e-09, 4e-08, 0))
hIsland = hIsland.sub(rect(5.9149080599229984e-09, -4.6534128481481035e-09).transl(2.3656502240365535e-08, 4e-08, 0))
hIsland = hIsland.sub(rect(3.3395056191526024e-09, -2.0315992712483075e-09).transl(1.1535429564228309e-07, 4e-08, 0))
hIsland = hIsland.sub(rect(8.561055732176496e-09, -4.701462910911882e-10).transl(-4.8821821247837405e-08, 4e-08, 0))
hIsland = hIsland.sub(rect(5.157273856345063e-09, -6.769733411867428e-10).transl(9.643176867322957e-08, 4e-08, 0))
hIsland = hIsland.add(rect(2.2629306952109237e-09, 3.0799914318088767e-09).transl(-1.0176622429215169e-07, 4e-08, 0))
hIsland = hIsland.sub(rect(8.145168752384578e-09, -1.7900673306902832e-09).transl(5.83522200827989e-09, 4e-08, 0))
hIsland = hIsland.add(rect(6.118420137984198e-09, 5.99136862617154e-09).transl(-3.5520742968212215e-08, 4e-08, 0))
hIsland = hIsland.add(rect(6.181353734502331e-09, 4.922670639750242e-09).transl(7.495851584186606e-08, 4e-08, 0))
hIsland = hIsland.sub(rect(9.298384185040961e-09, -1.4960580208852625e-09).transl(-1.3780532787141876e-07, 3.929423010254507e-08, 0))
hIsland = hIsland.sub(rect(9.914295805363602e-09, -3.781935820355829e-09).transl(4.451302501104328e-08, 4e-08, 0))
hIsland = hIsland.add(rect(6.029417954290078e-09, 1.720531503290071e-09).transl(-8.132280970780927e-08, 4e-08, 0))
hIsland = hIsland.add(rect(2.788002014495123e-09, 1.9195177369535627e-09).transl(3.001438737140941e-08, 4e-08, 0))
hIsland = hIsland.sub(rect(4.310713565062573e-09, -3.342737271499472e-11).transl(4.040099104163973e-09, 4e-08, 0))
hIsland = hIsland.sub(rect(4.650763625804757e-09, -7.981775399581208e-10).transl(-9.081328949339288e-08, 4e-08, 0))
hIsland = hIsland.sub(rect(4.968025955003584e-09, -2.495490599596469e-10).transl(8.08993289941714e-08, 4e-08, 0))
hIsland = hIsland.sub(rect(4.718464194560651e-09, -2.943787478514077e-10).transl(-1.281802024524361e-07, 4e-08, 0))
hIsland = hIsland.add(rect(6.650187033112307e-09, 2.98281924716019e-09).transl(-1.0709896102604215e-07, 4e-08, 0))
hIsland = hIsland.sub(rect(9.766691784763815e-09, -3.843727714616351e-09).transl(-7.239836222728556e-08, 4e-08, 0))
hIsland = hIsland.add(rect(2.4192571808367722e-09, 2.5378422853175515e-09).transl(-8.936879743016375e-08, 4e-08, 0))
hIsland = hIsland.add(rect(6.498941014385871e-09, 3.9351499344227285e-10).transl(4.0025623174087955e-08, 4e-08, 0))
hIsland = hIsland.sub(rect(2.757514336590883e-09, -1.3932402984436476e-09).transl(7.026310988292874e-08, 4e-08, 0))
hIsland = hIsland.add(rect(4.706622326499106e-09, 8.524979454255707e-10).transl(-2.0803177466436147e-08, 4e-08, 0))
hIsland = hIsland.add(rect(5.689919514004785e-09, 2.170607775535942e-09).transl(-1.1196660078363869e-07, 4e-08, 0))
hIsland = hIsland.sub(rect(8.168199351034744e-09, -2.0384469521167055e-09).transl(8.0906181212799e-08, 4e-08, 0))
hIsland = hIsland.sub(rect(6.132554332492036e-09, -9.716104145925325e-10).transl(8.80948387804378e-08, 4e-08, 0))
hIsland = hIsland.add(rect(9.763415613687653e-09, 2.406624819707216e-09).transl(-5.2093846017943785e-08, 4e-08, 0))
hIsland = hIsland.sub(rect(2.065130104310015e-09, -5.721475720842783e-10).transl(1.4469709329459923e-08, 4e-08, 0))
hIsland = hIsland.add(rect(6.446527656886229e-09, 2.2245830646624426e-09).transl(2.474150835264455e-08, 4e-08, 0))
hIsland = hIsland.add(rect(4.748044773705772e-09, 1.4836093428326425e-10).transl(-2.928331598339587e-08, 4e-08, 0))
hIsland = hIsland.sub(rect(7.413064078230903e-09, -3.232133229652668e-09).transl(4.449556799437226e-08, 4e-08, 0))
hIsland = hIsland.sub(rect(3.5833041665003535e-09, -4.320135386039564e-09).transl(3.68986246579712e-08, 4e-08, 0))
hIsland = hIsland.sub(rect(7.182223923954487e-09, -4.502247220187093e-09).transl(-8.28487675315607e-08, 4e-08, 0))
hIsland = hIsland.add(rect(5.878077990424668e-09, 1.3265352279804994e-09).transl(-1.1781874805911593e-07, 4e-08, 0))
hIsland = hIsland.add(rect(9.245747981894707e-09, 1.9520105096319763e-09).transl(-3.4820678861309305e-08, 4e-08, 0))
hIsland = hIsland.add(rect(6.667765831366455e-09, 5.018595842886066e-10).transl(-1.3060886770844544e-07, 4e-08, 0))
hIsland = hIsland.add(rect(7.745248566059235e-09, 1.1269694864710085e-09).transl(8.982681576574327e-08, 4e-08, 0))
hIsland = hIsland.add(rect(5.285872390959065e-09, 2.376558965418656e-09).transl(1.276915381602013e-07, 4e-08, 0))
hIsland = hIsland.sub(rect(4.574488414717391e-09, -7.42575185311193e-10).transl(-8.982031670011412e-08, 4e-08, 0))
hIsland = hIsland.add(rect(4.800605822030733e-09, 2.6567103218636167e-10).transl(4.0556322228582627e-08, 4e-08, 0))
hIsland = hIsland.sub(rect(4.2734641610461835e-09, -2.272230477035881e-09).transl(-6.507964107192131e-08, 4e-08, 0))
hIsland = hIsland.add(rect(4.3806290312644465e-09, 1.2378509884167446e-09).transl(-7.817195817957709e-08, 4e-08, 0))
hIsland = hIsland.add(rect(3.6011207872432697e-09, 1.7889207737412893e-09).transl(1.4781445576801953e-07, 2.0791403927922225e-08, 0))
hIsland = hIsland.sub(rect(5.598907851297316e-09, -2.390222213436714e-09).transl(-5.357028316687698e-08, 4e-08, 0))
hIsland = hIsland.sub(rect(7.099679824205742e-09, -6.156120649472234e-10).transl(-1.463396777773605e-07, 2.6183856998711476e-08, 0))
hIsland = hIsland.add(rect(9.100002083714764e-09, 2.98496237212929e-09).transl(3.473566075758641e-08, 4e-08, 0))
hIsland = hIsland.add(rect(6.132381963003325e-09, 4.877544606588671e-09).transl(-9.247877850589443e-08, 4e-08, 0))
hIsland = hIsland.sub(rect(9.600452930496798e-09, -2.9763024104344927e-09).transl(-1.29665606626355e-07, 4e-08, 0))
hIsland = hIsland.sub(rect(6.020130090611114e-09, -1.7604480688350567e-09).transl(-3.6250585335108086e-08, 4e-08, 0))
hIsland = hIsland.sub(rect(5.664628856407259e-09, -1.8312826615997425e-09).transl(7.610957633853705e-08, 4e-08, 0))
hIsland = hIsland.add(rect(7.999135115147298e-09, 7.464827271956593e-10).transl(1.5658951442153027e-08, 4e-08, 0))
hIsland = hIsland.add(rect(9.679322109222735e-09, 3.6946271420850203e-10).transl(1.196144600943086e-07, 4e-08, 0))
hIsland = hIsland.sub(rect(6.5627876207762275e-09, -1.4918124458026227e-09).transl(3.340066323019962e-08, 4e-08, 0))
hIsland = hIsland.sub(rect(5.518923298998219e-09, -3.1526354461093905e-09).transl(-3.663471718357069e-08, 4e-08, 0))
hIsland = hIsland.sub(rect(5.873720262529059e-09, -1.3582676364800602e-09).transl(-1.2211654769210946e-07, 4e-08, 0))
hIsland = hIsland.add(rect(2.045678986996406e-09, 1.208402577921638e-09).transl(1.1821470121453934e-07, 4e-08, 0))
hIsland = hIsland.add(rect(2.199081602958204e-09, 2.6323942777151885e-09).transl(-5.971033417289724e-08, 4e-08, 0))
hIsland = hIsland.sub(rect(7.796754191610898e-09, -1.1548104426512404e-09).transl(9.874286857357572e-08, 4e-08, 0))
hIsland = hIsland.add(rect(2.0139985539272338e-09, 6.383401029627724e-10).transl(2.7886320870438967e-08, 4e-08, 0))
hIsland = hIsland.sub(rect(2.210234917789979e-09, -2.194796862318524e-09).transl(-9.775480419855192e-08, 4e-08, 0))
hIsland = hIsland.add(rect(4.5328037915780245e-09, 2.829102863404464e-09).transl(8.885770586851056e-08, 4e-08, 0))
hIsland = hIsland.add(rect(2.2539360157623246e-09, 6.248292332254546e-10).transl(-5.3292788187375214e-08, 4e-08, 0))
hIsland = hIsland.sub(rect(3.4829167949061957e-09, -1.2208460177600615e-10).transl(-4.036207589483039e-08, 4e-08, 0))
hIsland = hIsland.add(rect(2.7567828940773477e-09, 1.1607968024746024e-09).transl(8.766259595595201e-08, 4e-08, 0))
hIsland = hIsland.sub(rect(4.954745974125816e-09, -2.31405856539855e-09).transl(-8.741404372995496e-08, 4e-08, 0))
hIsland = hIsland.add(rect(5.229895361169208e-09, 1.8463842984993088e-09).transl(1.4768700062791475e-07, 2.134000146908939e-08, 0))
hIsland = hIsland.sub(rect(6.164779561945472e-09, -9.368373158624146e-10).transl(-1.2717706249118598e-07, 4e-08, 0))
hIsland = hIsland.add(rect(6.2085539824971946e-09, 1.2154280020668117e-09).transl(-2.783684525619039e-08, 4e-08, 0))
hIsland = hIsland.add(rect(6.900723812337415e-09, 7.235936356340317e-11).transl(8.877802809307428e-09, 4e-08, 0))
hIsland = hIsland.sub(rect(5.723164519192449e-09, -2.049089543675667e-10).transl(-1.0956145412390459e-07, 4e-08, 0))
hIsland = hIsland.sub(rect(4.6386371809556946e-09, -3.063375207354364e-10).transl(6.483572287245472e-08, 4e-08, 0))
hIsland = hIsland.add(rect(6.364278870777972e-09, 1.9076532034758607e-10).transl(1.4157492647553279e-07, 3.59525951433051e-08, 0))
hIsland = hIsland.sub(rect(4.180577467681326e-09, -1.6999535770873675e-09).transl(-2.5247071784384465e-08, 4e-08, 0))
hIsland = hIsland.sub(rect(8.920783309257612e-09, -5.690804589714765e-10).transl(-9.630881947387111e-08, 4e-08, 0))
hIsland = hIsland.add(rect(3.118313035583489e-09, 3.1591604520000947e-10).transl(1.2190450981091194e-07, 4e-08, 0))
hIsland = hIsland.sub(rect(8.4347697533408e-09, -1.4108737342437368e-09).transl(-1.475505835498096e-07, 2.190611929675241e-08, 0))
hIsland = hIsland.sub(rect(6.248827500601202e-09, -2.799409244703492e-09).transl(-8.880753805722994e-08, 4e-08, 0))
hIsland = hIsland.sub(rect(8.533771917429498e-09, -3.3815314635505552e-09).transl(4.557458555683902e-08, 4e-08, 0))
hIsland = hIsland.sub(rect(2.689601282075918e-09, -4.3957079859712465e-09).transl(1.1374246266352704e-07, 4e-08, 0))
hIsland = hIsland.add(rect(2.789116980920899e-09, 1.6272523759483516e-11).transl(-7.376638889585134e-08, 4e-08, 0))
hIsland = hIsland.add(rect(5.4895819615336256e-09, 6.504136876492474e-10).transl(1.4412113358121845e-07, 3.175516584464548e-08, 0))
hIsland = hIsland.sub(rect(9.443739855196157e-09, -1.8229174389737843e-09).transl(-1.0790999158000179e-07, 4e-08, 0))
hIsland = hIsland.sub(rect(5.57720506269e-09, -1.196831954605714e-09).transl(1.1041733157770716e-07, 4e-08, 0))
hIsland = hIsland.add(rect(7.713391537806522e-09, 1.19050134334043e-09).transl(-1.799863610619459e-08, 4e-08, 0))
hIsland = hIsland.sub(rect(6.742967932830565e-09, -3.7761431599335685e-09).transl(-7.478593058901181e-08, 4e-08, 0))
hIsland = hIsland.add(rect(3.933095076380545e-09, 9.047428776502149e-10).transl(-1.2035287899570205e-07, 4e-08, 0))
hIsland = hIsland.sub(rect(2.0526201264308884e-09, -4.0412135149259214e-09).transl(-1.3906428073652584e-07, 3.850371383827961e-08, 0))
hIsland = hIsland.sub(rect(5.109300968367392e-09, -3.1417286229447528e-09).transl(-4.91748774640187e-09, 4e-08, 0))
hIsland = hIsland.add(rect(4.000549956367493e-09, 1.7334419637563058e-09).transl(8.634672423067725e-08, 4e-08, 0))
hIsland = hIsland.sub(rect(3.341082521258181e-09, -4.813023134513958e-09).transl(1.3198574384866888e-07, 4e-08, 0))
hIsland = hIsland.sub(rect(3.7046575979394095e-09, -1.6532970672676037e-09).transl(1.3208152643404986e-07, 4e-08, 0))
hIsland = hIsland.sub(rect(6.242664122088723e-09, -4.2027673500863556e-10).transl(-9.732581735308946e-08, 4e-08, 0))
hIsland = hIsland.add(rect(4.710246322620953e-09, 8.861319205609764e-10).transl(-1.1261734900899829e-07, 4e-08, 0))
hIsland = hIsland.add(rect(4.565401236052719e-09, 2.2032370773096457e-09).transl(-1.271223111974004e-07, 4e-08, 0))
hIsland = hIsland.sub(rect(9.47276728722574e-09, -2.8964097004281824e-09).transl(-1.1347693747772554e-07, 4e-08, 0))
hIsland = hIsland.sub(rect(9.497872549581122e-09, -1.0596722342231203e-09).transl(1.159122352383747e-08, 4e-08, 0))
hIsland = hIsland.add(rect(9.73463665145292e-09, 9.941057230157237e-10).transl(7.555036908012172e-08, 4e-08, 0))
hIsland = hIsland.add(rect(6.970493504628258e-09, 7.287968499155802e-10).transl(-4.247790911222384e-08, 4e-08, 0))
hIsland = hIsland.sub(rect(2.9368502604778934e-09, -3.875789866030093e-11).transl(1.4275451282951092e-07, 3.424020049546188e-08, 0))
hIsland = hIsland.add(rect(5.0266795144653306e-09, 6.88594623217274e-10).transl(-1.3960354501461656e-07, 3.8069631949739366e-08, 0))
hIsland = hIsland.add(rect(3.6450420297499514e-09, 3.1263317430213688e-09).transl(1.0633045802657917e-07, 4e-08, 0))
hIsland = hIsland.add(rect(8.363654312082568e-09, 3.312637901543957e-09).transl(-7.849499882403453e-08, 4e-08, 0))
hIsland = hIsland.sub(rect(4.32560870584666e-09, -1.4570721287222088e-09).transl(-1.7323608487135885e-08, 4e-08, 0))
hIsland = hIsland.add(rect(2.9665792022525113e-09, 1.1073501426563866e-09).transl(-5.3616066589459753e-08, 4e-08, 0))
hIsland = hIsland.add(rect(3.5827297991202844e-09, 1.9164018316504107e-10).transl(-1.7540735929944982e-08, 4e-08, 0))
hIsland = hIsland.sub(rect(2.1854268564840986e-09, -1.5101421323707736e-10).transl(-1.4088810018928884e-07, 3.678939713543293e-08, 0))
hIsland = hIsland.add(rect(7.466183052683013e-09, 6.740961066645416e-09).transl(1.208014701348255e-07, 4e-08, 0))
hIsland = hIsland.add(rect(3.602772452899082e-09, 1.3882118736752517e-09).transl(-1.2558539483518811e-07, 4e-08, 0))
hIsland = hIsland.add(rect(6.252635513499009e-09, 4.730368500441771e-10).transl(5.720946470532106e-08, 4e-08, 0))
hIsland = hIsland.sub(rect(8.990569853412294e-09, -1.4530759185555711e-09).transl(8.870400197341405e-08, 4e-08, 0))
hIsland = hIsland.add(rect(6.8313649672400774e-09, 3.1109979691443555e-10).transl(1.2373337704260364e-07, 4e-08, 0))
hIsland = hIsland.add(rect(4.005661120278982e-09, 1.6930927035747971e-09).transl(3.097779266038666e-08, 4e-08, 0))
hIsland = hIsland.add(rect(7.412131630827804e-09, 4.481601363817451e-09).transl(-6.067865265068987e-08, 4e-08, 0))
hIsland = hIsland.sub(rect(8.729173435239514e-09, -2.2486588905742108e-09).transl(7.728875301581135e-08, 4e-08, 0))
hIsland = hIsland.sub(rect(2.707188145816349e-09, -5.793223590096328e-10).transl(1.0079624778376294e-07, 4e-08, 0))
hIsland = hIsland.add(rect(8.01198278897384e-09, 2.2357224979584084e-09).transl(-1.0075732096450006e-07, 4e-08, 0))
hIsland = hIsland.sub(rect(2.7277535171203847e-09, -2.098682644164772e-09).transl(-1.2207922661159534e-07, 4e-08, 0))
hIsland = hIsland.sub(rect(6.042212474388014e-09, -3.810864719145947e-10).transl(-5.858370081015111e-08, 4e-08, 0))
hIsland = hIsland.add(rect(3.807084990515994e-09, 3.202404660731169e-09).transl(8.257746792133604e-08, 4e-08, 0))
hIsland = hIsland.sub(rect(3.792930117471195e-09, -1.2016220496254866e-09).transl(6.235007091191415e-08, 4e-08, 0))
hIsland = hIsland.sub(rect(6.469488057265909e-09, -1.434519824892067e-10).transl(-8.659390768053762e-08, 4e-08, 0))
hIsland = hIsland.sub(rect(2.087299211099423e-09, -6.454363568777493e-10).transl(3.543632230697427e-08, 4e-08, 0))
hIsland = hIsland.sub(rect(7.962976595597403e-09, -1.4487373778409106e-09).transl(9.22498990558124e-08, 4e-08, 0))
hIsland = hIsland.sub(rect(9.864272469058144e-09, -6.397243524764738e-10).transl(-1.473540074836314e-07, 2.2686814432960646e-08, 0))
hIsland = hIsland.add(rect(5.194543513461247e-09, 2.8818467699932484e-09).transl(-8.100493105291534e-08, 4e-08, 0))
hIsland = hIsland.sub(rect(5.862910746044194e-09, -2.865536053064895e-09).transl(-1.1900848188103926e-07, 4e-08, 0))
hIsland = hIsland.add(rect(3.0531939243852045e-09, 2.2153069436883424e-09).transl(1.4852670289200849e-07, 1.728779841958261e-08, 0))
hIsland = hIsland.add(rect(3.4611434094632375e-09, 3.6753513779464076e-09).transl(1.1668267299096046e-07, 4e-08, 0))
hIsland = hIsland.add(rect(2.4150065657277583e-09, 1.0006439696153419e-09).transl(-1.2496576486045553e-07, 4e-08, 0))
hIsland = hIsland.sub(rect(4.619239989138433e-09, -1.1338246345168132e-09).transl(-1.4374319558962587e-07, 3.2502338337108774e-08, 0))
hIsland = hIsland.add(rect(2.1583611975465872e-09, 2.431177897657348e-10).transl(6.1911947601814e-08, 4e-08, 0))
hIsland = hIsland.add(rect(9.792858391293489e-09, 5.234008746762917e-10).transl(-1.1600785065999997e-07, 4e-08, 0))
hIsland = hIsland.add(rect(8.917977930086285e-09, 1.5569470469785931e-09).transl(-9.500017972911397e-08, 4e-08, 0))
hIsland = hIsland.sub(rect(9.502253095553713e-09, -1.9227946351963625e-09).transl(-7.490384916508899e-08, 4e-08, 0))
hIsland = hIsland.sub(rect(4.336355597184762e-09, -7.355078457722462e-10).transl(-9.571658382526834e-08, 4e-08, 0))
hIsland = hIsland.add(rect(9.737287416654607e-09, 4.371320303554418e-10).transl(-8.990751708315072e-08, 4e-08, 0))
hIsland = hIsland.sub(rect(9.242075317624153e-09, -2.005351815361212e-09).transl(5.794699315139754e-08, 4e-08, 0))
hIsland = hIsland.add(rect(8.415688359428436e-09, 1.0922070060711889e-09).transl(-1.1763919521683867e-07, 4e-08, 0))
hIsland = hIsland.add(rect(8.7563455507241e-09, 1.204420442456917e-09).transl(2.7580113910535536e-08, 4e-08, 0))
hIsland = hIsland.add(rect(3.85811356025354e-09, 4.048025342960313e-10).transl(1.4484276336926228e-07, 3.018402924364212e-08, 0))
hIsland = hIsland.sub(rect(9.594351469811517e-09, -1.0901943514330464e-09).transl(7.980988537987252e-08, 4e-08, 0))
hIsland = hIsland.sub(rect(6.219121047905613e-09, -2.598483297887277e-09).transl(4.897090790748344e-08, 4e-08, 0))
hIsland = hIsland.sub(rect(3.876995846598038e-09, -5.506258295702985e-10).transl(1.346299935276214e-07, 4e-08, 0))
hIsland = hIsland.add(rect(6.47251707165201e-09, 3.0403314669790207e-09).transl(-5.202894013836335e-08, 4e-08, 0))
hIsland = hIsland.sub(rect(6.7921150270751004e-09, -2.1405595839052554e-09).transl(1.0519865996508644e-08, 4e-08, 0))
hIsland = hIsland.add(rect(4.83435982874601e-09, 1.6588137572380104e-09).transl(-6.909869896755474e-08, 4e-08, 0))
hIsland = hIsland.sub(rect(6.2523488369099965e-09, -2.1640176210964158e-09).transl(-9.118223895918997e-08, 4e-08, 0))
hIsland = hIsland.add(rect(3.183798546979052e-09, 1.7488379587221693e-09).transl(4.712833858759343e-08, 4e-08, 0))
hIsland = hIsland.add(rect(7.989108205763714e-09, 1.2053362567663297e-09).transl(1.147278231634838e-07, 4e-08, 0))
hIsland = hIsland.sub(rect(9.711405252292979e-09, -2.051725219310824e-09).transl(-5.7298344768722626e-09, 4e-08, 0))
hIsland = hIsland.sub(rect(5.130351793043608e-09, -1.2192950974290273e-09).transl(1.1756389250688237e-07, 4e-08, 0))
hIsland = hIsland.sub(rect(7.2285231369299035e-09, -4.547506853196747e-09).transl(7.415365217952212e-08, 4e-08, 0))
hIsland = hIsland.add(rect(9.53444443609659e-09, 3.211353120660624e-09).transl(4.929648720875139e-08, 4e-08, 0))
hIsland = hIsland.sub(rect(4.456840448131626e-09, -3.576954762461728e-09).transl(-8.087352688994116e-08, 4e-08, 0))
hIsland = hIsland.add(rect(7.606090489306751e-09, 3.698271793866589e-10).transl(-8.918401071909788e-09, 4e-08, 0))
hIsland = hIsland.sub(rect(4.216770351316661e-09, -2.2513459768040723e-09).transl(-8.89450919330719e-08, 4e-08, 0))
hIsland = hIsland.add(rect(2.455715997063808e-09, 6.201605773772322e-10).transl(-2.513837179990617e-08, 4e-08, 0))
hIsland = hIsland.sub(rect(7.333586962469397e-09, -5.319909049735761e-10).transl(-9.670702432515874e-08, 4e-08, 0))
hIsland = hIsland.add(rect(8.830945930848138e-09, 3.321904914960134e-09).transl(1.1429008725943155e-07, 4e-08, 0))
hIsland = hIsland.sub(rect(4.986118113132265e-09, -1.2596993060584094e-09).transl(-4.998479032663712e-08, 4e-08, 0))
hIsland = hIsland.sub(rect(8.314402404903732e-09, -1.6432799793912678e-10).transl(-1.613833375341934e-08, 4e-08, 0))
hIsland = hIsland.add(rect(6.808213017323824e-09, 3.529422961980971e-10).transl(2.5037943812359118e-08, 4e-08, 0))
hIsland = hIsland.add(rect(4.893117418998058e-09, 1.2478165411963975e-09).transl(-2.438297200896017e-08, 4e-08, 0))
hIsland = hIsland.sub(rect(8.263604863961622e-09, -1.6270107072583634e-09).transl(1.0313351853752724e-07, 4e-08, 0))
hIsland = hIsland.sub(rect(9.588275691962203e-09, -6.165221675944338e-10).transl(3.657298691937154e-08, 4e-08, 0))
hIsland = hIsland.add(rect(8.590043285736035e-09, 3.714023446772266e-10).transl(-1.2671084059323676e-07, 4e-08, 0))
hIsland = hIsland.add(rect(7.595302416025954e-09, 4.0279544355617767e-10).transl(-7.34251354037454e-08, 4e-08, 0))
hIsland = hIsland.sub(rect(3.4223909858615412e-09, -1.7996382794227363e-09).transl(-1.0245993448252905e-08, 4e-08, 0))
hIsland = hIsland.add(rect(6.138456172431221e-09, 2.956314902342073e-10).transl(1.223815711140863e-07, 4e-08, 0))
hIsland = hIsland.sub(rect(9.886319900042869e-09, -1.0581675712886668e-09).transl(-3.392650827841007e-08, 4e-08, 0))
hIsland = hIsland.sub(rect(5.331727369264884e-09, -3.4614743551552503e-09).transl(-2.566978468784094e-08, 4e-08, 0))
hIsland = hIsland.sub(rect(8.600933243260087e-09, -1.2835103687254646e-09).transl(7.966726517948597e-09, 4e-08, 0))
hIsland = hIsland.add(rect(9.382668354832582e-09, 3.6573137228093967e-10).transl(8.132771472166177e-08, 4e-08, 0))
vIsland = hIsland.rotz(pi / 2)
hIslands = hIslands.add(hIsland.transl(-a/2, a, 0))
hIsland = rect(islandLength-2*ellipseConstant, islandWidth)
hIsland = hIsland.add(ellipse(ellipseConstant*2, islandWidth).transl(islandLength/2-ellipseConstant, 0, 0))
hIsland = hIsland.add(ellipse(ellipseConstant*2, islandWidth).transl(-islandLength/2+ellipseConstant, 0, 0))
hIsland = hIsland.sub(rect(8.71051822002722e-09, -1.4830783931594802e-10).transl(8.930648251500177e-08, -4e-08, 0))
hIsland = hIsland.add(rect(2.0618497616994153e-09, 1.9984605615455483e-09).transl(1.061796292259829e-07, -4e-08, 0))
hIsland = hIsland.add(rect(5.638066927913976e-09, 1.4532928447920078e-10).transl(-1.3419613299660477e-07, -4e-08, 0))
hIsland = hIsland.add(rect(4.06313956375147e-09, 1.93132182181487e-09).transl(1.405012708413124e-07, -3.721275949687997e-08, 0))
hIsland = hIsland.sub(rect(9.324958237208482e-09, -3.773943935092394e-09).transl(7.097700471725911e-08, -4e-08, 0))
hIsland = hIsland.sub(rect(3.1611026640520034e-09, -4.937086012518356e-10).transl(-9.704333521656201e-08, -4e-08, 0))
hIsland = hIsland.add(rect(7.211016982045325e-09, 1.2136903784578121e-09).transl(4.395900595522769e-08, -4e-08, 0))
hIsland = hIsland.add(rect(2.5137592281616137e-09, 3.6842166799965813e-10).transl(8.920509212149264e-08, -4e-08, 0))
hIsland = hIsland.add(rect(8.934223123311906e-09, 1.7423437611463094e-09).transl(9.514143652090052e-08, -4e-08, 0))
hIsland = hIsland.add(rect(8.816928788104904e-09, 7.319446433689389e-11).transl(-4.5366813681819166e-08, -4e-08, 0))
hIsland = hIsland.add(rect(9.033371110478719e-09, 4.838266331214665e-10).transl(-9.170658658612422e-08, -4e-08, 0))
hIsland = hIsland.add(rect(2.312303634762131e-09, 9.225527428272446e-10).transl(-5.594908471314636e-08, -4e-08, 0))
hIsland = hIsland.add(rect(3.4291282854895845e-09, 3.9511087713980655e-10).transl(8.795180278064649e-08, -4e-08, 0))
hIsland = hIsland.add(rect(3.9065201885665565e-09, 5.195384229706816e-11).transl(4.86308342184874e-08, -4e-08, 0))
hIsland = hIsland.add(rect(3.037184267629586e-09, 2.5309106267488895e-09).transl(-1.276922681414481e-07, -4e-08, 0))
hIsland = hIsland.add(rect(7.296721846723166e-09, 1.3652060735217132e-10).transl(6.227881161366537e-08, -4e-08, 0))
hIsland = hIsland.add(rect(4.423565620565515e-09, 2.0043091252498472e-09).transl(7.86323456309289e-08, -4e-08, 0))
hIsland = hIsland.sub(rect(7.611894843437674e-09, -1.435984722552879e-09).transl(-2.019960488349351e-08, -4e-08, 0))
hIsland = hIsland.sub(rect(5.3331642037011956e-09, -1.4035188138930978e-09).transl(5.8119635853114716e-08, -4e-08, 0))
hIsland = hIsland.sub(rect(2.394797345456022e-09, -1.0662350194416358e-10).transl(-4.4214921047523214e-08, -4e-08, 0))
hIsland = hIsland.sub(rect(7.3390638386794254e-09, -2.6854140519843812e-09).transl(-1.1800968137813985e-07, -4e-08, 0))
hIsland = hIsland.add(rect(8.15517629792148e-09, 5.272005898966382e-10).transl(-8.0393669931267e-08, -4e-08, 0))
hIsland = hIsland.sub(rect(8.564246112324262e-09, -6.890811056117289e-10).transl(-1.0854019584300632e-07, -4e-08, 0))
hIsland = hIsland.add(rect(6.862371774647116e-09, 5.0933085417957584e-09).transl(1.7655617193344346e-08, -4e-08, 0))
hIsland = hIsland.sub(rect(3.5050523903208746e-09, -2.0383951316183784e-09).transl(1.2579446058922722e-07, -4e-08, 0))
hIsland = hIsland.sub(rect(9.464446650976917e-09, -2.8759438528206457e-09).transl(-3.6309249545039617e-09, -4e-08, 0))
hIsland = hIsland.sub(rect(4.193952412752488e-09, -1.4930393803734855e-09).transl(-2.591939833280046e-08, -4e-08, 0))
hIsland = hIsland.add(rect(4.4118237608893176e-09, 2.1800238337566184e-09).transl(-3.503322973255764e-09, -4e-08, 0))
hIsland = hIsland.add(rect(6.654168344843978e-09, 1.0617211133542659e-09).transl(-6.232598854301765e-08, -4e-08, 0))
hIsland = hIsland.sub(rect(9.892767182426543e-09, -6.202444619290939e-10).transl(-7.175364220624638e-08, -4e-08, 0))
hIsland = hIsland.add(rect(8.201837767903945e-09, 1.3991290182055467e-09).transl(6.007911996814463e-08, -4e-08, 0))
hIsland = hIsland.add(rect(9.351291518945726e-09, 2.0663120342050213e-09).transl(1.0489345561768797e-07, -4e-08, 0))
hIsland = hIsland.sub(rect(8.689433175733732e-09, -1.212185092039278e-10).transl(1.1659735133549326e-07, -4e-08, 0))
hIsland = hIsland.sub(rect(5.181194368580688e-09, -2.8640787683987512e-09).transl(6.205239137444756e-08, -4e-08, 0))
hIsland = hIsland.add(rect(7.87312005857068e-09, 3.5216417842669346e-09).transl(1.4826653385675108e-08, -4e-08, 0))
hIsland = hIsland.sub(rect(7.19010387893994e-09, -1.0611212737705862e-09).transl(-1.6961515477321175e-08, -4e-08, 0))
hIsland = hIsland.add(rect(9.296214265650352e-09, 1.6443225205787264e-09).transl(3.544000300237425e-08, -4e-08, 0))
hIsland = hIsland.sub(rect(7.004946730185933e-09, -1.2694061264846666e-09).transl(3.407037482865037e-08, -4e-08, 0))
hIsland = hIsland.sub(rect(2.207029763777843e-09, -1.1272447287231302e-09).transl(1.4761881055649984e-07, -2.162560131188852e-08, 0))
hIsland = hIsland.sub(rect(6.6948560906041234e-09, -2.1839902804466212e-10).transl(6.524582227353787e-08, -4e-08, 0))
hIsland = hIsland.sub(rect(6.566129580002512e-09, -2.0289238981380128e-09).transl(-1.4033986804773486e-07, -3.737957224488911e-08, 0))
hIsland = hIsland.sub(rect(7.0776313060314574e-09, -1.0226907354684743e-09).transl(1.4036158790200335e-07, -3.7357456508145515e-08, 0))
hIsland = hIsland.add(rect(3.493742707787573e-09, 1.397810255351909e-09).transl(-1.398492505326114e-07, -3.7852088205138054e-08, 0))
hIsland = hIsland.add(rect(2.54607447042827e-09, 4.177590433723336e-09).transl(-8.876457158838765e-08, -4e-08, 0))
hIsland = hIsland.add(rect(7.231962620157776e-09, 6.227050527201233e-10).transl(1.1129315890932288e-07, -4e-08, 0))
hIsland = hIsland.sub(rect(2.8461677863108615e-09, -5.977655011782262e-10).transl(1.0332182529195514e-07, -4e-08, 0))
hIsland = hIsland.add(rect(7.85150204242922e-09, 2.5597067576302695e-09).transl(9.437709060646954e-08, -4e-08, 0))
hIsland = hIsland.sub(rect(9.347235561522031e-09, -1.1951846862398675e-09).transl(5.3739875639072594e-08, -4e-08, 0))
hIsland = hIsland.sub(rect(5.092373687889438e-09, -4.168933853348299e-09).transl(1.0546255621856243e-07, -4e-08, 0))
hIsland = hIsland.add(rect(3.8847892771262876e-09, 3.3332432043358305e-11).transl(1.0247069819554312e-07, -4e-08, 0))
hIsland = hIsland.sub(rect(7.178195467598064e-09, -4.367734887297722e-10).transl(-6.605703393091542e-08, -4e-08, 0))
hIsland = hIsland.sub(rect(5.355953479892457e-09, -2.0414651748793736e-09).transl(1.3231245470459687e-07, -4e-08, 0))
hIsland = hIsland.sub(rect(4.710234615521044e-09, -1.1129277677896158e-09).transl(-8.641112359365354e-08, -4e-08, 0))
hIsland = hIsland.sub(rect(7.43323815517365e-09, -4.262769146895655e-09).transl(-9.753070544550195e-08, -4e-08, 0))
hIsland = hIsland.add(rect(7.942710999323175e-09, 1.6681509949140876e-09).transl(-6.654187657178267e-08, -4e-08, 0))
hIsland = hIsland.sub(rect(5.023100885606433e-09, -3.2187178160088552e-09).transl(-4.6672795384022115e-08, -4e-08, 0))
hIsland = hIsland.sub(rect(6.8150283809718235e-09, -3.33645523311258e-09).transl(-1.3963852752584245e-07, -3.803942398367505e-08, 0))
hIsland = hIsland.add(rect(2.765062489383067e-09, 8.111032130810785e-10).transl(-1.2940623792487054e-07, -4e-08, 0))
hIsland = hIsland.add(rect(3.2598982102807207e-09, 1.1182145047090112e-09).transl(7.287439417961468e-08, -4e-08, 0))
hIsland = hIsland.sub(rect(6.340412252364247e-09, -2.2070963400693626e-09).transl(1.1960538690593823e-07, -4e-08, 0))
hIsland = hIsland.sub(rect(6.37268786127268e-09, -4.28350506645814e-09).transl(1.1946198722359051e-07, -4e-08, 0))
hIsland = hIsland.sub(rect(7.191462079970762e-09, -3.3036098560523104e-09).transl(-8.704339591127536e-08, -4e-08, 0))
hIsland = hIsland.add(rect(7.913643138699312e-09, 1.212322652745219e-09).transl(5.348430943634798e-08, -4e-08, 0))
hIsland = hIsland.add(rect(6.515197498427224e-09, 1.4229181299449857e-09).transl(-1.1454798608827473e-07, -4e-08, 0))
hIsland = hIsland.add(rect(4.936743220061359e-09, 2.4605645913695886e-09).transl(2.6478772495375045e-08, -4e-08, 0))
hIsland = hIsland.add(rect(8.177785017352363e-09, 1.1189746227396299e-09).transl(-1.161296748649483e-07, -4e-08, 0))
hIsland = hIsland.add(rect(3.4501689641363607e-09, 1.6406758619855709e-09).transl(4.649911925677889e-08, -4e-08, 0))
hIsland = hIsland.add(rect(5.981190436966448e-09, 3.42611641107793e-10).transl(7.545961144743304e-08, -4e-08, 0))
hIsland = hIsland.sub(rect(7.743231453604458e-09, -3.991999352269643e-11).transl(8.336135483023299e-08, -4e-08, 0))
hIsland = hIsland.add(rect(7.622672100063524e-09, 4.940794166771935e-10).transl(-2.7115136357426627e-08, -4e-08, 0))
hIsland = hIsland.add(rect(9.712956837672032e-09, 1.03134060311581e-09).transl(1.191200377140507e-07, -4e-08, 0))
hIsland = hIsland.sub(rect(3.977845013448858e-09, -7.525883968941921e-10).transl(-1.0829004304870172e-07, -4e-08, 0))
hIsland = hIsland.sub(rect(5.888411904059397e-09, -1.0165899430888312e-09).transl(8.797908727456051e-08, -4e-08, 0))
hIsland = hIsland.add(rect(7.357251967788288e-09, 2.5253230934562634e-09).transl(-5.9353594592658127e-08, -4e-08, 0))
hIsland = hIsland.sub(rect(5.585206616579868e-09, -1.229881515571512e-09).transl(-5.740376726847395e-08, -4e-08, 0))
hIsland = hIsland.sub(rect(9.377916224443762e-09, -2.874853825978122e-10).transl(-7.79135691837134e-08, -4e-08, 0))
hIsland = hIsland.add(rect(7.177205329095615e-09, 6.477308784520433e-10).transl(4.271300583928621e-08, -4e-08, 0))
hIsland = hIsland.sub(rect(9.989438027882095e-09, -2.0784974465305022e-10).transl(-5.089572202571062e-08, -4e-08, 0))
hIsland = hIsland.add(rect(2.0152626588981973e-09, 4.0724946834535535e-09).transl(9.382859658713804e-08, -4e-08, 0))
hIsland = hIsland.add(rect(9.633810747588524e-09, 2.3981112073496603e-09).transl(-1.1371832987453048e-07, -4e-08, 0))
hIsland = hIsland.sub(rect(4.139246762072299e-09, -1.49694651718589e-09).transl(-5.3878846385934455e-08, -4e-08, 0))
hIsland = hIsland.sub(rect(9.52867327456835e-09, -1.9564308149012095e-09).transl(1.1782167727544241e-07, -4e-08, 0))
hIsland = hIsland.sub(rect(2.0449751092801283e-09, -1.5251644250142131e-09).transl(1.441017350172992e-07, -3.1794721538141546e-08, 0))
hIsland = hIsland.sub(rect(4.515862533061482e-09, -8.327737184818587e-11).transl(-9.875074972332826e-08, -4e-08, 0))
hIsland = hIsland.sub(rect(4.788733722997638e-09, -2.4663806749104913e-09).transl(-6.562823282975693e-08, -4e-08, 0))
hIsland = hIsland.sub(rect(5.142452028522077e-09, -1.7603409328681244e-09).transl(-1.5155084356860373e-08, -4e-08, 0))
hIsland = hIsland.add(rect(8.600692275670686e-09, 2.4450202779117214e-10).transl(-1.3077351577426532e-07, -4e-08, 0))
hIsland = hIsland.sub(rect(9.803341162019866e-09, -7.334324376501198e-10).transl(6.879452860789822e-08, -4e-08, 0))
hIsland = hIsland.sub(rect(8.23785982191257e-09, -1.3863288643854566e-09).transl(2.665071119985621e-08, -4e-08, 0))
hIsland = hIsland.add(rect(4.354151832323815e-09, 3.4354430851433823e-10).transl(2.6987191141021887e-08, -4e-08, 0))
hIsland = hIsland.add(rect(8.449355145089464e-09, 2.8898474986473796e-10).transl(-5.430294781899945e-08, -4e-08, 0))
hIsland = hIsland.add(rect(6.058270265931128e-09, 9.111787231507337e-10).transl(8.51994459349256e-08, -4e-08, 0))
hIsland = hIsland.add(rect(6.528187075658976e-09, 6.80553725343036e-10).transl(-1.2390673551377553e-07, -4e-08, 0))
hIsland = hIsland.sub(rect(2.0627464324058355e-09, -1.5795066947179313e-09).transl(-8.398828390933792e-08, -4e-08, 0))
hIsland = hIsland.add(rect(9.781695618793762e-09, 4.165798550561507e-09).transl(8.707708819122434e-08, -4e-08, 0))
hIsland = hIsland.add(rect(8.450133474638246e-09, 3.3121609595228756e-09).transl(1.4707750191233715e-07, -2.3721936972814248e-08, 0))
hIsland = hIsland.sub(rect(8.68002718698434e-09, -3.4030120767438317e-10).transl(4.578750370070518e-09, -4e-08, 0))
hIsland = hIsland.sub(rect(7.547670752511895e-09, -3.820016286047029e-09).transl(-1.1075578956091236e-07, -4e-08, 0))
hIsland = hIsland.add(rect(4.360455211135314e-09, 1.7371378981338795e-09).transl(-9.932590801436843e-08, -4e-08, 0))
hIsland = hIsland.sub(rect(6.327261219141408e-09, -6.10349502849199e-11).transl(-7.236215522454906e-08, -4e-08, 0))
hIsland = hIsland.sub(rect(5.7283708429149474e-09, -8.579255551041784e-10).transl(2.4107970184441785e-08, -4e-08, 0))
hIsland = hIsland.add(rect(9.279563006185143e-09, 2.797768341847057e-09).transl(-2.936371310602215e-08, -4e-08, 0))
hIsland = hIsland.sub(rect(7.009752538164399e-09, -2.2121628130902196e-09).transl(4.8512578695334624e-08, -4e-08, 0))
hIsland = hIsland.sub(rect(7.98735017631103e-09, -1.9579814425442435e-09).transl(8.939307591949592e-08, -4e-08, 0))
hIsland = hIsland.add(rect(8.468283189533705e-09, 2.5524185617014563e-09).transl(-5.314727688326615e-09, -4e-08, 0))
hIsland = hIsland.add(rect(3.1773464956482765e-09, 4.374328628161532e-09).transl(1.4448910711454409e-08, -4e-08, 0))
hIsland = hIsland.add(rect(7.265583346429512e-09, 2.4196499584454388e-09).transl(3.883842244670756e-08, -4e-08, 0))
hIsland = hIsland.add(rect(3.701088956245113e-09, 1.4975646248462165e-09).transl(-6.641251026707813e-08, -4e-08, 0))
hIsland = hIsland.sub(rect(4.004877747093758e-09, -3.612781880346274e-09).transl(8.329841685194988e-08, -4e-08, 0))
hIsland = hIsland.sub(rect(7.4192752129820324e-09, -8.579202728884885e-10).transl(-1.4052753783650744e-07, -3.718506992780637e-08, 0))
hIsland = hIsland.add(rect(5.418872645281676e-09, 7.325331643811343e-10).transl(1.1826043800964578e-07, -4e-08, 0))
hIsland = hIsland.sub(rect(9.28934334170319e-09, -2.21113558805872e-09).transl(-9.052231642284766e-08, -4e-08, 0))
hIsland = hIsland.add(rect(6.629212009290836e-09, 5.910183006188983e-09).transl(-2.3670306026868042e-08, -4e-08, 0))
hIsland = hIsland.add(rect(7.212028426377998e-09, 8.883833885750448e-10).transl(8.69094103392822e-08, -4e-08, 0))
hIsland = hIsland.add(rect(9.621149290241918e-09, 1.871771911150379e-09).transl(8.005753275220656e-08, -4e-08, 0))
hIsland = hIsland.sub(rect(6.590334586636863e-09, -1.058973389174817e-09).transl(2.4698458523464794e-09, -4e-08, 0))
hIsland = hIsland.add(rect(9.33423573549845e-09, 6.220559042294079e-11).transl(1.3077779921821193e-07, -4e-08, 0))
hIsland = hIsland.add(rect(5.332253466845074e-09, 1.1476475820867964e-09).transl(1.0708243466038984e-08, -4e-08, 0))
hIsland = hIsland.add(rect(2.2416078084826294e-09, 2.5388331196904817e-09).transl(1.426834301799473e-07, -3.435396409743715e-08, 0))
hIsland = hIsland.sub(rect(4.261166364194548e-09, -5.744439122935369e-10).transl(1.3467093163349127e-07, -4e-08, 0))
hIsland = hIsland.add(rect(2.068566649118645e-09, 1.786387149376781e-09).transl(1.3455298935404475e-07, -4e-08, 0))
hIsland = hIsland.add(rect(7.545479428016653e-09, 8.098066252419157e-10).transl(1.3310397939418293e-07, -4e-08, 0))
hIsland = hIsland.sub(rect(4.777713689630466e-09, -2.476760080852417e-09).transl(-1.230643389831903e-07, -4e-08, 0))
hIsland = hIsland.sub(rect(9.082384204467098e-09, -1.484224044130761e-09).transl(8.482881429631548e-08, -4e-08, 0))
hIsland = hIsland.sub(rect(6.426842461314764e-09, -1.7080336730249178e-09).transl(-3.995128731787334e-08, -4e-08, 0))
hIsland = hIsland.add(rect(3.0839509673203545e-09, 2.3235205304365887e-10).transl(-5.9319513786512865e-08, -4e-08, 0))
hIsland = hIsland.add(rect(4.850333261105738e-09, 1.8972588535580022e-11).transl(1.7433449501857527e-09, -4e-08, 0))
hIsland = hIsland.add(rect(4.6047328645424355e-09, 9.487548644011743e-10).transl(-1.382395898129586e-07, -3.9055976498128934e-08, 0))
hIsland = hIsland.sub(rect(5.273448227744628e-09, -4.488431767600774e-09).transl(-1.943833110347921e-08, -4e-08, 0))
hIsland = hIsland.sub(rect(6.171031758071872e-09, -9.005274076622057e-10).transl(-2.5918476444003673e-08, -4e-08, 0))
hIsland = hIsland.sub(rect(5.0755843256147355e-09, -2.8357021465373834e-09).transl(4.6922521069238126e-08, -4e-08, 0))
hIsland = hIsland.sub(rect(4.3906972559000705e-09, -1.0802327429284705e-09).transl(-2.431085604683067e-08, -4e-08, 0))
hIsland = hIsland.add(rect(9.50143086925301e-09, 3.248332599035731e-09).transl(-2.6449243304376296e-08, -4e-08, 0))
hIsland = hIsland.add(rect(9.338684018022413e-09, 7.729565352054798e-11).transl(9.693700530276571e-08, -4e-08, 0))
hIsland = hIsland.add(rect(3.740760948113814e-09, 1.2385913291338866e-09).transl(3.0510789392540006e-08, -4e-08, 0))
hIsland = hIsland.add(rect(6.386680697623958e-09, 4.0149704289343033e-10).transl(2.177364235293493e-08, -4e-08, 0))
hIsland = hIsland.add(rect(3.0362171356908727e-09, 3.139953095094252e-09).transl(4.524532464818589e-08, -4e-08, 0))
hIsland = hIsland.sub(rect(6.420930747122682e-09, -1.1783412067188534e-09).transl(-6.556200978149398e-08, -4e-08, 0))
hIsland = hIsland.add(rect(5.679982959843324e-09, 1.0587726701049816e-09).transl(-5.650642099403785e-08, -4e-08, 0))
hIsland = hIsland.sub(rect(6.3769597785794676e-09, -1.209966467022519e-09).transl(-9.617343751377684e-08, -4e-08, 0))
hIsland = hIsland.sub(rect(9.188359461647711e-09, -7.795682933762528e-10).transl(-1.0815303547212258e-07, -4e-08, 0))
hIsland = hIsland.add(rect(8.469920756264142e-09, 3.0875405071756984e-09).transl(-9.299335338111146e-08, -4e-08, 0))
hIsland = hIsland.sub(rect(9.959079183555001e-09, -8.162835452105386e-10).transl(1.4434120522649967e-07, -3.1296930333413076e-08, 0))
hIsland = hIsland.sub(rect(8.179680257101823e-09, -2.6619953434951276e-09).transl(1.2531854531348038e-07, -4e-08, 0))
hIsland = hIsland.sub(rect(2.7275355795654738e-09, -1.7521093041183359e-09).transl(1.0375039395296451e-07, -4e-08, 0))
hIsland = hIsland.add(rect(8.032876043634947e-09, 2.115048878710947e-09).transl(1.375480815526755e-07, -3.94186446940736e-08, 0))
hIsland = hIsland.sub(rect(8.871262099572695e-09, -1.4211895244750952e-09).transl(9.851650675163222e-08, -4e-08, 0))
hIsland = hIsland.sub(rect(8.076983016128819e-09, -1.980163188432727e-09).transl(-2.748428519290041e-08, -4e-08, 0))
hIsland = hIsland.add(rect(7.111756663829391e-09, 3.591357996638055e-10).transl(-8.124975565490277e-08, -4e-08, 0))
hIsland = hIsland.sub(rect(8.108290321430358e-09, -3.008584350672646e-10).transl(-8.292058938114287e-08, -4e-08, 0))
hIsland = hIsland.sub(rect(8.234940479172796e-09, -1.405168938064693e-09).transl(-1.3450780329097657e-07, -4e-08, 0))
hIsland = hIsland.sub(rect(4.414861742317828e-09, -2.0512457318236534e-09).transl(-1.3319442249364158e-07, -4e-08, 0))
hIsland = hIsland.add(rect(2.7988768975472304e-09, 2.490963784913946e-09).transl(7.544939055609708e-08, -4e-08, 0))
hIsland = hIsland.add(rect(2.7763069201297146e-09, 5.789837853131478e-09).transl(-5.647873547107048e-08, -4e-08, 0))
hIsland = hIsland.add(rect(8.54063690364697e-09, 8.075207259636964e-10).transl(-4.88052834742522e-08, -4e-08, 0))
hIsland = hIsland.add(rect(6.977463444645883e-09, 1.6402244910346854e-09).transl(-1.3749528478249565e-07, -3.9442655205122684e-08, 0))
hIsland = hIsland.sub(rect(2.964652316526488e-09, -1.389742336231093e-09).transl(-1.3710546573887298e-07, -3.960399656801719e-08, 0))
hIsland = hIsland.sub(rect(6.014365074211286e-09, -3.2261939544822188e-09).transl(5.860735655685276e-08, -4e-08, 0))
hIsland = hIsland.sub(rect(5.185997930687558e-09, -1.118568486622404e-10).transl(6.353645027763899e-08, -4e-08, 0))
hIsland = hIsland.sub(rect(2.5461209457275445e-09, -2.7699428995282938e-09).transl(-1.3739413808720304e-07, -3.9487211122986596e-08, 0))
hIsland = hIsland.sub(rect(8.366447044216143e-09, -3.2028154197357817e-09).transl(4.8428775431362296e-09, -4e-08, 0))
hIsland = hIsland.sub(rect(7.88911240465005e-09, -4.454452546242625e-09).transl(9.889709377356261e-08, -4e-08, 0))
hIsland = hIsland.add(rect(4.856219080940248e-09, 1.8942051549886447e-09).transl(6.157163337048732e-08, -4e-08, 0))
hIsland = hIsland.add(rect(7.730995416448091e-09, 1.216650466225978e-09).transl(1.0214444416285827e-07, -4e-08, 0))
hIsland = hIsland.sub(rect(8.306913767229138e-09, -1.7246399926701395e-09).transl(3.4779653849251416e-08, -4e-08, 0))
hIsland = hIsland.sub(rect(8.015543733495829e-09, -2.236657663686237e-09).transl(7.55384250300725e-08, -4e-08, 0))
hIsland = hIsland.sub(rect(9.183791145641296e-09, -1.5560141923932301e-09).transl(5.3948953740184814e-08, -4e-08, 0))
hIsland = hIsland.add(rect(8.85367028496242e-09, 4.46633276674515e-10).transl(7.893623363337917e-08, -4e-08, 0))
hIsland = hIsland.add(rect(8.24635361750455e-09, 1.1872673322585262e-09).transl(6.338667034779144e-09, -4e-08, 0))
hIsland = hIsland.add(rect(3.938866363645852e-09, 1.0380377461207318e-09).transl(1.057810219702942e-07, -4e-08, 0))
hIsland = hIsland.add(rect(9.240880795073754e-09, 2.7593946368924035e-09).transl(-7.533283996403718e-08, -4e-08, 0))
hIsland = hIsland.sub(rect(8.611968849695935e-09, -1.0614030675186034e-09).transl(-7.7586930221647e-08, -4e-08, 0))
hIsland = hIsland.sub(rect(5.825710176117545e-09, -1.9306562473580176e-10).transl(1.4597095813294022e-07, -2.727806805088312e-08, 0))
hIsland = hIsland.add(rect(3.1508887772208435e-09, 5.974544493321368e-10).transl(-8.343281804777012e-08, -4e-08, 0))
hIsland = hIsland.sub(rect(9.411724078202277e-09, -2.5839538237359513e-09).transl(-3.399511554239415e-08, -4e-08, 0))
hIsland = hIsland.sub(rect(6.432237208729951e-09, -2.702294432086206e-09).transl(1.3624392182804873e-07, -3.986222124474508e-08, 0))
hIsland = hIsland.add(rect(4.249638040953428e-09, 5.434447770913138e-09).transl(8.481456687643004e-08, -4e-08, 0))
hIsland = hIsland.sub(rect(5.423650224495787e-09, -2.6571413026601837e-09).transl(8.378157792806351e-08, -4e-08, 0))
hIsland = hIsland.add(rect(5.212582178481809e-09, 7.499836581372518e-10).transl(1.4439931124270004e-07, -3.1172973840282775e-08, 0))
hIsland = hIsland.sub(rect(2.5936751382481154e-09, -3.761232012307804e-09).transl(4.195138631885089e-08, -4e-08, 0))
hIsland = hIsland.add(rect(6.2701399444455236e-09, 1.4418227303836958e-09).transl(1.1604630765958732e-07, -4e-08, 0))
hIsland = hIsland.sub(rect(5.905105006306337e-09, -2.855839487716793e-09).transl(-2.0539411344998827e-09, -4e-08, 0))
hIsland = hIsland.add(rect(6.469312376648931e-09, 7.583136777815308e-11).transl(9.390478612389719e-08, -4e-08, 0))
hIsland = hIsland.sub(rect(6.214637138737201e-09, -1.2209193122882438e-09).transl(2.382742764465108e-08, -4e-08, 0))
hIsland = hIsland.sub(rect(2.5709803191628534e-09, -1.3224392785843364e-09).transl(1.4319353914996745e-07, -3.350525437511234e-08, 0))
hIsland = hIsland.sub(rect(3.6127837367722446e-09, -1.488527299006231e-09).transl(1.1862529866047583e-08, -4e-08, 0))
hIsland = hIsland.sub(rect(9.986550460502201e-09, -1.190802200338923e-09).transl(1.1544304322598096e-07, -4e-08, 0))
hIsland = hIsland.sub(rect(7.992792810716634e-09, -1.8055098729659665e-09).transl(-6.890159828621917e-09, -4e-08, 0))
hIsland = hIsland.add(rect(7.64170393877555e-09, 2.4424778661342666e-10).transl(1.0618112473026931e-08, -4e-08, 0))
hIsland = hIsland.sub(rect(7.244714954889209e-09, -3.8467031638704306e-10).transl(1.411930659018095e-07, -3.643157943795171e-08, 0))
hIsland = hIsland.add(rect(8.049044561136513e-09, 3.2648414143974224e-09).transl(-1.282644638700839e-08, -4e-08, 0))
hIsland = hIsland.add(rect(6.72842392906368e-09, 6.998756978454166e-10).transl(-7.41922158219047e-09, -4e-08, 0))
hIsland = hIsland.add(rect(3.7719837490159136e-09, 1.067192434991165e-09).transl(1.0317527701254768e-07, -4e-08, 0))
hIsland = hIsland.sub(rect(9.02459458715915e-09, -1.1312705145277767e-09).transl(2.8886783287141647e-08, -4e-08, 0))
hIsland = hIsland.sub(rect(8.244641572247088e-09, -3.178290418461512e-09).transl(1.2289229763512622e-07, -4e-08, 0))
hIsland = hIsland.sub(rect(5.789425878059779e-09, -2.0826165956774318e-09).transl(6.472607849036898e-08, -4e-08, 0))
hIsland = hIsland.sub(rect(5.404932311695798e-09, -1.1574548017896247e-09).transl(5.898408898730718e-09, -4e-08, 0))
hIsland = hIsland.sub(rect(2.3706813181099572e-09, -2.5393174158472505e-09).transl(6.237057454096523e-08, -4e-08, 0))
hIsland = hIsland.sub(rect(7.571001012786885e-09, -4.3274546348278547e-10).transl(3.968376508790245e-08, -4e-08, 0))
hIsland = hIsland.add(rect(2.185996955572075e-09, 2.4425165246975407e-09).transl(-9.266435453417667e-08, -4e-08, 0))
hIsland = hIsland.add(rect(9.177206433555005e-09, 9.036091283356155e-10).transl(-5.8799711050819774e-08, 4e-08, 0))
hIsland = hIsland.add(rect(9.744554828929892e-09, 4.119150745976848e-09).transl(3.919639289406201e-08, 4e-08, 0))
hIsland = hIsland.sub(rect(6.587862391321668e-09, -7.610810185776331e-10).transl(-8.148556616364184e-08, 4e-08, 0))
hIsland = hIsland.sub(rect(4.736349412617053e-09, -4.4335621117324085e-10).transl(6.358303305999715e-08, 4e-08, 0))
hIsland = hIsland.sub(rect(5.347177824906043e-09, -6.666115016526447e-10).transl(-1.283743175674682e-07, 4e-08, 0))
hIsland = hIsland.sub(rect(4.6964763781380515e-09, -1.318668370222168e-10).transl(-6.611225397500016e-08, 4e-08, 0))
hIsland = hIsland.add(rect(3.1983665514714527e-09, 1.9022483260166674e-09).transl(6.55845542166744e-08, 4e-08, 0))
hIsland = hIsland.add(rect(9.808557921945236e-09, 1.1652211241477376e-09).transl(-1.1177894968584505e-07, 4e-08, 0))
hIsland = hIsland.sub(rect(4.677850350994643e-09, -1.3878154831435916e-09).transl(-5.6773266000037905e-08, 4e-08, 0))
hIsland = hIsland.add(rect(6.124772297311036e-09, 1.906722097995604e-09).transl(-2.408827834101467e-08, 4e-08, 0))
hIsland = hIsland.sub(rect(3.577022323595384e-09, -1.3619089200772368e-09).transl(1.078097706419632e-07, 4e-08, 0))
hIsland = hIsland.sub(rect(2.975101615176729e-09, -1.60186194680565e-09).transl(1.072792612563814e-07, 4e-08, 0))
hIsland = hIsland.add(rect(9.113365445451923e-09, 2.348037512744766e-09).transl(-1.34718654693502e-07, 4e-08, 0))
hIsland = hIsland.add(rect(9.463621919579161e-09, 1.5653576888189965e-09).transl(-1.0714001888059835e-07, 4e-08, 0))
hIsland = hIsland.sub(rect(8.20912484712312e-09, -1.0882878069946092e-09).transl(-9.203833573283095e-08, 4e-08, 0))
hIsland = hIsland.add(rect(8.492629168868915e-09, 4.457146960981518e-09).transl(9.152503174772699e-08, 4e-08, 0))
hIsland = hIsland.sub(rect(7.571625856514056e-09, -2.7599257605476508e-09).transl(1.190047342881283e-07, 4e-08, 0))
hIsland = hIsland.add(rect(8.107824406662413e-09, 3.4485604351769214e-09).transl(-1.3032463396441352e-07, 4e-08, 0))
hIsland = hIsland.sub(rect(4.920643983007535e-09, -4.821927436998564e-10).transl(-1.449744356936643e-07, 2.987507412533657e-08, 0))
hIsland = hIsland.add(rect(4.059338129420005e-09, 3.1205518769707414e-09).transl(1.1687430760579388e-07, 4e-08, 0))
hIsland = hIsland.sub(rect(9.98473262117528e-09, -1.0078394878296802e-09).transl(-1.1463131999816368e-07, 4e-08, 0))
hIsland = hIsland.sub(rect(8.904088332056653e-09, -1.346052967075384e-09).transl(5.490891718663894e-09, 4e-08, 0))
hIsland = hIsland.sub(rect(4.234227241824969e-09, -8.630450845075463e-10).transl(-1.0003506583537643e-08, 4e-08, 0))
hIsland = hIsland.add(rect(5.400956081162395e-09, 8.084548322541358e-10).transl(-1.4759230937049756e-07, 2.1735172882096264e-08, 0))
hIsland = hIsland.add(rect(8.590062609109943e-09, 1.2665688726570386e-09).transl(-6.810648098425914e-08, 4e-08, 0))
hIsland = hIsland.add(rect(5.162701478868196e-09, 2.294057393136716e-09).transl(-2.925743975588438e-09, 4e-08, 0))
hIsland = hIsland.sub(rect(9.553979094690806e-09, -5.837711757850501e-10).transl(3.378566877600902e-08, 4e-08, 0))
hIsland = hIsland.sub(rect(5.188425330080019e-09, -7.572621192631228e-10).transl(-9.798340724096389e-08, 4e-08, 0))
hIsland = hIsland.add(rect(7.750107986945888e-09, 1.7199848272129153e-09).transl(-1.3884607189534007e-07, 3.8662779664478374e-08, 0))
hIsland = hIsland.sub(rect(9.562928720717532e-09, -3.422819859263695e-10).transl(-2.341846885188693e-08, 4e-08, 0))
hIsland = hIsland.add(rect(8.331461369496812e-09, 5.757238417547296e-10).transl(6.199412289206144e-08, 4e-08, 0))
hIsland = hIsland.sub(rect(7.51725921653451e-09, -4.917886037157446e-10).transl(2.4888104827711395e-08, 4e-08, 0))
hIsland = hIsland.sub(rect(2.975795721567523e-09, -1.3239906376659234e-09).transl(-1.3045943913508862e-07, 4e-08, 0))
hIsland = hIsland.sub(rect(7.2125667466265e-09, -3.2407771293059135e-09).transl(7.005065339055422e-08, 4e-08, 0))
hIsland = hIsland.add(rect(6.380864808907769e-09, 2.2148989576486917e-09).transl(-8.261982155811643e-09, 4e-08, 0))
hIsland = hIsland.sub(rect(2.374280555516397e-09, -2.0712184094107984e-09).transl(-8.511344601957218e-10, 4e-08, 0))
hIsland = hIsland.add(rect(5.749628828827623e-09, 1.5224258735571894e-09).transl(-7.951235256941415e-08, 4e-08, 0))
hIsland = hIsland.sub(rect(2.781136758007727e-09, -1.9448282457084973e-09).transl(5.0558591095941935e-08, 4e-08, 0))
hIsland = hIsland.sub(rect(2.7776987951749757e-09, -2.8057067566816515e-09).transl(-9.85887484177639e-08, 4e-08, 0))
hIsland = hIsland.sub(rect(6.124747390458172e-09, -1.7238401809918953e-09).transl(-1.1973866452581376e-07, 4e-08, 0))
hIsland = hIsland.add(rect(9.65594786464062e-09, 1.6921151918902758e-09).transl(-1.210862792766862e-07, 4e-08, 0))
hIsland = hIsland.add(rect(4.7436784877806426e-09, 2.125648040597338e-09).transl(1.2855298809035275e-08, 4e-08, 0))
hIsland = hIsland.add(rect(9.554895739684645e-09, 1.7955238746014855e-09).transl(-1.360134710539764e-07, 3.990859569212311e-08, 0))
hIsland = hIsland.add(rect(7.053353116944703e-09, 3.7166509993709447e-09).transl(2.7867489547411183e-08, 4e-08, 0))
hIsland = hIsland.add(rect(3.083257520222561e-09, 2.9035298994050853e-09).transl(-1.2627068631682384e-07, 4e-08, 0))
hIsland = hIsland.sub(rect(5.532567918879852e-09, -4.605561667350149e-10).transl(5.9153022361869655e-08, 4e-08, 0))
hIsland = hIsland.add(rect(5.615875739598806e-09, 1.966198706443923e-10).transl(-7.622910062346246e-08, 4e-08, 0))
hIsland = hIsland.sub(rect(4.081327247824276e-09, -9.777411983629336e-10).transl(4.8306343010631146e-08, 4e-08, 0))
hIsland = hIsland.add(rect(5.402587749597241e-09, 8.1185917896529e-11).transl(1.1305867097321627e-08, 4e-08, 0))
hIsland = hIsland.add(rect(2.8795666170260045e-09, 2.311628276197745e-09).transl(-1.4735124780505572e-07, 2.2697497096764833e-08, 0))
hIsland = hIsland.sub(rect(5.483436147079646e-09, -1.0529896674430508e-09).transl(-6.108913678516933e-08, 4e-08, 0))
hIsland = hIsland.sub(rect(3.360969890781407e-09, -2.9052289645854623e-09).transl(3.73486036587859e-08, 4e-08, 0))
hIsland = hIsland.sub(rect(7.62598798502643e-09, -2.0874186767306577e-09).transl(-2.999591886942788e-08, 4e-08, 0))
hIsland = hIsland.add(rect(4.5219829392422095e-09, 3.6892731565098837e-10).transl(-1.1851233022559487e-07, 4e-08, 0))
hIsland = hIsland.add(rect(5.173030355083985e-09, 5.185555338668223e-10).transl(1.3997106514372082e-07, 3.773955297026742e-08, 0))
hIsland = hIsland.sub(rect(7.901218959537163e-09, -1.7303646148674666e-09).transl(1.2033581005030883e-07, 4e-08, 0))
hIsland = hIsland.sub(rect(6.58400721165996e-09, -1.019344027893312e-09).transl(7.397029106766694e-08, 4e-08, 0))
hIsland = hIsland.add(rect(8.74030630054266e-09, 1.9096399422655916e-10).transl(4.210595607548397e-08, 4e-08, 0))
hIsland = hIsland.add(rect(5.959115434005471e-09, 2.0602356109097747e-10).transl(1.1522540737614438e-08, 4e-08, 0))
hIsland = hIsland.add(rect(6.731065437090384e-09, 1.0227631536206887e-09).transl(1.274141039812732e-07, 4e-08, 0))
hIsland = hIsland.add(rect(5.075418828787236e-09, 1.9572686670204266e-09).transl(4.447093551846302e-08, 4e-08, 0))
hIsland = hIsland.sub(rect(6.79428315801723e-09, -1.4170376735069758e-09).transl(-1.2955248855619957e-07, 4e-08, 0))
[...]
hIsland = hIsland.sub(rect(2.2045418592599822e-09, -2.175146165698947e-09).transl(1.0995364374972406e-07, 4e-08, 0))
hIsland = hIsland.sub(rect(8.295818353758488e-09, -2.253935552111963e-09).transl(-1.1677482463849003e-07, 4e-08, 0))
hIsland = hIsland.sub(rect(2.405205596861062e-09, -6.183608205911947e-10).transl(1.4661837705126147e-07, 2.5300092534881644e-08, 0))
hIsland = hIsland.add(rect(4.5018201181522495e-09, 1.7245717603819715e-09).transl(7.412944249290245e-08, 4e-08, 0))
hIsland = hIsland.add(rect(5.317599945474385e-09, 3.3268583688693506e-09).transl(3.7167352763940985e-08, 4e-08, 0))
hIsland = hIsland.add(rect(3.4040258786652214e-09, 9.966013007288556e-10).transl(3.972615600795073e-08, 4e-08, 0))
hIsland = hIsland.sub(rect(7.0472271605461704e-09, -1.2029424788858291e-09).transl(1.782192402901059e-08, 4e-08, 0))
hIsland = hIsland.add(rect(6.215731911581627e-09, 9.775742847619742e-10).transl(3.2686357314954805e-08, 4e-08, 0))
hIsland = hIsland.add(rect(3.3301354010849665e-09, 2.4232270842078603e-09).transl(4.468840616606515e-09, 4e-08, 0))
hIsland = hIsland.add(rect(7.147164714119323e-09, 1.4914606466065564e-09).transl(5.861658127158382e-08, 4e-08, 0))
hIsland = hIsland.add(rect(4.818891019414062e-09, 1.6377543021485603e-09).transl(-7.069683688810578e-08, 4e-08, 0))
hIsland = hIsland.add(rect(3.386788718898606e-09, 2.058510149370317e-09).transl(4.552676116929239e-08, 4e-08, 0))
hIsland = hIsland.add(rect(8.11342802857345e-09, 1.465748475397651e-11).transl(-1.672258145330707e-08, 4e-08, 0))
hIsland = hIsland.sub(rect(7.696935621148635e-09, -2.9233853455067673e-09).transl(-1.1116613020852227e-07, 4e-08, 0))
hIsland = hIsland.sub(rect(4.9484945231210095e-09, -1.3970151524948316e-09).transl(5.586281898099971e-08, 4e-08, 0))
hIsland = hIsland.add(rect(5.6946961984189326e-09, 6.188498567584651e-10).transl(4.119558077332319e-08, 4e-08, 0))
hIsland = hIsland.add(rect(9.616449627238456e-09, 2.5587672359906555e-09).transl(5.903663342595902e-08, 4e-08, 0))
hIsland = hIsland.add(rect(8.524958188293284e-09, 7.549331723040053e-10).transl(-1.1368363331135321e-08, 4e-08, 0))
hIsland = hIsland.sub(rect(4.75721680773206e-09, -3.0771661212553757e-09).transl(-1.1427522032170424e-07, 4e-08, 0))
hIsland = hIsland.add(rect(9.73618111753329e-09, 1.0116950062506672e-09).transl(-6.538110707681965e-08, 4e-08, 0))
hIsland = hIsland.add(rect(6.265668798400535e-09, 1.9753159891907844e-09).transl(2.6809568003317783e-08, 4e-08, 0))
hIsland = hIsland.add(rect(4.705988775173487e-09, 9.140834368175502e-10).transl(9.60900547628479e-08, 4e-08, 0))
hIsland = hIsland.add(rect(4.3679106910420445e-09, 3.6812641095656206e-09).transl(7.95122871951941e-08, 4e-08, 0))
hIsland = hIsland.sub(rect(4.87223527638108e-09, -2.988653691532653e-09).transl(-6.471554036320702e-08, 4e-08, 0))
hIsland = hIsland.sub(rect(6.5812815303238266e-09, -1.9164330055885686e-09).transl(-4.400010691159067e-08, 4e-08, 0))
hIsland = hIsland.add(rect(5.528863255819946e-09, 1.5795379809092882e-09).transl(9.387185169526195e-08, 4e-08, 0))
hIsland = hIsland.add(rect(9.237198556521578e-09, 2.074894535874518e-09).transl(1.2720347139703573e-07, 4e-08, 0))
hIsland = hIsland.sub(rect(4.6088042594107e-09, -1.990236786006207e-09).transl(5.808634586526347e-08, 4e-08, 0))
hIsland = hIsland.add(rect(9.590449421728135e-09, 3.607120394225554e-09).transl(1.0566716406106922e-08, 4e-08, 0))
hIsland = hIsland.add(rect(2.9273628780554122e-09, 2.5353698002174956e-09).transl(-1.2923051556295362e-08, 4e-08, 0))
hIsland = hIsland.sub(rect(7.159366220991595e-09, -6.469614023991126e-10).transl(6.665113749937595e-08, 4e-08, 0))
hIsland = hIsland.sub(rect(7.532688874605173e-09, -4.788296776306463e-09).transl(-1.2513237875327075e-07, 4e-08, 0))
hIsland = hIsland.add(rect(7.003202759442664e-09, 1.37699715298403e-09).transl(-1.4085861138271717e-07, 3.682285982412285e-08, 0))
hIsland = hIsland.add(rect(9.255314431401356e-09, 3.6080740481161594e-09).transl(1.397503456918317e-07, 3.794116763229641e-08, 0))
hIsland = hIsland.add(rect(7.223764513113503e-09, 7.354494563075487e-10).transl(3.148234931961127e-09, 4e-08, 0))
hIsland = hIsland.sub(rect(3.826857883653647e-09, -1.4982653565132551e-10).transl(7.34371716910092e-08, 4e-08, 0))
hIsland = hIsland.add(rect(6.635961432525184e-09, 8.370012794583792e-10).transl(3.385703657681584e-08, 4e-08, 0))
hIsland = hIsland.add(rect(9.106088445669377e-09, 2.4297983585079247e-09).transl(-7.436134578198174e-08, 4e-08, 0))
hIsland = hIsland.sub(rect(6.360385429933483e-09, -3.641957388444741e-09).transl(-9.208809531240015e-09, 4e-08, 0))
hIsland = hIsland.sub(rect(6.505347937947353e-09, -1.7318664529158196e-09).transl(-1.4048132849140526e-07, 3.7233680138694894e-08, 0))
hIsland = hIsland.add(rect(5.789415699034447e-09, 1.0478840736126427e-09).transl(-4.216587257700338e-08, 4e-08, 0))
hIsland = hIsland.sub(rect(3.738768837508015e-09, -1.5852434250242385e-09).transl(-2.5123981476386488e-08, 4e-08, 0))
hIsland = hIsland.sub(rect(3.738694393646817e-09, -1.969433647736204e-09).transl(-3.2446884543615993e-08, 4e-08, 0))
hIsland = hIsland.add(rect(8.603538526355664e-09, 7.446961587471815e-10).transl(-1.0982441470908078e-07, 4e-08, 0))
hIsland = hIsland.add(rect(3.209152745164574e-09, 4.34078591796734e-09).transl(-8.143961045162058e-08, 4e-08, 0))
hIsland = hIsland.sub(rect(7.289102149620621e-09, -4.2675183104885973e-10).transl(8.140277707755716e-08, 4e-08, 0))
hIsland = hIsland.add(rect(2.0386512028149533e-09, 1.5214675252156048e-09).transl(1.2104275095420546e-07, 4e-08, 0))
hIsland = hIsland.sub(rect(5.2387303646449266e-09, -3.8666079553315886e-10).transl(-4.853127936329479e-08, 4e-08, 0))
hIsland = hIsland.add(rect(3.731090063925717e-09, 4.421697214922101e-09).transl(-1.2602499931929083e-07, 4e-08, 0))
hIsland = hIsland.add(rect(8.374478272157117e-09, 5.989180791243218e-11).transl(6.202570392042074e-09, 4e-08, 0))
hIsland = hIsland.sub(rect(9.140101525916012e-09, -1.3413718575799023e-09).transl(-1.1344487205676336e-07, 4e-08, 0))
hIsland = hIsland.sub(rect(8.142600619422805e-09, -1.0164593336101755e-09).transl(8.954921680993036e-08, 4e-08, 0))
hIsland = hIsland.sub(rect(3.963355708338063e-09, -1.815023368421158e-09).transl(-1.953530930332327e-08, 4e-08, 0))
hIsland = hIsland.add(rect(4.880300118502407e-09, 2.208223166647486e-09).transl(2.6822085960834435e-08, 4e-08, 0))
hIsland = hIsland.sub(rect(6.542905301667657e-09, -1.2212059671142518e-09).transl(-2.453267598326034e-08, 4e-08, 0))
hIsland = hIsland.add(rect(5.332011000323954e-09, 4.864004061182459e-10).transl(1.1909187580635296e-07, 4e-08, 0))
hIsland = hIsland.sub(rect(2.875871574237618e-09, -6.191519689220962e-10).transl(-1.3969507877296706e-07, 3.799005580441135e-08, 0))
hIsland = hIsland.add(rect(4.125925041823328e-09, 1.0930352159103998e-09).transl(-9.154148323541461e-08, 4e-08, 0))
hIsland = hIsland.add(rect(2.3074160940550623e-09, 3.804482589580188e-09).transl(-1.378187792776751e-07, 3.928738408836434e-08, 0))
hIsland = hIsland.add(rect(7.682652446896666e-09, 1.8730071457985655e-09).transl(-7.519214681869548e-08, 4e-08, 0))
hIsland = hIsland.add(rect(5.5340182738292885e-09, 6.552674747084272e-10).transl(1.3787258778898238e-07, 3.925965885578524e-08, 0))
hIsland = hIsland.sub(rect(2.8798967641655476e-09, -1.9597100348857596e-09).transl(1.1110048270226364e-07, 4e-08, 0))
hIsland = hIsland.sub(rect(4.754654146740836e-09, -1.924892227819172e-09).transl(1.4499951623461072e-07, 2.981539349754391e-08, 0))
hIsland = hIsland.add(rect(9.942651927387502e-09, 4.1119382353692655e-10).transl(1.238555321835593e-07, 4e-08, 0))
hIsland = hIsland.add(rect(8.993573196287247e-09, 1.3723834230646923e-09).transl(5.638844650355396e-09, 4e-08, 0))
hIsland = hIsland.sub(rect(8.142717699787853e-09, -1.5979940578757345e-09).transl(-4.857633881778452e-08, 4e-08, 0))
hIsland = hIsland.add(rect(8.422835634404671e-09, 2.730932745711139e-10).transl(-6.344466482561834e-08, 4e-08, 0))
hIsland = hIsland.add(rect(8.454532553962362e-09, 2.0311650115957563e-09).transl(1.1672183519325656e-07, 4e-08, 0))
hIsland = hIsland.add(rect(8.40344472645295e-09, 3.3028830359624917e-09).transl(-7.685534521753659e-08, 4e-08, 0))
hIsland = hIsland.add(rect(6.474717525263833e-09, 4.967711398205956e-10).transl(1.079513657660339e-07, 4e-08, 0))
hIsland = hIsland.sub(rect(9.939122233308576e-09, -3.800747355853003e-09).transl(5.317764054054251e-08, 4e-08, 0))
hIsland = hIsland.sub(rect(5.451526429991276e-09, -3.728575292503789e-09).transl(-8.08521719167229e-08, 4e-08, 0))
hIsland = hIsland.add(rect(4.8961452710287845e-09, 6.798710560604728e-10).transl(-3.618110411544006e-08, 4e-08, 0))
hIsland = hIsland.add(rect(8.951094179755066e-09, 5.828656640686391e-10).transl(-2.0241477802508514e-08, 4e-08, 0))
hIsland = hIsland.sub(rect(9.095363639288664e-09, -1.4614378835647414e-09).transl(-1.265491983221761e-07, 4e-08, 0))
hIsland = hIsland.sub(rect(5.297923374388291e-09, -6.044504615161262e-10).transl(1.0281734044140134e-07, 4e-08, 0))
hIsland = hIsland.add(rect(7.447432856931531e-09, 2.712114706349597e-09).transl(5.7581444191082865e-09, 4e-08, 0))
hIsland = hIsland.add(rect(9.969270775216527e-09, 2.0708825669554348e-10).transl(2.0425223741226053e-08, 4e-08, 0))
hIsland = hIsland.add(rect(2.1597702750496196e-09, 1.3077272628835156e-09).transl(1.0906890153595276e-07, 4e-08, 0))
hIsland = hIsland.add(rect(9.598998781356942e-09, 1.3398951699213966e-09).transl(1.053329741053697e-07, 4e-08, 0))
hIsland = hIsland.add(rect(8.54955542630517e-09, 8.049394480143583e-10).transl(1.005858549124205e-07, 4e-08, 0))
hIsland = hIsland.add(rect(3.636373523997381e-09, 7.449520716983726e-10).transl(5.741650475422073e-08, 4e-08, 0))
hIsland = hIsland.add(rect(7.26195451454609e-09, 5.384705631485436e-11).transl(-1.740868921417517e-08, 4e-08, 0))
hIsland = hIsland.add(rect(5.78650332881079e-09, 1.9742454882297717e-09).transl(-3.76037061594401e-08, 4e-08, 0))
hIsland = hIsland.sub(rect(9.991253084972712e-09, -5.993858314341129e-10).transl(-1.3561608197229635e-07, 3.996624735979423e-08, 0))
hIsland = hIsland.sub(rect(8.404903150440209e-09, -1.704897797056332e-09).transl(9.53763637839207e-08, 4e-08, 0))
hIsland = hIsland.add(rect(5.858606542865006e-09, 2.0281057734595153e-09).transl(-7.834901030864165e-08, 4e-08, 0))
hIsland = hIsland.add(rect(8.490996370485458e-09, 1.947226432758136e-10).transl(5.4075184583203775e-08, 4e-08, 0))
hIsland = hIsland.sub(rect(4.653308126154551e-09, -8.753435984332826e-11).transl(1.539187744856664e-08, 4e-08, 0))
hIsland = hIsland.sub(rect(7.175165593703676e-09, -9.442861500324088e-10).transl(-3.916164375290181e-08, 4e-08, 0))
hIsland = hIsland.sub(rect(3.202096776991466e-09, -3.746426008179636e-09).transl(-5.112000962434006e-08, 4e-08, 0))
hIsland = hIsland.add(rect(8.083419455421439e-09, 1.059618046238136e-09).transl(6.230422271167471e-08, 4e-08, 0))
hIsland = hIsland.sub(rect(2.271125962120558e-09, -1.1802597366703793e-09).transl(-9.046005541203104e-08, 4e-08, 0))
hIsland = hIsland.add(rect(6.373854551072443e-09, 6.861827697563583e-10).transl(-3.7599711662308974e-08, 4e-08, 0))
hIsland = hIsland.add(rect(4.064286722080535e-09, 2.9952770878625517e-10).transl(3.52975057173678e-08, 4e-08, 0))
hIsland = hIsland.add(rect(4.3922402555467615e-09, 9.455426526910468e-11).transl(1.0550926551251685e-08, 4e-08, 0))
hIsland = hIsland.sub(rect(7.48682504254577e-09, -1.1920658961256123e-09).transl(4.982279849356887e-08, 4e-08, 0))
hIsland = hIsland.sub(rect(5.842097770554524e-09, -1.2208674239129337e-09).transl(-5.7711926468186825e-08, 4e-08, 0))
hIsland = hIsland.add(rect(4.162072592611295e-09, 2.8629157063259185e-09).transl(-1.2462357876200166e-07, 4e-08, 0))
hIsland = hIsland.add(rect(7.925017344270962e-09, 5.939912932717642e-10).transl(8.674467870742844e-09, 4e-08, 0))
hIsland = hIsland.add(rect(2.56270099996053e-09, 1.5591356109678565e-09).transl(1.2172160556189443e-07, 4e-08, 0))
hIsland = hIsland.sub(rect(4.346634600708409e-09, -5.97290148407935e-11).transl(-2.5646663974317554e-08, 4e-08, 0))
hIsland = hIsland.sub(rect(3.6440392633682155e-09, -2.577704497789606e-09).transl(-1.1583263890232141e-07, 4e-08, 0))
hIsland = hIsland.add(rect(7.93336367274702e-09, 7.215860512952459e-10).transl(1.3650918543676024e-07, 3.9797028080440235e-08, 0))
hIsland = hIsland.sub(rect(6.9142500327268684e-09, -2.327874784376315e-09).transl(-2.8882470196074037e-08, 4e-08, 0))
hIsland = hIsland.sub(rect(8.524495852210217e-09, -1.2100528289917975e-09).transl(-7.56751068503975e-08, 4e-08, 0))
hIsland = hIsland.sub(rect(2.9552376307650976e-09, -7.616966410638854e-10).transl(-1.2873307419474682e-07, 4e-08, 0))
hIsland = hIsland.sub(rect(4.93275362620481e-09, -2.390954396525027e-09).transl(-1.384654520157448e-07, 3.8917863805856145e-08, 0))
hIsland = hIsland.sub(rect(3.1176427001020166e-09, -2.1238306186704846e-09).transl(4.377692897123703e-08, 4e-08, 0))
hIsland = hIsland.add(rect(5.479925977591232e-09, 1.8339961457649278e-09).transl(6.853803924991515e-08, 4e-08, 0))
hIsland = hIsland.sub(rect(3.94550451843318e-09, -1.0335172528590686e-09).transl(-7.001522178430868e-08, 4e-08, 0))
hIsland = hIsland.add(rect(2.7234304691346543e-09, 1.1066207279530163e-09).transl(-2.9045857722296564e-08, 4e-08, 0))
hIsland = hIsland.add(rect(4.563779283219302e-09, 1.7985053804688738e-09).transl(-1.3044423764429176e-08, 4e-08, 0))
hIsland = hIsland.add(rect(4.784645528220468e-09, 6.343623935656999e-10).transl(1.3074077612541445e-07, 4e-08, 0))
hIsland = hIsland.add(rect(9.831526492084535e-09, 5.850353692862556e-10).transl(-1.448955530256788e-07, 3.006103779575941e-08, 0))
hIsland = hIsland.add(rect(2.754187142847811e-09, 2.2774247903299964e-10).transl(-1.126013003173463e-07, 4e-08, 0))
hIsland = hIsland.sub(rect(9.200087812644698e-09, -6.879919590741514e-10).transl(3.5362205933342347e-10, 4e-08, 0))
hIsland = hIsland.sub(rect(6.920895134921092e-09, -7.782763744709398e-10).transl(-5.970395228690278e-08, 4e-08, 0))
hIsland = hIsland.add(rect(5.218408836613959e-09, 1.45219931425394e-09).transl(-1.1421325641791803e-08, 4e-08, 0))
hIsland = hIsland.sub(rect(4.555468075924706e-09, -3.220991210236685e-10).transl(-2.8352613516613377e-08, 4e-08, 0))
hIsland = hIsland.sub(rect(6.2454073818489656e-09, -1.499398093785942e-09).transl(8.64661073870179e-08, 4e-08, 0))
hIsland = hIsland.add(rect(2.5905410922347568e-09, 1.4565395748940269e-09).transl(-8.764313968716881e-08, 4e-08, 0))
hIsland = hIsland.add(rect(8.241084528946517e-09, 1.3729443820790003e-09).transl(-1.4433473873346262e-07, 3.131064742187296e-08, 0))
hIsland = hIsland.add(rect(3.913361750180515e-09, 4.314406732799907e-10).transl(-9.413036943323144e-08, 4e-08, 0))
hIsland = hIsland.add(rect(7.26092361044185e-09, 3.843873134038667e-09).transl(1.900486513153743e-08, 4e-08, 0))
hIsland = hIsland.add(rect(4.674488220693774e-09, 2.00657743598245e-09).transl(1.2547750756298206e-07, 4e-08, 0))
hIsland = hIsland.add(rect(4.440902260108197e-09, 1.3102263600947172e-09).transl(-7.263747744937778e-08, 4e-08, 0))
hIsland = hIsland.sub(rect(2.5418498603741607e-09, -1.028916480799634e-09).transl(-9.05821536043625e-08, 4e-08, 0))
hIsland = hIsland.sub(rect(5.417170645699978e-09, -5.544346620568978e-10).transl(1.3717840343351704e-07, 3.9575935087954425e-08, 0))
hIsland = hIsland.add(rect(9.998420346017958e-09, 3.4351925394246518e-09).transl(-1.3862184835182068e-07, 3.881646519061852e-08, 0))
hIsland = hIsland.sub(rect(4.134455538661678e-09, -4.878535762678424e-10).transl(-1.158290879746196e-07, 4e-08, 0))
hIsland = hIsland.add(rect(7.2691595198418345e-09, 4.661166774756525e-10).transl(-1.1881340232445e-07, 4e-08, 0))
hIsland = hIsland.sub(rect(7.835546478069798e-09, -2.1148073256007896e-09).transl(-1.1652945977164505e-07, 4e-08, 0))
hIsland = hIsland.add(rect(2.0184399077141146e-09, 1.8109386170514014e-09).transl(-3.745460971940873e-08, 4e-08, 0))
hIsland = hIsland.add(rect(9.905892078214987e-09, 2.0843633592624298e-10).transl(2.1695933032825233e-08, 4e-08, 0))
hIsland = hIsland.sub(rect(8.483172478817707e-09, -1.3048710903824504e-09).transl(1.4472031959081708e-07, 3.046488829848441e-08, 0))
hIsland = hIsland.sub(rect(2.7591661540055e-09, -7.915902832104713e-10).transl(1.2134613123650825e-07, 4e-08, 0))
hIsland = hIsland.sub(rect(4.6642160467555675e-09, -2.5002520642711595e-09).transl(-6.050062854364148e-08, 4e-08, 0))
hIsland = hIsland.sub(rect(6.0790701728623244e-09, -2.1649127158359333e-09).transl(3.6598380183417464e-09, 4e-08, 0))
hIsland = hIsland.add(rect(4.024865043254509e-09, 9.19852430743134e-12).transl(-9.443350225499878e-08, 4e-08, 0))
hIsland = hIsland.sub(rect(5.9574071470640555e-09, -1.401743658198155e-09).transl(-1.050096371552452e-07, 4e-08, 0))
hIsland = hIsland.sub(rect(9.359831899669037e-09, -1.0883778307687897e-09).transl(-1.1409949071954453e-07, 4e-08, 0))
hIsland = hIsland.add(rect(9.68822414554493e-09, 5.844779637667927e-10).transl(-5.3914013750246234e-08, 4e-08, 0))
hIsland = hIsland.sub(rect(5.196444625007137e-09, -3.978871602962477e-09).transl(2.0767574820877266e-08, 4e-08, 0))
hIsland = hIsland.sub(rect(4.0126181754061535e-09, -4.007418298433647e-10).transl(1.0863295622677803e-07, 4e-08, 0))
hIsland = hIsland.add(rect(2.1016874294151435e-09, 3.790645926471019e-09).transl(1.07018131327938e-07, 4e-08, 0))
hIsland = hIsland.sub(rect(6.86638419829854e-09, -1.3528655458764605e-09).transl(-3.506270768054605e-08, 4e-08, 0))
hIsland = hIsland.add(rect(4.196860092943888e-09, 2.541916623469e-09).transl(5.3179374659508015e-08, 4e-08, 0))
hIsland = hIsland.sub(rect(3.5219569030016217e-09, -2.625494481245265e-09).transl(-1.1202440625112781e-08, 4e-08, 0))
hIsland = hIsland.add(rect(5.255443746177943e-09, 9.800610840471367e-10).transl(1.6406991165219457e-08, 4e-08, 0))
hIsland = hIsland.sub(rect(3.4675803377817146e-09, -1.1972740011533627e-09).transl(-1.3787971545501722e-07, 3.925594546545451e-08, 0))
hIsland = hIsland.add(rect(2.352041144294619e-09, 3.4009323497827796e-09).transl(-2.481979161991913e-09, 4e-08, 0))
hIsland = hIsland.add(rect(8.25887711423305e-09, 1.9679817589887316e-09).transl(-5.666148970249912e-08, 4e-08, 0))
hIsland = hIsland.add(rect(9.255588894135786e-09, 5.666867355566289e-09).transl(-6.489358503659025e-08, 4e-08, 0))
hIsland = hIsland.sub(rect(6.0215829837994166e-09, -4.381376886410403e-09).transl(-1.4962436326656837e-07, 8.895641498550214e-09, 0))
hIsland = hIsland.add(rect(7.976423047636879e-09, 8.88802144526284e-10).transl(-7.105132306298461e-08, 4e-08, 0))
hIsland = hIsland.sub(rect(7.901321440719012e-09, -2.35062973208592e-09).transl(-8.009359821495397e-08, 4e-08, 0))
hIsland = hIsland.sub(rect(4.749736486192471e-09, -2.0502193492254953e-09).transl(4.13865409860472e-08, 4e-08, 0))
hIsland = hIsland.add(rect(7.346471686245379e-09, 2.042116544342001e-09).transl(-7.993825599475192e-08, 4e-08, 0))
hIsland = hIsland.sub(rect(5.913163997188109e-09, -1.352325892721818e-09).transl(1.4377955491956774e-07, 3.243256694283768e-08, 0))
hIsland = hIsland.sub(rect(8.209934586123338e-09, -4.452841452535862e-10).transl(1.0883142553794185e-07, 4e-08, 0))
hIsland = hIsland.add(rect(3.0501276266342075e-09, 1.634764533543796e-09).transl(-4.190970237246647e-08, 4e-08, 0))
vIsland = hIsland.rotz(pi / 2)
vIslands = vIslands.add(vIsland.transl(0, -a/2, 0))
DefRegion(1, hIslands)
DefRegion(2, vIslands)
TableAdd(m_full.Region(1))
TableAdd(m_full.Region(2))
setgeom(hIslands.add(vIslands))
save(geom)
r2o2 := sqrt(2) / 2
m = RandomMagSeed(4)
B_ext = vector(Bmax*r2o2, Bmax*r2o2, 0)
relax()
minimize()
for B := Bmax; B >= -Bmax; B -= Bstep {
	B_ext = vector(B*r2o2, B*r2o2, 0)
	minimize()
	tablesave()
}
//********************************************************************//
//Please cite the following references, relevant for your simulation. //
//See bibtex file in output folder for justification.                 //
//********************************************************************//
//   * Vansteenkiste et al., AIP Adv. 4, 107133 (2014).
//   * Exl et al., J. Appl. Phys. 115, 17D118 (2014).
