# t (s)	mx ()	my ()	mz ()	B_extx (T)	B_exty (T)	B_extz (T)	m_fullx (A/m)	m_fully (A/m)	m_fullz (A/m)	m_full.region1x (A/m)	m_full.region1y (A/m)	m_full.region1z (A/m)	m_full.region2x (A/m)	m_full.region2y (A/m)	m_full.region2z (A/m)
0	0.6459054	0.64590347	-5.0567117e-10	0.070710756	0.070710756	0	138675.2	138674.81	-0.000118944634	629197	275068.97	-0.00041741878	275070.44	629195.94	-0.00037229242
0	0.645815	0.6458146	-1.936613e-10	0.070569135	0.070569135	0	138655.81	138655.72	-3.4602075e-05	629263.3	274877.5	-0.000112815884	274877.78	629263	-0.00013537906
0	0.6457214	0.6457211	-4.4111742e-10	0.07042789	0.07042789	0	138635.72	138635.66	-0.00010034602	629334.7	274675.1	-0.00038357402	274675.28	629334.5	-0.00032716605
0	0.6456276	0.64562744	-2.79733e-10	0.07028644	0.07028644	0	138615.58	138615.55	-5.1903113e-05	629406.06	274472.6	-0.00015794224	274472.72	629405.8	-0.00025947654
0	0.6455341	0.64553386	-1.2910753e-10	0.07014497	0.07014497	0	138595.5	138595.44	-3.4602075e-05	629477.1	274270.47	-4.5126355e-05	274270.56	629476.9	-0.00015794224
0	0.64543927	0.6454391	-1.5062546e-10	0.07000352	0.07000352	0	138575.14	138575.08	-3.114187e-05	629548.56	274066.25	-6.4869135e-05	274066.38	629548.3	-7.897112e-05
0	0.64534533	0.6453451	-1.0758961e-10	0.06986227	0.06986227	0	138554.97	138554.92	-1.0380623e-05	629620	273863.4	4.5126355e-05	273863.5	629619.7	-0.00015230145
0	0.6452508	0.64525056	-8.607169e-11	0.069720656	0.069720656	0	138534.69	138534.62	-2.4221454e-05	629691.5	273659.44	-0.00010153429	273659.56	629691.4	-4.5126355e-05
0	0.64515597	0.6451557	-1.2910753e-10	0.06957922	0.06957922	0	138514.31	138514.28	-3.4602075e-05	629762.56	273455.66	-3.3844764e-05	273455.72	629762.4	-0.00021435018
0	0.6450615	0.6450612	-4.195995e-10	0.06943796	0.06943795	0	138494.03	138493.98	-9.34256e-05	629833.94	273252.03	-0.00027075812	273252.12	629833.7	-0.0003779332
0	0.6449658	0.64496565	-3.012509e-10	0.06929647	0.06929648	0	138473.52	138473.45	-6.5743945e-05	629905.44	273046.6	-0.00022563177	273046.75	629905.25	-0.00021435018
0	0.64487004	0.64486974	-6.4553765e-11	0.069155045	0.069155045	0	138452.92	138452.88	-1.384083e-05	629977.3	272840.6	-4.2305957e-05	272840.72	629977.06	-6.768953e-05
0	0.6447748	0.6447745	-3.2276884e-10	0.0690136	0.0690136	0	138432.47	138432.4	-7.266436e-05	630049.06	272635.44	-0.00020306859	272635.56	630048.9	-0.00022563177
0	0.6446796	0.6446794	-1.7214338e-10	0.06887216	0.06887216	0	138412.05	138411.98	-3.4602075e-05	630120.5	272430.8	-9.025271e-05	272430.94	630120.3	-0.00013537906
0	0.6445836	0.6445833	-1.2910753e-10	0.068730734	0.068730734	0	138391.42	138391.38	-2.4221454e-05	630192.1	272224.72	-0.00010153429	272224.78	630192.06	-9.5893505e-05
0	0.64448714	0.64448684	-2.1517922e-10	0.068589285	0.068589285	0	138370.72	138370.64	-5.1903113e-05	630263.75	272018.03	-0.00013255866	272018.22	630263.5	-0.00022563177
0	0.6443906	0.6443904	-1.5062546e-10	0.06844799	0.06844799	0	138350	138349.94	-5.1903113e-05	630335.56	271811.2	-9.025271e-05	271811.3	630335.3	-0.0001974278
0	0.64429533	0.64429504	-2.5821506e-10	0.06830654	0.06830654	0	138329.55	138329.48	-5.882353e-05	630406.6	271606.6	-0.00012409747	271606.75	630406.5	-0.00024819493
0	0.64419764	0.6441974	-1.5062546e-10	0.06816512	0.06816512	0	138308.56	138308.52	-3.8062284e-05	630478.94	271397.62	-9.025271e-05	271397.75	630478.7	-0.00010717509
0	0.6441009	0.64410067	-2.1517923e-11	0.068023674	0.06802368	0	138287.8	138287.73	0	630550.8	271190.28	2.2563177e-05	271190.38	630550.6	-1.1281589e-05
0	0.6440039	0.6440037	-3.1200986e-10	0.06788223	0.06788223	0	138266.98	138266.92	-5.1903113e-05	630622.8	270982.56	-0.00025101536	270982.72	630622.6	-0.00020306859
0	0.6439065	0.64390624	-1.936613e-10	0.06774081	0.06774081	0	138246.05	138246	-4.8442907e-05	630694.6	270774.28	-0.00020306859	270774.4	630694.44	-0.000112815884
0	0.6438087	0.6438085	-3.012509e-10	0.06759933	0.06759933	0	138225.06	138225.02	-5.536332e-05	630766.56	270565.62	-0.00013537906	270565.72	630766.2	-0.00023691336
0	0.6437113	0.64371115	-2.3669713e-10	0.06745807	0.06745807	0	138204.16	138204.11	-4.1522493e-05	630838.5	270357.28	-0.000112815884	270357.4	630838.3	-0.00015794224
0	0.6436132	0.6436129	-4.3035846e-11	0.06731661	0.06731661	0	138183.1	138183.03	-1.7301038e-05	630910.3	270148.03	0	270148.16	630910.1	-0.000112815884
0	0.64351535	0.6435151	-3.2276884e-10	0.06717501	0.06717501	0	138162.08	138162.03	-6.5743945e-05	630982.44	269938.97	-0.00021435018	269939.1	630982.2	-0.00022563177
0	0.6434173	0.64341706	-3.4428677e-10	0.06703377	0.06703377	0	138141.05	138140.97	-7.958477e-05	631054.06	269730	-0.00025947654	269730.16	631053.9	-0.00024819493
0	0.64331836	0.643318	-4.5187637e-10	0.0668923	0.06689231	0	138119.77	138119.73	-9.34256e-05	631126.06	269519.5	-0.00036101084	269519.66	631125.75	-0.0002763989
0	0.6432196	0.64321935	-6.4553765e-11	0.066750854	0.066750854	0	138098.56	138098.52	-6.920415e-06	631198.3	269308.94	-4.5126355e-05	269309.03	631198.1	-6.768953e-05
0	0.6431209	0.6431206	-2.5821506e-10	0.06660941	0.06660941	0	138077.38	138077.31	-5.536332e-05	631270.56	269098.53	-0.00016922383	269098.66	631270.3	-0.00017486462
0	0.6430219	0.6430217	-8.607169e-11	0.06646814	0.06646814	0	138056.12	138056.08	-1.0380623e-05	631342.56	268888.03	-2.2563177e-05	268888.16	631342.25	-7.897112e-05
0	0.64292246	0.6429223	-1.6138442e-10	0.06632654	0.06632654	0	138034.78	138034.73	-2.768166e-05	631414.7	268676.66	-0.00015794224	268676.78	631414.44	0
0	0.64282274	0.6428225	-3.4428677e-10	0.066185094	0.066185094	0	138013.39	138013.31	-7.266436e-05	631486.9	268464.88	-0.00022563177	268465.03	631486.6	-0.00024819493
0	0.64272344	0.6427232	-2.79733e-10	0.06604383	0.06604383	0	137992.06	137991.98	-6.5743945e-05	631558.9	268253.84	-0.00027075812	268254	631558.6	-0.00019178701
0	0.64262307	0.6426228	-1.5062546e-10	0.06590232	0.06590232	0	137970.5	137970.44	-3.4602075e-05	631631.2	268041	-0.00013537906	268041.1	631631	-0.00012409747
0	0.6425234	0.6425232	-2.1517922e-10	0.06576094	0.06576094	0	137949.11	137949.08	-4.49827e-05	631703.2	267829.53	-7.897112e-05	267829.7	631703.06	-0.00021999098
0	0.64242256	0.6424223	-5.3794805e-11	0.06561947	0.06561947	0	137927.47	137927.42	-1.384083e-05	631775.3	267616.12	4.5126355e-05	267616.22	631775.1	-6.204873e-05
0	0.6423219	0.64232165	-2.6897404e-10	0.06547822	0.06547822	0	137905.84	137905.78	-5.536332e-05	631848.3	267402.25	-0.00022563177	267402.38	631848	-0.00016922383
0	0.64222145	0.6422212	-6.4553765e-11	0.06533663	0.06533663	0	137884.28	137884.23	-6.920415e-06	631920.56	267189.3	4.5126355e-05	267189.47	631920.3	-8.4611915e-05
0	0.64212054	0.6421202	-2.79733e-10	0.06519517	0.06519518	0	137862.61	137862.55	-5.536332e-05	631992.7	266975.94	-0.00024819493	266976.03	631992.44	-0.00019178701
0	0.64201915	0.642019	-1.7214338e-10	0.0650539	0.06505391	0	137840.84	137840.8	-3.114187e-05	632064.8	266761.94	-4.5126355e-05	266762.06	632064.6	-0.00016922383
0	0.6419182	0.641918	-1.0758961e-10	0.06491239	0.0649124	0	137819.17	137819.11	-2.4221454e-05	632137.3	266548.03	-9.025271e-05	266548.16	632137.1	-0.00010153429
0	0.6418162	0.64181584	0	0.06477102	0.06477102	0	137797.25	137797.2	3.4602076e-06	632209.44	266332.97	-4.5126355e-05	266333.12	632209.3	2.2563177e-05
0	0.64171463	0.64171433	-1.7214338e-10	0.06462957	0.06462957	0	137775.47	137775.4	-3.114187e-05	632282.3	266118.06	-0.00013537906	266118.2	632282	-0.00014666065
0	0.6416121	0.64161175	-8.607169e-11	0.06448808	0.06448808	0	137753.44	137753.39	-1.7301038e-05	632354.75	265902	-0.00010153429	265902.16	632354.5	-3.3844764e-05
0	0.64151025	0.64150995	-3.9808157e-10	0.06434671	0.06434671	0	137731.58	137731.52	-7.612457e-05	632427.3	265686.9	-0.00018050542	265687	632427.06	-0.00031588448
0	0.6414081	0.6414078	-3.4428677e-10	0.064205244	0.064205244	0	137709.66	137709.6	-6.920415e-05	632499.9	265471.34	-0.00022563177	265471.47	632499.56	-0.00021999098
0	0.64130455	0.64130425	-3.012509e-10	0.064063944	0.064063944	0	137687.4	137687.36	-7.266436e-05	632572.56	265253.66	-0.00015794224	265253.8	632572.2	-0.0002933213
0	0.6412027	0.64120245	-2.1517922e-10	0.06392247	0.06392247	0	137665.55	137665.5	-4.1522493e-05	632644.9	265038.75	-9.025271e-05	265038.88	632644.6	-0.00022563177
0	0.6410988	0.6410985	-8.607169e-11	0.063781105	0.063781105	0	137643.25	137643.17	-1.384083e-05	632717.5	264820.62	0	264820.78	632717.25	-9.5893505e-05
0	0.64099586	0.6409956	1.7214338e-10	0.06363964	0.06363964	0	137621.16	137621.1	3.4602075e-05	632790.3	264603.78	0.000112815884	264603.94	632790.06	0.00015794224
0	0.64089245	0.6408922	2.1517923e-11	0.063498154	0.063498154	0	137598.95	137598.89	3.4602076e-06	632862.94	264386.38	6.768953e-05	264386.5	632862.75	-5.0767147e-05
0	0.64078856	0.6407882	-2.1517922e-10	0.063356794	0.063356794	0	137576.62	137576.56	-5.536332e-05	632935.75	264168.03	-0.00016922383	264168.16	632935.56	-0.00022563177
0	0.64068496	0.6406846	-1.0758961e-10	0.06321528	0.06321528	0	137554.39	137554.31	-2.4221454e-05	633008.44	263950.3	-0.000112815884	263950.44	633008.1	-7.3330324e-05
0	0.6405806	0.6405803	-1.5062546e-10	0.063074015	0.06307401	0	137531.98	137531.92	-3.4602075e-05	633081.25	263731.44	-0.00018050542	263731.53	633081.06	-2.8203971e-05
0	0.64047647	0.64047617	-4.5187637e-10	0.06293254	0.06293254	0	137509.64	137509.58	-9.34256e-05	633153.7	263513.25	-0.0002933213	263513.38	633153.44	-0.00033844766
0	0.640372	0.64037156	-3.012509e-10	0.062790975	0.06279098	0	137487.19	137487.12	-6.228374e-05	633226.56	263294.03	-0.00014948104	263294.2	633226.25	-0.00021999098
0	0.6402666	0.64026636	-3.012509e-10	0.06264971	0.062649705	0	137464.6	137464.53	-5.882353e-05	633298.8	263074.34	-0.00024819493	263074.5	633298.5	-0.00017486462
0	0.6401618	0.64016163	-2.1517922e-10	0.06250823	0.06250823	0	137442.1	137442.03	-4.49827e-05	633372.06	262854.44	-0.00018050542	262854.56	633371.75	-0.00013537906
0	0.64005667	0.6400564	-1.5062546e-10	0.062366836	0.062366836	0	137419.5	137419.44	-3.114187e-05	633445.06	262634.16	-6.768953e-05	262634.25	633444.9	-8.4611915e-05
0	0.6399506	0.63995034	-1.0758961e-10	0.062225346	0.062225346	0	137396.73	137396.66	-2.768166e-05	633517.94	262412.8	-2.2563177e-05	262412.94	633517.7	-0.00014666065
0	0.63984597	0.63984567	-3.012509e-10	0.062084086	0.062084086	0	137374.27	137374.22	-6.228374e-05	633590.6	262193.62	-0.00018050542	262193.78	633590.44	-0.00020306859
0	0.63973904	0.6397387	-2.1517922e-10	0.061942536	0.061942536	0	137351.3	137351.22	-4.49827e-05	633663.56	261970.92	-0.000112815884	261971.08	633663.2	-0.00021999098
0	0.63963294	0.63963264	-1.5062546e-10	0.061801046	0.061801046	0	137328.52	137328.47	-3.8062284e-05	633736.7	261749.25	-0.00018050542	261749.42	633736.44	-0.00010717509
0	0.63952714	0.6395268	-2.3669713e-10	0.06165979	0.06165979	0	137305.8	137305.73	-4.8442907e-05	633810	261527.8	-0.00018050542	261527.94	633809.7	-0.00013537906
0	0.6394202	0.6394199	-3.4428677e-10	0.061518256	0.061518256	0	137282.88	137282.78	-7.266436e-05	633882.8	261305.34	-0.00023691336	261305.47	633882.5	-0.00022563177
0	0.6393137	0.63931346	-1.7214338e-10	0.061376907	0.061376907	0	137260	137259.92	-3.114187e-05	633955.9	261083.19	-0.00013537906	261083.31	633955.7	-0.00012409747
0	0.6392066	0.6392063	-2.1517922e-10	0.061235435	0.061235435	0	137236.97	137236.92	-3.8062284e-05	634029.06	260859.98	-0.00018050542	260860.12	634028.8	-6.768953e-05
0	0.6390996	0.6390993	-2.1517922e-10	0.061093953	0.061093953	0	137214.02	137213.95	-4.8442907e-05	634102.06	260637.2	-0.00022563177	260637.36	634101.8	-0.00012409747
0	0.6389922	0.63899195	-2.79733e-10	0.06095263	0.06095263	0	137190.97	137190.9	-6.228374e-05	634175.25	260413.69	-0.00015794224	260413.89	634174.94	-0.00020306859
0	0.63888466	0.6388843	-1.2910753e-10	0.060811136	0.060811136	0	137167.86	137167.8	-2.4221454e-05	634247.94	260190.36	-4.5126355e-05	260190.52	634247.6	-7.897112e-05
0	0.6387764	0.6387761	-1.5062546e-10	0.060669806	0.060669806	0	137144.66	137144.6	-2.0761247e-05	634320.8	259966.11	-4.5126355e-05	259966.25	634320.5	-9.025271e-05
0	0.6386687	0.6386685	-6.4553765e-11	0.060528323	0.060528323	0	137121.52	137121.45	-1.384083e-05	634394.06	259742.03	2.2563177e-05	259742.17	634393.8	-0.00013537906
0	0.63856035	0.63856006	-3.1200986e-10	0.06038699	0.06038699	0	137098.25	137098.17	-7.612457e-05	634467.56	259516.78	-0.0002933213	259516.95	634467.25	-0.00020870939
0	0.63845116	0.63845086	-2.1517922e-10	0.060245506	0.060245514	0	137074.81	137074.73	-4.49827e-05	634540.6	259290.84	-0.00016922383	259291.03	634540.4	-0.00016922383
0	0.6383424	0.6383421	-4.949122e-10	0.060104024	0.060104024	0	137051.47	137051.39	-0.00011072664	634614.06	259065.2	-0.00027075812	259065.34	634613.8	-0.00042870035
0	0.6382335	0.6382331	-2.5821506e-10	0.0599627	0.0599627	0	137028.06	137028	-5.882353e-05	634687.2	258839.47	-0.00013537906	258839.66	634686.9	-0.00014666065
0	0.6381239	0.63812363	-3.2276884e-10	0.05982116	0.05982116	0	137004.55	137004.48	-7.266436e-05	634760.5	258612.86	-0.00023691336	258613.03	634760.25	-0.00024819493
0	0.63801485	0.6380146	-4.3035846e-11	0.059679892	0.059679892	0	136981.12	136981.06	-6.920415e-06	634834	258386.67	-9.025271e-05	258386.86	634833.75	-1.1281589e-05
0	0.63790524	0.6379049	-1.936613e-10	0.059538387	0.059538387	0	136957.6	136957.52	-2.768166e-05	634907.44	258159.69	-0.00022563177	258159.83	634907.25	-2.2563177e-05
0	0.63779545	0.6377951	-1.0758961e-10	0.059396863	0.059396863	0	136934.02	136933.94	-1.0380623e-05	634980.7	257932.7	8.461191e-06	257932.88	634980.44	-0.00010153429
0	0.6376855	0.6376852	-1.0758961e-10	0.05925559	0.059255596	0	136910.42	136910.34	-3.4602075e-05	635053.75	257705.77	-0.00015794224	257705.95	635053.5	-1.1281589e-05
0	0.6375743	0.63757396	-9.683065e-11	0.059114084	0.059114084	0	136886.53	136886.47	-2.0761247e-05	635127.44	257476.34	0	257476.53	635127.1	-7.897112e-05
0	0.6374639	0.6374637	-3.5504572e-10	0.05897273	0.05897273	0	136862.84	136862.78	-6.5743945e-05	635201	257248.39	-0.00022563177	257248.58	635200.7	-0.00022563177
0	0.63735324	0.63735294	-2.1517922e-10	0.05883124	0.05883124	0	136839.06	136839.03	-4.1522493e-05	635274.3	257020.08	-0.00013537906	257020.23	635274	-0.00012973827
0	0.63724214	0.63724184	-4.3035846e-11	0.058689952	0.05868996	0	136815.23	136815.16	-2.0761247e-05	635347.6	256791.17	0	256791.31	635347.44	-7.897112e-05
0	0.63713074	0.63713044	-1.5062546e-10	0.058548428	0.058548428	0	136791.31	136791.25	-2.4221454e-05	635421.3	256561.66	-0.00016922383	256561.81	635421	-3.3844764e-05
0	0.6370196	0.6370193	-2.3669713e-10	0.058406938	0.058406938	0	136767.44	136767.38	-5.536332e-05	635494.44	256332.78	-9.025271e-05	256332.94	635494.2	-0.00026511733
0	0.636907	0.6369067	-1.1834857e-10	0.05826566	0.05826566	0	136743.27	136743.19	-3.114187e-05	635567.9	256101.73	-0.00013537906	256101.89	635567.6	-6.204873e-05
0	0.6367956	0.6367953	-3.012509e-10	0.058124106	0.058124106	0	136719.36	136719.28	-6.228374e-05	635641.4	255872.3	-0.00024819493	255872.44	635641.1	-0.00016922383
0	0.6366828	0.63668245	-1.5062546e-10	0.057982814	0.057982814	0	136695.14	136695.08	-3.8062284e-05	635714.9	255640.9	-0.00014666065	255641.05	635714.56	-0.000112815884
0	0.6365704	0.63657004	-3.873226e-10	0.057841312	0.057841305	0	136671	136670.94	-8.99654e-05	635788.6	255409.72	-0.00024819493	255409.89	635788.5	-0.00034972923
0	0.63645816	0.63645786	-1.936613e-10	0.057699807	0.057699807	0	136646.89	136646.83	-4.49827e-05	635862.06	255179.19	-5.6407942e-05	255179.33	635861.75	-0.00022563177
0	0.636345	0.6363447	-4.3035846e-11	0.057558525	0.057558525	0	136622.61	136622.53	-3.4602076e-06	635935.8	254946.94	-0.000112815884	254947.12	635935.6	7.3330324e-05
0	0.6362321	0.6362318	-8.607169e-11	0.05741701	0.05741701	0	136598.38	136598.31	-1.0380623e-05	636009.3	254715.38	-4.5126355e-05	254715.55	636009.06	1.1281589e-05
0	0.63611776	0.63611746	0	0.057275683	0.057275683	0	136573.83	136573.75	-3.4602076e-06	636082.8	254481.89	0	254482.05	636082.56	-2.2563177e-05
0	0.63600427	0.63600385	-1.0758961e-10	0.057134178	0.057134178	0	136549.45	136549.39	-1.384083e-05	636156.9	254248.88	-9.025271e-05	254249.03	636156.56	-4.5126355e-05
0	0.63589036	0.63589007	-1.0758961e-10	0.056992896	0.056992896	0	136525.02	136524.94	-2.4221454e-05	636230.9	254015.48	-4.5126355e-05	254015.67	636230.6	-7.897112e-05
0	0.63577616	0.6357758	-1.7214338e-10	0.056851387	0.056851387	0	136500.48	136500.42	-3.8062284e-05	636304.6	253781.78	-0.00018050542	253781.95	636304.4	-0.00012409747
0	0.63566166	0.63566136	-2.1517922e-10	0.056709882	0.056709882	0	136475.9	136475.83	-4.49827e-05	636378.4	253547.83	-6.768953e-05	253547.98	636378.1	-0.00021435018
0	0.6355475	0.6355472	-1.7214338e-10	0.056568604	0.056568604	0	136451.39	136451.33	-4.1522493e-05	636451.75	253314.64	-0.00012409747	253314.81	636451.4	-0.00010153429
0	0.63543224	0.63543195	-3.335278e-10	0.05642703	0.05642703	0	136426.64	136426.6	-7.266436e-05	636525.7	253079.33	-0.00026511733	253079.5	636525.5	-0.00023691336
0	0.6353172	0.6353169	5.3794805e-11	0.056285758	0.056285758	0	136401.94	136401.89	1.0380623e-05	636599.4	252844.5	4.5126355e-05	252844.66	636599.2	5.6407944e-06
0	0.63520163	0.6352012	-1.6138442e-10	0.05614425	0.05614425	0	136377.12	136377.06	-3.4602075e-05	636673.44	252608.67	-0.00015794224	252608.86	636673.1	-7.897112e-05
0	0.635086	0.63508564	-2.5821506e-10	0.056002736	0.056002736	0	136352.31	136352.22	-4.8442907e-05	636747.06	252373.12	-0.00018085797	252373.3	636746.75	-0.00020870939
0	0.6349706	0.6349703	1.0758961e-11	0.05586146	0.055861462	0	136327.52	136327.45	-6.920415e-06	636820.75	252138.03	2.2563177e-05	252138.19	636820.3	-3.3844764e-05
0	0.63485336	0.63485295	-1.936613e-10	0.055719953	0.055719953	0	136302.34	136302.28	-3.114187e-05	636894.75	251899.84	-9.025271e-05	251900	636894.4	-0.000112815884
0	0.63473797	0.6347376	-1.0758961e-10	0.05557868	0.05557868	0	136277.58	136277.5	-2.0761247e-05	636968.5	251664.45	-0.000112815884	251664.61	636968.2	-9.025271e-05
0	0.63462114	0.63462085	-2.1517923e-11	0.05543712	0.05543712	0	136252.52	136252.44	-1.384083e-05	637042.3	251427.22	2.2563177e-05	251427.34	637042	-9.025271e-05
0	0.6345047	0.6345043	-2.79733e-10	0.05529583	0.05529583	0	136227.47	136227.42	-6.228374e-05	637116.2	251190.16	-0.00022563177	251190.34	637115.9	-0.00018050542
0	0.6343873	0.634387	-1.2910753e-10	0.055154327	0.055154327	0	136202.3	136202.25	-2.4221454e-05	637189.94	250952.2	-0.00018050542	250952.36	637189.56	-2.2563177e-05
0	0.6342692	0.6342688	-1.5062546e-10	0.055012815	0.055012815	0	136176.95	136176.86	-2.768166e-05	637264.2	250712.56	-0.00011422608	250712.75	637263.9	-6.768953e-05
0	0.6341527	0.63415235	-1.2910753e-10	0.054871533	0.054871533	0	136151.92	136151.86	-2.0761247e-05	637337.8	250475.77	-4.5126355e-05	250475.94	637337.5	-0.00010717509
0	0.63403404	0.6340337	-3.012509e-10	0.05473003	0.05473003	0	136126.45	136126.38	-6.228374e-05	637412.06	250235.38	-0.0001903768	250235.6	637411.8	-0.00021435018
0	0.6339166	0.63391626	-1.936613e-10	0.054588694	0.054588694	0	136101.23	136101.17	-4.1522493e-05	637485.94	249997.17	-0.00020306859	249997.33	637485.6	-7.897112e-05
0	0.6337979	0.6337975	-3.4428677e-10	0.05444718	0.05444718	0	136075.75	136075.67	-6.920415e-05	637559.75	249757.02	-0.00021435018	249757.2	637559.5	-0.00025947654
0	0.63367915	0.6336788	-2.3669713e-10	0.054305915	0.05430591	0	136050.25	136050.19	-5.536332e-05	637634.06	249516.6	-0.00015794224	249516.75	637633.7	-0.00020870939
0	0.6335607	0.63356036	-1.0758961e-10	0.054164402	0.054164402	0	136024.81	136024.75	-2.4221454e-05	637708.06	249276.75	-6.768953e-05	249276.95	637707.75	-0.00014666065
0	0.6334414	0.6334411	-2.79733e-10	0.054022882	0.054022882	0	135999.22	135999.14	-5.536332e-05	637781.75	249036.03	-0.00010153429	249036.22	637781.5	-0.00027075812
0	0.6333217	0.6333214	-2.2593818e-10	0.053881615	0.053881615	0	135973.52	135973.45	-5.1903113e-05	637856.44	248793.83	-0.00010153429	248794.02	637856.1	-0.00020306859
0	0.63320214	0.6332018	-2.79733e-10	0.05374005	0.05374005	0	135947.86	135947.77	-6.228374e-05	637930.44	248552.4	-0.00018050542	248552.62	637930.2	-0.00020870939
0	0.63308257	0.6330822	-1.936613e-10	0.053598765	0.053598765	0	135922.16	135922.1	-3.8062284e-05	638004.5	248310.84	-0.00013537906	248311.02	638004.2	-0.00019178701
0	0.63296264	0.6329623	-1.5062546e-10	0.053457264	0.053457264	0	135896.42	135896.34	-2.768166e-05	638078.44	248069.12	-0.00014666065	248069.34	638078.06	-0.00010717509
0	0.6328421	0.63284177	-2.2593818e-10	0.05331577	0.05331577	0	135870.56	135870.47	-4.8442907e-05	638152.6	247826.23	-0.00015794224	247826.44	638152.25	-0.00012409747
0	0.6327214	0.632721	-1.7214338e-10	0.053174473	0.053174473	0	135844.62	135844.55	-3.114187e-05	638226.56	247583.14	-4.5126355e-05	247583.33	638226.25	-0.00019178701
0	0.6326007	0.63260037	-2.5821506e-10	0.053032972	0.053032972	0	135818.72	135818.64	-5.882353e-05	638300.8	247340.08	-0.00010153429	247340.27	638300.44	-0.00024255415
0	0.632479	0.63247865	-3.012509e-10	0.052891634	0.052891634	0	135792.58	135792.5	-6.920415e-05	638374.94	247095.5	-0.00020306859	247095.66	638374.56	-0.00020870939
0	0.6323576	0.6323573	-2.1517922e-10	0.05275012	0.05275012	0	135766.53	135766.44	-4.49827e-05	638449.4	246851.05	-0.00022563177	246851.23	638449.1	-0.00013537906
0	0.63223636	0.632236	-2.6897404e-10	0.052608836	0.052608836	0	135740.47	135740.39	-5.882353e-05	638523.44	246607.2	-0.00020306859	246607.4	638523.2	-0.000112815884
0	0.63211435	0.632114	-1.2910753e-10	0.052467342	0.052467342	0	135714.28	135714.2	-2.768166e-05	638597.6	246362.25	-9.025271e-05	246362.44	638597.25	-0.00010153429
0	0.6319924	0.631992	-8.607169e-11	0.052325826	0.052325826	0	135688.11	135688.03	-1.0380623e-05	638671.75	246117.42	-0.00015794224	246117.64	638671.4	-4.5126355e-05
0	0.6318695	0.63186914	-3.4428677e-10	0.05218455	0.05218455	0	135661.73	135661.64	-7.266436e-05	638746.2	245870.88	-0.00018614621	245871.1	638745.9	-0.00025947654
0	0.63174695	0.6317465	-4.3035844e-10	0.05204299	0.05204299	0	135635.39	135635.31	-8.3044986e-05	638820.56	245624.89	-0.00020306859	245625.11	638820.2	-0.00038357402
0	0.631624	0.63162357	-1.936613e-10	0.051901694	0.051901694	0	135609	135608.92	-4.1522493e-05	638894.7	245378.56	-0.00013537906	245378.77	638894.4	-0.00014666065
0	0.63150066	0.6315003	-1.7214338e-10	0.051760197	0.051760197	0	135582.53	135582.47	-4.1522493e-05	638969	245131.77	-0.00013537906	245131.94	638968.6	-0.00015230145
0	0.6313774	0.631377	-1.5062546e-10	0.051618703	0.051618703	0	135556.08	135555.98	-3.4602075e-05	639042.94	244885.2	-0.000112815884	244885.44	639042.6	-0.00014101986
0	0.6312538	0.6312534	-2.474561e-10	0.05147742	0.05147742	0	135529.55	135529.45	-5.1903113e-05	639117.2	244637.89	-0.00018050542	244638.11	639116.9	-0.00018050542
0	0.6311293	0.6311288	-2.5821506e-10	0.051335912	0.051335912	0	135502.78	135502.7	-6.228374e-05	639191.7	244389.08	-0.00016922383	244389.3	639191.3	-0.00018614621
0	0.63100475	0.6310044	-2.1517922e-10	0.051194567	0.051194567	0	135476.08	135476	-4.8442907e-05	639266.4	244140.12	-0.00013537906	244140.36	639266	-0.00016358303
0	0.6308804	0.63088006	-1.8290235e-10	0.051053073	0.051053073	0	135449.38	135449.3	-3.8062284e-05	639340.44	243892.02	-9.025271e-05	243892.22	639340.06	-0.00014666065
0	0.6307557	0.63075536	-1.7214338e-10	0.05091177	0.05091177	0	135422.61	135422.53	-3.8062284e-05	639414.9	243642.94	-2.2563177e-05	243643.14	639414.56	-0.00016358303
0	0.6306304	0.63063	-4.0884052e-10	0.050770275	0.050770275	0	135395.69	135395.62	-8.3044986e-05	639489	243393.34	-0.00020306859	243393.53	639488.7	-0.0003779332
0	0.6305049	0.63050455	-1.2910753e-10	0.05062879	0.05062879	0	135368.75	135368.67	-1.7301038e-05	639563.6	243143.05	-0.00013537906	243143.28	639563.25	-3.3844764e-05
0	0.63037986	0.63037944	-3.012509e-10	0.05048749	0.05048749	0	135341.9	135341.81	-6.5743945e-05	639637.8	242893.72	-0.0002933213	242893.95	639637.56	-0.00012409747
0	0.6302537	0.6302533	-4.7339427e-10	0.05034593	0.05034593	0	135314.83	135314.75	-9.34256e-05	639712.3	242642.67	-0.00031588448	242642.92	639711.94	-0.0002876805
0	0.6301274	0.63012695	-2.6897404e-10	0.050204646	0.050204642	0	135287.7	135287.61	-5.1903113e-05	639786.75	242391.33	-0.00018050542	242391.55	639786.44	-0.00021435018
0	0.63000107	0.63000077	-2.3669713e-10	0.050063137	0.050063137	0	135260.6	135260.5	-4.8442907e-05	639861.1	242140.3	-0.00010717509	242140.52	639860.75	-0.00024255415
0	0.62987435	0.629874	-2.6897404e-10	0.04992165	0.04992165	0	135233.38	135233.28	-5.882353e-05	639935.56	241888.34	-0.00024819493	241888.58	639935.2	-0.00014101986
0	0.62974745	0.62974703	-1.5062546e-10	0.04978036	0.04978036	0	135206.14	135206.05	-3.8062284e-05	640009.94	241636.3	-9.025271e-05	241636.5	640009.7	-0.00014666065
0	0.62962013	0.62961966	-3.2276884e-10	0.049638852	0.049638852	0	135178.77	135178.7	-6.920415e-05	640084.25	241383.6	-0.000112815884	241383.78	640083.94	-0.00024255415
0	0.62949234	0.6294918	8.607169e-11	0.049497508	0.049497508	0	135151.34	135151.27	3.4602076e-06	640159	241129.95	2.2563177e-05	241130.14	640158.75	2.8203971e-05
0	0.6293652	0.62936485	-2.9049196e-10	0.04935601	0.04935601	0	135124.06	135123.98	-7.266436e-05	640233	240878.05	-0.00020306859	240878.28	640232.7	-0.00021435018
0	0.62923664	0.6292362	-2.5821506e-10	0.049214706	0.049214706	0	135096.45	135096.38	-5.536332e-05	640307.9	240623.22	-9.025271e-05	240623.44	640307.5	-0.00023691336
0	0.6291076	0.6291072	-2.1517922e-10	0.049073216	0.049073216	0	135068.77	135068.66	-5.882353e-05	640382.6	240367.89	-0.00020306859	240368.08	640382.3	-0.00015230145
0	0.62897986	0.6289795	-2.5821506e-10	0.048931725	0.048931725	0	135041.33	135041.23	-6.228374e-05	640456.6	240114.97	-0.00021435018	240115.16	640456.3	-0.00019178701
0	0.6288511	0.62885076	-9.683065e-11	0.048790433	0.048790433	0	135013.7	135013.61	-1.0380623e-05	640530.9	239860.6	-5.6407942e-05	239860.8	640530.5	-6.768953e-05
0	0.6287217	0.6287213	-3.658047e-10	0.048648868	0.048648868	0	134985.9	134985.81	-7.958477e-05	640605.7	239604.55	-0.0002933213	239604.77	640605.3	-0.00024819493
0	0.6285921	0.6285917	-2.79733e-10	0.04850758	0.04850758	0	134958.06	134957.97	-5.882353e-05	640680.25	239348.4	-0.00020306859	239348.61	640679.94	-0.00019178701
0	0.6284621	0.62846166	-2.5821506e-10	0.04836608	0.04836608	0	134930.16	134930.06	-5.536332e-05	640755	239091.7	-0.00016922383	239091.89	640754.6	-0.0002876805
0	0.62833196	0.62833154	-8.607169e-11	0.04822459	0.04822459	0	134902.22	134902.12	-2.4221454e-05	640829.44	238835.02	-9.025271e-05	238835.25	640829.06	-7.3330324e-05
0	0.6282018	0.62820137	-1.936613e-10	0.04808329	0.04808329	0	134874.28	134874.19	-5.1903113e-05	640904.06	238578.2	-0.00015794224	238578.42	640903.75	-0.00013537906
0	0.62807125	0.6280708	-8.607169e-11	0.047941796	0.047941796	0	134846.25	134846.14	-1.7301038e-05	640978.3	238321.19	-6.768953e-05	238321.42	640978	-9.025271e-05
0	0.6279404	0.62794	-1.936613e-10	0.047800433	0.047800433	0	134818.17	134818.06	-3.4602075e-05	641053.1	238063.3	-0.00013537906	238063.53	641052.7	-0.00011845668
0	0.6278086	0.6278082	-1.7214338e-10	0.047658954	0.047658954	0	134789.84	134789.75	-3.8062284e-05	641127.6	237804.08	-0.00015794224	237804.3	641127.3	-4.5126355e-05
0	0.62767816	0.62767774	-1.2910753e-10	0.047517646	0.047517646	0	134761.84	134761.77	-2.4221454e-05	641202	237547.25	-3.3844764e-05	237547.48	641201.6	-0.000112815884
0	0.6275461	0.62754565	-1.7214338e-10	0.047376156	0.047376156	0	134733.5	134733.4	-3.4602075e-05	641276.4	237287.88	-4.5126355e-05	237288.1	641276.06	-0.00021435018
0	0.6274143	0.62741375	-8.607169e-11	0.04723467	0.04723467	0	134705.17	134705.1	-2.4221454e-05	641351.06	237028.58	-5.6407942e-05	237028.83	641350.75	-5.6407942e-05
0	0.6272816	0.6272811	-1.0758961e-10	0.04709336	0.04709336	0	134676.7	134676.62	-1.7301038e-05	641425.6	236768.38	-2.2563177e-05	236768.6	641425.3	-0.00010153429
0	0.6271494	0.62714905	-2.5821506e-10	0.046951808	0.046951808	0	134648.33	134648.25	-5.1903113e-05	641500.2	236508.78	-0.00027075812	236509	641499.9	-0.00012973827
0	0.62701666	0.62701625	-3.2276884e-10	0.04681051	0.04681051	0	134619.84	134619.75	-6.5743945e-05	641574.75	236248.47	-0.00027075812	236248.67	641574.4	-0.00024819493
0	0.6268829	0.62688255	-9.683065e-11	0.046669018	0.046669018	0	134591.12	134591.05	-2.0761247e-05	641649.44	235986.5	-0.00013537906	235986.69	641649	-2.2563177e-05
0	0.62674904	0.6267486	-4.6263532e-10	0.04652772	0.04652772	0	134562.38	134562.28	-9.34256e-05	641724.06	235724.36	-0.00040613717	235724.6	641723.7	-0.00025947654
0	0.62661624	0.6266158	-1.5062546e-10	0.046386234	0.046386234	0	134533.84	134533.75	-3.4602075e-05	641798.75	235463.77	-0.00013537906	235464.02	641798.3	-6.768953e-05
0	0.6264815	0.6264811	6.670556e-10	0.04624474	0.04624474	0	134504.94	134504.84	0.0001384083	641873.2	235200.73	0.00038357402	235201.02	641872.8	0.00054151623
0	0.62634724	0.62634677	-2.1517922e-10	0.046103436	0.046103436	0	134476.11	134476.02	-4.8442907e-05	641948.25	234937.58	-0.00018050542	234937.78	641947.94	-0.00013537906
0	0.6262129	0.6262125	-1.0758961e-10	0.045961883	0.045961883	0	134447.27	134447.19	-3.4602075e-05	642022.94	234674.95	-0.00013537906	234675.2	642022.56	-4.5126355e-05
0	0.626078	0.6260776	-3.658047e-10	0.045820575	0.045820575	0	134418.3	134418.2	-8.99654e-05	642097.4	234411.62	-0.00033844766	234411.86	642097	-0.00023691336
0	0.6259432	0.62594277	-4.949122e-10	0.0456791	0.0456791	0	134389.34	134389.25	-0.00011764706	642171.8	234148.33	-0.00040613717	234148.6	642171.5	-0.00036665163
0	0.62580705	0.6258066	-1.936613e-10	0.045537613	0.045537613	0	134360.12	134360.03	-5.1903113e-05	642246.8	233882.84	-0.00018050542	233883.08	642246.4	-0.00012409747
0	0.6256711	0.6256707	0	0.0453963	0.0453963	0	134330.94	134330.84	0	642321.1	233618.23	1.6922382e-05	233618.45	642320.7	-4.5126355e-05
0	0.6255355	0.625535	-3.4428677e-10	0.04525482	0.04525482	0	134301.81	134301.72	-8.3044986e-05	642395.94	233353.47	-0.0002933213	233353.7	642395.56	-0.00023127257
0	0.6253989	0.62539834	-3.658047e-10	0.045113444	0.045113444	0	134272.48	134272.38	-7.612457e-05	642470.56	233087.52	-0.00031588448	233087.77	642470.2	-0.00019178701