# t (s)	mx ()	my ()	mz ()	B_extx (T)	B_exty (T)	B_extz (T)	m_fullx (A/m)	m_fully (A/m)	m_fullz (A/m)	m_full.region1x (A/m)	m_full.region1y (A/m)	m_full.region1z (A/m)	m_full.region2x (A/m)	m_full.region2y (A/m)	m_full.region2z (A/m)
0	0.6460381	0.6439421	-3.6534872e-10	0.070710905	0.070710905	0	79121.73	78865.04	-4.817536e-05	633863.44	268334.2	-0.00023992322	271327.7	632443.8	-0.00032258066
0	0.6457979	0.643694	-3.4251443e-10	0.07035724	0.07035724	0	79092.32	78834.63	-4.1891617e-05	634054.56	267796.97	-0.00033589252	270801.84	632632.06	-0.00016726404
0	0.64554965	0.64344203	-5.1377163e-11	0.07000352	0.070003524	0	79061.91	78803.78	-8.378323e-06	634251.4	267246.38	-2.3992323e-05	270258.94	632828.44	-8.363202e-05
0	0.6453028	0.64319193	-2.2834294e-10	0.06964989	0.06964989	0	79031.67	78773.15	-2.304039e-05	634446.06	266700.25	-0.00011996161	269720.16	633022.9	-0.00017921146
0	0.64505076	0.64293647	-2.0550865e-10	0.069296606	0.069296606	0	79000.81	78741.86	-2.513497e-05	634643.25	266144.16	-0.00017094529	269171.7	633219.8	-9.557945e-05
0	0.6448023	0.6426847	-1.7125722e-10	0.06894301	0.068943	0	78970.38	78711.03	-2.513497e-05	634837.6	265596.03	-0.0001559501	268630.9	633414	-8.363202e-05
0	0.64454657	0.6424256	-2.5117725e-10	0.06858925	0.06858925	0	78939.055	78679.3	-2.9324132e-05	635036.1	265033.38	-0.00012595969	268075.88	633612.4	-0.00023894863
0	0.64429563	0.64217144	-4.509773e-10	0.06823563	0.06823563	0	78908.32	78648.164	-5.236452e-05	635231	264481.3	-0.00032989442	267531.16	633807.1	-0.00031063322
0	0.64404076	0.64191335	-1.5984006e-10	0.06788235	0.06788235	0	78877.11	78616.56	-1.7803937e-05	635427.5	263922.03	-0.0001559501	266979.38	634003.44	-9.557945e-05
0	0.6437838	0.6416532	-2.9684583e-10	0.06752872	0.06752872	0	78845.64	78584.695	-3.7702455e-05	635624.75	263359.1	-0.00026391554	266424	634200.56	-0.0001911589
0	0.6435245	0.6413904	-1.8267436e-10	0.06717497	0.06717498	0	78813.875	78552.516	-2.1993099e-05	635821.9	262792.8	-0.00014395393	265865.38	634397.56	-0.00010752688
0	0.643267	0.64112985	-2.9684583e-10	0.06682181	0.06682181	0	78782.35	78520.61	-3.9797036e-05	636019.25	262229.1	-0.00013195777	265309.06	634594.9	-0.00023894863
0	0.64300525	0.64086485	-2.2834294e-10	0.06646817	0.06646817	0	78750.29	78488.14	-2.304039e-05	636216.8	261658.97	-0.00016194818	264746.6	634792.3	-0.00016726404
0	0.64274365	0.64059997	-3.5393158e-10	0.066114426	0.06611443	0	78718.24	78455.73	-4.608078e-05	636414.9	261088.61	-0.00031789826	264183.78	634990.44	-0.0001911589
0	0.64247864	0.640332	-4.2243445e-10	0.06576081	0.065760806	0	78685.8	78422.88	-4.2938907e-05	636614.56	260511.94	-0.0003119002	263614.72	635190.2	-0.0002628435
0	0.6422144	0.64006454	-1.5984006e-10	0.06540752	0.06540752	0	78653.43	78390.13	-1.6756647e-05	636812.44	259938.05	-0.00012595969	263048.4	635388.06	-0.00010752688
0	0.64194804	0.63979495	-3.0826297e-10	0.06505392	0.06505392	0	78620.805	78357.12	-3.3513294e-05	637010.9	259360.61	-0.00015295106	262478.53	635586.75	-0.00027479092
0	0.64168036	0.6395243	-3.1968012e-10	0.06470018	0.06470018	0	78588.03	78323.96	-3.9797036e-05	637209.25	258781.56	-0.00028790787	261907.17	635785.06	-0.00022700119
0	0.64141077	0.6392514	-2.625944e-10	0.06434655	0.06434655	0	78555.016	78290.56	-2.7229551e-05	637408.2	258199.05	-0.00020393475	261332.27	635984.1	-0.00015531661
0	0.6411409	0.63897866	-1.3700577e-10	0.06399326	0.06399326	0	78521.95	78257.14	-1.4662066e-05	637607.9	257615.6	-0.00022192899	260756.38	636184.1	1.1947432e-05
0	0.64086795	0.6387026	-3.6534872e-10	0.06363963	0.06363963	0	78488.53	78223.336	-4.503349e-05	637807.25	257027.9	-0.00020393475	260176.4	636383.6	-0.00027479092
0	0.6405939	0.6384254	-3.3680583e-10	0.063285895	0.063285895	0	78454.97	78189.38	-3.5607874e-05	638007	256438.34	-0.00023392514	259594.55	636583.56	-0.00021505376
0	0.6403183	0.6381467	-1.8267436e-10	0.06293271	0.06293271	0	78421.21	78155.26	-2.304039e-05	638206.8	255846.58	-0.00011996161	259010.47	636783.6	-0.00017921146
0	0.6400423	0.637868	-4.5668588e-10	0.0625791	0.062579095	0	78387.41	78121.11	-5.341181e-05	638407.6	255253.42	-0.00034788868	258424.89	636984.75	-0.00033452807
0	0.6397643	0.6375872	1.1417148e-11	0.06222535	0.06222535	0	78353.37	78086.73	-2.0945809e-06	638607.75	254658.14	-1.1996161e-05	257837.25	637185.4	3.5842295e-05
0	0.6394836	0.63730323	-2.7401154e-10	0.06187174	0.06187174	0	78318.984	78051.96	-3.7702455e-05	638808.1	254058.4	-0.00022792707	257245.3	637386.06	-0.00021505376
0	0.6392034	0.6370204	-1.1417147e-10	0.061518423	0.061518423	0	78284.664	78017.305	-4.1891617e-06	639009.06	253459.4	-2.3992323e-05	256653.88	637587.3	-9.557945e-05
0	0.63892025	0.63673437	-1.02754326e-10	0.061164837	0.061164837	0	78249.99	77982.29	-1.0472904e-05	639210.5	252855.55	-0.00014695298	256057.75	637789.2	0
0	0.6386353	0.6364464	-3.9389159e-10	0.06081109	0.06081109	0	78215.086	77947.02	-4.817536e-05	639411.7	252249.14	-0.00019193858	255459.11	637990.9	-0.00033452807
0	0.63835	0.6361584	-5.708574e-12	0.060457487	0.06045749	0	78180.16	77911.74	-2.0945809e-06	639612.9	251642.6	-3.5988483e-05	254860.17	638192.5	-1.1947432e-05
0	0.63806003	0.63586545	-1.5413149e-10	0.060104165	0.060104165	0	78144.63	77875.86	-1.4662066e-05	639814.94	251028.14	-0.00012296066	254253.69	638395	-8.363202e-05
0	0.63777065	0.63557345	-2.5117725e-10	0.05975055	0.059750553	0	78109.195	77840.09	-2.9324132e-05	640018.06	250413.89	-0.00019793666	253647.08	638598.9	-0.00015531661
0	0.63748246	0.6352827	-2.4546867e-10	0.059396815	0.059396815	0	78073.91	77804.49	-2.9324132e-05	640218.44	249804.36	-0.00019193858	253045.08	638799.75	-0.00013142175
0	0.63718957	0.63498694	-3.7676587e-10	0.059043616	0.059043616	0	78038.02	77768.27	-4.1891617e-05	640420.7	249185.83	-0.00017994242	252434.4	639002.6	-0.00028673836
0	0.63689315	0.63468784	-2.5117725e-10	0.058690008	0.058690008	0	78001.73	77731.64	-2.304039e-05	640624.94	248560.42	-0.00022192899	251816.8	639207.56	-7.168459e-05
0	0.63660043	0.63439256	-2.0550865e-10	0.058336258	0.058336258	0	77965.88	77695.484	-2.304039e-05	640825.75	247943.89	-0.00022792707	251207.84	639409.06	-0.000119474316
0	0.6363004	0.63409	2.0550865e-10	0.057982672	0.057982672	0	77929.13	77658.414	2.513497e-05	641030.25	247313.17	0.00019193858	250585.06	639614.3	0.000119474316
0	0.6360042	0.633791	-3.4251443e-10	0.057629313	0.057629313	0	77892.84	77621.805	-4.3986198e-05	641231.06	246691.47	-0.0003868762	249971.05	639815.9	-0.00013142175
0	0.6357037	0.6334881	-3.88183e-10	0.057275724	0.057275724	0	77856.055	77584.71	-4.1891617e-05	641434.56	246061.28	-0.00020393475	249348.53	640020.3	-0.00027479092
0	0.63539964	0.63318163	-2.2834294e-10	0.05692202	0.05692202	0	77818.82	77547.164	-2.7229551e-05	641639.2	245424.94	-0.00016794626	248720.02	640225.8	-0.00017921146
0	0.63509744	0.632877	-3.6534872e-10	0.056568418	0.056568418	0	77781.805	77509.86	-3.9797036e-05	641841.7	244793.44	-0.00026391554	248096.14	640429.1	-0.00027479092
0	0.6347918	0.63256896	-1.8267436e-10	0.05621506	0.05621506	0	77744.37	77472.125	-2.408768e-05	642045.4	244155.8	-0.00017994242	247466.25	640633.8	-7.168459e-05
0	0.63448495	0.6322595	-3.48223e-10	0.055861473	0.055861473	0	77706.78	77434.234	-4.3986198e-05	642248.3	243516.98	-0.00024292227	246835.28	640837.7	-0.00031063322
0	0.6341759	0.6319482	-3.1968012e-10	0.05550774	0.05550774	0	77668.93	77396.11	-4.608078e-05	642452.94	242873.77	-0.00022192899	246199.75	641043.44	-0.0002628435
0	0.6338643	0.63163424	-3.6534872e-10	0.055154506	0.055154502	0	77630.78	77357.65	-4.608078e-05	642657.4	242226.98	-0.00022792707	245560.78	641248.8	-0.0002628435
0	0.6335525	0.63132024	-3.1968012e-10	0.054800916	0.054800916	0	77592.586	77319.195	-4.1891617e-05	642861.8	241580.12	-0.00019193858	244921.61	641454.3	-0.00029868577
0	0.63323545	0.6310009	-5.4802307e-10	0.05444719	0.05444719	0	77553.76	77280.086	-7.540491e-05	643068	240923.94	-0.00038087813	244273.28	641661.7	-0.00045400238
0	0.6329218	0.6306851	-3.6534872e-10	0.054093603	0.054093603	0	77515.35	77241.414	-4.0844327e-05	643271.1	240275.83	-0.00026391554	243632.83	641866	-0.00027479092
0	0.63260275	0.6303639	-1.8838293e-10	0.05374022	0.05374022	0	77476.266	77202.06	-1.4662066e-05	643477	239617.08	-0.00013195777	242981.86	642073.25	1.1947432e-05
0	0.6322849	0.6300439	-2.5117725e-10	0.053386636	0.053386636	0	77437.336	77162.88	-2.513497e-05	643680.9	238962.23	-8.997121e-05	242334.67	642278.4	-0.00021505376
0	0.63196397	0.6297209	-2.0550865e-10	0.05303294	0.05303294	0	77398.04	77123.336	-2.408768e-05	643885.7	238302.27	-0.00016794626	241682.42	642484.44	-8.363202e-05
0	0.63164043	0.6293954	-2.5117725e-10	0.05267936	0.05267936	0	77358.4	77083.46	-2.7229551e-05	644091.4	237637.58	-0.00019193858	241025.47	642691.7	-0.00015531661
0	0.63131315	0.62906593	-3.6534872e-10	0.052325953	0.052325953	0	77318.336	77043.12	-5.236452e-05	644297.2	236967.5	-0.0002309261	240363.39	642898.7	-0.00035842293
0	0.6309889	0.62873983	-3.1968012e-10	0.05197238	0.05197238	0	77278.62	77003.17	-3.9797036e-05	644501.75	236302.98	-0.00028790787	239706.44	643104.9	-0.00017921146
0	0.63065815	0.62840736	-4.110173e-10	0.051618654	0.051618654	0	77238.11	76962.45	-4.608078e-05	644709.44	235626.4	-0.00033589252	239037.52	643314.1	-0.00022700119
0	0.6303294	0.62807685	-1.8267436e-10	0.0512654	0.0512654	0	77197.84	76921.98	-1.9898518e-05	644914.3	234955.47	-0.00017094529	238374.2	643520.56	-8.363202e-05
0	0.62999505	0.6277405	-1.3700577e-10	0.050911825	0.050911825	0	77156.91	76880.77	-1.4662066e-05	645120.44	234275.23	-0.00011996161	237701.89	643728.1	-4.7789727e-05
0	0.6296607	0.6274046	-1.8267436e-10	0.050558098	0.050558098	0	77115.94	76839.65	-2.304039e-05	645327.94	233593.81	-0.0001559501	237027.98	643937.5	-7.168459e-05
0	0.6293267	0.62706894	-2.9684583e-10	0.050204538	0.050204538	0	77075.04	76798.53	-3.7702455e-05	645532.75	232915.67	-0.00014395393	236357.4	644143.94	-0.00032258066
0	0.6289858	0.6267265	-4.5668588e-10	0.04985111	0.04985111	0	77033.3	76756.6	-5.5506393e-05	645741.06	232224.19	-0.0003119002	235673.64	644354.25	-0.00033452807
0	0.6286487	0.6263879	-1.5984006e-10	0.04949754	0.04949754	0	76992.016	76715.125	-2.304039e-05	645945.7	231541.86	-0.00019193858	234998.83	644560.6	-5.9737158e-05
0	0.6283064	0.6260443	-2.9684583e-10	0.04914385	0.04914385	0	76950.1	76673.03	-3.7702455e-05	646152.7	230849.94	-0.0002609165	234314.55	644769.56	-0.00015531661
0	0.6279607	0.6256969	-2.2834294e-10	0.0487903	0.0487903	0	76907.75	76630.5	-2.304039e-05	646360.9	230151.77	-0.0002759117	233624.05	644979.6	-4.7789727e-05
0	0.6276166	0.6253515	-1.940915e-10	0.04843685	0.048436847	0	76865.61	76588.195	-2.9324132e-05	646566.56	229458.64	-0.00022192899	232938.42	645187.4	-0.00014336918
0	0.6272665	0.6250001	-2.2834294e-10	0.048083298	0.048083294	0	76822.734	76545.164	-2.9324132e-05	646775.3	228754.08	-0.00014995201	232241.53	645398.1	-0.00017921146
0	0.6269192	0.6246515	-1.02754326e-10	0.04772958	0.04772958	0	76780.19	76502.46	-1.5709356e-05	646980.6	228056.77	-0.00013195777	231551.72	645605.44	1.1947432e-05
0	0.6265653	0.62429607	-4.110173e-10	0.047376283	0.047376283	0	76736.836	76458.94	-5.026994e-05	647188.3	227347.61	-0.00032389635	230850.34	645815.25	-0.00031063322
0	0.62621325	0.6239433	-7.992003e-11	0.047022738	0.047022738	0	76693.734	76415.73	-6.2837426e-06	647395.6	226642.19	-5.6981768e-05	230152.19	646025	-4.7789727e-05
0	0.625857	0.623586	-3.6534872e-10	0.04666901	0.04666901	0	76650.11	76371.98	-4.817536e-05	647603.56	225929.8	-0.00038387717	229447.25	646235.1	-0.00020310633
0	0.62549883	0.62322694	-4.2243445e-10	0.046315473	0.046315473	0	76606.234	76328	-5.026994e-05	647811.56	225214.84	-0.00037338052	228739.72	646445.6	-0.00025089606
0	0.62513965	0.6228667	-2.169258e-10	0.04596199	0.04596199	0	76562.25	76283.88	-2.9324132e-05	648018.44	224499.45	-0.00023692418	228031.86	646654.8	-7.168459e-05
0	0.62477714	0.6225033	-2.0550865e-10	0.045608453	0.04560845	0	76517.84	76239.375	-2.513497e-05	648226.44	223778.2	-0.00021593091	227318.1	646865.4	-0.00010752688
0	0.6244127	0.62213826	-9.133718e-11	0.04525478	0.04525478	0	76473.22	76194.66	-1.2567485e-05	648434.8	223054.28	-0.00020393475	226601.53	647076.25	5.9737158e-05
0	0.62404525	0.62177014	-4.110173e-10	0.04490124	0.04490124	0	76428.22	76149.58	-4.608078e-05	648643.9	222325.39	-0.00033289348	225879.97	647287.94	-0.00021505376
0	0.62367785	0.6214021	-2.5117725e-10	0.04454774	0.04454774	0	76383.21	76104.5	-2.7229551e-05	648851.3	221598.12	-0.00017994242	225160.06	647498	-0.00016726404
0	0.6233071	0.6210306	-4.2243445e-10	0.044194214	0.04419421	0	76337.82	76059	-5.4459102e-05	649058.9	220865.84	-0.00019193858	224435.3	647708.2	-0.00041816008
0	0.62293214	0.62065536	-1.8267436e-10	0.0438405	0.0438405	0	76291.88	76013.055	-2.304039e-05	649269.6	220124.97	-0.00012296066	223701.55	647921.94	-0.00016726404
0	0.62256	0.6202828	-3.1968012e-10	0.043486968	0.043486968	0	76246.31	75967.43	-3.1418713e-05	649476	219392.3	-0.00025191938	222976.06	648131.2	-0.00010752688
0	0.62218106	0.6199037	-2.7401154e-10	0.043133646	0.043133646	0	76199.9	75920.99	-3.7702455e-05	649686.06	218646.36	-0.00019193858	222237.31	648344.3	-0.00021505376
0	0.62180334	0.6195257	-4.338516e-10	0.04277993	0.04277993	0	76153.66	75874.695	-4.608078e-05	649893.3	217905.14	-0.00029240642	221503.28	648554.4	-0.00035842293
0	0.6214207	0.619143	-3.88183e-10	0.042426404	0.042426404	0	76106.77	75827.836	-4.608078e-05	650103.3	217154.23	-0.0003119002	220759.47	648767.56	-0.0002628435
0	0.62103873	0.6187609	-3.88183e-10	0.042072885	0.042072877	0	76060.01	75781.03	-4.608078e-05	650310.25	216407.3	-0.00041986565	220019.7	648977.7	-0.00016726404
0	0.62064946	0.6183717	-2.9684583e-10	0.04171936	0.041719362	0	76012.33	75733.37	-3.1418713e-05	650521.6	215645.78	-0.0002459213	219265.3	649192.3	-0.0001911589
0	0.62026393	0.6179863	-1.8267436e-10	0.041365698	0.041365698	0	75965.12	75686.17	-2.0945809e-05	650728.56	214894.11	-7.197697e-05	218520.6	649402.44	-0.00016726404
0	0.61987394	0.6175964	-3.5393158e-10	0.041012187	0.041012187	0	75917.34	75638.42	-4.608078e-05	650936.8	214134.72	-0.0002609165	217768.31	649614.06	-0.0002628435
0	0.61948115	0.61720407	-2.0550865e-10	0.040658638	0.040658638	0	75869.24	75590.36	-2.9324132e-05	651145.8	213370.8	-0.00016794626	217011.3	649826.6	-0.00015531661
0	0.61908454	0.61680764	-2.7401154e-10	0.04030513	0.040305126	0	75820.664	75541.805	-3.3513294e-05	651355.4	212600.92	-0.00017994242	216248.55	650039.5	-0.0002628435
0	0.61868834	0.6164122	-3.4251443e-10	0.039951425	0.03995143	0	75772.15	75493.375	-4.3986198e-05	651564.25	211832.61	-0.00025191938	215486.86	650252.2	-0.00031063322
0	0.6182888	0.6160132	-4.110173e-10	0.03959793	0.03959793	0	75723.2	75444.52	-5.8648264e-05	651773.4	211059.34	-0.0003868762	214720.42	650464.94	-0.0002628435
0	0.61788446	0.61560994	-2.5117725e-10	0.03924455	0.03924455	0	75673.69	75395.125	-2.513497e-05	651984.5	210277.56	-0.00014395393	213945.23	650680.06	-0.00016726404
0	0.61748004	0.6152065	-2.9684583e-10	0.03889085	0.03889085	0	75624.16	75345.7	-3.9797036e-05	652193.7	209497.62	-0.000296905	213171.94	650893.1	-0.00015531661
0	0.61707264	0.61479944	-2.0550865e-10	0.03853735	0.03853735	0	75574.266	75295.87	-2.1993099e-05	652401.94	208713.86	-0.00014695298	212395.23	651105.06	-0.000119474316
0	0.61666226	0.6143905	-2.2834294e-10	0.038183756	0.038183764	0	75523.99	75245.78	-3.3513294e-05	652613.1	207923.84	-0.00029990403	211611.5	651320.56	-3.5842295e-05
0	0.6162512	0.61398077	-3.88183e-10	0.037830275	0.037830275	0	75473.66	75195.59	-4.817536e-05	652822.1	207134.94	-0.00026391554	210829	651533.7	-0.00031063322
0	0.6158388	0.61356956	-4.4526874e-10	0.037476566	0.037476566	0	75423.16	75145.23	-4.503349e-05	653029.7	206345.52	-0.00031489923	210046.2	651745.3	-0.00027479092
0	0.61542183	0.61315393	-2.625944e-10	0.03712314	0.03712314	0	75372.086	75094.32	-3.5607874e-05	653239.25	205547.73	-0.00025191938	209254.88	651959.2	-0.000119474316
0	0.61500263	0.61273605	-2.2834294e-10	0.03676951	0.03676951	0	75320.76	75043.164	-3.1418713e-05	653448.5	204747.28	-0.00024292227	208460.88	652172.6	-0.00014336918
0	0.61457926	0.6123148	-2.7401154e-10	0.036416046	0.036416046	0	75268.9	74991.56	-3.3513294e-05	653660	203939.16	-0.00017994242	207658.7	652388.9	-0.00022700119
0	0.61415416	0.61189157	-3.6534872e-10	0.03606235	0.03606235	0	75216.836	74939.72	-4.3986198e-05	653869.8	203129.98	-0.00026391554	206855.78	652603.4	-0.00027479092
0	0.6137279	0.61146724	-3.0826297e-10	0.03570889	0.03570889	0	75164.63	74887.76	-3.7702455e-05	654078.94	202320	-0.00019793666	206051.89	652817.25	-0.00021505376
0	0.61329836	0.6110397	-1.2558862e-10	0.035355452	0.035355452	0	75112.016	74835.4	-1.8851228e-05	654288.7	201504.97	-0.00013570658	205242.89	653031.75	-4.7789727e-05
0	0.6128681	0.6106114	-1.5984006e-10	0.03500176	0.035001762	0	75059.33	74782.92	-1.2567485e-05	654496.3	200690.81	-9.596929e-05	204435	653244	-8.363202e-05
0	0.6124317	0.61017704	-6.8502884e-11	0.034648303	0.034648303	0	75005.88	74729.75	-1.0472904e-05	654706.4	199865.83	-0.00011996161	203616.14	653458.9	-5.9737158e-05
0	0.61199594	0.60974395	-2.2834294e-10	0.034294624	0.034294624	0	74952.5	74676.7	-2.513497e-05	654915.75	199042.78	-0.00019193858	202798.69	653673.5	-0.000119474316
0	0.61155516	0.60930544	-1.1417147e-10	0.03394118	0.033941176	0	74898.53	74622.99	-6.2837426e-06	655125	198212.52	-8.397313e-05	201974.47	653887.7	0
0	0.6111111	0.6088647	-3.1968012e-10	0.033587486	0.03358749	0	74844.14	74569.03	-3.3513294e-05	655336.9	197375.92	-0.00022942659	201143.05	654105.2	-0.00020310633
0	0.6106664	0.60842305	-2.9684583e-10	0.033234086	0.033234086	0	74789.695	74514.94	-3.5607874e-05	655546	196540.8	-0.00022642754	200313.42	654319.8	-0.00016726404
0	0.61021835	0.607978	-3.1968012e-10	0.032880407	0.032880403	0	74734.805	74460.42	-3.9797036e-05	655755.6	195700.44	-0.0003119002	199478.55	654534.9	-0.00014336918
0	0.60976636	0.60752916	-3.6534872e-10	0.03252696	0.03252696	0	74679.445	74405.45	-5.026994e-05	655965.8	194854.31	-0.00026391554	198637.89	654750.56	-0.00031063322
0	0.6093139	0.6070802	-4.110173e-10	0.032173276	0.032173276	0	74624.03	74350.46	-4.608078e-05	656174.9	194008.72	-0.00036138436	197797.47	654965.3	-0.00023894863
0	0.608859	0.6066285	-1.5984006e-10	0.031819817	0.031819817	0	74568.33	74295.14	-2.0945809e-05	656382.5	193160.84	-0.00013195777	196955.16	655178.7	-0.000119474316
0	0.6083978	0.60617137	-1.5984006e-10	0.031466354	0.031466354	0	74511.85	74239.15	-1.6756647e-05	656594.1	192301.02	-0.00010946497	196100.11	655396.4	-8.363202e-05
0	0.6079364	0.6057137	-2.2834294e-10	0.031112675	0.031112675	0	74455.33	74183.125	-3.3513294e-05	656803.25	191442.95	-0.0002549184	195246.97	655611.6	-0.00013142175
0	0.607471	0.6052523	-2.0550865e-10	0.030759212	0.030759212	0	74398.336	74126.61	-3.0371422e-05	657013	190578.94	-0.00016794626	194387.89	655827.44	-0.00016726404
0	0.60700375	0.60478944	-3.6534872e-10	0.030405546	0.030405546	0	74341.1	74069.914	-4.3986198e-05	657222.2	189713.1	-0.00034788868	193526.69	656043.06	-0.0001911589
0	0.606535	0.60432464	-3.9960016e-10	0.030052083	0.030052084	0	74283.695	74012.99	-5.131723e-05	657429.5	188846.73	-0.0003943738	192665.34	656256.5	-0.00022700119
0	0.60605896	0.60385364	-3.0826297e-10	0.029698407	0.029698407	0	74225.4	73955.305	-3.9797036e-05	657641.2	187966.64	-0.0002759117	191789.47	656474.94	-0.00016726404
0	0.6055831	0.6033825	-1.3700577e-10	0.029345004	0.029345004	0	74167.11	73897.61	-1.8851228e-05	657850.25	187089.16	-0.0001878149	190916.31	656690.7	-1.1947432e-05
0	0.6051054	0.6029094	-1.3700577e-10	0.028991336	0.028991336	0	74108.61	73839.664	-2.304039e-05	658057.56	186210.61	-0.00018275403	190042.42	656904.56	-5.9737158e-05
0	0.60462266	0.6024316	-3.4251443e-10	0.028637862	0.028637862	0	74049.484	73781.14	-4.608078e-05	658266.7	185323.6	-0.00028790787	189159.7	657120.44	-0.00023894863
0	0.60413617	0.6019505	-4.338516e-10	0.02828421	0.02828421	0	73989.91	73722.22	-5.4459102e-05	658476.4	184431.08	-0.00035369932	188271.25	657337.06	-0.00031063322
0	0.6036471	0.6014677	-1.5984006e-10	0.027930737	0.027930737	0	73930.016	73663.086	-2.304039e-05	658686.9	183534.83	-0.000259417	187378.27	657555.25	0
0	0.60315734	0.6009831	-3.6534872e-10	0.027577253	0.027577251	0	73870.03	73603.74	-4.3986198e-05	658893.9	182640.2	-0.0002759117	186487.84	657769.1	-0.00025089606
0	0.60266024	0.60049254	-9.133718e-11	0.027223593	0.027223593	0	73809.16	73543.664	-1.2567485e-05	659105.06	181732.11	-0.00010365433	185582.95	657988.1	-4.7789727e-05
0	0.60216314	0.60000175	-2.397601e-10	0.02687011	0.026870107	0	73748.266	73483.55	-2.8276841e-05	659313.75	180826.44	-0.0002627909	184680.52	658204.5	-8.363202e-05
0	0.6016641	0.5995085	-3.1968012e-10	0.02651647	0.02651647	0	73687.15	73423.16	-4.1891617e-05	659520.5	179919.6	-0.00022792707	183777.45	658418.56	-0.00022700119
0	0.6011577	0.59900945	-3.6534872e-10	0.026162975	0.026162976	0	73625.125	73362.02	-4.608078e-05	659731.44	178999.27	-0.00028790787	182859.83	658637.7	-0.00027479092
0	0.60065234	0.5985104	-3.1968012e-10	0.025809327	0.025809327	0	73563.234	73300.91	-4.1891617e-05	659938	178084.1	-0.00024554643	181948.06	658851.94	-0.0002628435
0	0.60014147	0.59800667	-2.7401154e-10	0.025455913	0.025455913	0	73500.664	73239.21	-3.3513294e-05	660146.9	177159.55	-0.00023992322	181026.27	659069	-0.00017921146
0	0.5996263	0.5974996	-2.0550865e-10	0.025102269	0.025102269	0	73437.57	73177.11	-2.0945809e-05	660357.06	176228.36	-0.00014132977	180097.12	659287.9	-0.00010752688
0	0.599111	0.59699124	-3.1968012e-10	0.02474877	0.024748772	0	73374.47	73114.86	-4.817536e-05	660563.3	175300.08	-0.00033682972	179171.86	659502.3	-0.0001911589
0	0.5985896	0.5964774	-2.7401154e-10	0.024395151	0.02439515	0	73310.6	73051.914	-3.3513294e-05	660771.94	174361.25	-0.00026391554	178235.61	659719.25	-0.00017921146
0	0.5980649	0.595962	-9.133718e-11	0.024041649	0.024041649	0	73246.34	72988.79	-1.4662066e-05	660982.06	173417.75	-0.000107965454	177293.22	659938.8	-5.9737158e-05
0	0.59753984	0.5954446	-1.5984006e-10	0.023688141	0.023688143	0	73182.03	72925.44	-1.8851228e-05	661187.94	172476.64	-0.00012858385	176354.5	660153.4	-5.9737158e-05
0	0.5970067	0.5949209	-4.5668588e-10	0.023334505	0.023334505	0	73116.74	72861.28	-5.4459102e-05	661398.44	171520.95	-0.00039587333	175400	660373.25	-0.00028673836
0	0.596473	0.59439605	-2.5117725e-10	0.022980995	0.022980997	0	73051.37	72797.01	-3.3513294e-05	661606.2	170566.9	-0.00021593091	174447.34	660590.3	-0.00020310633
0	0.59593534	0.59386796	-2.8542868e-10	0.02262739	0.02262739	0	72985.53	72732.33	-2.9324132e-05	661814.4	169607.44	-0.00018893954	173488.98	660807.94	-0.00016726404
0	0.5953946	0.5933369	-1.8267436e-10	0.02227387	0.02227387	0	72919.31	72667.3	-2.1993099e-05	662021.75	168644.48	-0.00021593091	172526.97	661025.06	-7.168459e-05
0	0.59485006	0.59280217	-3.4251443e-10	0.02192025	0.02192025	0	72852.62	72601.805	-4.3986198e-05	662229.56	167675.92	-0.00024742083	171559.16	661242.7	-0.00031063322
0	0.5943019	0.5922643	-6.3936023e-10	0.021566823	0.021566823	0	72785.48	72535.94	-8.3783234e-05	662437.06	166702.83	-0.0005608205	170586.55	661460.2	-0.00041816008
0	0.5937513	0.59172314	-2.0550865e-10	0.021213202	0.021213202	0	72718.05	72469.65	-1.8851228e-05	662642.56	165727.69	-5.9980805e-05	169612.69	661675.4	-0.00021505376
0	0.5931946	0.59117824	-3.3109726e-10	0.02085968	0.020859681	0	72649.87	72402.92	-4.1891617e-05	662851.8	164742.3	-0.00038537668	168626.52	661895.4	-9.557945e-05
0	0.5926369	0.59063065	-1.8267436e-10	0.020506093	0.020506093	0	72581.57	72335.86	-2.304039e-05	663057	163758.05	-9.596929e-05	167642.89	662110.6	-0.00015531661
0	0.5920744	0.5900797	-4.4526874e-10	0.020152565	0.020152563	0	72512.68	72268.38	-5.6553683e-05	663264.06	162766.45	-0.00043186182	166650.8	662328.5	-0.00022700119
0	0.5915067	0.589525	-1.8267436e-10	0.019798964	0.019798964	0	72443.15	72200.445	-1.4662066e-05	663472.94	161767.06	-0.0001559501	165649.67	662548.75	-3.5842295e-05
0	0.59093577	0.5889662	-4.566859e-11	0.019445425	0.019445425	0	72373.23	72132.01	-1.1520195e-05	663680.06	160763.95	-0.00015145153	164645.62	662767.06	4.7789727e-05
0	0.59036225	0.5884055	-9.133718e-11	0.019091882	0.019091882	0	72302.98	72063.33	-1.0472904e-05	663886.5	159758.64	-0.00014395393	163638.81	662985	0
0	0.58978426	0.5878405	-5.023545e-10	0.018738283	0.018738283	0	72232.19	71994.15	-5.8648264e-05	664093.06	158746.94	-0.00039887236	162625.48	663203.1	-0.00028673836
0	0.58920234	0.5872719	-9.133718e-11	0.018384755	0.018384755	0	72160.93	71924.5	-8.378323e-06	664299.5	157730.16	-0.0001634477	161606.83	663421.3	7.168459e-05
0	0.5886166	0.5867	-2.8542868e-10	0.018031174	0.018031174	0	72089.19	71854.47	-3.5607874e-05	664505.94	156708.64	-0.00022792707	160582.95	663639.7	-0.0001911589
0	0.5880288	0.58612525	-3.0826297e-10	0.017677726	0.017677726	0	72017.2	71784.06	-3.1418713e-05	664709.9	155685.84	-0.00017394434	159558.61	663855.2	-0.00017921146
0	0.5874329	0.585545	-3.88183e-10	0.017324151	0.017324151	0	71944.22	71713.01	-4.1891617e-05	664918.25	154649.56	-0.00033589252	158518.45	664076.6	-0.00016726404
0	0.58683753	0.58496356	-3.5393158e-10	0.016970588	0.016970588	0	71871.305	71641.805	-3.7702455e-05	665121.75	153617.45	-0.00028790787	157483.9	664292.3	-0.00020310633
0	0.5862332	0.5843759	-2.397601e-10	0.016617043	0.016617043	0	71797.28	71569.82	-2.9324132e-05	665330.06	152570.2	-0.00021593091	156432.06	664514.1	-0.00016726404
0	0.58562714	0.58378565	-1.940915e-10	0.01626348	0.01626348	0	71723.055	71497.54	-2.513497e-05	665535.7	151522.6	-0.00016044866	155380.47	664732.9	-9.557945e-05
0	0.58501697	0.583192	-2.2834295e-11	0.015909908	0.015909908	0	71648.33	71424.82	-9.425614e-06	665741.2	150469.97	-0.00017994242	154323.39	664951.7	8.363202e-05
0	0.58440214	0.5825939	-3.0826297e-10	0.015556337	0.015556337	0	71573.03	71351.586	-4.1891617e-05	665946.9	149410.88	-0.00020393475	153259.58	665171	-0.00028673836
0	0.5837847	0.58199257	-5.7085735e-11	0.015202773	0.015202773	0	71497.414	71277.93	-1.2567485e-05	666150.06	148349.89	-1.9493762e-05	152194.58	665387.44	-7.168459e-05
0	0.58316034	0.58138746	-2.8542868e-10	0.014849203	0.014849204	0	71420.945	71203.82	-3.5607874e-05	666357.25	147278.03	-0.00026391554	151115.83	665609.5	-0.00013142175
0	0.5825327	0.5807782	-1.940915e-10	0.014495668	0.014495668	0	71344.08	71129.2	-2.0945809e-05	666562.3	146202.92	-0.00014395393	150034.67	665829	-0.00010752688
0	0.5819008	0.5801652	-4.110173e-10	0.014142104	0.014142105	0	71266.69	71054.125	-5.236452e-05	666767.25	145122.5	-0.00045285508	148947.67	666048.6	-0.00015531661
0	0.58126676	0.5795494	-9.133718e-11	0.013788626	0.013788626	0	71189.03	70978.7	-8.378323e-06	666969.5	144041.05	-9.596929e-05	147860.39	666265.25	-4.7789727e-05
0	0.5806256	0.5789281	-1.940915e-10	0.013435055	0.013435055	0	71110.516	70902.62	-2.513497e-05	667174.4	142948.61	-0.0002459213	146760.61	666485.2	-1.1947432e-05
0	0.57997775	0.57830226	-3.7676587e-10	0.013081487	0.013081488	0	71031.164	70825.98	-4.608078e-05	667381.25	141846.56	-0.00030890116	145649.34	666708.44	-0.00021505376
0	0.57932734	0.57767326	-3.6534872e-10	0.012727956	0.012727956	0	70951.52	70748.93	-5.236452e-05	667585.8	140742.84	-0.0004078695	144537.08	666928.75	-0.00020310633
0	0.5786726	0.57704014	-1.8267436e-10	0.012374385	0.012374385	0	70871.32	70671.4	-2.304039e-05	667789.94	139633.47	-0.00022042946	143418.72	667149.1	-8.363202e-05
0	0.5780127	0.5764027	-3.7676587e-10	0.0120208245	0.012020824	0	70790.51	70593.32	-3.7702455e-05	667994.3	138517.55	-0.00036738242	142293.36	667369.9	-0.00013142175
0	0.5773507	0.5757622	-2.169258e-10	0.0116672525	0.0116672525	0	70709.43	70514.88	-3.1418713e-05	668195.9	137400.61	-0.00013195777	141167.62	667587.44	-0.00016726404
0	0.57667905	0.57511586	-3.3109726e-10	0.011313695	0.011313695	0	70627.18	70435.734	-3.9797036e-05	668402.2	136268.89	-0.000371881	140023.84	667811.56	-0.000119474316
0	0.5760046	0.57446575	-2.625944e-10	0.010960125	0.010960125	0	70544.57	70356.11	-2.9324132e-05	668606.2	135134.56	-0.00018444099	138878.25	668033.06	-0.00020310633
0	0.57532495	0.5738116	4.566859e-11	0.010606601	0.010606601	0	70461.336	70275.99	4.1891617e-06	668810.25	133994.05	-0.00013795585	137725.61	668254.9	0.000119474316
0	0.57464075	0.57315326	-5.251888e-10	0.010253047	0.010253047	0	70377.53	70195.36	-6.0742845e-05	669013.7	132847.95	-0.0004828455	136566.92	668476.5	-0.00029868577
0	0.57395345	0.5724909	-1.02754326e-10	0.009899482	0.009899482	0	70293.36	70114.25	-1.8851228e-05	669215.25	131698.78	-0.00015445058	135405.94	668695.6	-3.5842295e-05
0	0.5732563	0.57182294	-2.7401154e-10	0.009545939	0.009545941	0	70207.98	70032.43	-2.9324132e-05	669421.06	130535.28	-0.00020993283	134226.95	668921.1	-0.00015531661
0	0.5725562	0.57115126	-3.1968012e-10	0.009192377	0.009192377	0	70122.25	69950.17	-3.9797036e-05	669624.44	129369.52	-0.00029390596	133046.4	669143.7	-0.00014336918
0	0.57185066	0.5704745	-4.795202e-10	0.008838863	0.008838863	0	70035.82	69867.29	-5.6553683e-05	669828.06	128196.01	-0.00044385798	131857.69	669366.9	-0.0002628435
0	0.57113993	0.569794	-1.02754326e-10	0.008485294	0.008485294	0	69948.78	69783.93	-1.2567485e-05	670031.3	127017.125	-0.00016794626	130662.29	669590.1	-1.1947432e-05
0	0.57042354	0.56910825	0	0.00813174	0.00813174	0	69861.05	69699.96	-8.378323e-06	670234.7	125830.67	-0.000107965454	129458.92	669813.8	2.3894863e-05
0	0.5697014	0.56841826	-4.110173e-10	0.0077781687	0.0077781687	0	69772.61	69615.45	-5.026994e-05	670438.06	124637.36	-0.00044385798	128247.44	670038.2	-0.00014336918
0	0.5689766	0.5677241	-3.4251443e-10	0.0074246014	0.007424602	0	69683.82	69530.445	-3.5607874e-05	670638.8	123441.664	-0.00020993283	127034.67	670259.25	-0.0001911589
0	0.5682403	0.5670237	-3.1968012e-10	0.007071052	0.0070710527	0	69593.65	69444.664	-3.5607874e-05	670844.56	122229.586	-0.00028790787	125801.01	670487.75	-0.00016726404
0	0.5675009	0.566319	-2.0550865e-10	0.0067175273	0.006717527	0	69503.11	69358.36	-2.304039e-05	671047.9	121014.8	-0.00020393475	124565.6	670713.06	-8.363202e-05