# t (s)	mx ()	my ()	mz ()	B_extx (T)	B_exty (T)	B_extz (T)	m_fullx (A/m)	m_fully (A/m)	m_fullz (A/m)	m_full.region1x (A/m)	m_full.region1y (A/m)	m_full.region1z (A/m)	m_full.region2x (A/m)	m_full.region2y (A/m)	m_full.region2z (A/m)
0	0.6532179	0.65321374	-4.3008716e-10	0.07071067	0.07071067	0	173942.61	173941.5	-0.00010841837	624059.9	290441.84	-0.00027494636	290445.25	624057.44	-0.00033194743
0	0.6531359	0.6531354	-1.47093e-10	0.07056918	0.07056918	0	173920.72	173920.66	-4.2091837e-05	624127.2	290262.8	-0.00014585568	290263	624126.8	-9.241718e-05
0	0.653052	0.65305203	-5.308139e-10	0.07042789	0.07042789	0	173898.39	173898.44	-0.00014540816	624200.3	290072.66	-0.00037385998	290072.4	624200.25	-0.0003889485
0	0.6529672	0.65296733	-2.7819763e-10	0.070286386	0.070286386	0	173875.83	173875.88	-8.0357146e-05	624274	289880.28	-0.0002296808	289880	624273.94	-0.00017770923
0	0.65288234	0.65288246	-4.7645343e-10	0.07014501	0.07014502	0	173853.23	173853.28	-0.00012436224	624348.06	289687.5	-0.00027494636	289687.2	624347.94	-0.0003956545
0	0.6527968	0.65279704	-4.4767436e-11	0.07000352	0.07000352	0	173830.48	173830.52	-1.2755102e-05	624421.94	289493.9	2.6824035e-05	289493.56	624421.94	-0.00011064914
0	0.6527123	0.65271235	4.5406973e-10	0.06986222	0.06986222	0	173807.95	173807.98	0.00012372449	624495.7	289301.88	0.0003688305	289301.6	624495.5	0.00028500537
0	0.6526263	0.65262645	-2.8779068e-10	0.069720745	0.069720745	0	173785.06	173785.1	-7.780612e-05	624569.94	289107.2	-0.00020118026	289106.88	624569.8	-0.00018106223
0	0.65254134	0.6525416	-4.061046e-10	0.06957926	0.06957926	0	173762.45	173762.5	-0.000112244896	624643.9	288914.4	-0.0003118294	288914.1	624643.75	-0.0002514753
0	0.6524552	0.65245533	-2.2383718e-10	0.06943794	0.06943794	0	173739.52	173739.55	-5.4209184e-05	624717.9	288719.78	-8.885461e-05	288719.47	624717.8	-0.00021459228
0	0.65237	0.6523702	7.674418e-11	0.0692964	0.0692964	0	173716.8	173716.86	2.0408163e-05	624791.8	288526.47	3.3530043e-05	288526.2	624791.75	5.364807e-05
0	0.6522833	0.65228343	1.6627905e-10	0.0691551	0.0691551	0	173693.73	173693.78	4.0816325e-05	624866.06	288330.88	7.041309e-05	288330.56	624865.94	0.00019782725
0	0.6521979	0.652198	-2.718023e-10	0.0690136	0.0690136	0	173670.98	173671.03	-7.142857e-05	624939.94	288137.4	-0.00016765021	288137.12	624939.9	-0.00021794529
0	0.6521109	0.65211105	-1.5668603e-10	0.068872124	0.068872124	0	173647.81	173647.88	-3.890306e-05	625014.25	287941.34	-0.00010729614	287941.06	625014.25	-8.0472106e-05
0	0.6520252	0.65202534	-4.6526158e-10	0.06873082	0.06873082	0	173625	173625.05	-0.00012691326	625088.1	287747.53	-0.00032356492	287747.2	625088.06	-0.00034200645
0	0.65193754	0.6519377	-1.7587208e-10	0.06858932	0.06858932	0	173601.66	173601.7	-4.2091837e-05	625162.75	287550.16	-9.053112e-05	287549.84	625162.7	-0.00013747318
0	0.6518509	0.65185094	-4.1090112e-10	0.068447955	0.068447955	0	173578.56	173578.61	-0.000112882655	625237	287354.53	-0.00041241953	287354.22	625236.9	-0.0001542382
0	0.6517633	0.65176356	-2.5261626e-10	0.06830648	0.06830648	0	173555.28	173555.33	-6.568878e-05	625311.56	287157.44	-8.0472106e-05	287157.12	625311.56	-0.0002514753
0	0.6516763	0.6516764	-1.3270347e-10	0.06816515	0.06816515	0	173532.06	173532.12	-3.8265305e-05	625385.9	286961.12	-2.5147532e-05	286960.8	625385.9	-0.00014417918
0	0.6515892	0.65158933	-2.84593e-10	0.068023674	0.068023674	0	173508.89	173508.94	-7.3979594e-05	625460	286765.22	-0.00016262071	286764.88	625460	-0.0002280043
0	0.6515007	0.65150094	-2.6540695e-10	0.067882195	0.06788219	0	173485.34	173485.39	-6.8877554e-05	625535	286566.38	-0.00013579667	286566.03	625534.9	-0.0002414163
0	0.65141356	0.65141374	-2.3662788e-10	0.06774088	0.06774088	0	173462.1	173462.16	-7.3341835e-05	625609.5	286369.78	-0.00014920869	286369.47	625609.3	-0.00019782725
0	0.6513251	0.65132535	-1.7427323e-10	0.067599334	0.067599334	0	173438.56	173438.62	-4.591837e-05	625684.44	286171.06	-0.00027159334	286170.72	625684.3	2.0118026e-05
0	0.6512366	0.6512367	-2.542151e-10	0.06745803	0.06745803	0	173415	173415.05	-7.3341835e-05	625758.8	285972.72	-0.00019615075	285972.38	625758.75	-0.00019112125
0	0.65114796	0.65114814	-2.2383718e-10	0.06731653	0.06731653	0	173391.42	173391.45	-5.2933672e-05	625833.9	285773.72	-8.550161e-05	285773.4	625833.75	-0.00021469705
0	0.6510599	0.65106004	-4.061046e-10	0.06717506	0.06717506	0	173367.97	173368	-0.000107142856	625908.2	285576.06	-0.00017435622	285575.75	625908.06	-0.00041577252
0	0.6509705	0.6509707	4.156976e-11	0.06703376	0.06703376	0	173344.19	173344.22	1.4030612e-05	625983.4	285375.8	7.041309e-05	285375.5	625983.3	6.7060087e-06
0	0.6508824	0.6508826	-1.2151162e-10	0.066892266	0.066892266	0	173320.69	173320.73	-3.5714285e-05	626057.75	285177.97	-0.00016932671	285177.66	626057.75	-2.347103e-05
0	0.6507924	0.65079254	1.5348836e-10	0.066750884	0.066750884	0	173296.72	173296.78	4.0816325e-05	626132.7	284976.97	0.00013076716	284976.66	626132.6	0.00013412017
0	0.6507031	0.65070325	-9.912789e-11	0.06660941	0.06660941	0	173272.94	173272.97	-2.1683674e-05	626207.3	284777.22	-1.3412017e-05	284776.94	626207.3	-8.0472106e-05
0	0.65061414	0.65061426	-2.7819763e-10	0.06646809	0.06646809	0	173249.25	173249.28	-7.589286e-05	626282.25	284577.84	-0.00010729614	284577.56	626282.1	-0.00028165235
0	0.6505247	0.65052485	-1.9505812e-10	0.06632662	0.06632662	0	173225.42	173225.47	-5.8673468e-05	626357.3	284377.53	-0.00010226663	284377.2	626357.2	-0.00019447425
0	0.6504346	0.6504348	-2.2383718e-10	0.06618514	0.06618514	0	173201.45	173201.5	-5.6122448e-05	626432.25	284176.53	-0.00011400215	284176.2	626432.25	-0.00018106223
0	0.65034413	0.6503443	-2.8139532e-10	0.066043824	0.066043824	0	173177.36	173177.4	-7.142857e-05	626507.8	283974.3	-0.00024476933	283974	626507.75	-0.00011064914
0	0.65025306	0.6502532	-1.5029068e-10	0.06590227	0.06590227	0	173153.08	173153.14	-3.3163265e-05	626583.06	283771.5	-7.3766096e-05	283771.12	626582.94	-9.723713e-05
0	0.65016294	0.6501631	-2.3502905e-10	0.06576097	0.06576097	0	173129.11	173129.14	-5.8673468e-05	626658.25	283570.25	-6.7060086e-05	283569.94	626658.1	-0.00024812232
0	0.65007263	0.6500727	-2.686046e-10	0.065619476	0.065619476	0	173105.05	173105.08	-7.079082e-05	626733.2	283368.72	-0.0001575912	283368.38	626733.06	-0.00018441524
0	0.64998144	0.64998156	6.3953482e-12	0.06547816	0.06547816	0	173080.77	173080.81	-1.9132654e-06	626808.3	283165.94	-2.347103e-05	283165.6	626808.4	1.3412017e-05
0	0.6498897	0.6498899	-3.53343e-10	0.0653367	0.0653367	0	173056.33	173056.39	-9.311224e-05	626883.5	282962.44	-0.0002414163	282962.1	626883.4	-0.00026488735
0	0.6497987	0.6497988	7.994185e-11	0.06519521	0.06519521	0	173032.11	173032.17	2.9336734e-05	626959.3	282759.16	6.7060086e-05	282758.88	626959.2	8.382511e-05
0	0.64970666	0.6497069	-4.093023e-10	0.0650539	0.0650539	0	173007.62	173007.66	-0.000112882655	627034.6	282555.12	-0.000404037	282554.84	627034.56	-0.00020788626
0	0.6496147	0.6496149	-2.94186e-10	0.06491236	0.06491236	0	172983.11	172983.16	-8.09949e-05	627110.25	282350.66	-0.00022297479	282350.38	627110.2	-0.00019782725
0	0.6495238	0.6495239	-3.453488e-10	0.06477103	0.064771034	0	172958.89	172958.95	-9.375e-05	627185.56	282148.03	-0.00024812232	282147.75	627185.5	-0.0002347103
0	0.64943135	0.6494315	-4.572674e-10	0.06462956	0.06462956	0	172934.3	172934.34	-0.00011352041	627261.25	281942.9	-0.00033530043	281942.62	627261.1	-0.00025818133
0	0.64933854	0.6493387	-3.6453485e-10	0.06448809	0.06448809	0	172909.58	172909.62	-9.183674e-05	627336.9	281737.44	-0.00019447425	281737.16	627336.75	-0.0003017704
0	0.6492467	0.6492468	-1.4389534e-10	0.06434676	0.06434676	0	172885.12	172885.16	-3.9540817e-05	627412.25	281533.38	-8.550161e-05	281533.03	627412.2	-0.00013412017
0	0.64915407	0.6491542	-2.3662788e-10	0.06420529	0.06420529	0	172860.45	172860.52	-6.632653e-05	627488	281328.1	-2.1794527e-05	281327.78	627487.9	-0.00026488735
0	0.6490603	0.6490604	-1.1191859e-10	0.06406391	0.06406391	0	172835.5	172835.53	-3.380102e-05	627563.8	281120.97	-0.00012741417	281120.66	627563.7	-4.3589054e-05
0	0.648968	0.6489683	-5.7558132e-11	0.06392241	0.06392241	0	172810.92	172810.97	-4.4642857e-06	627639.2	280916.4	2.0118026e-05	280916.1	627639.1	-3.6254358e-05
0	0.648875	0.6488752	-4.188953e-10	0.063781105	0.063781105	0	172786.14	172786.19	-0.000117346935	627714.94	280710.47	-0.00028332887	280710.16	627714.75	-0.00029171136
0	0.6487805	0.6487807	-1.726744e-10	0.06363964	0.06363964	0	172760.97	172761.02	-4.40051e-05	627791	280502	-9.388412e-05	280501.72	627790.9	-0.0001508852
0	0.648687	0.64868706	-5.7558132e-11	0.06349814	0.06349814	0	172736.08	172736.1	-1.5306123e-05	627867	280294.97	1.6765021e-05	280294.7	627867	-0.00010142838
0	0.6485934	0.64859354	-3.6133718e-10	0.06335684	0.06335683	0	172711.16	172711.19	-9.693878e-05	627942.8	280088.22	-0.00034200645	280087.94	627942.75	-0.00018106223
0	0.6484996	0.6484998	-3.837209e-11	0.06321529	0.06321529	0	172686.19	172686.2	-1.5306123e-05	628018.3	279881.44	-3.3530043e-06	279881.12	628018.2	-7.041309e-05
0	0.6484044	0.6484046	-1.343023e-10	0.06307396	0.06307396	0	172660.84	172660.88	-3.1887754e-05	628094.7	279671.84	-0.00010394313	279671.53	628094.56	-9.053112e-05
0	0.6483102	0.6483103	-3.7412787e-10	0.06293249	0.06293249	0	172635.73	172635.78	-9.948979e-05	628170.9	279463.62	-0.00028500537	279463.3	628170.75	-0.0002347103
0	0.6482145	0.64821476	-2.2383718e-10	0.06279103	0.06279103	0	172610.27	172610.3	-5.2933672e-05	628247.06	279253.53	-9.723713e-05	279253.22	628247	-0.00018441524
0	0.64812046	0.64812064	-4.444767e-10	0.06264969	0.06264969	0	172585.23	172585.27	-0.00012436224	628322.94	279046.06	-0.0004023605	279045.72	628322.9	-0.00026373475
0	0.6480251	0.6480252	-3.1976741e-12	0.062508225	0.062508225	0	172559.83	172559.86	-2.5510203e-06	628399.2	278836.28	2.6824035e-05	278835.97	628399	-3.3530043e-06
0	0.647929	0.6479292	-6.395348e-11	0.06236684	0.06236684	0	172534.23	172534.27	-1.2755102e-05	628475.56	278625.3	-5.364807e-05	278625.03	628475.5	-1.3412017e-05
0	0.6478343	0.64783436	-4.796511e-11	0.062225346	0.062225346	0	172509	172509.05	-1.2117347e-05	628551.7	278416.6	2.6824035e-05	278416.25	628551.56	-7.533781e-05
0	0.647739	0.6477391	-2.0145347e-10	0.062084038	0.062084038	0	172483.64	172483.67	-5.8673468e-05	628627.56	278207.28	-0.00016094421	278206.97	628627.44	-0.00012070815
0	0.64764154	0.64764166	-1.5348836e-10	0.061942577	0.061942577	0	172457.7	172457.75	-3.890306e-05	628704.5	277994.03	-0.000112325644	277993.72	628704.44	-0.00011735515
0	0.64754695	0.6475471	-9.912789e-11	0.061801083	0.061801083	0	172432.52	172432.55	-2.1683674e-05	628779.94	277786.16	-0.00012741417	277785.8	628779.8	-3.0177038e-05
0	0.64744925	0.64744943	-2.5581393e-10	0.061659772	0.061659772	0	172406.48	172406.53	-6.25e-05	628857.06	277572.22	-0.00017603273	277571.94	628856.94	-0.00019447425
0	0.64735377	0.6473539	-1.7587208e-10	0.061518237	0.061518237	0	172381.03	172381.1	-5.3571428e-05	628933.06	277362.5	-8.0472106e-05	277362.16	628932.94	-0.0001575912
0	0.64725554	0.64725566	-2.0145347e-10	0.061376892	0.061376892	0	172354.89	172354.92	-5.3571428e-05	629010.2	277147.8	-0.0001542382	277147.44	629010.06	-9.388412e-05
0	0.6471595	0.64715964	-2.1424416e-10	0.06123543	0.06123543	0	172329.33	172329.38	-5.6122448e-05	629086.4	276937.28	-0.0001542382	276936.97	629086.2	-0.00014753219
0	0.6470626	0.64706284	-1.9825579e-10	0.061093967	0.061093967	0	172303.53	172303.58	-4.846939e-05	629162.56	276725.44	-0.00014753219	276725.12	629162.44	-0.00014082617
0	0.6469639	0.6469641	-2.5581393e-10	0.060952656	0.060952656	0	172277.25	172277.28	-5.8673468e-05	629239.94	276509.94	-0.00010897264	276509.62	629239.75	-0.00022129828
0	0.64686596	0.6468661	-8.921511e-10	0.060811166	0.060811166	0	172251.16	172251.2	-0.00023469387	629316.56	276296.06	-0.0005465397	276295.75	629316.44	-0.00067060086
0	0.6467698	0.6467699	-3.101744e-10	0.060669776	0.060669772	0	172225.56	172225.62	-8.928571e-05	629392.1	276085.94	-0.00024476933	276085.66	629392.1	-0.00019782725
0	0.6466699	0.6466701	-1.854651e-10	0.060528316	0.060528316	0	172198.97	172199	-4.40051e-05	629469.7	275868.53	-8.717811e-05	275868.25	629469.6	-0.00016765021
0	0.646572	0.64657205	-1.8866277e-10	0.060386974	0.060386974	0	172172.86	172172.89	-5.229592e-05	629546.44	275654.56	-0.0001642972	275654.25	629546.4	-0.00011064914
0	0.64647293	0.64647305	-3.3575578e-10	0.06024551	0.06024551	0	172146.48	172146.52	-8.290816e-05	629623.8	275438.5	-0.00013747318	275438.2	629623.6	-0.00032188842
0	0.64637494	0.64637506	-8.2180224e-10	0.06010405	0.06010405	0	172120.42	172120.44	-0.00022193878	629700.06	275225.22	-0.00049289165	275224.88	629699.94	-0.0006907189
0	0.64627534	0.64627546	-3.6933134e-10	0.059962712	0.059962712	0	172093.89	172093.92	-0.00010459184	629777.4	275008.47	-0.00029171136	275008.12	629777.25	-0.00025482834
0	0.6461774	0.6461776	-1.343023e-10	0.059821166	0.059821166	0	172067.83	172067.86	-4.2729593e-05	629853.7	274795.12	-0.00013076716	274794.78	629853.5	-7.041309e-05
0	0.64607763	0.6460778	-1.9186044e-10	0.05967986	0.05967986	0	172041.25	172041.3	-5.6760204e-05	629931	274577.9	-0.00013076716	274577.6	629930.9	-0.00012406116
0	0.64597714	0.64597726	-2.94186e-10	0.059538368	0.059538368	0	172014.47	172014.52	-7.9081634e-05	630008.2	274359.97	-0.00021123927	274359.66	630008.1	-0.00018106223
0	0.6458785	0.64587855	-4.6046505e-10	0.059396908	0.059396908	0	171988.2	171988.23	-0.00011989796	630084.75	274145.25	-0.0003923015	274144.97	630084.75	-0.00027159334
0	0.64577764	0.64577776	-1.4069766e-10	0.059255596	0.059255596	0	171961.36	171961.39	-3.8265305e-05	630162.06	273926.88	-0.00011064914	273926.53	630162	-7.041309e-05
0	0.645678	0.64567816	-4.0290693e-10	0.059114102	0.059114102	0	171934.81	171934.86	-0.000106505104	630239.06	273710.34	-0.00034703594	273710	630239.06	-0.00021123927
0	0.6455773	0.64557743	-3.7732553e-10	0.058972705	0.058972713	0	171908.02	171908.05	-9.757653e-05	630316.5	273492.06	-0.00027159334	273491.75	630316.3	-0.00023806331
0	0.6454765	0.6454767	-2.1104649e-10	0.05883125	0.058831252	0	171881.17	171881.23	-6.568878e-05	630393.7	273273.78	-0.00012238466	273273.53	630393.5	-0.0001642972
0	0.64537567	0.6453759	-2.6220928e-10	0.0586899	0.0586899	0	171854.34	171854.39	-6.951531e-05	630470.56	273055.84	-0.00010394313	273055.5	630470.5	-0.0002280043
0	0.6452737	0.64527386	-4.156976e-11	0.05854845	0.05854845	0	171827.17	171827.2	-8.928571e-06	630548.5	272835.03	-5.0295064e-05	272834.7	630548.3	3.0177038e-05
0	0.64517313	0.6451733	-8.313952e-11	0.058406986	0.058406986	0	171800.39	171800.42	-2.2959184e-05	630625.7	272616.97	1.6765021e-05	272616.66	630625.56	-0.00012741417
0	0.6450705	0.64507073	-2.9098834e-10	0.05826565	0.05826565	0	171773.08	171773.11	-7.780612e-05	630703.25	272395.84	-0.00021794529	272395.53	630703.1	-0.00019782725
0	0.6449696	0.64496976	-3.101744e-10	0.058124106	0.058124106	0	171746.19	171746.22	-8.5459185e-05	630780.56	272177.28	-0.00025482834	272176.94	630780.4	-0.00021123927
0	0.64486665	0.64486676	-2.6220928e-10	0.05798278	0.05798278	0	171718.78	171718.83	-6.25e-05	630858.2	271955.5	-0.00012406116	271955.2	630857.94	-0.00020453327
0	0.6447652	0.64476526	-1.5668603e-10	0.05784131	0.05784131	0	171691.73	171691.8	-3.9540817e-05	630935.5	271735.94	-0.00010226663	271735.66	630935.44	-0.00010729614
0	0.6446617	0.64466184	-1.2790696e-10	0.057699848	0.057699848	0	171664.2	171664.23	-3.125e-05	631013.44	271513.38	-9.556062e-05	271513.06	631013.2	-8.717811e-05
0	0.64456004	0.6445602	-5.59593e-10	0.05755853	0.05755853	0	171637.14	171637.17	-0.00015306122	631090.3	271294.06	-0.00051971566	271293.75	631090.25	-0.00028668187
0	0.6444568	0.6444569	-3.9970926e-11	0.05741706	0.05741706	0	171609.62	171609.66	-6.377551e-06	631168.44	271071.44	5.0295064e-05	271071.1	631168.25	-6.7060086e-05
0	0.644354	0.64435416	-4.6686044e-10	0.057275645	0.057275645	0	171582.28	171582.3	-0.00011989796	631245.8	270850.16	-0.00032188842	270849.88	631245.6	-0.00033194743
0	0.64425004	0.6442502	-8.953487e-11	0.05713419	0.05713419	0	171554.6	171554.64	-1.9132653e-05	631323.1	270627.3	-3.5206544e-05	270626.97	631323	-8.0472106e-05
0	0.64414686	0.6441471	-4.0770345e-10	0.056992844	0.056992844	0	171527.11	171527.16	-0.000105867344	631400.9	270405.1	-0.00026153433	270404.75	631400.75	-0.00027829935
0	0.644042	0.64404213	4.156976e-11	0.056851387	0.056851387	0	171499.19	171499.23	1.0204081e-05	631479.25	270179.94	3.3530043e-05	270179.6	631479.1	3.3530043e-06
0	0.64393884	0.643939	-1.8226742e-10	0.056709927	0.056709927	0	171471.7	171471.75	-4.4642857e-05	631556.5	269958.16	-0.00011064914	269957.84	631556.4	-0.00015151389
0	0.64383376	0.643834	-2.7819763e-10	0.056568585	0.056568585	0	171443.75	171443.78	-7.142857e-05	631634.44	269733.25	-0.00019112125	269732.88	631634.4	-0.00018106223
0	0.6437288	0.6437289	-3.5494183e-10	0.056427047	0.056427047	0	171415.77	171415.8	-9.438775e-05	631712.7	269507.94	-0.00024476933	269507.6	631712.5	-0.00024812232
0	0.64362586	0.643626	-1.2151162e-10	0.05628571	0.05628571	0	171388.38	171388.4	-3.125e-05	631789.75	269286.7	-8.382511e-05	269286.38	631789.6	-5.0295064e-05
0	0.64352006	0.6435201	-3.3895345e-10	0.05614425	0.05614425	0	171360.19	171360.22	-9.0561225e-05	631868.2	269060.22	-0.00021123927	269059.94	631868.06	-0.00024476933
0	0.64341384	0.6434141	-3.2616276e-10	0.056002792	0.056002792	0	171331.92	171331.94	-8.80102e-05	631946.56	268833.2	-0.00021291577	268832.84	631946.44	-0.00023135729
0	0.64330935	0.6433095	-5.2761623e-10	0.05586147	0.05586147	0	171304.08	171304.11	-0.00014094388	632024.5	268608.78	-0.00046271458	268608.47	632024.4	-0.00029716
0	0.6432031	0.6432032	-2.206395e-10	0.055719994	0.05572	0	171275.81	171275.84	-5.229592e-05	632102.56	268382.1	-0.00012238466	268381.75	632102.4	-0.00017435622
0	0.6430975	0.6430977	-1.343023e-10	0.055578664	0.055578664	0	171247.69	171247.72	-4.4642857e-05	632180.8	268156.16	-5.7001074e-05	268155.8	632180.5	-0.00011735515
0	0.64299047	0.6429906	-2.590116e-10	0.055437125	0.055437125	0	171219.17	171219.2	-7.270408e-05	632258.94	267928.06	-0.00014417918	267927.72	632258.8	-0.00020453327
0	0.64288473	0.6428849	-3.8691855e-10	0.05529578	0.05529578	0	171191.02	171191.06	-9.948979e-05	632337.25	267701.72	-0.00028165235	267701.4	632337.06	-0.00023806331
0	0.64277864	0.64277875	-6.715115e-11	0.055154327	0.055154327	0	171162.77	171162.8	-1.2117347e-05	632414.94	267475.4	-0.00018776824	267475.1	632414.8	8.382511e-05
0	0.64267147	0.64267164	3.5174415e-11	0.05501287	0.05501287	0	171134.25	171134.28	1.0204081e-05	632493.4	267247.03	-6.7060087e-06	267246.72	632493.25	4.694206e-05
0	0.64256454	0.6425648	1.1191859e-11	0.054871522	0.054871522	0	171105.78	171105.81	4.4642857e-06	632571.56	267019.25	2.6824035e-05	267018.94	632571.44	3.0177038e-05
0	0.64245576	0.6424559	-3.0377903e-10	0.05473008	0.05473008	0	171076.78	171076.84	-8.09949e-05	632650.4	266787.97	-0.00024812232	266787.7	632650.2	-0.00018441524
0	0.64234984	0.64235	-1.726744e-10	0.05458865	0.05458865	0	171048.6	171048.64	-3.890306e-05	632727.9	266562.25	-7.041309e-05	266561.94	632727.75	-0.0001238516
0	0.6422402	0.64224035	-1.4069766e-10	0.054447185	0.054447185	0	171019.4	171019.44	-3.9540817e-05	632807.2	266329.5	-7.041309e-05	266329.16	632807.06	-0.00011400215
0	0.6421333	0.6421334	-2.2383718e-10	0.054305855	0.054305855	0	170990.92	170990.97	-5.994898e-05	632885.25	266101.7	-0.00017435622	266101.4	632885.2	-0.00013412017
0	0.64202476	0.64202493	-2.7499997e-10	0.054164406	0.05416441	0	170962.03	170962.06	-7.461735e-05	632963.9	265871.16	-0.00026153433	265870.84	632963.75	-0.0001508852
0	0.64191705	0.6419173	-5.436046e-11	0.054022938	0.054022938	0	170933.36	170933.39	-1.2755102e-05	633041.6	265642.56	-9.556062e-05	265642.28	633041.5	1.0059013e-05
0	0.6418075	0.6418076	-1.598837e-10	0.0538816	0.0538816	0	170904.16	170904.19	-3.5714285e-05	633120.94	265409.84	-0.00017100322	265409.53	633120.75	-3.3530043e-05
0	0.6416976	0.64169776	-2.6540695e-10	0.05374007	0.05374007	0	170874.89	170874.94	-7.015306e-05	633199.44	265177.47	-0.00011735515	265177.12	633199.3	-0.00024476933
0	0.64158857	0.6415887	-2.8139532e-10	0.05359871	0.05359871	0	170845.86	170845.9	-7.206632e-05	633278.2	264946.12	-0.00020620976	264945.8	633278.06	-0.00018776824
0	0.64147854	0.6414787	-6.715115e-11	0.053457264	0.053457264	0	170816.6	170816.61	-1.9770408e-05	633356.8	264713.56	-3.855955e-05	264713.25	633356.6	-5.7001074e-05
0	0.6413698	0.64136994	-1.7587208e-10	0.053315822	0.053315822	0	170787.62	170787.67	-4.336735e-05	633435.25	264482.88	-0.00010059013	264482.53	633435.06	-8.0472106e-05
0	0.64125884	0.64125896	4.796511e-11	0.053174462	0.053174462	0	170758.08	170758.1	9.566326e-06	633514.25	264248.4	4.526556e-05	264248.06	633514.06	3.6883048e-05
0	0.6411494	0.6411496	-1.0872092e-10	0.053033024	0.053033024	0	170728.95	170728.95	-2.742347e-05	633592.9	264016.7	-5.364807e-05	264016.3	633592.75	-8.382511e-05
0	0.6410379	0.64103806	-1.343023e-10	0.052891586	0.052891586	0	170699.25	170699.28	-3.762755e-05	633671.8	263781.62	-8.717811e-05	263781.3	633671.6	-0.00011064914
0	0.64092815	0.6409282	-4.236918e-10	0.052750126	0.052750126	0	170670	170670.03	-0.00011670918	633750.44	263549.25	-0.00034032995	263548.94	633750.25	-0.00027159334
0	0.6408158	0.6408159	-2.3023253e-10	0.052608777	0.052608777	0	170640.11	170640.14	-6.25e-05	633829.9	263312.62	-0.00018106223	263312.3	633829.7	-0.00013747318
0	0.6407062	0.6407063	-1.5348836e-10	0.05246734	0.05246734	0	170610.9	170610.95	-3.635204e-05	633908.06	263080.94	-0.0001642972	263080.56	633907.9	-1.8127179e-05
0	0.64059365	0.64059377	-2.206395e-10	0.052325882	0.052325882	0	170580.94	170580.98	-5.4209184e-05	633987.2	262844.3	-9.053112e-05	262843.97	633987.06	-0.00019782725
0	0.64048153	0.6404816	-1.343023e-10	0.05218454	0.05218454	0	170551.08	170551.12	-3.5714285e-05	634066.44	262608	-8.550161e-05	262607.66	634066.3	-0.00011064914
0	0.6403703	0.6403705	-2.94186e-10	0.052043002	0.052043002	0	170521.47	170521.52	-7.589286e-05	634145.3	262373.4	-0.0003017704	262373.1	634145.25	-9.147415e-05
0	0.64025843	0.64025855	-2.6220928e-10	0.051901635	0.051901635	0	170491.67	170491.7	-7.3341835e-05	634224.25	262137.9	-0.00016094421	262137.58	634224.1	-0.00019782725
0	0.64014465	0.64014477	-2.7499997e-10	0.0517602	0.0517602	0	170461.38	170461.4	-7.3979594e-05	634303.44	261899.31	-0.0001542382	261898.98	634303.3	-0.0002414163
0	0.6400329	0.640033	-2.0784882e-10	0.051618766	0.051618766	0	170431.61	170431.64	-5.1020408e-05	634382.3	261664.03	-7.71191e-05	261663.7	634382.1	-0.00020453327
0	0.6399192	0.6399193	-3.3895345e-10	0.05147742	0.05147742	0	170401.34	170401.38	-9.757653e-05	634461.56	261425.58	-0.00020118026	261425.22	634461.44	-0.00028165235
0	0.63980615	0.6398062	-1.6787789e-10	0.05133596	0.05133596	0	170371.23	170371.27	-4.5280613e-05	634540.7	261188.2	-9.053112e-05	261187.9	634540.44	-0.00010729614
0	0.639692	0.6396921	-1.6308138e-10	0.051194515	0.051194515	0	170340.84	170340.88	-5.2933672e-05	634620.3	260948.83	-0.00016094421	260948.48	634620.1	-5.7001074e-05
0	0.6395794	0.63957953	-3.7732553e-10	0.05105309	0.05105309	0	170310.89	170310.92	-0.00010395408	634699.1	260712.56	-0.00029841738	260712.23	634698.9	-0.0002280043
0	0.63946414	0.63946426	-3.453488e-10	0.050911706	0.050911706	0	170280.16	170280.2	-8.67347e-05	634778.6	260471.48	-0.00024476933	260471.19	634778.5	-0.00021794529
0	0.63935024	0.63935035	-2.0465114e-10	0.05077028	0.05077028	0	170249.83	170249.86	-5.484694e-05	634857.94	260232.69	-6.203058e-05	260232.38	634857.75	-0.00019594119
0	0.63923675	0.63923687	-2.718023e-10	0.050628845	0.050628845	0	170219.61	170219.64	-7.653061e-05	634936.8	259994.97	-0.00020285675	259994.64	634936.56	-0.00017770923
0	0.63912046	0.6391205	-7.674418e-11	0.050487474	0.050487474	0	170188.66	170188.7	-1.4030612e-05	635016.9	259752.08	0	259751.75	635016.75	-3.0177038e-05
0	0.63900626	0.63900644	-1.4069766e-10	0.050345946	0.050345946	0	170158.23	170158.27	-3.762755e-05	635096.06	259513	-3.855955e-05	259512.69	635095.94	-0.00013747318
0	0.63889104	0.6388911	-2.0465114e-10	0.05020459	0.05020459	0	170127.56	170127.58	-5.8673468e-05	635175.7	259272.12	-0.00021459228	259271.8	635175.5	-8.382511e-05
0	0.6387752	0.6387753	-4.700581e-10	0.050063137	0.050063137	0	170096.72	170096.73	-0.00012372449	635255	259030.55	-0.00032524142	259030.22	635254.9	-0.00033865342
0	0.63865936	0.6386595	-4.8284876e-10	0.04992171	0.04992171	0	170065.88	170065.9	-0.00013201531	635334.75	258788.7	-0.00034535944	258788.42	635334.56	-0.00033865342
0	0.638543	0.63854307	-1.3749998e-10	0.049780354	0.049780354	0	170034.86	170034.9	-2.8061224e-05	635414.44	258546.05	1.6765021e-05	258545.72	635414.2	-0.0001642972
0	0.63842696	0.638427	2.5581393e-11	0.0496389	0.0496389	0	170003.95	170004	7.653061e-06	635493.75	258304.22	-1.5088519e-05	258303.89	635493.6	4.3589054e-05
0	0.6383107	0.6383108	-3.197674e-10	0.049497455	0.049497455	0	169973.03	169973.05	-8.418367e-05	635573.06	258062.2	-0.00020285675	258061.9	635572.94	-0.0002280043
0	0.63819313	0.6381933	-2.5261626e-10	0.04935602	0.04935602	0	169941.72	169941.75	-6.8877554e-05	635653.2	257817.58	-0.00014585568	257817.27	635653	-0.00019447425
0	0.638076	0.6380762	-3.101744e-10	0.04921464	0.04921464	0	169910.53	169910.56	-8.418367e-05	635732.6	257574.16	-0.00026153433	257573.83	635732.56	-0.00020118026
0	0.6379585	0.63795865	2.5581393e-11	0.04907321	0.04907321	0	169879.23	169879.27	5.739796e-06	635812.5	257329.77	0.0001542382	257329.47	635812.3	-8.717811e-05
0	0.6378396	0.6378397	-4.188953e-10	0.04893179	0.04893179	0	169847.6	169847.61	-0.00011607143	635892.6	257083.19	-0.00034200645	257082.84	635892.44	-0.00029506438
0	0.6377225	0.6377226	-2.1104649e-10	0.048790418	0.048790418	0	169816.39	169816.42	-6.122449e-05	635972.1	256839.72	-6.7060086e-05	256839.36	635971.94	-0.00023806331
0	0.63760525	0.63760537	-1.5029068e-10	0.048648883	0.048648883	0	169785.17	169785.2	-4.591837e-05	636051.44	256596.33	-8.0472106e-05	256596	636051.25	-0.0001575912
0	0.6374849	0.637485	-2.6540695e-10	0.04850753	0.04850753	0	169753.16	169753.16	-7.270408e-05	636131.94	256347.22	-0.00024309281	256346.92	636131.9	-0.00014417918
0	0.6373658	0.63736594	-2.2703486e-10	0.048366077	0.048366077	0	169721.44	169721.45	-6.122449e-05	636212	256100.56	-0.00016262071	256100.2	636211.8	-0.00018106223
0	0.63724846	0.6372485	-2.8139532e-10	0.048224654	0.048224654	0	169690.17	169690.2	-7.9719386e-05	636291.4	255856.84	-0.0001542382	255856.52	636291.1	-0.00027159334
0	0.63712907	0.6371291	-6.715115e-11	0.04808329	0.04808329	0	169658.36	169658.38	-1.4030612e-05	636371.4	255609.62	-6.7060087e-06	255609.3	636371.25	-6.7060086e-05
0	0.6370097	0.63700974	-2.2383718e-10	0.04794185	0.04794185	0	169626.58	169626.6	-5.739796e-05	636451.2	255362.55	-0.000105619634	255362.22	636451.06	-0.00019447425
0	0.6368896	0.6368897	1.5348836e-10	0.047800384	0.047800384	0	169594.6	169594.61	3.5714285e-05	636531.5	255114.27	0.00014082617	255113.94	636531.25	4.3589054e-05
0	0.6367684	0.6367686	-3.1976741e-12	0.047658965	0.047658965	0	169562.34	169562.38	-1.2755102e-06	636611.3	254864.84	-5.1971565e-05	254864.56	636611.1	0
0	0.6366486	0.6366487	-3.325581e-10	0.04751758	0.04751758	0	169530.44	169530.45	-8.227041e-05	636691.75	254616.61	-0.00023135729	254616.28	636691.56	-0.00022465129
0	0.636527	0.636527	-4.0290693e-10	0.047376156	0.047376156	0	169498.03	169498.06	-0.00011096939	636771.94	254366.05	-0.00029003486	254365.72	636771.75	-0.00028500537
0	0.63640714	0.63640726	-2.4941857e-10	0.047234733	0.047234733	0	169466.12	169466.16	-6.632653e-05	636851.5	254118.78	-0.00013412017	254118.48	636851.3	-0.00020118026
0	0.6362854	0.63628554	-2.0145347e-10	0.047093347	0.047093347	0	169433.73	169433.75	-5.8673468e-05	636931.4	253868.55	-0.00018441524	253868.25	636931.25	-0.00012741417
0	0.6361649	0.63616496	-3.1337205e-10	0.046951823	0.046951823	0	169401.61	169401.64	-8.163265e-05	637011.7	253619.42	-0.00021459228	253619.12	637011.56	-0.00020118026
0	0.6360419	0.63604194	-2.462209e-10	0.046810456	0.046810456	0	169368.84	169368.89	-5.6760204e-05	637092.25	253366.64	-0.00016765021	253366.33	637092.06	-0.00012406116
0	0.6359205	0.63592064	-1.4069766e-10	0.04666902	0.04666902	0	169336.55	169336.58	-3.762755e-05	637172.56	253116.48	-2.347103e-05	253116.19	637172.4	-0.0001642972
0	0.63579744	0.63579756	-1.5029068e-10	0.046527658	0.046527658	0	169303.78	169303.81	-4.0816325e-05	637252.7	252864.22	0	252863.89	637252.44	-0.00019112125
0	0.6356758	0.63567597	-2.6540695e-10	0.046386234	0.046386234	0	169271.39	169271.4	-6.8877554e-05	637333.06	252613.44	-0.00019782725	252613.11	637332.8	-0.00018441524
0	0.635553	0.63555306	-1.2151162e-10	0.0462448	0.0462448	0	169238.69	169238.7	-2.869898e-05	637413.44	252361.12	-5.364807e-05	252360.81	637413.2	-9.053112e-05
0	0.6354303	0.63543034	-1.3110464e-10	0.04610342	0.04610342	0	169205.98	169206.02	-3.3163265e-05	637493.44	252109.23	-0.00020118026	252108.94	637493.2	2.6824035e-05
0	0.6353066	0.63530666	-7.034883e-11	0.045961898	0.045961898	0	169173.06	169173.1	-2.9336734e-05	637573.7	251855.77	-6.3707084e-05	251855.4	637573.56	-1.6765021e-05
0	0.63518226	0.63518226	-3.197674e-10	0.045820512	0.045820512	0	169139.95	169139.97	-8.227041e-05	637654.44	251600.97	-0.00020118026	251600.67	637654.25	-0.0002347103
0	0.6350573	0.6350574	-1.598837e-10	0.0456791	0.0456791	0	169106.69	169106.7	-4.5280613e-05	637735.25	251345.36	-0.00012406116	251345.03	637735	-0.00012406116
0	0.63493466	0.6349348	-2.1104649e-10	0.045537677	0.045537677	0	169074.05	169074.06	-4.9744896e-05	637815	251093.92	-8.21486e-05	251093.6	637814.75	-0.00017435622
0	0.63480836	0.6348085	-2.6220928e-10	0.045396283	0.045396283	0	169040.42	169040.42	-6.25e-05	637896.1	250835.97	-0.00020620976	250835.64	637895.94	-0.00012070815
0	0.63468444	0.6346845	-3.101744e-10	0.04525487	0.04525487	0	169007.4	169007.42	-7.52551e-05	637976.6	250581.95	-0.0002330338	250581.64	637976.4	-0.00016765021
0	0.6345582	0.6345584	-2.8779068e-10	0.045113392	0.045113392	0	168973.8	168973.81	-8.5459185e-05	638057.25	250324.58	-0.00016765021	250324.3	638057.06	-0.00021794529