//mumax 3.10 [windows_amd64 go1.11.6(gc) CUDA-11.0]
//GPU info: NVIDIA GeForce RTX 3090(24575MB), CUDA Driver 12.0, cc=8.6, using cc=80 PTX
//(c) Arne Vansteenkiste, Dynamat LAB, Ghent University, Belgium
//This is free software without any warranty. See license.txt
//********************************************************************//
//  If you use mumax in any work or publication,                      //
//  we kindly ask you to cite the references in references.bib        //
//********************************************************************//
//output directory: r1;p0.8;a3.2e-07;l2.3000000000000002e-07;s2.out/
randSeed(2)
ThermSeed(2)
resolution := 2e-09
zResolution := 5e-09
a := 3.2e-07
gridSize := 320
gridDepth := 5
SetCellsize(resolution, resolution, zResolution)
SetGridsize(gridSize, gridSize, gridDepth)
SetPBC(16, 16, 0)
//resizing...
Msat = 700e3
Aex = 13e-12
alpha = 0.2
Bmax := 0.1
Bstep := Bmax / 500.0
TableAdd(B_ext)
TableAdd(m_full)
islandWidth := 8e-08
islandLength := 2.3000000000000002e-07
ellipseConstant := 9.200000000000002e-08
hIsland := rect(islandLength-2*ellipseConstant, islandWidth)
hIsland = hIsland.add(ellipse(ellipseConstant*2, islandWidth).transl(islandLength/2-ellipseConstant, 0, 0))
hIsland = hIsland.add(ellipse(ellipseConstant*2, islandWidth).transl(-islandLength/2+ellipseConstant, 0, 0))
hIsland = hIsland.add(rect(6.000000000000001e-09, 7.031269866537723e-10).transl(4.571990660006635e-08, -3.876107279832662e-08, 0))
hIsland = hIsland.sub(rect(6.000000000000001e-09, -1.628208165605496e-09).transl(3.0351524824716647e-08, -3.9872090107219816e-08, 0))
hIsland = hIsland.add(rect(6.000000000000001e-09, 2.8432812886549434e-09).transl(1.1443721922093442e-07, -4.417591170221397e-09, 0))
hIsland = hIsland.add(rect(6.000000000000001e-09, 2.5766129269108707e-09).transl(-7.872040758728124e-08, -3.182904529582555e-08, 0))
hIsland = hIsland.sub(rect(6.000000000000001e-09, -2.936990537846863e-09).transl(-8.792945698449253e-08, -2.833824062966288e-08, 0))
hIsland = hIsland.add(rect(6.000000000000001e-09, 5.337995636201337e-10).transl(-1.0481124219894798e-07, -1.8296655669005376e-08, 0))
hIsland = hIsland.sub(rect(6.000000000000001e-09, -5.821646781555433e-10).transl(-1.0893460144771341e-07, -1.4283414536347283e-08, 0))
hIsland = hIsland.sub(rect(6.000000000000001e-09, -6.589435350858983e-10).transl(-1.0376173264307862e-08, -4e-08, 0))
hIsland = hIsland.add(rect(6.000000000000001e-09, 2.6978732467478796e-09).transl(-6.880962662284891e-08, -3.4688672362858805e-08, 0))
hIsland = hIsland.add(rect(6.000000000000001e-09, 7.794008535983347e-10).transl(-5.426135882748606e-09, -4e-08, 0))
hIsland = hIsland.add(rect(6.000000000000001e-09, 2.8361627202849365e-10).transl(3.9206960087310914e-09, -4e-08, 0))
hIsland = hIsland.add(rect(6.000000000000001e-09, 2.5044515442867263e-10).transl(4.989370393687034e-08, -3.8252787408612955e-08, 0))
hIsland = hIsland.add(rect(6.000000000000001e-09, 1.9581876028967225e-10).transl(6.625255450140036e-09, -4e-08, 0))
hIsland = hIsland.add(rect(6.000000000000001e-09, 1.4223261702164205e-09).transl(-5.95394850022378e-08, -3.670983147589882e-08, 0))
hIsland = hIsland.add(rect(6.000000000000001e-09, 2.159059504290141e-09).transl(1.1159125398432198e-07, -1.0787426321064384e-08, 0))
hIsland = hIsland.add(rect(6.000000000000001e-09, 9.502610261933703e-10).transl(-1.1279951106315958e-07, -8.696171862921481e-09, 0))
hIsland = hIsland.sub(rect(6.000000000000001e-09, -1.6858220049382295e-09).transl(1.1146619550111408e-07, -1.0979722275168131e-08, 0))
hIsland = hIsland.add(rect(6.000000000000001e-09, 1.0877685868631617e-09).transl(5.5059931828327e-08, -3.74926855403681e-08, 0))
hIsland = hIsland.sub(rect(6.000000000000001e-09, -6.713607818334702e-10).transl(8.901657972852702e-08, -2.7859393113958504e-08, 0))
hIsland = hIsland.add(rect(6.000000000000001e-09, 2.6938333046763397e-09).transl(-7.07628524251211e-08, -3.418704783596258e-08, 0))
hIsland = hIsland.sub(rect(6.000000000000001e-09, -4.822326754941787e-09).transl(2.2772830680019444e-09, -4e-08, 0))
hIsland = hIsland.sub(rect(6.000000000000001e-09, -1.2155151114668233e-09).transl(-4.772386809078896e-08, -3.85285359266123e-08, 0))
hIsland = hIsland.sub(rect(6.000000000000001e-09, -1.4304607872908065e-09).transl(3.1907141345898164e-09, -4e-08, 0))
hIsland = hIsland.sub(rect(6.000000000000001e-09, -8.357473205393702e-10).transl(6.372948874900116e-09, -4e-08, 0))
hIsland = hIsland.add(rect(6.000000000000001e-09, 1.1299104836416169e-09).transl(8.210295374683421e-08, -3.065399580894374e-08, 0))
hIsland = hIsland.sub(rect(6.000000000000001e-09, -2.4805814685314445e-09).transl(2.4105829338167693e-08, -3.999711034334295e-08, 0))
hIsland = hIsland.sub(rect(6.000000000000001e-09, -2.3413333880062646e-10).transl(1.0943760212999496e-07, -1.3697659880561122e-08, 0))
hIsland = hIsland.sub(rect(6.000000000000001e-09, -1.0841812333184987e-09).transl(-1.3758802812124292e-08, -4e-08, 0))
hIsland = hIsland.sub(rect(6.000000000000001e-09, -1.48533681057854e-09).transl(-8.111856170541891e-08, -3.100775189769855e-08, 0))
hIsland = hIsland.sub(rect(6.000000000000001e-09, -6.697854190268199e-10).transl(4.373941752741181e-08, -3.897038903180107e-08, 0))
hIsland = hIsland.add(rect(6.000000000000001e-09, 1.4235438145712156e-09).transl(1.510317093931039e-08, -4e-08, 0))
hIsland = hIsland.sub(rect(6.000000000000001e-09, -2.6209572688875716e-10).transl(4.66705035426739e-08, -3.8653389871899793e-08, 0))
hIsland = hIsland.sub(rect(6.000000000000001e-09, -2.3811613380527786e-09).transl(-1.0269901063554578e-07, -1.9981407727349216e-08, 0))
hIsland = hIsland.sub(rect(6.000000000000001e-09, -1.7529224906649311e-09).transl(-1.0874733892841906e-07, -1.4494597564039033e-08, 0))
hIsland = hIsland.add(rect(6.000000000000001e-09, 1.9601605434298874e-09).transl(-7.596171784295533e-08, -3.2707261014729873e-08, 0))
hIsland = hIsland.sub(rect(6.000000000000001e-09, -1.18763546810281e-09).transl(-9.163937878979386e-08, -2.6634243487535846e-08, 0))
hIsland = hIsland.add(rect(6.000000000000001e-09, 7.048386585878808e-11).transl(7.721357666259384e-08, -3.2317213499382365e-08, 0))
hIsland = hIsland.add(rect(6.000000000000001e-09, 6.817227465251148e-10).transl(-8.878425081693295e-08, -2.796308782333033e-08, 0))
hIsland = hIsland.add(rect(6.000000000000001e-09, 2.0032818412524446e-09).transl(3.3486181540567885e-08, -3.973932070332686e-08, 0))
hIsland = hIsland.add(rect(6.000000000000001e-09, 3.6597119795475327e-09).transl(9.336802957412435e-08, -2.5767391997091766e-08, 0))
hIsland = hIsland.add(rect(6.000000000000001e-09, 4.859171550363872e-10).transl(-1.0123577515110206e-07, -2.104618867967977e-08, 0))
hIsland = hIsland.sub(rect(6.000000000000001e-09, -3.0314764233081767e-09).transl(-5.945671925360192e-08, -3.672538364185727e-08, 0))
hIsland = hIsland.sub(rect(6.000000000000001e-09, -1.779929096759935e-11).transl(-5.753997654019757e-08, -3.707395669151321e-08, 0))
hIsland = hIsland.add(rect(6.000000000000001e-09, 1.9966321643233117e-09).transl(1.9890472534105353e-08, -4e-08, 0))
hIsland = hIsland.sub(rect(6.000000000000001e-09, -2.0282486172752964e-09).transl(1.0659180915439277e-07, -1.6706119014667807e-08, 0))
hIsland = hIsland.add(rect(6.000000000000001e-09, 6.004798345374203e-10).transl(2.6280251680861446e-09, -4e-08, 0))
hIsland = hIsland.add(rect(6.000000000000001e-09, 1.0399449674694072e-09).transl(7.571862165392102e-08, -3.2781417724043715e-08, 0))
hIsland = hIsland.add(rect(6.000000000000001e-09, 3.2965035920187955e-09).transl(-4.9041009416118225e-08, -3.836415364865523e-08, 0))
hIsland = hIsland.add(rect(6.000000000000001e-09, 2.790906991469564e-09).transl(-1.1064453923399328e-07, -1.2161754351088575e-08, 0))
hIsland = hIsland.add(rect(6.000000000000001e-09, 5.828409478143072e-10).transl(5.316705930578839e-08, -3.778845837750466e-08, 0))
hIsland = hIsland.add(rect(6.000000000000001e-09, 1.2944949172156639e-09).transl(-6.465342843661694e-08, -3.566540554963546e-08, 0))
hIsland = hIsland.sub(rect(6.000000000000001e-09, -3.3904527608308406e-10).transl(7.341232837379143e-08, -3.346017904673989e-08, 0))
hIsland = hIsland.add(rect(6.000000000000001e-09, 3.43023074840821e-09).transl(-7.169480058786114e-08, -3.3937606477243525e-08, 0))
hIsland = hIsland.sub(rect(6.000000000000001e-09, -2.747053514611329e-09).transl(-1.3279175343959588e-09, -4e-08, 0))
hIsland = hIsland.add(rect(6.000000000000001e-09, 6.370386549173967e-10).transl(-1.0868814063770538e-07, -1.4560625843785933e-08, 0))
hIsland = hIsland.sub(rect(6.000000000000001e-09, -1.2476407176721046e-09).transl(9.655038262252275e-08, -2.4028736797337268e-08, 0))
hIsland = hIsland.sub(rect(6.000000000000001e-09, -2.9270812555885056e-09).transl(-9.00844739828692e-08, -2.7372917743499518e-08, 0))
hIsland = hIsland.add(rect(6.000000000000001e-09, 1.563795305280008e-10).transl(9.13158687856316e-08, -2.6791013898713358e-08, 0))
hIsland = hIsland.sub(rect(6.000000000000001e-09, -4.038190913391933e-09).transl(-5.959634373674534e-08, -3.6699123123250467e-08, 0))
hIsland = hIsland.add(rect(6.000000000000001e-09, 8.990008906770661e-10).transl(5.924034380303262e-08, -3.6765844368183374e-08, 0))
hIsland = hIsland.add(rect(6.000000000000001e-09, 1.932739957004429e-09).transl(7.551290157526212e-08, -3.2843776311073036e-08, 0))
hIsland = hIsland.sub(rect(6.000000000000001e-09, -1.0429866868531794e-09).transl(1.0815546418705647e-08, -4e-08, 0))
hIsland = hIsland.sub(rect(6.000000000000001e-09, -5.001898093068889e-09).transl(1.132305416552255e-07, -7.807336869828433e-09, 0))
hIsland = hIsland.add(rect(6.000000000000001e-09, 7.146637234364925e-10).transl(7.692391040093937e-08, -3.240869648940009e-08, 0))
hIsland = hIsland.sub(rect(6.000000000000001e-09, -1.932876295593139e-09).transl(8.697996281501547e-08, -2.8743584336151595e-08, 0))
hIsland = hIsland.sub(rect(6.000000000000001e-09, -1.1480632706601635e-09).transl(-5.9379358278995924e-08, -3.6739882398294895e-08, 0))
hIsland = hIsland.add(rect(6.000000000000001e-09, 2.6364010271143117e-09).transl(-2.1212930426895543e-08, -4e-08, 0))
hIsland = hIsland.sub(rect(6.000000000000001e-09, -1.1778173637797272e-09).transl(-6.499544887742816e-08, -3.5589505562165617e-08, 0))
hIsland = hIsland.sub(rect(6.000000000000001e-09, -1.873369043835967e-09).transl(-9.059980974022506e-08, -2.7132196581192733e-08, 0))
hIsland = hIsland.add(rect(6.000000000000001e-09, 2.1596429309193478e-09).transl(7.792553044112618e-08, -3.2089154236510214e-08, 0))
hIsland = hIsland.sub(rect(6.000000000000001e-09, -3.003097129426736e-09).transl(-8.15953879646249e-08, -3.083764580393177e-08, 0))
hIsland = hIsland.add(rect(6.000000000000001e-09, 3.9351303676410025e-09).transl(-2.8841294065388225e-08, -3.991929306864668e-08, 0))
hIsland = hIsland.sub(rect(6.000000000000001e-09, -1.126242944700703e-09).transl(1.0886804115435694e-07, -1.4358885779037228e-08, 0))
hIsland = hIsland.add(rect(6.000000000000001e-09, 1.840058555935493e-09).transl(-4.6795321740013686e-08, -3.863889991489309e-08, 0))
hIsland = hIsland.add(rect(6.000000000000001e-09, 2.31208296240006e-09).transl(1.1160487650792402e-08, -4e-08, 0))
hIsland = hIsland.sub(rect(6.000000000000001e-09, -4.778378029930866e-09).transl(2.2537633843190626e-08, -4e-08, 0))
hIsland = hIsland.add(rect(6.000000000000001e-09, 8.103189153584497e-10).transl(5.5515470793318156e-08, -3.74184536398236e-08, 0))
hIsland = hIsland.sub(rect(6.000000000000001e-09, -1.225757023667132e-09).transl(-5.216908029206998e-08, -3.793628315187157e-08, 0))
hIsland = hIsland.add(rect(6.000000000000001e-09, 3.6100873536917616e-10).transl(7.920548163458549e-09, -4e-08, 0))
hIsland = hIsland.sub(rect(6.000000000000001e-09, -2.9685528618603035e-09).transl(-7.359669484444978e-08, -3.340753248891126e-08, 0))
hIsland = hIsland.sub(rect(6.000000000000001e-09, -1.2442668314277006e-10).transl(-9.95627534785542e-09, -4e-08, 0))
hIsland = hIsland.sub(rect(6.000000000000001e-09, -1.6134885384017269e-09).transl(-2.7892128832312703e-08, -3.994340768728427e-08, 0))
hIsland = hIsland.sub(rect(6.000000000000001e-09, -1.091801497412807e-09).transl(5.912306166113971e-08, -3.6787656186276377e-08, 0))
hIsland = hIsland.add(rect(6.000000000000001e-09, 2.607464848112664e-09).transl(4.41723601906481e-08, -3.892635469184063e-08, 0))
hIsland = hIsland.sub(rect(6.000000000000001e-09, -3.3220152199653555e-10).transl(4.207235503383153e-08, -3.9131027226103256e-08, 0))
hIsland = hIsland.sub(rect(6.000000000000001e-09, -2.216705780867886e-09).transl(8.810558256765962e-08, -2.826174954658614e-08, 0))
hIsland = hIsland.sub(rect(6.000000000000001e-09, -3.3333489469454192e-09).transl(-5.877984278931232e-08, -3.685100755785046e-08, 0))
hIsland = hIsland.sub(rect(6.000000000000001e-09, -5.530526858467639e-09).transl(5.5193620905462904e-08, -3.7471024149998636e-08, 0))
hIsland = hIsland.add(rect(6.000000000000001e-09, 3.4670104230845e-09).transl(-5.2820489291209814e-08, -3.784042311644939e-08, 0))
hIsland = hIsland.add(rect(6.000000000000001e-09, 2.320011503975993e-09).transl(7.876613940096502e-08, -3.1813901493299383e-08, 0))
hIsland = hIsland.add(rect(6.000000000000001e-09, 3.2126501477291577e-09).transl(-1.1474316772746899e-07, -2.9867753672518853e-09, 0))
hIsland = hIsland.add(rect(6.000000000000001e-09, 2.595678158331907e-09).transl(-4.473077199662178e-08, -3.8868139134501754e-08, 0))
hIsland = hIsland.add(rect(6.000000000000001e-09, 2.063532119767163e-10).transl(6.321535667732134e-08, -3.59760608477912e-08, 0))
hIsland = hIsland.sub(rect(6.000000000000001e-09, -5.056358458539322e-09).transl(-4.1435772218132975e-08, -3.9188657898514334e-08, 0))
hIsland = hIsland.sub(rect(6.000000000000001e-09, -6.394025501788095e-09).transl(5.4470880755146204e-08, -3.758690915704856e-08, 0))
hIsland = hIsland.add(rect(6.000000000000001e-09, 1.3400435207852355e-09).transl(9.824078383837809e-08, -2.301813391891211e-08, 0))
hIsland = hIsland.add(rect(6.000000000000001e-09, 1.2114802050956593e-09).transl(-6.951222756368396e-08, -3.4511477740794045e-08, 0))
hIsland = hIsland.add(rect(6.000000000000001e-09, 2.3172219478936534e-09).transl(-1.111535870577381e-08, -4e-08, 0))
hIsland = hIsland.add(rect(6.000000000000001e-09, 8.421032188472332e-10).transl(6.2298849558579665e-09, -4e-08, 0))
hIsland = hIsland.add(rect(6.000000000000001e-09, 2.54980896258055e-09).transl(-4.7108629554062984e-08, -3.860216841863907e-08, 0))
hIsland = hIsland.sub(rect(6.000000000000001e-09, -5.954539905473978e-10).transl(6.317065165888161e-09, 4e-08, 0))
hIsland = hIsland.sub(rect(6.000000000000001e-09, -1.642269650343716e-09).transl(6.525515329813824e-08, 3.5531348867103936e-08, 0))
hIsland = hIsland.sub(rect(6.000000000000001e-09, -1.0997656792052918e-09).transl(7.50997607797752e-08, 3.296791969556113e-08, 0))
hIsland = hIsland.add(rect(6.000000000000001e-09, 1.7166949225672313e-09).transl(-6.706700577215562e-08, 3.5112831906776954e-08, 0))
hIsland = hIsland.add(rect(6.000000000000001e-09, 1.3291326803978409e-09).transl(-3.026148477211539e-08, 3.987520902376451e-08, 0))
hIsland = hIsland.add(rect(6.000000000000001e-09, 2.0944755124497016e-09).transl(-6.183685594831088e-08, 3.626123089187651e-08, 0))
hIsland = hIsland.add(rect(6.000000000000001e-09, 2.586232395207061e-09).transl(1.726059738986325e-08, 4e-08, 0))
hIsland = hIsland.sub(rect(6.000000000000001e-09, -1.7537016781639722e-09).transl(8.609979653521665e-08, 2.9109063144136913e-08, 0))
hIsland = hIsland.add(rect(6.000000000000001e-09, 1.2502648603106124e-09).transl(-3.5025627766305144e-08, 3.9656808169375654e-08, 0))
hIsland = hIsland.add(rect(6.000000000000001e-09, 1.6154976322088008e-09).transl(8.762830049263161e-08, 2.8468079080736933e-08, 0))
hIsland = hIsland.add(rect(6.000000000000001e-09, 1.7620501358625852e-09).transl(-4.7064645628818626e-08, 3.860735610376777e-08, 0))
hIsland = hIsland.add(rect(6.000000000000001e-09, 6.411495077127329e-10).transl(-3.565346251394128e-09, 4e-08, 0))
hIsland = hIsland.add(rect(6.000000000000001e-09, 1.1110226919416712e-09).transl(6.51218683487126e-08, 3.5561252587585516e-08, 0))
hIsland = hIsland.add(rect(6.000000000000001e-09, 9.127402189006025e-10).transl(-6.153718490555123e-08, 3.632161885344908e-08, 0))
hIsland = hIsland.sub(rect(6.000000000000001e-09, -8.851041318116502e-10).transl(9.601697400805371e-08, 2.433431887256989e-08, 0))
hIsland = hIsland.sub(rect(6.000000000000001e-09, -8.27388349834163e-10).transl(2.6867007789984508e-08, 3.996464943297993e-08, 0))
hIsland = hIsland.add(rect(6.000000000000001e-09, 7.88907015544214e-10).transl(6.01244720332645e-08, 3.659871178600884e-08, 0))
hIsland = hIsland.add(rect(6.000000000000001e-09, 1.8637710799354803e-10).transl(3.131582866303222e-08, 3.983625984003679e-08, 0))
hIsland = hIsland.add(rect(6.000000000000001e-09, 6.237445740858358e-09).transl(-6.737098275074459e-08, 3.5040392273586084e-08, 0))
hIsland = hIsland.add(rect(6.000000000000001e-09, 9.062369021224851e-10).transl(-9.612027036486649e-08, 2.4275615207819456e-08, 0))
hIsland = hIsland.sub(rect(6.000000000000001e-09, -3.0059605339492493e-09).transl(-1.9916398692483533e-08, 4e-08, 0))
hIsland = hIsland.sub(rect(6.000000000000001e-09, -2.420110817466826e-10).transl(-7.970688904335857e-09, 4e-08, 0))
hIsland = hIsland.sub(rect(6.000000000000001e-09, -1.1994268254823796e-09).transl(-4.799097197608806e-08, 3.849594611925169e-08, 0))
hIsland = hIsland.sub(rect(6.000000000000001e-09, -3.659440682293334e-10).transl(3.198676724951371e-08, 3.9808706133308846e-08, 0))
hIsland = hIsland.add(rect(6.000000000000001e-09, 1.965865829197295e-09).transl(-4.3406952934286894e-08, 3.9003553402992345e-08, 0))
hIsland = hIsland.add(rect(6.000000000000001e-09, 1.786390050032373e-09).transl(7.6837939275996e-08, 3.243570430708755e-08, 0))
hIsland = hIsland.add(rect(6.000000000000001e-09, 7.295423741809026e-10).transl(5.183307566654679e-08, 3.798480879220751e-08, 0))
hIsland = hIsland.sub(rect(6.000000000000001e-09, -9.960057951099428e-11).transl(1.348796153043981e-08, 4e-08, 0))
hIsland = hIsland.sub(rect(6.000000000000001e-09, -1.6080487081775932e-09).transl(-8.036000937888207e-08, 3.1273624186598e-08, 0))
hIsland = hIsland.sub(rect(6.000000000000001e-09, -1.0761100556613781e-09).transl(5.908847285260968e-08, 3.67940729568957e-08, 0))
hIsland = hIsland.sub(rect(6.000000000000001e-09, -7.013703733056946e-10).transl(4.016187595008955e-08, 3.929787849287038e-08, 0))
hIsland = hIsland.add(rect(6.000000000000001e-09, 1.697072257129688e-09).transl(1.0632852684597887e-07, 1.695293503693496e-08, 0))
hIsland = hIsland.add(rect(6.000000000000001e-09, 1.667468009093581e-09).transl(1.0408034666525367e-07, 1.8901682668028592e-08, 0))
hIsland = hIsland.add(rect(6.000000000000001e-09, 1.2954734554276965e-10).transl(1.0749487525203608e-07, 1.5824032691226898e-08, 0))
hIsland = hIsland.add(rect(6.000000000000001e-09, 1.2398861286941493e-09).transl(-3.590391933224182e-08, 3.960458830865094e-08, 0))
hIsland = hIsland.sub(rect(6.000000000000001e-09, -2.435688787926337e-10).transl(6.028221837090647e-08, 3.65683868588203e-08, 0))
hIsland = hIsland.sub(rect(6.000000000000001e-09, -6.307907177554744e-10).transl(-6.023789428660913e-08, 3.657692318728631e-08, 0))
hIsland = hIsland.add(rect(6.000000000000001e-09, 1.189806608532405e-09).transl(-4.736037041608573e-09, 4e-08, 0))
hIsland = hIsland.add(rect(6.000000000000001e-09, 1.7784866236342593e-09).transl(-4.630682823234826e-08, 3.8695143518268517e-08, 0))
hIsland = hIsland.sub(rect(6.000000000000001e-09, -3.729330860841307e-09).transl(3.538399694451721e-11, 4e-08, 0))
hIsland = hIsland.sub(rect(6.000000000000001e-09, -3.2043796376733304e-11).transl(1.071952301171793e-08, 4e-08, 0))
hIsland = hIsland.sub(rect(6.000000000000001e-09, -6.286580742233638e-10).transl(-2.001177974704125e-08, 4e-08, 0))
hIsland = hIsland.sub(rect(6.000000000000001e-09, -4.449861665473788e-11).transl(-4.4192328200053646e-08, 3.892430059533206e-08, 0))
hIsland = hIsland.add(rect(6.000000000000001e-09, 3.4203805824178726e-10).transl(-7.26031621615711e-08, 3.3688011205384027e-08, 0))
hIsland = hIsland.sub(rect(6.000000000000001e-09, -2.4388601754738356e-10).transl(-1.0688257579377989e-07, 1.642830259990197e-08, 0))
hIsland = hIsland.add(rect(6.000000000000001e-09, 6.032639984136852e-10).transl(3.195191353010662e-08, 3.981019059093391e-08, 0))
hIsland = hIsland.sub(rect(6.000000000000001e-09, -2.212278588748516e-09).transl(-8.463394267342038e-08, 2.9696820622914366e-08, 0))
hIsland = hIsland.sub(rect(6.000000000000001e-09, -9.171037398141528e-10).transl(-4.0223964560488416e-08, 3.929274320033863e-08, 0))
hIsland = hIsland.sub(rect(6.000000000000001e-09, -4.703915782767312e-11).transl(-1.1551592033055261e-08, 4e-08, 0))
hIsland = hIsland.add(rect(6.000000000000001e-09, 7.086077161737875e-10).transl(-3.3532096267884377e-08, 3.9737025318145984e-08, 0))
hIsland = hIsland.sub(rect(6.000000000000001e-09, -2.3986878235527423e-10).transl(2.617719346534097e-08, 3.997613995765175e-08, 0))
hIsland = hIsland.add(rect(6.000000000000001e-09, 7.776846211722262e-10).transl(5.2468206143421415e-08, 3.7892557355841666e-08, 0))
hIsland = hIsland.sub(rect(6.000000000000001e-09, -3.366426436662733e-09).transl(-5.9436683682776913e-08, 3.672914215189144e-08, 0))
hIsland = hIsland.sub(rect(6.000000000000001e-09, -1.7562172995727829e-09).transl(6.4779099673658e-08, 3.563760792176376e-08, 0))
hIsland = hIsland.add(rect(6.000000000000001e-09, 7.779109298580643e-12).transl(-7.352314365004019e-09, 4e-08, 0))
hIsland = hIsland.sub(rect(6.000000000000001e-09, -3.1834066188073595e-09).transl(-9.997661705865459e-08, 2.1906315505305888e-08, 0))
hIsland = hIsland.sub(rect(6.000000000000001e-09, -7.105954831771871e-10).transl(-5.706308074945102e-08, 3.715727196776254e-08, 0))
hIsland = hIsland.sub(rect(6.000000000000001e-09, -2.1035721718294133e-09).transl(-1.148377864670573e-07, 2.37428635507106e-09, 0))
hIsland = hIsland.sub(rect(6.000000000000001e-09, -2.3118091385515906e-09).transl(-6.520017735604139e-09, 4e-08, 0))
hIsland = hIsland.add(rect(6.000000000000001e-09, 5.124938067755533e-10).transl(9.864533807329194e-08, 2.2766102665624026e-08, 0))
hIsland = hIsland.sub(rect(6.000000000000001e-09, -1.3402005047098704e-09).transl(-8.431095845059866e-08, 2.982293801943959e-08, 0))
hIsland = hIsland.add(rect(6.000000000000001e-09, 7.502714446788655e-10).transl(-4.5460424893407115e-08, 3.878964966697797e-08, 0))
hIsland = hIsland.add(rect(6.000000000000001e-09, 5.669299174485211e-10).transl(-1.8213333794009938e-08, 4e-08, 0))
hIsland = hIsland.add(rect(6.000000000000001e-09, 2.7297088729542902e-09).transl(6.707892965628602e-08, 3.511000256110058e-08, 0))
hIsland = hIsland.sub(rect(6.000000000000001e-09, -4.256761864032929e-10).transl(-6.505481407061326e-08, 3.5576251646123546e-08, 0))
hIsland = hIsland.add(rect(6.000000000000001e-09, 2.209316276261624e-09).transl(-9.479592984864654e-08, 2.5011696534778865e-08, 0))
hIsland = hIsland.sub(rect(6.000000000000001e-09, -2.556994687315484e-10).transl(-5.9329962998910776e-08, 3.674912081429157e-08, 0))
hIsland = hIsland.add(rect(6.000000000000001e-09, 3.0592690188008757e-09).transl(2.7693167528451235e-08, 3.9947920204290645e-08, 0))
hIsland = hIsland.sub(rect(6.000000000000001e-09, -4.207742355722608e-09).transl(-7.906987182708555e-08, 3.17128225493139e-08, 0))
hIsland = hIsland.sub(rect(6.000000000000001e-09, -1.5399547175154201e-09).transl(9.674903367637643e-08, 2.3913359807396665e-08, 0))
hIsland = hIsland.sub(rect(6.000000000000001e-09, -2.8048285419912e-09).transl(1.970589889846879e-09, 4e-08, 0))
hIsland = hIsland.sub(rect(6.000000000000001e-09, -1.29333981528086e-09).transl(9.963500341136138e-08, 2.2131571902709652e-08, 0))
hIsland = hIsland.add(rect(6.000000000000001e-09, 3.1296843573292806e-09).transl(-3.710007239121731e-08, 3.9527425712676495e-08, 0))
hIsland = hIsland.add(rect(6.000000000000001e-09, 1.788801638526347e-09).transl(-7.894883332750495e-08, 3.175320726932433e-08, 0))
hIsland = hIsland.sub(rect(6.000000000000001e-09, -1.7355126272993935e-09).transl(4.5586418131559704e-08, 3.877581758631303e-08, 0))
hIsland = hIsland.sub(rect(6.000000000000001e-09, -1.708328243226781e-09).transl(8.214838166165707e-08, 3.063742767958383e-08, 0))
hIsland = hIsland.add(rect(6.000000000000001e-09, 3.3891562989951447e-09).transl(-1.1423273091045686e-08, 4e-08, 0))
hIsland = hIsland.add(rect(6.000000000000001e-09, 1.6922994991957851e-09).transl(-2.221230895521563e-08, 4e-08, 0))
hIsland = hIsland.sub(rect(6.000000000000001e-09, -1.2243532963806092e-11).transl(-1.120986936566252e-07, 9.966131575440407e-09, 0))
hIsland = hIsland.add(rect(6.000000000000001e-09, 1.2739164931747295e-09).transl(-8.023337727113407e-09, 4e-08, 0))
hIsland = hIsland.sub(rect(6.000000000000001e-09, -5.613488293944295e-10).transl(-7.983239131438039e-08, 3.14551900126419e-08, 0))
hIsland = hIsland.add(rect(6.000000000000001e-09, 5.199730031435488e-10).transl(1.0344149771282757e-07, 1.9410818051113957e-08, 0))
hIsland = hIsland.sub(rect(6.000000000000001e-09, -3.3416899141173043e-10).transl(-8.448946761612476e-08, 2.975338258886389e-08, 0))
hIsland = hIsland.add(rect(6.000000000000001e-09, 2.2184113343094815e-09).transl(6.403957173158348e-08, 3.579967777174955e-08, 0))
hIsland = hIsland.sub(rect(6.000000000000001e-09, -2.8056072792758436e-09).transl(2.444195114160412e-09, 4e-08, 0))
hIsland = hIsland.sub(rect(6.000000000000001e-09, -1.430429415127167e-09).transl(4.361089337570942e-08, 3.898327660993516e-08, 0))
hIsland = hIsland.add(rect(6.000000000000001e-09, 1.9308147891123127e-09).transl(-1.1005457268297164e-07, 1.2937989189569452e-08, 0))
hIsland = hIsland.sub(rect(6.000000000000001e-09, -1.8272532225676544e-09).transl(5.719223692854013e-09, 4e-08, 0))
hIsland = hIsland.sub(rect(6.000000000000001e-09, -2.372882698391141e-09).transl(1.1013062153245052e-07, 1.284085215983398e-08, 0))
hIsland = hIsland.sub(rect(6.000000000000001e-09, -5.6885098493059045e-11).transl(-6.036449836995811e-08, 3.655250841940587e-08, 0))
hIsland = hIsland.add(rect(6.000000000000001e-09, 5.629267448208854e-11).transl(-4.428232841464518e-08, 3.891501694595309e-08, 0))
hIsland = hIsland.sub(rect(6.000000000000001e-09, -3.056602043537077e-10).transl(-1.049026864908318e-07, 1.821915497110027e-08, 0))
hIsland = hIsland.add(rect(6.000000000000001e-09, 8.610222094756979e-10).transl(-2.097389450199847e-08, 4e-08, 0))
hIsland = hIsland.add(rect(6.000000000000001e-09, 3.4677909131060874e-09).transl(1.1281322999722169e-07, 8.669348449888728e-09, 0))
hIsland = hIsland.sub(rect(6.000000000000001e-09, -1.2827734189900848e-10).transl(6.104426470678582e-08, 3.641971755298143e-08, 0))
hIsland = hIsland.add(rect(6.000000000000001e-09, 3.454327273261117e-09).transl(-1.1145131589221654e-07, 1.100236026349509e-08, 0))
hIsland = hIsland.sub(rect(6.000000000000001e-09, -2.573804431234699e-09).transl(-7.103299875666174e-08, 3.411542464298763e-08, 0))
hIsland = hIsland.sub(rect(6.000000000000001e-09, -5.377061669389172e-09).transl(9.233820993088427e-08, 2.6289836613860553e-08, 0))
hIsland = hIsland.sub(rect(6.000000000000001e-09, -1.251119302901049e-09).transl(-9.666607496358241e-08, 2.3961647835773824e-08, 0))
hIsland = hIsland.add(rect(6.000000000000001e-09, 2.8024245348888108e-09).transl(-1.0137236920495794e-07, 2.094989857996286e-08, 0))
vIsland := hIsland.rotz(pi / 2)
vIslands := Universe().Inverse()
hIslands := Universe().Inverse()
hIslands = hIslands.add(hIsland.transl(-a/2, a, 0))
hIslands = hIslands.add(hIsland.transl(-a/2, -a, 0))
hIslands = hIslands.add(hIsland.transl(a/2, a, 0))
hIslands = hIslands.add(hIsland.transl(a/2, -a, 0))
hIslands = hIslands.add(hIsland.transl(-a/2, 0, 0))
hIslands = hIslands.add(hIsland.transl(a/2, 0, 0))
vIslands = vIslands.add(vIsland.transl(-a, a/2, 0))
vIslands = vIslands.add(vIsland.transl(a, a/2, 0))
vIslands = vIslands.add(vIsland.transl(-a, -a/2, 0))
vIslands = vIslands.add(vIsland.transl(a, -a/2, 0))
vIslands = vIslands.add(vIsland.transl(0, a/2, 0))
vIslands = vIslands.add(vIsland.transl(0, -a/2, 0))
DefRegion(1, hIslands)
DefRegion(2, vIslands)
TableAdd(m_full.Region(1))
TableAdd(m_full.Region(2))
setgeom(hIslands.add(vIslands))
save(m)
r2o2 := sqrt(2) / 2
m = RandomMagSeed(4)
B_ext = vector(Bmax*r2o2, Bmax*r2o2, 0)
relax()
minimize()
for B := Bmax; B >= -Bmax; B -= Bstep {
	B_ext = vector(B*r2o2, B*r2o2, 0)
	minimize()
	tablesave()
}
//********************************************************************//
//Please cite the following references, relevant for your simulation. //
//See bibtex file in output folder for justification.                 //
//********************************************************************//
//   * Vansteenkiste et al., AIP Adv. 4, 107133 (2014).
//   * Exl et al., J. Appl. Phys. 115, 17D118 (2014).
