//mumax 3.10 [windows_amd64 go1.11.6(gc) CUDA-11.0]
//GPU info: NVIDIA GeForce RTX 3090(24575MB), CUDA Driver 12.1, cc=8.6, using cc=80 PTX
//(c) Arne Vansteenkiste, Dynamat LAB, Ghent University, Belgium
//This is free software without any warranty. See license.txt
//********************************************************************//
//  If you use mumax in any work or publication,                      //
//  we kindly ask you to cite the references in references.bib        //
//********************************************************************//
//output directory: r1;p0.1;a8.000000000000001e-07;l1.8000000000000002e-07;s3.out/
randSeed(3)
ThermSeed(3)
resolution := 2e-09
zResolution := 5e-09
a := 8.000000000000001e-07
gridSize := 800
gridDepth := 5
SetCellsize(resolution, resolution, zResolution)
SetGridsize(gridSize, gridSize, gridDepth)
SetPBC(16, 16, 0)
//resizing...
Msat = 700e3
Aex = 13e-12
alpha = 0.2
Bmax := 0.1
Bstep := Bmax / 500.0
TableAdd(B_ext)
TableAdd(m_full)
islandWidth := 8e-08
islandLength := 1.8000000000000002e-07
ellipseConstant := 9.000000000000001e-09
hIsland := Universe().Inverse()
vIsland := Universe().Inverse()
vIslands := Universe().Inverse()
hIslands := Universe().Inverse()
hIsland = rect(islandLength-2*ellipseConstant, islandWidth)
hIsland = hIsland.add(ellipse(ellipseConstant*2, islandWidth).transl(islandLength/2-ellipseConstant, 0, 0))
hIsland = hIsland.add(ellipse(ellipseConstant*2, islandWidth).transl(-islandLength/2+ellipseConstant, 0, 0))
hIsland = hIsland.add(rect(9.034128391631686e-09, 4.969335965831094e-10).transl(2.625327762187158e-08, -4e-08, 0))
hIsland = hIsland.sub(rect(2.075497304838348e-09, -4.426653991335447e-09).transl(-4.956101874686951e-08, -4e-08, 0))
hIsland = hIsland.sub(rect(9.870044395014408e-09, -1.1658355088045768e-09).transl(5.171706013779039e-08, -4e-08, 0))
hIsland = hIsland.sub(rect(2.848176263848828e-09, -1.074615182548192e-09).transl(-8.504456739900396e-08, -3.573329866082189e-08, 0))
hIsland = hIsland.add(rect(2.850335966122331e-09, 2.312782010689063e-09).transl(7.796785056230204e-09, -4e-08, 0))
hIsland = hIsland.sub(rect(5.723877372533256e-09, -9.492312380717847e-10).transl(-5.4668866199931475e-08, -4e-08, 0))
hIsland = hIsland.sub(rect(5.887799262018213e-09, -6.94550237080524e-10).transl(2.910305024020195e-08, -4e-08, 0))
hIsland = hIsland.add(rect(4.443650311660013e-09, 1.0395695715858284e-09).transl(3.356387309746992e-08, -4e-08, 0))
hIsland = hIsland.add(rect(6.228356486807671e-09, 2.0490642114824544e-10).transl(2.134441520924209e-08, -4e-08, 0))
hIsland = hIsland.add(rect(7.519154390304797e-09, 1.507498654191359e-10).transl(1.3986783463557374e-09, -4e-08, 0))
hIsland = hIsland.sub(rect(3.1921080807891863e-09, -1.6825346500194797e-09).transl(5.913063101356392e-08, -4e-08, 0))
hIsland = hIsland.add(rect(9.726393957113154e-09, 2.3870063361118957e-09).transl(-8.484087395247205e-08, -3.6174525456110026e-08, 0))
hIsland = hIsland.add(rect(9.409943081974205e-09, 2.148105433229654e-09).transl(1.3707142637713653e-08, -4e-08, 0))
hIsland = hIsland.sub(rect(7.323344250729905e-09, -2.310895881899657e-09).transl(-5.098695980666556e-08, -4e-08, 0))
hIsland = hIsland.add(rect(5.635518036168053e-09, 2.9313992217486407e-09).transl(5.320018147309974e-08, -4e-08, 0))
hIsland = hIsland.sub(rect(2.3275404263577696e-09, -6.681663128612718e-10).transl(-4.84075336138155e-08, -4e-08, 0))
hIsland = hIsland.add(rect(6.53994003066515e-09, 1.8421200026707539e-09).transl(-7.596759490916879e-08, -4e-08, 0))
hIsland = hIsland.sub(rect(4.097923166166857e-09, -1.5672811441594451e-09).transl(4.9374044066550006e-08, -4e-08, 0))
hIsland = hIsland.add(rect(7.10880467180073e-09, 8.059067437476384e-10).transl(6.467358996467686e-08, -4e-08, 0))
hIsland = hIsland.sub(rect(2.482084084014659e-09, -1.963588626781573e-10).transl(6.87196630651053e-08, -4e-08, 0))
hIsland = hIsland.sub(rect(2.5495837694311804e-09, -2.9778873209236448e-09).transl(5.955704146693027e-08, -4e-08, 0))
hIsland = hIsland.add(rect(2.496291730261664e-09, 4.150793027076083e-09).transl(-4.3782885066159264e-08, -4e-08, 0))
hIsland = hIsland.sub(rect(5.127388311902509e-09, -1.9531090112025325e-09).transl(-5.47109680106029e-08, -4e-08, 0))
hIsland = hIsland.sub(rect(5.640774560701914e-09, -1.124685175557909e-09).transl(8.636280942123892e-09, -4e-08, 0))
hIsland = hIsland.add(rect(4.572977907238064e-09, 2.2311686184492807e-10).transl(-5.0714262727327284e-08, -4e-08, 0))
hIsland = hIsland.add(rect(7.85107796820412e-09, 2.657287594634382e-09).transl(-7.275634697344392e-08, -4e-08, 0))
hIsland = hIsland.sub(rect(4.731868870037663e-09, -1.996243495709661e-09).transl(8.680206049697389e-08, -3.057832492709933e-08, 0))
hIsland = hIsland.add(rect(9.68761924120619e-09, 1.4649950407029373e-09).transl(3.525317253544843e-08, -4e-08, 0))
hIsland = hIsland.sub(rect(8.524936248791715e-09, -1.628076494366797e-09).transl(-7.595117695660649e-08, -4e-08, 0))
hIsland = hIsland.sub(rect(7.1471913240305745e-09, -1.6801271435055236e-09).transl(-3.533027850245754e-08, -4e-08, 0))
hIsland = hIsland.sub(rect(5.136051705425404e-09, -5.425808050650295e-10).transl(-2.5246098470322745e-08, -4e-08, 0))
hIsland = hIsland.add(rect(2.0182960073989415e-09, 2.310195327839873e-09).transl(-7.62163253041321e-08, -4e-08, 0))
hIsland = hIsland.add(rect(4.071595636939124e-09, 6.370139684751247e-11).transl(-8.967847795782791e-08, -1.0596081582295948e-08, 0))
hIsland = hIsland.sub(rect(9.84707304596209e-09, -1.4724077522329391e-09).transl(-5.892048535675295e-09, -4e-08, 0))
hIsland = hIsland.add(rect(3.6524011832278306e-09, 1.862055181413246e-09).transl(5.4593092941834814e-08, -4e-08, 0))
hIsland = hIsland.sub(rect(5.960598154799374e-09, -4.131552741629234e-09).transl(-5.648044769472852e-08, -4e-08, 0))
hIsland = hIsland.sub(rect(9.982229983822692e-09, -9.143187143745845e-10).transl(-2.783657912277415e-08, -4e-08, 0))
hIsland = hIsland.add(rect(7.384474932273873e-09, 1.4260607798181054e-09).transl(-4.3533366037818606e-08, -4e-08, 0))
hIsland = hIsland.add(rect(6.336123652542799e-09, 2.2323376452493047e-09).transl(1.2147009567685401e-08, -4e-08, 0))
hIsland = hIsland.sub(rect(4.500396914446464e-09, -1.8371387916786982e-09).transl(-7.041500306119737e-08, -4e-08, 0))
hIsland = hIsland.sub(rect(4.955422020224389e-09, -1.5116574788624307e-09).transl(-4.5847097646414975e-09, -4e-08, 0))
hIsland = hIsland.add(rect(5.671226155531619e-09, 1.6248475526202518e-10).transl(-1.6405795737182745e-09, -4e-08, 0))
hIsland = hIsland.add(rect(7.235654371116342e-09, 4.780132621587271e-10).transl(-3.7515326694787953e-08, -4e-08, 0))
hIsland = hIsland.add(rect(3.370389218510379e-09, 6.700359918875934e-10).transl(-6.170429724865628e-08, -4e-08, 0))
hIsland = hIsland.add(rect(6.7315846435890445e-09, 2.2762478005245835e-09).transl(5.293767429414318e-08, -4e-08, 0))
hIsland = hIsland.add(rect(8.279555583375715e-09, 1.2060183391073737e-09).transl(7.223736534104481e-08, -4e-08, 0))
hIsland = hIsland.add(rect(9.841314557824558e-09, 1.62881764929706e-09).transl(2.315065900234734e-08, -4e-08, 0))
hIsland = hIsland.add(rect(7.343507371384899e-09, 1.8051905536282524e-09).transl(6.006173482881175e-09, -4e-08, 0))
hIsland = hIsland.add(rect(7.293409986394086e-09, 8.851752278979071e-10).transl(6.994564347935901e-08, -4e-08, 0))
hIsland = hIsland.add(rect(6.46989035162077e-09, 4.853264722075532e-10).transl(-2.2803950442300886e-08, -4e-08, 0))
hIsland = hIsland.sub(rect(5.9085780681812335e-09, -5.461219907811765e-09).transl(8.098771206378401e-08, -4e-08, 0))
hIsland = hIsland.sub(rect(6.213883028646959e-09, -7.536255641546208e-10).transl(-1.3625921784540587e-08, -4e-08, 0))
hIsland = hIsland.add(rect(4.349071053313902e-09, 3.817310006092495e-09).transl(-1.2062775578574786e-08, -4e-08, 0))
hIsland = hIsland.sub(rect(6.98986948223997e-09, -9.035242778811802e-10).transl(-3.7482631048692196e-09, -4e-08, 0))
hIsland = hIsland.add(rect(4.269602602012221e-09, 9.232346617120609e-10).transl(8.909786466753169e-08, -1.7455177350081745e-08, 0))
hIsland = hIsland.add(rect(9.59434935883106e-09, 3.863461983858379e-09).transl(2.0660642497574788e-08, -4e-08, 0))
hIsland = hIsland.sub(rect(3.0204684335845854e-09, -1.041333462555723e-09).transl(-4.051644601039102e-08, -4e-08, 0))
hIsland = hIsland.add(rect(8.646017748542023e-09, 1.1132379282554075e-09).transl(-8.181164718821856e-10, -4e-08, 0))
hIsland = hIsland.add(rect(6.530195875736893e-09, 3.229214566704751e-09).transl(-4.40483891908112e-09, -4e-08, 0))
hIsland = hIsland.add(rect(7.059000378470333e-09, 8.232543254368469e-11).transl(4.069016937648789e-08, -4e-08, 0))
hIsland = hIsland.add(rect(5.091749588239773e-09, 5.564624482315196e-10).transl(7.934002004460818e-08, -4e-08, 0))
hIsland = hIsland.add(rect(9.015287216988636e-09, 1.3002977195873245e-09).transl(-3.022204797408882e-08, -4e-08, 0))
hIsland = hIsland.add(rect(4.126397665905999e-09, 1.5080986385584686e-09).transl(-2.1566339819321637e-08, -4e-08, 0))
hIsland = hIsland.add(rect(5.156088165562159e-09, 7.358647358721766e-10).transl(3.6374871759104854e-08, -4e-08, 0))
hIsland = hIsland.add(rect(2.6645498213984277e-09, 2.703343040408851e-09).transl(-7.701818607444865e-08, -4e-08, 0))
hIsland = hIsland.sub(rect(2.070677137529778e-09, -3.22616740021024e-09).transl(8.066107968186044e-08, -4e-08, 0))
hIsland = hIsland.sub(rect(4.931936162198774e-09, -3.233963881498824e-09).transl(6.474257052116843e-08, -4e-08, 0))
hIsland = hIsland.add(rect(4.086704032064352e-09, 1.5755808695151222e-12).transl(-3.012641248959521e-08, -4e-08, 0))
hIsland = hIsland.sub(rect(9.311055033945372e-09, -6.288279370443991e-10).transl(-5.687433110940803e-08, -4e-08, 0))
hIsland = hIsland.sub(rect(2.1645988423220105e-09, -9.450565360159393e-10).transl(-1.68153314283166e-08, -4e-08, 0))
hIsland = hIsland.sub(rect(9.339736027385271e-09, -1.962076725615146e-09).transl(-7.629277234690695e-08, -4e-08, 0))
hIsland = hIsland.sub(rect(6.0076923060284214e-09, -6.170161692570289e-09).transl(-8.251014234167499e-08, -3.943288597044517e-08, 0))
hIsland = hIsland.sub(rect(7.265690170849462e-09, -4.412907055532793e-09).transl(-1.837816732986117e-08, -4e-08, 0))
hIsland = hIsland.add(rect(6.7454748194832485e-09, 7.656968566202413e-10).transl(-5.936393811287618e-08, -4e-08, 0))
hIsland = hIsland.sub(rect(8.917338854626546e-09, -1.4090499508991401e-09).transl(4.206018796477059e-08, -4e-08, 0))
hIsland = hIsland.add(rect(5.668482858143123e-09, 2.2711577336810884e-09).transl(-2.7901018022799843e-08, -4e-08, 0))
hIsland = hIsland.add(rect(7.449289531382537e-09, 8.45540561935466e-10).transl(-3.088633999221909e-08, -4e-08, 0))
hIsland = hIsland.sub(rect(8.550766080093773e-09, -1.5992947557393286e-09).transl(2.724443002185631e-08, -4e-08, 0))
hIsland = hIsland.add(rect(7.269561299328503e-09, 3.074815768742212e-09).transl(7.701889595863094e-08, -4e-08, 0))
hIsland = hIsland.sub(rect(6.473080253102427e-09, -1.0452387611043337e-09).transl(-2.0408209817641947e-08, -4e-08, 0))
hIsland = hIsland.add(rect(9.980894746163355e-09, 4.811065727461928e-11).transl(5.213024363817674e-08, -4e-08, 0))
hIsland = hIsland.sub(rect(9.875958089910926e-09, -2.1734099673049197e-09).transl(8.887297634320327e-08, -1.938116356728778e-08, 0))
hIsland = hIsland.sub(rect(3.9031202646886545e-09, -3.3011537044777375e-10).transl(-7.288778136483591e-08, -4e-08, 0))
hIsland = hIsland.add(rect(2.2751387062934346e-09, 2.0331207814424486e-09).transl(6.753316791510414e-08, -4e-08, 0))
hIsland = hIsland.sub(rect(9.13061727719181e-09, -2.884290211139765e-09).transl(1.5006988564580817e-08, -4e-08, 0))
hIsland = hIsland.sub(rect(9.975872113583677e-09, -1.2997923106360552e-09).transl(-4.3744118462153335e-08, -4e-08, 0))
hIsland = hIsland.sub(rect(7.977455151911822e-09, -2.6438343926387648e-09).transl(-4.094683015197341e-08, -4e-08, 0))
hIsland = hIsland.add(rect(2.1327733865024954e-09, 1.2260274259674412e-09).transl(-4.818244893862738e-08, -4e-08, 0))
hIsland = hIsland.sub(rect(4.005104998689724e-09, -4.304469810261172e-09).transl(1.5070283353718136e-08, -4e-08, 0))
hIsland = hIsland.sub(rect(8.516038835767798e-09, -6.090066163077414e-10).transl(-2.7474061732621356e-08, -4e-08, 0))
hIsland = hIsland.add(rect(8.936087917210362e-09, 1.1092203468280876e-09).transl(-6.532278217323236e-08, -4e-08, 0))
hIsland = hIsland.sub(rect(9.001063800728673e-09, -2.5495256096875582e-09).transl(-2.2565257740810367e-08, -4e-08, 0))
hIsland = hIsland.sub(rect(8.782052836821254e-09, -6.944519866512892e-10).transl(3.4269236344853725e-08, -4e-08, 0))
hIsland = hIsland.add(rect(8.917061081354362e-09, 1.3343766998611355e-09).transl(4.663391994386585e-08, -4e-08, 0))
hIsland = hIsland.add(rect(4.9089780411717726e-09, 7.838510328724826e-10).transl(7.040586060034998e-08, -4e-08, 0))
hIsland = hIsland.add(rect(3.866977950065512e-09, 2.44021368995823e-10).transl(-2.0942328383601173e-08, -4e-08, 0))
hIsland = hIsland.sub(rect(8.345138613890238e-09, -2.9818028186870637e-09).transl(-7.451504423964082e-08, -4e-08, 0))
hIsland = hIsland.add(rect(6.098485687312983e-09, 8.525431600572151e-10).transl(5.607935528294151e-08, -4e-08, 0))
hIsland = hIsland.sub(rect(3.1890369899689183e-09, -1.4731680369574336e-09).transl(-2.6850309596238854e-08, -4e-08, 0))
hIsland = hIsland.add(rect(2.6019282668635953e-09, 6.770633304713483e-10).transl(-1.0677985833452478e-08, -4e-08, 0))
hIsland = hIsland.add(rect(7.673087479813102e-09, 5.2280685417456714e-09).transl(-4.9271573007003155e-08, -4e-08, 0))
hIsland = hIsland.sub(rect(2.4511257794898295e-09, -6.737495667533713e-10).transl(-2.2467967742914545e-08, -4e-08, 0))
hIsland = hIsland.sub(rect(5.844473469486144e-09, -1.2787304374589711e-09).transl(-4.176422079461446e-08, -4e-08, 0))
hIsland = hIsland.add(rect(7.350948801072187e-09, 1.3868231174857566e-09).transl(8.437207504218035e-08, -3.7086248467333936e-08, 0))
hIsland = hIsland.add(rect(3.396897205885193e-09, 6.720012690875749e-10).transl(4.092325041296687e-08, -4e-08, 0))
hIsland = hIsland.add(rect(9.132972674747454e-09, 3.2528729094009886e-09).transl(-7.600694417072122e-08, -4e-08, 0))
hIsland = hIsland.sub(rect(7.575523373710957e-09, -1.4244753987214673e-09).transl(8.561920175754054e-08, -3.4329694197106604e-08, 0))
hIsland = hIsland.sub(rect(8.838738647021448e-09, -1.1454721976583039e-09).transl(-3.3804670126872934e-08, -4e-08, 0))
hIsland = hIsland.sub(rect(9.159191861673975e-09, -6.928571026766575e-10).transl(1.707084368107085e-08, -4e-08, 0))
hIsland = hIsland.sub(rect(5.653385419427357e-09, -3.0551316717084197e-09).transl(-2.532821890052919e-08, -4e-08, 0))
hIsland = hIsland.sub(rect(4.3739074516804425e-09, -1.43649272677211e-09).transl(3.7887439295096146e-08, -4e-08, 0))
hIsland = hIsland.add(rect(2.1223527610974806e-09, 9.211007168457304e-10).transl(-2.5952075524468336e-08, -4e-08, 0))
hIsland = hIsland.add(rect(3.431385339862876e-09, 4.350640470934637e-09).transl(8.410509838665274e-08, -3.754394666315806e-08, 0))
hIsland = hIsland.add(rect(9.83862394309137e-09, 1.3391752523985505e-09).transl(-2.7835244620376032e-08, -4e-08, 0))
hIsland = hIsland.add(rect(6.581499274763584e-09, 2.8309066356083955e-10).transl(1.8997806587790156e-08, -4e-08, 0))
hIsland = hIsland.add(rect(6.993162927380894e-09, 1.8227222510150658e-09).transl(-1.5200142562853145e-08, -4e-08, 0))
hIsland = hIsland.add(rect(4.019354605151454e-09, 3.9876514244885e-10).transl(7.751428803030602e-08, -4e-08, 0))
hIsland = hIsland.sub(rect(8.261179679118993e-09, -3.891527192318376e-09).transl(-7.265344854576864e-08, -4e-08, 0))
hIsland = hIsland.sub(rect(4.080304594497755e-09, -2.3096736848779e-09).transl(-1.0764096230306598e-08, -4e-08, 0))
hIsland = hIsland.sub(rect(7.340186236692907e-09, -3.584308498343229e-09).transl(-2.7662380208340315e-08, -4e-08, 0))
hIsland = hIsland.add(rect(8.53887604806174e-09, 1.5383699178356188e-09).transl(5.9501814652989094e-08, -4e-08, 0))
hIsland = hIsland.add(rect(7.766351007998417e-09, 1.6771253865806296e-09).transl(2.4503670642009363e-08, -4e-08, 0))
hIsland = hIsland.sub(rect(6.5595967336938045e-09, -5.38862880692671e-10).transl(-6.571312981948921e-08, -4e-08, 0))
hIsland = hIsland.sub(rect(5.520929492548138e-09, -2.4518878301514414e-09).transl(-7.086332032799441e-08, -4e-08, 0))
hIsland = hIsland.add(rect(9.629734345080762e-09, 5.8804999442701e-10).transl(-6.597524003757607e-08, -4e-08, 0))
hIsland = hIsland.sub(rect(8.884865330652446e-09, -6.108543386050126e-10).transl(-2.3748152509098754e-08, -4e-08, 0))
hIsland = hIsland.add(rect(2.5782759966663785e-09, 1.766690637118467e-09).transl(4.3857324858807e-08, -4e-08, 0))
hIsland = hIsland.add(rect(7.33092306343554e-09, 7.908167149129447e-11).transl(-2.570060741919833e-08, -4e-08, 0))
hIsland = hIsland.sub(rect(7.025229289689939e-09, -7.421961568900443e-10).transl(-7.628367613239568e-08, -4e-08, 0))
hIsland = hIsland.sub(rect(9.162966906631262e-09, -8.746566013394513e-10).transl(-4.2510387604328675e-08, -4e-08, 0))
hIsland = hIsland.sub(rect(2.726295359349375e-09, -1.515783454473855e-09).transl(5.937525995756781e-08, -4e-08, 0))
hIsland = hIsland.sub(rect(8.325260534971382e-09, -2.1215947145590647e-09).transl(-3.525972378268366e-08, -4e-08, 0))
hIsland = hIsland.sub(rect(5.007812850822176e-09, -2.38820236355336e-09).transl(3.6625976308295315e-08, -4e-08, 0))
hIsland = hIsland.add(rect(5.329860011522386e-09, 2.1556762936630204e-09).transl(-5.861866004514861e-08, -4e-08, 0))
hIsland = hIsland.sub(rect(2.369428591936127e-09, -2.9148559673719562e-09).transl(2.3738793308421136e-08, -4e-08, 0))
hIsland = hIsland.sub(rect(4.980075396670267e-09, -1.7166661399455457e-09).transl(1.6248139284845086e-10, -4e-08, 0))
hIsland = hIsland.sub(rect(5.679017643253799e-09, -1.708104469355115e-09).transl(-5.59605114008843e-08, -4e-08, 0))
hIsland = hIsland.sub(rect(3.977910015432919e-09, -3.094007291249324e-10).transl(1.584601799141533e-08, -4e-08, 0))
hIsland = hIsland.sub(rect(7.049775877083894e-09, -8.083021598768196e-10).transl(3.6089091710076255e-08, -4e-08, 0))
hIsland = hIsland.sub(rect(4.938365641109409e-09, -3.733890657582511e-09).transl(-4.5663214307051315e-08, -4e-08, 0))
hIsland = hIsland.sub(rect(9.062637568263174e-09, -1.3465696523784385e-09).transl(6.332580655762895e-08, -4e-08, 0))
hIsland = hIsland.sub(rect(4.0634404749744136e-09, -3.312341865823188e-10).transl(4.4138872961096635e-08, -4e-08, 0))
hIsland = hIsland.sub(rect(9.762125477526484e-09, -2.080723899134537e-09).transl(-3.083504350958319e-08, -4e-08, 0))
hIsland = hIsland.sub(rect(8.80003054313718e-09, -1.2008510552085172e-09).transl(6.770856804984557e-08, -4e-08, 0))
hIsland = hIsland.sub(rect(5.49329029904758e-09, -5.46803141973838e-10).transl(1.1741882472978257e-08, -4e-08, 0))
hIsland = hIsland.add(rect(6.173168519143304e-09, 3.62035599847453e-10).transl(-1.1076282255853094e-08, -4e-08, 0))
hIsland = hIsland.add(rect(4.7477774726842545e-09, 1.498458503293366e-09).transl(-3.7422693676942665e-08, -4e-08, 0))
hIsland = hIsland.sub(rect(8.404607838018067e-09, -2.9681314050015064e-09).transl(3.968697169531548e-08, -4e-08, 0))
hIsland = hIsland.add(rect(3.4797055063466574e-09, 9.82854250843156e-10).transl(2.9983977765740954e-08, -4e-08, 0))
hIsland = hIsland.sub(rect(5.1033498380412325e-09, -2.3358455021898273e-09).transl(-3.068075192789994e-08, -4e-08, 0))
hIsland = hIsland.sub(rect(5.24889869806221e-09, -1.8822779310035226e-09).transl(1.4090522393030477e-08, -4e-08, 0))
hIsland = hIsland.sub(rect(3.737362802737081e-09, -7.99718566598949e-10).transl(1.5612173012801712e-08, -4e-08, 0))
hIsland = hIsland.add(rect(4.652515785606682e-09, 2.646894290473667e-09).transl(-6.970654792882649e-08, -4e-08, 0))
hIsland = hIsland.add(rect(9.711019704600414e-09, 1.152229811002859e-09).transl(4.000415152400874e-08, -4e-08, 0))
hIsland = hIsland.add(rect(6.826219700666011e-09, 4.980685678660097e-10).transl(-2.6660002526391797e-08, -4e-08, 0))
hIsland = hIsland.sub(rect(7.724578864291302e-09, -9.191428431926147e-11).transl(7.141413350642148e-08, -4e-08, 0))
hIsland = hIsland.add(rect(6.281578569559543e-09, 5.751387950877695e-10).transl(-7.503529205946179e-08, -4e-08, 0))
hIsland = hIsland.sub(rect(6.813655065994415e-09, -2.5443675434452827e-09).transl(6.81810795313729e-08, -4e-08, 0))
hIsland = hIsland.add(rect(4.993079122473462e-09, 3.954752925106371e-09).transl(5.787611283604295e-08, -4e-08, 0))
hIsland = hIsland.sub(rect(3.2038529341515524e-09, -1.3295571589721672e-09).transl(-2.3518081350632004e-09, -4e-08, 0))
hIsland = hIsland.add(rect(9.469465461819106e-09, 1.111245609522921e-09).transl(-3.118022046093474e-08, -4e-08, 0))
hIsland = hIsland.add(rect(9.66991065427136e-09, 7.400451678332754e-10).transl(7.183103700254203e-08, -4e-08, 0))
hIsland = hIsland.add(rect(5.8497132230345935e-09, 3.4294703482638817e-09).transl(7.417692669200661e-08, -4e-08, 0))
hIsland = hIsland.add(rect(4.297183862842557e-09, 1.7545752675145346e-10).transl(-7.0723921746958e-08, -4e-08, 0))
hIsland = hIsland.sub(rect(7.320010180534694e-09, -6.598797858234836e-10).transl(5.455098095242484e-08, -4e-08, 0))
hIsland = hIsland.sub(rect(3.5951985493604985e-09, -9.833669140814977e-10).transl(3.47825706329396e-08, -4e-08, 0))
hIsland = hIsland.sub(rect(2.5139316301948327e-09, -1.56942395737927e-09).transl(4.6165259983080524e-08, -4e-08, 0))
hIsland = hIsland.add(rect(3.682944538813076e-09, 2.9414405335752444e-09).transl(-3.026861234951363e-08, -4e-08, 0))
hIsland = hIsland.add(rect(3.3184665681825306e-09, 8.49088683118723e-11).transl(1.3842341126504654e-08, -4e-08, 0))
hIsland = hIsland.add(rect(5.56844157988332e-09, 9.602915098986666e-10).transl(-6.367374953113284e-08, -4e-08, 0))
hIsland = hIsland.sub(rect(5.497283367078576e-09, -1.5138669597852072e-09).transl(8.038249062674659e-08, -4e-08, 0))
hIsland = hIsland.sub(rect(5.538409680194555e-09, -2.0496526127498044e-10).transl(-1.0397652771266545e-08, -4e-08, 0))
hIsland = hIsland.sub(rect(5.096723727390308e-09, -2.2667889084928766e-09).transl(3.7358077953420336e-08, -4e-08, 0))
hIsland = hIsland.sub(rect(8.810487164998884e-09, -3.1555223064209597e-10).transl(-7.891436400344757e-09, -4e-08, 0))
hIsland = hIsland.add(rect(6.115905860007467e-09, 1.377398338955066e-09).transl(7.078247027950805e-09, -4e-08, 0))
hIsland = hIsland.add(rect(9.429646754813415e-09, 3.242223478345602e-09).transl(9.527138871755193e-10, -4e-08, 0))
hIsland = hIsland.sub(rect(9.560960353958633e-09, -3.874758634923638e-09).transl(-1.6589618906683107e-08, -4e-08, 0))
hIsland = hIsland.sub(rect(3.014350005264831e-09, -1.2315411012609177e-09).transl(-8.808076975895084e-08, -2.469075885336677e-08, 0))
hIsland = hIsland.add(rect(2.7826991126798264e-09, 5.031901956473533e-10).transl(-2.656641654946862e-08, -4e-08, 0))
hIsland = hIsland.sub(rect(6.81039992268544e-09, -2.493756672870003e-09).transl(-4.2071029406912066e-08, -4e-08, 0))
hIsland = hIsland.add(rect(3.1483688415313352e-09, 1.162558081320014e-09).transl(-3.424198233591632e-08, -4e-08, 0))
hIsland = hIsland.add(rect(3.886803108900199e-09, 3.417299349341335e-09).transl(2.1332858238724415e-08, -4e-08, 0))
hIsland = hIsland.sub(rect(9.746840297066877e-09, -1.5839272570307507e-09).transl(-5.855170184747671e-08, -4e-08, 0))
hIsland = hIsland.add(rect(6.913424594934671e-09, 9.071820474832551e-10).transl(-1.0218745139746058e-08, -4e-08, 0))
hIsland = hIsland.sub(rect(5.78997563940476e-09, -7.826075239585837e-10).transl(-8.641736074364959e-08, -3.194198524197127e-08, 0))
hIsland = hIsland.sub(rect(7.427626330301598e-09, -1.0021326430585695e-09).transl(-4.999542366805807e-08, -4e-08, 0))
hIsland = hIsland.sub(rect(7.1921871385444535e-09, -2.322452157096714e-10).transl(3.0939602986844176e-08, -4e-08, 0))
hIsland = hIsland.sub(rect(8.901949673816703e-09, -1.007180330805114e-09).transl(-2.654833290680337e-08, -4e-08, 0))
hIsland = hIsland.sub(rect(6.293468551999321e-09, -3.603640778147211e-09).transl(-3.30836959842064e-08, -4e-08, 0))
hIsland = hIsland.sub(rect(8.591704079403598e-09, -9.086182285205376e-10).transl(7.235947914190847e-08, -4e-08, 0))
hIsland = hIsland.add(rect(3.658329639328689e-09, 6.285491739669173e-10).transl(-4.651953647445972e-08, -4e-08, 0))
hIsland = hIsland.add(rect(3.9235621165612414e-09, 1.8353785357670342e-09).transl(7.022023604131389e-08, -4e-08, 0))
hIsland = hIsland.sub(rect(2.59305184026951e-09, -3.1516934762188095e-09).transl(1.4794047300257012e-08, -4e-08, 0))
hIsland = hIsland.add(rect(5.720471992502296e-09, 3.579864979570728e-10).transl(6.474025061678278e-08, -4e-08, 0))
hIsland = hIsland.sub(rect(5.231119945480367e-09, -3.5525482919361765e-10).transl(3.225400781550738e-08, -4e-08, 0))
hIsland = hIsland.add(rect(6.330639628512484e-09, 2.429892461323761e-09).transl(-1.8642936330975897e-08, -4e-08, 0))
hIsland = hIsland.add(rect(8.390689202742589e-09, 1.922829667334472e-09).transl(-5.8670554122146565e-08, -4e-08, 0))
hIsland = hIsland.add(rect(7.2865032365621885e-09, 3.603573969402056e-09).transl(7.115605105067613e-08, -4e-08, 0))
hIsland = hIsland.add(rect(8.31723803825779e-09, 3.8231782890509265e-09).transl(1.807773352546513e-08, -4e-08, 0))
hIsland = hIsland.sub(rect(5.523552964703711e-09, -7.08194607919382e-10).transl(1.5584558136350058e-08, -4e-08, 0))
hIsland = hIsland.add(rect(9.86576455779225e-09, 1.9143728435782882e-10).transl(2.5471148877565134e-08, 4e-08, 0))
hIsland = hIsland.sub(rect(4.514953993040355e-09, -3.3759932214317634e-10).transl(-5.967007429101082e-08, 4e-08, 0))
hIsland = hIsland.add(rect(8.495430030662565e-09, 1.3159297365752155e-09).transl(-6.8073148022956e-08, 4e-08, 0))
hIsland = hIsland.sub(rect(7.87807565639158e-09, -1.9042013267724215e-09).transl(3.5172670205874733e-08, 4e-08, 0))
hIsland = hIsland.add(rect(4.440880477611701e-09, 1.453204974632192e-09).transl(-3.525151154255688e-08, 4e-08, 0))
hIsland = hIsland.sub(rect(2.226440640696345e-09, -5.160726463651378e-10).transl(-9.720514434576271e-09, 4e-08, 0))
hIsland = hIsland.add(rect(5.412688600144908e-09, 5.545450249093702e-09).transl(1.1800962161560188e-08, 4e-08, 0))
hIsland = hIsland.sub(rect(6.794376548107122e-09, -2.9477303934494515e-09).transl(4.7403359145431106e-08, 4e-08, 0))
hIsland = hIsland.add(rect(9.893870913061532e-09, 4.687710502214131e-10).transl(2.5818343803193394e-08, 4e-08, 0))
hIsland = hIsland.sub(rect(8.509703115430129e-09, -1.6793113714594235e-09).transl(1.3647829990586112e-08, 4e-08, 0))
hIsland = hIsland.sub(rect(6.808811543406662e-09, -4.717087631040344e-09).transl(5.8348267081272206e-08, 4e-08, 0))
hIsland = hIsland.sub(rect(5.627986742875463e-09, -1.6021966529193785e-09).transl(-3.228631992130851e-08, 4e-08, 0))
hIsland = hIsland.add(rect(8.902729652757333e-09, 8.315107831795893e-10).transl(-8.91620338091275e-08, 1.685447024919311e-08, 0))
hIsland = hIsland.add(rect(8.928421288915986e-09, 1.8162654900256467e-09).transl(3.766916518764409e-08, 4e-08, 0))
hIsland = hIsland.sub(rect(9.995454243572148e-09, -3.2058967763832123e-09).transl(6.160876406607627e-08, 4e-08, 0))
hIsland = hIsland.add(rect(2.270989698195208e-09, 4.157773200802665e-09).transl(7.431993225309057e-08, 4e-08, 0))
hIsland = hIsland.sub(rect(8.070091047388892e-09, -1.363983172435742e-09).transl(2.860572383642321e-08, 4e-08, 0))
hIsland = hIsland.sub(rect(4.155299698540006e-09, -1.3368464888794634e-09).transl(-5.30799055247253e-08, 4e-08, 0))
hIsland = hIsland.sub(rect(5.673807608271248e-09, -8.16165276562185e-10).transl(-2.920024950063284e-08, 4e-08, 0))
hIsland = hIsland.add(rect(7.099167802094063e-09, 1.24101056725458e-10).transl(3.668516662167129e-08, 4e-08, 0))
hIsland = hIsland.sub(rect(8.81890765756813e-09, -3.0093533192752116e-09).transl(-1.5728464843104312e-08, 4e-08, 0))
hIsland = hIsland.add(rect(8.586414018722554e-09, 4.058598987086908e-09).transl(6.215563754037557e-08, 4e-08, 0))
hIsland = hIsland.add(rect(9.664600680411709e-09, 2.7709656332968662e-09).transl(8.669296922209039e-09, 4e-08, 0))
hIsland = hIsland.add(rect(5.2648681560365495e-09, 7.492158547640205e-10).transl(-3.555388996544675e-08, 4e-08, 0))
hIsland = hIsland.sub(rect(9.028210187524448e-09, -2.4225305540311742e-09).transl(-6.749420550207596e-08, 4e-08, 0))
hIsland = hIsland.add(rect(7.711080865918817e-09, 2.728138751184036e-10).transl(2.701429533744508e-08, 4e-08, 0))
hIsland = hIsland.sub(rect(4.854599643798974e-09, -1.3938815626702787e-09).transl(1.3742554605674565e-08, 4e-08, 0))
hIsland = hIsland.sub(rect(7.529279818282969e-09, -1.0130537946903488e-09).transl(-4.7247692881828434e-08, 4e-08, 0))
hIsland = hIsland.sub(rect(8.016573774699255e-09, -2.2514647065992165e-10).transl(3.2698809839844724e-08, 4e-08, 0))
hIsland = hIsland.sub(rect(2.2350187358962964e-09, -1.1296925780802486e-09).transl(2.686302454291985e-08, 4e-08, 0))
hIsland = hIsland.sub(rect(2.174267229320018e-09, -6.78371691794349e-10).transl(-7.91956105876526e-08, 4e-08, 0))
hIsland = hIsland.sub(rect(4.9963062463733645e-09, -3.82648768389985e-09).transl(-1.7026447737821393e-08, 4e-08, 0))
hIsland = hIsland.add(rect(5.928844299293653e-09, 1.3795057134872636e-09).transl(1.4257144688303777e-10, 4e-08, 0))
hIsland = hIsland.add(rect(7.948694354198388e-09, 1.8545752527004975e-09).transl(7.999177397823342e-10, 4e-08, 0))
hIsland = hIsland.sub(rect(2.5903319730264665e-09, -6.183533679316057e-10).transl(-8.690242783298965e-08, 3.01965072549297e-08, 0))
hIsland = hIsland.add(rect(9.27268175658471e-09, 3.4029834684810537e-09).transl(-2.629800660284961e-08, 4e-08, 0))
hIsland = hIsland.add(rect(8.068114982194645e-09, 7.568487476000995e-10).transl(-3.479678802832574e-08, 4e-08, 0))
hIsland = hIsland.sub(rect(6.542089389404562e-09, -1.7012042074096577e-09).transl(-3.70132159262015e-08, 4e-08, 0))
hIsland = hIsland.add(rect(9.498038179312634e-09, 3.7904933766655365e-09).transl(-3.344127519901965e-08, 4e-08, 0))
hIsland = hIsland.add(rect(3.155144873713684e-09, 6.148770043399006e-10).transl(-3.522215284960299e-08, 4e-08, 0))
hIsland = hIsland.sub(rect(4.854465534426405e-09, -1.6603669960631054e-09).transl(1.2767720206137593e-08, 4e-08, 0))
hIsland = hIsland.sub(rect(3.834317131925093e-09, -8.10725956998872e-10).transl(8.771661992035271e-08, 2.6624788169987694e-08, 0))
hIsland = hIsland.add(rect(9.401703710485727e-09, 1.767903491774317e-09).transl(8.184361270571987e-08, 3.982388825948145e-08, 0))
hIsland = hIsland.sub(rect(2.4204965353453016e-09, -5.175551946471442e-10).transl(-5.074029614286791e-09, 4e-08, 0))
hIsland = hIsland.add(rect(7.384417325773871e-09, 1.7941773864832344e-09).transl(5.0770430142024524e-08, 4e-08, 0))
hIsland = hIsland.sub(rect(9.663182041343096e-09, -1.1763056692715878e-09).transl(6.097233850347165e-09, 4e-08, 0))
hIsland = hIsland.sub(rect(3.4622061940069807e-09, -1.7923568339219807e-09).transl(4.447451890622626e-08, 4e-08, 0))
hIsland = hIsland.add(rect(2.55336430429694e-09, 1.7145987237837507e-09).transl(-5.6418267467750935e-08, 4e-08, 0))
hIsland = hIsland.add(rect(3.773939332571403e-09, 4.2755495769590185e-10).transl(-2.13644637859729e-08, 4e-08, 0))
hIsland = hIsland.add(rect(2.7254203577190873e-09, 2.9407174511772684e-09).transl(3.6597883348494124e-08, 4e-08, 0))
hIsland = hIsland.add(rect(8.543344176865781e-09, 1.8307570072032452e-09).transl(2.1635545069233733e-08, 4e-08, 0))
hIsland = hIsland.sub(rect(6.23164310751254e-09, -4.0845070246467023e-10).transl(-5.886090740924323e-08, 4e-08, 0))
hIsland = hIsland.add(rect(2.974298832092174e-09, 1.558502470465364e-09).transl(-2.006571097021144e-09, 4e-08, 0))
hIsland = hIsland.sub(rect(6.390339348934855e-09, -1.1466508539278368e-09).transl(1.2519865495320061e-08, 4e-08, 0))
hIsland = hIsland.add(rect(4.9638499403062075e-09, 1.3745376291110382e-09).transl(6.814915644820187e-08, 4e-08, 0))
hIsland = hIsland.add(rect(3.8066140782386805e-09, 5.38833293358565e-10).transl(3.745813613334335e-08, 4e-08, 0))
hIsland = hIsland.sub(rect(3.293232179535526e-09, -1.7114783144232039e-09).transl(-6.532332778521289e-08, 4e-08, 0))
hIsland = hIsland.sub(rect(2.2314260081215215e-09, -3.2108518888849503e-10).transl(1.1038368342962496e-08, 4e-08, 0))
hIsland = hIsland.sub(rect(4.246929803875122e-09, -5.687790308602655e-10).transl(-7.511235700430506e-08, 4e-08, 0))
hIsland = hIsland.add(rect(2.8017906438377285e-09, 1.2618112870812162e-11).transl(-4.461529651352002e-08, 4e-08, 0))
hIsland = hIsland.add(rect(5.938635607158268e-09, 2.448054757200333e-09).transl(6.466471274001197e-09, 4e-08, 0))
hIsland = hIsland.sub(rect(8.71162547246771e-09, -1.874986620536907e-09).transl(-1.1927905904691908e-08, 4e-08, 0))
hIsland = hIsland.add(rect(6.788742605151054e-09, 3.1144983665874977e-09).transl(-3.467188728194462e-08, 4e-08, 0))
hIsland = hIsland.add(rect(6.07372930287196e-09, 2.108875282193761e-09).transl(-8.624857731530401e-08, 3.2493854663905866e-08, 0))
hIsland = hIsland.sub(rect(9.085654146556423e-09, -1.204992740873841e-09).transl(7.8468876497782e-08, 4e-08, 0))
hIsland = hIsland.sub(rect(5.506011922863793e-09, -1.9524328470081913e-09).transl(3.337172535839597e-08, 4e-08, 0))
hIsland = hIsland.sub(rect(4.573275466611091e-09, -2.2970185436458785e-09).transl(3.339368297320475e-08, 4e-08, 0))
hIsland = hIsland.add(rect(4.8036673701019234e-09, 2.163643576598726e-09).transl(-4.2023582340555644e-08, 4e-08, 0))
hIsland = hIsland.sub(rect(4.778232804425313e-09, -2.1221120914013344e-09).transl(6.006127916957259e-08, 4e-08, 0))
hIsland = hIsland.add(rect(7.854009150091353e-09, 4.1079557159916474e-11).transl(-3.292284032108885e-08, 4e-08, 0))
hIsland = hIsland.add(rect(6.0247675793798e-09, 1.9206443249347005e-09).transl(6.374964098243674e-08, 4e-08, 0))
hIsland = hIsland.add(rect(5.837385426143478e-09, 7.141285754851233e-10).transl(6.07564427906731e-08, 4e-08, 0))
hIsland = hIsland.add(rect(6.471051948991632e-09, 9.077696529117723e-10).transl(6.623068646942069e-08, 4e-08, 0))
hIsland = hIsland.add(rect(3.956529340667232e-09, 3.022993907430263e-09).transl(6.355312629553757e-09, 4e-08, 0))
hIsland = hIsland.add(rect(8.447868064103215e-09, 1.3927404900943827e-10).transl(-4.512646691049494e-08, 4e-08, 0))
hIsland = hIsland.add(rect(7.943662557076886e-09, 1.8710897304180197e-09).transl(7.507521490147881e-08, 4e-08, 0))
hIsland = hIsland.add(rect(3.7396139558014255e-09, 4.303576306706141e-10).transl(-5.754910570803553e-08, 4e-08, 0))
hIsland = hIsland.sub(rect(5.685655376051648e-09, -3.1167277172451097e-09).transl(5.363513707240314e-08, 4e-08, 0))
hIsland = hIsland.sub(rect(8.033995618602772e-09, -2.525277572783646e-09).transl(-3.729721819758178e-08, 4e-08, 0))
hIsland = hIsland.add(rect(3.2397981769585215e-09, 2.6701968075766758e-09).transl(-7.470806334204419e-08, 4e-08, 0))
hIsland = hIsland.add(rect(6.692774106582514e-09, 3.570576882240094e-09).transl(3.9792427883211396e-08, 4e-08, 0))
hIsland = hIsland.sub(rect(6.535798429008618e-09, -2.571335926334847e-09).transl(5.477978563607135e-08, 4e-08, 0))
hIsland = hIsland.add(rect(6.696488294250318e-09, 1.196368095613394e-09).transl(-1.2276073292326592e-08, 4e-08, 0))
hIsland = hIsland.sub(rect(6.878467654882188e-09, -7.165203388674135e-10).transl(-4.789087872953547e-09, 4e-08, 0))
hIsland = hIsland.sub(rect(3.814259801536212e-09, -1.7162081892511679e-09).transl(-4.759741008653223e-08, 4e-08, 0))
hIsland = hIsland.sub(rect(7.534448580177577e-09, -3.269889898450675e-09).transl(-4.991742495848912e-08, 4e-08, 0))
hIsland = hIsland.add(rect(8.496669541439335e-09, 1.178144715096481e-10).transl(4.0669990903243294e-08, 4e-08, 0))
hIsland = hIsland.add(rect(3.879168764153096e-09, 1.7633851219569913e-09).transl(4.2229736470989914e-08, 4e-08, 0))
hIsland = hIsland.sub(rect(3.621435586973107e-09, -1.5529946451098266e-09).transl(4.7546582752489076e-08, 4e-08, 0))
hIsland = hIsland.add(rect(3.880818165732737e-09, 1.3595958286120817e-09).transl(5.765421169755841e-08, 4e-08, 0))
hIsland = hIsland.add(rect(6.8723216552835105e-09, 1.147438035621346e-09).transl(5.158329254530546e-08, 4e-08, 0))
hIsland = hIsland.add(rect(9.366617744451e-09, 5.175889131397114e-10).transl(-5.409768159724024e-08, 4e-08, 0))
hIsland = hIsland.sub(rect(3.845450420892153e-09, -1.10661969657023e-09).transl(3.145571653603187e-08, 4e-08, 0))
hIsland = hIsland.add(rect(9.166089705019932e-09, 1.3172055505563864e-09).transl(3.6552509989160353e-09, 4e-08, 0))
hIsland = hIsland.add(rect(4.2388769643571435e-09, 2.2351854479079904e-10).transl(7.178679644195816e-08, 4e-08, 0))
hIsland = hIsland.add(rect(6.48719529006611e-09, 5.818294352270681e-12).transl(2.848052627968696e-08, 4e-08, 0))
hIsland = hIsland.add(rect(9.394401035945648e-09, 1.1443641859197656e-09).transl(2.2413828972192484e-09, 4e-08, 0))
hIsland = hIsland.add(rect(8.662303113991921e-09, 4.731681486212332e-09).transl(3.081523510896746e-08, 4e-08, 0))
hIsland = hIsland.add(rect(4.183937904673886e-09, 1.7054673862993168e-09).transl(3.2709368529159154e-08, 4e-08, 0))
hIsland = hIsland.sub(rect(2.7871516557511704e-09, -3.179760240063149e-10).transl(-8.460689141135677e-08, 3.664722295151289e-08, 0))
hIsland = hIsland.add(rect(3.6652071750136265e-09, 1.293262243601937e-09).transl(-2.945831625030057e-08, 4e-08, 0))
hIsland = hIsland.add(rect(8.908216657438168e-09, 1.0813506636939033e-09).transl(-2.2500102184982198e-08, 4e-08, 0))
hIsland = hIsland.add(rect(5.299428958653403e-09, 1.731922933143317e-09).transl(1.2225314245706225e-08, 4e-08, 0))
hIsland = hIsland.sub(rect(2.2529139377363115e-09, -8.843799701832252e-10).transl(-5.9270725819470035e-08, 4e-08, 0))
hIsland = hIsland.add(rect(4.922431556924148e-09, 1.3075877563234282e-09).transl(4.868080325918775e-08, 4e-08, 0))
hIsland = hIsland.sub(rect(2.915793945711995e-09, -2.6003640150487615e-10).transl(5.091966855815503e-08, 4e-08, 0))
hIsland = hIsland.sub(rect(6.238707893652926e-09, -3.831719137892748e-09).transl(2.993584202608403e-08, 4e-08, 0))
hIsland = hIsland.add(rect(4.003333706098063e-09, 2.2571510266938348e-10).transl(-6.699134285247478e-08, 4e-08, 0))
hIsland = hIsland.add(rect(6.920985403894252e-09, 2.594559715725e-09).transl(1.0060575362521466e-08, 4e-08, 0))
hIsland = hIsland.sub(rect(7.981493753474322e-09, -6.370043663510438e-09).transl(-5.953058422516788e-08, 4e-08, 0))
hIsland = hIsland.sub(rect(5.435866630274273e-09, -9.200861085312632e-11).transl(-1.3143591553241489e-08, 4e-08, 0))
hIsland = hIsland.sub(rect(2.7464140886055973e-09, -8.248650214040978e-10).transl(-2.523961260989767e-08, 4e-08, 0))
hIsland = hIsland.sub(rect(6.26134449249283e-09, -4.685635327363244e-09).transl(2.8747904512230942e-08, 4e-08, 0))
hIsland = hIsland.add(rect(6.421655043024656e-09, 3.4236591506213502e-09).transl(-5.425633463585818e-08, 4e-08, 0))
hIsland = hIsland.sub(rect(4.379574123804501e-09, -3.399640319577034e-09).transl(-4.759463251147245e-08, 4e-08, 0))
hIsland = hIsland.add(rect(8.510506710307735e-09, 1.1135676249288086e-10).transl(2.160505643939677e-08, 4e-08, 0))
hIsland = hIsland.sub(rect(4.876768973492563e-09, -1.1709411576727727e-09).transl(-8.7650270605231e-08, 2.695177252090812e-08, 0))
hIsland = hIsland.add(rect(4.252290875844267e-09, 9.393313546736206e-10).transl(3.560728954732699e-08, 4e-08, 0))
hIsland = hIsland.add(rect(3.5658121516878724e-09, 9.123943364298419e-10).transl(-2.736994991206565e-08, 4e-08, 0))
hIsland = hIsland.sub(rect(6.550907726990432e-09, -1.2896681096811525e-09).transl(8.382126655978693e-08, 3.798387052060371e-08, 0))
hIsland = hIsland.sub(rect(5.463704268046697e-09, -2.2893320338349646e-09).transl(-4.3025956839814536e-08, 4e-08, 0))
hIsland = hIsland.sub(rect(8.561418828168512e-09, -4.6137375008093666e-10).transl(-1.8003807882460664e-08, 4e-08, 0))
hIsland = hIsland.add(rect(8.729561338686346e-09, 5.599325089045463e-10).transl(1.4448566156331392e-08, 4e-08, 0))
hIsland = hIsland.add(rect(4.232099461507119e-09, 1.9494077092875424e-09).transl(-5.1642521133614277e-08, 4e-08, 0))
hIsland = hIsland.sub(rect(9.85101833564492e-09, -9.489639679672257e-10).transl(-6.550938735896184e-08, 4e-08, 0))
hIsland = hIsland.sub(rect(8.134534361510962e-09, -1.9060134690813763e-09).transl(-1.1024126388459144e-08, 4e-08, 0))
hIsland = hIsland.add(rect(9.885140660913273e-09, 2.5045403884955074e-09).transl(-5.7770365888546496e-08, 4e-08, 0))
hIsland = hIsland.sub(rect(9.95003215335046e-09, -3.3166936181122965e-09).transl(-2.3589709379540447e-08, 4e-08, 0))
hIsland = hIsland.sub(rect(2.475574120220385e-09, -2.8925681251326888e-09).transl(6.366677241391488e-08, 4e-08, 0))
hIsland = hIsland.sub(rect(5.075487160015267e-09, -8.375540817714994e-10).transl(-6.708040022177357e-08, 4e-08, 0))
hIsland = hIsland.add(rect(8.598715978284016e-09, 2.8927498884675876e-09).transl(6.197809548618344e-08, 4e-08, 0))
hIsland = hIsland.add(rect(6.978565403713992e-09, 7.474845995461434e-10).transl(7.53812422281053e-08, 4e-08, 0))
hIsland = hIsland.add(rect(4.0511405251975596e-09, 9.005314123852657e-10).transl(3.595348372152856e-08, 4e-08, 0))
hIsland = hIsland.add(rect(4.957740677657161e-09, 4.357057949542436e-09).transl(6.601615761553049e-08, 4e-08, 0))
hIsland = hIsland.sub(rect(5.686638670454474e-09, -4.876227875018701e-11).transl(3.338737742916729e-08, 4e-08, 0))
hIsland = hIsland.sub(rect(8.654789799937996e-09, -1.0877892794882491e-09).transl(8.148004151380481e-08, 3.9943060744390926e-08, 0))
hIsland = hIsland.add(rect(9.807014053184444e-09, 1.1691044042836292e-09).transl(1.5622072399804993e-08, 4e-08, 0))
hIsland = hIsland.sub(rect(2.107889051309593e-09, -2.39581120483705e-09).transl(7.557690484052973e-08, 4e-08, 0))
hIsland = hIsland.add(rect(9.977899860849061e-09, 1.544213975781526e-09).transl(9.366608326141144e-09, 4e-08, 0))
hIsland = hIsland.sub(rect(4.03533900976796e-09, -6.917249739704524e-10).transl(-7.310741311431653e-09, 4e-08, 0))
hIsland = hIsland.sub(rect(6.012300054971699e-09, -2.622871819928721e-09).transl(-3.082885721961474e-08, 4e-08, 0))
hIsland = hIsland.sub(rect(9.945315413215863e-09, -2.454108188673908e-09).transl(-4.9294680372904835e-08, 4e-08, 0))
hIsland = hIsland.sub(rect(3.1417717042279386e-09, -5.866333595880084e-10).transl(7.143420917164291e-08, 4e-08, 0))
hIsland = hIsland.add(rect(2.852889155360324e-09, 1.2987407510987664e-09).transl(-3.795174798699853e-08, 4e-08, 0))
hIsland = hIsland.sub(rect(2.105127268142515e-09, -1.3462871288741794e-09).transl(-6.527540992162945e-08, 4e-08, 0))
hIsland = hIsland.sub(rect(7.267557900444323e-09, -2.3906679859859975e-10).transl(8.95804030533007e-08, 1.2071133564786958e-08, 0))
hIsland = hIsland.add(rect(4.472721493628441e-09, 6.498683725906619e-10).transl(6.43730281553175e-08, 4e-08, 0))
hIsland = hIsland.add(rect(6.3812837774820655e-09, 1.412236597099296e-09).transl(-8.041391460286625e-08, 4e-08, 0))
hIsland = hIsland.add(rect(2.5358979834427195e-09, 3.996860739019223e-09).transl(-6.985540539970795e-08, 4e-08, 0))
hIsland = hIsland.sub(rect(8.168902363292916e-09, -4.407603701483486e-11).transl(-3.1653705058904956e-08, 4e-08, 0))
hIsland = hIsland.add(rect(9.014575997215431e-09, 2.3095438715270014e-09).transl(-7.496073176192576e-08, 4e-08, 0))
hIsland = hIsland.add(rect(3.993408035040404e-09, 7.166292588669512e-10).transl(2.0097927616692302e-08, 4e-08, 0))
hIsland = hIsland.add(rect(5.381635090031347e-09, 7.004744759150631e-11).transl(6.031225310453404e-08, 4e-08, 0))
hIsland = hIsland.add(rect(2.5515295178003126e-09, 1.4054489858854865e-11).transl(-5.010523543523862e-08, 4e-08, 0))
hIsland = hIsland.add(rect(4.743656564455058e-09, 3.840704300552826e-09).transl(-7.304569515540668e-08, 4e-08, 0))
hIsland = hIsland.add(rect(7.493833872231066e-09, 1.3455804766019196e-09).transl(3.148783207731076e-08, 4e-08, 0))
hIsland = hIsland.sub(rect(5.45568690132296e-09, -1.1209228169059634e-09).transl(-2.6484637245422524e-09, 4e-08, 0))
hIsland = hIsland.add(rect(2.8335134068287067e-09, 5.422741359291023e-10).transl(6.76433573473732e-08, 4e-08, 0))
hIsland = hIsland.sub(rect(5.169903492813876e-09, -3.862173122795021e-09).transl(3.534485114366234e-08, 4e-08, 0))
hIsland = hIsland.add(rect(4.298321269380423e-09, 1.0466720890192703e-09).transl(-6.932702205052202e-08, 4e-08, 0))
hIsland = hIsland.add(rect(2.9429171165044344e-09, 1.9182820017775697e-09).transl(2.1966137165117685e-08, 4e-08, 0))
hIsland = hIsland.sub(rect(2.0426011690385924e-09, -9.310610187976733e-10).transl(-3.919839599661948e-09, 4e-08, 0))
hIsland = hIsland.sub(rect(7.641520379598703e-09, -3.4719300189177617e-10).transl(-8.679725192722623e-08, 3.059633483812004e-08, 0))
hIsland = hIsland.sub(rect(6.0539132848383704e-09, -8.961951315674718e-10).transl(-5.982699382450489e-08, 4e-08, 0))
hIsland = hIsland.add(rect(2.535724014702529e-09, 2.63409336655112e-09).transl(8.998820827147402e-08, 2.0469167110197597e-09, 0))
hIsland = hIsland.sub(rect(2.5934067571817432e-09, -1.8130186624469976e-09).transl(-5.046088582714804e-08, 4e-08, 0))
hIsland = hIsland.add(rect(8.5095585574003e-09, 1.523797265374149e-09).transl(4.027637131832743e-08, 4e-08, 0))
hIsland = hIsland.add(rect(6.229797419097335e-09, 3.413328964984537e-10).transl(-1.0682346634266503e-08, 4e-08, 0))
hIsland = hIsland.add(rect(8.671316341110845e-09, 1.184224739790679e-09).transl(-8.4174416287266e-08, 3.742926332153622e-08, 0))
hIsland = hIsland.sub(rect(3.0646832793330926e-09, -3.2986370353775122e-09).transl(-7.960504742071133e-08, 4e-08, 0))
hIsland = hIsland.add(rect(5.718280244787338e-09, 9.691741780097229e-10).transl(-2.638289322248738e-09, 4e-08, 0))
hIsland = hIsland.sub(rect(5.148782323728082e-09, -2.9877581741236636e-09).transl(-7.742260811622666e-08, 4e-08, 0))
hIsland = hIsland.sub(rect(4.8618350528734306e-09, -2.981666372373618e-09).transl(7.27730057829697e-08, 4e-08, 0))
hIsland = hIsland.sub(rect(4.69649781472323e-09, -1.1318462750763999e-09).transl(3.8415536855030793e-08, 4e-08, 0))
hIsland = hIsland.add(rect(7.367470202052683e-09, 2.721966959147521e-09).transl(-8.627119006298335e-08, 3.24214698930019e-08, 0))
hIsland = hIsland.add(rect(3.5074149765641203e-09, 2.2871449760175367e-09).transl(4.7789125656334843e-08, 4e-08, 0))
hIsland = hIsland.add(rect(4.634808928094489e-09, 1.7075789009977248e-10).transl(7.612662243040535e-08, 4e-08, 0))
hIsland = hIsland.sub(rect(7.3091795067080506e-09, -6.366517744143088e-10).transl(-2.8648925454140156e-09, 4e-08, 0))
hIsland = hIsland.add(rect(2.52852671708356e-09, 1.429809494224273e-09).transl(-6.471470602864133e-08, 4e-08, 0))
hIsland = hIsland.add(rect(3.6515209066366323e-09, 2.1075589465306157e-09).transl(2.2118808183567703e-08, 4e-08, 0))
hIsland = hIsland.add(rect(2.6778610716903507e-09, 7.137899797418286e-10).transl(-6.611609039844041e-08, 4e-08, 0))
hIsland = hIsland.add(rect(7.061809407646306e-09, 1.1769367120595348e-11).transl(4.0489755495906634e-08, 4e-08, 0))
hIsland = hIsland.sub(rect(5.138562199149658e-09, -9.839366678918225e-10).transl(-2.027320081136841e-08, 4e-08, 0))
hIsland = hIsland.add(rect(7.381192323357817e-09, 3.673157065567e-09).transl(8.547618387464124e-08, 3.4701913113491785e-08, 0))
hIsland = hIsland.sub(rect(5.326366078329418e-09, -2.7502092867295916e-10).transl(-6.263724226536809e-08, 4e-08, 0))
hIsland = hIsland.add(rect(5.628848885107397e-09, 1.4322202766654255e-09).transl(-5.790070841613554e-08, 4e-08, 0))
hIsland = hIsland.add(rect(7.9032892703466e-09, 1.0010040810141966e-09).transl(-2.2064067519466867e-08, 4e-08, 0))
hIsland = hIsland.sub(rect(9.888219776317246e-09, -2.321539575764852e-09).transl(3.084234984401079e-08, 4e-08, 0))
hIsland = hIsland.add(rect(7.117307677650217e-09, 6.740578505195784e-10).transl(-4.721307127140833e-08, 4e-08, 0))
hIsland = hIsland.sub(rect(9.05704746120398e-09, -9.76459581242104e-10).transl(3.1913676564841e-08, 4e-08, 0))
hIsland = hIsland.add(rect(7.022532543610703e-09, 6.845943083649284e-10).transl(-1.5078561930520612e-08, 4e-08, 0))
hIsland = hIsland.add(rect(8.833384408233938e-09, 1.2128677583091267e-09).transl(-3.261550783336674e-08, 4e-08, 0))
hIsland = hIsland.add(rect(4.9230635238372906e-09, 1.0362469032266975e-10).transl(3.259251125006655e-08, 4e-08, 0))
hIsland = hIsland.add(rect(6.134269377100721e-09, 4.8499267384729456e-09).transl(-5.314089944328471e-08, 4e-08, 0))
hIsland = hIsland.add(rect(9.514737669545348e-09, 8.434533821811544e-10).transl(1.0207653189716262e-08, 4e-08, 0))
hIsland = hIsland.sub(rect(7.068547052038493e-09, -2.273463628565671e-09).transl(8.884364309205295e-08, 1.9614689906753036e-08, 0))
hIsland = hIsland.sub(rect(9.476799467216993e-09, -3.0540376259747335e-09).transl(6.727385148390652e-08, 4e-08, 0))
hIsland = hIsland.sub(rect(7.117805176841132e-09, -2.1741469210641206e-09).transl(-3.2807271238469124e-08, 4e-08, 0))
hIsland = hIsland.add(rect(3.187455255972718e-09, 1.3337683654657419e-09).transl(4.117627932886216e-09, 4e-08, 0))
hIsland = hIsland.add(rect(5.785257526838968e-09, 3.0049922474910453e-09).transl(1.7992459840019002e-08, 4e-08, 0))
vIsland = hIsland.rotz(pi / 2)
hIslands = hIslands.add(hIsland.transl(-a/2, a, 0))
hIsland = rect(islandLength-2*ellipseConstant, islandWidth)
hIsland = hIsland.add(ellipse(ellipseConstant*2, islandWidth).transl(islandLength/2-ellipseConstant, 0, 0))
hIsland = hIsland.add(ellipse(ellipseConstant*2, islandWidth).transl(-islandLength/2+ellipseConstant, 0, 0))
hIsland = hIsland.sub(rect(8.583299388049245e-09, -1.5545597809536372e-09).transl(-4.7306431920429684e-08, -4e-08, 0))
hIsland = hIsland.sub(rect(7.425549316388138e-09, -1.1831552100349647e-11).transl(-1.5478898774080544e-10, -4e-08, 0))
hIsland = hIsland.sub(rect(2.2038948209603086e-09, -3.562089832182236e-11).transl(-1.1139193467266735e-08, -4e-08, 0))
hIsland = hIsland.add(rect(7.692095604522401e-09, 1.6137312912919814e-09).transl(-5.0329175422101253e-08, -4e-08, 0))
hIsland = hIsland.sub(rect(6.434057822375292e-09, -2.6065991072565836e-09).transl(-3.84273394162193e-08, -4e-08, 0))
hIsland = hIsland.sub(rect(5.288188601697308e-09, -1.5171408871938953e-09).transl(-9.902793256931202e-09, -4e-08, 0))
hIsland = hIsland.sub(rect(7.607470526616953e-09, -3.112213123719327e-10).transl(6.6042008987501e-08, -4e-08, 0))
hIsland = hIsland.sub(rect(4.004557351253942e-09, -2.04455814609982e-09).transl(1.3375896338878698e-08, -4e-08, 0))
hIsland = hIsland.add(rect(7.3663478790090856e-09, 4.147807065723279e-10).transl(-2.0414305919516622e-08, -4e-08, 0))
hIsland = hIsland.sub(rect(8.910445438317421e-09, -4.995750102331919e-10).transl(-8.680901135654206e-08, -3.055224614306579e-08, 0))
hIsland = hIsland.add(rect(6.879806740212758e-09, 9.922641725326085e-10).transl(-5.7707166339574974e-08, -4e-08, 0))
hIsland = hIsland.sub(rect(2.603941632940001e-09, -6.993037571325383e-10).transl(2.5466111695015564e-08, -4e-08, 0))
hIsland = hIsland.add(rect(9.749497643640709e-09, 3.6271674389605886e-09).transl(7.102551645988056e-08, -4e-08, 0))
hIsland = hIsland.add(rect(7.838132569635159e-09, 2.1419512644755267e-09).transl(8.618573447052097e-08, -3.2692554519528754e-08, 0))
hIsland = hIsland.sub(rect(6.363259421622012e-09, -1.8349711115862608e-09).transl(-5.1834492911347945e-09, -4e-08, 0))
hIsland = hIsland.add(rect(6.2104534548048776e-09, 2.141701560414566e-09).transl(-2.1842395670320138e-09, -4e-08, 0))
hIsland = hIsland.add(rect(9.302817768745737e-09, 2.3224746568081548e-10).transl(3.5139259781194553e-09, -4e-08, 0))
hIsland = hIsland.add(rect(4.421817505009715e-09, 7.64132991415718e-10).transl(8.563263489672785e-08, -3.429392025118961e-08, 0))
hIsland = hIsland.sub(rect(9.243243452172695e-09, -1.15960281673657e-09).transl(1.8182004047776627e-08, -4e-08, 0))
hIsland = hIsland.sub(rect(3.302436062812312e-09, -2.3916300664978245e-09).transl(8.759515021705976e-08, -2.7218001891238114e-08, 0))
hIsland = hIsland.add(rect(7.79668609005126e-09, 1.4545539145597659e-09).transl(-2.3288717702689093e-08, -4e-08, 0))
hIsland = hIsland.sub(rect(3.735040034396923e-09, -1.3475554045386499e-09).transl(-3.442234821933342e-08, -4e-08, 0))
hIsland = hIsland.add(rect(6.7503797400638506e-09, 3.374869565792156e-10).transl(-3.8690723491266013e-08, -4e-08, 0))
hIsland = hIsland.add(rect(5.265928860466002e-09, 4.416129389744851e-10).transl(-8.69396508569468e-08, -3.005198711946629e-08, 0))
hIsland = hIsland.sub(rect(2.4018785809219923e-09, -9.569833811047083e-10).transl(-6.494459521952866e-08, -4e-08, 0))
hIsland = hIsland.sub(rect(4.4192109775812e-09, -6.703665018407521e-10).transl(-7.054621946359e-08, -4e-08, 0))
hIsland = hIsland.add(rect(3.161535405771571e-09, 2.9101585094983638e-09).transl(2.929458159566143e-08, -4e-08, 0))
hIsland = hIsland.add(rect(7.629986515575932e-09, 2.8516907689469594e-09).transl(-1.762977678456284e-08, -4e-08, 0))
hIsland = hIsland.add(rect(8.841525186076805e-09, 9.139911617399722e-11).transl(9.45021811293238e-09, -4e-08, 0))
hIsland = hIsland.sub(rect(9.203119258521078e-09, -1.7723352214221312e-09).transl(-6.51639597992058e-08, -4e-08, 0))
hIsland = hIsland.add(rect(2.062064820578722e-09, 4.5767297078262024e-11).transl(-3.918845756073438e-08, -4e-08, 0))
hIsland = hIsland.sub(rect(4.484058473350308e-09, -6.749905650829937e-10).transl(-2.6465697986255855e-08, -4e-08, 0))
hIsland = hIsland.sub(rect(9.255398426405404e-09, -8.866353543890453e-10).transl(-6.691552573417845e-08, -4e-08, 0))
hIsland = hIsland.sub(rect(6.5891790087528765e-09, -1.3642795355087474e-09).transl(1.5990960107992692e-08, -4e-08, 0))
hIsland = hIsland.sub(rect(9.418917781785614e-09, -4.0072741454748915e-09).transl(1.537991093321687e-09, -4e-08, 0))
hIsland = hIsland.add(rect(9.533993668707982e-09, 3.029200544239541e-10).transl(-8.360759944059785e-08, -3.828429717934523e-08, 0))
hIsland = hIsland.sub(rect(3.2155204475192872e-09, -8.359283003967709e-10).transl(5.6527266794846426e-08, -4e-08, 0))
hIsland = hIsland.sub(rect(4.861355893839753e-09, -1.7847434209767805e-09).transl(-8.694178498016344e-08, -3.0043652602814505e-08, 0))
hIsland = hIsland.add(rect(2.0588672253379015e-09, 2.1388431298544693e-09).transl(7.556132954556362e-09, -4e-08, 0))
hIsland = hIsland.add(rect(3.6754243651378406e-09, 2.166815396130165e-10).transl(5.924801987115133e-08, -4e-08, 0))
hIsland = hIsland.sub(rect(9.890761598549727e-09, -1.6866772136269324e-09).transl(-6.758619334632878e-08, -4e-08, 0))
hIsland = hIsland.add(rect(4.294196427854912e-09, 2.0061154736407453e-09).transl(2.1087458906276803e-08, -4e-08, 0))
hIsland = hIsland.sub(rect(5.979858830552624e-09, -3.6929098776063917e-09).transl(-2.937528032120615e-08, -4e-08, 0))
hIsland = hIsland.sub(rect(2.7437930901470955e-09, -2.3605112394107996e-10).transl(7.474213365017765e-08, -4e-08, 0))
hIsland = hIsland.sub(rect(8.560710588972008e-09, -2.9924557118886456e-09).transl(-4.82637697017177e-08, -4e-08, 0))
hIsland = hIsland.add(rect(2.7952910729767453e-09, 4.129270687465645e-09).transl(-7.18534036743542e-08, -4e-08, 0))
hIsland = hIsland.add(rect(5.345321135072222e-09, 1.508874353315587e-09).transl(6.45923212400454e-08, -4e-08, 0))
hIsland = hIsland.sub(rect(8.73942160897071e-09, -2.062201593023657e-09).transl(-2.3007903319644898e-08, -4e-08, 0))
hIsland = hIsland.add(rect(2.0540555228117504e-09, 1.701789682995303e-09).transl(1.6294992231591366e-08, -4e-08, 0))
hIsland = hIsland.add(rect(8.872505875736606e-09, 1.2783661937155942e-09).transl(-6.005631437692648e-09, -4e-08, 0))
hIsland = hIsland.add(rect(9.613192216477739e-09, 2.790747289772614e-09).transl(-1.812986568986833e-08, -4e-08, 0))
hIsland = hIsland.sub(rect(7.6940569059277e-09, -4.010739551772047e-09).transl(4.301786742152432e-08, -4e-08, 0))
hIsland = hIsland.add(rect(9.260553223090374e-09, 1.7442649540030104e-09).transl(4.794992552567166e-08, -4e-08, 0))
hIsland = hIsland.add(rect(4.748700004619037e-09, 3.0836406422173204e-09).transl(7.374265103197881e-09, -4e-08, 0))
hIsland = hIsland.add(rect(5.406700506724907e-09, 3.202958802861357e-10).transl(-7.059552746218764e-08, -4e-08, 0))
hIsland = hIsland.sub(rect(5.5181993383080204e-09, -1.5896872125923016e-09).transl(8.125229148874208e-08, -3.9984280616128383e-08, 0))
hIsland = hIsland.sub(rect(8.18505093190078e-09, -2.2134261878142423e-09).transl(8.306202892262985e-08, -3.8935980813647824e-08, 0))
hIsland = hIsland.sub(rect(8.668518729785676e-09, -1.961624232139366e-09).transl(-5.7546313200216085e-08, -4e-08, 0))
hIsland = hIsland.add(rect(2.446222361627292e-09, 5.918903489346822e-09).transl(-6.764744550169503e-08, -4e-08, 0))
hIsland = hIsland.add(rect(5.279611802820394e-09, 1.140953053154207e-09).transl(6.678689666009836e-08, -4e-08, 0))
hIsland = hIsland.add(rect(7.964234948186652e-09, 9.532393951568913e-10).transl(8.940508785731307e-08, -1.4301513766617982e-08, 0))
hIsland = hIsland.sub(rect(9.58863866639922e-09, -5.938877086882638e-10).transl(-4.7860479201009174e-08, -4e-08, 0))
hIsland = hIsland.sub(rect(4.245894281729042e-09, -2.1521822218934382e-09).transl(8.831951513902672e-08, -2.327493141104429e-08, 0))
hIsland = hIsland.sub(rect(2.9110667986780047e-09, -6.1429096265755166e-09).transl(5.88925985885358e-08, -4e-08, 0))
hIsland = hIsland.add(rect(6.179873607111403e-09, 2.277969144159185e-09).transl(-5.3886038052902656e-08, -4e-08, 0))
hIsland = hIsland.sub(rect(6.76356071623825e-09, -1.6669096806688392e-09).transl(-6.409163098229979e-08, -4e-08, 0))
hIsland = hIsland.sub(rect(3.093868044546761e-09, -1.6888142392141033e-10).transl(-1.744763046506678e-08, -4e-08, 0))
hIsland = hIsland.add(rect(2.2394082461424834e-09, 1.5785408124490288e-09).transl(-8.323699213828397e-08, -3.874471463392538e-08, 0))
hIsland = hIsland.sub(rect(2.8214874228937756e-09, -2.591787638408018e-09).transl(5.8590014649408086e-08, -4e-08, 0))
hIsland = hIsland.add(rect(9.62127112087083e-09, 2.637453066510073e-09).transl(-5.380257672360121e-09, -4e-08, 0))
hIsland = hIsland.add(rect(4.291121023147507e-09, 4.749925771827292e-10).transl(-6.043785432492425e-08, -4e-08, 0))
hIsland = hIsland.sub(rect(5.933861028776436e-09, -1.716832022038502e-10).transl(6.525804414554526e-09, -4e-08, 0))
hIsland = hIsland.sub(rect(2.1773955512291993e-09, -3.0008266229296873e-09).transl(-6.517264739371636e-08, -4e-08, 0))
hIsland = hIsland.add(rect(9.71767320495133e-09, 2.509102132274481e-09).transl(-1.942608369327152e-08, -4e-08, 0))
hIsland = hIsland.add(rect(7.796063758371045e-09, 1.4325840302289162e-10).transl(7.214497512827322e-08, -4e-08, 0))
hIsland = hIsland.add(rect(3.0154468833125297e-09, 3.2487755029797935e-09).transl(2.0678179012400505e-08, -4e-08, 0))
hIsland = hIsland.add(rect(8.567709097099059e-09, 8.732205090633357e-10).transl(-7.81810837634675e-09, -4e-08, 0))
hIsland = hIsland.add(rect(3.7224629261401135e-09, 3.02246192967128e-11).transl(4.73561353417382e-08, -4e-08, 0))
hIsland = hIsland.sub(rect(9.644710799543352e-09, -1.7568261942838602e-09).transl(-6.452635498294589e-08, -4e-08, 0))
hIsland = hIsland.add(rect(5.517224531404286e-09, 1.937335376074427e-09).transl(-7.583167561434633e-08, -4e-08, 0))
hIsland = hIsland.add(rect(3.0278257031868173e-09, 5.131224823370889e-10).transl(4.6953614060854964e-08, -4e-08, 0))
hIsland = hIsland.add(rect(3.4122579954655346e-09, 5.933749576834395e-10).transl(4.375808361991554e-08, -4e-08, 0))
hIsland = hIsland.add(rect(4.3659015474220164e-09, 1.5250611391552784e-09).transl(6.927064858822995e-08, -4e-08, 0))
hIsland = hIsland.add(rect(7.688052406230712e-09, 2.242472635686213e-09).transl(-3.0715470656527295e-08, -4e-08, 0))
hIsland = hIsland.add(rect(7.918690057802245e-09, 2.5511897977959645e-09).transl(4.7259539733908054e-08, -4e-08, 0))
hIsland = hIsland.add(rect(8.317658447458193e-09, 4.658715697200036e-10).transl(2.5410475504714087e-08, -4e-08, 0))
hIsland = hIsland.add(rect(2.83744445871866e-09, 1.1245482380619496e-09).transl(5.515984885135036e-08, -4e-08, 0))
hIsland = hIsland.add(rect(3.2683759914270855e-09, 9.283551566751887e-10).transl(-4.0449905311608745e-08, -4e-08, 0))
hIsland = hIsland.add(rect(5.252591934782e-09, 5.766675973075317e-10).transl(-1.0087685249068e-08, -4e-08, 0))
hIsland = hIsland.add(rect(5.117582241614736e-09, 5.836775685913643e-11).transl(5.941762767758528e-08, -4e-08, 0))
hIsland = hIsland.add(rect(6.046869752962271e-09, 2.319284204160128e-09).transl(7.70484169963923e-08, -4e-08, 0))
hIsland = hIsland.add(rect(8.93817404111819e-09, 6.201121182033971e-10).transl(3.257644672990488e-08, -4e-08, 0))
hIsland = hIsland.add(rect(7.798018267350767e-09, 1.455064179192255e-09).transl(-8.903422300589983e-08, -1.8026734983143705e-08, 0))
hIsland = hIsland.add(rect(5.186731247937764e-09, 2.0630287178664306e-10).transl(7.025540338531992e-08, -4e-08, 0))
hIsland = hIsland.sub(rect(8.564270463766657e-09, -1.831353043180613e-09).transl(-4.0313914107281486e-08, -4e-08, 0))
hIsland = hIsland.add(rect(6.54251416258024e-09, 4.491523638965222e-09).transl(-7.198393845653962e-08, -4e-08, 0))
hIsland = hIsland.sub(rect(6.0856454655693525e-09, -1.6385673875982532e-10).transl(-8.530971158233167e-08, -3.5115720112994266e-08, 0))
hIsland = hIsland.sub(rect(8.086191054275823e-09, -5.5571086834596036e-11).transl(8.681100656921458e-08, -3.054475046208458e-08, 0))
hIsland = hIsland.add(rect(9.953868620800996e-09, 1.963314497680406e-10).transl(3.952949075718799e-08, -4e-08, 0))
hIsland = hIsland.sub(rect(7.165212357277711e-09, -3.580047057022698e-10).transl(-5.276914447398951e-08, -4e-08, 0))
hIsland = hIsland.sub(rect(5.5381348581704216e-09, -9.651981596642338e-10).transl(-6.49119159151042e-08, -4e-08, 0))
hIsland = hIsland.add(rect(3.8680284739851e-09, 1.821556549445428e-09).transl(4.577684754802256e-08, -4e-08, 0))
hIsland = hIsland.add(rect(7.062296193475261e-09, 2.742950277311345e-09).transl(2.095097755047121e-08, -4e-08, 0))
hIsland = hIsland.add(rect(4.9407864277396465e-09, 2.204614343882508e-10).transl(4.517910422074596e-08, -4e-08, 0))
hIsland = hIsland.add(rect(6.546329936511721e-09, 9.963853200466798e-11).transl(-2.0875315065933916e-08, -4e-08, 0))
hIsland = hIsland.add(rect(3.8419194930040684e-09, 1.5459267911308227e-09).transl(6.015446901867994e-08, -4e-08, 0))
hIsland = hIsland.add(rect(5.050499052639762e-09, 2.5390674295805826e-10).transl(4.2891262061757074e-08, -4e-08, 0))
hIsland = hIsland.add(rect(4.951334539184704e-09, 2.206775702735436e-09).transl(-5.25430928727196e-08, -4e-08, 0))
hIsland = hIsland.sub(rect(4.329797022982322e-09, -2.4957331437546484e-09).transl(-7.944137127046641e-08, -4e-08, 0))
hIsland = hIsland.sub(rect(8.895874265910802e-09, -9.344300448152597e-10).transl(5.6101574291400984e-08, -4e-08, 0))
hIsland = hIsland.sub(rect(3.347601891199471e-09, -1.3549645629770957e-09).transl(-5.7826484265809374e-08, -4e-08, 0))
hIsland = hIsland.sub(rect(4.453353354294206e-09, -2.2365636549182467e-09).transl(-8.574673639101937e-09, -4e-08, 0))
hIsland = hIsland.add(rect(7.132963931174015e-09, 2.08704704502471e-09).transl(4.37897930439088e-08, -4e-08, 0))
hIsland = hIsland.sub(rect(4.835872510953855e-09, -4.4802084348655384e-09).transl(2.510131991919433e-08, -4e-08, 0))
hIsland = hIsland.sub(rect(7.247501744451547e-09, -8.307785059961944e-10).transl(-7.249163284606963e-08, -4e-08, 0))
hIsland = hIsland.sub(rect(8.150441856899981e-09, -2.479204754630134e-09).transl(-5.609504428092494e-08, -4e-08, 0))
hIsland = hIsland.sub(rect(5.745428823217709e-09, -1.0859972787539203e-09).transl(8.721451089685601e-08, -2.893324946663322e-08, 0))
hIsland = hIsland.add(rect(3.012566420633436e-09, 6.931905073500556e-10).transl(3.8312888835517956e-08, -4e-08, 0))
hIsland = hIsland.add(rect(3.746221076260839e-09, 8.34268085310994e-10).transl(5.3921382771074824e-08, -4e-08, 0))
hIsland = hIsland.sub(rect(2.3466784383344364e-09, -1.773598634530024e-09).transl(6.101563350873774e-08, -4e-08, 0))
hIsland = hIsland.add(rect(4.6717574691209474e-09, 5.102037922582104e-10).transl(-2.759802360486895e-08, -4e-08, 0))
hIsland = hIsland.sub(rect(9.38542157629703e-09, -3.916837106319955e-09).transl(-8.876295585609707e-08, -2.0238829018138637e-08, 0))
hIsland = hIsland.sub(rect(9.129539032920043e-09, -6.850593815744009e-11).transl(-3.658732204141326e-08, -4e-08, 0))
hIsland = hIsland.add(rect(8.343245634602098e-09, 4.0680219899929614e-10).transl(-6.34626233327622e-08, -4e-08, 0))
hIsland = hIsland.add(rect(9.799718157660401e-09, 6.015768823471952e-10).transl(-6.923809048720145e-08, -4e-08, 0))
hIsland = hIsland.sub(rect(5.5510343667272635e-09, -1.736304030643192e-09).transl(6.011200815122757e-08, -4e-08, 0))
hIsland = hIsland.add(rect(5.562240769986527e-09, 1.8366364273816975e-09).transl(-7.507565091118855e-09, -4e-08, 0))
hIsland = hIsland.sub(rect(3.0258086139224257e-09, -2.6194011376659304e-09).transl(-3.4077875729691374e-08, -4e-08, 0))
hIsland = hIsland.sub(rect(8.378340590161092e-09, -1.2803904029928256e-09).transl(-1.9527336462951457e-08, -4e-08, 0))
hIsland = hIsland.sub(rect(2.3179015109698196e-09, -5.433683206229174e-09).transl(4.000179765982582e-08, -4e-08, 0))
hIsland = hIsland.add(rect(7.761643566927632e-09, 1.3756423848210378e-09).transl(-5.8239743810644106e-08, -4e-08, 0))
hIsland = hIsland.sub(rect(9.620349546167628e-09, -1.177309992420465e-10).transl(4.420434427298058e-08, -4e-08, 0))
hIsland = hIsland.add(rect(7.379776758486945e-09, 2.6842939438243623e-09).transl(1.5426295402370766e-08, -4e-08, 0))
hIsland = hIsland.add(rect(2.0230267869419027e-09, 1.3991093581282747e-09).transl(-8.807694720127112e-08, -2.4712397372767217e-08, 0))
hIsland = hIsland.add(rect(4.426361170827199e-09, 1.1482750873877203e-09).transl(-4.6149057460381234e-08, -4e-08, 0))
hIsland = hIsland.sub(rect(3.3533762463429757e-09, -1.352486612182679e-09).transl(6.743280220657634e-08, -4e-08, 0))
hIsland = hIsland.add(rect(8.050298556696945e-09, 6.926258757823082e-10).transl(3.819002190094842e-08, -4e-08, 0))
hIsland = hIsland.add(rect(5.071245239388023e-09, 1.2351401443900828e-09).transl(7.977331932380699e-08, -4e-08, 0))
hIsland = hIsland.add(rect(9.945304394103822e-09, 1.4030457772256003e-09).transl(-1.686413720422374e-08, -4e-08, 0))
hIsland = hIsland.sub(rect(4.05255293796473e-09, -1.4991839274494617e-09).transl(-3.6784192498477714e-08, -4e-08, 0))
hIsland = hIsland.sub(rect(7.387000015057123e-09, -4.0667398104116174e-10).transl(3.742171120134726e-08, -4e-08, 0))
hIsland = hIsland.add(rect(3.213525701256104e-09, 1.1541099996805427e-09).transl(2.797710910765455e-08, -4e-08, 0))
hIsland = hIsland.sub(rect(7.503514229465511e-09, -9.877922783270553e-10).transl(-3.2041179371206045e-08, -4e-08, 0))
hIsland = hIsland.add(rect(5.3550150177814504e-09, 3.55882871267066e-09).transl(6.687718715736937e-08, -4e-08, 0))
hIsland = hIsland.sub(rect(4.299139166264132e-09, -4.1958956013612627e-10).transl(-1.600672924488501e-08, -4e-08, 0))
hIsland = hIsland.add(rect(3.014763753698729e-09, 2.119189493981438e-09).transl(3.0717657839542023e-09, -4e-08, 0))
hIsland = hIsland.add(rect(8.497035610674403e-09, 3.746947439476461e-09).transl(4.363147774890173e-09, -4e-08, 0))
hIsland = hIsland.sub(rect(5.108472048477502e-09, -2.299698800179737e-09).transl(-4.101439774778148e-08, -4e-08, 0))
hIsland = hIsland.add(rect(4.418704159045379e-09, 2.6060531866815467e-09).transl(4.8220231218485804e-08, -4e-08, 0))
hIsland = hIsland.sub(rect(3.5581445667878093e-09, -2.354693888259466e-09).transl(4.818902461890862e-08, -4e-08, 0))
hIsland = hIsland.sub(rect(6.077319245842327e-09, -3.2694696612525206e-10).transl(-5.011942103489592e-09, -4e-08, 0))
hIsland = hIsland.sub(rect(2.0543569776808094e-09, -1.9609038708547254e-10).transl(-2.9446521105830436e-08, -4e-08, 0))
hIsland = hIsland.add(rect(4.509831273998442e-09, 1.781564514228729e-09).transl(6.738521638532628e-08, -4e-08, 0))
hIsland = hIsland.sub(rect(3.794119571355007e-09, -1.0342072994315317e-10).transl(-6.00825191755408e-08, -4e-08, 0))
hIsland = hIsland.add(rect(6.569767115588323e-09, 7.501266185458785e-10).transl(-3.194574292503948e-08, -4e-08, 0))
hIsland = hIsland.sub(rect(3.484861278376813e-09, -3.2889267059887653e-10).transl(3.749466598458896e-08, -4e-08, 0))
hIsland = hIsland.add(rect(8.68644637293026e-09, 7.453057064184493e-10).transl(-8.892074492672168e-08, -1.8992812054681476e-08, 0))
hIsland = hIsland.sub(rect(5.6292142330396e-09, -1.3624441635243652e-09).transl(-3.255120531943833e-08, -4e-08, 0))
hIsland = hIsland.sub(rect(6.03478100985402e-09, -9.991778366719754e-10).transl(2.0861069744315766e-08, -4e-08, 0))
hIsland = hIsland.add(rect(3.630150524238613e-09, 3.3258300618047817e-09).transl(5.280047457890485e-08, -4e-08, 0))
hIsland = hIsland.add(rect(5.622596775448157e-09, 3.838144502321076e-09).transl(-1.524756550086554e-08, -4e-08, 0))
hIsland = hIsland.sub(rect(8.174180225488246e-09, -8.474129329054322e-10).transl(1.495869396065292e-08, -4e-08, 0))
hIsland = hIsland.add(rect(9.007715113589873e-09, 2.1126101706695232e-09).transl(2.3538159156446353e-08, -4e-08, 0))
hIsland = hIsland.sub(rect(3.798216095080749e-09, -1.926430735296734e-10).transl(5.74241055882434e-08, -4e-08, 0))
hIsland = hIsland.sub(rect(2.3803396996050746e-09, -1.6636360265336924e-09).transl(-7.762011224447682e-08, -4e-08, 0))
hIsland = hIsland.sub(rect(6.801824702278684e-09, -1.3622301981495563e-09).transl(-5.677167373566674e-08, -4e-08, 0))
hIsland = hIsland.add(rect(4.1688595010019455e-09, 2.8610730685254287e-09).transl(5.848287233518946e-09, -4e-08, 0))
hIsland = hIsland.add(rect(4.102261935329205e-09, 7.862961890863384e-10).transl(1.2440701246162544e-08, -4e-08, 0))
hIsland = hIsland.add(rect(9.319151128207771e-09, 7.030980480331668e-10).transl(-1.3701414699325586e-08, -4e-08, 0))
hIsland = hIsland.sub(rect(8.89675456603825e-09, -1.5665101811410768e-09).transl(-4.495290318871863e-08, -4e-08, 0))
hIsland = hIsland.sub(rect(8.442017243257193e-09, -5.357281064152266e-10).transl(-3.672075061980041e-08, -4e-08, 0))
hIsland = hIsland.add(rect(9.560764331615261e-09, 1.374498972879384e-09).transl(-5.5211605744411387e-08, -4e-08, 0))
hIsland = hIsland.sub(rect(4.521649351142309e-09, -2.4783549994108106e-09).transl(4.678452218866983e-08, -4e-08, 0))
hIsland = hIsland.add(rect(3.410341173831709e-09, 6.844689114559862e-10).transl(-1.4867050146564182e-08, -4e-08, 0))
hIsland = hIsland.add(rect(6.961878309750413e-09, 2.6881583731810293e-09).transl(4.6194736363856283e-08, -4e-08, 0))
hIsland = hIsland.add(rect(7.288883053150657e-09, 2.003135445033835e-09).transl(2.5745611502480885e-08, -4e-08, 0))
hIsland = hIsland.sub(rect(5.183714422546734e-09, -1.7653535301227895e-09).transl(-2.9101408023443584e-09, -4e-08, 0))
hIsland = hIsland.add(rect(5.92310808905941e-09, 1.5125080748718368e-09).transl(2.0858385885493677e-08, -4e-08, 0))
hIsland = hIsland.add(rect(2.242714536534283e-09, 1.997222338087757e-09).transl(7.19472869438138e-08, -4e-08, 0))
hIsland = hIsland.sub(rect(7.983618290766214e-09, -1.3955698349795684e-10).transl(7.984250936316403e-08, -4e-08, 0))
hIsland = hIsland.sub(rect(4.439250553197404e-09, -1.8533941599218528e-09).transl(4.947496215135934e-08, -4e-08, 0))
hIsland = hIsland.sub(rect(3.242839845551263e-09, -1.6838033479907884e-09).transl(-3.116501160507034e-08, -4e-08, 0))
hIsland = hIsland.add(rect(4.141962424897846e-09, 3.675293746330282e-09).transl(4.181644409674395e-08, -4e-08, 0))
hIsland = hIsland.sub(rect(6.413607018704382e-09, -2.521062108931292e-09).transl(7.927784047449772e-08, -4e-08, 0))
hIsland = hIsland.sub(rect(2.1708201884422787e-09, -1.0924735825652468e-09).transl(-5.460649548528413e-08, -4e-08, 0))
hIsland = hIsland.add(rect(2.4325280855971096e-09, 1.4945961537584039e-09).transl(3.5413093573763437e-08, -4e-08, 0))
hIsland = hIsland.sub(rect(6.5439468899159456e-09, -4.5358522602151885e-09).transl(5.3989559280931325e-08, -4e-08, 0))
hIsland = hIsland.add(rect(6.451343713347885e-09, 5.968805532197532e-10).transl(9.141980122843637e-09, -4e-08, 0))
hIsland = hIsland.add(rect(3.25543122820259e-09, 1.589844249473329e-09).transl(-6.30477957157719e-08, -4e-08, 0))
hIsland = hIsland.add(rect(3.7165142593686817e-09, 7.238932909871389e-10).transl(4.6606604796095385e-09, -4e-08, 0))
hIsland = hIsland.sub(rect(7.2308567473085456e-09, -2.6118393317574557e-09).transl(4.882339779341589e-08, -4e-08, 0))
hIsland = hIsland.add(rect(5.169409436868187e-09, 1.8271726940746013e-09).transl(2.2819001934236582e-08, -4e-08, 0))
hIsland = hIsland.sub(rect(5.694564766366894e-09, -2.273182738899482e-10).transl(-6.564289569900406e-08, -4e-08, 0))
hIsland = hIsland.sub(rect(9.830765688228037e-09, -2.352131839731459e-09).transl(2.2330071807169864e-08, -4e-08, 0))
hIsland = hIsland.add(rect(7.994860175649723e-09, 2.064431538607098e-09).transl(5.4604017045056024e-08, -4e-08, 0))
hIsland = hIsland.sub(rect(6.413155020886094e-09, -4.493246681705722e-09).transl(7.119665582411186e-08, -4e-08, 0))
hIsland = hIsland.add(rect(7.672113619942438e-09, 2.236525263958778e-10).transl(3.709367678530732e-08, -4e-08, 0))
hIsland = hIsland.sub(rect(3.4775214041974112e-09, -9.876869172200357e-10).transl(-7.60667287103385e-08, -4e-08, 0))
hIsland = hIsland.add(rect(6.047627152814879e-09, 7.310824603194191e-10).transl(7.317282099746743e-08, -4e-08, 0))
hIsland = hIsland.add(rect(6.924458401817366e-09, 1.0970626300110626e-09).transl(1.2835966375382707e-08, -4e-08, 0))
hIsland = hIsland.add(rect(8.548415710422315e-09, 7.677296461545507e-10).transl(-4.706033522518628e-08, 4e-08, 0))
hIsland = hIsland.add(rect(4.806913016851204e-09, 3.577209648982855e-10).transl(6.680833386983374e-08, 4e-08, 0))
hIsland = hIsland.sub(rect(7.35082019820816e-09, -1.1387939346464357e-09).transl(-8.739776920030685e-08, 2.8133210201452574e-08, 0))
hIsland = hIsland.sub(rect(5.790599904165126e-09, -1.087590271846354e-09).transl(-6.185906329501365e-09, 4e-08, 0))
hIsland = hIsland.add(rect(4.75519519521572e-09, 2.8086716630092772e-09).transl(5.802641204410014e-08, 4e-08, 0))
hIsland = hIsland.add(rect(9.72227991102306e-09, 2.9887474047452006e-09).transl(-6.710006792860249e-08, 4e-08, 0))
hIsland = hIsland.sub(rect(3.993879162864134e-09, -4.360316975944435e-09).transl(-8.511917956311005e-08, 3.556454323262587e-08, 0))
hIsland = hIsland.add(rect(6.858136490413056e-09, 9.02719289591922e-10).transl(-7.802675305728699e-08, 4e-08, 0))
hIsland = hIsland.add(rect(4.432373298168989e-09, 1.3923669025472718e-10).transl(-2.0395836513106242e-08, 4e-08, 0))
hIsland = hIsland.add(rect(5.299191279578302e-09, 1.4399226278539746e-10).transl(-8.381997863636342e-08, 3.798575964244898e-08, 0))
hIsland = hIsland.sub(rect(9.363419901110479e-09, -2.0400473573759734e-09).transl(-5.0334860984637144e-08, 4e-08, 0))
hIsland = hIsland.sub(rect(7.811060282934548e-09, -3.21905193209658e-09).transl(6.648520859210185e-08, 4e-08, 0))
hIsland = hIsland.sub(rect(8.384156255295526e-09, -1.9834566700267216e-09).transl(1.5930708726954088e-08, 4e-08, 0))
hIsland = hIsland.sub(rect(3.263632650093813e-09, -5.794782954193963e-10).transl(1.3538215061656307e-08, 4e-08, 0))
hIsland = hIsland.sub(rect(2.4124708411138434e-09, -8.462184810770591e-10).transl(1.6244354270451555e-08, 4e-08, 0))
hIsland = hIsland.add(rect(3.487412953336749e-09, 6.402481461524501e-11).transl(1.847793480792696e-08, 4e-08, 0))
hIsland = hIsland.add(rect(9.457635293303658e-09, 3.231107740211257e-09).transl(9.976458724271539e-09, 4e-08, 0))
hIsland = hIsland.add(rect(7.092326124682487e-09, 1.600829157648395e-09).transl(7.466235646943429e-08, 4e-08, 0))
hIsland = hIsland.sub(rect(4.5037642469584506e-09, -1.3191553549033259e-09).transl(5.549465590940663e-08, 4e-08, 0))
hIsland = hIsland.sub(rect(8.400056901871548e-09, -1.212105138332045e-09).transl(-8.554098979342874e-08, 3.453519563003033e-08, 0))
hIsland = hIsland.add(rect(2.903507061520732e-09, 1.6252362509947487e-10).transl(3.81595096570031e-08, 4e-08, 0))
hIsland = hIsland.sub(rect(4.484921961780757e-09, -6.064896013781605e-10).transl(2.06201797122416e-08, 4e-08, 0))
hIsland = hIsland.sub(rect(3.2914874166649003e-09, -1.2337250528192058e-10).transl(7.673634286842688e-08, 4e-08, 0))
hIsland = hIsland.sub(rect(2.977236017421195e-09, -4.571486269928556e-10).transl(9.183435515033804e-09, 4e-08, 0))
hIsland = hIsland.add(rect(7.489143264399491e-09, 1.5358857786068698e-09).transl(6.142689078209563e-08, 4e-08, 0))
hIsland = hIsland.add(rect(6.963927315402048e-09, 3.252851614061121e-10).transl(-1.8335048687350244e-08, 4e-08, 0))
hIsland = hIsland.sub(rect(8.874427631795833e-09, -3.7101405610051566e-11).transl(-3.482817900984298e-08, 4e-08, 0))
hIsland = hIsland.sub(rect(9.097206859312614e-09, -1.9948111150766997e-09).transl(2.6946264412521258e-08, 4e-08, 0))
hIsland = hIsland.sub(rect(5.203015179461424e-09, -4.927039805396016e-10).transl(-4.0900395362810455e-08, 4e-08, 0))
hIsland = hIsland.sub(rect(2.1126982206799738e-09, -1.381417566778491e-09).transl(6.90461864720277e-08, 4e-08, 0))
hIsland = hIsland.add(rect(3.611087798517648e-09, 8.816356674589091e-10).transl(1.4126534757171296e-08, 4e-08, 0))
hIsland = hIsland.add(rect(9.443940208550253e-09, 7.981951041697062e-11).transl(-8.696607438555721e-08, 2.9948418677023454e-08, 0))
hIsland = hIsland.sub(rect(6.040924779187607e-09, -1.2212915029345668e-09).transl(-6.396665368026302e-08, 4e-08, 0))
hIsland = hIsland.sub(rect(8.108280447681113e-09, -2.8078565881426133e-09).transl(7.511574693140595e-08, 4e-08, 0))
hIsland = hIsland.sub(rect(3.6413785397197407e-09, -1.900693458429826e-09).transl(6.574667188621149e-09, 4e-08, 0))
hIsland = hIsland.sub(rect(3.020574208517317e-09, -2.262686075290067e-09).transl(-5.1084227556027796e-08, 4e-08, 0))
hIsland = hIsland.sub(rect(7.88822132295165e-09, -6.405344896333717e-10).transl(-7.559122328528831e-08, 4e-08, 0))
hIsland = hIsland.sub(rect(8.789629316612424e-09, -4.571609909147451e-10).transl(6.985405703170765e-08, 4e-08, 0))
hIsland = hIsland.sub(rect(4.182103069089629e-09, -6.916541557450327e-10).transl(-8.982583925155947e-08, 7.831007069093768e-09, 0))
hIsland = hIsland.sub(rect(4.099780745861296e-09, -2.9709602081729348e-09).transl(-4.7322623353680766e-08, 4e-08, 0))
hIsland = hIsland.sub(rect(5.370674072085406e-09, -1.8473444255410265e-09).transl(8.940727152209926e-08, 1.4276137772615452e-08, 0))
hIsland = hIsland.add(rect(8.076798095552318e-09, 3.610119980729833e-10).transl(3.100032919935871e-08, 4e-08, 0))
hIsland = hIsland.add(rect(2.7411729188908266e-09, 2.6686889596765105e-10).transl(3.5632346415203555e-08, 4e-08, 0))
hIsland = hIsland.add(rect(6.3077709573124635e-09, 2.443489036943479e-10).transl(5.132607483275096e-08, 4e-08, 0))
hIsland = hIsland.sub(rect(6.517620859487038e-09, -7.271806294359149e-10).transl(5.048473498494135e-08, 4e-08, 0))
hIsland = hIsland.sub(rect(8.094837579185378e-09, -5.677258339768865e-10).transl(-7.331742437795978e-08, 4e-08, 0))
hIsland = hIsland.add(rect(9.300645384500961e-09, 1.089527896009717e-09).transl(8.16590620513452e-08, 3.98926057599717e-08, 0))
hIsland = hIsland.sub(rect(7.44949749721698e-09, -1.1118424659141167e-10).transl(3.988568999541941e-08, 4e-08, 0))
hIsland = hIsland.add(rect(7.3932698062673486e-09, 3.009269617174058e-10).transl(-3.509532278550167e-08, 4e-08, 0))
hIsland = hIsland.sub(rect(6.29805771939047e-09, -1.3317895583700149e-09).transl(8.225827373085606e-08, 3.96071441911372e-08, 0))
hIsland = hIsland.add(rect(2.5041582725314023e-09, 1.9819837650381933e-09).transl(-8.871645334041068e-08, 2.058710988069482e-08, 0))
hIsland = hIsland.sub(rect(2.31814224439674e-09, -9.337857382477814e-10).transl(7.608543742207332e-08, 4e-08, 0))
hIsland = hIsland.sub(rect(4.521986057798968e-09, -1.1451602300589558e-09).transl(-5.405230736782704e-09, 4e-08, 0))
hIsland = hIsland.add(rect(2.24655493935311e-09, 7.661122533252761e-10).transl(-1.1568348793230559e-08, 4e-08, 0))
hIsland = hIsland.sub(rect(2.4120236478869262e-09, -4.538999934873379e-09).transl(-5.06005885441822e-09, 4e-08, 0))
hIsland = hIsland.add(rect(8.376566248847148e-09, 3.2919574189454264e-10).transl(4.8089079247753746e-08, 4e-08, 0))
hIsland = hIsland.sub(rect(2.146192122499603e-09, -3.754698004785072e-09).transl(5.176618221752236e-08, 4e-08, 0))
hIsland = hIsland.add(rect(2.646150132091404e-09, 1.926277688042152e-09).transl(-8.998069489705244e-08, 2.6185253264126415e-09, 0))
hIsland = hIsland.add(rect(2.445136996889807e-09, 3.5210058442379756e-09).transl(8.365223918877438e-08, 3.8223676273512876e-08, 0))
hIsland = hIsland.sub(rect(7.90368323068096e-09, -2.0764554273501595e-11).transl(-5.552224871907279e-08, 4e-08, 0))
hIsland = hIsland.sub(rect(8.709540378466795e-09, -3.4674834871194053e-09).transl(-1.7540612827104082e-08, 4e-08, 0))
hIsland = hIsland.add(rect(5.593825645434594e-09, 1.0576993372794749e-09).transl(-3.203721855985165e-08, 4e-08, 0))
hIsland = hIsland.sub(rect(7.459190613828214e-09, -2.778538064007823e-09).transl(-3.6872961572483675e-08, 4e-08, 0))
[...]
hIsland = hIsland.sub(rect(2.780875862855367e-09, -2.2678384524500085e-10).transl(-4.421910190408813e-08, 4e-08, 0))
hIsland = hIsland.sub(rect(6.011546806942385e-09, -3.3964249783284533e-09).transl(5.5093215745860356e-08, 4e-08, 0))
hIsland = hIsland.add(rect(3.6641101145420135e-09, 5.622273251507756e-10).transl(-1.5944371663772363e-08, 4e-08, 0))
hIsland = hIsland.sub(rect(9.63016596657389e-09, -5.827866012636939e-10).transl(7.166673851426309e-08, 4e-08, 0))
hIsland = hIsland.add(rect(9.258806778865893e-09, 7.320453311789817e-10).transl(-6.208688937419872e-08, 4e-08, 0))
hIsland = hIsland.sub(rect(2.2033872589246048e-09, -1.7939302647826706e-09).transl(3.796552755848092e-08, 4e-08, 0))
hIsland = hIsland.add(rect(9.082780608581867e-09, 1.3089965832717557e-09).transl(-1.5039208851937672e-08, 4e-08, 0))
hIsland = hIsland.add(rect(2.3235754487524484e-09, 3.414818949376641e-10).transl(2.5577662426774954e-08, 4e-08, 0))
hIsland = hIsland.sub(rect(9.724078455896007e-09, -1.2852881549032982e-09).transl(-8.398908528602584e-08, 3.772947739828805e-08, 0))
hIsland = hIsland.sub(rect(9.272440424241428e-09, -9.043780721236568e-12).transl(-4.923957768240677e-08, 4e-08, 0))
hIsland = hIsland.sub(rect(6.102089237948001e-09, -2.6855720449148354e-10).transl(-3.03636778598102e-08, 4e-08, 0))
hIsland = hIsland.sub(rect(6.4905055214041375e-09, -2.0314215404432462e-09).transl(-3.5048142452979644e-08, 4e-08, 0))
hIsland = hIsland.sub(rect(4.127048133440057e-09, -1.1009853440936702e-09).transl(-7.56621351993686e-08, 4e-08, 0))
hIsland = hIsland.add(rect(9.091495766903026e-09, 1.7231044781461026e-09).transl(8.31752221752942e-08, 3.881412711839126e-08, 0))
hIsland = hIsland.add(rect(5.6094209142816754e-09, 2.4885852948207597e-09).transl(6.059470043042817e-08, 4e-08, 0))
hIsland = hIsland.sub(rect(8.597491753415458e-09, -2.7758515741297532e-09).transl(8.793266458419145e-08, 2.5507456866851263e-08, 0))
hIsland = hIsland.add(rect(8.09233263984262e-09, 2.0047694754197323e-09).transl(3.060670643261289e-08, 4e-08, 0))
hIsland = hIsland.add(rect(9.802740809474135e-09, 2.3604444820082e-09).transl(8.745772311225848e-08, 2.786131871610797e-08, 0))
hIsland = hIsland.add(rect(8.486859478888569e-09, 1.4862870359042422e-09).transl(3.3251241520856744e-08, 4e-08, 0))
hIsland = hIsland.sub(rect(6.368865873821406e-09, -1.223705051114742e-09).transl(5.534289308407295e-08, 4e-08, 0))
hIsland = hIsland.add(rect(3.394506129943912e-09, 4.3216013285762e-10).transl(-5.584105486793706e-08, 4e-08, 0))
hIsland = hIsland.sub(rect(5.078104014885735e-09, -1.0124365488786878e-09).transl(3.703787324018676e-08, 4e-08, 0))
hIsland = hIsland.sub(rect(8.938675805165037e-09, -1.354799940392929e-09).transl(-5.4124672255198015e-08, 4e-08, 0))
hIsland = hIsland.sub(rect(4.000218517641323e-09, -2.1437471930804846e-09).transl(3.803629952046213e-08, 4e-08, 0))
hIsland = hIsland.sub(rect(2.1054097281157135e-09, -4.144577435649593e-09).transl(3.660565011526126e-08, 4e-08, 0))
hIsland = hIsland.add(rect(5.304499676101436e-09, 2.447740417581585e-10).transl(-6.400570573913772e-09, 4e-08, 0))
hIsland = hIsland.add(rect(6.197275834711571e-09, 2.2303308961546205e-10).transl(-8.274308726556153e-08, 3.92426190048932e-08, 0))
hIsland = hIsland.sub(rect(2.613021229536672e-09, -3.69845811692379e-10).transl(6.546397006007505e-08, 4e-08, 0))
hIsland = hIsland.sub(rect(9.16332709398315e-09, -4.91697407660375e-10).transl(8.837716938370868e-08, 2.2912553843602415e-08, 0))
hIsland = hIsland.add(rect(8.76932414278496e-09, 4.964630551198011e-10).transl(-3.8550279643522896e-08, 4e-08, 0))
hIsland = hIsland.add(rect(4.056489869371627e-09, 1.5384324583575459e-09).transl(7.67832745427524e-08, 4e-08, 0))
hIsland = hIsland.sub(rect(5.9350097904974936e-09, -3.09653329368302e-09).transl(-4.308768495982562e-08, 4e-08, 0))
hIsland = hIsland.sub(rect(7.935446238393985e-09, -1.0345824500885295e-09).transl(7.2105908901303335e-09, 4e-08, 0))
hIsland = hIsland.add(rect(4.27162644852271e-09, 2.631572628234885e-09).transl(-2.1917064501864603e-08, 4e-08, 0))
hIsland = hIsland.sub(rect(7.818479581442964e-09, -2.6659673681261043e-09).transl(8.917101760821469e-08, 1.676826588131826e-08, 0))
hIsland = hIsland.add(rect(3.2112682645329732e-09, 1.7059118289813788e-09).transl(2.3212338678196813e-08, 4e-08, 0))
hIsland = hIsland.sub(rect(6.704101430359692e-09, -7.294314219677358e-10).transl(5.653036786049632e-08, 4e-08, 0))
hIsland = hIsland.add(rect(4.447660828353065e-09, 3.0854963133401177e-09).transl(-2.7662381212731695e-08, 4e-08, 0))
hIsland = hIsland.add(rect(3.378586292508403e-09, 1.2199546440566932e-09).transl(8.490507650174133e-08, 3.6038491771937484e-08, 0))
hIsland = hIsland.add(rect(6.627828641074785e-09, 2.570490666483029e-09).transl(2.3861209374466815e-08, 4e-08, 0))
hIsland = hIsland.add(rect(6.266225460368855e-09, 1.0756400493707687e-09).transl(7.564993844731472e-08, 4e-08, 0))
hIsland = hIsland.sub(rect(9.44422817843018e-09, -3.918322562796775e-09).transl(1.5696612502665727e-10, 4e-08, 0))
hIsland = hIsland.sub(rect(4.5448408929313406e-09, -3.0301961552949676e-10).transl(-2.9092179911630943e-08, 4e-08, 0))
hIsland = hIsland.add(rect(2.991042928791548e-09, 1.5349551225807444e-10).transl(5.805384681116872e-08, 4e-08, 0))
hIsland = hIsland.add(rect(2.3116538463206456e-09, 1.5562041018469207e-09).transl(-7.160180272080013e-08, 4e-08, 0))
hIsland = hIsland.add(rect(3.385668537002915e-09, 1.7561107345104345e-09).transl(5.992012077521457e-08, 4e-08, 0))
hIsland = hIsland.sub(rect(5.938552125722392e-09, -6.828081334217173e-09).transl(7.402113751063523e-08, 4e-08, 0))
hIsland = hIsland.add(rect(7.424687246814451e-09, 9.022785751749636e-10).transl(2.611706476625548e-08, 4e-08, 0))
hIsland = hIsland.add(rect(9.618614979718252e-09, 3.4713751868588663e-09).transl(1.8844390001157767e-08, 4e-08, 0))
hIsland = hIsland.add(rect(7.714989378445058e-09, 2.752923787879304e-09).transl(4.400683280682697e-08, 4e-08, 0))
hIsland = hIsland.add(rect(9.923808756518952e-09, 3.7682802542343207e-10).transl(-5.054377146017132e-08, 4e-08, 0))
hIsland = hIsland.sub(rect(8.344498806740945e-09, -7.926093833079636e-11).transl(-5.561498005230821e-08, 4e-08, 0))
hIsland = hIsland.sub(rect(8.748137439981579e-09, -1.986047699759541e-09).transl(-8.27493751403948e-08, 3.923709170284107e-08, 0))
hIsland = hIsland.add(rect(6.3239681934114575e-09, 1.4037100196805852e-09).transl(-4.224263007026568e-08, 4e-08, 0))
hIsland = hIsland.sub(rect(2.061623160716006e-09, -2.2320566163123044e-09).transl(8.892787972740053e-08, 1.8933919149973083e-08, 0))
hIsland = hIsland.sub(rect(9.545282938279574e-09, -2.0901461421090455e-09).transl(-7.911392030033185e-08, 4e-08, 0))
hIsland = hIsland.sub(rect(5.748364663376074e-09, -4.0260832215102624e-10).transl(6.840017036302049e-08, 4e-08, 0))
hIsland = hIsland.add(rect(8.115033407405481e-09, 2.0094131905863254e-09).transl(7.147537354393867e-08, 4e-08, 0))
hIsland = hIsland.add(rect(2.17413741788574e-09, 2.414355764533631e-09).transl(4.87523971759622e-08, 4e-08, 0))
hIsland = hIsland.add(rect(2.3079474308182677e-09, 6.546566959364724e-09).transl(9.010626730246037e-09, 4e-08, 0))
hIsland = hIsland.add(rect(2.9965622046511333e-09, 6.158742112534773e-10).transl(-1.5633865158513395e-08, 4e-08, 0))
hIsland = hIsland.sub(rect(6.300760553508675e-09, -2.238252144940251e-09).transl(-3.3519488236145864e-08, 4e-08, 0))
hIsland = hIsland.add(rect(7.546255627661807e-09, 1.2434374870491295e-09).transl(-7.722645767623877e-08, 4e-08, 0))
hIsland = hIsland.sub(rect(6.1557681918009076e-09, -2.515973165135742e-09).transl(5.3737687010816165e-08, 4e-08, 0))
hIsland = hIsland.sub(rect(9.758801162657204e-09, -2.9585632321515943e-10).transl(1.6508573863825738e-08, 4e-08, 0))
hIsland = hIsland.sub(rect(5.689881418225841e-09, -1.2367810372442635e-09).transl(-6.185804772823698e-08, 4e-08, 0))
hIsland = hIsland.sub(rect(3.4896573061709106e-09, -2.156902088478449e-09).transl(3.797768368783095e-09, 4e-08, 0))
hIsland = hIsland.sub(rect(8.294831148173639e-09, -1.8942908342277775e-09).transl(-3.860180844869596e-08, 4e-08, 0))
hIsland = hIsland.add(rect(7.989806324083872e-09, 8.45724696464689e-10).transl(2.089795036699367e-08, 4e-08, 0))
hIsland = hIsland.add(rect(6.246037569406827e-09, 1.850061599376671e-09).transl(-1.2282857431335225e-08, 4e-08, 0))
hIsland = hIsland.sub(rect(4.623874371444332e-09, -4.537886046207191e-09).transl(-1.6560066232428354e-08, 4e-08, 0))
hIsland = hIsland.add(rect(6.874875733297084e-09, 4.6383847220131686e-10).transl(-3.3462174405187033e-10, 4e-08, 0))
hIsland = hIsland.sub(rect(8.477930635652185e-09, -4.2251691872024704e-10).transl(7.089229075775156e-08, 4e-08, 0))
hIsland = hIsland.sub(rect(7.663501286975335e-09, -1.5958899658176655e-09).transl(2.1051004665338102e-08, 4e-08, 0))
hIsland = hIsland.add(rect(5.048378567342243e-09, 1.7575405590912124e-09).transl(-4.892591522427063e-08, 4e-08, 0))
hIsland = hIsland.sub(rect(4.294681229328245e-09, -1.2738768466213446e-09).transl(-7.848153821115377e-08, 4e-08, 0))
hIsland = hIsland.sub(rect(6.392646826874965e-09, -7.214480321728695e-10).transl(4.255540425641856e-08, 4e-08, 0))
hIsland = hIsland.sub(rect(2.189905125044911e-09, -6.033963969952612e-10).transl(-6.969531826235957e-08, 4e-08, 0))
hIsland = hIsland.add(rect(8.67168740276467e-09, 1.3696874729136783e-09).transl(-8.916441257618649e-10, 4e-08, 0))
hIsland = hIsland.add(rect(2.9314467869923554e-09, 8.513266622857542e-10).transl(-4.558611234468862e-08, 4e-08, 0))
hIsland = hIsland.sub(rect(3.737584406521469e-09, -3.1451618506571806e-09).transl(3.646591677230441e-08, 4e-08, 0))
hIsland = hIsland.sub(rect(9.405972589071418e-09, -1.8158748519978417e-09).transl(5.3192764985137444e-08, 4e-08, 0))
hIsland = hIsland.sub(rect(5.85017968181924e-09, -3.474825365169546e-10).transl(-6.052651152947075e-08, 4e-08, 0))
hIsland = hIsland.add(rect(4.179709096989014e-09, 1.8537338173097336e-09).transl(2.396368613029941e-08, 4e-08, 0))
hIsland = hIsland.add(rect(9.564033744702086e-09, 1.4842240803502608e-09).transl(-7.101024420864731e-09, 4e-08, 0))
hIsland = hIsland.sub(rect(8.166871314051165e-09, -2.08181169443882e-09).transl(-5.484934451603716e-08, 4e-08, 0))
hIsland = hIsland.add(rect(9.34111982644027e-09, 1.7701020273754542e-09).transl(7.633130247508718e-08, 4e-08, 0))
hIsland = hIsland.add(rect(9.773820259890326e-09, 3.2237178619932775e-09).transl(-4.4765937667810704e-08, 4e-08, 0))
hIsland = hIsland.add(rect(3.188447880083367e-09, 2.6354918533613236e-10).transl(-5.197012219456869e-08, 4e-08, 0))
hIsland = hIsland.sub(rect(7.891927114318776e-09, -1.6385708559256668e-09).transl(-7.29300688861365e-08, 4e-08, 0))
hIsland = hIsland.add(rect(2.6587822852856606e-09, 3.0337433022877526e-09).transl(-3.622395411231631e-08, 4e-08, 0))
hIsland = hIsland.sub(rect(6.294323592229236e-09, -3.992347610244299e-09).transl(1.2022700952846564e-08, 4e-08, 0))
hIsland = hIsland.sub(rect(3.2749009348733368e-09, -1.1544728986271767e-09).transl(-7.054005590534456e-08, 4e-08, 0))
hIsland = hIsland.add(rect(3.043968820655442e-09, 6.631601372071428e-10).transl(4.4728739623130596e-08, 4e-08, 0))
hIsland = hIsland.sub(rect(2.3831635514807817e-09, -4.724805902557841e-09).transl(-5.883167032050921e-08, 4e-08, 0))
hIsland = hIsland.sub(rect(8.057863787676653e-09, -2.015019321969846e-09).transl(-3.16033747711739e-08, 4e-08, 0))
hIsland = hIsland.sub(rect(8.85128423450468e-09, -3.774087901027714e-09).transl(-6.95561269533756e-08, 4e-08, 0))
hIsland = hIsland.sub(rect(2.9565216271828413e-09, -6.983669110020449e-10).transl(1.4823724319282259e-08, 4e-08, 0))
hIsland = hIsland.sub(rect(5.852409049427989e-09, -1.9744296723589408e-10).transl(3.4812495493332056e-08, 4e-08, 0))
hIsland = hIsland.add(rect(7.87912500850379e-09, 4.064902430868868e-09).transl(-6.376890330938163e-08, 4e-08, 0))
hIsland = hIsland.add(rect(6.993769640597048e-09, 3.3454902210630093e-09).transl(-1.2284850340953226e-08, 4e-08, 0))
hIsland = hIsland.sub(rect(5.603393165418898e-09, -7.310823902289765e-10).transl(-8.216212251081971e-08, 3.966513442912946e-08, 0))
hIsland = hIsland.sub(rect(5.926636884076728e-09, -6.608845495097845e-10).transl(-7.169721201674527e-08, 4e-08, 0))
hIsland = hIsland.sub(rect(2.3957060964269993e-09, -1.3449322299429136e-09).transl(-8.410569486775118e-08, 3.754297209001422e-08, 0))
hIsland = hIsland.sub(rect(8.170816475321623e-09, -1.6174301702551652e-09).transl(-6.794605179099922e-08, 4e-08, 0))
hIsland = hIsland.add(rect(3.418682876513832e-09, 1.0200801740520778e-09).transl(3.483067101588401e-08, 4e-08, 0))
hIsland = hIsland.add(rect(8.5946036096347e-09, 2.3831300325512737e-09).transl(-2.4609472864171796e-08, 4e-08, 0))
hIsland = hIsland.sub(rect(8.031589297826888e-09, -1.9671857338659307e-09).transl(4.003793749469375e-08, 4e-08, 0))
hIsland = hIsland.add(rect(7.806628877681025e-09, 1.8981450303500655e-10).transl(2.1573112027635297e-08, 4e-08, 0))
hIsland = hIsland.sub(rect(3.289355511259295e-09, -1.0897785647651852e-10).transl(8.071730089930303e-08, 4e-08, 0))
hIsland = hIsland.add(rect(5.0739807304670605e-09, 2.457283349256347e-09).transl(-7.335327012312182e-08, 4e-08, 0))
hIsland = hIsland.add(rect(4.674760697273079e-09, 1.0143797343941577e-09).transl(4.077401252191347e-08, 4e-08, 0))
hIsland = hIsland.sub(rect(7.962878640244698e-09, -3.024030968800792e-09).transl(-8.776726623915603e-08, 2.637024422922027e-08, 0))
hIsland = hIsland.add(rect(8.314909462682878e-09, 2.0306946816104345e-09).transl(-7.586338677257475e-08, 4e-08, 0))
hIsland = hIsland.add(rect(5.7625304837320284e-09, 3.4759460145080673e-09).transl(-2.2162268552805362e-08, 4e-08, 0))
hIsland = hIsland.sub(rect(2.54095085087042e-09, -2.776157870975297e-09).transl(3.6830625014431413e-08, 4e-08, 0))
hIsland = hIsland.add(rect(2.304751175225933e-09, 1.8499866966670684e-09).transl(2.115554881352751e-09, 4e-08, 0))
hIsland = hIsland.sub(rect(6.677447709386489e-09, -4.920528721171216e-10).transl(-2.8170353703211203e-08, 4e-08, 0))
hIsland = hIsland.sub(rect(8.241203400265758e-09, -2.611804011669978e-09).transl(-7.178062929183732e-08, 4e-08, 0))
hIsland = hIsland.sub(rect(3.0430672499864767e-09, -3.7208362484268027e-10).transl(-1.3583343440812169e-08, 4e-08, 0))
hIsland = hIsland.add(rect(5.433882193041052e-09, 6.876605660321435e-10).transl(1.1956093588511105e-09, 4e-08, 0))
hIsland = hIsland.sub(rect(4.440314037413133e-09, -3.4817702380754645e-09).transl(1.4553791561576646e-09, 4e-08, 0))
hIsland = hIsland.add(rect(3.780627471795005e-09, 2.212247160119994e-09).transl(-1.2257818395987537e-08, 4e-08, 0))
hIsland = hIsland.sub(rect(2.9222375220720115e-09, -2.5011446255706133e-09).transl(8.832847315825047e-08, 2.321918371138962e-08, 0))
hIsland = hIsland.sub(rect(2.1440204436100417e-09, -3.2033701891546215e-09).transl(4.713956769618244e-08, 4e-08, 0))
hIsland = hIsland.sub(rect(7.635891310781368e-09, -2.646965251963785e-09).transl(-6.620681689083851e-08, 4e-08, 0))
hIsland = hIsland.sub(rect(3.2316133338660365e-09, -4.6517132415816e-09).transl(8.38377285741084e-08, 3.795963978538031e-08, 0))
hIsland = hIsland.sub(rect(5.3854386053492305e-09, -1.3932228984196956e-09).transl(-5.8822986887146256e-08, 4e-08, 0))
hIsland = hIsland.sub(rect(3.428445366738595e-09, -5.563874716981889e-10).transl(4.078768656775065e-09, 4e-08, 0))
hIsland = hIsland.sub(rect(2.3696348118431825e-09, -7.11990531170709e-10).transl(2.0002812341395058e-08, 4e-08, 0))
hIsland = hIsland.sub(rect(5.328692734335934e-09, -1.9037901695213704e-09).transl(-7.651335528186716e-08, 4e-08, 0))
hIsland = hIsland.sub(rect(5.093907234314344e-09, -2.2556491982705977e-09).transl(8.09173235726738e-08, 4e-08, 0))
hIsland = hIsland.sub(rect(6.6630502728772235e-09, -1.1659074975887846e-09).transl(4.366395063175065e-08, 4e-08, 0))
hIsland = hIsland.sub(rect(9.711884495659003e-09, -3.0533954465690244e-09).transl(-4.160184758396971e-08, 4e-08, 0))
hIsland = hIsland.add(rect(7.410558307527191e-09, 2.267342883338599e-09).transl(-1.2919725255726679e-08, 4e-08, 0))
hIsland = hIsland.add(rect(4.010342284946386e-09, 3.2841185308971265e-09).transl(3.043853037236091e-08, 4e-08, 0))
hIsland = hIsland.sub(rect(5.820002438140573e-09, -2.9378873074122275e-10).transl(-8.48546780282885e-08, 3.614551039811646e-08, 0))
hIsland = hIsland.add(rect(4.210153349493947e-09, 2.7058479922503606e-09).transl(5.5464605762731196e-08, 4e-08, 0))
hIsland = hIsland.add(rect(8.272644847050705e-09, 6.337738625378762e-10).transl(-8.001318464969645e-08, 4e-08, 0))
hIsland = hIsland.add(rect(3.6433536816268886e-09, 3.5559248763175625e-10).transl(8.721894416763173e-08, 2.8914427494435234e-08, 0))
hIsland = hIsland.sub(rect(4.107372623018883e-09, -5.135962142258951e-10).transl(-2.6386914388204056e-08, 4e-08, 0))
hIsland = hIsland.add(rect(2.9468787029070812e-09, 2.075962185290049e-09).transl(-2.6648594548219032e-08, 4e-08, 0))
hIsland = hIsland.add(rect(8.017376706716385e-09, 2.9516974732368133e-09).transl(-1.1792918370419802e-08, 4e-08, 0))
hIsland = hIsland.add(rect(7.22680061069884e-09, 2.5871369074946397e-10).transl(2.217961475659379e-08, 4e-08, 0))
hIsland = hIsland.add(rect(8.520998574189356e-09, 2.6586031331556337e-10).transl(-7.809884719324874e-08, 4e-08, 0))
hIsland = hIsland.sub(rect(4.136534150191861e-09, -1.8508486363436725e-09).transl(-3.78578164991048e-08, 4e-08, 0))
hIsland = hIsland.sub(rect(8.481999856351416e-09, -1.037435928850053e-09).transl(7.856089031634574e-08, 4e-08, 0))
hIsland = hIsland.sub(rect(7.715386751834308e-09, -3.300592114508975e-09).transl(4.9801413048465054e-08, 4e-08, 0))
hIsland = hIsland.sub(rect(2.0744766060056516e-09, -2.3091795640992037e-09).transl(-6.154390819330959e-08, 4e-08, 0))
hIsland = hIsland.sub(rect(9.860696041901769e-09, -2.5647952088728817e-09).transl(-2.6133046105558538e-08, 4e-08, 0))
hIsland = hIsland.sub(rect(4.279516413716887e-09, -1.1124886696536086e-09).transl(-6.906719929928951e-08, 4e-08, 0))
hIsland = hIsland.sub(rect(7.001083638517359e-09, -1.8402141834298864e-09).transl(-5.210624445384184e-08, 4e-08, 0))
hIsland = hIsland.sub(rect(8.897416635445687e-09, -8.942899166141558e-10).transl(3.4345388240361704e-09, 4e-08, 0))
hIsland = hIsland.add(rect(6.865755445073168e-09, 1.5198079675104128e-09).transl(-4.211090255445481e-08, 4e-08, 0))
hIsland = hIsland.add(rect(7.990111834215952e-09, 3.0129061530614576e-09).transl(8.944275971983445e-08, 1.3856269829680422e-08, 0))
hIsland = hIsland.add(rect(5.674362986013166e-09, 3.2433895990694166e-09).transl(6.116805125993796e-08, 4e-08, 0))
hIsland = hIsland.add(rect(6.003249952161065e-09, 2.2407978810992925e-09).transl(5.885741575299157e-09, 4e-08, 0))
hIsland = hIsland.add(rect(6.9547068352083895e-09, 1.2350109164181316e-09).transl(2.4756722308604886e-08, 4e-08, 0))
hIsland = hIsland.sub(rect(4.000125974040876e-09, -2.0840364665465718e-10).transl(-5.713916030264997e-08, 4e-08, 0))
hIsland = hIsland.add(rect(5.8511233150345885e-09, 8.096713197823315e-10).transl(-7.96447917885052e-08, 4e-08, 0))
hIsland = hIsland.sub(rect(2.205934555108951e-09, -1.5811105828789132e-09).transl(4.308268497732944e-08, 4e-08, 0))
hIsland = hIsland.add(rect(8.424345833465728e-09, 9.68506096940154e-10).transl(-2.0683090742067244e-08, 4e-08, 0))
vIsland = hIsland.rotz(pi / 2)
vIslands = vIslands.add(vIsland.transl(0, -a/2, 0))
DefRegion(1, hIslands)
DefRegion(2, vIslands)
TableAdd(m_full.Region(1))
TableAdd(m_full.Region(2))
setgeom(hIslands.add(vIslands))
save(geom)
r2o2 := sqrt(2) / 2
m = RandomMagSeed(4)
B_ext = vector(Bmax*r2o2, Bmax*r2o2, 0)
relax()
minimize()
for B := Bmax; B >= -Bmax; B -= Bstep {
	B_ext = vector(B*r2o2, B*r2o2, 0)
	minimize()
	tablesave()
}
//********************************************************************//
//Please cite the following references, relevant for your simulation. //
//See bibtex file in output folder for justification.                 //
//********************************************************************//
//   * Vansteenkiste et al., AIP Adv. 4, 107133 (2014).
//   * Exl et al., J. Appl. Phys. 115, 17D118 (2014).
