//mumax 3.10 [windows_amd64 go1.11.6(gc) CUDA-11.0]
//GPU info: NVIDIA GeForce RTX 3090(24575MB), CUDA Driver 12.1, cc=8.6, using cc=80 PTX
//(c) Arne Vansteenkiste, Dynamat LAB, Ghent University, Belgium
//This is free software without any warranty. See license.txt
//********************************************************************//
//  If you use mumax in any work or publication,                      //
//  we kindly ask you to cite the references in references.bib        //
//********************************************************************//
//output directory: r1;p0.8;a8.000000000000001e-07;l1.8000000000000002e-07;s5.out/
randSeed(5)
ThermSeed(5)
resolution := 2e-09
zResolution := 5e-09
a := 8.000000000000001e-07
gridSize := 800
gridDepth := 5
SetCellsize(resolution, resolution, zResolution)
SetGridsize(gridSize, gridSize, gridDepth)
SetPBC(16, 16, 0)
//resizing...
Msat = 700e3
Aex = 13e-12
alpha = 0.2
Bmax := 0.1
Bstep := Bmax / 500.0
TableAdd(B_ext)
TableAdd(m_full)
islandWidth := 8e-08
islandLength := 1.8000000000000002e-07
ellipseConstant := 7.200000000000001e-08
hIsland := Universe().Inverse()
vIsland := Universe().Inverse()
vIslands := Universe().Inverse()
hIslands := Universe().Inverse()
hIsland = rect(islandLength-2*ellipseConstant, islandWidth)
hIsland = hIsland.add(ellipse(ellipseConstant*2, islandWidth).transl(islandLength/2-ellipseConstant, 0, 0))
hIsland = hIsland.add(ellipse(ellipseConstant*2, islandWidth).transl(-islandLength/2+ellipseConstant, 0, 0))
hIsland = hIsland.add(rect(6.395091146379999e-09, 2.9111003577440948e-09).transl(8.790460471879434e-08, -9.579850238351004e-09, 0))
hIsland = hIsland.sub(rect(6.333926493085019e-09, -1.6380276084445796e-09).transl(-5.551555063186749e-08, -3.414106294853003e-08, 0))
hIsland = hIsland.sub(rect(2.3007661643889777e-09, -1.6338755030489205e-09).transl(-7.483811016687671e-08, -2.4554230938744672e-08, 0))
hIsland = hIsland.sub(rect(8.585631382763968e-09, -3.9471019528669674e-09).transl(1.41328288677096e-08, -4e-08, 0))
hIsland = hIsland.add(rect(3.2450416741708692e-09, 9.465066597685334e-10).transl(1.0309143590718533e-08, -4e-08, 0))
hIsland = hIsland.add(rect(9.609377757235886e-09, 2.5742737323453613e-09).transl(4.057159386152198e-08, -3.798360249912959e-08, 0))
hIsland = hIsland.sub(rect(8.496948191812695e-09, -2.2761797198518642e-09).transl(7.294482308851271e-08, -2.5850152325243362e-08, 0))
hIsland = hIsland.sub(rect(2.971301136216978e-09, -1.2840462701290045e-09).transl(-2.5824601386640977e-08, -3.976309324364144e-08, 0))
hIsland = hIsland.add(rect(9.16175956746299e-09, 6.209906093385742e-10).transl(-8.657081942653487e-08, -1.219748409564207e-08, 0))
hIsland = hIsland.sub(rect(8.626164841738462e-09, -9.6673712854643e-10).transl(3.959587493929016e-08, -3.815828868748668e-08, 0))
hIsland = hIsland.sub(rect(6.8519983919886865e-09, -2.111899317753924e-09).transl(3.527242579598376e-08, -3.8831955575313985e-08, 0))
hIsland = hIsland.add(rect(3.3319554259372154e-09, 7.102369161331931e-10).transl(6.931989683698955e-08, -2.805565560290605e-08, 0))
hIsland = hIsland.add(rect(8.763445388338955e-09, 2.465116506703782e-10).transl(-5.8808104602697466e-09, -4e-08, 0))
hIsland = hIsland.add(rect(8.20246859404413e-09, 2.222242982912984e-09).transl(-3.630345325234634e-08, -3.86859131499653e-08, 0))
hIsland = hIsland.sub(rect(9.072644684862365e-09, -1.870245014844754e-09).transl(-3.043471363401752e-08, -3.939894831914063e-08, 0))
hIsland = hIsland.sub(rect(5.098922267075156e-09, -1.0529223680737269e-09).transl(8.955139187478659e-08, -4.458253574251119e-09, 0))
hIsland = hIsland.add(rect(7.148403330131604e-09, 1.1257248874895565e-09).transl(5.440059833670095e-08, -3.451156739668566e-08, 0))
hIsland = hIsland.add(rect(5.330113304139512e-09, 2.9810800310119007e-10).transl(6.579870609303372e-08, -2.991388719076244e-08, 0))
hIsland = hIsland.sub(rect(4.314147593221842e-09, -1.4171995764891297e-09).transl(1.0731616627196904e-09, -4e-08, 0))
hIsland = hIsland.sub(rect(8.876930200066308e-09, -3.903831999314707e-09).transl(-4.964047954296694e-08, -3.5930660478698715e-08, 0))
hIsland = hIsland.add(rect(4.132797531126431e-09, 5.65844203007339e-10).transl(4.84187343665337e-08, -3.625484471473554e-08, 0))
hIsland = hIsland.sub(rect(6.109192131382237e-09, -5.523144160373554e-10).transl(7.156155980507263e-08, -2.6731168006236896e-08, 0))
hIsland = hIsland.add(rect(4.5399586706322424e-09, 2.3791080734065415e-09).transl(5.5625356086237554e-08, -3.4103747754769335e-08, 0))
hIsland = hIsland.add(rect(8.329102977652253e-09, 1.0045629646994495e-09).transl(8.997707822203296e-10, -4e-08, 0))
hIsland = hIsland.sub(rect(3.7169101896772515e-09, -7.022835512523323e-10).transl(5.783552726338846e-08, -3.332004720240233e-08, 0))
hIsland = hIsland.add(rect(2.778593362979958e-09, 4.356786127602929e-10).transl(-6.840800327963114e-08, -2.8561354822712054e-08, 0))
hIsland = hIsland.sub(rect(3.756480702577917e-09, -1.6959381843258744e-09).transl(1.1013165641034254e-08, -4e-08, 0))
hIsland = hIsland.sub(rect(3.571504254402113e-09, -3.803849159898222e-09).transl(5.059428915175024e-09, -4e-08, 0))
hIsland = hIsland.add(rect(7.0114280401875475e-09, 5.791748719857032e-10).transl(8.329109844278516e-08, -1.6860653152617847e-08, 0))
hIsland = hIsland.sub(rect(5.654250775291002e-09, -1.6393395580949912e-09).transl(-1.00112357560182e-08, -4e-08, 0))
hIsland = hIsland.add(rect(6.930596138556714e-09, 2.43452657184402e-09).transl(-1.5503998355570638e-08, -4e-08, 0))
hIsland = hIsland.add(rect(3.7370944056959054e-09, 2.493203652516315e-10).transl(-1.806539667135481e-08, -3.99999835002874e-08, 0))
hIsland = hIsland.add(rect(4.2810793160161755e-09, 1.789434215266302e-09).transl(7.4811826090846e-08, -2.4572997929220326e-08, 0))
hIsland = hIsland.add(rect(4.368701194591045e-09, 1.31075276600671e-09).transl(-3.116779427388839e-08, -3.932536483141164e-08, 0))
hIsland = hIsland.add(rect(6.2973037132399655e-09, 2.3154666088244633e-10).transl(7.275070548987751e-08, -2.597696182755672e-08, 0))
hIsland = hIsland.sub(rect(6.8283799097292946e-09, -2.5818450364609917e-09).transl(5.187006752599619e-08, -3.529775692251047e-08, 0))
hIsland = hIsland.add(rect(6.160438077685657e-09, 2.3649081897455144e-09).transl(-2.9601466380971198e-08, -3.947731798294955e-08, 0))
hIsland = hIsland.add(rect(9.764711871595947e-09, 1.4588127850171408e-09).transl(-2.9789914995755452e-08, -3.9460082597984664e-08, 0))
hIsland = hIsland.sub(rect(8.273935363134143e-09, -4.598861179926095e-10).transl(3.857203099383068e-08, -3.833249411637273e-08, 0))
hIsland = hIsland.add(rect(4.881026952360153e-09, 3.8829541998788564e-10).transl(-2.072346519449822e-08, -3.997137377423364e-08, 0))
hIsland = hIsland.sub(rect(9.826705210076135e-09, -2.324375167561549e-09).transl(-3.729809632895164e-08, -3.853643248974372e-08, 0))
hIsland = hIsland.add(rect(6.206649564486314e-09, 7.146031315925925e-10).transl(-1.261340688973099e-08, -4e-08, 0))
hIsland = hIsland.sub(rect(8.266715017895352e-09, -2.459659848952821e-09).transl(-3.4418130122879115e-08, -3.8946168147256616e-08, 0))
hIsland = hIsland.sub(rect(8.099659699345075e-09, -4.558874071249468e-10).transl(2.177972639375826e-08, -3.9944844953904366e-08, 0))
hIsland = hIsland.add(rect(2.9681009616251058e-09, 2.920320501260458e-09).transl(6.824330559312122e-08, -2.865078286843392e-08, 0))
hIsland = hIsland.sub(rect(9.006171730863786e-09, -6.795102267079211e-10).transl(7.539936852539673e-09, -4e-08, 0))
hIsland = hIsland.add(rect(4.132248412536871e-09, 3.161780740702602e-09).transl(6.771047122527075e-08, -2.8936227510147054e-08, 0))
hIsland = hIsland.add(rect(2.0295476565781314e-09, 4.871654469068245e-09).transl(-4.7769805552578425e-08, -3.642071838364481e-08, 0))
hIsland = hIsland.sub(rect(7.57071306077022e-09, -1.0296011697314094e-09).transl(-5.3011174805277326e-08, -3.4952426392550204e-08, 0))
hIsland = hIsland.add(rect(4.035103673398873e-09, 4.794894171209158e-10).transl(-5.939395532930626e-08, -3.2728496201942355e-08, 0))
hIsland = hIsland.sub(rect(3.5136252787103895e-09, -7.826697159898055e-10).transl(-4.607370453712746e-08, -3.683407538033357e-08, 0))
hIsland = hIsland.sub(rect(3.1053579053244473e-09, -6.200332616778631e-10).transl(-1.2754377140103432e-08, -4e-08, 0))
hIsland = hIsland.sub(rect(8.84831064274651e-09, -1.5177307469943655e-09).transl(2.5831328877616382e-08, -3.976268447359264e-08, 0))
hIsland = hIsland.add(rect(5.234384184059142e-09, 2.9515320157970853e-09).transl(-3.6050948082720437e-08, -3.8722514239752285e-08, 0))
hIsland = hIsland.sub(rect(2.61842551067564e-09, -2.325557653548328e-11).transl(-2.7587089374601353e-08, -3.964381429075121e-08, 0))
hIsland = hIsland.sub(rect(6.983351124878934e-09, -1.9481458490895923e-09).transl(-6.322352241240591e-08, -3.112516062041268e-08, 0))
hIsland = hIsland.add(rect(4.602483818214017e-09, 3.110685727744468e-09).transl(6.993738162095263e-08, -2.770272299291313e-08, 0))
hIsland = hIsland.sub(rect(3.6493376647537483e-09, -1.2804503530445366e-09).transl(3.079152948187981e-08, -3.936367620244645e-08, 0))
hIsland = hIsland.sub(rect(2.1319037079827474e-09, -4.10038835089648e-11).transl(-5.2065710333478504e-08, -3.523960042494429e-08, 0))
hIsland = hIsland.sub(rect(6.848097270649446e-09, -1.4539217331206008e-09).transl(-4.696299199733119e-08, -3.662095254070319e-08, 0))
hIsland = hIsland.add(rect(6.620778396087758e-09, 2.1009548876952047e-09).transl(6.054848789448361e-08, -3.226829167306249e-08, 0))
hIsland = hIsland.sub(rect(8.496904983320682e-09, -3.4992074451784713e-09).transl(-1.623773605667742e-08, -4e-08, 0))
hIsland = hIsland.sub(rect(9.215456411959784e-09, -9.323371344190564e-10).transl(-1.865045419993214e-08, -3.9998367672456915e-08, 0))
hIsland = hIsland.add(rect(7.429256645700159e-09, 1.9910328003260047e-09).transl(-1.197024301822553e-08, -4e-08, 0))
hIsland = hIsland.add(rect(8.905215023697932e-09, 1.987990342361031e-09).transl(-4.477973607108034e-08, -3.713025843361033e-08, 0))
hIsland = hIsland.add(rect(2.165668756115877e-09, 2.0831499912865834e-09).transl(5.775428745188089e-08, -3.3349980237621744e-08, 0))
hIsland = hIsland.sub(rect(9.71203606101966e-09, -1.256694633991778e-09).transl(-5.088486835736114e-08, -3.558412668522747e-08, 0))
hIsland = hIsland.add(rect(7.670665979781996e-09, 1.302638694934842e-09).transl(4.975410140076692e-08, -3.5899710460977827e-08, 0))
hIsland = hIsland.add(rect(2.3200571096593477e-09, 1.5861385757734876e-10).transl(-1.0328922003331984e-08, -4e-08, 0))
hIsland = hIsland.sub(rect(3.555428873479462e-09, -2.862357770017841e-09).transl(-3.743683324563013e-09, -4e-08, 0))
hIsland = hIsland.sub(rect(5.466343934976877e-09, -1.2755136467762677e-09).transl(8.166074272296482e-08, -1.8686083122391886e-08, 0))
hIsland = hIsland.sub(rect(5.995727211853561e-09, -1.0698912781035263e-09).transl(-7.077735837947481e-08, -2.720833229813668e-08, 0))
hIsland = hIsland.sub(rect(5.269580640901471e-09, -3.853286967607638e-09).transl(1.6662968370353097e-09, -4e-08, 0))
hIsland = hIsland.sub(rect(8.931645804128395e-09, -6.578961438645574e-10).transl(5.2070901728692547e-08, -3.5238051365114175e-08, 0))
hIsland = hIsland.sub(rect(7.503547828841042e-09, -2.0346283842211373e-09).transl(-8.964117149088545e-08, -3.988507696639839e-09, 0))
hIsland = hIsland.add(rect(7.624586781396221e-09, 2.7794624111910714e-09).transl(5.904627022778996e-08, -3.286337082672483e-08, 0))
hIsland = hIsland.sub(rect(2.9364872919667565e-09, -1.513152740597512e-09).transl(5.868570369633277e-08, -3.300146608571892e-08, 0))
hIsland = hIsland.sub(rect(7.825138638346202e-09, -3.5309678897253253e-09).transl(-5.2438826523089645e-08, -3.5127489269522424e-08, 0))
hIsland = hIsland.sub(rect(5.688585672410257e-09, -1.5704516393021468e-09).transl(-5.5232720003734984e-09, -4e-08, 0))
hIsland = hIsland.add(rect(9.32659459337286e-09, 9.786081904090189e-10).transl(6.751802980778283e-08, -2.9037888850175806e-08, 0))
hIsland = hIsland.sub(rect(4.47429926572034e-09, -2.8942798494784374e-09).transl(8.240265119516974e-08, -1.7884217118002654e-08, 0))
hIsland = hIsland.add(rect(6.466702115022869e-09, 5.5518885832856774e-09).transl(-2.1854102631916256e-08, -3.994265137724372e-08, 0))
hIsland = hIsland.add(rect(8.765163793276412e-09, 7.132126756682002e-10).transl(3.078380259412068e-08, -3.936445093348331e-08, 0))
hIsland = hIsland.add(rect(9.194280944426406e-09, 8.748792489382949e-11).transl(8.694246473977624e-08, -1.1532784128498225e-08, 0))
hIsland = hIsland.add(rect(2.64807461260431e-09, 3.6532100362062604e-09).transl(-8.901572893789466e-08, -6.5913861535918986e-09, 0))
hIsland = hIsland.add(rect(3.488951971841629e-09, 5.389243046208991e-10).transl(-4.36369503600031e-08, -3.737839037118039e-08, 0))
hIsland = hIsland.sub(rect(6.360272745902189e-09, -2.332406912086501e-09).transl(3.867903046456938e-08, -3.831472051767244e-08, 0))
hIsland = hIsland.add(rect(7.067743670789964e-09, 1.670996625466583e-09).transl(6.2141978981642816e-09, -4e-08, 0))
hIsland = hIsland.sub(rect(6.138954774157627e-09, -1.5063472643010967e-09).transl(6.542248026398185e-08, -3.009813355853624e-08, 0))
hIsland = hIsland.sub(rect(9.427380470688406e-09, -2.7564522784259458e-09).transl(-2.9018687482991652e-08, -3.952881636080785e-08, 0))
hIsland = hIsland.add(rect(8.28925205304578e-09, 3.161072007562673e-09).transl(7.279789432719599e-08, -2.594623344596572e-08, 0))
hIsland = hIsland.sub(rect(2.822061891437879e-09, -3.106491875332571e-09).transl(8.66873991923363e-08, -1.1993326233098578e-08, 0))
hIsland = hIsland.sub(rect(6.377857981106357e-09, -2.155639112334848e-09).transl(7.107564143903019e-08, -2.7028655837258765e-08, 0))
hIsland = hIsland.add(rect(3.754310796505376e-09, 5.344291947958008e-10).transl(-1.3383422438057982e-08, -4e-08, 0))
hIsland = hIsland.add(rect(2.3508369883967827e-09, 8.306439145311662e-10).transl(5.129568748305102e-08, -3.546602092766634e-08, 0))
hIsland = hIsland.sub(rect(2.699022864857147e-09, -1.6864568233677735e-09).transl(-5.135402172271719e-08, -3.544909946321971e-08, 0))
hIsland = hIsland.add(rect(8.379851226673873e-09, 1.7259950011143261e-09).transl(-4.293555937811967e-08, -3.752455113400725e-08, 0))
hIsland = hIsland.add(rect(4.06560712074283e-09, 1.032198724585734e-09).transl(4.254317542109384e-08, -3.7604309824286506e-08, 0))
hIsland = hIsland.add(rect(4.266915770838172e-09, 2.1193147834327648e-09).transl(-6.264716617240932e-08, -3.138092599475111e-08, 0))
hIsland = hIsland.sub(rect(5.745714066361309e-09, -2.46877593417931e-09).transl(8.259189580834794e-08, -1.7672317369225205e-08, 0))
hIsland = hIsland.sub(rect(5.946480543386881e-09, -2.0800541805668967e-11).transl(6.865663257620122e-08, -2.842526249941092e-08, 0))
hIsland = hIsland.add(rect(7.7898192302459e-09, 3.5669506746566996e-10).transl(1.5740860655370557e-08, -4e-08, 0))
hIsland = hIsland.sub(rect(8.315209733127038e-09, -2.9010028841458195e-09).transl(-4.4918481331621006e-08, -3.709928022828118e-08, 0))
hIsland = hIsland.sub(rect(7.53116843032459e-09, -3.8049036417231225e-11).transl(-7.635409876040344e-08, -2.3431006930125587e-08, 0))
hIsland = hIsland.add(rect(8.784917578168966e-09, 7.023496857461458e-10).transl(4.2010210063761316e-08, -3.7710355737434304e-08, 0))
hIsland = hIsland.sub(rect(7.10934820897142e-09, -2.0300336311635749e-10).transl(2.336859402560448e-08, -3.988864979109804e-08, 0))
hIsland = hIsland.add(rect(6.0168649434400534e-09, 3.889031096768874e-09).transl(7.800796138413419e-08, -2.210416257737429e-08, 0))
hIsland = hIsland.add(rect(4.724276066985696e-09, 6.131596316347213e-10).transl(7.298228979173837e-08, -2.582555324456877e-08, 0))
hIsland = hIsland.add(rect(7.306753042521785e-09, 3.52481703539572e-09).transl(1.4449227325160836e-08, -4e-08, 0))
hIsland = hIsland.sub(rect(2.6608961990050947e-09, -2.21304015363477e-09).transl(3.880010980245985e-08, -3.8294486887662916e-08, 0))
hIsland = hIsland.add(rect(3.737527426076521e-09, 2.0532860379012246e-09).transl(-6.721393484750147e-11, -4e-08, 0))
hIsland = hIsland.add(rect(3.335435218515106e-09, 6.299658069299329e-11).transl(4.37493264185379e-09, -4e-08, 0))
hIsland = hIsland.sub(rect(6.7396669886560484e-09, -3.3109279997091133e-09).transl(-2.937954937427913e-08, -3.949724891200364e-08, 0))
hIsland = hIsland.add(rect(6.116588648533598e-09, 4.467513328400055e-11).transl(6.615441018560604e-08, -2.9737289948486748e-08, 0))
hIsland = hIsland.add(rect(7.588601069957748e-09, 1.7748092318751184e-09).transl(1.1723838324654415e-09, -4e-08, 0))
hIsland = hIsland.sub(rect(5.8914245870378094e-09, -2.3421529918593185e-09).transl(-4.9904582170049827e-08, -3.5858508109998914e-08, 0))
hIsland = hIsland.add(rect(5.067495622237636e-09, 2.7696206475035863e-09).transl(-3.0549609473925684e-08, -3.938770293643218e-08, 0))
hIsland = hIsland.sub(rect(7.828704564803555e-09, -2.5560296229206917e-10).transl(4.53992952223316e-08, -3.6990483516407686e-08, 0))
hIsland = hIsland.sub(rect(6.0382254779134455e-09, -4.4902367455529023e-10).transl(1.3794882765855196e-08, -4e-08, 0))
hIsland = hIsland.add(rect(2.695094321154559e-09, 2.0518288474900792e-09).transl(-2.9345961678817545e-11, -4e-08, 0))
hIsland = hIsland.add(rect(4.05426447919031e-09, 2.71179737767635e-09).transl(-5.0929769737464546e-08, -3.5571308424575636e-08, 0))
hIsland = hIsland.sub(rect(2.996885539097158e-09, -3.0428250212559845e-09).transl(5.9158392940348845e-08, -3.282006072477212e-08, 0))
hIsland = hIsland.add(rect(7.639874809231156e-09, 3.5167420616567287e-09).transl(7.441192044906896e-08, -2.4855727109425817e-08, 0))
hIsland = hIsland.sub(rect(9.572923397819765e-09, -2.0934257906941285e-09).transl(3.603699149267874e-08, -3.8724521444145664e-08, 0))
hIsland = hIsland.sub(rect(3.76145646082243e-09, -3.1378177579750066e-09).transl(6.295128388150125e-08, -3.1246639707753185e-08, 0))
hIsland = hIsland.sub(rect(8.732906714018858e-09, -1.6111894892796997e-09).transl(1.43939202497631e-08, -4e-08, 0))
hIsland = hIsland.sub(rect(7.727837783053049e-09, -8.641502802198005e-10).transl(-5.810333718669628e-08, -3.322074665289705e-08, 0))
hIsland = hIsland.add(rect(8.95578605807043e-09, 1.2456470983843376e-09).transl(-3.225479356631888e-09, -4e-08, 0))
hIsland = hIsland.sub(rect(8.03648015309094e-09, -4.3368687461197104e-10).transl(-7.138070712453125e-08, -2.68425916101115e-08, 0))
hIsland = hIsland.add(rect(2.0843693584413245e-09, 1.0225712112656214e-09).transl(-3.654057376875235e-08, -3.865104699013704e-08, 0))
hIsland = hIsland.add(rect(9.450134790666443e-09, 2.1356228401989447e-09).transl(-7.011014362897996e-08, -2.760240714010485e-08, 0))
hIsland = hIsland.sub(rect(9.121798100389275e-09, -3.443447168872972e-09).transl(1.718218985960028e-08, -4e-08, 0))
hIsland = hIsland.sub(rect(4.9389326311708336e-09, -1.6803768687588983e-09).transl(-8.876132019327381e-09, -4e-08, 0))
hIsland = hIsland.sub(rect(7.537473532443432e-09, -2.6958810763752774e-09).transl(3.8384031284861906e-08, -3.836347956554327e-08, 0))
hIsland = hIsland.add(rect(9.797228250728211e-09, 4.991632468933174e-10).transl(5.5039562511406804e-08, -3.430109421716652e-08, 0))
hIsland = hIsland.sub(rect(6.708544122064289e-09, -1.306995163371137e-09).transl(-5.61208858092023e-08, -3.393347733871139e-08, 0))
hIsland = hIsland.add(rect(2.8505266810709497e-09, 2.2212004783157546e-10).transl(-2.789689055166185e-08, -3.96203104379576e-08, 0))
hIsland = hIsland.sub(rect(3.3071399360293175e-09, -2.0920520630548294e-09).transl(-6.932232651218206e-08, -2.8054283807133005e-08, 0))
hIsland = hIsland.sub(rect(9.453175054200816e-09, -7.426177557318212e-11).transl(-7.450632340509138e-08, -2.4789455489560397e-08, 0))
hIsland = hIsland.add(rect(7.215294569111546e-09, 1.828762042394505e-09).transl(-4.713817418022727e-08, -3.657803600153021e-08, 0))
hIsland = hIsland.add(rect(4.764194021462746e-09, 1.711321756675249e-09).transl(7.31535692809577e-08, -2.5712583960806882e-08, 0))
hIsland = hIsland.sub(rect(8.451950651458574e-09, -1.9248940023904885e-10).transl(-6.031768203273471e-10, -4e-08, 0))
hIsland = hIsland.sub(rect(9.69585966327859e-09, -8.683648469422223e-10).transl(5.78261517146801e-08, -3.3323506142132124e-08, 0))
hIsland = hIsland.sub(rect(9.044528389198895e-09, -2.1711670230456013e-09).transl(1.1289632282291126e-08, -4e-08, 0))
hIsland = hIsland.sub(rect(4.667930425313486e-09, -3.3009000489379593e-12).transl(2.990007451717505e-08, -3.944987531660373e-08, 0))
hIsland = hIsland.add(rect(9.80544509278414e-09, 1.2686909981713067e-09).transl(-1.8670819794317336e-08, -3.999826385431149e-08, 0))
hIsland = hIsland.sub(rect(7.395330944346689e-09, -1.689913229843198e-09).transl(4.315578454673722e-08, -3.7479156774701255e-08, 0))
hIsland = hIsland.add(rect(6.00311571134073e-09, 1.4266570957910854e-09).transl(-5.892519457573743e-08, -3.290994281508227e-08, 0))
hIsland = hIsland.add(rect(7.901815299555934e-09, 4.885920016888877e-10).transl(7.969724497274562e-08, -2.061889612464933e-08, 0))
hIsland = hIsland.sub(rect(2.7264047450034704e-09, -2.0817776029971288e-09).transl(-2.969879958895378e-09, -4e-08, 0))
hIsland = hIsland.sub(rect(2.876854567137396e-09, -8.30678840278759e-10).transl(-3.450343553066545e-08, -3.8935038552225985e-08, 0))
hIsland = hIsland.sub(rect(7.06718191591959e-09, -5.132900237398441e-10).transl(-4.0020613546505476e-08, -3.8083293131656636e-08, 0))
hIsland = hIsland.add(rect(7.627683546728469e-09, 1.5385520431086647e-09).transl(-5.044326542617152e-08, -3.5709020061191135e-08, 0))
hIsland = hIsland.add(rect(7.739532661057705e-09, 2.0603149517665073e-09).transl(3.9748257025617504e-08, -3.8131567705286706e-08, 0))
hIsland = hIsland.sub(rect(4.418291844625636e-09, -3.9219885180277215e-09).transl(7.752982630704911e-08, -2.2499655551907798e-08, 0))
hIsland = hIsland.sub(rect(7.071413405164172e-09, -1.9758449125726097e-09).transl(6.134171732276558e-08, -3.194079949984575e-08, 0))
hIsland = hIsland.add(rect(5.868604450155542e-09, 1.2049599427195354e-10).transl(3.9611515310083104e-08, -3.815555557983096e-08, 0))
hIsland = hIsland.sub(rect(3.659281306723874e-09, -2.0625737810486923e-09).transl(-4.473081375636329e-08, -3.7141137204124805e-08, 0))
hIsland = hIsland.add(rect(2.4039236932157976e-09, 2.2775357388820584e-09).transl(5.378025638364483e-08, -3.471121271290012e-08, 0))
hIsland = hIsland.add(rect(8.052110082522858e-09, 7.348015298127242e-10).transl(4.871962994376843e-08, -3.617645513603063e-08, 0))
hIsland = hIsland.sub(rect(5.731222429518291e-09, -1.477548877572762e-09).transl(-3.6544062302738575e-08, -3.8650530450547355e-08, 0))
hIsland = hIsland.sub(rect(9.768859949931361e-09, -1.4065702647898207e-09).transl(7.234769248858242e-08, -2.6236862210097276e-08, 0))
hIsland = hIsland.sub(rect(3.4854358478018306e-09, -8.654600348078145e-10).transl(-6.342566988146632e-08, -3.103417329799744e-08, 0))
hIsland = hIsland.add(rect(7.57800349011268e-09, 3.168826169787271e-10).transl(5.998462466553015e-08, -3.249544740998135e-08, 0))
hIsland = hIsland.add(rect(8.157030356708063e-09, 8.546541472042318e-10).transl(1.3122445097106533e-08, -4e-08, 0))
hIsland = hIsland.sub(rect(2.0337116352360525e-09, -2.5675998252560253e-09).transl(-4.007854992362479e-08, -3.8072938581672804e-08, 0))
hIsland = hIsland.add(rect(5.697640312161467e-09, 6.840649950299477e-10).transl(-2.3847944208829102e-08, -3.9867843212116866e-08, 0))
hIsland = hIsland.add(rect(6.862734622821892e-09, 1.1459289946177499e-09).transl(5.4246982782132975e-08, -3.4561433222845504e-08, 0))
hIsland = hIsland.sub(rect(2.8556975524918473e-09, -9.85922069448056e-10).transl(8.913947841377758e-08, -6.165780992846856e-09, 0))
hIsland = hIsland.sub(rect(7.576120423932006e-09, -2.1033360989436133e-09).transl(-3.253417397720805e-08, -3.917654637725816e-08, 0))
hIsland = hIsland.add(rect(9.315993652595801e-09, 1.4593269968842657e-09).transl(-4.409079852441549e-09, -4e-08, 0))
hIsland = hIsland.add(rect(8.191098072492109e-09, 8.969371102177673e-10).transl(-2.0988144566422164e-08, -3.996553682047591e-08, 0))
hIsland = hIsland.add(rect(9.287361061771616e-09, 1.795070353312945e-10).transl(1.5878098355494172e-08, -4e-08, 0))
hIsland = hIsland.sub(rect(4.825783614902045e-09, -3.349742682872016e-09).transl(-6.417485180497415e-08, -3.0691028270372456e-08, 0))
hIsland = hIsland.sub(rect(9.754450016711843e-09, -4.15170268661293e-10).transl(-8.56757868921244e-08, -1.3653424801349295e-08, 0))
hIsland = hIsland.add(rect(3.2006983152682294e-09, 1.5477242072342164e-10).transl(6.737034455753403e-08, -2.9115399802149433e-08, 0))
hIsland = hIsland.add(rect(3.790172450676453e-09, 2.2616653150929214e-09).transl(2.5840438993886688e-08, -3.976213036583131e-08, 0))
hIsland = hIsland.sub(rect(7.849138078586968e-09, -7.752197928376632e-10).transl(8.250141390132357e-08, -1.777402395030025e-08, 0))
hIsland = hIsland.sub(rect(8.914960050606805e-09, -4.434717386397116e-10).transl(-8.421387991656632e-08, -1.571075461636384e-08, 0))
hIsland = hIsland.add(rect(4.142625312885291e-09, 4.0273461590733125e-09).transl(6.93171522023799e-08, -2.8057205066128216e-08, 0))
hIsland = hIsland.sub(rect(4.970697629158982e-09, -6.851262954363896e-10).transl(-1.4822231792400357e-08, -4e-08, 0))
hIsland = hIsland.sub(rect(8.546498948000662e-09, -4.861457913354135e-09).transl(8.955613978454739e-08, -4.434671864707516e-09, 0))
hIsland = hIsland.add(rect(3.2515493613179436e-09, 5.544222340206391e-10).transl(5.726330353313957e-08, -3.35290227867182e-08, 0))
hIsland = hIsland.sub(rect(2.6603420816584013e-09, -1.1578454473855893e-09).transl(-8.116987408386064e-08, -1.919335507625189e-08, 0))
hIsland = hIsland.sub(rect(4.200966416010814e-09, -2.1067469288407035e-10).transl(-3.0064769306585674e-08, -3.9434432773169517e-08, 0))
hIsland = hIsland.sub(rect(8.785222906456711e-09, -1.2591467483135662e-09).transl(6.040845362297364e-08, -3.2325137665524196e-08, 0))
hIsland = hIsland.add(rect(9.046632045646075e-09, 1.5527503712671266e-09).transl(7.597093231265606e-08, -2.372274919269912e-08, 0))
hIsland = hIsland.add(rect(9.225498758030193e-09, 9.095574619195278e-10).transl(-5.095241693524221e-09, -4e-08, 0))
hIsland = hIsland.add(rect(6.227233285824369e-09, 1.9833962085545464e-09).transl(3.24648347560574e-08, -3.918446622919154e-08, 0))
hIsland = hIsland.sub(rect(8.039339677292247e-09, -5.966813931293503e-10).transl(-5.066079200753055e-08, -3.564776526440241e-08, 0))
hIsland = hIsland.add(rect(3.347888995228826e-09, 3.7452051040574735e-10).transl(-1.1207162433114556e-08, -4e-08, 0))
hIsland = hIsland.sub(rect(4.323478658855441e-09, -1.428244668080346e-09).transl(-8.515700755720892e-08, -1.4422379899422529e-08, 0))
hIsland = hIsland.add(rect(5.077425357021983e-09, 1.3379937168235648e-11).transl(-3.589442629421577e-08, -3.874493000524563e-08, 0))
hIsland = hIsland.add(rect(2.833007601920275e-09, 1.9728217391297643e-09).transl(-8.73374485259413e-08, -1.0777179707238413e-08, 0))
hIsland = hIsland.add(rect(7.748661898960773e-09, 1.2526511863380128e-09).transl(-4.863766434025474e-09, -4e-08, 0))
hIsland = hIsland.add(rect(6.051979752060222e-09, 1.527241283825209e-10).transl(-6.101036449298327e-08, -3.2078744482704486e-08, 0))
hIsland = hIsland.sub(rect(6.477238556334631e-09, -3.875888984959598e-09).transl(5.6096317797630426e-08, -3.394199195660271e-08, 0))
hIsland = hIsland.sub(rect(9.17617430961765e-09, -9.711813161124236e-10).transl(-4.48426841863004e-08, -3.7116226800078396e-08, 0))
hIsland = hIsland.add(rect(5.399037869871338e-09, 2.2069952749085466e-09).transl(8.640318823384028e-08, -1.2484605822572244e-08, 0))
hIsland = hIsland.add(rect(5.953642806254347e-09, 1.0761843931692722e-09).transl(3.2100208660558025e-08, -3.9225464595792603e-08, 0))
hIsland = hIsland.sub(rect(9.77526430751617e-09, -7.820622842867267e-10).transl(6.040053878804478e-09, 4e-08, 0))
hIsland = hIsland.add(rect(4.712762175200444e-09, 1.8709717527897708e-09).transl(-2.0745132306879885e-08, 3.997091631183778e-08, 0))
hIsland = hIsland.add(rect(7.45954766572258e-09, 1.6373736132283574e-09).transl(-6.422095054877971e-08, 3.066960397752217e-08, 0))
hIsland = hIsland.add(rect(9.90435140066565e-09, 3.4794398092385676e-10).transl(8.009985499848716e-09, 4e-08, 0))
hIsland = hIsland.add(rect(8.507825612475984e-09, 2.410976272435256e-09).transl(-4.0149181731959464e-08, 3.8060274438186495e-08, 0))
hIsland = hIsland.sub(rect(9.796853662739603e-09, -1.6248779644822538e-09).transl(6.336191596518604e-08, 3.106294177700802e-08, 0))
hIsland = hIsland.add(rect(4.1504097576358364e-09, 4.678857588542697e-10).transl(-7.578554298823339e-08, 2.386194230575971e-08, 0))
hIsland = hIsland.add(rect(4.974739506396105e-09, 2.2352612055076634e-09).transl(-7.55984188184266e-08, 2.400117120095663e-08, 0))
hIsland = hIsland.add(rect(2.609860758667659e-09, 1.0673889881573156e-09).transl(-3.4997348866667135e-08, 3.8869400400591266e-08, 0))
hIsland = hIsland.sub(rect(9.352874188997807e-09, -1.2812626709490401e-09).transl(8.023449503729594e-08, 2.0114392208197128e-08, 0))
hIsland = hIsland.add(rect(3.773837369885511e-09, 8.948043027522305e-10).transl(8.031856200291053e-08, 2.0033897430658857e-08, 0))
hIsland = hIsland.add(rect(6.7504785084791054e-09, 1.1064664593952606e-09).transl(5.0055201869636546e-08, 3.581702485514866e-08, 0))
hIsland = hIsland.sub(rect(7.483077197669015e-09, -2.9092423968947926e-09).transl(4.6468820055218766e-08, 3.6740356443056344e-08, 0))
hIsland = hIsland.add(rect(7.323336134460766e-09, 1.2307248637282408e-09).transl(6.721909378901599e-08, 2.919432977347206e-08, 0))
hIsland = hIsland.add(rect(9.261054971694187e-09, 1.5217763297418582e-10).transl(-3.259326868252465e-08, 3.916976547693909e-08, 0))
hIsland = hIsland.sub(rect(8.788760035484174e-09, -4.6462507319219615e-09).transl(-3.8543565847503164e-08, 3.833720553014911e-08, 0))
hIsland = hIsland.add(rect(3.78868768680184e-09, 6.138622041317573e-10).transl(-2.901630028216923e-08, 3.9529021718901916e-08, 0))
hIsland = hIsland.sub(rect(8.627825130580083e-09, -8.485465541227127e-10).transl(-5.949622018521535e-08, 3.268850229367725e-08, 0))
hIsland = hIsland.add(rect(7.602906440817176e-09, 2.3301808305216e-09).transl(-7.816534539136996e-08, 2.1971721541824358e-08, 0))
hIsland = hIsland.sub(rect(3.262366538364612e-09, -4.612429244266514e-09).transl(1.812160338628257e-08, 3.999994294986844e-08, 0))
hIsland = hIsland.add(rect(9.33925880222448e-09, 1.395842351973959e-09).transl(-5.982711722050025e-08, 3.255807851914493e-08, 0))
hIsland = hIsland.add(rect(3.062495752962156e-09, 4.98625147123111e-10).transl(3.7404330328860265e-08, 3.851996421806023e-08, 0))
hIsland = hIsland.add(rect(6.390731470385773e-09, 9.576520995659557e-10).transl(6.37283087316029e-08, 3.0896690564253204e-08, 0))
hIsland = hIsland.add(rect(7.135348518999479e-09, 2.256323541414682e-09).transl(6.336368014512593e-08, 3.10621466057385e-08, 0))
hIsland = hIsland.sub(rect(2.3411869288840796e-09, -1.651710323165694e-10).transl(5.170277164496031e-08, 3.534714607478224e-08, 0))
hIsland = hIsland.sub(rect(5.842230986232514e-09, -1.3115984652781922e-09).transl(4.272800653116521e-08, 3.7566918452747576e-08, 0))
hIsland = hIsland.add(rect(8.467481643891393e-09, 4.3630939681508894e-10).transl(3.066302297007252e-08, 3.937649800897024e-08, 0))
hIsland = hIsland.sub(rect(7.908223060249899e-09, -8.888086546517013e-10).transl(-4.573734959182287e-08, 3.6912640603223975e-08, 0))
hIsland = hIsland.sub(rect(5.524215234545775e-09, -2.6370722380083963e-10).transl(-3.477456649290067e-08, 3.889926020026814e-08, 0))
hIsland = hIsland.sub(rect(3.362773612311271e-09, -4.976045591683768e-09).transl(-4.519910619166196e-08, 3.7036054432045333e-08, 0))
hIsland = hIsland.sub(rect(6.266800731666695e-09, -3.4012134603075687e-09).transl(1.3715506769129458e-08, 4e-08, 0))
hIsland = hIsland.add(rect(9.052517845365955e-09, 3.936178499503707e-09).transl(-7.182802796511071e-08, 2.656545262681728e-08, 0))
hIsland = hIsland.sub(rect(6.309173705063808e-09, -1.6561203637668999e-09).transl(-2.1930416426857938e-08, 3.994035609857932e-08, 0))
hIsland = hIsland.add(rect(8.488097356424859e-09, 2.5819038588845397e-09).transl(8.634627483117163e-08, 1.258044137361344e-08, 0))
hIsland = hIsland.sub(rect(5.7862630402609425e-09, -2.9778834266358108e-09).transl(2.0604794838392998e-08, 3.9973814900900376e-08, 0))
hIsland = hIsland.add(rect(9.52601804382525e-09, 9.164068677756495e-10).transl(-8.645734660161623e-08, 1.2392646369229332e-08, 0))
hIsland = hIsland.sub(rect(4.678841236913372e-09, -1.7772842603193555e-09).transl(-5.729050634780303e-08, 3.351918609852861e-08, 0))
hIsland = hIsland.sub(rect(9.285342170451671e-09, -9.329567104088277e-10).transl(6.290104217717842e-08, 3.12689271640179e-08, 0))
hIsland = hIsland.sub(rect(9.317488832447333e-09, -2.4220619121814906e-09).transl(5.8231824556564794e-08, 3.317276276030035e-08, 0))
hIsland = hIsland.sub(rect(5.393787133968931e-09, -2.246481542357925e-09).transl(-2.6639649816396708e-08, 3.971097918218633e-08, 0))
hIsland = hIsland.sub(rect(8.458316680968315e-09, -1.7458002008507044e-09).transl(-6.675783795800166e-09, 4e-08, 0))
hIsland = hIsland.add(rect(7.019422286885383e-09, 3.411840796508596e-10).transl(5.13625209172688e-08, 3.5446630888870844e-08, 0))
hIsland = hIsland.add(rect(5.541840631599256e-09, 9.822708585094448e-10).transl(-5.992711314020634e-09, 4e-08, 0))
hIsland = hIsland.sub(rect(9.14387362236216e-09, -1.8508551353337817e-09).transl(6.141567637986147e-08, 3.190978334284626e-08, 0))
hIsland = hIsland.add(rect(9.72877103019178e-09, 8.276584012294276e-10).transl(6.879570376233342e-09, 4e-08, 0))
hIsland = hIsland.sub(rect(9.358710595720925e-09, -1.7845317882241755e-10).transl(-1.8721141358601465e-08, 3.999799360377271e-08, 0))
hIsland = hIsland.add(rect(8.766347919919077e-09, 2.49381312909821e-10).transl(2.6059879123209923e-08, 3.974858623357148e-08, 0))
hIsland = hIsland.sub(rect(5.261047131683368e-09, -3.517546645494542e-10).transl(-3.926810657573364e-08, 3.8215065716831356e-08, 0))
hIsland = hIsland.sub(rect(7.672090048141174e-09, -1.0400986799343269e-09).transl(-4.053221105854619e-08, 3.799081867971089e-08, 0))
hIsland = hIsland.sub(rect(7.0941363909796154e-09, -8.511747499311768e-10).transl(-1.3074831092362655e-08, 4e-08, 0))
hIsland = hIsland.add(rect(6.44104932308196e-09, 7.74720828279103e-11).transl(5.517984575051544e-08, 3.4254219664223865e-08, 0))
hIsland = hIsland.sub(rect(9.706246006221272e-09, -7.420012988525898e-10).transl(-2.962023485749715e-08, 3.9475614217602465e-08, 0))
hIsland = hIsland.sub(rect(8.342188640819828e-09, -3.671973483918511e-09).transl(-8.064536430665109e-08, 1.971680935804294e-08, 0))
hIsland = hIsland.sub(rect(6.602955589670808e-09, -3.293142087380861e-10).transl(-4.852642493916446e-08, 3.622689719505009e-08, 0))
hIsland = hIsland.sub(rect(7.769977544125153e-09, -2.6135701998237056e-09).transl(-6.981997742404584e-09, 4e-08, 0))
hIsland = hIsland.sub(rect(7.521649234855508e-09, -1.955055127586111e-09).transl(3.220241549926047e-08, 3.9214082386346864e-08, 0))
hIsland = hIsland.sub(rect(8.992518502915898e-09, -1.4768401249981687e-09).transl(-4.562765238617134e-08, 3.693802293243457e-08, 0))
hIsland = hIsland.sub(rect(7.124943599767971e-09, -3.161555826011006e-10).transl(3.093482616333057e-08, 3.934922102278684e-08, 0))
hIsland = hIsland.add(rect(3.856296895364931e-09, 5.37538340997975e-11).transl(-6.861067593828319e-08, 2.845051736966971e-08, 0))
hIsland = hIsland.sub(rect(2.6732377804985523e-09, -1.3392612620246274e-10).transl(9.780906481373645e-09, 4e-08, 0))
hIsland = hIsland.add(rect(5.747583924191354e-09, 1.5111376928108386e-10).transl(-5.427177680414998e-08, 3.45534038606172e-08, 0))
hIsland = hIsland.sub(rect(4.215476606940942e-09, -7.053157410959104e-10).transl(-8.252781809132751e-08, 1.774441915719122e-08, 0))
hIsland = hIsland.add(rect(6.593310287919675e-09, 3.4568612076443536e-09).transl(-3.564504946875972e-08, 3.8780214143635694e-08, 0))
hIsland = hIsland.add(rect(9.320295314432002e-09, 1.2679746644972158e-09).transl(-7.538524423751187e-09, 4e-08, 0))
hIsland = hIsland.sub(rect(7.455178196126889e-09, -2.4991061421675824e-09).transl(4.992885069686148e-08, 3.5851840583196575e-08, 0))
hIsland = hIsland.sub(rect(7.3472697203780836e-09, -4.782582626135487e-10).transl(1.3855501303396897e-08, 4e-08, 0))
hIsland = hIsland.sub(rect(5.456167916171623e-09, -3.957451491979248e-09).transl(-4.209634842056191e-08, 3.769339428978028e-08, 0))
hIsland = hIsland.sub(rect(5.3819255461666234e-09, -2.0838888096240896e-09).transl(1.2115308862198416e-09, 4e-08, 0))
hIsland = hIsland.add(rect(9.921810574411749e-09, 2.915580926326445e-09).transl(1.804302657642412e-08, 3.999999285769119e-08, 0))
hIsland = hIsland.sub(rect(5.732787695252601e-09, -1.1468641088515706e-09).transl(4.172922292066957e-08, 3.776521024446975e-08, 0))
hIsland = hIsland.add(rect(8.84314559535735e-09, 4.6436047683872907e-10).transl(6.50338316799473e-08, 3.028577202059496e-08, 0))
hIsland = hIsland.sub(rect(5.946578516072539e-09, -2.2155661187932495e-09).transl(1.3823030355259336e-08, 4e-08, 0))
hIsland = hIsland.add(rect(2.050466977901966e-09, 6.988628252888866e-10).transl(-6.883436797746565e-08, 2.8327161813331162e-08, 0))
hIsland = hIsland.add(rect(8.297041108785951e-09, 5.0391803229185634e-09).transl(5.820078494256936e-08, 3.3184374995282925e-08, 0))
hIsland = hIsland.add(rect(3.1451605691099625e-09, 1.3692907177988235e-10).transl(-1.2364389175007422e-08, 4e-08, 0))
hIsland = hIsland.add(rect(3.152819638937769e-09, 2.1719881812399154e-09).transl(-7.298934478321248e-08, 2.582091673115694e-08, 0))
hIsland = hIsland.add(rect(2.376824261595684e-09, 1.2374365512249577e-09).transl(1.515784514986161e-08, 4e-08, 0))
hIsland = hIsland.add(rect(3.707754362923032e-09, 3.690240654698741e-10).transl(-4.849938515242301e-09, 4e-08, 0))
hIsland = hIsland.sub(rect(2.7673753401613787e-09, -8.454731212520411e-10).transl(8.56980421345429e-08, 1.3619329617999594e-08, 0))
hIsland = hIsland.sub(rect(4.985982744891366e-09, -1.3159755874107324e-09).transl(-5.4051690155086327e-08, 3.4624420648367214e-08, 0))
hIsland = hIsland.sub(rect(6.109010822842639e-09, -2.439981169099992e-09).transl(2.312702633294976e-08, 3.989845753764297e-08, 0))
hIsland = hIsland.add(rect(3.889998551132724e-09, 1.183198092866557e-09).transl(-2.666065783554414e-08, 3.9709566771312394e-08, 0))
hIsland = hIsland.sub(rect(9.790332451189767e-09, -1.6533586474448603e-09).transl(-1.5533238604371852e-09, 4e-08, 0))
hIsland = hIsland.sub(rect(4.142798958435926e-09, -3.574390279947236e-10).transl(6.28575986368857e-08, 3.128816604935676e-08, 0))
hIsland = hIsland.sub(rect(9.947418344302641e-09, -1.9119382544198167e-10).transl(1.9145375380224395e-08, 3.99949383959495e-08, 0))
hIsland = hIsland.add(rect(2.4408968563569628e-09, 1.2469271668186625e-09).transl(1.6355518108909713e-08, 4e-08, 0))
hIsland = hIsland.add(rect(8.053974724680031e-09, 1.377545488452669e-09).transl(-5.837174998679748e-08, 3.312025322618349e-08, 0))
hIsland = hIsland.add(rect(2.1618012773441307e-09, 1.9417901359095066e-10).transl(-4.334747301215839e-08, 3.743927433767182e-08, 0))
hIsland = hIsland.add(rect(8.277078658179147e-09, 2.050966869741064e-09).transl(-2.469550234879875e-08, 3.9826670170651494e-08, 0))
hIsland = hIsland.sub(rect(3.911952547718908e-09, -1.7996901818592123e-09).transl(4.508730644529595e-09, 4e-08, 0))
hIsland = hIsland.sub(rect(3.731300398215033e-09, -7.682795745565562e-10).transl(4.942075166841834e-08, 3.599012366493281e-08, 0))
hIsland = hIsland.add(rect(2.9497847184310527e-09, 1.024273325679138e-09).transl(5.5263326462391846e-08, 3.4226210540311874e-08, 0))
hIsland = hIsland.add(rect(7.274761729456045e-09, 1.2452028673260526e-09).transl(5.2539996527620216e-08, 3.509681776521113e-08, 0))
hIsland = hIsland.add(rect(4.686060769675405e-09, 1.8352148961313557e-09).transl(3.266477592018291e-08, 3.916152191273801e-08, 0))
hIsland = hIsland.sub(rect(6.223974071851965e-09, -7.035938902333704e-10).transl(-1.282012385722331e-08, 4e-08, 0))
hIsland = hIsland.add(rect(8.616169911322472e-09, 6.858303400095565e-10).transl(1.6013904771437318e-08, 4e-08, 0))
hIsland = hIsland.add(rect(9.428817660975913e-09, 4.560207965637753e-09).transl(6.240931149334344e-08, 3.148492218353819e-08, 0))
hIsland = hIsland.sub(rect(5.750243235935429e-09, -1.2736326226083515e-09).transl(2.0635585890215458e-10, 4e-08, 0))
hIsland = hIsland.add(rect(5.336168893386216e-09, 1.2322851923564574e-09).transl(-1.7930535859829654e-08, 4e-08, 0))
hIsland = hIsland.sub(rect(3.805549538047433e-09, -5.712825947419946e-10).transl(-5.7271527299111934e-08, 3.352605005027879e-08, 0))
hIsland = hIsland.sub(rect(3.3638610846176244e-09, -4.730538880175882e-10).transl(-5.054477797292594e-08, 3.5680498471875774e-08, 0))
hIsland = hIsland.sub(rect(6.031221042738843e-09, -4.949717227870108e-09).transl(-5.702772721451233e-08, 3.3613803879597644e-08, 0))
hIsland = hIsland.sub(rect(7.687186146552814e-09, -6.969536483557838e-10).transl(1.172522753896824e-08, 4e-08, 0))
hIsland = hIsland.sub(rect(5.315559950165169e-09, -2.8446906388283785e-09).transl(-2.6698924364749813e-09, 4e-08, 0))
hIsland = hIsland.add(rect(9.46124203966738e-09, 1.4880824315870132e-09).transl(6.600877306316554e-08, 2.980987961266268e-08, 0))
hIsland = hIsland.sub(rect(3.5616277098173603e-09, -3.044787817631763e-09).transl(-7.304063072359339e-09, 4e-08, 0))
hIsland = hIsland.sub(rect(7.295596847268473e-09, -1.3314989330545937e-09).transl(1.1459662435004943e-08, 4e-08, 0))
hIsland = hIsland.sub(rect(2.814287936037392e-09, -2.524205054752127e-09).transl(-4.010491749880721e-08, 3.806821615178049e-08, 0))
hIsland = hIsland.add(rect(7.994353362708568e-09, 1.27823892720257e-09).transl(3.380310836459151e-09, 4e-08, 0))
hIsland = hIsland.add(rect(7.2333127875850734e-09, 2.5562157748107487e-10).transl(-7.985876049743164e-09, 4e-08, 0))
hIsland = hIsland.add(rect(2.3419766868585593e-09, 1.3336937007011817e-09).transl(-3.107094826530276e-09, 4e-08, 0))
hIsland = hIsland.sub(rect(8.564967555712603e-09, -3.0472593754035353e-10).transl(-7.042414580784395e-08, 2.7418278891682344e-08, 0))
hIsland = hIsland.add(rect(5.1260420140690345e-09, 1.0629171823651912e-09).transl(-3.0192231432232814e-08, 3.9422331409965896e-08, 0))
hIsland = hIsland.sub(rect(3.5786404486709008e-09, -3.794132469281147e-11).transl(-7.570296670025137e-08, 2.392353839846833e-08, 0))
hIsland = hIsland.sub(rect(5.3196732631159965e-09, -9.993357836128369e-10).transl(5.313091468267886e-08, 3.4915324528073945e-08, 0))
hIsland = hIsland.sub(rect(3.996294917043494e-09, -5.161984742830021e-10).transl(1.30325917289595e-10, 4e-08, 0))
hIsland = hIsland.add(rect(2.4690567457422114e-09, 6.823886309126815e-10).transl(4.035860924656365e-08, 3.8022461654870996e-08, 0))
hIsland = hIsland.add(rect(2.8933602539817403e-09, 2.9596156156155435e-10).transl(8.026807364834582e-08, 2.008229215162003e-08, 0))
hIsland = hIsland.sub(rect(6.899697458559095e-09, -8.711600697959145e-10).transl(7.244076986500226e-08, 2.6177236462203296e-08, 0))
hIsland = hIsland.sub(rect(2.1503007943666e-09, -3.0717178361736443e-10).transl(-1.3949788065251118e-08, 4e-08, 0))
hIsland = hIsland.sub(rect(6.481587161300951e-09, -3.2132906179908685e-09).transl(4.3902096033259406e-08, 3.732192873542362e-08, 0))
hIsland = hIsland.sub(rect(7.669051546247025e-09, -2.092274104332387e-09).transl(3.279054526180495e-08, 3.9146920833684946e-08, 0))
hIsland = hIsland.sub(rect(7.978241398495464e-09, -2.4095432631300473e-09).transl(-1.7775267096385296e-08, 4e-08, 0))
hIsland = hIsland.add(rect(8.257585863604664e-09, 1.5658244145496628e-09).transl(-2.308306330453664e-08, 3.9900193645071704e-08, 0))
hIsland = hIsland.sub(rect(7.647361102897048e-09, -3.3351044421993837e-10).transl(-6.972164252890949e-08, 2.7827021318613576e-08, 0))
hIsland = hIsland.sub(rect(8.94782461734783e-09, -1.2189932657183976e-09).transl(-1.0730379891240592e-08, 4e-08, 0))
hIsland = hIsland.sub(rect(9.769325145200174e-09, -5.485553896613694e-10).transl(3.018563227688498e-08, 3.9422961152775586e-08, 0))
hIsland = hIsland.sub(rect(8.808957985333078e-09, -5.4333972647378e-10).transl(6.593256651050157e-09, 4e-08, 0))
hIsland = hIsland.add(rect(5.976265942647818e-09, 8.354094972494116e-10).transl(2.6781774419943605e-08, 3.9701355972571915e-08, 0))
hIsland = hIsland.add(rect(8.84461724310892e-09, 1.4708126364814305e-09).transl(7.699943934270494e-08, 2.292679006869152e-08, 0))
hIsland = hIsland.add(rect(2.2606113200880718e-09, 2.721377744964819e-09).transl(-1.5464942705681202e-08, 4e-08, 0))
hIsland = hIsland.sub(rect(6.472015300864268e-09, -1.08196125025419e-09).transl(-1.1230195161955804e-08, 4e-08, 0))
hIsland = hIsland.add(rect(3.5315526420512574e-09, 4.922494390279802e-10).transl(5.6327565202698065e-08, 3.386154518741428e-08, 0))
hIsland = hIsland.add(rect(4.378877030239068e-09, 1.332465604514075e-09).transl(8.013246120678133e-08, 2.021151475062563e-08, 0))
hIsland = hIsland.add(rect(9.1716998976217e-09, 5.946090686000158e-10).transl(8.740593286562646e-08, 1.0640252060218594e-08, 0))
hIsland = hIsland.sub(rect(9.17988418189709e-09, -2.1926978214781845e-09).transl(3.622196117961242e-08, 3.8697784935048e-08, 0))
hIsland = hIsland.sub(rect(9.624232258458232e-09, -4.084398629448399e-09).transl(-2.1659206276440573e-08, 3.9948308457160146e-08, 0))
hIsland = hIsland.sub(rect(8.319117811137258e-09, -1.4130085415029063e-09).transl(6.081435129908393e-08, 3.215957186600151e-08, 0))
hIsland = hIsland.add(rect(2.188930832329497e-09, 3.371530514567614e-09).transl(-3.5091022126364855e-08, 3.885672067437884e-08, 0))
hIsland = hIsland.sub(rect(4.125882157464156e-09, -1.2344442236311842e-09).transl(7.478442137598676e-08, 2.459254057958955e-08, 0))
hIsland = hIsland.add(rect(8.927810762874572e-09, 1.2252305047952288e-10).transl(-4.684326902704157e-09, 4e-08, 0))
hIsland = hIsland.sub(rect(5.881701380512817e-09, -1.787706222819905e-09).transl(-5.8992780991864166e-08, 3.288397066526346e-08, 0))
hIsland = hIsland.add(rect(7.282713834975792e-09, 6.80919493511828e-10).transl(-2.2729311349895316e-08, 3.991361665512806e-08, 0))
hIsland = hIsland.sub(rect(8.791976334561251e-09, -5.426409187935329e-11).transl(3.1923128522029954e-08, 3.924498274199462e-08, 0))
hIsland = hIsland.add(rect(5.538103178583522e-09, 1.3926036596932925e-09).transl(-3.9241388991200415e-08, 3.8219651858521386e-08, 0))
hIsland = hIsland.sub(rect(4.671506264790492e-09, -6.78709986125737e-10).transl(8.378955933054503e-08, 1.625162748823221e-08, 0))
hIsland = hIsland.add(rect(7.1834602052159495e-09, 2.660751727028956e-10).transl(-8.447381085350615e-09, 4e-08, 0))
hIsland = hIsland.sub(rect(8.891681043791523e-09, -1.0748588498668652e-10).transl(8.848012973925907e-08, 8.175379176036955e-09, 0))
hIsland = hIsland.sub(rect(7.733297649593544e-09, -4.172239319099864e-09).transl(-2.910348608224184e-08, 3.952149203094821e-08, 0))
hIsland = hIsland.add(rect(2.876579368184708e-09, 2.1786822440795483e-09).transl(-1.0481497348719113e-08, 4e-08, 0))
hIsland = hIsland.add(rect(3.832665546764693e-09, 1.1421854628100194e-09).transl(1.9391500143113845e-08, 3.999252911463711e-08, 0))
hIsland = hIsland.add(rect(3.7117762854372726e-09, 3.326342595944612e-09).transl(7.839435203017448e-08, 2.1776943314904038e-08, 0))
hIsland = hIsland.sub(rect(9.970754212570126e-09, -1.5501554949762875e-09).transl(4.170647517538354e-08, 3.776961935908981e-08, 0))
hIsland = hIsland.sub(rect(7.1006995877714296e-09, -2.5363808453543363e-09).transl(6.35325811550275e-08, 3.098577956075839e-08, 0))
hIsland = hIsland.add(rect(2.809169445908162e-09, 3.0405783883948444e-09).transl(-4.0313768766300713e-08, 3.803059085222257e-08, 0))
hIsland = hIsland.add(rect(8.278747616824294e-09, 7.144461562802625e-10).transl(3.766649728426552e-08, 3.847890589583771e-08, 0))
hIsland = hIsland.add(rect(3.334904281695014e-09, 1.016150154641139e-09).transl(-6.078867983375047e-08, 3.21701153307933e-08, 0))
hIsland = hIsland.add(rect(4.852547740009316e-09, 2.141291754504171e-09).transl(-2.6701149911377176e-08, 3.9706834588402845e-08, 0))
hIsland = hIsland.add(rect(8.317243979116662e-09, 1.2313979709993407e-10).transl(-6.454105514416221e-09, 4e-08, 0))
hIsland = hIsland.sub(rect(6.854490429213566e-09, -1.3037715566007804e-10).transl(8.759347327844332e-08, 1.0255207605789295e-08, 0))
hIsland = hIsland.sub(rect(4.489943646445697e-09, -1.9170429582019882e-10).transl(-2.403194769898488e-09, 4e-08, 0))
hIsland = hIsland.sub(rect(9.404997816121338e-09, -3.7091820754980017e-09).transl(3.467944125114638e-09, 4e-08, 0))
hIsland = hIsland.sub(rect(2.685875167033592e-09, -6.241593629624959e-10).transl(8.010674110559754e-08, 2.0235898223865194e-08, 0))
hIsland = hIsland.add(rect(4.318280669312714e-09, 1.004444636333372e-09).transl(-7.029955669200356e-08, 2.749161695919022e-08, 0))
hIsland = hIsland.sub(rect(6.7932993414235965e-09, -1.011834721738173e-09).transl(-8.058590185326063e-08, 1.977500674418912e-08, 0))
hIsland = hIsland.add(rect(9.27135009769948e-09, 8.936459213612772e-10).transl(8.1070174168216e-08, 1.9294286322342933e-08, 0))
hIsland = hIsland.add(rect(2.4292370422792137e-09, 2.738177836334588e-09).transl(-1.2021838324548239e-09, 4e-08, 0))
hIsland = hIsland.add(rect(6.672807008649747e-09, 1.6597432525539227e-09).transl(6.893473286225567e-08, 2.8271462884994278e-08, 0))
hIsland = hIsland.sub(rect(8.31301656089098e-09, -5.926329727524767e-10).transl(4.3648626745601826e-08, 3.73759179500998e-08, 0))
hIsland = hIsland.add(rect(5.145880164872475e-09, 2.770817970149815e-09).transl(5.649522701503556e-09, 4e-08, 0))
hIsland = hIsland.sub(rect(5.678463282923265e-09, -4.0791347472191044e-09).transl(8.118467221041063e-09, 4e-08, 0))
hIsland = hIsland.sub(rect(7.846270467830085e-09, -3.256225923868282e-10).transl(-8.62594851487971e-08, 1.2725044413092215e-08, 0))
hIsland = hIsland.add(rect(6.533365557645143e-09, 1.472917184727495e-09).transl(5.6325167104123715e-08, 3.3862382924073775e-08, 0))
hIsland = hIsland.sub(rect(3.810982974816314e-09, -1.4404658463704843e-09).transl(2.3393579778392956e-08, 3.988760945477557e-08, 0))
hIsland = hIsland.add(rect(6.757652809922581e-09, 9.008679719487857e-10).transl(2.9116584407228396e-08, 3.952035555800533e-08, 0))
hIsland = hIsland.sub(rect(2.878397919155863e-09, -2.694941829555492e-09).transl(-6.971007400320506e-08, 2.7833656277695426e-08, 0))
hIsland = hIsland.sub(rect(2.518232577858684e-09, -2.6033533241357964e-09).transl(1.9274106294334505e-08, 3.9993736597395254e-08, 0))
hIsland = hIsland.sub(rect(7.462608021669175e-09, -1.2417173000140086e-10).transl(-1.905351407515533e-08, 3.999571778040223e-08, 0))
hIsland = hIsland.add(rect(6.3137504821427325e-09, 4.995930044358837e-09).transl(-8.221159254455437e-08, 1.8095011444158807e-08, 0))
hIsland = hIsland.add(rect(9.510017647952528e-09, 2.866202613976872e-09).transl(-7.8635434721058e-08, 2.1569182807229907e-08, 0))
hIsland = hIsland.sub(rect(3.1066924390597333e-09, -1.77374184776877e-09).transl(6.189312200463775e-08, 3.170754593700886e-08, 0))
hIsland = hIsland.add(rect(4.446660535064979e-09, 1.2609529672219405e-09).transl(-3.305194355866974e-09, 4e-08, 0))
hIsland = hIsland.sub(rect(5.451728717799675e-09, -2.819238547123285e-10).transl(-7.343493008587276e-09, 4e-08, 0))
hIsland = hIsland.add(rect(8.558881183057636e-09, 1.459473289282626e-09).transl(1.6435681786854628e-08, 4e-08, 0))
hIsland = hIsland.add(rect(5.501467967300908e-09, 4.6132252455188736e-10).transl(5.056349234778152e-08, 3.567522814394064e-08, 0))
hIsland = hIsland.add(rect(3.1004862702660027e-09, 6.500367119889889e-10).transl(5.9109250644523e-08, 3.2839064697389245e-08, 0))
hIsland = hIsland.add(rect(3.3647573055848644e-09, 6.373400313430292e-10).transl(-5.6503485177146583e-08, 3.37998905561694e-08, 0))
hIsland = hIsland.sub(rect(3.0850295911715728e-09, -5.248283946272511e-10).transl(5.543168470770988e-08, 3.416946230632363e-08, 0))
hIsland = hIsland.add(rect(6.138477110598988e-09, 3.366059350814494e-09).transl(3.9913002682877964e-08, 3.8102446024250476e-08, 0))
hIsland = hIsland.add(rect(3.416914551828986e-09, 5.525030522041361e-10).transl(-4.811049279406883e-08, 3.633417525230092e-08, 0))
hIsland = hIsland.add(rect(2.3727082426108783e-09, 7.052541714830335e-10).transl(-4.940471444322516e-08, 3.5994443633017285e-08, 0))
hIsland = hIsland.add(rect(3.395803003894687e-09, 2.9261223119239517e-10).transl(6.426164998235942e-08, 3.0650658769377375e-08, 0))
hIsland = hIsland.add(rect(4.398375876702694e-09, 7.830073985229808e-10).transl(7.19955057881027e-08, 2.646034392877975e-08, 0))
hIsland = hIsland.add(rect(7.660626689028139e-09, 2.5486954312468e-09).transl(3.999339630100786e-08, 3.808814711106271e-08, 0))
hIsland = hIsland.sub(rect(8.096153646546124e-09, -1.5496978885561825e-09).transl(1.0827468693685413e-08, 4e-08, 0))
hIsland = hIsland.sub(rect(9.902331435022474e-09, -7.111103579949836e-10).transl(7.614388219237698e-08, 2.359174999395902e-08, 0))
hIsland = hIsland.add(rect(5.1477332712755934e-09, 1.0685911794018579e-09).transl(-4.466307186536943e-08, 3.7156162768754706e-08, 0))
hIsland = hIsland.sub(rect(3.1442825647777266e-09, -9.510556135659666e-10).transl(-1.5052441565885963e-10, 4e-08, 0))
hIsland = hIsland.sub(rect(7.398815038887304e-09, -2.6471285456094864e-11).transl(3.0278410996673394e-08, 3.941407525502634e-08, 0))
hIsland = hIsland.add(rect(6.229830488273017e-09, 8.158399695316667e-10).transl(3.225509778994499e-08, 3.920818204402309e-08, 0))
vIsland = hIsland.rotz(pi / 2)
hIslands = hIslands.add(hIsland.transl(-a/2, a, 0))
hIsland = rect(islandLength-2*ellipseConstant, islandWidth)
hIsland = hIsland.add(ellipse(ellipseConstant*2, islandWidth).transl(islandLength/2-ellipseConstant, 0, 0))
hIsland = hIsland.add(ellipse(ellipseConstant*2, islandWidth).transl(-islandLength/2+ellipseConstant, 0, 0))
hIsland = hIsland.sub(rect(7.524239051757702e-09, -2.311289456194381e-09).transl(8.46410697267197e-09, -4e-08, 0))
hIsland = hIsland.sub(rect(6.554427706581733e-09, -1.0352254281312382e-09).transl(8.165013806705085e-08, -1.869722964265824e-08, 0))
hIsland = hIsland.sub(rect(8.670649805440413e-09, -2.2201916241997595e-09).transl(-4.0882914547990905e-08, -3.792606607870883e-08, 0))
hIsland = hIsland.sub(rect(2.6929410836668435e-09, -3.631747842863786e-10).transl(-4.121952209714321e-08, -3.786286901266802e-08, 0))
hIsland = hIsland.sub(rect(3.37182282082327e-09, -1.5914484311760082e-11).transl(-4.1070220201245116e-08, -3.789102690231221e-08, 0))
hIsland = hIsland.add(rect(3.735954728251341e-09, 1.729625004599211e-09).transl(-5.078292855106515e-08, -3.561314604870433e-08, 0))
hIsland = hIsland.add(rect(8.848900791096964e-09, 1.4127070285896399e-09).transl(-8.746941240958008e-08, -1.0511615260808407e-08, 0))
hIsland = hIsland.add(rect(5.631909613748757e-09, 1.2508236041138262e-09).transl(-7.583135071023904e-08, -2.3827666219715896e-08, 0))
hIsland = hIsland.sub(rect(3.837559765541074e-09, -1.1433423879981925e-09).transl(3.661524074135734e-08, -3.8639968481368424e-08, 0))
hIsland = hIsland.sub(rect(8.83759343355137e-09, -1.0851017179821716e-09).transl(-7.418563855741226e-08, -2.501341627597096e-08, 0))
hIsland = hIsland.add(rect(5.87602222843248e-09, 2.6732437377409895e-09).transl(8.295421372312454e-08, -1.725758126131657e-08, 0))
hIsland = hIsland.add(rect(5.448997925543657e-09, 1.3905424157790715e-09).transl(1.1591790603612534e-08, -4e-08, 0))
hIsland = hIsland.sub(rect(8.277928357317636e-09, -1.7082470504416672e-10).transl(-1.6922149908504162e-08, -4e-08, 0))
hIsland = hIsland.add(rect(6.839329165040528e-09, 1.8541035039580591e-09).transl(-3.284065791869245e-08, -3.914106678169044e-08, 0))
hIsland = hIsland.add(rect(4.796214376176197e-09, 7.47003810878519e-10).transl(7.377651400760648e-08, -2.5294441913507934e-08, 0))
hIsland = hIsland.sub(rect(8.277241436629536e-09, -2.4394721165600015e-09).transl(-5.7584663155542616e-08, -3.341219579800013e-08, 0))
hIsland = hIsland.sub(rect(5.456349995672833e-09, -6.191860612244095e-10).transl(-3.288679945527262e-08, -3.9135658339895936e-08, 0))
hIsland = hIsland.sub(rect(7.524524713727721e-09, -3.5232828707676187e-09).transl(5.1331253261214865e-08, -3.545570857255167e-08, 0))
hIsland = hIsland.add(rect(4.830081999068139e-09, 6.077716488168984e-10).transl(7.258860408815345e-08, -2.6082042351833784e-08, 0))
hIsland = hIsland.add(rect(2.8073378700362944e-09, 1.9159417034216124e-10).transl(-2.5801072101847364e-08, -3.9764520113986175e-08, 0))
hIsland = hIsland.sub(rect(9.661540197531235e-09, -2.803716861946506e-09).transl(-5.857427361949726e-08, -3.304378091059399e-08, 0))
hIsland = hIsland.add(rect(6.834446275395461e-09, 9.510928973303277e-10).transl(-7.827506230910968e-08, -2.187871212688618e-08, 0))
hIsland = hIsland.add(rect(9.628738014083758e-09, 5.986767495156903e-10).transl(1.8898213804020634e-08, -3.999688727071619e-08, 0))
hIsland = hIsland.sub(rect(2.128581495360929e-09, -1.8270753037985418e-09).transl(-3.5549818524956477e-08, -3.879354928296036e-08, 0))
hIsland = hIsland.sub(rect(3.578865859958119e-09, -3.381401308998711e-10).transl(1.9237759596668076e-08, -3.999408888106079e-08, 0))
hIsland = hIsland.add(rect(3.5972321600826106e-09, 2.1005270248444043e-09).transl(-7.824701798106094e-08, -2.1902539626618483e-08, 0))
hIsland = hIsland.add(rect(4.4761476046837015e-09, 7.277877661561073e-10).transl(-6.441748692933185e-08, -3.057785503041208e-08, 0))
hIsland = hIsland.add(rect(3.0273792215559654e-09, 2.726959896188126e-10).transl(8.662786610384043e-08, -1.2098056088537725e-08, 0))
hIsland = hIsland.sub(rect(5.399126121088555e-09, -6.320420756723223e-10).transl(-4.656813041931687e-08, -3.6716556649626295e-08, 0))
hIsland = hIsland.add(rect(9.308365679420012e-09, 2.567926546233412e-10).transl(5.1822753578248724e-08, -3.531175677852227e-08, 0))
hIsland = hIsland.add(rect(3.107319281053967e-09, 5.584610662658921e-10).transl(4.044729271730288e-08, -3.8006330895889115e-08, 0))
hIsland = hIsland.sub(rect(9.575775697263245e-09, -2.662556679136996e-09).transl(-8.970758224829035e-08, -3.6013821122907236e-09, 0))
hIsland = hIsland.add(rect(7.649240365954048e-09, 3.975677529305583e-10).transl(1.9229383204995095e-08, -3.9994168621756046e-08, 0))
hIsland = hIsland.sub(rect(8.66563630062537e-09, -4.671913697659185e-10).transl(-6.3779791684907e-08, -3.08731508332464e-08, 0))
hIsland = hIsland.add(rect(8.065982413310238e-09, 2.9739514220891863e-09).transl(2.8028087433816317e-08, -3.9610127237351535e-08, 0))
hIsland = hIsland.add(rect(7.66775593155643e-09, 2.1985736018178664e-09).transl(8.206773113534064e-08, -1.825171924228761e-08, 0))
hIsland = hIsland.sub(rect(3.792250203706922e-09, -2.4056092877473226e-10).transl(-5.036840432434431e-08, -3.572998188356564e-08, 0))
hIsland = hIsland.add(rect(2.644525949635921e-09, 2.446315157712734e-10).transl(-1.588139861383916e-08, -4e-08, 0))
hIsland = hIsland.add(rect(6.36652858547862e-09, 2.453939182640513e-09).transl(8.523525652208346e-08, -1.4309414586398812e-08, 0))
hIsland = hIsland.add(rect(6.459799289921511e-09, 1.0598161705467305e-09).transl(-1.4422530401679142e-08, -4e-08, 0))
hIsland = hIsland.add(rect(6.781484628359344e-09, 5.255971995545827e-10).transl(4.1525179895845455e-08, -3.7804589794457425e-08, 0))
hIsland = hIsland.add(rect(2.497799422794584e-09, 1.490353652157579e-10).transl(-5.310325458545703e-08, -3.492390987149818e-08, 0))
hIsland = hIsland.sub(rect(4.298384178014279e-09, -6.326611139016587e-10).transl(-1.4032350519668334e-08, -4e-08, 0))
hIsland = hIsland.sub(rect(4.328685988743466e-09, -2.560928653052565e-10).transl(1.9903082220855274e-08, -3.998602486602819e-08, 0))
hIsland = hIsland.sub(rect(4.773025047926789e-09, -1.602642035468592e-09).transl(-3.532648992992233e-08, -3.8824521121864054e-08, 0))
hIsland = hIsland.sub(rect(5.012749097811919e-09, -1.4935058203020803e-09).transl(-8.891533039294898e-08, -6.916965974311317e-09, 0))
hIsland = hIsland.sub(rect(3.923524287080648e-09, -1.0537797918074295e-09).transl(-2.987286752518646e-08, -3.9452405365376696e-08, 0))
hIsland = hIsland.sub(rect(4.947773137891306e-09, -1.006404446855554e-10).transl(-2.574137649075303e-08, -3.9768120685396695e-08, 0))
hIsland = hIsland.add(rect(5.452280071226711e-09, 5.199697385393454e-10).transl(-4.200976744679025e-08, -3.7710442716327737e-08, 0))
hIsland = hIsland.sub(rect(4.973897415591387e-09, -3.4094253534756583e-11).transl(-6.865159916546415e-08, -2.8428030756811704e-08, 0))
hIsland = hIsland.add(rect(2.0591513223185703e-09, 4.5665798872054344e-10).transl(2.2258255180303826e-08, -3.992998217103073e-08, 0))
hIsland = hIsland.sub(rect(4.493789073152575e-09, -1.5376188202340213e-11).transl(-3.355497823034287e-08, -3.9055368469022266e-08, 0))
hIsland = hIsland.sub(rect(4.929529490663055e-09, -5.94046262816952e-10).transl(-6.891546040938024e-08, -2.8282175445540893e-08, 0))
hIsland = hIsland.sub(rect(8.678646456832213e-09, -4.321183216583018e-11).transl(-2.9446427542640737e-08, -3.949128399113975e-08, 0))
hIsland = hIsland.sub(rect(6.545385843400324e-09, -1.1208995617381243e-09).transl(7.609322108192934e-08, -2.3630238424566884e-08, 0))
hIsland = hIsland.add(rect(5.031899462348352e-09, 2.722938149242994e-09).transl(2.5746083702961187e-08, -3.976783778376568e-08, 0))
hIsland = hIsland.sub(rect(6.208414068130938e-09, -1.922474542092973e-09).transl(4.004678786120318e-08, -3.807861890344174e-08, 0))
hIsland = hIsland.sub(rect(3.2704202922201654e-09, -9.361746962761468e-10).transl(2.0729955886155503e-08, -3.997123711572634e-08, 0))
hIsland = hIsland.sub(rect(4.430746937018911e-09, -2.7535988642051054e-09).transl(-4.3096193386338884e-08, -3.749148494895364e-08, 0))
hIsland = hIsland.add(rect(2.5200284116370047e-09, 1.2543435113545665e-10).transl(7.902296376445391e-08, -2.122918656381248e-08, 0))
hIsland = hIsland.add(rect(9.789665936944768e-09, 3.4416992660853455e-09).transl(3.860560008982517e-08, -3.8326928792429187e-08, 0))
hIsland = hIsland.sub(rect(6.791273095960852e-09, -1.0598305342861697e-09).transl(7.193561226681957e-08, -2.649801838271866e-08, 0))
hIsland = hIsland.sub(rect(4.479828105387292e-09, -1.4059859623407404e-09).transl(-2.036872035497321e-08, -3.9978347395268484e-08, 0))
hIsland = hIsland.sub(rect(7.2364709486120255e-09, -3.993366455906052e-09).transl(-5.482856668320465e-08, -3.437114367172993e-08, 0))
hIsland = hIsland.sub(rect(9.677202045557546e-09, -2.5695023464682856e-09).transl(4.541188276974011e-09, -4e-08, 0))
hIsland = hIsland.sub(rect(7.530785840280846e-09, -4.1843117918516956e-10).transl(4.359490701158007e-08, -3.738728218055338e-08, 0))
hIsland = hIsland.add(rect(8.584897984845491e-09, 9.786220968447832e-10).transl(8.981771694879138e-08, -2.8445058729958357e-09, 0))
hIsland = hIsland.add(rect(4.119169618594919e-09, 5.440109239513377e-10).transl(-8.323497257757992e-08, -1.692757222646596e-08, 0))
hIsland = hIsland.add(rect(3.521769474451448e-09, 2.6969953472547976e-11).transl(-2.9628277500235085e-08, -3.9474883256840824e-08, 0))
hIsland = hIsland.add(rect(6.0227199899798745e-09, 1.0827437370506884e-09).transl(-4.9751118764284364e-08, -3.590052467555791e-08, 0))
hIsland = hIsland.sub(rect(4.372480619270587e-09, -2.1745101936661422e-09).transl(8.766145207216515e-08, -1.011175356929368e-08, 0))
hIsland = hIsland.add(rect(9.866076796090053e-09, 7.410703166784069e-10).transl(6.105236934365249e-08, -3.20613488597903e-08, 0))
hIsland = hIsland.add(rect(6.031778800792766e-09, 3.0924223035658853e-09).transl(2.6479176876709076e-08, -3.972165329621122e-08, 0))
hIsland = hIsland.sub(rect(7.660952946237513e-09, -3.3283225921561688e-09).transl(-3.198009901446097e-08, -3.92387313050223e-08, 0))
hIsland = hIsland.sub(rect(8.478871047705006e-09, -1.6699855505703613e-09).transl(6.37739829893269e-08, -3.087580898771609e-08, 0))
hIsland = hIsland.sub(rect(2.4557817396438353e-09, -7.532825910146203e-10).transl(-6.16487665726407e-08, -3.181148744628909e-08, 0))
hIsland = hIsland.add(rect(3.942703875948929e-09, 3.777371212688777e-10).transl(2.2753160948453552e-08, -3.991274225275952e-08, 0))
hIsland = hIsland.sub(rect(5.8076806288595306e-09, -4.925989547095544e-10).transl(-4.1108936198474153e-08, -3.788374463193834e-08, 0))
hIsland = hIsland.sub(rect(4.013922605811305e-09, -4.630528170999595e-09).transl(-7.656195932605705e-08, -2.327039739731099e-08, 0))
hIsland = hIsland.add(rect(6.822217404024364e-09, 3.938372670985566e-10).transl(-5.41962012967045e-09, -4e-08, 0))
hIsland = hIsland.sub(rect(2.838127407474138e-09, -1.911922993855439e-09).transl(-1.8630677439475868e-08, -3.999846542568442e-08, 0))
hIsland = hIsland.sub(rect(5.808946418579043e-09, -7.514375271435502e-10).transl(3.9291035922471765e-08, -3.821112479947098e-08, 0))
hIsland = hIsland.add(rect(6.64219142600399e-09, 3.8822197131207023e-10).transl(5.425730138480052e-08, -3.45580925126769e-08, 0))
hIsland = hIsland.sub(rect(7.483058914178389e-09, -1.1707188660614101e-09).transl(5.861907441833306e-08, -3.302678857222452e-08, 0))
hIsland = hIsland.sub(rect(5.302502420156783e-09, -5.227368192865392e-12).transl(-2.7084920877227655e-08, -3.968029727156836e-08, 0))
hIsland = hIsland.add(rect(8.035112470618374e-09, 3.263366694167404e-10).transl(-2.8566391014416337e-08, -3.9566912309022744e-08, 0))
hIsland = hIsland.sub(rect(7.611774347344261e-09, -1.6004131929042562e-09).transl(7.688944335195671e-08, -2.3013907910517743e-08, 0))
hIsland = hIsland.add(rect(9.474729270832232e-09, 3.183562835083847e-09).transl(-1.5777401170508574e-08, -4e-08, 0))
hIsland = hIsland.add(rect(3.4613055025842112e-09, 2.3553372108603808e-09).transl(4.620001189264209e-08, -3.680428437743962e-08, 0))
hIsland = hIsland.sub(rect(8.520069577804642e-09, -9.898166271386256e-10).transl(5.5933582847430837e-08, -3.399819935481107e-08, 0))
hIsland = hIsland.sub(rect(8.01008164858471e-09, -2.2447384582305143e-09).transl(2.9498771105311667e-08, -3.948659040654764e-08, 0))
hIsland = hIsland.add(rect(6.284175985545557e-09, 1.1709345793861813e-09).transl(-4.504424608024767e-08, -3.7071039385158736e-08, 0))
hIsland = hIsland.add(rect(2.990030884279358e-09, 1.3033879205496136e-09).transl(-5.841124011942388e-08, -3.310538574666164e-08, 0))
hIsland = hIsland.sub(rect(8.534616856889018e-09, -1.944409121045158e-09).transl(5.855847486706595e-08, -3.3049766610079636e-08, 0))
hIsland = hIsland.add(rect(2.6372717590092195e-09, 1.8529236966211349e-09).transl(1.8036795054762164e-08, -3.999999477671241e-08, 0))
hIsland = hIsland.sub(rect(6.63081222734551e-09, -1.573877825180758e-11).transl(-6.357089048997999e-08, -3.0968392588102124e-08, 0))
hIsland = hIsland.add(rect(4.267707309564322e-09, 1.4843280449096939e-09).transl(-5.288242762471761e-09, -4e-08, 0))
hIsland = hIsland.add(rect(9.256614037443013e-09, 2.224856718971016e-09).transl(-7.754295368004805e-08, -2.2488931894005697e-08, 0))
hIsland = hIsland.sub(rect(9.390579965823214e-09, -1.6942825231536694e-09).transl(3.7273433003423285e-08, -3.8540241836576174e-08, 0))
hIsland = hIsland.add(rect(9.407378169467072e-09, 1.2271758532566603e-09).transl(8.132977355154518e-08, -1.903002648439871e-08, 0))
hIsland = hIsland.add(rect(8.258875524597476e-09, 6.418185829640251e-10).transl(5.850118490682853e-08, -3.3071443526038474e-08, 0))
hIsland = hIsland.sub(rect(8.889374016173563e-09, -1.4193576420654028e-09).transl(-8.83352075982054e-08, -8.551921524699255e-09, 0))
hIsland = hIsland.add(rect(7.132881041272965e-09, 4.918867632389398e-10).transl(-5.681006231269702e-08, -3.369149736715361e-08, 0))
hIsland = hIsland.add(rect(4.477043727062094e-09, 1.9190815941311255e-09).transl(1.2902033774235104e-10, -4e-08, 0))
hIsland = hIsland.sub(rect(8.802516882259657e-09, -4.411197735231119e-09).transl(7.864020675256845e-08, -2.1565041762916754e-08, 0))
hIsland = hIsland.add(rect(2.25283088183285e-09, 1.689578200607951e-09).transl(1.0854275501843745e-08, -4e-08, 0))
hIsland = hIsland.add(rect(9.830281154303613e-09, 3.877363978878263e-09).transl(-3.5308130110762e-08, -3.882704857770989e-08, 0))
hIsland = hIsland.sub(rect(6.230697992804277e-09, -1.9917675481589086e-09).transl(-1.1415718545691246e-08, -4e-08, 0))
hIsland = hIsland.add(rect(7.463306477233442e-09, 1.1635823377831674e-09).transl(2.2631717234277937e-08, -3.9917148746264263e-08, 0))
hIsland = hIsland.add(rect(2.252278688128544e-09, 1.1494242607729005e-09).transl(-2.276827844621448e-08, -3.991218570943895e-08, 0))
hIsland = hIsland.sub(rect(3.935176419408403e-09, -2.629168440050046e-09).transl(2.500002146059286e-08, -3.9810506785003096e-08, 0))
hIsland = hIsland.sub(rect(2.4597637112782682e-09, -3.5647052427143614e-09).transl(8.406352296608098e-08, -1.5904915511922297e-08, 0))
hIsland = hIsland.sub(rect(3.1019392097100564e-09, -3.446493939508218e-09).transl(-2.205071322349959e-08, -3.993664628864383e-08, 0))
hIsland = hIsland.sub(rect(5.637281567954752e-09, -5.434709876934486e-11).transl(1.959841186474255e-09, -4e-08, 0))
hIsland = hIsland.sub(rect(6.218662462344124e-09, -4.506557383614493e-10).transl(-8.339132651127294e-08, -1.6740341024670055e-08, 0))
hIsland = hIsland.sub(rect(9.962427850659648e-09, -2.0073824784886883e-11).transl(-5.6170939586928867e-08, -3.391610642476152e-08, 0))
hIsland = hIsland.add(rect(6.71264891978845e-09, 7.273044812015134e-11).transl(1.2953697542567891e-08, -4e-08, 0))
hIsland = hIsland.sub(rect(3.981363509211327e-09, -2.106567781089247e-09).transl(-1.465861890411409e-08, -4e-08, 0))
hIsland = hIsland.sub(rect(4.58975449659342e-09, -2.8579736060243185e-11).transl(6.749523939914485e-09, -4e-08, 0))
hIsland = hIsland.sub(rect(6.957634769645223e-09, -1.3312306958251096e-09).transl(8.310022506814631e-08, -1.7086930028575924e-08, 0))
hIsland = hIsland.sub(rect(3.1198149526439113e-09, -3.5345128406541678e-09).transl(-2.8544840955462572e-08, -3.956868668290466e-08, 0))
hIsland = hIsland.sub(rect(8.356718717347251e-09, -2.431702965064465e-10).transl(8.781799072621745e-08, -9.77285499425997e-09, 0))
hIsland = hIsland.add(rect(5.385146782803708e-09, 7.094758446447124e-10).transl(3.235951369439659e-08, -3.919642040243385e-08, 0))
hIsland = hIsland.add(rect(4.271062256931976e-09, 2.869552618985858e-09).transl(-7.467968487212191e-08, -2.4667000265492877e-08, 0))
hIsland = hIsland.add(rect(4.371036516708305e-09, 2.43015226862712e-11).transl(4.6601386773277824e-08, -3.670856476004473e-08, 0))
hIsland = hIsland.sub(rect(6.884171814884376e-09, -1.7162267876138657e-09).transl(-4.94796212431174e-08, -3.5974242527522e-08, 0))
hIsland = hIsland.sub(rect(7.722016828833837e-09, -5.680653827708084e-10).transl(-2.8543225557587352e-08, -3.9568819541268294e-08, 0))
hIsland = hIsland.add(rect(6.543358542139329e-09, 2.4339471021570427e-10).transl(-5.545270140778413e-08, -3.4162353644933965e-08, 0))
hIsland = hIsland.add(rect(7.573000692261546e-09, 1.7476390572030415e-09).transl(-7.006290355333088e-08, -2.7629906824129024e-08, 0))
hIsland = hIsland.add(rect(3.5248315631810265e-09, 2.1095973046134413e-09).transl(-8.772939219085421e-08, -9.96617527424267e-09, 0))
hIsland = hIsland.sub(rect(6.319223450929629e-09, -1.6691715398865615e-09).transl(6.497940943988485e-08, -3.031183145465971e-08, 0))
hIsland = hIsland.sub(rect(6.9296606914520786e-09, -5.912419411090949e-10).transl(1.7295017635843922e-09, -4e-08, 0))
hIsland = hIsland.add(rect(4.284416837792584e-09, 1.5390245895763221e-09).transl(8.554959008414737e-08, -1.3844962531144112e-08, 0))
hIsland = hIsland.add(rect(7.132554015534345e-09, 1.9074559857440983e-09).transl(1.6875868280556777e-08, -4e-08, 0))
hIsland = hIsland.add(rect(7.833202198874844e-09, 6.148097579314654e-11).transl(3.734236892391183e-08, -3.852958124598733e-08, 0))
hIsland = hIsland.sub(rect(8.866753713166259e-09, -2.9810258494335764e-09).transl(-8.474308077910745e-08, -1.5003715261227173e-08, 0))
hIsland = hIsland.add(rect(3.8044620587874066e-09, 5.985853282529224e-11).transl(6.919407018587957e-08, -2.812651739557296e-08, 0))
hIsland = hIsland.add(rect(4.464726032836645e-09, 7.628565362233481e-10).transl(-1.3086670460920308e-08, -4e-08, 0))
hIsland = hIsland.add(rect(3.5224588270876052e-09, 1.5041934365266272e-09).transl(-1.697277571075864e-09, -4e-08, 0))
hIsland = hIsland.sub(rect(6.762494618736571e-09, -4.3679902631284e-09).transl(5.1271949377764026e-08, -3.5472896037294274e-08, 0))
hIsland = hIsland.sub(rect(5.259273103465257e-09, -2.4930775611453566e-09).transl(-5.878405864387242e-08, -3.296397472687707e-08, 0))
hIsland = hIsland.sub(rect(7.103801969948497e-09, -2.151777508493189e-09).transl(-3.5149644511018755e-08, -3.884874790689982e-08, 0))
hIsland = hIsland.add(rect(7.69469689314238e-09, 2.403714960720257e-09).transl(-5.126011142108525e-08, -3.547632225611979e-08, 0))
hIsland = hIsland.sub(rect(9.168146026142641e-09, -6.563702669332101e-10).transl(8.820882789500847e-08, -8.866647271092034e-09, 0))
hIsland = hIsland.sub(rect(4.8162795149476695e-09, -1.3236214661720591e-09).transl(1.698443371178534e-08, -4e-08, 0))
hIsland = hIsland.sub(rect(8.461883180663992e-09, -1.0362794430035981e-09).transl(8.694826131159323e-08, -1.152208376253809e-08, 0))
hIsland = hIsland.sub(rect(6.644001964521075e-09, -4.4482463434469846e-10).transl(-7.188372712212111e-08, -2.6530578394508436e-08, 0))
hIsland = hIsland.sub(rect(8.10956747666074e-09, -5.68045955088779e-10).transl(-6.811227254749935e-08, -2.8721524492520017e-08, 0))
hIsland = hIsland.sub(rect(2.6185269921709687e-09, -2.355382078835446e-09).transl(2.4486164531252604e-08, -3.9837360983706594e-08, 0))
hIsland = hIsland.add(rect(7.159740839879895e-09, 4.5939265039865955e-09).transl(-8.438863039798036e-08, -1.54814679524609e-08, 0))
hIsland = hIsland.sub(rect(4.043496517103393e-09, -1.798641842655208e-09).transl(6.07059829586473e-09, -4e-08, 0))
hIsland = hIsland.add(rect(3.0133655039026676e-09, 2.0408356830324763e-09).transl(5.434769177795534e-08, -3.452877357290582e-08, 0))
hIsland = hIsland.add(rect(7.240051246340078e-09, 1.0879363518552352e-09).transl(5.32069869263978e-08, -3.489166687261477e-08, 0))
hIsland = hIsland.add(rect(7.41819403482677e-09, 1.9283141146058758e-11).transl(3.2390498544737576e-08, -3.9192913001161806e-08, 0))
hIsland = hIsland.sub(rect(7.026502024331738e-09, -5.99726673245513e-10).transl(7.579552102325307e-08, -2.3854482649698948e-08, 0))
hIsland = hIsland.add(rect(3.0046167095669597e-09, 1.2433149075142063e-10).transl(7.516241662814028e-08, -2.4320761118179787e-08, 0))
hIsland = hIsland.add(rect(7.53679669717082e-09, 8.709929684874487e-10).transl(7.053065868735587e-09, -4e-08, 0))
hIsland = hIsland.sub(rect(7.763199405285426e-09, -9.66476254127235e-10).transl(4.691559351366725e-08, -3.663251124575659e-08, 0))
hIsland = hIsland.sub(rect(8.172333307243239e-09, -1.6776681396548693e-09).transl(-6.317225562011322e-09, -4e-08, 0))
hIsland = hIsland.sub(rect(4.555210697630472e-09, -2.561243699061792e-10).transl(8.933938653658576e-08, -5.406098767487473e-09, 0))
hIsland = hIsland.sub(rect(4.5711312433081135e-09, -1.7037000424748226e-09).transl(5.885807069515388e-08, -3.293567458253635e-08, 0))
hIsland = hIsland.sub(rect(6.0224199104663865e-09, -2.8879906111434226e-09).transl(-4.249898103228917e-08, -3.761320332429387e-08, 0))
hIsland = hIsland.sub(rect(3.959891749076449e-09, -6.275612450594992e-10).transl(-4.745475764163435e-08, -3.649969242333024e-08, 0))
hIsland = hIsland.sub(rect(3.013918939339906e-09, -1.2551527126386994e-09).transl(3.890774945205067e-08, -3.8276390931376574e-08, 0))
hIsland = hIsland.sub(rect(7.189929563216287e-09, -2.374295402259128e-10).transl(-4.467837515956913e-11, -4e-08, 0))
hIsland = hIsland.sub(rect(6.121634762199468e-09, -3.6499197522165727e-10).transl(-1.4985384789602315e-08, -4e-08, 0))
hIsland = hIsland.sub(rect(8.519147652241588e-09, -2.6272195748948176e-10).transl(-7.10442734233523e-08, -2.704765488675567e-08, 0))
hIsland = hIsland.sub(rect(2.5595449717978184e-09, -1.3792358626706809e-09).transl(-3.532992295591851e-08, -3.882404820779688e-08, 0))
hIsland = hIsland.sub(rect(8.794663468850797e-09, -1.0566431523084135e-09).transl(4.202208907935728e-08, -3.7708020711875476e-08, 0))
hIsland = hIsland.add(rect(9.744352059033151e-09, 1.46863707690748e-09).transl(-5.375946333659401e-08, -3.471782541886e-08, 0))
hIsland = hIsland.sub(rect(6.436494986102899e-09, -7.173532109132214e-10).transl(-6.764110168823813e-08, -2.897296005866698e-08, 0))
hIsland = hIsland.add(rect(9.78141211049945e-09, 1.2955691306924223e-09).transl(3.117680193450393e-08, -3.9324433592880656e-08, 0))
hIsland = hIsland.sub(rect(6.181026937164577e-09, -5.209467885015825e-10).transl(-6.962100707695352e-08, -2.7884636840317532e-08, 0))
hIsland = hIsland.sub(rect(5.396450109423525e-09, -1.7497457681167482e-09).transl(-6.127498058212885e-08, -3.196871568577076e-08, 0))
hIsland = hIsland.sub(rect(8.316577232352101e-09, -7.244435069079739e-10).transl(-8.273318488857207e-08, -1.7512030910187603e-08, 0))
hIsland = hIsland.sub(rect(2.9432434086336655e-09, -3.94624288238447e-10).transl(6.895457955256719e-08, -2.826042265188727e-08, 0))
hIsland = hIsland.sub(rect(9.158610038087208e-09, -2.626255385425397e-09).transl(-4.43984081261945e-08, -3.721444383238814e-08, 0))
hIsland = hIsland.add(rect(5.530540117126589e-09, 1.1878209988142753e-09).transl(-8.145050760269781e-08, -1.8905491763368953e-08, 0))
hIsland = hIsland.sub(rect(4.38477260661549e-09, -1.900270362501479e-09).transl(2.5866214963941424e-08, -3.9760559053116665e-08, 0))
hIsland = hIsland.sub(rect(9.092738731212574e-09, -2.753755820143461e-10).transl(-6.11689131357213e-08, -3.2012945581091835e-08, 0))
hIsland = hIsland.add(rect(7.943377379164324e-09, 2.9495178693117772e-09).transl(-7.30962564072955e-08, -2.5750479618579892e-08, 0))
hIsland = hIsland.add(rect(6.248980478622341e-09, 6.013866701053089e-10).transl(-4.380914853501483e-08, -3.7341797370139736e-08, 0))
hIsland = hIsland.sub(rect(9.233970511419469e-09, -4.515007394692028e-10).transl(6.788888006211832e-08, -2.884130507519744e-08, 0))
hIsland = hIsland.sub(rect(2.8296007653486895e-09, -4.893623068204973e-09).transl(2.1848512939354393e-08, -3.9942817723620254e-08, 0))
hIsland = hIsland.add(rect(2.237949378274963e-09, 1.6335873756513836e-09).transl(7.644076578006974e-08, -2.3364244703555097e-08, 0))
hIsland = hIsland.sub(rect(2.0417014114948274e-09, -5.796331255599779e-10).transl(-2.151908629182722e-08, -3.995219377647086e-08, 0))
hIsland = hIsland.add(rect(4.483283471766355e-09, 3.564683613072467e-10).transl(-8.16523137210979e-08, -1.8694943512827718e-08, 0))
hIsland = hIsland.add(rect(5.282802750994667e-09, 9.87501666637506e-10).transl(2.1617859418613113e-08, -3.994947075943557e-08, 0))
hIsland = hIsland.sub(rect(2.5761377348324646e-09, -1.5117431639639527e-09).transl(6.569942989378375e-08, -2.996275665489571e-08, 0))
hIsland = hIsland.add(rect(6.328693101475129e-09, 2.575668659841574e-09).transl(1.1551125390952397e-09, -4e-08, 0))
hIsland = hIsland.add(rect(3.395534697855885e-09, 1.2124741172119487e-09).transl(4.774806150646834e-09, -4e-08, 0))
hIsland = hIsland.sub(rect(6.594580992517829e-09, -2.3227232019021947e-09).transl(2.7749492599060363e-08, -3.963158810777979e-08, 0))
hIsland = hIsland.sub(rect(8.881577725347467e-09, -1.0298109397393827e-09).transl(-6.383159546046531e-08, -3.084941951525951e-08, 0))
hIsland = hIsland.sub(rect(4.586580374495208e-09, -5.515017367681602e-09).transl(-7.6034654090322e-08, -2.3674613458566824e-08, 0))
hIsland = hIsland.sub(rect(2.143197676632359e-09, -1.0561961544644376e-09).transl(1.8111303167828034e-08, -3.9999952205237e-08, 0))
hIsland = hIsland.sub(rect(6.680193953367711e-09, -3.9554594700020186e-09).transl(4.845673475893761e-08, -3.624499670803332e-08, 0))
hIsland = hIsland.sub(rect(2.6803536550991947e-09, -6.312637560802864e-10).transl(-7.636319502761386e-08, -2.3424013386661368e-08, 0))
hIsland = hIsland.sub(rect(9.269225774699923e-09, -3.335660323864777e-10).transl(-8.123595943450152e-09, -4e-08, 0))
hIsland = hIsland.sub(rect(9.114333335339346e-09, -6.287019034800569e-10).transl(-5.245583301272954e-08, -3.5122341608460395e-08, 0))
hIsland = hIsland.add(rect(4.169859933916456e-09, 2.9319180141046506e-10).transl(-7.369521879802509e-08, -2.5349669458970225e-08, 0))
hIsland = hIsland.add(rect(4.715559172031903e-09, 1.365023129965572e-09).transl(-6.511855015500217e-08, 3.024510077299606e-08, 0))
hIsland = hIsland.sub(rect(5.669490446687737e-09, -3.621166788091093e-09).transl(4.5067241310040307e-08, 3.706585916996154e-08, 0))
hIsland = hIsland.sub(rect(5.975707348108677e-09, -1.131228445939966e-11).transl(7.591199583848851e-08, 2.3767136364916713e-08, 0))
[...]
hIsland = hIsland.sub(rect(6.4129894322799905e-09, -1.4854213534702622e-09).transl(1.1592151674095005e-10, 4e-08, 0))
hIsland = hIsland.sub(rect(9.009047002731372e-09, -9.663984629154325e-10).transl(7.785052916854056e-08, 2.2235511014497198e-08, 0))
hIsland = hIsland.sub(rect(3.928412086257307e-09, -2.0514789126337466e-10).transl(6.727683368668374e-08, 2.9164252078968015e-08, 0))
hIsland = hIsland.add(rect(3.5817927789643503e-09, 3.3249566254500957e-09).transl(1.8470308004549955e-09, 4e-08, 0))
hIsland = hIsland.add(rect(2.239514070725002e-09, 2.0180773607907718e-09).transl(5.868624879117245e-08, 3.300125867082792e-08, 0))
hIsland = hIsland.sub(rect(3.09283511739934e-09, -4.310702530773982e-10).transl(-2.9216246626319343e-08, 3.9511663427341924e-08, 0))
hIsland = hIsland.sub(rect(2.5350473816774707e-09, -1.8370071221754466e-09).transl(-4.656633169261211e-08, 3.671698859001988e-08, 0))
hIsland = hIsland.sub(rect(2.6854493221632323e-09, -2.128035723479546e-09).transl(-4.818329511145339e-08, 3.631552696618574e-08, 0))
hIsland = hIsland.add(rect(3.8800525527229736e-09, 3.3744622286180783e-09).transl(-8.742726534602356e-08, 1.0597210595200233e-08, 0))
hIsland = hIsland.sub(rect(8.255245373285022e-09, -3.0596300051345424e-10).transl(6.138377623653196e-08, 3.192317146487937e-08, 0))
hIsland = hIsland.add(rect(8.546719824982774e-09, 5.791100702054382e-10).transl(6.96285996066113e-08, 2.788029804969045e-08, 0))
hIsland = hIsland.sub(rect(7.829858602146376e-09, -9.043574247646319e-10).transl(5.292503484846467e-09, 4e-08, 0))
hIsland = hIsland.sub(rect(3.614869547474733e-09, -1.818840422368372e-09).transl(2.4445992920695277e-09, 4e-08, 0))
hIsland = hIsland.add(rect(8.319644660585102e-09, 3.7069523317979593e-10).transl(-2.3198261953899336e-08, 3.989561252780457e-08, 0))
hIsland = hIsland.add(rect(7.205967282682595e-09, 1.5515642250754052e-09).transl(-1.1600610707162913e-08, 4e-08, 0))
hIsland = hIsland.sub(rect(9.907836458860924e-09, -2.7165358618444254e-09).transl(1.1288230752643158e-08, 4e-08, 0))
hIsland = hIsland.add(rect(9.699650039631845e-09, 6.253144657674153e-10).transl(7.089280110251755e-08, 2.7139054312753644e-08, 0))
hIsland = hIsland.add(rect(8.540691405822567e-09, 4.465922451038905e-09).transl(3.484798019835463e-08, 3.8889466516487354e-08, 0))
hIsland = hIsland.add(rect(4.397394876163123e-09, 2.6196801256907135e-10).transl(1.762007268429942e-08, 4e-08, 0))
hIsland = hIsland.sub(rect(2.0142376305221986e-09, -2.7868591469231977e-09).transl(1.0730778553139256e-08, 4e-08, 0))
hIsland = hIsland.add(rect(4.487532064248277e-09, 3.4472093596095895e-09).transl(7.289483944289007e-08, 2.5882907049382058e-08, 0))
hIsland = hIsland.add(rect(2.6436889371310202e-09, 1.7273819765585992e-09).transl(-3.216788796811758e-08, 3.9217937090922466e-08, 0))
hIsland = hIsland.add(rect(6.910221999796874e-09, 2.0935758472192593e-10).transl(8.962370517997544e-08, 4.084178154931851e-09, 0))
hIsland = hIsland.sub(rect(6.247228901331919e-09, -1.7402659271852924e-09).transl(6.806922370207082e-08, 2.8744687313065753e-08, 0))
hIsland = hIsland.add(rect(9.482780613481587e-09, 1.4373986158707531e-09).transl(5.32400461884449e-08, 3.488136483198527e-08, 0))
hIsland = hIsland.sub(rect(2.1173433224849465e-09, -4.322981611097594e-09).transl(1.2589210967651023e-08, 4e-08, 0))
hIsland = hIsland.sub(rect(4.646584158378393e-09, -3.1465893378712647e-09).transl(-1.788156895793457e-08, 4e-08, 0))
hIsland = hIsland.sub(rect(7.444411873101288e-09, -4.204084806201087e-10).transl(-7.877356729052786e-08, 2.1448859064764944e-08, 0))
hIsland = hIsland.add(rect(7.520202440654065e-09, 1.7080489409193492e-09).transl(-8.135722799411278e-08, 1.900180027941159e-08, 0))
hIsland = hIsland.sub(rect(9.835026758374351e-09, -2.424274010024034e-09).transl(-7.879117806591202e-08, 2.143345047314469e-08, 0))
hIsland = hIsland.sub(rect(7.0841587045475694e-09, -3.511442170048386e-09).transl(5.396157200204209e-08, 3.46533331691941e-08, 0))
hIsland = hIsland.add(rect(8.89785308140565e-09, 1.881273217816473e-09).transl(7.101274152565164e-08, 2.7066728447831623e-08, 0))
hIsland = hIsland.add(rect(7.674822507112774e-09, 7.939785004012099e-11).transl(-1.6414873798515186e-08, 4e-08, 0))
hIsland = hIsland.add(rect(9.750222584695145e-09, 3.5248662577136267e-10).transl(6.755007364972784e-08, 2.9021013041141753e-08, 0))
hIsland = hIsland.sub(rect(4.600522633359745e-09, -7.26958434151086e-10).transl(1.9800977652795417e-08, 3.9987484459817104e-08, 0))
hIsland = hIsland.sub(rect(3.671888850106566e-09, -2.8515713937484365e-09).transl(8.589408866758763e-08, 1.3314717606377428e-08, 0))
hIsland = hIsland.add(rect(6.1023671872073195e-09, 1.2166421856125038e-10).transl(-3.6311772303475475e-09, 4e-08, 0))
hIsland = hIsland.add(rect(7.379378363031867e-09, 1.982042585515459e-09).transl(7.387988510307769e-08, 2.5223925792118634e-08, 0))
hIsland = hIsland.add(rect(9.40240765329447e-09, 1.617123957669929e-09).transl(-9.206828009438974e-09, 4e-08, 0))
hIsland = hIsland.add(rect(7.661616390095028e-09, 3.070463333509271e-10).transl(-5.387419555858665e-08, 3.4681274045973844e-08, 0))
hIsland = hIsland.add(rect(4.878662079997378e-09, 3.4638464670600145e-10).transl(-3.9966077276280816e-08, 3.809301258425995e-08, 0))
hIsland = hIsland.add(rect(2.2940668336932575e-09, 1.961193767219358e-09).transl(4.459909265810244e-09, 4e-08, 0))
hIsland = hIsland.sub(rect(7.778310359079661e-09, -1.1655244805723517e-09).transl(-1.7067616974889859e-09, 4e-08, 0))
hIsland = hIsland.add(rect(6.7555446339421395e-09, 1.986090588994995e-10).transl(-8.891057597715625e-08, 6.9319936069396384e-09, 0))
hIsland = hIsland.sub(rect(2.3307316281031767e-09, -8.148369198179984e-10).transl(5.253006564725486e-08, 3.5099833660030525e-08, 0))
hIsland = hIsland.sub(rect(4.038017934761304e-09, -1.7274373578564655e-09).transl(7.618063963926365e-08, 2.356376410412782e-08, 0))
hIsland = hIsland.add(rect(8.658392646116729e-09, 1.3475396830574636e-09).transl(6.272405169475757e-08, 3.13471167477409e-08, 0))
hIsland = hIsland.add(rect(8.891818778078666e-09, 2.859151176976404e-09).transl(7.263337346238453e-08, 2.6053094553994708e-08, 0))
hIsland = hIsland.add(rect(8.099458111338169e-09, 2.4285909818229808e-09).transl(-1.2695756894591013e-08, 4e-08, 0))
hIsland = hIsland.sub(rect(2.5518125017359106e-09, -2.802482020469462e-10).transl(-2.6767830804008793e-08, 3.970230714053739e-08, 0))
hIsland = hIsland.add(rect(4.243102735325165e-09, 1.3391798744084927e-09).transl(-4.2551989592208865e-08, 3.760253392706166e-08, 0))
hIsland = hIsland.add(rect(6.328540173206584e-09, 2.8169597235499905e-09).transl(-4.602925392193143e-08, 3.684452203357621e-08, 0))
hIsland = hIsland.sub(rect(7.306244373272502e-09, -1.8387248454968855e-09).transl(1.441724397829817e-08, 4e-08, 0))
hIsland = hIsland.add(rect(8.526111113862538e-09, 2.010904348491622e-09).transl(8.741975758232879e-08, 1.0612380046446595e-08, 0))
hIsland = hIsland.add(rect(4.580577517684458e-09, 1.9592104543555196e-09).transl(-8.503217538773783e-08, 1.4600518581052718e-08, 0))
hIsland = hIsland.sub(rect(9.75680843686817e-09, -2.509257006478851e-10).transl(6.137207316873463e-08, 3.192807923337535e-08, 0))
hIsland = hIsland.sub(rect(9.347554247392894e-09, -9.660436196074998e-10).transl(5.519053102555692e-08, 3.425063936520058e-08, 0))
hIsland = hIsland.sub(rect(4.215576401957889e-09, -1.9944626035775753e-09).transl(-5.970007316881781e-09, 4e-08, 0))
hIsland = hIsland.add(rect(6.26280921085947e-09, 3.2545302052726817e-09).transl(3.3325077462630235e-08, 3.9083410332248176e-08, 0))
hIsland = hIsland.sub(rect(2.536762075986582e-09, -1.1168713457126374e-09).transl(2.139509254110658e-08, 3.9955505139310213e-08, 0))
hIsland = hIsland.sub(rect(3.050409445788055e-09, -7.419463028306216e-10).transl(-8.23238260148327e-08, 1.7971560238654407e-08, 0))
hIsland = hIsland.sub(rect(8.886187129141832e-09, -1.969369881077743e-09).transl(-2.0231391028713894e-09, 4e-08, 0))
hIsland = hIsland.sub(rect(6.7561054731991976e-09, -1.0934795883577697e-09).transl(-6.556850888840676e-09, 4e-08, 0))
hIsland = hIsland.add(rect(6.957615415543829e-09, 1.641464279569614e-09).transl(-5.133545058614404e-08, 3.545449062704287e-08, 0))
hIsland = hIsland.sub(rect(5.871101335684714e-09, -1.926242914500622e-09).transl(-7.383542875594128e-08, 2.5254292482226494e-08, 0))
hIsland = hIsland.sub(rect(8.963186713014192e-09, -3.2636270960271687e-09).transl(-1.0928653546789232e-08, 4e-08, 0))
hIsland = hIsland.sub(rect(3.5944241280008476e-09, -3.2059136486593736e-09).transl(9.78051386469911e-09, 4e-08, 0))
hIsland = hIsland.sub(rect(7.694333031853188e-09, -2.5509749372153267e-09).transl(8.383547293967966e-08, 1.6194139532184872e-08, 0))
hIsland = hIsland.sub(rect(9.786071977746893e-09, -1.4132617241414945e-09).transl(-6.990831153740917e-08, 2.771953445741069e-08, 0))
hIsland = hIsland.sub(rect(6.083381429050823e-09, -2.996210281590155e-09).transl(5.209574148855543e-08, 3.5230635221797495e-08, 0))
hIsland = hIsland.add(rect(8.27448761992468e-09, 3.0861191971260175e-09).transl(-1.96494380807599e-08, 3.998950230310349e-08, 0))
hIsland = hIsland.add(rect(7.776291295221166e-09, 1.7653046342185961e-09).transl(-6.726424743713923e-08, 2.9170814120211006e-08, 0))
hIsland = hIsland.add(rect(3.0992044992115046e-09, 4.4340987512047e-09).transl(-5.633748552313849e-08, 3.3858078907910664e-08, 0))
hIsland = hIsland.add(rect(6.1650631061670115e-09, 3.4309383158226454e-09).transl(6.028867234438943e-08, 3.237353453163e-08, 0))
hIsland = hIsland.add(rect(3.87370811236087e-09, 3.2715795522251992e-09).transl(3.484235210730914e-08, 3.889021892762639e-08, 0))
hIsland = hIsland.sub(rect(6.942861148714507e-09, -2.34187159283192e-09).transl(-1.6445258028244177e-08, 4e-08, 0))
hIsland = hIsland.sub(rect(8.274798024589808e-09, -1.1604333446167494e-09).transl(-2.2838765336676252e-08, 3.990956733441159e-08, 0))
hIsland = hIsland.sub(rect(6.58911714575683e-09, -1.1644771969519837e-10).transl(5.609864739479845e-08, 3.394118490754308e-08, 0))
hIsland = hIsland.add(rect(2.992690231800947e-09, 2.2027133942488924e-09).transl(-3.5879505368803206e-08, 3.874705599237464e-08, 0))
hIsland = hIsland.add(rect(3.783275217997468e-09, 4.170442439594579e-09).transl(4.7452123158799e-08, 3.650034855845298e-08, 0))
hIsland = hIsland.sub(rect(2.355944673389881e-09, -1.775032140560963e-09).transl(8.264555289511051e-08, 1.7611658691850446e-08, 0))
hIsland = hIsland.add(rect(5.402458998554403e-09, 7.684263491353251e-10).transl(-5.1275841614903734e-08, 3.5471769181914405e-08, 0))
hIsland = hIsland.sub(rect(3.349374700343129e-09, -2.3893785927973615e-09).transl(-5.079947770755714e-08, 3.56084427068878e-08, 0))
hIsland = hIsland.sub(rect(6.536092028592976e-09, -2.2348031787971506e-09).transl(-4.714713174552795e-09, 4e-08, 0))
hIsland = hIsland.sub(rect(7.708846140894311e-09, -3.5751258013552136e-09).transl(-4.994496910652491e-08, 3.58474087290476e-08, 0))
hIsland = hIsland.sub(rect(2.165118880267546e-09, -1.7451865132669554e-09).transl(-5.2357230428336274e-08, 3.515214162598451e-08, 0))
hIsland = hIsland.add(rect(3.7458394783107315e-09, 8.692433922686006e-10).transl(-6.348196292522208e-08, 3.100871566283016e-08, 0))
hIsland = hIsland.sub(rect(2.5270502416812236e-09, -1.6501244586082922e-10).transl(1.5461052077694347e-08, 4e-08, 0))
hIsland = hIsland.sub(rect(6.983483369717836e-09, -2.121332120324323e-09).transl(1.4216094521397057e-08, 4e-08, 0))
hIsland = hIsland.sub(rect(4.82359890179302e-09, -1.318920884077791e-09).transl(-8.39409233247664e-08, 1.606117386395058e-08, 0))
hIsland = hIsland.sub(rect(6.462985764523135e-09, -3.960240795765549e-10).transl(6.946986296723251e-08, 2.7970736505475452e-08, 0))
hIsland = hIsland.sub(rect(9.87380306257262e-09, -1.1479965262219998e-09).transl(7.790973499856407e-08, 2.2186246242801945e-08, 0))
hIsland = hIsland.add(rect(2.7965723038963395e-09, 8.631381338830817e-10).transl(-2.0812037506175418e-08, 3.996948081504999e-08, 0))
hIsland = hIsland.add(rect(4.678848949063157e-09, 1.8881881464361247e-09).transl(-1.659333725165644e-08, 4e-08, 0))
hIsland = hIsland.add(rect(6.265635413843753e-09, 1.4639184109551535e-09).transl(4.801400727652986e-08, 3.635880591625202e-08, 0))
hIsland = hIsland.sub(rect(2.466684884055562e-09, -2.824083765910497e-09).transl(6.956948458296782e-08, 2.791404498384638e-08, 0))
hIsland = hIsland.sub(rect(5.654536811350098e-09, -4.22580850294812e-09).transl(-7.997038901057018e-08, 2.0364509234997174e-08, 0))
hIsland = hIsland.add(rect(9.548387769445305e-09, 7.022166477850649e-10).transl(-4.2005629086747625e-08, 3.771125586034837e-08, 0))
hIsland = hIsland.add(rect(5.750574078101514e-09, 1.9442531865191708e-09).transl(4.688391610419707e-08, 3.6640223589899265e-08, 0))
hIsland = hIsland.add(rect(5.02951306209599e-09, 1.878740099009039e-09).transl(-8.178602184702077e-08, 1.855375421172746e-08, 0))
hIsland = hIsland.sub(rect(2.485042050846686e-09, -6.889541720494275e-10).transl(7.34913650651126e-08, 2.5487278375996844e-08, 0))
hIsland = hIsland.sub(rect(6.419421278773942e-09, -4.143457576412273e-10).transl(-7.997192846092981e-08, 2.0363063290023878e-08, 0))
hIsland = hIsland.add(rect(8.458388971719537e-09, 1.558682338011238e-09).transl(8.913984514767967e-08, 6.164474894885912e-09, 0))
hIsland = hIsland.add(rect(4.548309565816785e-09, 2.586620489478234e-09).transl(-5.362355077026264e-08, 3.4760923456415155e-08, 0))
hIsland = hIsland.sub(rect(7.869167975022871e-09, -4.240622099733088e-09).transl(-6.090204795373489e-09, 4e-08, 0))
hIsland = hIsland.sub(rect(4.490565593985036e-09, -2.92408304745949e-09).transl(3.8463358821429305e-08, 3.835044282320928e-08, 0))
hIsland = hIsland.add(rect(7.880257597754856e-09, 2.625854645596592e-10).transl(6.593783200739313e-08, 2.984509525243366e-08, 0))
hIsland = hIsland.add(rect(6.276550681941606e-09, 8.302952211423952e-11).transl(4.647348562180459e-08, 3.673924053692323e-08, 0))
hIsland = hIsland.sub(rect(8.303032886117852e-09, -2.245251405564524e-09).transl(-7.278172674494929e-08, 2.5956768514999477e-08, 0))
hIsland = hIsland.add(rect(8.030233077061371e-09, 1.3285675791764204e-09).transl(8.202325395498082e-08, 1.8299825886441783e-08, 0))
hIsland = hIsland.add(rect(9.30374801377814e-09, 9.802132798642631e-11).transl(5.012653946096497e-08, 3.579729222061503e-08, 0))
hIsland = hIsland.sub(rect(4.4109184477668765e-09, -5.2069350134858935e-09).transl(-7.805776490327874e-08, 2.2062375623560873e-08, 0))
hIsland = hIsland.add(rect(9.28918956613203e-09, 5.896393576955463e-10).transl(2.2433065055618814e-08, 3.992410985352707e-08, 0))
hIsland = hIsland.add(rect(2.6729366822971175e-09, 1.1805282141080376e-09).transl(-7.20403713470052e-08, 2.643205980233808e-08, 0))
hIsland = hIsland.add(rect(3.5131479076102574e-09, 3.6528353504779267e-10).transl(-1.2569407634299913e-09, 4e-08, 0))
hIsland = hIsland.add(rect(2.6787870966210167e-09, 2.802844181337482e-09).transl(5.269782080667897e-08, 3.5048736928279984e-08, 0))
hIsland = hIsland.add(rect(6.572358035813286e-09, 1.3112875642474788e-09).transl(-4.6821475912771137e-08, 3.665539610541569e-08, 0))
hIsland = hIsland.add(rect(4.109099809387044e-09, 2.0413063000421956e-09).transl(4.947057675622369e-08, 3.597668483100143e-08, 0))
hIsland = hIsland.sub(rect(5.927494488741368e-09, -1.3464233518767763e-11).transl(9.797472536584503e-10, 4e-08, 0))
hIsland = hIsland.sub(rect(5.633711697209587e-09, -3.700069707396251e-09).transl(-4.364863818047593e-08, 3.737591552818569e-08, 0))
hIsland = hIsland.sub(rect(4.369608103552887e-09, -1.7130053626974765e-10).transl(-5.940841747398529e-08, 3.272284927856151e-08, 0))
hIsland = hIsland.add(rect(8.951849505193344e-09, 1.959496470935757e-09).transl(7.463456132465317e-08, 2.4698968236835893e-08, 0))
hIsland = hIsland.add(rect(8.713216904787633e-09, 2.1561158371222902e-09).transl(1.4101572966119783e-08, 4e-08, 0))
hIsland = hIsland.sub(rect(2.1192536072620287e-09, -4.421231101258513e-09).transl(5.787003225329931e-08, 3.330730709934603e-08, 0))
hIsland = hIsland.sub(rect(3.4549613570926873e-09, -2.06263845702824e-09).transl(1.531721291828068e-08, 4e-08, 0))
hIsland = hIsland.add(rect(4.113599498323251e-09, 3.701449382810321e-09).transl(8.221826174547041e-08, 1.808770520961899e-08, 0))
hIsland = hIsland.add(rect(8.596382587510057e-09, 7.199025954989179e-10).transl(-5.8854153639608136e-08, 3.2937174251165414e-08, 0))
hIsland = hIsland.add(rect(9.247290722835624e-09, 3.851248204490103e-09).transl(5.1192972394290374e-08, 3.549572476270335e-08, 0))
hIsland = hIsland.sub(rect(2.5389139033424684e-09, -2.1937701533455076e-09).transl(1.380940550681478e-08, 4e-08, 0))
hIsland = hIsland.add(rect(8.945887109158549e-09, 1.9318754274404317e-09).transl(8.720756702135647e-08, 1.1031837581622603e-08, 0))
hIsland = hIsland.add(rect(8.490623812254261e-09, 5.413848195049415e-10).transl(-1.040316695933469e-08, 4e-08, 0))
hIsland = hIsland.add(rect(6.60973721311837e-09, 1.5356545074727411e-09).transl(-3.954849631984682e-08, 3.816655469154506e-08, 0))
hIsland = hIsland.sub(rect(3.0698764909728447e-09, -2.6687086094936275e-09).transl(5.101851048784705e-08, 3.554590999880563e-08, 0))
hIsland = hIsland.add(rect(3.0000332417630883e-09, 3.1149399865281192e-09).transl(7.624469620220404e-09, 4e-08, 0))
hIsland = hIsland.sub(rect(3.868896249214108e-09, -2.063344009165887e-10).transl(-4.076728277740221e-08, 3.794753865265025e-08, 0))
hIsland = hIsland.sub(rect(5.162660475486603e-09, -2.6682743678951633e-10).transl(2.660534908514943e-10, 4e-08, 0))
hIsland = hIsland.add(rect(8.557576105298274e-09, 2.8252441005943464e-09).transl(4.845873073585079e-09, 4e-08, 0))
hIsland = hIsland.add(rect(5.143522142785934e-09, 9.674993491503559e-10).transl(2.995341604253149e-08, 3.944489766920428e-08, 0))
hIsland = hIsland.add(rect(5.330751839319865e-09, 1.2763412577685225e-09).transl(-1.973915199250398e-08, 3.9988329124339165e-08, 0))
hIsland = hIsland.sub(rect(4.052612397157459e-09, -3.86282706528672e-09).transl(-1.2686146501754828e-08, 4e-08, 0))
hIsland = hIsland.add(rect(8.47479847758775e-09, 2.414539541358987e-09).transl(-4.584122924998194e-08, 3.688849545410152e-08, 0))
hIsland = hIsland.add(rect(6.9875429380157495e-09, 2.1979607556795217e-09).transl(-8.653892054835398e-08, 1.2252693960095456e-08, 0))
hIsland = hIsland.sub(rect(4.528338867167638e-09, -8.412361882476163e-10).transl(7.893266692492627e-08, 2.1309087070896797e-08, 0))
hIsland = hIsland.add(rect(8.71282814706995e-09, 5.033644662390196e-10).transl(-6.10404119205871e-08, 3.206630352120828e-08, 0))
hIsland = hIsland.add(rect(2.601345540656558e-09, 1.1089582198957854e-09).transl(8.686811614764039e-08, 1.1669081473303324e-08, 0))
hIsland = hIsland.sub(rect(9.092326528151947e-09, -1.4894064629067851e-09).transl(7.411893569742478e-08, 2.505958982173146e-08, 0))
hIsland = hIsland.sub(rect(4.289523003193567e-09, -9.231427168693033e-10).transl(-5.4253402163022335e-08, 3.455935505909607e-08, 0))
hIsland = hIsland.add(rect(6.025712295406473e-09, 3.216418212483681e-09).transl(-1.0641911617533888e-08, 4e-08, 0))
hIsland = hIsland.sub(rect(9.82763976974549e-09, -5.022601126240055e-10).transl(-8.408049295641952e-08, 1.588314242080081e-08, 0))
vIsland = hIsland.rotz(pi / 2)
vIslands = vIslands.add(vIsland.transl(0, -a/2, 0))
DefRegion(1, hIslands)
DefRegion(2, vIslands)
TableAdd(m_full.Region(1))
TableAdd(m_full.Region(2))
setgeom(hIslands.add(vIslands))
save(geom)
r2o2 := sqrt(2) / 2
m = RandomMagSeed(4)
B_ext = vector(Bmax*r2o2, Bmax*r2o2, 0)
relax()
minimize()
for B := Bmax; B >= -Bmax; B -= Bstep {
	B_ext = vector(B*r2o2, B*r2o2, 0)
	minimize()
	tablesave()
}
//********************************************************************//
//Please cite the following references, relevant for your simulation. //
//See bibtex file in output folder for justification.                 //
//********************************************************************//
//   * Vansteenkiste et al., AIP Adv. 4, 107133 (2014).
//   * Exl et al., J. Appl. Phys. 115, 17D118 (2014).
