//mumax 3.10 [windows_amd64 go1.11.6(gc) CUDA-11.0]
//GPU info: NVIDIA GeForce RTX 3090(24575MB), CUDA Driver 12.1, cc=8.6, using cc=80 PTX
//(c) Arne Vansteenkiste, Dynamat LAB, Ghent University, Belgium
//This is free software without any warranty. See license.txt
//********************************************************************//
//  If you use mumax in any work or publication,                      //
//  we kindly ask you to cite the references in references.bib        //
//********************************************************************//
//output directory: r1;p0.1;a4.2e-07;l1.8000000000000002e-07;s0.out/
randSeed(0)
ThermSeed(0)
resolution := 2e-09
zResolution := 5e-09
a := 4.2e-07
gridSize := 420
gridDepth := 5
SetCellsize(resolution, resolution, zResolution)
SetGridsize(gridSize, gridSize, gridDepth)
SetPBC(16, 16, 0)
//resizing...
Msat = 700e3
Aex = 13e-12
alpha = 0.2
Bmax := 0.1
Bstep := Bmax / 500.0
TableAdd(B_ext)
TableAdd(m_full)
islandWidth := 8e-08
islandLength := 1.8000000000000002e-07
ellipseConstant := 9.000000000000001e-09
hIsland := Universe().Inverse()
vIsland := Universe().Inverse()
vIslands := Universe().Inverse()
hIslands := Universe().Inverse()
hIsland = rect(islandLength-2*ellipseConstant, islandWidth)
hIsland = hIsland.add(ellipse(ellipseConstant*2, islandWidth).transl(islandLength/2-ellipseConstant, 0, 0))
hIsland = hIsland.add(ellipse(ellipseConstant*2, islandWidth).transl(-islandLength/2+ellipseConstant, 0, 0))
hIsland = hIsland.add(rect(8.865762810299519e-09, 2.2260739526811434e-09).transl(-1.4611816910308776e-08, -4e-08, 0))
hIsland = hIsland.add(rect(7.865227740154195e-09, 3.2320610691297907e-10).transl(-6.843124704108828e-08, -4e-08, 0))
hIsland = hIsland.add(rect(8.265348623220985e-09, 3.3025912209069066e-11).transl(5.128748688964211e-08, -4e-08, 0))
hIsland = hIsland.add(rect(8.042684308542651e-09, 2.9781019036316567e-09).transl(5.896464756010587e-08, -4e-08, 0))
hIsland = hIsland.add(rect(3.4783926580357474e-09, 2.9208594851627427e-10).transl(-1.55070172717541e-08, -4e-08, 0))
hIsland = hIsland.sub(rect(5.127853968094085e-09, -3.9797291875247035e-10).transl(4.053623104352519e-08, -4e-08, 0))
hIsland = hIsland.sub(rect(6.2831053393399774e-09, -5.278782380595739e-10).transl(-4.87501996557335e-08, -4e-08, 0))
hIsland = hIsland.sub(rect(8.678504897585553e-09, -2.204035787482743e-09).transl(-7.888780694314886e-08, -4e-08, 0))
hIsland = hIsland.add(rect(8.999352884959939e-09, 1.5861890680659288e-09).transl(-1.4006789086739856e-08, -4e-08, 0))
hIsland = hIsland.sub(rect(6.194279401099598e-09, -1.9827296805419926e-10).transl(8.804246685959808e-08, -2.490620847047128e-08, 0))
hIsland = hIsland.add(rect(6.979756804995431e-09, 1.3226222958417503e-09).transl(9.586279406801414e-09, -4e-08, 0))
hIsland = hIsland.add(rect(8.513414341308256e-09, 5.71813401564251e-10).transl(3.469129485068404e-08, -4e-08, 0))
hIsland = hIsland.sub(rect(3.755352395863273e-09, -2.7354586450689687e-09).transl(2.5104011811625062e-09, -4e-08, 0))
hIsland = hIsland.sub(rect(7.354944519552996e-09, -9.149052378108212e-10).transl(5.315236105201154e-08, -4e-08, 0))
hIsland = hIsland.sub(rect(8.401855216600094e-09, -6.998987052970046e-10).transl(7.313503609260145e-08, -4e-08, 0))
hIsland = hIsland.add(rect(3.3498988748600127e-09, 1.196946453284551e-10).transl(7.912910802700303e-08, -4e-08, 0))
hIsland = hIsland.add(rect(7.177634298872889e-09, 1.8782527134954125e-10).transl(3.151742273257108e-08, -4e-08, 0))
hIsland = hIsland.sub(rect(8.742094750653657e-09, -5.824010722644166e-10).transl(-3.97393199797928e-08, -4e-08, 0))
hIsland = hIsland.sub(rect(9.270052930894504e-09, -1.2320921965673896e-09).transl(3.2464917950034255e-08, -4e-08, 0))
hIsland = hIsland.sub(rect(6.540373347949202e-09, -4.587212039268274e-09).transl(-3.8964872136594555e-08, -4e-08, 0))
hIsland = hIsland.add(rect(5.326523143295785e-09, 1.6985880028978192e-10).transl(1.466157573791391e-08, -4e-08, 0))
hIsland = hIsland.sub(rect(6.345207632482196e-09, -1.011721312269139e-09).transl(1.0017221443055364e-08, -4e-08, 0))
hIsland = hIsland.add(rect(7.413729080675685e-09, 1.5478859066871058e-09).transl(1.6925945435243236e-09, -4e-08, 0))
hIsland = hIsland.sub(rect(9.799815579768195e-09, -3.785556045544058e-09).transl(5.017252027074277e-08, -4e-08, 0))
hIsland = hIsland.add(rect(2.860880141447074e-09, 2.5902711007488298e-11).transl(4.933352981563391e-08, -4e-08, 0))
hIsland = hIsland.sub(rect(6.214842626619273e-09, -2.207160384813397e-09).transl(-2.9037690139790994e-08, -4e-08, 0))
hIsland = hIsland.sub(rect(2.1568036427393223e-09, -1.2608531317678216e-09).transl(5.835751187017058e-08, -4e-08, 0))
hIsland = hIsland.sub(rect(2.1741273034861417e-09, -1.5870843698047069e-09).transl(-7.459768276732302e-09, -4e-08, 0))
hIsland = hIsland.sub(rect(6.341456406626584e-09, -7.569618617656191e-10).transl(-1.9127619315368636e-09, -4e-08, 0))
hIsland = hIsland.sub(rect(4.622155124985303e-09, -4.774471976626636e-10).transl(8.636795341878112e-08, -3.210632831549175e-08, 0))
hIsland = hIsland.sub(rect(5.022086949665306e-09, -1.6243094836782717e-10).transl(-4.304251946452904e-08, -4e-08, 0))
hIsland = hIsland.sub(rect(7.653259768978033e-09, -1.0187764300642933e-09).transl(2.055024027265479e-08, -4e-08, 0))
hIsland = hIsland.sub(rect(2.5101869473491168e-09, -1.1849025955794479e-09).transl(-2.8556081307061034e-08, -4e-08, 0))
hIsland = hIsland.add(rect(5.175252025583247e-09, 2.075154837492761e-09).transl(-5.803379979280554e-08, -4e-08, 0))
hIsland = hIsland.add(rect(3.842096399979392e-09, 3.016505837089512e-09).transl(3.254224826507433e-08, -4e-08, 0))
hIsland = hIsland.sub(rect(6.6018319842758975e-09, -1.3649163875080387e-09).transl(7.642065389049996e-08, -4e-08, 0))
hIsland = hIsland.sub(rect(4.528688205446298e-09, -6.400045811572035e-11).transl(-8.202356724829112e-08, -3.974046917981241e-08, 0))
hIsland = hIsland.sub(rect(6.527809421331311e-09, -1.5314593581199274e-10).transl(-6.999093539891875e-08, -4e-08, 0))
hIsland = hIsland.add(rect(5.217044239841634e-09, 2.6817382594619633e-09).transl(-7.338515466200865e-08, -4e-08, 0))
hIsland = hIsland.sub(rect(7.208712089790395e-09, -4.4547237042449615e-09).transl(-6.501316081148006e-08, -4e-08, 0))
hIsland = hIsland.add(rect(6.515459103822848e-09, 1.9372916304807082e-09).transl(2.9648130502386832e-08, -4e-08, 0))
hIsland = hIsland.add(rect(5.051293667707371e-09, 1.798899943564865e-10).transl(4.1801543722764084e-08, -4e-08, 0))
hIsland = hIsland.sub(rect(6.545500779648853e-09, -3.5978732386427373e-09).transl(4.22979146215396e-08, -4e-08, 0))
hIsland = hIsland.add(rect(3.863819867562528e-09, 2.464536489293817e-09).transl(7.832456880715654e-08, -4e-08, 0))
hIsland = hIsland.sub(rect(3.4448453850717924e-09, -6.564802291911152e-10).transl(5.1267217082360664e-08, -4e-08, 0))
hIsland = hIsland.sub(rect(8.621509711995036e-09, -1.8806585948038863e-09).transl(-3.890937248225633e-08, -4e-08, 0))
hIsland = hIsland.add(rect(4.019725077341456e-09, 3.9055002379541715e-09).transl(9.490131666462e-10, -4e-08, 0))
hIsland = hIsland.add(rect(7.948994263248915e-09, 3.046672142396345e-09).transl(-4.7421187278177487e-08, -4e-08, 0))
hIsland = hIsland.add(rect(7.810708846519403e-09, 2.3047214069138034e-09).transl(-1.0560049975361485e-08, -4e-08, 0))
hIsland = hIsland.sub(rect(9.042137238938882e-09, -2.9419973952688995e-09).transl(-3.668477100019293e-08, -4e-08, 0))
hIsland = hIsland.sub(rect(7.652992965666767e-09, -1.1856798371089844e-09).transl(3.6936464706103205e-08, -4e-08, 0))
hIsland = hIsland.sub(rect(8.530421761228795e-09, -2.2345041028222217e-09).transl(-2.5553383755053815e-08, -4e-08, 0))
hIsland = hIsland.sub(rect(4.19025164032913e-09, -7.735610651083809e-10).transl(4.6017637921506005e-08, -4e-08, 0))
hIsland = hIsland.add(rect(7.3732358900448516e-09, 1.9525486522391513e-09).transl(-4.045477678569389e-08, -4e-08, 0))
hIsland = hIsland.add(rect(9.454836066587202e-09, 2.8447546559019886e-09).transl(-4.845107753719732e-08, -4e-08, 0))
hIsland = hIsland.add(rect(3.3561750176463684e-09, 4.944666262426301e-10).transl(-7.884643294366584e-08, -4e-08, 0))
hIsland = hIsland.add(rect(9.90405374078251e-09, 9.388618637521802e-10).transl(4.2949399050129356e-08, -4e-08, 0))
hIsland = hIsland.sub(rect(9.52126572717948e-09, -1.3718693175974955e-09).transl(-3.1684244042902344e-08, -4e-08, 0))
hIsland = hIsland.sub(rect(4.573321505160602e-09, -2.646495655494482e-09).transl(4.658338594298003e-08, -4e-08, 0))
hIsland = hIsland.add(rect(5.883390330078511e-09, 1.934516439450052e-09).transl(-7.14053695736995e-08, -4e-08, 0))
hIsland = hIsland.sub(rect(7.7913778367794e-09, -3.968274537047574e-10).transl(-9.831054013143438e-09, -4e-08, 0))
hIsland = hIsland.sub(rect(8.912038230336326e-09, -8.25408088019225e-10).transl(2.7377019971337663e-08, -4e-08, 0))
hIsland = hIsland.sub(rect(5.315792962001912e-09, -9.758164140264294e-10).transl(1.0969187414897702e-08, -4e-08, 0))
hIsland = hIsland.add(rect(2.2389310148963153e-09, 1.1019782830493233e-09).transl(-3.4819009968602016e-08, -4e-08, 0))
hIsland = hIsland.add(rect(3.0291383140013066e-09, 1.9198082267625284e-09).transl(8.987980922804258e-08, -6.515301000893788e-09, 0))
hIsland = hIsland.sub(rect(6.347832869095943e-09, -4.572034110006262e-09).transl(8.797677231485934e-08, -2.5268786412249788e-08, 0))
hIsland = hIsland.add(rect(9.157012306026356e-09, 1.8143903517206842e-09).transl(-1.9045641045123634e-08, -4e-08, 0))
hIsland = hIsland.add(rect(5.553824755642906e-09, 6.7092365190562935e-12).transl(-1.3561294340067852e-09, -4e-08, 0))
hIsland = hIsland.sub(rect(6.381778453943744e-09, -8.709380483517669e-10).transl(6.401033363438439e-08, -4e-08, 0))
hIsland = hIsland.sub(rect(6.9550763467167005e-09, -6.362256829726298e-09).transl(-3.485373211053651e-08, -4e-08, 0))
hIsland = hIsland.sub(rect(5.1072932161260265e-09, -2.5070155348822785e-09).transl(7.334414096209346e-08, -4e-08, 0))
hIsland = hIsland.add(rect(6.0672262804649064e-09, 1.5838536436577163e-09).transl(6.61792294255072e-08, -4e-08, 0))
hIsland = hIsland.add(rect(9.062182198538923e-09, 3.124623715826004e-10).transl(-2.1750306794516194e-08, -4e-08, 0))
hIsland = hIsland.add(rect(2.5534507395779775e-09, 1.4222613791545012e-09).transl(-5.0991259268048833e-08, -4e-08, 0))
hIsland = hIsland.add(rect(4.03776611640761e-09, 1.523262925148221e-09).transl(-7.140909104448809e-09, -4e-08, 0))
hIsland = hIsland.sub(rect(6.2919569624726095e-09, -3.5778166320053464e-09).transl(-4.595776587460394e-08, -4e-08, 0))
hIsland = hIsland.sub(rect(3.19449695721897e-09, -6.287597756200127e-11).transl(6.530249028393594e-08, -4e-08, 0))
hIsland = hIsland.sub(rect(4.315306408851101e-09, -5.410182881505718e-10).transl(2.4515232896946322e-08, -4e-08, 0))
hIsland = hIsland.add(rect(5.0007112508177054e-09, 2.2035523954121662e-09).transl(2.6300638947111944e-08, -4e-08, 0))
hIsland = hIsland.add(rect(8.10534359016575e-09, 1.0096788601657174e-09).transl(-6.880978012602958e-08, -4e-08, 0))
hIsland = hIsland.sub(rect(8.654983426757038e-09, -1.674609235972453e-09).transl(-6.1082540358069405e-09, -4e-08, 0))
hIsland = hIsland.add(rect(9.41041833471698e-09, 2.3952683466888e-09).transl(-7.111856366242923e-08, -4e-08, 0))
hIsland = hIsland.sub(rect(9.379152143569019e-09, -3.2107416599957545e-10).transl(7.036181026615396e-10, -4e-08, 0))
hIsland = hIsland.add(rect(3.2297460450146444e-09, 2.276148275758503e-09).transl(7.917896236975248e-08, -4e-08, 0))
hIsland = hIsland.sub(rect(4.159871047181846e-09, -1.1008100623348764e-09).transl(7.344468384841916e-08, -4e-08, 0))
hIsland = hIsland.sub(rect(9.188735974346637e-09, -1.075784435128114e-09).transl(-5.0519664480297675e-08, -4e-08, 0))
hIsland = hIsland.sub(rect(4.582155764588647e-09, -3.014587620982752e-09).transl(2.2825424965416254e-08, -4e-08, 0))
hIsland = hIsland.sub(rect(8.626029468847331e-09, -9.462158321243461e-10).transl(6.584598118776736e-08, -4e-08, 0))
hIsland = hIsland.add(rect(3.0815175470167983e-09, 7.747366185954848e-10).transl(4.8476945156863385e-08, -4e-08, 0))
hIsland = hIsland.sub(rect(6.422186430481021e-09, -4.4355747307421423e-10).transl(3.344453901583146e-08, -4e-08, 0))
hIsland = hIsland.add(rect(4.2356031885516416e-09, 2.2542304445904453e-09).transl(1.496253107621468e-08, -4e-08, 0))
hIsland = hIsland.sub(rect(2.9146098958424737e-09, -1.8821757660003627e-09).transl(3.1975240769118956e-08, -4e-08, 0))
hIsland = hIsland.add(rect(2.673047134263743e-09, 7.999263082056852e-10).transl(-8.271487910651677e-08, -3.926716082190032e-08, 0))
hIsland = hIsland.add(rect(9.604779227801543e-09, 1.2659507662055497e-09).transl(-6.286880534892465e-08, -4e-08, 0))
hIsland = hIsland.sub(rect(8.303124450328712e-09, -4.589100695953901e-09).transl(-8.491670873588287e-08, -3.601354825398563e-08, 0))
hIsland = hIsland.sub(rect(3.5822729607676007e-09, -3.2715284184680075e-09).transl(7.572969906894395e-08, -4e-08, 0))
hIsland = hIsland.sub(rect(3.915077066469273e-09, -6.371024671423796e-10).transl(-4.9531809829008144e-08, -4e-08, 0))
hIsland = hIsland.add(rect(9.32052258378576e-09, 5.116790447407223e-10).transl(2.8185706244206538e-08, -4e-08, 0))
hIsland = hIsland.sub(rect(6.039560482907954e-09, -1.306713345191389e-09).transl(2.925541304831711e-09, -4e-08, 0))
hIsland = hIsland.add(rect(7.225416254052944e-09, 2.1638323371371528e-09).transl(2.591239031909322e-08, -4e-08, 0))
hIsland = hIsland.add(rect(5.1179261630887025e-09, 3.350622109136427e-11).transl(7.192722094068386e-08, -4e-08, 0))
hIsland = hIsland.sub(rect(7.612208436749192e-09, -1.8315577621907692e-09).transl(8.578222715594983e-08, -3.3885880647217284e-08, 0))
hIsland = hIsland.sub(rect(2.9838619708833304e-09, -2.6825626387542187e-10).transl(-7.77925739219658e-08, -4e-08, 0))
hIsland = hIsland.add(rect(6.544505070273222e-09, 2.5290085899178976e-09).transl(-3.810622094658479e-08, -4e-08, 0))
hIsland = hIsland.sub(rect(7.019836642665609e-09, -9.466122301724793e-11).transl(-7.1934726488967e-08, -4e-08, 0))
hIsland = hIsland.add(rect(4.233515720191094e-09, 1.812664491656217e-09).transl(7.534772020743044e-08, -4e-08, 0))
hIsland = hIsland.add(rect(5.06522184181233e-09, 1.8828030804067213e-10).transl(7.512659111951567e-09, -4e-08, 0))
hIsland = hIsland.sub(rect(2.9764510765943355e-09, -2.6912064474503096e-09).transl(6.422319544425028e-08, -4e-08, 0))
hIsland = hIsland.sub(rect(3.54429235079827e-09, -1.404353841392319e-09).transl(3.784816253524855e-08, -4e-08, 0))
hIsland = hIsland.add(rect(3.4665941187115685e-09, 2.779755625700264e-09).transl(-9.318414394964711e-09, -4e-08, 0))
hIsland = hIsland.sub(rect(7.1681145546569245e-09, -2.218541201970129e-09).transl(2.5648915501650978e-08, -4e-08, 0))
hIsland = hIsland.add(rect(4.355910166977457e-09, 2.2959339367910638e-09).transl(-5.2116164130350934e-08, -4e-08, 0))
hIsland = hIsland.sub(rect(3.725333233075632e-09, -4.283074078697924e-10).transl(6.972678563141191e-08, -4e-08, 0))
hIsland = hIsland.add(rect(3.634277350651567e-09, 1.2460921279415337e-09).transl(-4.0886259945617146e-08, -4e-08, 0))
hIsland = hIsland.sub(rect(9.169480127040925e-09, -2.049681881634545e-09).transl(4.1986564091283944e-08, -4e-08, 0))
hIsland = hIsland.sub(rect(8.2859175271097e-09, -2.1454579319660787e-09).transl(-5.598067318560588e-08, -4e-08, 0))
hIsland = hIsland.add(rect(2.1541624334040312e-09, 2.449531907464784e-09).transl(-1.8890370447615737e-08, -4e-08, 0))
hIsland = hIsland.add(rect(8.159466145175182e-09, 2.2562629789239363e-09).transl(-3.504940925335628e-08, -4e-08, 0))
hIsland = hIsland.sub(rect(7.417496842303109e-09, -7.059170438317551e-10).transl(-5.626362774372965e-08, -4e-08, 0))
hIsland = hIsland.add(rect(5.603554051793829e-09, 3.638876594969177e-09).transl(-1.6180134071312233e-08, -4e-08, 0))
hIsland = hIsland.add(rect(3.4400450167263517e-09, 5.964590004148017e-11).transl(6.861791416949274e-08, -4e-08, 0))
hIsland = hIsland.sub(rect(3.967124683899313e-09, -2.65690860537023e-09).transl(4.187716691722095e-08, -4e-08, 0))
hIsland = hIsland.sub(rect(3.880888017181231e-09, -1.4495326147636445e-09).transl(6.895348068511679e-09, -4e-08, 0))
hIsland = hIsland.add(rect(5.551217664281985e-09, 3.404772504803865e-09).transl(-8.874666033392478e-08, -2.0361791218980798e-08, 0))
hIsland = hIsland.sub(rect(8.79466508018967e-09, -5.060776372724845e-09).transl(8.1883999390393e-08, -3.980658052870583e-08, 0))
hIsland = hIsland.sub(rect(4.10172255951416e-09, -3.1291689181275524e-10).transl(-4.220183068438915e-08, -4e-08, 0))
hIsland = hIsland.sub(rect(2.0158287013396637e-09, -2.786166553854083e-09).transl(-3.785214924236215e-08, -4e-08, 0))
hIsland = hIsland.add(rect(9.479127255691602e-09, 8.873871132338209e-10).transl(5.5298822754716667e-08, -4e-08, 0))
hIsland = hIsland.sub(rect(9.198920400030197e-09, -6.20149578860724e-10).transl(1.965073899479497e-08, -4e-08, 0))
hIsland = hIsland.add(rect(6.529092187542606e-09, 5.763377871492346e-10).transl(6.466813165551499e-08, -4e-08, 0))
hIsland = hIsland.add(rect(9.293987386923407e-09, 3.641545124977258e-09).transl(-6.412445728855363e-08, -4e-08, 0))
hIsland = hIsland.add(rect(8.964964165491758e-09, 8.758125475587647e-10).transl(2.659306797047529e-08, -4e-08, 0))
hIsland = hIsland.add(rect(8.706747994721242e-09, 3.460838162610204e-09).transl(-7.122894058584007e-08, -4e-08, 0))
hIsland = hIsland.add(rect(5.824594168670003e-09, 2.1229732645238146e-09).transl(3.524099407862067e-08, -4e-08, 0))
hIsland = hIsland.add(rect(6.760557348258446e-09, 2.4241031808045924e-09).transl(-6.704955694875058e-08, -4e-08, 0))
hIsland = hIsland.add(rect(6.809938828394009e-09, 2.472937727797183e-10).transl(3.612867189298871e-08, -4e-08, 0))
hIsland = hIsland.add(rect(5.275639032726199e-09, 3.937359443956549e-09).transl(5.5640370864580644e-08, -4e-08, 0))
hIsland = hIsland.sub(rect(3.2203693775814007e-09, -8.665645319575973e-10).transl(-4.7604484710277396e-08, -4e-08, 0))
hIsland = hIsland.add(rect(2.5231300000702055e-09, 3.201314945754314e-09).transl(-3.224228041574734e-08, -4e-08, 0))
hIsland = hIsland.add(rect(6.190176619217736e-09, 2.7581515473688354e-09).transl(8.645964381078896e-08, -3.179946096579065e-08, 0))
hIsland = hIsland.add(rect(2.0745676692987915e-09, 3.010919279487281e-10).transl(3.675396524915751e-08, -4e-08, 0))
hIsland = hIsland.sub(rect(9.060560032040027e-09, -2.9420226762497494e-10).transl(7.4399955039572215e-09, -4e-08, 0))
hIsland = hIsland.add(rect(5.181810071103795e-09, 2.2081224033230905e-09).transl(1.4643571972234542e-08, -4e-08, 0))
hIsland = hIsland.sub(rect(9.743681223840007e-09, -1.9410051248372628e-09).transl(4.696309716715195e-08, -4e-08, 0))
hIsland = hIsland.sub(rect(3.0041458505156496e-09, -2.794888547275906e-09).transl(6.255508709539149e-08, -4e-08, 0))
hIsland = hIsland.sub(rect(2.1047838600969663e-09, -4.2374347066319766e-09).transl(2.7598078202487195e-08, -4e-08, 0))
hIsland = hIsland.sub(rect(5.8913964372465105e-09, -1.623370227375733e-10).transl(7.416900344503957e-08, -4e-08, 0))
hIsland = hIsland.sub(rect(6.767180617532238e-09, -1.9112556210895245e-09).transl(7.2291123613681715e-09, -4e-08, 0))
hIsland = hIsland.sub(rect(3.0368247208600555e-09, -9.110921225323954e-10).transl(3.6460579900418105e-08, -4e-08, 0))
hIsland = hIsland.sub(rect(8.121678720820976e-09, -5.712238145355869e-10).transl(-8.80419990503031e-09, -4e-08, 0))
hIsland = hIsland.add(rect(9.897045544339585e-09, 1.8851123087476168e-09).transl(4.8094145118744414e-08, -4e-08, 0))
hIsland = hIsland.add(rect(7.943801576694914e-09, 4.1763433255821005e-09).transl(4.251144969602237e-09, -4e-08, 0))
hIsland = hIsland.sub(rect(8.901157473015738e-09, -2.6065161889697647e-09).transl(1.797201230974416e-08, -4e-08, 0))
hIsland = hIsland.add(rect(6.018394482224386e-09, 2.1227824610994473e-09).transl(2.958288891832268e-08, -4e-08, 0))
hIsland = hIsland.add(rect(2.3715690723559763e-09, 2.2677519640378195e-09).transl(-6.78350032836076e-08, -4e-08, 0))
hIsland = hIsland.sub(rect(2.7404639486378377e-09, -7.428849428312616e-10).transl(5.100862654060001e-08, -4e-08, 0))
hIsland = hIsland.add(rect(4.9059638646289475e-09, 9.140708436531874e-10).transl(-8.321161085307948e-08, -3.87734865335353e-08, 0))
hIsland = hIsland.sub(rect(5.260314535611532e-09, -2.356664779454284e-09).transl(-7.670008686834722e-08, -4e-08, 0))
hIsland = hIsland.add(rect(2.9491572259121847e-09, 2.954253285237515e-09).transl(8.625237427994201e-08, -3.2481733342851697e-08, 0))
hIsland = hIsland.sub(rect(5.07185318452392e-09, -4.0631384555005625e-09).transl(4.322652574114101e-08, -4e-08, 0))
hIsland = hIsland.add(rect(9.923020011330917e-09, 4.641932370596719e-10).transl(-6.033978508831153e-10, -4e-08, 0))
hIsland = hIsland.add(rect(4.039990363935685e-09, 1.455810563336608e-10).transl(-1.7974424011683088e-08, -4e-08, 0))
hIsland = hIsland.add(rect(7.498752944815362e-09, 5.106778683938857e-10).transl(6.936878083892392e-08, -4e-08, 0))
hIsland = hIsland.sub(rect(2.773445920947516e-09, -1.5499622650389418e-09).transl(7.972151392754625e-08, -4e-08, 0))
hIsland = hIsland.sub(rect(6.678684016352585e-09, -2.9784427752429855e-09).transl(-6.001904890127018e-08, -4e-08, 0))
hIsland = hIsland.sub(rect(7.817994675390675e-09, -1.0694701798583286e-09).transl(2.1287196862647358e-08, -4e-08, 0))
hIsland = hIsland.add(rect(6.188857313286545e-09, 2.0721599686181663e-09).transl(-6.449907969203145e-09, -4e-08, 0))
hIsland = hIsland.add(rect(4.280546727295107e-09, 3.9948617451021964e-10).transl(-4.910656129374135e-08, -4e-08, 0))
hIsland = hIsland.sub(rect(3.122504441030181e-09, -3.035651904953714e-09).transl(8.977888974824698e-08, -8.81199495426881e-09, 0))
hIsland = hIsland.add(rect(9.94423409618275e-09, 3.091483845296866e-10).transl(-8.895681626543015e-08, -1.8692614197709815e-08, 0))
hIsland = hIsland.add(rect(5.957550913938129e-09, 7.173939685492178e-10).transl(-7.015883389865192e-09, -4e-08, 0))
hIsland = hIsland.sub(rect(2.2078372735479958e-09, -1.3226380330664905e-09).transl(1.5647111226924375e-08, -4e-08, 0))
hIsland = hIsland.add(rect(9.88192145200907e-09, 3.2094571297237456e-10).transl(-4.645317731546808e-08, -4e-08, 0))
hIsland = hIsland.sub(rect(4.6063503505888625e-09, -1.8196490793253768e-09).transl(5.058624448908814e-08, -4e-08, 0))
hIsland = hIsland.sub(rect(9.870028835836837e-09, -3.467738447728343e-10).transl(-6.087071078727777e-08, -4e-08, 0))
hIsland = hIsland.sub(rect(9.660668425834214e-09, -1.176933027797564e-10).transl(-5.739383227303617e-08, -4e-08, 0))
hIsland = hIsland.sub(rect(9.853991053491211e-09, -1.269241900436242e-09).transl(-5.585269799029792e-08, -4e-08, 0))
hIsland = hIsland.sub(rect(4.767844818837781e-09, -4.917014646793024e-10).transl(1.3621243892689288e-08, -4e-08, 0))
hIsland = hIsland.sub(rect(5.566135315122374e-09, -1.6931231411396507e-09).transl(-4.097590200791745e-08, -4e-08, 0))
hIsland = hIsland.add(rect(3.5679450393437196e-09, 1.4977337925709403e-09).transl(3.715808003163474e-08, -4e-08, 0))
hIsland = hIsland.add(rect(3.8242074288039244e-09, 8.890255353132873e-10).transl(-9.208247268535327e-09, -4e-08, 0))
hIsland = hIsland.add(rect(6.847389023977884e-09, 6.307394757996737e-10).transl(6.353826195794693e-08, -4e-08, 0))
hIsland = hIsland.sub(rect(9.553663366631654e-09, -5.965638559418512e-10).transl(4.863040404379056e-08, -4e-08, 0))
hIsland = hIsland.add(rect(5.875876760353739e-09, 2.5793490945567863e-09).transl(5.7074011783068896e-08, -4e-08, 0))
hIsland = hIsland.sub(rect(2.3115235680184283e-09, -3.339527002246092e-09).transl(1.718198939494309e-08, -4e-08, 0))
hIsland = hIsland.add(rect(8.358697682870517e-09, 2.03108637252577e-09).transl(-7.9334547797299e-08, -4e-08, 0))
hIsland = hIsland.add(rect(4.931361391413592e-09, 2.229586185722045e-09).transl(-8.196015632748218e-08, -3.977171892448597e-08, 0))
hIsland = hIsland.add(rect(8.869426064325854e-09, 4.3062614635503215e-10).transl(-8.282755469899438e-08, -3.91666383160644e-08, 0))
hIsland = hIsland.add(rect(9.568380903681246e-09, 3.7601832324695265e-09).transl(6.658762875378535e-08, -4e-08, 0))
hIsland = hIsland.sub(rect(6.117774353199937e-09, -3.290675464806533e-10).transl(2.061735417318603e-08, -4e-08, 0))
hIsland = hIsland.sub(rect(3.124263975236745e-09, -3.2748241575007706e-09).transl(-3.668201751381219e-08, -4e-08, 0))
hIsland = hIsland.sub(rect(6.362399486982561e-09, -9.992773290418924e-10).transl(5.025748553354744e-08, -4e-08, 0))
hIsland = hIsland.add(rect(8.255743199912609e-09, 9.239489668930797e-12).transl(-1.725274937979449e-08, -4e-08, 0))
hIsland = hIsland.add(rect(5.7777096650293355e-09, 4.654765169129299e-10).transl(-1.3287025897349262e-08, -4e-08, 0))
hIsland = hIsland.add(rect(6.0510934780069565e-09, 2.1242444946911957e-09).transl(-8.771738095171525e-08, -2.662099538984851e-08, 0))
hIsland = hIsland.sub(rect(9.783677386534355e-09, -2.5409157637256207e-09).transl(-4.5400582690093084e-08, -4e-08, 0))
hIsland = hIsland.sub(rect(4.430841611130504e-09, -2.7598684942837386e-10).transl(-1.9618196032679054e-08, -4e-08, 0))
hIsland = hIsland.sub(rect(5.2047856202927625e-09, -4.81505458356322e-10).transl(6.061492314151221e-08, -4e-08, 0))
hIsland = hIsland.sub(rect(5.1735624999033986e-09, -3.8218297911347777e-10).transl(-3.504865288092794e-08, -4e-08, 0))
hIsland = hIsland.add(rect(6.88797842361163e-09, 1.116953006023563e-09).transl(5.132924062883715e-08, -4e-08, 0))
hIsland = hIsland.sub(rect(6.172298548132129e-09, -3.039943400963721e-10).transl(-5.181902271088359e-08, 4e-08, 0))
hIsland = hIsland.add(rect(3.227204689468345e-09, 3.8303519266126547e-10).transl(-8.079161391919421e-08, 4e-08, 0))
hIsland = hIsland.sub(rect(3.6190115468763228e-09, -2.2682479384689216e-09).transl(-4.355545909689319e-08, 4e-08, 0))
hIsland = hIsland.sub(rect(7.665778877234533e-09, -7.145065739843732e-10).transl(-2.4567348623928482e-08, 4e-08, 0))
hIsland = hIsland.sub(rect(7.629630524036402e-09, -4.408028614553386e-10).transl(4.725226651278463e-08, 4e-08, 0))
hIsland = hIsland.sub(rect(5.218997282002104e-09, -1.0119371652854605e-09).transl(5.636818918328225e-08, 4e-08, 0))
hIsland = hIsland.add(rect(6.746755525457121e-09, 7.23370554274844e-10).transl(3.6023361831664345e-08, 4e-08, 0))
hIsland = hIsland.sub(rect(7.689774767246046e-09, -1.4098496617670141e-09).transl(-2.0443462224852666e-08, 4e-08, 0))
hIsland = hIsland.sub(rect(8.657332474110282e-09, -4.2449652253636007e-10).transl(-9.720797523917423e-09, 4e-08, 0))
hIsland = hIsland.add(rect(6.9201147730299336e-09, 1.5901583984138943e-09).transl(-3.3959300837590697e-08, 4e-08, 0))
hIsland = hIsland.add(rect(9.943146833328873e-09, 8.272197130679039e-10).transl(8.73603380100341e-08, 2.8300364399561398e-08, 0))
hIsland = hIsland.sub(rect(4.743457602767433e-09, -1.7441032371055335e-09).transl(4.090114542863054e-09, 4e-08, 0))
hIsland = hIsland.sub(rect(6.325606604947105e-09, -3.4941252285490812e-09).transl(-9.938441545663274e-09, 4e-08, 0))
hIsland = hIsland.sub(rect(7.745344962537634e-09, -1.0708144921521586e-09).transl(6.885199703237172e-08, 4e-08, 0))
hIsland = hIsland.sub(rect(8.691250540312869e-09, -2.5918892924765616e-09).transl(-1.940247796523384e-08, 4e-08, 0))
hIsland = hIsland.sub(rect(6.250029214441622e-09, -2.4104168464151757e-09).transl(-1.6449109212429552e-08, 4e-08, 0))
hIsland = hIsland.sub(rect(6.846205226133877e-09, -6.101097860287545e-11).transl(1.0765666438098025e-08, 4e-08, 0))
hIsland = hIsland.add(rect(9.067776118760041e-09, 1.328025665620761e-09).transl(-2.0439067269705038e-08, 4e-08, 0))
hIsland = hIsland.add(rect(5.504364953361711e-09, 7.469827970164478e-10).transl(1.9341113187027165e-08, 4e-08, 0))
hIsland = hIsland.sub(rect(7.982592670992113e-09, -2.9026958384573644e-10).transl(-7.022147567927834e-09, 4e-08, 0))
hIsland = hIsland.sub(rect(4.305723981461488e-09, -1.0908065295460817e-09).transl(-3.9604769493876905e-08, 4e-08, 0))
hIsland = hIsland.sub(rect(4.738487905251866e-09, -3.659796340216885e-09).transl(1.9783693193551447e-08, 4e-08, 0))
hIsland = hIsland.sub(rect(2.745682173004637e-09, -3.144980845338933e-09).transl(-7.053614533258496e-08, 4e-08, 0))
hIsland = hIsland.sub(rect(5.62609763823948e-09, -2.005582393145496e-09).transl(7.534758891493824e-08, 4e-08, 0))
hIsland = hIsland.sub(rect(7.184852755643642e-09, -3.0911763164428527e-09).transl(-1.323427169583946e-08, 4e-08, 0))
hIsland = hIsland.sub(rect(9.670120397735309e-09, -4.5134169951185207e-10).transl(4.434153969921107e-08, 4e-08, 0))
hIsland = hIsland.sub(rect(3.2105450980633807e-09, -2.6749619126259445e-09).transl(4.683725195029661e-08, 4e-08, 0))
hIsland = hIsland.add(rect(9.495576704027503e-09, 1.1308373060245464e-09).transl(-7.902755992844499e-08, 4e-08, 0))
hIsland = hIsland.add(rect(2.746123456884461e-09, 1.6821794869420798e-09).transl(1.7730856048365842e-09, 4e-08, 0))
hIsland = hIsland.add(rect(9.271832881179411e-09, 2.6101565802284558e-09).transl(5.644118105342138e-09, 4e-08, 0))
hIsland = hIsland.sub(rect(9.766164544952425e-09, -1.1353761845306814e-09).transl(-3.0101577713534984e-08, 4e-08, 0))
hIsland = hIsland.add(rect(5.39664707453937e-09, 8.760209251002554e-10).transl(5.447220117316069e-08, 4e-08, 0))
hIsland = hIsland.add(rect(5.220497048787828e-09, 2.099313683070632e-09).transl(5.4905033230360524e-08, 4e-08, 0))
hIsland = hIsland.sub(rect(2.5632313430991288e-09, -4.691836131903367e-10).transl(8.251689919707969e-08, 3.942776281393082e-08, 0))
hIsland = hIsland.sub(rect(3.2084919292619366e-09, -1.1036656629516065e-09).transl(-1.7207862248273304e-08, 4e-08, 0))
hIsland = hIsland.sub(rect(8.358524970122319e-09, -1.1405550303368005e-09).transl(7.083248982924558e-08, 4e-08, 0))
hIsland = hIsland.sub(rect(5.751694285153465e-09, -5.194068225050115e-10).transl(1.2802154426439942e-09, 4e-08, 0))
hIsland = hIsland.sub(rect(2.1149966409128978e-09, -3.2535918139034127e-10).transl(3.8347757879149405e-08, 4e-08, 0))
hIsland = hIsland.sub(rect(9.752815586940046e-09, -4.985301346582801e-09).transl(-2.1875674573302708e-08, 4e-08, 0))
hIsland = hIsland.sub(rect(5.637876128533813e-09, -2.5166021645583925e-09).transl(1.9564057639143306e-08, 4e-08, 0))
hIsland = hIsland.add(rect(4.827976632825799e-09, 8.632364499541232e-11).transl(4.809743422626502e-08, 4e-08, 0))
hIsland = hIsland.sub(rect(4.226429854941149e-09, -1.6514096968008536e-09).transl(3.441273289668513e-08, 4e-08, 0))
hIsland = hIsland.sub(rect(5.882707235640258e-09, -9.701131146104891e-10).transl(1.4934408133393678e-08, 4e-08, 0))
hIsland = hIsland.add(rect(7.541862195012041e-09, 1.7491425416016934e-09).transl(-2.398096983574622e-08, 4e-08, 0))
hIsland = hIsland.add(rect(3.4587063838055337e-09, 9.22685636002433e-12).transl(7.674661068893441e-08, 4e-08, 0))
hIsland = hIsland.add(rect(5.806931495273129e-09, 2.7668052762772136e-09).transl(-7.855633909218744e-08, 4e-08, 0))
hIsland = hIsland.add(rect(6.027715660617244e-09, 1.5466754146659866e-09).transl(-9.624305131430941e-09, 4e-08, 0))
hIsland = hIsland.add(rect(8.509829504427635e-09, 1.930432771166739e-09).transl(-6.920087439992518e-08, 4e-08, 0))
hIsland = hIsland.add(rect(6.8602649852015056e-09, 8.200680405060572e-10).transl(1.0314711175131864e-08, 4e-08, 0))
hIsland = hIsland.sub(rect(4.217365871369619e-09, -4.3104100717674095e-10).transl(-2.9228933774795898e-08, 4e-08, 0))
hIsland = hIsland.add(rect(5.282102179487945e-09, 2.966291361444324e-09).transl(-2.990490836495514e-08, 4e-08, 0))
hIsland = hIsland.add(rect(4.294419494199605e-09, 2.2482197206856946e-09).transl(2.5001584646381365e-08, 4e-08, 0))
hIsland = hIsland.sub(rect(4.330679857454202e-09, -9.788406760725134e-10).transl(4.130985306993783e-08, 4e-08, 0))
hIsland = hIsland.sub(rect(8.426565806788761e-09, -5.7019932273372e-11).transl(-2.763346147267461e-08, 4e-08, 0))
hIsland = hIsland.add(rect(6.0521593744615775e-09, 1.3537412581750358e-11).transl(-7.840719314286706e-08, 4e-08, 0))
hIsland = hIsland.add(rect(4.729846941228984e-09, 1.8169715445319257e-09).transl(7.592319788760724e-08, 4e-08, 0))
hIsland = hIsland.add(rect(4.176474310826383e-09, 2.2344975313798006e-09).transl(-8.623514078232839e-08, 3.253664251209013e-08, 0))
hIsland = hIsland.add(rect(5.6222455242590885e-09, 2.6645755286769717e-10).transl(-8.126440006756717e-08, 3.998273518871333e-08, 0))
hIsland = hIsland.add(rect(5.072175411530748e-09, 6.973533014003334e-10).transl(3.549820154076188e-08, 4e-08, 0))
hIsland = hIsland.add(rect(8.374378859412986e-09, 3.3782187443018542e-09).transl(-8.713636649498727e-08, 2.9260855320848196e-08, 0))
hIsland = hIsland.add(rect(4.1543675164939426e-09, 2.612749834743978e-09).transl(6.776775653860042e-09, 4e-08, 0))
hIsland = hIsland.add(rect(9.143310808005088e-09, 1.966478147441177e-09).transl(3.3617904637176934e-08, 4e-08, 0))
hIsland = hIsland.add(rect(3.2127357954482812e-09, 5.224551867586742e-09).transl(-1.2430218094092704e-08, 4e-08, 0))
hIsland = hIsland.sub(rect(3.0454069441553014e-09, -1.5481383426284862e-10).transl(8.75121290366542e-08, 2.761004483877772e-08, 0))
hIsland = hIsland.add(rect(6.753335101919613e-09, 1.449577350260502e-09).transl(-5.051038395503164e-08, 4e-08, 0))
hIsland = hIsland.add(rect(5.3577064423130195e-09, 1.9839468188160033e-09).transl(-2.416590616401354e-08, 4e-08, 0))
hIsland = hIsland.sub(rect(5.198980583134607e-09, -1.194581109013906e-09).transl(-3.533602368999653e-08, 4e-08, 0))
hIsland = hIsland.sub(rect(7.195607593402357e-09, -9.363531766700472e-10).transl(-5.2541020465059814e-08, 4e-08, 0))
hIsland = hIsland.add(rect(4.734780103084147e-09, 2.42986491976811e-09).transl(-6.218684613891606e-08, 4e-08, 0))
hIsland = hIsland.add(rect(7.47678097060676e-09, 1.4366696662258392e-10).transl(5.739412539423388e-08, 4e-08, 0))
hIsland = hIsland.sub(rect(8.758972319403786e-09, -4.013920662070933e-10).transl(-3.8138831209020385e-08, 4e-08, 0))
hIsland = hIsland.sub(rect(7.284600328983788e-09, -6.950494767792979e-10).transl(6.557088891412324e-08, 4e-08, 0))
hIsland = hIsland.add(rect(8.761938261558233e-09, 2.966527833798012e-09).transl(6.999429254038586e-08, 4e-08, 0))
hIsland = hIsland.add(rect(8.385471433447602e-09, 2.317734330029433e-09).transl(6.710900895759081e-08, 4e-08, 0))
hIsland = hIsland.add(rect(9.878223170259428e-09, 4.939002954176404e-09).transl(-7.599597050259192e-08, 4e-08, 0))
hIsland = hIsland.sub(rect(3.7157571868433684e-09, -3.392966557878549e-10).transl(-3.5844294630344576e-08, 4e-08, 0))
hIsland = hIsland.sub(rect(7.42406696300809e-09, -2.0949227178962553e-09).transl(-5.132041271479696e-08, 4e-08, 0))
hIsland = hIsland.sub(rect(9.400866627640276e-09, -7.511569749685696e-10).transl(5.791141301240203e-08, 4e-08, 0))
hIsland = hIsland.add(rect(9.102096080394013e-09, 1.8237607453198656e-09).transl(2.1792422148704915e-08, 4e-08, 0))
hIsland = hIsland.add(rect(9.713274458799724e-09, 1.5886167868037685e-09).transl(-3.6607860786972456e-08, 4e-08, 0))
hIsland = hIsland.sub(rect(6.754643128156183e-09, -1.1947598744039515e-09).transl(-6.421937248267277e-08, 4e-08, 0))
hIsland = hIsland.sub(rect(9.062682032312348e-09, -3.757282839981744e-09).transl(1.6010651177841477e-08, 4e-08, 0))
hIsland = hIsland.add(rect(9.049267351800475e-09, 2.5031314664828073e-09).transl(2.9925547424057566e-08, 4e-08, 0))
hIsland = hIsland.sub(rect(8.682469018413592e-09, -2.1258907576828095e-09).transl(6.679953319507014e-08, 4e-08, 0))
hIsland = hIsland.sub(rect(9.869741532976555e-09, -1.2064588159360268e-10).transl(2.6664936291011563e-08, 4e-08, 0))
hIsland = hIsland.add(rect(2.6945200298964e-09, 1.8893061024574493e-09).transl(8.022038207289915e-08, 4e-08, 0))
hIsland = hIsland.add(rect(3.993054908540052e-09, 1.2860371100529937e-09).transl(-5.670130930182492e-08, 4e-08, 0))
hIsland = hIsland.add(rect(7.687750906703084e-09, 9.82323333866941e-10).transl(4.017795458180199e-09, 4e-08, 0))
hIsland = hIsland.add(rect(7.902878139809456e-09, 2.3468207503308803e-09).transl(1.3784965300312401e-08, 4e-08, 0))
hIsland = hIsland.add(rect(6.033799103326237e-09, 2.937242667231919e-10).transl(-5.591807983812558e-08, 4e-08, 0))
hIsland = hIsland.sub(rect(7.282376113745337e-09, -5.939700600445192e-10).transl(-3.2084655919011125e-08, 4e-08, 0))
hIsland = hIsland.add(rect(2.5057247590515444e-09, 2.5440740114429526e-09).transl(7.300071368663619e-08, 4e-08, 0))
hIsland = hIsland.sub(rect(7.835465530410155e-09, -7.647616810568237e-11).transl(-9.052616265439855e-10, 4e-08, 0))
hIsland = hIsland.add(rect(6.585433251871029e-09, 2.0101415070689394e-10).transl(-7.788067475853783e-08, 4e-08, 0))
hIsland = hIsland.sub(rect(9.822829421132727e-09, -2.2823409825600353e-10).transl(4.3799077390012637e-08, 4e-08, 0))
hIsland = hIsland.sub(rect(7.755641427657053e-09, -2.2223831910109283e-09).transl(-7.362956094684045e-08, 4e-08, 0))
hIsland = hIsland.add(rect(9.187895806376809e-09, 2.2549392820924897e-10).transl(-4.148539078645983e-08, 4e-08, 0))
hIsland = hIsland.add(rect(9.557889266451579e-09, 1.200429640251354e-10).transl(-8.92553052419107e-08, 1.5931914000246416e-08, 0))
hIsland = hIsland.sub(rect(5.506854553276731e-09, -1.7173379237254964e-10).transl(-7.344915057421189e-08, 4e-08, 0))
hIsland = hIsland.sub(rect(7.131966359920734e-09, -1.4990135181708754e-10).transl(8.585787529963134e-09, 4e-08, 0))
hIsland = hIsland.sub(rect(7.971615136311341e-09, -5.279448562930088e-11).transl(3.270568465654505e-08, 4e-08, 0))
hIsland = hIsland.add(rect(3.785004466597612e-09, 5.564491636910811e-10).transl(8.38576640100769e-09, 4e-08, 0))
hIsland = hIsland.sub(rect(9.024007639288883e-09, -1.6037873998189028e-09).transl(-6.046891098010671e-08, 4e-08, 0))
hIsland = hIsland.sub(rect(2.974307345293938e-09, -1.8056872702788048e-09).transl(-3.712713562874568e-08, 4e-08, 0))
hIsland = hIsland.sub(rect(3.841953209516176e-09, -3.2820331260836317e-09).transl(6.279766575607331e-08, 4e-08, 0))
hIsland = hIsland.add(rect(5.300065928572121e-09, 4.166867380840568e-09).transl(-5.172357723059826e-08, 4e-08, 0))
hIsland = hIsland.sub(rect(4.107188801035388e-09, -1.5687204229037526e-09).transl(7.086085634273023e-08, 4e-08, 0))
hIsland = hIsland.add(rect(2.4792115232745416e-09, 1.7331434843575212e-09).transl(-4.5835298546339774e-08, 4e-08, 0))
hIsland = hIsland.sub(rect(5.770955228995569e-09, -1.4554759026876634e-09).transl(7.323736144375672e-08, 4e-08, 0))
hIsland = hIsland.add(rect(9.081260406303084e-09, 9.255401522678398e-10).transl(-3.9172165134724446e-08, 4e-08, 0))
hIsland = hIsland.sub(rect(9.534320493949714e-09, -1.421337533152059e-09).transl(6.513157283026727e-08, 4e-08, 0))
hIsland = hIsland.add(rect(9.421568977242246e-09, 2.6432569269306384e-09).transl(-2.4695983041449878e-08, 4e-08, 0))
hIsland = hIsland.sub(rect(7.591052435221756e-09, -2.6287525001073896e-09).transl(3.42615991605881e-08, 4e-08, 0))
hIsland = hIsland.add(rect(2.416477063785564e-09, 2.199028843144808e-09).transl(5.9219220363527244e-08, 4e-08, 0))
hIsland = hIsland.sub(rect(7.1653473755154645e-09, -1.985213084917659e-09).transl(-4.231396138914658e-08, 4e-08, 0))
hIsland = hIsland.add(rect(8.271828023728759e-09, 1.5922526582546566e-09).transl(8.481837905262701e-08, 3.622153548373117e-08, 0))
hIsland = hIsland.add(rect(6.4618121671350165e-09, 3.1692077600383895e-09).transl(3.4012232866466684e-08, 4e-08, 0))
hIsland = hIsland.sub(rect(5.599899469799741e-09, -3.3906912642873667e-09).transl(6.994349314496217e-08, 4e-08, 0))
hIsland = hIsland.sub(rect(3.4265197304915605e-09, -3.6288692148342834e-10).transl(-3.986889561106477e-08, 4e-08, 0))
hIsland = hIsland.sub(rect(5.542311356108672e-09, -5.070575223607994e-10).transl(6.91158596788772e-08, 4e-08, 0))
hIsland = hIsland.add(rect(4.369972400160668e-09, 7.137386699009966e-10).transl(2.054451460542707e-08, 4e-08, 0))
hIsland = hIsland.add(rect(3.0998267438033777e-09, 1.1067483137436577e-10).transl(-4.6994179110668174e-08, 4e-08, 0))
hIsland = hIsland.add(rect(9.964234501047233e-09, 2.5463646819662634e-09).transl(8.41285181320945e-08, 3.750552204206105e-08, 0))
hIsland = hIsland.add(rect(4.818747478995271e-09, 4.951914949610905e-10).transl(-5.8371849139438454e-08, 4e-08, 0))
hIsland = hIsland.add(rect(6.451285014856386e-09, 5.494328688323455e-10).transl(-7.924501541418076e-08, 4e-08, 0))
hIsland = hIsland.add(rect(8.562467943927846e-09, 3.07090440761345e-10).transl(-6.556704245606975e-08, 4e-08, 0))
hIsland = hIsland.sub(rect(2.1737154797943633e-09, -4.139516680240022e-09).transl(3.855450798409654e-08, 4e-08, 0))
hIsland = hIsland.sub(rect(5.182946526990453e-09, -2.642775884751405e-09).transl(8.817219382994394e-08, 2.41638994750696e-08, 0))
hIsland = hIsland.add(rect(5.8408441736368654e-09, 3.45793593227549e-10).transl(2.778226131720465e-09, 4e-08, 0))
hIsland = hIsland.add(rect(9.144673217916021e-09, 1.1310668600729037e-09).transl(-1.6718940782947493e-08, 4e-08, 0))
hIsland = hIsland.add(rect(6.873667877096289e-09, 8.724344231555542e-10).transl(4.5363702179445954e-09, 4e-08, 0))
hIsland = hIsland.sub(rect(8.57833035831023e-09, -2.2996258235629906e-09).transl(-3.897097277803488e-08, 4e-08, 0))
hIsland = hIsland.sub(rect(8.603684291199848e-09, -3.802743345931814e-10).transl(1.9954133662904873e-08, 4e-08, 0))
hIsland = hIsland.sub(rect(9.957165564163205e-09, -3.0104777731191036e-09).transl(-5.4063183993464775e-08, 4e-08, 0))
hIsland = hIsland.add(rect(9.414271514005044e-09, 2.425521878462349e-10).transl(2.743972115698405e-08, 4e-08, 0))
hIsland = hIsland.add(rect(6.818258388144356e-09, 2.38364906470262e-09).transl(5.259692298458587e-09, 4e-08, 0))
hIsland = hIsland.sub(rect(8.34566274219252e-09, -2.1261750146832825e-09).transl(5.342162683835783e-08, 4e-08, 0))
hIsland = hIsland.add(rect(2.963357378423817e-09, 2.905709878760051e-11).transl(-1.1500921450375938e-08, 4e-08, 0))
hIsland = hIsland.add(rect(4.933709609375264e-09, 3.9119357663553286e-10).transl(-2.1718022532109893e-08, 4e-08, 0))
hIsland = hIsland.add(rect(2.9892570118343286e-09, 8.478346781660106e-10).transl(-2.272976278280383e-08, 4e-08, 0))
hIsland = hIsland.sub(rect(2.029004483996152e-09, -5.868475130492445e-10).transl(-6.558871327624411e-09, 4e-08, 0))
hIsland = hIsland.sub(rect(2.40910880974611e-09, -7.375968125003669e-09).transl(2.418667046726612e-09, 4e-08, 0))
hIsland = hIsland.add(rect(4.743933511378949e-09, 5.835380467882269e-11).transl(-4.7351567469743896e-08, 4e-08, 0))
hIsland = hIsland.add(rect(3.85539377350573e-09, 1.7570468549393186e-09).transl(8.314186843747374e-08, 3.885074944928906e-08, 0))
hIsland = hIsland.add(rect(9.430134762520699e-09, 2.9722513472262123e-09).transl(6.212963459903772e-08, 4e-08, 0))
hIsland = hIsland.sub(rect(5.4609726425261755e-09, -1.9176625426608067e-09).transl(-7.484380903575474e-08, 4e-08, 0))
hIsland = hIsland.sub(rect(4.310179232922774e-09, -2.643482689145141e-09).transl(-7.692655804162645e-09, 4e-08, 0))
hIsland = hIsland.add(rect(8.123157040384736e-09, 2.464892182447221e-09).transl(-8.786771730109936e-09, 4e-08, 0))
hIsland = hIsland.sub(rect(5.17378345145632e-09, -8.305198352983127e-10).transl(-3.3772194133085296e-08, 4e-08, 0))
hIsland = hIsland.sub(rect(5.9040935994814e-09, -2.976677353433727e-09).transl(-8.718034814842489e-08, 2.907743489434356e-08, 0))
hIsland = hIsland.sub(rect(3.7079663538280257e-09, -1.2096199210758496e-09).transl(-3.385455144812807e-08, 4e-08, 0))
hIsland = hIsland.sub(rect(7.729092970686454e-09, -2.4878365842803483e-09).transl(-1.402880144991667e-08, 4e-08, 0))
hIsland = hIsland.sub(rect(3.472935948063814e-09, -1.1011510279637472e-09).transl(1.630281274336545e-08, 4e-08, 0))
hIsland = hIsland.add(rect(9.691063461370509e-09, 4.928805482309114e-10).transl(-2.9158588459082743e-08, 4e-08, 0))
hIsland = hIsland.sub(rect(3.828555788636764e-09, -7.619210825234613e-10).transl(-6.568668035337046e-08, 4e-08, 0))
hIsland = hIsland.sub(rect(7.069958241796169e-09, -2.7523383407492996e-09).transl(-7.881324178879657e-08, 4e-08, 0))
hIsland = hIsland.sub(rect(9.762592178212412e-09, -2.1538291788464167e-09).transl(4.97881299317456e-09, 4e-08, 0))
hIsland = hIsland.add(rect(9.703600953385576e-09, 1.7387594775642683e-09).transl(7.234690986216283e-08, 4e-08, 0))
hIsland = hIsland.add(rect(8.354435637515064e-09, 2.4740390482236395e-09).transl(-4.9447601096849816e-08, 4e-08, 0))
hIsland = hIsland.add(rect(7.31285146090126e-09, 2.0608931812034444e-09).transl(7.351017107655482e-08, 4e-08, 0))
hIsland = hIsland.add(rect(7.398413759750671e-09, 7.195283390929525e-09).transl(2.4594235687152693e-08, 4e-08, 0))
hIsland = hIsland.sub(rect(4.42341018739107e-09, -2.9154718771639564e-11).transl(7.446660103105515e-08, 4e-08, 0))
hIsland = hIsland.add(rect(3.667686003598796e-09, 1.6642748741329195e-09).transl(6.961282020849243e-08, 4e-08, 0))
hIsland = hIsland.add(rect(3.0720291228673765e-09, 2.3645051632370147e-09).transl(-8.969738605070535e-08, 1.028528939676636e-08, 0))
hIsland = hIsland.add(rect(5.260329792087595e-09, 5.394670390402118e-10).transl(3.7280208665612056e-08, 4e-08, 0))
hIsland = hIsland.sub(rect(3.0217885949264353e-09, -3.2771323336181753e-10).transl(-1.752398851206718e-08, 4e-08, 0))
hIsland = hIsland.sub(rect(2.331936067180677e-09, -2.1879889278786548e-10).transl(5.579474782393236e-08, 4e-08, 0))
hIsland = hIsland.add(rect(7.090224450423443e-09, 2.0401906385148006e-09).transl(-6.719666127633049e-08, 4e-08, 0))
hIsland = hIsland.sub(rect(7.199126442795023e-09, -4.026297685564011e-09).transl(-8.300134642717179e-08, 3.899847733107227e-08, 0))
hIsland = hIsland.sub(rect(4.4843572637996726e-09, -1.7452891172327188e-09).transl(-4.94940724673702e-08, 4e-08, 0))
hIsland = hIsland.add(rect(5.41618813112854e-09, 1.2376326094674231e-09).transl(-1.4003184478900294e-08, 4e-08, 0))
hIsland = hIsland.add(rect(7.359176283138418e-09, 1.5181020151071264e-09).transl(4.067329596019268e-08, 4e-08, 0))
hIsland = hIsland.sub(rect(2.227155904361691e-09, -2.945884848822534e-09).transl(2.655079805308315e-08, 4e-08, 0))
hIsland = hIsland.sub(rect(8.055380842340714e-09, -3.0569314169267252e-09).transl(-2.7674254386087605e-08, 4e-08, 0))
hIsland = hIsland.add(rect(6.106612130443096e-09, 4.45451483803994e-10).transl(-1.584228134425022e-08, 4e-08, 0))
hIsland = hIsland.add(rect(9.668344929153777e-09, 2.830327508343464e-09).transl(5.188720018803507e-08, 4e-08, 0))
hIsland = hIsland.add(rect(4.964899718265483e-09, 3.0211637129975844e-09).transl(-2.1906942708572336e-08, 4e-08, 0))
hIsland = hIsland.add(rect(3.7175388138438726e-09, 1.5612719466267847e-09).transl(-7.858014229113693e-08, 4e-08, 0))
hIsland = hIsland.add(rect(9.620664841476068e-09, 1.4836016638173462e-09).transl(7.073280004727923e-08, 4e-08, 0))
hIsland = hIsland.sub(rect(9.729960641391874e-09, -4.404664269239534e-09).transl(-8.918944089511861e-08, 1.658978285920991e-08, 0))
hIsland = hIsland.sub(rect(7.794620265866878e-09, -1.7330486514084973e-10).transl(3.186110690719358e-09, 4e-08, 0))
hIsland = hIsland.sub(rect(5.3299700303845235e-09, -1.9287903526134933e-11).transl(-1.2618362299848794e-08, 4e-08, 0))
hIsland = hIsland.sub(rect(9.10855452514122e-09, -3.900778833594182e-09).transl(-4.281084707810119e-08, 4e-08, 0))
hIsland = hIsland.sub(rect(2.5059822544872885e-09, -4.507619196132859e-09).transl(1.96956709527326e-08, 4e-08, 0))
hIsland = hIsland.add(rect(6.626554530162759e-09, 2.3665422838054806e-09).transl(-3.8401837321195416e-08, 4e-08, 0))
hIsland = hIsland.add(rect(5.640997369785328e-09, 1.3782367150101147e-09).transl(8.589096797021774e-08, 3.357789758469817e-08, 0))
hIsland = hIsland.sub(rect(7.473528149040602e-09, -2.4191902023294414e-09).transl(2.6504525880926675e-08, 4e-08, 0))
hIsland = hIsland.add(rect(4.099783507164389e-09, 1.8423000953668702e-09).transl(-1.1551766354100795e-08, 4e-08, 0))
hIsland = hIsland.add(rect(6.488626659332221e-09, 9.983113593802152e-10).transl(5.951000428178705e-08, 4e-08, 0))
hIsland = hIsland.add(rect(5.899793981122829e-09, 1.8740196592324718e-09).transl(3.448905343112777e-08, 4e-08, 0))
hIsland = hIsland.sub(rect(7.414165929146157e-09, -1.2173992980988978e-09).transl(-4.1787683047967944e-08, 4e-08, 0))
hIsland = hIsland.sub(rect(6.828021523919469e-09, -5.726362187284087e-10).transl(-8.566605370256739e-08, 3.420430782045862e-08, 0))
hIsland = hIsland.sub(rect(2.1213303048673738e-09, -3.1165882423983075e-09).transl(7.954489377768673e-08, 4e-08, 0))
hIsland = hIsland.add(rect(7.104875412257415e-09, 2.1992984238510213e-09).transl(-4.4531585790564366e-08, 4e-08, 0))
hIsland = hIsland.sub(rect(3.1543241769068234e-09, -1.8368038797016543e-10).transl(-1.8233504159803966e-08, 4e-08, 0))
hIsland = hIsland.sub(rect(3.8209732499405486e-09, -5.301900995425665e-10).transl(-4.6242694179133586e-08, 4e-08, 0))
hIsland = hIsland.sub(rect(5.35448686004028e-09, -4.09484722889136e-11).transl(-1.753777312998437e-08, 4e-08, 0))
hIsland = hIsland.add(rect(3.923029027012797e-09, 3.2906429030507954e-09).transl(7.404310440022109e-08, 4e-08, 0))
hIsland = hIsland.sub(rect(5.48991912723201e-09, -1.4703975448287717e-09).transl(-1.9366417955996265e-08, 4e-08, 0))
hIsland = hIsland.sub(rect(7.875524211639552e-09, -2.22055106790534e-09).transl(-7.234249378447826e-08, 4e-08, 0))
vIsland = hIsland.rotz(pi / 2)
hIslands = hIslands.add(hIsland.transl(-a/2, a, 0))
hIsland = rect(islandLength-2*ellipseConstant, islandWidth)
hIsland = hIsland.add(ellipse(ellipseConstant*2, islandWidth).transl(islandLength/2-ellipseConstant, 0, 0))
hIsland = hIsland.add(ellipse(ellipseConstant*2, islandWidth).transl(-islandLength/2+ellipseConstant, 0, 0))
hIsland = hIsland.sub(rect(3.554519519332871e-09, -2.121591315414683e-09).transl(7.944616876199508e-08, -4e-08, 0))
hIsland = hIsland.add(rect(2.9620408695174743e-09, 2.230785651558984e-10).transl(-3.78054420884501e-08, -4e-08, 0))
hIsland = hIsland.sub(rect(9.830405370990373e-09, -3.512471889564254e-09).transl(6.379518616073912e-08, -4e-08, 0))
hIsland = hIsland.sub(rect(9.66813146309796e-09, -2.2389595769976475e-09).transl(-5.221663839141509e-08, -4e-08, 0))
hIsland = hIsland.add(rect(5.010756666723128e-09, 1.1653886613200215e-09).transl(-9.289787116407335e-10, -4e-08, 0))
hIsland = hIsland.sub(rect(5.4965702807006875e-09, -8.91251402147151e-10).transl(-2.9562978400722007e-08, -4e-08, 0))
hIsland = hIsland.add(rect(6.0071990463092634e-09, 8.710585618565478e-10).transl(8.515176906252101e-08, -3.5489609302224816e-08, 0))
hIsland = hIsland.sub(rect(3.09643111543529e-09, -2.2599586006880332e-09).transl(7.889787593653539e-08, -4e-08, 0))
hIsland = hIsland.sub(rect(3.844172829885543e-09, -1.6802695765433516e-09).transl(5.1318862496202846e-08, -4e-08, 0))
hIsland = hIsland.sub(rect(6.5181882241140474e-09, -4.5079081432741806e-10).transl(-5.6225862220994065e-08, -4e-08, 0))
hIsland = hIsland.sub(rect(3.2906152640455757e-09, -1.154244836439637e-09).transl(-5.0029326152941734e-08, -4e-08, 0))
hIsland = hIsland.add(rect(9.776728933101887e-09, 3.097596540508237e-10).transl(4.9015017819998066e-08, -4e-08, 0))
hIsland = hIsland.sub(rect(2.646017765677451e-09, -4.598039602307809e-10).transl(7.123212222595274e-08, -4e-08, 0))
hIsland = hIsland.sub(rect(5.909733201267109e-09, -9.337136404401663e-10).transl(3.6704721251226826e-08, -4e-08, 0))
hIsland = hIsland.add(rect(6.615380223138339e-09, 4.553757185258895e-11).transl(4.773496243763216e-09, -4e-08, 0))
hIsland = hIsland.add(rect(9.890662641161065e-09, 8.208863104683342e-10).transl(7.401102954853887e-08, -4e-08, 0))
hIsland = hIsland.sub(rect(3.0470434638255573e-09, -3.9308698056062324e-10).transl(-6.272226581675608e-09, -4e-08, 0))
hIsland = hIsland.sub(rect(4.329328365033398e-09, -3.0094024785672523e-09).transl(8.531428138188084e-08, -3.510463404616532e-08, 0))
hIsland = hIsland.sub(rect(6.16568797241739e-09, -2.4629263051885412e-09).transl(-1.2611878338093917e-08, -4e-08, 0))
hIsland = hIsland.sub(rect(2.47214890015991e-09, -1.6806479570709923e-09).transl(1.4219937158522958e-08, -4e-08, 0))
hIsland = hIsland.sub(rect(2.681818141161519e-09, -7.195726427214719e-10).transl(-3.8945885132843244e-08, -4e-08, 0))
hIsland = hIsland.sub(rect(3.947450312273519e-09, -1.9387176336827277e-10).transl(-4.5011693056540155e-08, -4e-08, 0))
hIsland = hIsland.add(rect(3.060588953982263e-09, 3.0497642017767927e-10).transl(7.653905769102217e-08, -4e-08, 0))
hIsland = hIsland.add(rect(2.325333157266066e-09, 2.994402348424089e-09).transl(1.7774167993382937e-08, -4e-08, 0))
hIsland = hIsland.sub(rect(4.116818694815691e-09, -7.453861375532266e-10).transl(3.0905679820470734e-08, -4e-08, 0))
hIsland = hIsland.add(rect(2.4843839174181374e-09, 1.0979514091883338e-09).transl(7.546932034152739e-08, -4e-08, 0))
hIsland = hIsland.sub(rect(9.289352379160413e-09, -3.276117717259025e-09).transl(-8.829285247906593e-08, -2.343967417233708e-08, 0))
hIsland = hIsland.sub(rect(6.110412692944998e-09, -1.7050635963396425e-09).transl(-7.819932783869184e-08, -4e-08, 0))
hIsland = hIsland.sub(rect(7.485710580999612e-09, -4.55773908125075e-10).transl(-8.831053296361279e-09, -4e-08, 0))
hIsland = hIsland.add(rect(2.1704465137415634e-09, 1.7942234701939173e-10).transl(1.0292851281779063e-08, -4e-08, 0))
hIsland = hIsland.sub(rect(2.4331212098018925e-09, -1.6322420672660488e-09).transl(-7.08076953296628e-08, -4e-08, 0))
hIsland = hIsland.sub(rect(3.98226139275766e-09, -2.882210369934598e-09).transl(-5.6917662273917967e-08, -4e-08, 0))
hIsland = hIsland.add(rect(5.366838427660105e-09, 2.3216723769686715e-09).transl(-3.369025997584648e-08, -4e-08, 0))
hIsland = hIsland.sub(rect(5.608641337733988e-09, -2.947565858742705e-10).transl(-5.685476108770777e-09, -4e-08, 0))
hIsland = hIsland.add(rect(7.870186754852605e-09, 7.271427241969624e-10).transl(-5.1585378114691996e-08, -4e-08, 0))
hIsland = hIsland.sub(rect(7.92667662615992e-09, -6.459209315149642e-10).transl(7.909250755103127e-08, -4e-08, 0))
hIsland = hIsland.sub(rect(4.978544029089556e-09, -2.178051034633607e-09).transl(-4.902385230291429e-08, -4e-08, 0))
hIsland = hIsland.sub(rect(2.3485792485727705e-09, -2.8195806338634265e-09).transl(-1.5706791308308974e-08, -4e-08, 0))
hIsland = hIsland.add(rect(9.229256431994455e-09, 5.523765595234641e-10).transl(-4.3360484484728945e-08, -4e-08, 0))
hIsland = hIsland.add(rect(7.240860621582694e-09, 7.560142714479245e-11).transl(7.357743835204984e-08, -4e-08, 0))
hIsland = hIsland.sub(rect(3.5395638753069954e-09, -8.313488893105802e-10).transl(-6.588711633804148e-08, -4e-08, 0))
hIsland = hIsland.add(rect(3.463900144318318e-09, 1.6894433066641397e-10).transl(7.159873483681886e-08, -4e-08, 0))
hIsland = hIsland.sub(rect(8.523848933903474e-09, -1.4173379159630536e-09).transl(-2.0913609579716902e-08, -4e-08, 0))
hIsland = hIsland.sub(rect(3.6927022670789836e-09, -9.520456424240375e-10).transl(1.0904645103065262e-08, -4e-08, 0))
hIsland = hIsland.add(rect(2.4569809723312765e-09, 4.0299098547521344e-11).transl(-1.4077873070690502e-08, -4e-08, 0))
hIsland = hIsland.add(rect(2.462778674940733e-09, 9.316088615442316e-10).transl(6.7981807282081845e-09, -4e-08, 0))
hIsland = hIsland.sub(rect(2.4568190715507444e-09, -1.8226874191466558e-09).transl(1.204825900148231e-08, -4e-08, 0))
hIsland = hIsland.sub(rect(7.2713153789262825e-09, -1.8544301746677729e-09).transl(-2.334061519735667e-09, -4e-08, 0))
hIsland = hIsland.add(rect(6.202693988500175e-09, 3.402994470408541e-09).transl(-3.114307055090243e-08, -4e-08, 0))
hIsland = hIsland.add(rect(4.250484202748557e-09, 6.063829822451139e-10).transl(6.200154693257843e-08, -4e-08, 0))
hIsland = hIsland.add(rect(5.673677661090856e-09, 2.3890707438482157e-09).transl(9.699770242164404e-09, -4e-08, 0))
hIsland = hIsland.sub(rect(5.287196680373853e-09, -3.8853560701331e-09).transl(1.1708735444203964e-08, -4e-08, 0))
hIsland = hIsland.sub(rect(8.203407121562107e-09, -3.851096515751731e-09).transl(8.586570884984204e-09, -4e-08, 0))
hIsland = hIsland.sub(rect(4.373736682378026e-09, -1.3182566487861646e-10).transl(-3.665829763857778e-08, -4e-08, 0))
hIsland = hIsland.add(rect(5.947657474072628e-09, 2.21054894962064e-09).transl(3.451916312639275e-08, -4e-08, 0))
hIsland = hIsland.sub(rect(4.7169195600184825e-09, -3.970497123338996e-09).transl(4.675813352748424e-09, -4e-08, 0))
hIsland = hIsland.add(rect(9.987069359876743e-09, 2.45293962980703e-09).transl(2.4752971998977328e-08, -4e-08, 0))
hIsland = hIsland.add(rect(8.863567937633004e-09, 2.185653690708069e-10).transl(-8.357195307636403e-08, -3.8331898813218184e-08, 0))
hIsland = hIsland.sub(rect(8.908869582862403e-09, -4.3013876334473224e-10).transl(5.539000851969084e-08, -4e-08, 0))
hIsland = hIsland.sub(rect(3.2192470290979966e-09, -6.930930597662834e-10).transl(1.5663941652407247e-08, -4e-08, 0))
hIsland = hIsland.sub(rect(8.098787973319667e-09, -6.346348575002013e-10).transl(-9.479880811612601e-09, -4e-08, 0))
hIsland = hIsland.sub(rect(8.955235799297868e-09, -1.1801508456543055e-10).transl(-3.8258237307659145e-08, -4e-08, 0))
hIsland = hIsland.add(rect(7.891424522215723e-09, 9.594957678350667e-10).transl(1.604230576658267e-08, -4e-08, 0))
hIsland = hIsland.add(rect(9.639450782126911e-09, 1.502852802686786e-09).transl(7.49097332171368e-08, -4e-08, 0))
hIsland = hIsland.sub(rect(6.579618547163877e-09, -7.987304976286338e-10).transl(8.39531857938957e-08, -3.7785278645337925e-08, 0))
hIsland = hIsland.add(rect(7.19575040362094e-09, 7.427202578724217e-10).transl(-5.251913833496487e-08, -4e-08, 0))
hIsland = hIsland.add(rect(5.904807296183933e-09, 7.147831400042246e-11).transl(-3.017381199475211e-08, -4e-08, 0))
hIsland = hIsland.add(rect(9.549511463577073e-09, 1.3705664586938507e-09).transl(4.053469091268086e-08, -4e-08, 0))
hIsland = hIsland.add(rect(7.896926168965169e-09, 7.249702267637321e-10).transl(-3.627094656248604e-08, -4e-08, 0))
hIsland = hIsland.add(rect(9.142469839834273e-09, 1.8906431148713837e-09).transl(5.977230555447937e-08, -4e-08, 0))
hIsland = hIsland.sub(rect(8.721058604203015e-09, -2.5825781779602183e-09).transl(2.3558917407332158e-08, -4e-08, 0))
hIsland = hIsland.add(rect(4.052922724535229e-09, 9.601617365091436e-10).transl(-6.7372215427376285e-09, -4e-08, 0))
hIsland = hIsland.add(rect(6.4539114404703435e-09, 1.4876594324138282e-09).transl(1.0801105770182908e-08, -4e-08, 0))
hIsland = hIsland.add(rect(9.712924540107293e-09, 1.56717965214553e-09).transl(-1.5400793543162058e-08, -4e-08, 0))
hIsland = hIsland.add(rect(3.772507280106071e-09, 1.3776869792607861e-09).transl(3.113291931076161e-08, -4e-08, 0))
hIsland = hIsland.add(rect(8.841851368966458e-09, 8.691445298963774e-10).transl(2.245825776139116e-08, -4e-08, 0))
hIsland = hIsland.sub(rect(5.420925962721434e-09, -2.1348581215785986e-09).transl(-3.6409068759505685e-08, -4e-08, 0))
hIsland = hIsland.add(rect(7.963464641766039e-09, 6.208492857277146e-09).transl(7.729898196577391e-08, -4e-08, 0))
hIsland = hIsland.sub(rect(7.791785463106869e-09, -5.217978519021073e-10).transl(-5.2857127965377895e-08, -4e-08, 0))
hIsland = hIsland.add(rect(5.374667858238806e-09, 1.4626809425155495e-09).transl(5.0644018753372517e-08, -4e-08, 0))
hIsland = hIsland.sub(rect(5.0212698911027584e-09, -8.760554310175488e-10).transl(-4.1739917197801376e-08, -4e-08, 0))
hIsland = hIsland.sub(rect(9.278930082025813e-09, -2.0119543725751767e-09).transl(-6.574627352180042e-08, -4e-08, 0))
hIsland = hIsland.sub(rect(2.144674208649133e-09, -2.6892563204186374e-09).transl(1.7824699991935743e-08, -4e-08, 0))
hIsland = hIsland.sub(rect(6.179177789914733e-09, -1.0979634182385744e-09).transl(4.826127376593221e-08, -4e-08, 0))
hIsland = hIsland.sub(rect(7.902972841170874e-09, -8.777546030251175e-10).transl(6.94916039392604e-08, -4e-08, 0))
hIsland = hIsland.add(rect(4.99038502253939e-09, 8.812887995966405e-10).transl(2.3345363919397018e-08, -4e-08, 0))
hIsland = hIsland.add(rect(6.529554914661487e-09, 2.439951600372192e-10).transl(-3.738655459257525e-08, -4e-08, 0))
hIsland = hIsland.add(rect(7.725362895955154e-09, 1.319677885589636e-09).transl(2.4648506211483182e-08, -4e-08, 0))
hIsland = hIsland.sub(rect(6.596568477924704e-09, -2.5269182079797428e-09).transl(5.55048975188847e-09, -4e-08, 0))
hIsland = hIsland.sub(rect(8.689950556572615e-09, -2.0208655904718854e-10).transl(-8.097116866353905e-08, -4e-08, 0))
hIsland = hIsland.sub(rect(2.48435775967132e-09, -2.409206938180304e-10).transl(8.938546366229103e-08, -1.4527283258817375e-08, 0))
hIsland = hIsland.sub(rect(7.528778636168449e-09, -2.9439489633416914e-11).transl(2.227178533121392e-08, -4e-08, 0))
hIsland = hIsland.add(rect(6.190922959104056e-09, 1.0787919836633413e-09).transl(6.625797953340895e-08, -4e-08, 0))
hIsland = hIsland.sub(rect(3.519838047655564e-09, -3.7937446331713143e-10).transl(7.276845266154076e-08, -4e-08, 0))
hIsland = hIsland.add(rect(3.366832412972394e-09, 6.318909471373823e-10).transl(4.599587590546049e-09, -4e-08, 0))
hIsland = hIsland.add(rect(7.186984038464812e-09, 6.322032746632695e-11).transl(7.716403190042241e-08, -4e-08, 0))
hIsland = hIsland.add(rect(6.6583863022468896e-09, 9.50270771222534e-10).transl(6.92905037200651e-08, -4e-08, 0))
hIsland = hIsland.sub(rect(7.482746331582421e-09, -2.3928667700880684e-09).transl(2.0817707787783685e-08, -4e-08, 0))
hIsland = hIsland.sub(rect(9.90497209709798e-09, -2.7463752144343574e-09).transl(8.160629103083813e-08, -3.990913412226137e-08, 0))
hIsland = hIsland.sub(rect(5.918166635371847e-09, -4.3057801042543316e-10).transl(5.817660483048256e-08, -4e-08, 0))
hIsland = hIsland.sub(rect(7.030414258126875e-09, -4.992135000552281e-09).transl(4.258507379264306e-08, -4e-08, 0))
hIsland = hIsland.sub(rect(3.7249463091397495e-09, -1.7348389039837498e-09).transl(-3.3820221563701275e-09, -4e-08, 0))
hIsland = hIsland.add(rect(9.892588721853838e-09, 5.871685435869391e-10).transl(-4.1129405412954215e-08, -4e-08, 0))
hIsland = hIsland.add(rect(2.5603952565813613e-09, 2.2691194606926668e-09).transl(1.961992245674512e-08, -4e-08, 0))
hIsland = hIsland.sub(rect(4.585908266736951e-09, -2.636065227179987e-09).transl(-7.910789441254416e-08, -4e-08, 0))
hIsland = hIsland.add(rect(2.20992274428144e-09, 1.9077294852221642e-09).transl(1.6274098352767546e-08, -4e-08, 0))
hIsland = hIsland.add(rect(6.278902585445263e-09, 8.561676148616821e-10).transl(2.8124145203728223e-08, -4e-08, 0))
hIsland = hIsland.sub(rect(4.237589997052575e-09, -3.5674623045063992e-09).transl(8.065675195561154e-08, -4e-08, 0))
hIsland = hIsland.sub(rect(3.867505488110446e-09, -1.592577031410316e-09).transl(-7.500247560239742e-08, -4e-08, 0))
hIsland = hIsland.sub(rect(4.0119652086984165e-09, -1.3663726969111634e-09).transl(4.166438630655493e-08, -4e-08, 0))
hIsland = hIsland.add(rect(6.764842887453799e-09, 1.019758039741066e-09).transl(-5.517624924580007e-08, -4e-08, 0))
hIsland = hIsland.sub(rect(3.006083189480677e-09, -2.871921854087487e-10).transl(-3.5106686841833744e-08, -4e-08, 0))
hIsland = hIsland.sub(rect(8.79166025533384e-09, -6.405627153809426e-10).transl(-5.8845416324639607e-08, -4e-08, 0))
hIsland = hIsland.add(rect(7.478159715271379e-09, 3.8928463384052785e-10).transl(-7.309358568771145e-08, -4e-08, 0))
hIsland = hIsland.sub(rect(5.707933462279815e-09, -7.879074316147916e-10).transl(-4.154606140431617e-08, -4e-08, 0))
hIsland = hIsland.add(rect(7.535729172645592e-09, 7.196623157693953e-10).transl(6.176847609937828e-08, -4e-08, 0))
hIsland = hIsland.add(rect(6.131663991639795e-09, 1.9763345840810387e-09).transl(2.5767696596415372e-08, -4e-08, 0))
hIsland = hIsland.add(rect(3.796823935644363e-09, 2.438564149018888e-09).transl(-6.42186433555142e-08, -4e-08, 0))
hIsland = hIsland.sub(rect(2.7808215241543596e-09, -2.5998948571980163e-11).transl(-7.48869900649895e-08, -4e-08, 0))
hIsland = hIsland.add(rect(6.271962578799802e-09, 1.9299243733384262e-09).transl(-4.422682832026707e-08, -4e-08, 0))
hIsland = hIsland.sub(rect(6.5126743386368005e-09, -3.950245261916339e-09).transl(-5.1012863582868737e-08, -4e-08, 0))
hIsland = hIsland.add(rect(4.938813434777124e-09, 2.01548529648376e-09).transl(-4.064477177648952e-08, -4e-08, 0))
hIsland = hIsland.sub(rect(5.306881351362313e-09, -1.1498070132116477e-09).transl(-2.9472073284521266e-08, -4e-08, 0))
hIsland = hIsland.sub(rect(8.188961958366985e-09, -7.984208823433927e-10).transl(-8.000803179795896e-08, -4e-08, 0))
hIsland = hIsland.sub(rect(6.806811576051976e-09, -7.019614741207714e-10).transl(5.032662545290358e-09, -4e-08, 0))
hIsland = hIsland.sub(rect(4.015102549640629e-09, -1.4568918365520821e-09).transl(1.1230412880226303e-08, -4e-08, 0))
hIsland = hIsland.sub(rect(9.294610414865165e-09, -4.5240192007359145e-10).transl(6.617223662082113e-08, -4e-08, 0))
hIsland = hIsland.add(rect(7.467107422677636e-09, 2.9955568522573744e-09).transl(6.523937512185501e-08, -4e-08, 0))
hIsland = hIsland.add(rect(7.2347261047369485e-09, 6.988299663940472e-10).transl(6.1772939266418885e-09, -4e-08, 0))
hIsland = hIsland.sub(rect(4.3659019724043476e-09, -2.8622889479064544e-09).transl(5.424214908943305e-08, -4e-08, 0))
hIsland = hIsland.add(rect(2.388917991403945e-09, 1.3344572014852385e-09).transl(-4.61353157130089e-08, -4e-08, 0))
hIsland = hIsland.add(rect(7.753893705792338e-09, 6.012750887137995e-11).transl(3.9328803562291646e-08, -4e-08, 0))
hIsland = hIsland.add(rect(7.607186432491484e-09, 1.3157251761120092e-09).transl(-2.306830083105507e-08, -4e-08, 0))
hIsland = hIsland.add(rect(5.579336350729075e-09, 5.5352369729236115e-09).transl(-8.36961672168923e-08, -3.8162921010070044e-08, 0))
hIsland = hIsland.add(rect(2.129273481453802e-09, 9.77242566070038e-10).transl(-5.7427215613865146e-08, -4e-08, 0))
hIsland = hIsland.sub(rect(6.937557899513198e-09, -6.631365121502789e-10).transl(-6.54443944329505e-08, -4e-08, 0))
hIsland = hIsland.sub(rect(5.911425302135264e-09, -2.0998857708561636e-09).transl(5.046357111470266e-09, -4e-08, 0))
hIsland = hIsland.sub(rect(5.754568436366227e-09, -8.103802228313601e-10).transl(3.086428404973643e-08, -4e-08, 0))
hIsland = hIsland.sub(rect(7.210437415305395e-09, -1.7437332394434006e-09).transl(-8.484639575558636e-08, -3.616293435362838e-08, 0))
hIsland = hIsland.sub(rect(6.146008094667316e-09, -2.6739136134894218e-09).transl(-4.8700559482960083e-08, -4e-08, 0))
hIsland = hIsland.add(rect(5.123114876058124e-09, 3.155969132026973e-09).transl(-6.212100462895449e-08, -4e-08, 0))
hIsland = hIsland.add(rect(5.391181078139711e-09, 1.6430798790260186e-09).transl(-7.937703345390059e-08, -4e-08, 0))
hIsland = hIsland.add(rect(4.909930285578068e-09, 8.962256346809824e-10).transl(6.584243402647608e-08, -4e-08, 0))
hIsland = hIsland.add(rect(9.728329825450548e-09, 3.06753168928872e-11).transl(5.356141196871603e-08, -4e-08, 0))
hIsland = hIsland.add(rect(8.299966315942648e-09, 7.286602083158614e-10).transl(-2.380264774929884e-08, -4e-08, 0))
hIsland = hIsland.sub(rect(4.236103059716909e-09, -6.113588201381854e-11).transl(4.590466226495882e-09, -4e-08, 0))
hIsland = hIsland.sub(rect(9.91183540652448e-09, -4.859149435076131e-10).transl(5.594242157333321e-09, -4e-08, 0))
hIsland = hIsland.add(rect(8.10391488926554e-09, 1.3146798942985094e-09).transl(-3.8795929005689136e-08, -4e-08, 0))
hIsland = hIsland.sub(rect(8.602917501287518e-09, -4.579944941872941e-10).transl(8.220887409936897e-08, -3.9637523913117496e-08, 0))
hIsland = hIsland.sub(rect(4.795597561115815e-09, -1.7938210346940032e-09).transl(-6.77383031981152e-08, -4e-08, 0))
hIsland = hIsland.add(rect(8.03096684128669e-09, 3.0516870834407373e-10).transl(-4.602173564835023e-10, -4e-08, 0))
hIsland = hIsland.add(rect(3.918107635351927e-09, 4.49966977929291e-09).transl(2.4750057928398497e-08, -4e-08, 0))
hIsland = hIsland.sub(rect(5.017010355533131e-09, -3.872287790894874e-09).transl(1.571045555089073e-08, -4e-08, 0))
hIsland = hIsland.add(rect(8.5997569065707e-09, 2.8991645703911138e-09).transl(8.067701321247342e-08, -4e-08, 0))
hIsland = hIsland.add(rect(9.006183105066662e-09, 4.2779068450208854e-10).transl(-4.4989944217130315e-08, -4e-08, 0))
hIsland = hIsland.add(rect(4.320461545873964e-09, 2.8120239768714775e-09).transl(-4.697869174430567e-08, -4e-08, 0))
hIsland = hIsland.sub(rect(2.5989879886600227e-09, -2.3536320712580526e-09).transl(5.174144698071827e-08, -4e-08, 0))
hIsland = hIsland.add(rect(8.616729435464092e-09, 1.1705523908623668e-09).transl(-4.1462466003277515e-08, -4e-08, 0))
hIsland = hIsland.sub(rect(4.206982767830448e-09, -1.2433496290453948e-09).transl(-7.793156274527182e-08, -4e-08, 0))
hIsland = hIsland.add(rect(9.16698752049292e-09, 3.0594521996203734e-09).transl(-4.970631774790543e-08, -4e-08, 0))
hIsland = hIsland.add(rect(4.211739704016665e-09, 5.950428486066557e-10).transl(-3.839976372516128e-08, -4e-08, 0))
hIsland = hIsland.sub(rect(3.919122021647092e-09, -6.2567655349095116e-09).transl(-8.355167393520041e-10, -4e-08, 0))
hIsland = hIsland.sub(rect(8.944172231827469e-09, -1.2928409681816877e-09).transl(7.807340468503623e-08, -4e-08, 0))
hIsland = hIsland.add(rect(5.835741892912175e-09, 1.1844633698930612e-09).transl(-3.027773704893442e-08, -4e-08, 0))
hIsland = hIsland.sub(rect(3.5177247560106165e-09, -4.392476431710178e-10).transl(4.7031237476732674e-08, -4e-08, 0))
hIsland = hIsland.sub(rect(3.814308780134333e-09, -5.032261997889829e-10).transl(3.8469645034723516e-08, -4e-08, 0))
hIsland = hIsland.sub(rect(7.104350874497701e-09, -2.0370980540263353e-09).transl(7.641917638962573e-09, -4e-08, 0))
hIsland = hIsland.add(rect(9.438723149805771e-09, 2.371779032010986e-09).transl(-1.2405739752833981e-08, -4e-08, 0))
hIsland = hIsland.add(rect(3.829207398197438e-09, 2.429979624414137e-09).transl(8.659206470065653e-08, -3.1341626131494e-08, 0))
hIsland = hIsland.add(rect(6.293531486520345e-09, 8.899542537693953e-10).transl(6.042750013974948e-08, -4e-08, 0))
hIsland = hIsland.sub(rect(2.6714998472466285e-09, -1.176924169032869e-09).transl(-1.957823358148869e-08, -4e-08, 0))
hIsland = hIsland.add(rect(9.629346009920641e-09, 3.1382774774169755e-09).transl(-4.655703546631456e-08, -4e-08, 0))
hIsland = hIsland.add(rect(3.349049085121422e-09, 3.405765102064201e-09).transl(-1.1373482497788167e-08, -4e-08, 0))
hIsland = hIsland.sub(rect(8.63336570161174e-09, -4.4652032391106343e-10).transl(-5.777826938039194e-08, -4e-08, 0))
hIsland = hIsland.sub(rect(9.313138751987855e-09, -6.569078647816275e-10).transl(-8.813297353344545e-08, -2.4392141446964618e-08, 0))
hIsland = hIsland.sub(rect(6.577963113239926e-09, -2.8026009213584946e-09).transl(2.499462653029346e-08, -4e-08, 0))
hIsland = hIsland.add(rect(9.766513758627307e-09, 1.2322514533598747e-09).transl(3.98560629840865e-08, -4e-08, 0))
hIsland = hIsland.sub(rect(7.672896856523493e-09, -9.970755258289639e-10).transl(3.2833144513158453e-08, -4e-08, 0))
hIsland = hIsland.sub(rect(9.2696345160675e-09, -1.6838065399328138e-09).transl(6.635501760459893e-08, -4e-08, 0))
hIsland = hIsland.sub(rect(4.8404583936245596e-09, -6.911221661815325e-10).transl(4.99430129692584e-08, -4e-08, 0))
hIsland = hIsland.sub(rect(9.951881819473361e-09, -1.363183965214283e-10).transl(-6.901375363073725e-09, -4e-08, 0))
hIsland = hIsland.sub(rect(4.5088246438503774e-09, -2.84314080695473e-09).transl(7.726449492000255e-08, -4e-08, 0))
hIsland = hIsland.sub(rect(7.773248392293141e-09, -4.450220589239228e-10).transl(1.874482277153742e-08, -4e-08, 0))
hIsland = hIsland.add(rect(2.1199898592015813e-09, 1.9924959361293274e-09).transl(1.1476228272712339e-08, -4e-08, 0))
hIsland = hIsland.add(rect(6.776738896244946e-09, 2.099294744680558e-09).transl(4.557957534296542e-08, -4e-08, 0))
hIsland = hIsland.sub(rect(2.2932068871325575e-09, -4.690707774430226e-10).transl(1.6886464863288197e-09, -4e-08, 0))
hIsland = hIsland.add(rect(8.384217823074502e-09, 3.5818863629027193e-09).transl(-7.844344650511141e-08, -4e-08, 0))
hIsland = hIsland.sub(rect(2.13945342629561e-09, -1.0327192869074493e-09).transl(4.813860676397417e-08, -4e-08, 0))
hIsland = hIsland.add(rect(4.193088160957217e-09, 1.7666962472431426e-09).transl(1.9154630463166956e-08, -4e-08, 0))
hIsland = hIsland.add(rect(6.307165759934219e-09, 4.911079911266193e-10).transl(-6.858858005807276e-08, -4e-08, 0))
hIsland = hIsland.sub(rect(2.9204220916136877e-09, -1.957689423115336e-09).transl(-7.786168449842636e-08, -4e-08, 0))
hIsland = hIsland.add(rect(8.577106578894651e-09, 2.7713005087575116e-09).transl(-3.4757590777630874e-09, -4e-08, 0))
hIsland = hIsland.sub(rect(2.9747397642682865e-09, -2.47415710996129e-09).transl(-7.850627101754567e-08, -4e-08, 0))
hIsland = hIsland.sub(rect(8.229471086150757e-09, -1.9595194154502405e-09).transl(-4.731890328649171e-09, -4e-08, 0))
hIsland = hIsland.add(rect(6.8805997717594496e-09, 3.5023700720566658e-09).transl(6.408438811890213e-08, -4e-08, 0))
hIsland = hIsland.sub(rect(4.2504727058210355e-09, -4.164122879961952e-09).transl(-2.289073582584064e-08, -4e-08, 0))
hIsland = hIsland.add(rect(4.8286809791573e-09, 7.843057999189975e-10).transl(-3.2345557446822895e-08, -4e-08, 0))
hIsland = hIsland.sub(rect(3.1630388335632693e-09, -1.0927871045149724e-09).transl(-4.272345358313011e-08, -4e-08, 0))
hIsland = hIsland.sub(rect(6.692935288505401e-09, -1.7657978134183816e-09).transl(3.873223292039389e-08, -4e-08, 0))
hIsland = hIsland.add(rect(6.348310962957311e-09, 5.802565432779771e-10).transl(3.052206534812714e-08, -4e-08, 0))
hIsland = hIsland.sub(rect(8.878831256320358e-09, -1.8296112565106747e-09).transl(4.9276942783280615e-08, 4e-08, 0))
hIsland = hIsland.add(rect(3.026164228337506e-09, 6.554880784397317e-10).transl(7.02555225056364e-08, 4e-08, 0))
hIsland = hIsland.sub(rect(4.2731626759806795e-09, -1.5821850327781635e-09).transl(-6.192859313712289e-08, 4e-08, 0))
hIsland = hIsland.sub(rect(3.194986770481281e-09, -3.088734481249775e-10).transl(-4.7541424704990364e-08, 4e-08, 0))
hIsland = hIsland.sub(rect(9.30786354137741e-09, -5.378300251708354e-09).transl(1.187713939333977e-08, 4e-08, 0))
hIsland = hIsland.add(rect(7.125653214517448e-09, 3.140588260748063e-10).transl(1.553555488559993e-08, 4e-08, 0))
hIsland = hIsland.add(rect(8.20905046857771e-09, 8.673745236824996e-10).transl(7.649991417284193e-08, 4e-08, 0))
hIsland = hIsland.add(rect(3.275806132994723e-09, 2.563420062132601e-09).transl(3.7527984921789625e-08, 4e-08, 0))
hIsland = hIsland.add(rect(8.849415596744884e-09, 2.1047477824545747e-09).transl(3.560682951620689e-08, 4e-08, 0))
hIsland = hIsland.sub(rect(6.252278136812366e-09, -1.1750628738019151e-11).transl(7.344253035893441e-08, 4e-08, 0))
hIsland = hIsland.sub(rect(4.317472093727489e-09, -1.3020380551276905e-09).transl(6.315412749964689e-08, 4e-08, 0))
hIsland = hIsland.sub(rect(4.714483052355219e-09, -1.8024244998672948e-09).transl(7.32218402875654e-08, 4e-08, 0))
hIsland = hIsland.add(rect(3.210449948239329e-09, 1.5965100666982354e-09).transl(5.965098930644601e-08, 4e-08, 0))
hIsland = hIsland.add(rect(8.892340296790945e-09, 2.6421800624421957e-09).transl(-5.087525052091368e-08, 4e-08, 0))
hIsland = hIsland.add(rect(3.201609629522789e-09, 1.891041003060188e-09).transl(7.950098574231163e-09, 4e-08, 0))
hIsland = hIsland.add(rect(8.27878642759412e-09, 3.3099589094058215e-10).transl(6.965457636212146e-08, 4e-08, 0))
hIsland = hIsland.add(rect(2.1536782362328515e-09, 8.92287954685763e-10).transl(1.9204520602846118e-08, 4e-08, 0))
hIsland = hIsland.add(rect(2.7189679065772376e-09, 4.4849630317485755e-10).transl(-4.5974097797755263e-08, 4e-08, 0))
hIsland = hIsland.sub(rect(5.661555847456827e-09, -8.705303623863069e-10).transl(-8.271977089775558e-09, 4e-08, 0))
hIsland = hIsland.sub(rect(8.189792209367906e-09, -3.226367755594428e-09).transl(-5.408834958025803e-08, 4e-08, 0))
hIsland = hIsland.sub(rect(3.218575000616059e-09, -2.5587532388919483e-10).transl(-6.481920782420269e-08, 4e-08, 0))
hIsland = hIsland.sub(rect(3.926058050063318e-09, -2.95072578290016e-09).transl(3.396883773730337e-08, 4e-08, 0))
hIsland = hIsland.add(rect(6.527597037057371e-09, 1.4028404961735988e-10).transl(3.716221000800803e-08, 4e-08, 0))
hIsland = hIsland.add(rect(5.635222110197449e-09, 3.1461373250786095e-10).transl(5.086148538883342e-08, 4e-08, 0))
hIsland = hIsland.add(rect(8.201957652409835e-09, 1.7660054953614794e-10).transl(9.644727695139102e-09, 4e-08, 0))
hIsland = hIsland.add(rect(3.630234120295973e-09, 3.1738835502967546e-10).transl(-5.363361252121794e-08, 4e-08, 0))
hIsland = hIsland.sub(rect(3.0303863991407277e-09, -1.781286617613391e-09).transl(6.209253214235717e-08, 4e-08, 0))
hIsland = hIsland.add(rect(9.345070390801994e-09, 3.7289833921971634e-09).transl(-1.709740865029833e-09, 4e-08, 0))
hIsland = hIsland.add(rect(5.835538620770114e-09, 1.318984380017797e-09).transl(-6.502077491243532e-08, 4e-08, 0))
hIsland = hIsland.sub(rect(4.933256421989039e-09, -2.7540347901376245e-09).transl(1.1976845699654147e-08, 4e-08, 0))
hIsland = hIsland.add(rect(6.271572760862127e-09, 5.588100028918878e-09).transl(-7.518445802509583e-08, 4e-08, 0))
hIsland = hIsland.sub(rect(4.963819732696984e-09, -2.627392141429076e-09).transl(4.1993815375126477e-08, 4e-08, 0))
hIsland = hIsland.sub(rect(3.012190095733656e-09, -1.9854805797276584e-09).transl(-9.537275891836761e-10, 4e-08, 0))
hIsland = hIsland.add(rect(9.962303396213863e-09, 7.03484345944703e-10).transl(8.74890728381312e-09, 4e-08, 0))
hIsland = hIsland.add(rect(8.522450888171225e-09, 3.51954407431294e-10).transl(-1.0124629830387027e-09, 4e-08, 0))
hIsland = hIsland.add(rect(2.882939374870918e-09, 1.4403067600929995e-09).transl(7.903423907274857e-08, 4e-08, 0))
hIsland = hIsland.add(rect(8.227127802147822e-09, 2.37076168435706e-10).transl(7.492607725034636e-08, 4e-08, 0))
hIsland = hIsland.sub(rect(9.536206455643879e-09, -7.10982036041918e-10).transl(7.74490669230884e-08, 4e-08, 0))
hIsland = hIsland.add(rect(8.891271669061297e-09, 1.1201394466863956e-09).transl(3.909936491794792e-08, 4e-08, 0))
hIsland = hIsland.sub(rect(7.9279395245663e-09, -3.6053264569618685e-09).transl(5.825574972329097e-08, 4e-08, 0))
hIsland = hIsland.add(rect(9.689303824599004e-09, 1.8840940075211206e-09).transl(-6.04853226574216e-08, 4e-08, 0))
hIsland = hIsland.sub(rect(6.059780978621639e-09, -2.299059844785084e-09).transl(-4.878853055030337e-08, 4e-08, 0))
hIsland = hIsland.sub(rect(2.885403465766567e-09, -1.4732174391309417e-09).transl(-6.783778249004255e-08, 4e-08, 0))
hIsland = hIsland.add(rect(9.477960795011566e-09, 1.6815485347732466e-10).transl(8.400465264269739e-08, 3.7705044361541475e-08, 0))
hIsland = hIsland.add(rect(2.4001745864141174e-09, 1.0990611800539208e-09).transl(2.631333009872652e-08, 4e-08, 0))
hIsland = hIsland.sub(rect(3.1031562893011756e-09, -1.404954148845311e-09).transl(7.564145831330365e-08, 4e-08, 0))
hIsland = hIsland.sub(rect(4.127354605483174e-09, -1.359181507429271e-09).transl(-6.669236001437299e-08, 4e-08, 0))
hIsland = hIsland.add(rect(6.894275874130437e-09, 3.0242785166036715e-09).transl(-1.0494958464742992e-08, 4e-08, 0))
hIsland = hIsland.sub(rect(3.6040490563012517e-09, -7.47916226833892e-11).transl(-5.970650403185751e-08, 4e-08, 0))
hIsland = hIsland.add(rect(2.8333434991587316e-09, 7.197588891929765e-10).transl(-7.992439991232808e-08, 4e-08, 0))
hIsland = hIsland.sub(rect(9.911119427824624e-09, -1.3388619926186816e-09).transl(-8.692589686911708e-08, 3.0105574331982746e-08, 0))
hIsland = hIsland.add(rect(4.124148665508802e-09, 1.7983725583637291e-09).transl(-5.685538041914238e-08, 4e-08, 0))
hIsland = hIsland.add(rect(4.906381132031398e-09, 5.640772474154404e-10).transl(6.995445330219832e-08, 4e-08, 0))
hIsland = hIsland.sub(rect(5.550711400959327e-09, -3.194524575566768e-09).transl(8.197744774744326e-09, 4e-08, 0))
hIsland = hIsland.sub(rect(6.5543351042941655e-09, -2.414038676123038e-09).transl(-8.514948559089384e-08, 3.549488416095056e-08, 0))
hIsland = hIsland.sub(rect(8.313108743564406e-09, -9.420264450804449e-10).transl(6.223676207197555e-08, 4e-08, 0))
hIsland = hIsland.sub(rect(7.610531158487386e-09, -7.25431124248923e-10).transl(7.930306271618893e-08, 4e-08, 0))
hIsland = hIsland.sub(rect(2.8840729272156534e-09, -2.399762280968803e-10).transl(3.65373194314218e-08, 4e-08, 0))
hIsland = hIsland.sub(rect(8.936241662438629e-09, -4.932098979796668e-10).transl(-6.588398072515151e-08, 4e-08, 0))
hIsland = hIsland.sub(rect(4.2242139101407155e-09, -4.660839806188788e-10).transl(8.612964598509204e-08, 3.2866879142166245e-08, 0))
hIsland = hIsland.add(rect(7.701084049938053e-09, 1.4446123911050493e-10).transl(-8.338271876824191e-08, 3.857272144832703e-08, 0))
hIsland = hIsland.add(rect(3.484634723394867e-09, 1.7214610978852744e-09).transl(8.833073273442244e-09, 4e-08, 0))
hIsland = hIsland.sub(rect(5.916749399455616e-09, -1.8256403279420393e-09).transl(-5.7589930870590216e-08, 4e-08, 0))
hIsland = hIsland.sub(rect(6.527030390243985e-09, -2.583281587333128e-09).transl(7.551081709254411e-08, 4e-08, 0))
[...]
hIsland = hIsland.add(rect(9.618346629214967e-09, 8.35640323942408e-10).transl(3.4821754197854165e-08, 4e-08, 0))
hIsland = hIsland.sub(rect(9.273830079143076e-09, -5.186508160950649e-11).transl(3.4334967981903286e-09, 4e-08, 0))
hIsland = hIsland.sub(rect(5.912202581979174e-09, -1.2247298533688321e-09).transl(4.4864146912486833e-08, 4e-08, 0))
hIsland = hIsland.sub(rect(3.0127568602237916e-09, -1.5241201194083197e-12).transl(3.708919121286446e-08, 4e-08, 0))
hIsland = hIsland.sub(rect(7.388961382109083e-09, -4.424369471539697e-09).transl(4.3028465017059984e-08, 4e-08, 0))
hIsland = hIsland.sub(rect(4.5356034094185764e-09, -2.345555738996438e-09).transl(-8.059575251450567e-08, 4e-08, 0))
hIsland = hIsland.sub(rect(9.374547175285657e-09, -2.663609346384925e-10).transl(-2.2546356689821584e-08, 4e-08, 0))
hIsland = hIsland.add(rect(9.727440376350838e-09, 1.495460730657258e-09).transl(8.211275242939974e-08, 3.969308974430166e-08, 0))
hIsland = hIsland.sub(rect(5.211318188301131e-09, -1.0704288144155253e-09).transl(-5.973191321267443e-08, 4e-08, 0))
hIsland = hIsland.add(rect(7.971529082444404e-09, 6.279491894051162e-10).transl(8.173481479708775e-08, 3.986645539742878e-08, 0))
hIsland = hIsland.sub(rect(9.858344081567083e-09, -2.616551506374722e-09).transl(5.2146769474045436e-08, 4e-08, 0))
hIsland = hIsland.add(rect(3.5845632607169587e-09, 6.942992791498635e-12).transl(6.605302397390434e-08, 4e-08, 0))
hIsland = hIsland.sub(rect(7.979796741159502e-09, -4.3373372115451117e-10).transl(2.091745311477216e-08, 4e-08, 0))
hIsland = hIsland.add(rect(7.500884847779522e-09, 1.944898337208092e-09).transl(-9.22753593093957e-09, 4e-08, 0))
hIsland = hIsland.add(rect(6.449873764830898e-09, 1.7467923641405836e-09).transl(1.7293057493064433e-08, 4e-08, 0))
hIsland = hIsland.add(rect(5.097566170443474e-09, 9.826306531301174e-10).transl(-8.755851701424804e-08, 2.7392295780471245e-08, 0))
hIsland = hIsland.add(rect(2.5329044563097353e-09, 4.195487230944444e-09).transl(2.91612758387951e-08, 4e-08, 0))
hIsland = hIsland.sub(rect(7.639797804347826e-09, -5.29514386662314e-09).transl(-4.813969476731743e-08, 4e-08, 0))
hIsland = hIsland.add(rect(6.27353236255284e-09, 6.101536485757712e-10).transl(-5.510900533797655e-08, 4e-08, 0))
hIsland = hIsland.sub(rect(8.916537358849294e-09, -3.5965900182269536e-09).transl(7.819114299054447e-09, 4e-08, 0))
hIsland = hIsland.sub(rect(2.0032339779222586e-09, -3.375947689565335e-10).transl(-6.509384143034083e-08, 4e-08, 0))
hIsland = hIsland.add(rect(7.216109699786959e-09, 1.0545276563550903e-09).transl(-8.19720405261441e-08, 3.976601619176386e-08, 0))
hIsland = hIsland.sub(rect(9.248580335482074e-09, -1.0068557623844322e-09).transl(-2.0233561536441308e-08, 4e-08, 0))
hIsland = hIsland.add(rect(4.078309770729252e-09, 6.479483191612375e-10).transl(-6.948486354155217e-08, 4e-08, 0))
hIsland = hIsland.sub(rect(5.029343597559555e-09, -4.1880793151315064e-10).transl(3.7613305179466775e-08, 4e-08, 0))
hIsland = hIsland.add(rect(5.821323531336965e-09, 1.6506412946054994e-09).transl(4.957485779850294e-08, 4e-08, 0))
hIsland = hIsland.sub(rect(6.03316875390524e-09, -5.638574312978423e-10).transl(-6.948193865091051e-08, 4e-08, 0))
hIsland = hIsland.sub(rect(5.873642574670608e-09, -1.417232102466306e-09).transl(5.2174314240624116e-08, 4e-08, 0))
hIsland = hIsland.sub(rect(3.1627808139409252e-09, -2.9217360757962204e-09).transl(2.2643550793996267e-08, 4e-08, 0))
hIsland = hIsland.sub(rect(2.3081443871462357e-09, -2.1810323530358895e-09).transl(1.3453451942902733e-08, 4e-08, 0))
hIsland = hIsland.sub(rect(4.2253847085808706e-09, -2.794536765701585e-09).transl(8.889720384737867e-08, 1.918547361639496e-08, 0))
hIsland = hIsland.add(rect(8.172654520261957e-09, 1.483547241391795e-09).transl(-2.656105602065809e-09, 4e-08, 0))
hIsland = hIsland.sub(rect(3.2465014680359263e-09, -3.019554243250578e-09).transl(3.004882891427714e-08, 4e-08, 0))
hIsland = hIsland.sub(rect(6.602684245788525e-09, -2.288001555719132e-09).transl(1.6238943664542977e-08, 4e-08, 0))
hIsland = hIsland.add(rect(4.862050741723945e-09, 1.508839541864086e-09).transl(4.5796068870162456e-08, 4e-08, 0))
hIsland = hIsland.add(rect(3.41212631476893e-09, 2.6743398646347954e-11).transl(-6.417384749219616e-08, 4e-08, 0))
hIsland = hIsland.sub(rect(8.035335556538968e-09, -3.5548654847736063e-10).transl(1.5999757014152057e-08, 4e-08, 0))
hIsland = hIsland.add(rect(3.282776379623714e-09, 4.141812128051871e-09).transl(2.9473673193520395e-08, 4e-08, 0))
hIsland = hIsland.add(rect(2.549353642098992e-09, 1.0909573881422143e-09).transl(-1.1610808182410877e-08, 4e-08, 0))
hIsland = hIsland.sub(rect(6.017314456941578e-09, -2.533834069184787e-09).transl(-8.266509314490877e-08, 3.9309462893348126e-08, 0))
hIsland = hIsland.sub(rect(7.103719151565752e-09, -6.102637256903136e-10).transl(-1.055772444046367e-08, 4e-08, 0))
hIsland = hIsland.add(rect(8.766908678258382e-09, 1.8531194218714072e-09).transl(-6.494668364077162e-08, 4e-08, 0))
hIsland = hIsland.add(rect(3.723437939642235e-09, 1.0475107820973582e-09).transl(3.5687916623275676e-08, 4e-08, 0))
hIsland = hIsland.add(rect(2.7693944300462193e-09, 8.383030988039189e-10).transl(-4.158209986268076e-08, 4e-08, 0))
hIsland = hIsland.sub(rect(5.796088574618996e-09, -3.819606933512084e-09).transl(-6.492194245823816e-09, 4e-08, 0))
hIsland = hIsland.add(rect(3.2836133961801794e-09, 2.328430280037757e-09).transl(4.5869202736695726e-08, 4e-08, 0))
hIsland = hIsland.sub(rect(6.5615062014721044e-09, -1.657992308568647e-09).transl(-2.5339396545730695e-08, 4e-08, 0))
hIsland = hIsland.sub(rect(5.1134484274403154e-09, -6.002105813000752e-10).transl(-5.1194732390463736e-08, 4e-08, 0))
hIsland = hIsland.sub(rect(6.6183279831858985e-09, -3.4537709513851986e-10).transl(-2.5376832316478537e-08, 4e-08, 0))
hIsland = hIsland.sub(rect(5.2037290378891604e-09, -9.408196943376991e-11).transl(-5.2289140504815236e-08, 4e-08, 0))
hIsland = hIsland.add(rect(7.39776471033312e-09, 4.212217494399159e-09).transl(1.2983676697764482e-08, 4e-08, 0))
hIsland = hIsland.add(rect(3.199275627270856e-09, 7.297160623115809e-10).transl(-5.393222880203497e-09, 4e-08, 0))
hIsland = hIsland.sub(rect(6.618164738094679e-09, -1.5189088959113374e-10).transl(6.749881583309974e-08, 4e-08, 0))
hIsland = hIsland.add(rect(4.787949246974468e-09, 1.1904088764636499e-09).transl(3.761101048443261e-08, 4e-08, 0))
hIsland = hIsland.sub(rect(4.1565262195762706e-09, -2.0307622762878814e-09).transl(1.3565268579423881e-08, 4e-08, 0))
hIsland = hIsland.add(rect(7.201967802443448e-09, 3.852216369037209e-09).transl(1.5605341071943477e-08, 4e-08, 0))
hIsland = hIsland.add(rect(4.403358489146281e-09, 2.03282629338217e-09).transl(5.311696606170828e-08, 4e-08, 0))
hIsland = hIsland.sub(rect(4.844967606184095e-09, -9.696637054713327e-11).transl(-1.2947774465077381e-08, 4e-08, 0))
hIsland = hIsland.add(rect(7.137727105812128e-09, 1.3808075407144416e-09).transl(6.791190182694039e-08, 4e-08, 0))
hIsland = hIsland.add(rect(4.5760846564783185e-09, 1.0032774452625188e-09).transl(6.740638536365444e-08, 4e-08, 0))
hIsland = hIsland.add(rect(8.107555801179711e-09, 2.5544847394138156e-09).transl(8.994474585441664e-08, 4.425563449980948e-09, 0))
hIsland = hIsland.sub(rect(8.07504031724326e-09, -3.4154026661611397e-09).transl(2.9087932635584308e-08, 4e-08, 0))
hIsland = hIsland.sub(rect(4.521018147407784e-09, -7.27041875500038e-10).transl(6.533736193296985e-08, 4e-08, 0))
hIsland = hIsland.sub(rect(3.093283058572022e-09, -2.3868300675881516e-10).transl(-5.0997158090212186e-08, 4e-08, 0))
hIsland = hIsland.sub(rect(2.7441938822383476e-09, -2.78406686807811e-09).transl(-1.8450106715667147e-08, 4e-08, 0))
hIsland = hIsland.sub(rect(7.067646308406435e-09, -2.273849413917748e-10).transl(-4.7936409950044324e-08, 4e-08, 0))
hIsland = hIsland.add(rect(2.2864021213280887e-09, 1.8977787069930176e-09).transl(2.1566754771732067e-08, 4e-08, 0))
hIsland = hIsland.add(rect(9.681432867250287e-09, 1.72866392396891e-09).transl(-7.097428921614255e-08, 4e-08, 0))
hIsland = hIsland.add(rect(5.2158061370691764e-09, 3.1847864398498402e-09).transl(-2.9524204942813797e-08, 4e-08, 0))
hIsland = hIsland.sub(rect(5.391715002328071e-09, -9.031929077331672e-10).transl(4.0417820268286616e-08, 4e-08, 0))
hIsland = hIsland.sub(rect(9.900642006279739e-09, -2.082450354848407e-10).transl(-4.640840965283299e-08, 4e-08, 0))
hIsland = hIsland.add(rect(4.301808866961077e-09, 2.2694716009011923e-09).transl(-2.88753761319755e-08, 4e-08, 0))
hIsland = hIsland.sub(rect(5.260105754949233e-09, -2.6916505171345055e-10).transl(-1.531797482059651e-08, 4e-08, 0))
hIsland = hIsland.add(rect(7.928218344057985e-09, 2.354832954220776e-10).transl(3.2693250566215235e-08, 4e-08, 0))
hIsland = hIsland.sub(rect(5.488213668589075e-09, -2.8568096530656534e-09).transl(1.718392762634054e-08, 4e-08, 0))
hIsland = hIsland.sub(rect(3.18441862758038e-09, -1.002657940517634e-09).transl(2.5415886556106198e-09, 4e-08, 0))
hIsland = hIsland.add(rect(2.758374347474276e-09, 6.151873691624691e-10).transl(5.396758963652669e-08, 4e-08, 0))
hIsland = hIsland.add(rect(9.666672845086042e-09, 5.754704622393823e-11).transl(7.810817231853684e-08, 4e-08, 0))
hIsland = hIsland.add(rect(6.061293599202332e-09, 2.8748397923057594e-09).transl(1.703498009037295e-08, 4e-08, 0))
hIsland = hIsland.add(rect(5.050955603126862e-09, 3.51408729036197e-09).transl(-7.621220331356288e-08, 4e-08, 0))
hIsland = hIsland.sub(rect(9.326191646410423e-09, -2.049188567952668e-09).transl(-1.0672713812006557e-08, 4e-08, 0))
hIsland = hIsland.add(rect(2.988224198660752e-09, 2.71498482582623e-09).transl(6.787356644201075e-09, 4e-08, 0))
hIsland = hIsland.add(rect(7.227756708153475e-09, 1.4569187622607725e-09).transl(-8.166760292920337e-08, 3.988980038052838e-08, 0))
hIsland = hIsland.sub(rect(2.6875413561486407e-09, -6.239967235695445e-10).transl(-3.592065817255311e-08, 4e-08, 0))
hIsland = hIsland.sub(rect(6.951589705956802e-09, -2.198498231706945e-10).transl(-8.038416881396951e-10, 4e-08, 0))
hIsland = hIsland.add(rect(6.191865212535139e-09, 4.905032924181633e-10).transl(-6.115347064741422e-08, 4e-08, 0))
hIsland = hIsland.add(rect(7.0847566883602805e-09, 2.436106440611178e-09).transl(-5.237002775646434e-08, 4e-08, 0))
hIsland = hIsland.add(rect(8.88266265895177e-09, 9.440447590479138e-10).transl(-8.828391217717455e-08, 2.3494521933697778e-08, 0))
hIsland = hIsland.sub(rect(3.090633816630139e-09, -2.0544684768738496e-10).transl(3.821633644720651e-08, 4e-08, 0))
hIsland = hIsland.sub(rect(7.81299454088404e-09, -1.270862746347945e-11).transl(2.1674197756762488e-08, 4e-08, 0))
hIsland = hIsland.sub(rect(2.720824351890686e-09, -9.9081721293817e-10).transl(6.326264775918178e-08, 4e-08, 0))
hIsland = hIsland.add(rect(6.990116742846116e-09, 1.7476353311324567e-10).transl(5.154399484897189e-08, 4e-08, 0))
hIsland = hIsland.sub(rect(9.797647226445941e-09, -8.557589108514469e-10).transl(-4.545068271333322e-08, 4e-08, 0))
hIsland = hIsland.add(rect(3.56408461506349e-09, 1.481584416971338e-09).transl(-7.388736054225269e-08, 4e-08, 0))
hIsland = hIsland.sub(rect(8.59411816118283e-09, -2.2520862622318097e-10).transl(9.575902938807307e-09, 4e-08, 0))
hIsland = hIsland.sub(rect(4.50923497261033e-09, -4.752932504795347e-10).transl(-4.872696851331347e-08, 4e-08, 0))
hIsland = hIsland.add(rect(9.935920900420896e-09, 1.1222696663831359e-09).transl(6.659428585865558e-08, 4e-08, 0))
hIsland = hIsland.add(rect(3.056334775881384e-09, 5.986396081986289e-10).transl(7.008223500318877e-08, 4e-08, 0))
hIsland = hIsland.sub(rect(4.211649348537233e-09, -1.3527924350798608e-09).transl(-3.517676870751657e-08, 4e-08, 0))
hIsland = hIsland.add(rect(3.83605119385151e-09, 3.1845508340080634e-09).transl(-2.7827996361961532e-08, 4e-08, 0))
hIsland = hIsland.sub(rect(4.595087625547849e-09, -3.1308529642840707e-09).transl(8.280437615668865e-09, 4e-08, 0))
hIsland = hIsland.add(rect(4.195796016693669e-09, 4.37966958253241e-11).transl(-1.3385935470750737e-08, 4e-08, 0))
hIsland = hIsland.sub(rect(4.75128338802836e-09, -1.2983869486577503e-09).transl(8.066796394040617e-09, 4e-08, 0))
hIsland = hIsland.sub(rect(4.871670594212539e-09, -1.1803204365749505e-09).transl(3.2654624799452496e-08, 4e-08, 0))
hIsland = hIsland.add(rect(4.2232865419369465e-09, 1.6591969467191815e-09).transl(1.811093394489272e-08, 4e-08, 0))
hIsland = hIsland.sub(rect(7.588903226558278e-09, -1.7396933924701489e-09).transl(-2.344633069382719e-08, 4e-08, 0))
hIsland = hIsland.sub(rect(4.701976043526062e-09, -2.492192572411947e-09).transl(8.615562060440501e-08, 3.2786500137674367e-08, 0))
hIsland = hIsland.add(rect(9.67873365466392e-09, 8.983387485256351e-10).transl(2.2641974196600592e-08, 4e-08, 0))
hIsland = hIsland.sub(rect(8.99720785238911e-09, -3.0055156280328406e-10).transl(-1.2470005133532676e-08, 4e-08, 0))
hIsland = hIsland.sub(rect(6.570823058783394e-09, -2.429052564102339e-09).transl(5.3465387882960204e-08, 4e-08, 0))
hIsland = hIsland.sub(rect(6.910098343857315e-09, -1.085135382123912e-09).transl(-4.250183060640598e-08, 4e-08, 0))
hIsland = hIsland.sub(rect(3.121990391021685e-09, -2.4089485396916897e-10).transl(-8.519773183999256e-09, 4e-08, 0))
hIsland = hIsland.sub(rect(7.671732540676406e-09, -3.1053852699426983e-09).transl(-5.317207160334844e-09, 4e-08, 0))
hIsland = hIsland.add(rect(5.165543260315395e-09, 3.3035864034381e-10).transl(6.834350434403804e-09, 4e-08, 0))
hIsland = hIsland.sub(rect(7.745787001623359e-09, -3.5360123116470306e-09).transl(1.681200613472771e-08, 4e-08, 0))
hIsland = hIsland.add(rect(7.647198786965519e-09, 1.4553138916767292e-09).transl(-4.99291307417356e-08, 4e-08, 0))
hIsland = hIsland.sub(rect(9.593874321757983e-09, -1.22347898471465e-10).transl(-9.455636768258094e-10, 4e-08, 0))
hIsland = hIsland.add(rect(7.364826387976029e-09, 9.76099267548577e-10).transl(2.481770297772053e-08, 4e-08, 0))
hIsland = hIsland.add(rect(6.4166793277031605e-09, 7.219501758579378e-11).transl(8.407934197116897e-08, 3.7585826859772357e-08, 0))
hIsland = hIsland.add(rect(3.4140620152368897e-09, 1.3366689529675201e-09).transl(4.1388190886290966e-08, 4e-08, 0))
hIsland = hIsland.sub(rect(4.292615928162632e-09, -4.1945463084468477e-10).transl(6.994856374433424e-08, 4e-08, 0))
hIsland = hIsland.add(rect(6.845511648089328e-09, 1.9688040676999877e-09).transl(8.210438954361848e-09, 4e-08, 0))
hIsland = hIsland.add(rect(4.446241085805223e-09, 2.8591012881973616e-10).transl(1.1066972064867894e-08, 4e-08, 0))
hIsland = hIsland.add(rect(3.895456547639842e-09, 2.425533507898527e-09).transl(-5.4236683109545454e-08, 4e-08, 0))
hIsland = hIsland.sub(rect(4.775939455711965e-09, -1.6516227670085219e-09).transl(-6.070245265362762e-08, 4e-08, 0))
hIsland = hIsland.add(rect(9.944002686836878e-09, 5.568813704566931e-10).transl(-7.488000196742375e-08, 4e-08, 0))
hIsland = hIsland.add(rect(8.943579579354587e-09, 2.276751286865054e-09).transl(-6.546754389361278e-08, 4e-08, 0))
hIsland = hIsland.sub(rect(6.045350929096108e-09, -1.2294781625139384e-09).transl(-5.60307274511756e-08, 4e-08, 0))
hIsland = hIsland.sub(rect(7.834146675746702e-09, -9.68426486049675e-10).transl(4.425622183036469e-08, 4e-08, 0))
hIsland = hIsland.sub(rect(4.103535609396073e-09, -2.4745587804339027e-09).transl(4.0574625673851497e-08, 4e-08, 0))
hIsland = hIsland.sub(rect(7.090779671330911e-09, -6.736272168143329e-11).transl(-1.5355431536538074e-08, 4e-08, 0))
hIsland = hIsland.add(rect(4.977556381286228e-09, 1.2597534972588134e-09).transl(7.114842597462666e-08, 4e-08, 0))
hIsland = hIsland.sub(rect(8.938428628721522e-09, -1.8149033477828042e-09).transl(-8.424056554203038e-08, 3.7317122133175405e-08, 0))
hIsland = hIsland.add(rect(8.863485868855261e-09, 2.6343800254409052e-09).transl(2.380151574580211e-09, 4e-08, 0))
hIsland = hIsland.add(rect(3.987314372495561e-09, 1.918068773013284e-09).transl(-7.378458686420322e-08, 4e-08, 0))
hIsland = hIsland.add(rect(6.9207212763241065e-09, 1.4282824379598576e-10).transl(5.7216020973391225e-09, 4e-08, 0))
hIsland = hIsland.add(rect(5.064810219822185e-09, 1.5602522305585157e-09).transl(-7.167525614070784e-08, 4e-08, 0))
hIsland = hIsland.sub(rect(5.500650583854583e-09, -3.6243843494664794e-10).transl(-8.46986694312231e-08, 3.646607608392674e-08, 0))
hIsland = hIsland.sub(rect(4.744268808954978e-09, -8.308129738603454e-10).transl(-2.684151847219896e-08, 4e-08, 0))
hIsland = hIsland.sub(rect(4.9552979195905546e-09, -1.1164614612510248e-09).transl(3.9386209477012265e-08, 4e-08, 0))
hIsland = hIsland.add(rect(2.6359875558848033e-09, 3.2135466400624594e-09).transl(-6.563760101316208e-08, 4e-08, 0))
hIsland = hIsland.add(rect(2.205806244712606e-09, 3.35199765686893e-11).transl(1.129119398678808e-08, 4e-08, 0))
hIsland = hIsland.sub(rect(2.5916224076412428e-09, -9.58298728169069e-10).transl(4.5997475907920786e-08, 4e-08, 0))
hIsland = hIsland.sub(rect(2.92379799203507e-09, -3.865125764078086e-09).transl(5.345961151498081e-08, 4e-08, 0))
hIsland = hIsland.add(rect(4.179189778412894e-09, 4.23229818444919e-09).transl(5.376008038718024e-08, 4e-08, 0))
hIsland = hIsland.sub(rect(5.999792964173801e-09, -1.5216727623003133e-09).transl(3.619982406013078e-08, 4e-08, 0))
hIsland = hIsland.sub(rect(5.799181804123952e-09, -2.3939885355283784e-10).transl(-3.428611123686198e-08, 4e-08, 0))
hIsland = hIsland.sub(rect(2.560083866903285e-09, -3.1273724382527603e-09).transl(-2.904399603740723e-08, 4e-08, 0))
hIsland = hIsland.add(rect(6.813403344682654e-09, 4.492314347629096e-10).transl(4.967558173453595e-08, 4e-08, 0))
hIsland = hIsland.add(rect(4.38553857761184e-09, 1.3277355705266582e-09).transl(4.6996883565075564e-08, 4e-08, 0))
hIsland = hIsland.add(rect(7.025049724215728e-09, 1.3488371820840354e-11).transl(8.820286109782202e-08, 2.3983035982191826e-08, 0))
hIsland = hIsland.add(rect(2.7492508048126018e-09, 6.253210424953722e-10).transl(7.380080794692542e-08, 4e-08, 0))
hIsland = hIsland.add(rect(4.197996128224833e-09, 2.025085889020649e-09).transl(3.873226049038075e-08, 4e-08, 0))
hIsland = hIsland.sub(rect(8.191871222063135e-09, -7.019272106717025e-10).transl(-6.916271446196735e-08, 4e-08, 0))
hIsland = hIsland.add(rect(9.752920268872164e-09, 2.2753041040463362e-09).transl(-2.6214905595791606e-08, 4e-08, 0))
hIsland = hIsland.add(rect(8.910077302346157e-09, 6.876594850221859e-10).transl(7.4399562248932e-08, 4e-08, 0))
hIsland = hIsland.sub(rect(8.271413854688468e-09, -2.631918416274625e-09).transl(6.98775324014238e-08, 4e-08, 0))
hIsland = hIsland.sub(rect(8.830984428104267e-09, -2.5501343252029106e-09).transl(-7.161427969680322e-08, 4e-08, 0))
hIsland = hIsland.add(rect(4.9819895022283e-09, 5.442070290127154e-09).transl(-7.841810003872703e-08, 4e-08, 0))
hIsland = hIsland.add(rect(2.6449821073549425e-09, 6.247193861500678e-10).transl(5.882010672739373e-08, 4e-08, 0))
hIsland = hIsland.add(rect(8.412792889909334e-09, 7.296931718533658e-10).transl(-5.642378411140766e-08, 4e-08, 0))
hIsland = hIsland.sub(rect(2.2473100921158064e-09, -1.681161099417632e-10).transl(-3.042304977035229e-08, 4e-08, 0))
hIsland = hIsland.add(rect(6.164383958368481e-09, 2.4862956316841546e-10).transl(5.621012341462643e-09, 4e-08, 0))
vIsland = hIsland.rotz(pi / 2)
vIslands = vIslands.add(vIsland.transl(0, -a/2, 0))
DefRegion(1, hIslands)
DefRegion(2, vIslands)
TableAdd(m_full.Region(1))
TableAdd(m_full.Region(2))
setgeom(hIslands.add(vIslands))
save(geom)
r2o2 := sqrt(2) / 2
m = RandomMagSeed(4)
B_ext = vector(Bmax*r2o2, Bmax*r2o2, 0)
relax()
minimize()
for B := Bmax; B >= -Bmax; B -= Bstep {
	B_ext = vector(B*r2o2, B*r2o2, 0)
	minimize()
	tablesave()
}
//********************************************************************//
//Please cite the following references, relevant for your simulation. //
//See bibtex file in output folder for justification.                 //
//********************************************************************//
//   * Vansteenkiste et al., AIP Adv. 4, 107133 (2014).
//   * Exl et al., J. Appl. Phys. 115, 17D118 (2014).
