# t (s)	mx ()	my ()	mz ()	B_extx (T)	B_exty (T)	B_extz (T)	m_fullx (A/m)	m_fully (A/m)	m_fullz (A/m)	m_full.region1x (A/m)	m_full.region1y (A/m)	m_full.region1z (A/m)	m_full.region2x (A/m)	m_full.region2y (A/m)	m_full.region2z (A/m)
0	0.64322186	0.643221	-1.5802161e-10	0.070710935	0.07071093	0	71941.805	71941.71	-1.9508027e-05	640842.56	259667.47	-5.232558e-05	259668.06	640841.94	-0.00016024709
0	0.6429642	0.64296395	-1.829724e-10	0.07035715	0.07035715	0	71912.984	71912.95	-1.6488926e-05	641051.7	259098.08	-0.00012063953	259098.12	641051.3	-4.9418606e-05
0	0.6427028	0.6427025	-2.0515087e-10	0.07000352	0.07000352	0	71883.75	71883.73	-2.5546226e-05	641265.06	258518.83	-4.360465e-05	258518.84	641264.8	-0.00022674419
0	0.642441	0.6424406	-3.3267708e-11	0.06964999	0.06964998	0	71854.46	71854.43	-4.644768e-07	641477.1	257940.08	-1.744186e-05	257940.12	641476.9	-2.3255814e-05
0	0.6421756	0.6421753	-2.8277553e-10	0.069296524	0.069296524	0	71824.78	71824.76	-3.1584423e-05	641692.94	257352.8	-0.00024273255	257352.84	641692.6	-0.00015697675
0	0.64191103	0.6419107	-2.2178473e-10	0.06894301	0.06894301	0	71795.19	71795.16	-2.2294887e-05	641905.94	256769.38	-8.139535e-05	256769.4	641905.56	-0.00019186047
0	0.6416421	0.64164174	-2.1624011e-10	0.06858937	0.06858937	0	71765.11	71765.08	-2.4617271e-05	642122.56	256176.22	-0.00013517441	256176.27	642122.2	-0.0001744186
0	0.64137566	0.6413755	-2.9663708e-10	0.0682356	0.0682356	0	71735.31	71735.29	-3.669367e-05	642335.25	255590.69	-0.00023255814	255590.73	642334.8	-0.00023255814
0	0.64110374	0.64110345	-3.659448e-10	0.067882374	0.067882374	0	71704.9	71704.87	-4.226739e-05	642552.9	254992.34	-0.00024055233	254992.39	642552.5	-0.00031976745
0	0.6408339	0.6408337	-1.5802161e-10	0.06752862	0.06752863	0	71674.72	71674.69	-1.5327734e-05	642766.5	254400.92	-0.00015697675	254400.97	642766.1	-8.72093e-05
0	0.64055854	0.6405583	-4.602033e-10	0.06717496	0.06717496	0	71643.93	71643.89	-5.0163497e-05	642983.9	253798.1	-0.0002994186	253798.14	642983.56	-0.0003255814
0	0.64028597	0.64028573	-3.3267708e-10	0.06682184	0.066821836	0	71613.43	71613.41	-3.344233e-05	643199	253201.36	-0.0002122093	253201.44	643198.6	-0.00021511628
0	0.6400095	0.6400092	-1.6911085e-10	0.066468105	0.066468105	0	71582.516	71582.47	-2.183041e-05	643416	252597.16	-0.00012209303	252597.22	643415.75	-0.00014534884
0	0.6397322	0.63973194	-2.1069549e-10	0.066114426	0.066114426	0	71551.51	71551.47	-3.1584423e-05	643632.8	251992.25	-6.976744e-05	251992.33	643632.44	-0.00026744185
0	0.63945323	0.63945293	-3.1604322e-10	0.06576086	0.06576086	0	71520.29	71520.26	-3.669367e-05	643850.1	251384.33	-0.00018459302	251384.42	643849.7	-0.00022674419
0	0.63917184	0.63917154	-1.2752621e-10	0.06540748	0.06540747	0	71488.83	71488.79	-1.5792211e-05	644068.3	250772.27	-0.00011627907	250772.31	644067.9	-8.139535e-05
0	0.63888806	0.6388877	-3.2713246e-10	0.065053925	0.06505393	0	71457.08	71457.04	-3.622919e-05	644288.7	250154.44	-0.00022238372	250154.48	644288.3	-0.00023255814
0	0.6386069	0.63860667	-2.6059704e-10	0.06470022	0.06470022	0	71425.63	71425.61	-3.0190993e-05	644504.25	249545.38	-0.0002071221	249545.44	644503.9	-0.00013953488
0	0.6383215	0.6383211	-4.6574794e-10	0.06434654	0.06434654	0	71393.72	71393.68	-4.9234543e-05	644723.25	248926.78	-0.00030595931	248926.84	644722.94	-0.00029651163
0	0.6380342	0.63803387	-1.6633854e-10	0.063993275	0.063993275	0	71361.59	71361.555	-2.0436979e-05	644942.44	248305.4	-5.741279e-05	248305.5	644942.06	-0.00019767442
0	0.6377442	0.63774383	-1.2752621e-10	0.063639596	0.063639596	0	71329.14	71329.1	-1.5792211e-05	645163.94	247677.78	-0.00013880814	247677.86	645163.56	-9.3023256e-05
0	0.6374541	0.63745373	-2.6614166e-10	0.06328589	0.06328589	0	71296.71	71296.67	-3.2513377e-05	645383.44	247052.22	-9.084302e-05	247052.28	645383.1	-0.00026744185
0	0.6371637	0.6371634	-1.7742778e-10	0.06293273	0.06293273	0	71264.22	71264.18	-2.4152794e-05	645601.8	246427.27	-0.00019622094	246427.36	645601.5	-9.3023256e-05
0	0.63686967	0.63686925	-3.3267708e-10	0.06257908	0.06257908	0	71231.33	71231.29	-4.0873958e-05	645822.44	245794.95	-0.00035101743	245795.05	645822.06	-9.3023256e-05
0	0.6365751	0.63657475	-4.699064e-10	0.06222535	0.06222535	0	71198.39	71198.35	-5.4343785e-05	646043	245162.12	-0.00027543603	245162.2	646042.56	-0.0003488372
0	0.6362768	0.6362764	-1.9406163e-10	0.06187173	0.06187173	0	71165.02	71164.984	-2.2759365e-05	646266.1	244521.25	-0.00012209303	244521.34	646265.75	-0.00013372093
0	0.63597816	0.6359778	-2.384186e-10	0.061518446	0.061518446	0	71131.625	71131.586	-2.6475178e-05	646487.7	243881.72	-0.0002252907	243881.8	646487.25	-0.00011046512
0	0.63567877	0.6356784	-2.522801e-10	0.06116484	0.061164834	0	71098.14	71098.1	-2.7404132e-05	646707.94	243242.27	-0.0001627907	243242.36	646707.56	-0.00018023256
0	0.63537633	0.6353759	-2.0653702e-10	0.06081109	0.06081109	0	71064.31	71064.26	-2.3688317e-05	646931.56	242595.17	-7.267442e-05	242595.25	646931.2	-0.00019186047
0	0.6350734	0.6350731	-3.4931094e-10	0.060457464	0.060457464	0	71030.44	71030.4	-4.0409483e-05	647152.25	241950.53	-0.00013372093	241950.62	647151.9	-0.00030813954
0	0.6347688	0.6347684	-9.425851e-11	0.060104188	0.060104188	0	70996.37	70996.32	-8.360583e-06	647374.9	241301.36	-0.000113372094	241301.48	647374.44	-1.1627907e-05
0	0.634462	0.6344616	-2.5505242e-10	0.05975055	0.05975055	0	70962.05	70962	-2.9262039e-05	647597.8	240648.78	-0.00028052327	240648.9	647597.44	-5.232558e-05
0	0.63415104	0.6341506	-3.1881553e-10	0.059396803	0.059396807	0	70927.266	70927.23	-3.80871e-05	647822.56	239988.78	-0.00016860465	239988.92	647822.06	-0.0003255814
0	0.63384175	0.6338413	3.881233e-11	0.059043646	0.059043646	0	70892.67	70892.625	1.02184895e-05	648045.9	239332.42	-2.616279e-05	239332.56	648045.44	0.00015697675
0	0.63352835	0.633528	-3.382217e-10	0.058690004	0.058690004	0	70857.625	70857.58	-3.622919e-05	648271.56	238668.03	-0.0002616279	238668.14	648271.1	-0.00015697675
0	0.6332159	0.63321555	-2.6059704e-10	0.05833626	0.05833626	0	70822.68	70822.625	-3.344233e-05	648493.8	238008.31	-0.00015988373	238008.47	648493.4	-0.0002616279
0	0.6329002	0.63289964	-2.8277553e-10	0.057982642	0.057982642	0	70787.35	70787.32	-2.786861e-05	648718.5	237341.53	-0.00019767442	237341.67	648718.06	-0.00020930232
0	0.6325824	0.63258207	-2.6059704e-10	0.057629347	0.057629347	0	70751.83	70751.78	-2.7404132e-05	648943.75	236671.55	-0.00035465116	236671.69	648943.3	5.8139535e-06
0	0.6322627	0.6322623	-2.1069549e-10	0.057275724	0.057275724	0	70716.06	70716.016	-2.4152794e-05	649169.4	235998.28	-0.00018168605	235998.45	649168.9	-7.5581396e-05
0	0.63193995	0.6319395	-3.2713246e-10	0.05692201	0.05692201	0	70679.96	70679.914	-3.948053e-05	649397.06	235318.77	-0.00016860465	235318.94	649396.5	-0.00028488372
0	0.63161826	0.6316178	-3.1327094e-10	0.05656839	0.05656839	0	70643.98	70643.94	-3.483576e-05	649621	234644.31	-0.00034593022	234644.45	649620.6	-4.0697676e-05
0	0.63129115	0.63129073	-2.6891397e-10	0.05621509	0.05621509	0	70607.414	70607.36	-3.0190993e-05	649848.5	233958.92	-0.00020930232	233959.06	649848.1	-0.0002383721
0	0.63096446	0.63096404	-3.1049863e-10	0.05586147	0.05586147	0	70570.87	70570.805	-3.5764715e-05	650076.44	233273.62	-0.00029651163	233273.8	650076	-0.00013953488
0	0.6306358	0.6306354	-1.1643699e-10	0.05550773	0.05550773	0	70534.1	70534.05	-1.4398781e-05	650303.44	232586.55	-8.575581e-05	232586.72	650302.94	-0.00011046512
0	0.6303063	0.63030577	-7.2080036e-11	0.055154543	0.055154543	0	70497.25	70497.195	-9.754013e-06	650529	231899.56	1.1627907e-05	231899.75	650528.5	-7.5581396e-05
0	0.62997353	0.6299731	-1.4346699e-10	0.054800928	0.054800924	0	70460.03	70459.98	-1.4398781e-05	650756.5	231206.25	-6.540697e-05	231206.44	650756.06	-0.00011627907
0	0.62963825	0.62963784	-1.247539e-10	0.054447185	0.054447185	0	70422.52	70422.48	-1.5327734e-05	650985	230508.4	-0.00019622094	230508.56	650984.5	-1.1627907e-05
0	0.62930065	0.6293002	-3.5208325e-10	0.054093573	0.054093573	0	70384.77	70384.72	-3.7158145e-05	651215.44	229805.31	-0.00030523256	229805.52	651214.94	-0.0001744186
0	0.6289638	0.6289633	4.9901562e-11	0.053740244	0.053740244	0	70347.09	70347.03	4.1802914e-06	651442.1	229107.02	6.686046e-05	229107.22	651441.6	-3.488372e-05
0	0.6286216	0.62862116	-3.4376632e-10	0.053386644	0.053386644	0	70308.82	70308.766	-3.344233e-05	651673.25	228396.89	-0.00015988373	228397.06	651672.6	-0.0002616279
0	0.628281	0.62828046	-2.5505242e-10	0.05303293	0.05303293	0	70270.72	70270.68	-2.786861e-05	651900	227693.11	-0.00024563953	227693.31	651899.56	-8.72093e-05
0	0.62793624	0.6279357	-4.768372e-10	0.05267932	0.05267932	0	70232.17	70232.125	-5.248588e-05	652130.1	226980.5	-0.00035465116	226980.72	652129.56	-0.0003255814
0	0.6275878	0.6275873	-3.2713246e-10	0.05232598	0.052325983	0	70193.19	70193.13	-3.7622623e-05	652362.4	226260.28	-0.00030232558	226260.52	652361.9	-0.00013953488
0	0.62724125	0.62724084	-2.9109246e-10	0.05197239	0.051972385	0	70154.44	70154.38	-3.2977852e-05	652590.1	225547.45	-0.00021366279	225547.67	652589.7	-0.00019186047
0	0.6268907	0.6268902	-3.1604322e-10	0.05161865	0.05161865	0	70115.23	70115.17	-3.5764715e-05	652821.06	224825.72	-0.00019767442	224825.94	652820.5	-0.00030232558
0	0.6265367	0.62653625	-5.1010485e-10	0.051265437	0.051265437	0	70075.64	70075.586	-5.7595124e-05	653052.5	224098.78	-0.00036191862	224099	653051.94	-0.0003139535
0	0.62618285	0.6261824	-2.7515168e-10	0.05091183	0.050911825	0	70036.07	70036	-3.065547e-05	653283.44	223372.4	-0.00019186047	223372.64	653282.9	-0.00012790698
0	0.62582433	0.62582374	-4.019848e-10	0.050558098	0.050558105	0	69995.95	69995.9	-4.4125296e-05	653517.25	222636.56	-0.00035174418	222636.8	653516.8	-0.0002732558
0	0.625467	0.62546647	-1.219816e-10	0.05020451	0.050204515	0	69955.99	69955.94	-1.6256688e-05	653747.1	221906.44	-0.00019186047	221906.7	653746.56	-1.744186e-05
0	0.6251056	0.6251051	-1.05347744e-10	0.04985114	0.049851134	0	69915.57	69915.516	-8.825059e-06	653979.06	221168.55	-8.575581e-05	221168.81	653978.6	-5.232558e-05
0	0.6247407	0.62474024	-3.04954e-11	0.049497545	0.049497545	0	69874.766	69874.7	4.644768e-07	654214.2	220422.64	0	220422.9	654213.7	-1.744186e-05
0	0.6243762	0.6243756	-2.772309e-10	0.049143855	0.049143855	0	69833.98	69833.92	-2.9262039e-05	654446.8	219679.62	-0.0002747093	219679.86	654446.25	-6.976744e-05
0	0.6240096	0.624009	0	0.04879026	0.048790265	0	69792.99	69792.93	-2.322384e-06	654677.94	218935.22	-2.0348838e-05	218935.47	654677.44	2.3255814e-05
0	0.6236381	0.6236375	-2.439632e-10	0.048436876	0.048436876	0	69751.44	69751.37	-2.9262039e-05	654913.75	218179.25	-0.00021511628	218179.48	654913.25	-0.00016860465
0	0.62326777	0.6232672	-2.3287397e-10	0.048083298	0.048083298	0	69710.016	69709.945	-2.5546226e-05	655145.56	217428.92	-0.00021802326	217429.25	655145.06	-0.00013953488
0	0.6228937	0.6228931	-1.8851702e-10	0.04772957	0.04772957	0	69668.18	69668.1	-2.0901456e-05	655379.6	216671.23	-0.00022965117	216671.5	655379.06	-7.5581396e-05
0	0.6225158	0.6225152	-5.5446182e-11	0.04737633	0.04737633	0	69625.914	69625.836	-6.502675e-06	655614.56	215907.23	-1.8895349e-05	215907.5	655614	-8.72093e-05
0	0.6221382	0.6221376	-2.439632e-10	0.047022745	0.047022745	0	69583.68	69583.62	-2.6939655e-05	655849.06	215144.14	-0.0001366279	215144.45	655848.56	-0.00019186047
0	0.62175566	0.621755	-2.1069549e-10	0.04666901	0.046669006	0	69540.89	69540.82	-2.1365933e-05	656086.3	214371.23	-0.00016569767	214371.52	656085.8	-8.72093e-05
0	0.6213736	0.62137294	-7.485235e-11	0.046315443	0.046315443	0	69498.16	69498.086	-1.1147444e-05	656319.7	213603.02	-7.122093e-05	213603.33	656319.06	-5.8139536e-05
0	0.62098736	0.62098676	-2.2178473e-10	0.04596203	0.04596203	0	69454.96	69454.89	-2.5081748e-05	656556.06	212826.06	-0.00014098837	212826.34	656555.4	-0.00018023256
0	0.6205986	0.62059796	-2.411909e-10	0.045608457	0.045608457	0	69411.48	69411.4	-2.786861e-05	656793.8	212043.97	-0.00012209303	212044.28	656793.1	-0.00020348837
0	0.6202096	0.6202089	-5.8426414e-10	0.045254774	0.045254774	0	69367.96	69367.9	-6.5026754e-05	657028	211265.06	-0.0005043605	211265.42	657027.4	-0.00030232558
0	0.6198165	0.6198159	-3.8812326e-10	0.044901196	0.044901196	0	69324	69323.94	-4.691216e-05	657264.9	210477.9	-0.00028488372	210478.22	657264.4	-0.00028488372
0	0.61942095	0.6194203	-3.04954e-10	0.044547774	0.044547774	0	69279.766	69279.69	-3.4371285e-05	657502.3	209686.62	-0.00021802326	209686.95	657501.8	-0.0002383721
0	0.61902225	0.6190216	0	0.044194214	0.04419421	0	69235.18	69235.1	4.644768e-07	657741.56	208889.28	-4.360465e-06	208889.64	657740.94	-5.8139535e-06
0	0.6186236	0.618623	-3.9089557e-10	0.043840494	0.043840494	0	69190.6	69190.52	-4.0409483e-05	657977.25	208095.6	-0.00028052327	208095.92	657976.56	-0.00021511628
0	0.61822087	0.6182201	-3.7980635e-10	0.043486923	0.043486923	0	69145.54	69145.46	-4.226739e-05	658215.3	207293.44	-0.00030523256	207293.77	658214.7	-0.00023255814
0	0.6178146	0.6178139	-2.8554784e-10	0.043133654	0.043133654	0	69100.09	69100.016	-3.0190993e-05	658455.9	206484.17	-0.00030959302	206484.5	658455.3	-0.00011046512
0	0.6174083	0.6174076	-4.5743098e-10	0.042779934	0.042779934	0	69054.66	69054.58	-5.0163497e-05	658692.7	205678.6	-0.00034302325	205678.95	658692	-0.00025581397
0	0.6169963	0.6169956	-2.5782473e-10	0.042426366	0.042426366	0	69008.57	69008.49	-2.8333086e-05	658934.06	204860.3	-0.00024709303	204860.67	658933.44	-0.00014534884
0	0.6165842	0.61658347	-4.2139098e-10	0.042072922	0.04207292	0	68962.49	68962.41	-4.7841113e-05	659173.1	204044.4	-0.00029651163	204044.77	659172.5	-0.00027906976
0	0.61616904	0.61616826	-4.1584636e-10	0.041719366	0.041719366	0	68916.05	68915.96	-4.505425e-05	659412.9	203223.33	-0.0003255814	203223.73	659412.2	-0.00026744185
0	0.6157525	0.61575174	-4.1861867e-10	0.041365687	0.041365687	0	68869.47	68869.38	-5.0627972e-05	659650.8	202402.3	-0.0003139535	202402.67	659650.2	-0.0003372093
0	0.6153303	0.6153296	-4.4356945e-11	0.041012146	0.041012146	0	68822.24	68822.164	-4.1802914e-06	659893.44	201568.64	-8.575581e-05	201569.06	659892.75	2.9069768e-05
0	0.6149088	0.614908	-2.5782473e-10	0.040658668	0.040658668	0	68775.086	68775.01	-2.9262039e-05	660132.1	200739.72	-0.00029215118	200740.12	660131.44	-9.883721e-05
0	0.61448294	0.6144821	-6.09908e-11	0.04030513	0.04030513	0	68727.46	68727.375	-9.289536e-06	660372.8	199902.75	-0.00011046512	199903.19	660372.2	-1.1627907e-05
0	0.6140548	0.614054	-2.8277553e-10	0.039951418	0.039951414	0	68679.586	68679.49	-3.3906806e-05	660614.4	199061.83	-0.00021947674	199062.27	660613.75	-0.00015697675
0	0.6136231	0.6136223	-9.425851e-11	0.039597884	0.039597884	0	68631.305	68631.22	-1.161192e-05	660856.25	198215.66	-0.00011046512	198216.11	660855.56	-5.8139536e-05
0	0.6131897	0.613189	-4.4356946e-10	0.03924456	0.03924456	0	68582.836	68582.74	-5.248588e-05	661097.94	197367.27	-0.0003284884	197367.72	661097.25	-0.00033139533
0	0.61275136	0.6127505	2.7723091e-11	0.03889085	0.038890846	0	68533.805	68533.71	1.3934305e-06	661342.7	196508.77	-3.7790698e-05	196509.2	661342	0.00010465116
0	0.6123136	0.61231285	-4.5743098e-10	0.038537316	0.038537316	0	68484.84	68484.76	-4.9234543e-05	661582.94	195655.77	-0.00037790698	195656.23	661582.25	-0.00028488372
0	0.6118715	0.6118706	-4.9555027e-10	0.03818381	0.03818381	0	68435.39	68435.29	-5.6666173e-05	661826.06	194793.47	-0.00033284884	194793.92	661825.4	-0.00036627907
0	0.6114249	0.61142415	-3.1049863e-10	0.03783028	0.03783028	0	68385.44	68385.35	-3.4371285e-05	662071.7	193922.73	-0.00019912791	193923.22	662071.06	-0.00022093023
0	0.6109781	0.6109773	-3.3267708e-10	0.03747657	0.03747657	0	68335.47	68335.38	-3.4371285e-05	662313.5	193055.36	-0.00025	193055.86	662312.9	-0.00019767442
0	0.6105273	0.61052644	-2.6614166e-10	0.037123095	0.037123095	0	68285.05	68284.945	-2.9262039e-05	662557.4	192180.39	-0.00014534884	192180.9	662556.7	-0.00022674419
0	0.6100736	0.6100728	-4.93471e-10	0.03676955	0.03676955	0	68234.305	68234.21	-5.6201694e-05	662801.5	191301.03	-0.00039098837	191301.53	662800.94	-0.00029069767
0	0.6096167	0.6096158	-3.9366788e-10	0.036416046	0.036416046	0	68183.2	68183.1	-4.4125296e-05	663046.7	190416.14	-0.00030232558	190416.66	663046	-0.00024418606
0	0.6091566	0.6091557	-5.766403e-10	0.036062334	0.036062334	0	68131.74	68131.64	-6.827809e-05	663291.94	189526.69	-0.00045639536	189527.19	663291.3	-0.00039534885
0	0.60869455	0.60869366	-1.8574471e-10	0.035708837	0.035708837	0	68080.07	68079.97	-2.0901456e-05	663537.06	188634.8	-0.0001264535	188635.31	663536.4	-0.00015116279
0	0.6082281	0.60822725	-4.7129256e-10	0.035355464	0.035355467	0	68027.89	68027.79	-5.573722e-05	663783.06	187735.75	-0.00039244187	187736.3	663782.3	-0.0003255814
0	0.60775983	0.6077589	-3.1049863e-10	0.03500176	0.03500176	0	67975.516	67975.414	-3.2513377e-05	664029.25	186833.98	-0.00024127906	186834.55	664028.44	-0.00015697675
0	0.60728765	0.6072868	-3.8950942e-10	0.034648262	0.034648262	0	67922.7	67922.61	-4.4589775e-05	664275.8	185926.48	-0.00030813954	185927.02	664275.06	-0.00026744185
0	0.6068118	0.6068109	-9.425851e-11	0.034294683	0.034294683	0	67869.484	67869.38	-8.825059e-06	664524.8	185011.2	-9.5930234e-05	185011.77	664524.1	-6.976744e-05
0	0.6063337	0.6063328	-5.2951105e-10	0.033941187	0.033941187	0	67816.016	67815.91	-6.363332e-05	664772.06	184094.6	-0.00046656976	184095.16	664771.25	-0.00033139533
0	0.60585254	0.60585153	-1.2614006e-10	0.03358748	0.03358748	0	67762.19	67762.07	-1.7650118e-05	665019.6	183173.28	-0.00012790698	183173.88	665018.9	-6.976744e-05
0	0.60536784	0.6053669	-3.992125e-10	0.033234052	0.033234052	0	67707.984	67707.875	-4.4589775e-05	665267.7	182246.75	-0.0002732558	182247.36	665266.94	-0.00028488372
0	0.60488	0.604879	-7.346619e-11	0.03288043	0.03288043	0	67653.42	67653.31	-1.02184895e-05	665516.2	181315.3	-6.686046e-05	181315.92	665515.4	-6.976744e-05
0	0.6043888	0.6043878	-2.3564628e-10	0.032526962	0.032526966	0	67598.48	67598.37	-2.60107e-05	665764.94	180378.73	-0.00021366279	180379.38	665764.2	-9.3023256e-05
0	0.6038961	0.60389507	-2.6336935e-10	0.03217327	0.03217327	0	67543.37	67543.26	-2.786861e-05	666011.56	179442.27	-0.00025581397	179442.92	666010.8	-0.00015116279
0	0.60339755	0.60339653	-2.467355e-10	0.031819798	0.031819798	0	67487.61	67487.5	-2.7404132e-05	666261.5	178494.4	-0.00019476745	178495.03	666260.7	-0.00018604651
0	0.6028955	0.6028945	-2.9802322e-10	0.031466365	0.031466365	0	67431.47	67431.35	-3.7158145e-05	666513.44	177539.64	-0.00029069767	177540.31	666512.6	-0.00015697675
0	0.60239196	0.602391	-2.3287397e-10	0.031112675	0.031112675	0	67375.15	67375.03	-2.786861e-05	666761.6	176586.44	-0.00022383721	176587.11	666760.94	-0.00012790698
0	0.60188407	0.60188305	-4.5881715e-10	0.030759223	0.030759223	0	67318.336	67318.22	-5.20214e-05	667012.2	175624.81	-0.00031976745	175625.5	667011.44	-0.00030232558
0	0.60137135	0.60137033	-2.9109246e-10	0.030405546	0.030405546	0	67260.99	67260.88	-3.1119947e-05	667265.44	174653.83	-0.00020930232	174654.48	667264.6	-0.0001627907
0	0.6008563	0.6008553	-3.3267708e-10	0.030052094	0.030052094	0	67203.39	67203.27	-3.80871e-05	667517.06	173681.17	-0.00023546512	173681.86	667516.25	-0.00022674419
0	0.6003391	0.600338	-1.6356623e-10	0.029698402	0.029698402	0	67145.54	67145.42	-1.8579072e-05	667766.56	172707.53	-0.0001627907	172708.23	667765.75	-0.00011627907
0	0.59981686	0.59981585	-1.7604163e-10	0.029345002	0.029345002	0	67087.125	67087.01	-1.6256688e-05	668018.8	171724.03	-6.25e-05	171724.75	668018	-0.00016860465
0	0.5992909	0.5992899	-3.4376632e-10	0.028991321	0.028991321	0	67028.305	67028.18	-3.622919e-05	668271.56	170735.03	-0.00031540697	170735.77	668270.75	-0.00015697675
0	0.5987612	0.59876	-2.0930933e-10	0.028637862	0.028637862	0	66969.055	66968.92	-2.4152794e-05	668524.94	169739.94	-0.00017732558	169740.69	668524.2	-0.00015116279
0	0.59822744	0.5982263	8.039696e-11	0.028284196	0.028284194	0	66909.36	66909.23	9.289536e-06	668778.6	168739.08	7.267442e-06	168739.84	668777.8	9.883721e-05
0	0.5976892	0.59768814	-4.57431e-11	0.027930735	0.027930735	0	66849.16	66849.03	-6.502675e-06	669034.9	167729.31	-5.232558e-05	167730.1	669034	1.1627907e-05
0	0.59714955	0.5971484	-1.10892365e-10	0.027577272	0.027577272	0	66788.805	66788.67	-1.1147444e-05	669286.9	166721.64	-0.00012790698	166722.42	669286.1	-1.744186e-05
0	0.59660494	0.5966038	-3.1327094e-10	0.027223593	0.027223593	0	66727.89	66727.76	-3.3906806e-05	669541.75	165704.44	-0.00034302325	165705.2	669540.94	-4.0697676e-05
0	0.5960558	0.5960547	-3.659448e-10	0.026870122	0.026870122	0	66666.48	66666.336	-3.669367e-05	669797.4	164679.95	-0.00033139533	164680.75	669796.56	-0.00012790698
0	0.59550315	0.595502	-6.3763106e-11	0.026516465	0.026516465	0	66604.66	66604.516	-6.502675e-06	670053.3	163650.23	-0.00013953488	163651.05	670052.44	2.9069768e-05
0	0.59494615	0.59494495	-1.3584314e-10	0.026162991	0.02616299	0	66542.35	66542.23	-1.4863258e-05	670309.56	162614.19	-0.00015116279	162615.02	670308.75	-2.3255814e-05
0	0.59438527	0.5943841	-3.4653863e-10	0.025809323	0.025809323	0	66479.63	66479.49	-3.948053e-05	670566.2	161572.34	-0.00022093023	161573.2	670565.4	-0.0002732558
0	0.59382015	0.59381896	-1.192093e-10	0.025455913	0.025455913	0	66416.414	66416.3	-1.5792211e-05	670823.94	160523.4	-0.000125	160524.25	670823.1	-4.6511628e-05
0	0.5932496	0.59324837	-3.3267708e-10	0.025102256	0.025102258	0	66352.59	66352.46	-3.483576e-05	671083.9	159464.61	-0.00017151162	159465.47	671083.1	-0.0002732558
0	0.59267765	0.5926764	-2.467355e-10	0.024748772	0.024748772	0	66288.63	66288.51	-2.3862496e-05	671339.75	158408.12	-0.00026744185	158409.02	671338.9	-2.9069768e-05
0	0.59209836	0.5920971	-6.792157e-11	0.02439513	0.02439513	0	66223.84	66223.7	-4.8770066e-06	671601.06	157335.77	-9.5930234e-05	157336.64	671600.2	-2.3255814e-05
0	0.5915177	0.59151644	-5.2673872e-11	0.024041649	0.024041649	0	66158.9	66158.766	-7.896106e-06	671858.06	156265.81	1.1627907e-05	156266.72	671857.25	-8.139535e-05
0	0.59092957	0.5909283	-6.9307726e-11	0.023688165	0.023688165	0	66093.11	66092.98	-1.0682967e-05	672120.5	155179.94	-0.00018895349	155180.83	672119.7	2.9069768e-05
0	0.59034014	0.5903388	-2.3287397e-10	0.023334505	0.023334505	0	66027.19	66027.05	-2.6475178e-05	672378.7	154096.56	-0.00023546512	154097.45	672377.8	-0.00013372093
0	0.5897444	0.589743	-1.247539e-10	0.022981014	0.022981014	0	65960.56	65960.414	-1.6488926e-05	672639.9	153001.3	-6.686046e-05	153002.25	672639	-5.232558e-05
0	0.58914447	0.58914304	-2.495078e-10	0.022627387	0.022627387	0	65893.45	65893.31	-2.6475178e-05	672901.4	151899.88	-0.00021802326	151900.83	672900.44	-0.00012790698
0	0.5885394	0.58853817	-3.9228173e-10	0.022273887	0.022273887	0	65825.79	65825.65	-4.7376634e-05	673163.6	150790.61	-0.00034302325	150791.58	673162.7	-0.00025
0	0.58792984	0.58792853	4.4356945e-11	0.021920247	0.021920247	0	65757.61	65757.47	4.8770066e-06	673426.5	149674.28	1.4534884e-05	149675.25	673425.6	8.72093e-05
0	0.58731556	0.58731425	-5.988188e-10	0.021566827	0.021566827	0	65688.91	65688.76	-6.734914e-05	673689.9	148550.9	-0.000505814	148551.88	673689	-0.0003604651
0	0.5866962	0.5866949	-2.6059704e-10	0.021213183	0.021213183	0	65619.63	65619.49	-2.7404132e-05	673953.8	147419.86	-0.00027616278	147420.84	673953	-0.00012209303
0	0.5860705	0.5860691	-2.0792318e-10	0.020859683	0.020859683	0	65549.65	65549.49	-2.3920556e-05	674221	146276.64	-0.00014825581	146277.66	674220.06	-0.0001627907
0	0.5854411	0.58543974	-6.736711e-10	0.020506073	0.020506073	0	65479.254	65479.11	-7.570972e-05	674486.44	145130.06	-0.000497093	145131.1	674485.5	-0.0004360465
0	0.58480644	0.5848051	-3.811925e-10	0.020152565	0.020152565	0	65408.273	65408.113	-4.4589775e-05	674752.7	143975.25	-0.00031686047	143976.27	674751.8	-0.0002616279
0	0.58416694	0.58416563	-3.2990477e-10	0.019798942	0.019798942	0	65336.74	65336.594	-3.483576e-05	675019.44	142813.23	-0.00029360465	142814.27	675018.56	-0.00015116279
0	0.5835237	0.5835222	-1.9544778e-10	0.019445423	0.019445425	0	65264.797	65264.645	-2.1133696e-05	675284.7	141647.34	-0.00013953488	141648.39	675283.9	-0.00011046512
0	0.5828726	0.58287126	-3.687171e-10	0.019091904	0.019091904	0	65191.984	65191.832	-4.0409483e-05	675553.1	140467.5	-0.000375	140468.56	675552.25	-0.00012209303
0	0.582216	0.58221465	-4.9901562e-11	0.018738285	0.018738285	0	65118.547	65118.395	-8.592821e-06	675824.06	139277.2	-0.00013953488	139278.28	675823.25	5.8139536e-05
0	0.58155626	0.5815548	-2.2178473e-10	0.018384775	0.018384775	0	65044.746	65044.594	-2.322384e-05	676091.7	138085.88	-0.00022965117	138086.95	676090.9	-5.232558e-05
0	0.5808887	0.58088726	-1.7604163e-10	0.018031167	0.018031167	0	64970.082	64969.93	-2.2062648e-05	676362.2	136880.86	-6.976744e-05	136881.94	676361.3	-0.0001627907
0	0.5802165	0.58021516	-8.316927e-11	0.017677734	0.017677732	0	64894.91	64894.754	-1.02184895e-05	676633.56	135668.5	-8.430232e-05	135669.62	676632.7	-2.9069768e-05
0	0.579536	0.5795346	-3.7426173e-10	0.017324131	0.017324131	0	64818.79	64818.63	-4.0873958e-05	676908.4	134440.89	-0.00029360465	134442.02	676907.56	-0.00020930232
0	0.578853	0.57885164	-1.1227852e-10	0.016970593	0.016970593	0	64742.406	64742.254	-7.896106e-06	677179.2	133213.97	-0.00013372093	133215.1	677178.3	5.8139535e-06
0	0.5781623	0.578161	-4.879264e-10	0.016617026	0.016617026	0	64665.16	64665	-5.6201694e-05	677453.06	131973.08	-0.000375	131974.22	677452.2	-0.0003139535
0	0.5774635	0.577462	-3.2436015e-10	0.016263481	0.016263481	0	64586.98	64586.82	-3.367457e-05	677730.56	130717.13	-0.0003139535	130718.28	677729.7	-0.00013372093
0	0.57676166	0.5767602	-4.2139098e-10	0.015909899	0.015909899	0	64508.492	64508.332	-4.9002305e-05	678004.4	129460.8	-0.00045930233	129461.98	678003.56	-0.00014534884
0	0.57605	0.5760486	-2.0792318e-11	0.015556337	0.015556337	0	64428.9	64428.746	-6.9671523e-07	678283.5	128185.37	-6.1046514e-05	128186.52	678282.7	4.6511628e-05
0	0.5753354	0.57533395	-2.439632e-10	0.015202773	0.015202773	0	64348.973	64348.812	-2.786861e-05	678559	126909.31	-0.00025	126910.484	678558.25	-4.0697676e-05
0	0.5746119	0.5746104	-4.726787e-10	0.014849202	0.014849202	0	64268.055	64267.887	-5.1556926e-05	678838.25	125617.23	-0.00045348838	125618.39	678837.44	-0.00023255814
0	0.57388115	0.57387966	-1.3029852e-10	0.014495661	0.014495661	0	64186.316	64186.164	-1.4863258e-05	679118.7	124313.695	-9.5930234e-05	124314.875	679117.9	-7.5581396e-05
0	0.57314456	0.5731432	-1.829724e-10	0.014142098	0.014142098	0	64103.938	64103.785	-2.2294887e-05	679399.6	123001.59	-0.00022965117	123002.78	679398.9	-2.3255814e-05
0	0.5723978	0.57239646	-8.386235e-11	0.013788636	0.013788636	0	64020.426	64020.266	-1.0682967e-05	679684.7	121671.11	-0.00015116279	121672.3	679683.9	2.3255814e-05
0	0.57164794	0.5716465	-3.7426173e-10	0.013435061	0.013435061	0	63936.547	63936.38	-4.203515e-05	679965.94	120339.99	-0.0003488372	120341.18	679965.1	-0.00020348837
0	0.5708884	0.57088697	-8.663466e-11	0.013081495	0.013081496	0	63851.59	63851.43	-7.431629e-06	680250.6	118991.9	-4.0697676e-05	118993.11	680249.9	-5.232558e-05
0	0.57011867	0.5701173	-5.211941e-10	0.012727956	0.012727956	0	63765.504	63765.348	-5.8524078e-05	680539.8	117625.12	-0.000502907	117626.3	680539	-0.0002732558
0	0.5693432	0.5693418	-2.994094e-10	0.012374386	0.012374386	0	63678.773	63678.605	-3.20489e-05	680827.56	116251.734	-0.0003895349	116252.94	680826.75	-5.232558e-05
0	0.5685596	0.56855816	-3.6802403e-10	0.0120208245	0.0120208245	0	63591.133	63590.973	-3.948053e-05	681116.5	114865.75	-0.00037790698	114866.95	681115.7	-0.0001627907
0	0.56776965	0.5677683	-4.3248022e-10	0.0116672525	0.011667252	0	63502.777	63502.613	-4.9002305e-05	681404.6	113471.71	-0.0003139535	113472.93	681403.9	-0.00030232558
0	0.5669666	0.5669652	-8.039696e-11	0.011313694	0.011313694	0	63412.957	63412.797	-8.360583e-06	681699.25	112052.8	-3.1976746e-05	112054.01	681698.5	-6.395349e-05
0	0.5661591	0.56615776	-3.202017e-10	0.0109601235	0.0109601235	0	63322.64	63322.49	-3.8319336e-05	681990.4	110631.195	-0.00037790698	110632.414	681989.7	-9.3023256e-05
0	0.56534004	0.5653387	-3.1465708e-10	0.010606592	0.010606592	0	63231.035	63230.875	-3.4371285e-05	682285.94	109188.84	-0.00015697675	109190.04	682285.2	-0.0002616279
0	0.56451166	0.5645102	-2.4812166e-10	0.010253036	0.010253036	0	63138.375	63138.22	-2.786861e-05	682583	107732.016	-0.000252907	107733.2	682582.25	-0.00012790698
0	0.5636731	0.56367177	-4.5050023e-11	0.009899471	0.009899471	0	63044.594	63044.44	-7.896106e-06	682882	106259.18	-9.5930234e-05	106260.36	682881.25	2.3255814e-05
0	0.56282496	0.5628237	-5.031741e-10	0.009545952	0.009545953	0	62949.74	62949.59	-5.527274e-05	683182.75	104771.19	-0.0005145349	104772.36	683182.06	-0.00021511628
0	0.5619662	0.5619649	-4.262425e-10	0.009192388	0.009192388	0	62853.684	62853.543	-4.5286488e-05	683485.5	103266.125	-0.0004011628	103267.28	683484.75	-0.00014534884
0	0.5610964	0.56109506	-3.021817e-10	0.008838867	0.008838866	0	62756.39	62756.242	-2.9726516e-05	683790.4	101743.4	-0.00040697673	101744.55	683789.7	-1.1627907e-05
0	0.560213	0.5602118	-5.3228333e-10	0.008485297	0.008485297	0	62657.598	62657.453	-5.9453032e-05	684100	100197.1	-0.00043023255	100198.234	684099.4	-0.0003139535
0	0.55932325	0.559322	-2.0237856e-10	0.008131741	0.008131741	0	62558.074	62557.94	-2.3920556e-05	684406.56	98644.9	-0.00020930232	98645.99	684405.94	-9.3023256e-05
0	0.5584184	0.55841714	-1.3826891e-10	0.0077781687	0.0077781687	0	62456.87	62456.734	-1.4166543e-05	684718.44	97066.16	-0.00018023256	97067.25	684717.8	-2.3255814e-05
0	0.55749816	0.557497	-1.7153662e-10	0.007424601	0.0074246004	0	62353.953	62353.824	-1.741788e-05	685035.3	95461.14	-0.00025	95462.19	685034.7	1.1627907e-05
0	0.5565677	0.5565666	-4.1584636e-10	0.0070710485	0.007071049	0	62249.88	62249.758	-4.7376634e-05	685352.1	93841.73	-0.00036918605	93842.74	685351.5	-0.00022674419
0	0.55562353	0.5556224	-4.1584635e-11	0.0067175305	0.0067175305	0	62144.277	62144.16	-5.573722e-06	685671.6	92200.35	-5.232558e-05	92201.34	685671.06	-5.232558e-05