# t (s)	mx ()	my ()	mz ()	B_extx (T)	B_exty (T)	B_extz (T)	m_fullx (A/m)	m_fully (A/m)	m_fullz (A/m)	m_full.region1x (A/m)	m_full.region1y (A/m)	m_full.region1z (A/m)	m_full.region2x (A/m)	m_full.region2y (A/m)	m_full.region2z (A/m)
0	0.63647014	0.6364717	-2.9465572e-10	0.07071087	0.07071087	0	126173.836	126174.16	-5.5625e-05	648321.9	242737.89	-0.00022069209	242736.31	648322.5	-0.0002008298
0	0.6363696	0.6363697	-7.5768614e-11	0.07056911	0.07056911	0	126153.89	126153.945	-1.25e-05	648394.06	242523.7	-3.0896892e-05	242523.39	648394	-6.620763e-05
0	0.6362655	0.6362655	-8.418735e-11	0.07042789	0.07042789	0	126133.28	126133.28	-1e-05	648470	242301.83	-7.062147e-05	242301.67	648469.8	-1.9862287e-05
0	0.6361606	0.63616055	-2.2730585e-10	0.07028653	0.07028653	0	126112.46	126112.46	-4e-05	648546.1	242078.86	-0.000110346045	242078.72	648545.94	-0.00019420905
0	0.6360559	0.6360559	-2.2730585e-10	0.070144884	0.070144884	0	126091.71	126091.73	-4.8125e-05	648621.7	241856.77	-5.29661e-05	241856.61	648621.56	-0.00028579627
0	0.6359495	0.63594943	-7.5768614e-11	0.07000352	0.07000352	0	126070.63	126070.62	-2e-05	648698.2	241631.17	-2.648305e-05	241630.98	648698.06	-8.386299e-05
0	0.6358445	0.63584447	-1.1786229e-10	0.06986229	0.06986229	0	126049.81	126049.805	-2.25e-05	648774.3	241408.2	-9.048376e-05	241408.03	648774.1	-0.00013020834
0	0.6357394	0.63573927	-3.367494e-11	0.069720544	0.069720544	0	126028.96	126028.96	-1.875e-05	648850.06	241185.14	-7.062147e-05	241184.97	648849.94	-5.186264e-05
0	0.6356328	0.63563275	-2.1046838e-10	0.06957919	0.06957919	0	126007.85	126007.83	-4.5625e-05	648925.94	240960.19	-0.00013462217	240960.02	648925.8	-0.00019641596
0	0.6355274	0.6355274	-2.86237e-10	0.069437966	0.069437966	0	125986.94	125986.94	-5.5e-05	649002.06	240736.36	-0.00017655367	240736.2	649001.94	-0.00017876059
0	0.6354203	0.6354204	-1.5995597e-10	0.069296576	0.069296576	0	125965.74	125965.734	-2.625e-05	649078.3	240510.38	-6.1793784e-05	240510.2	649078.06	-0.00013241525
0	0.6353146	0.6353145	-1.683747e-10	0.069154955	0.06915496	0	125944.77	125944.76	-2.8125e-05	649154.5	240285.97	-0.0001059322	240285.81	649154.4	-0.00016551907
0	0.63520724	0.6352072	-2.1888712e-10	0.069013596	0.069013596	0	125923.484	125923.47	-4.375e-05	649230.56	240059.62	-0.00013241525	240059.5	649230.4	-0.00018538136
0	0.6350992	0.6350992	-9.260609e-11	0.068872236	0.068872236	0	125902.05	125902.05	-2.375e-05	649307.94	239831.03	-5.29661e-05	239830.89	649307.75	-7.724223e-05
0	0.63499296	0.63499296	-1.1786229e-10	0.06873064	0.06873064	0	125880.99	125880.99	-1.875e-05	649383.7	239606.55	-8.827684e-06	239606.4	649383.5	-0.0001368291
0	0.6348862	0.634886	-1.1365293e-10	0.06858927	0.06858927	0	125859.82	125859.82	-2.5e-05	649459.6	239381.05	-3.5310735e-05	239380.88	649459.56	-0.00014124294
0	0.6347786	0.6347786	-1.0102482e-10	0.068448015	0.068448015	0	125838.51	125838.51	-2e-05	649536.06	239154.19	0	239154.05	649535.9	-0.00016441561
0	0.6346706	0.6346706	-2.1046838e-10	0.06830665	0.06830665	0	125817.11	125817.086	-4.125e-05	649612.3	238926.72	-8.8276836e-05	238926.61	649612.1	-0.0001897952
0	0.6345624	0.6345623	-2.86237e-10	0.06816504	0.06816504	0	125795.66	125795.65	-5.25e-05	649688.56	238698.9	-0.00015227754	238698.73	649688.4	-0.00023393362
0	0.6344543	0.63445425	-1.0102482e-10	0.068023674	0.068023674	0	125774.21	125774.21	-2.75e-05	649765.3	238470.9	-1.7655368e-05	238470.77	649765.1	-0.00013462217
0	0.6343459	0.6343459	-1.0944356e-10	0.06788232	0.06788232	0	125752.71	125752.71	-1.5e-05	649841.75	238242.62	1.7655368e-05	238242.45	649841.56	-0.0001257945
0	0.63423735	0.63423723	-1.1786229e-10	0.067740716	0.067740716	0	125731.2	125731.195	-1.75e-05	649918.1	238014.28	-9.269068e-05	238014.12	649917.9	-7.282839e-05
0	0.63412845	0.63412845	-4.2093676e-11	0.06759932	0.06759932	0	125709.64	125709.63	-6.25e-06	649994.7	237785.28	-3.5310735e-05	237785.12	649994.56	0
0	0.63401985	0.63401985	-2.9465572e-10	0.06745809	0.06745809	0	125688.08	125688.08	-5.25e-05	650070.94	237556.97	-0.00011475989	237556.83	650070.7	-0.00026041668
0	0.63390964	0.63390964	-2.1888712e-10	0.067316726	0.067316726	0	125666.25	125666.24	-4.5e-05	650147.4	237326.28	-0.000110346045	237326.14	650147.1	-0.00022069209
0	0.6338002	0.63380015	-5.8931145e-11	0.06717498	0.067174986	0	125644.555	125644.55	-1.625e-05	650224.5	237095.95	-4.4138418e-05	237095.81	650224.4	-8.6069915e-05
0	0.6336908	0.6336908	-6.734988e-11	0.06703377	0.06703377	0	125622.87	125622.86	-1.5e-05	650300.94	236866.3	-5.29661e-05	236866.16	650300.75	-4.1931497e-05
0	0.6335808	0.63358074	-1.5995597e-10	0.066892385	0.066892385	0	125601.055	125601.03	-3e-05	650377.7	236635.52	-9.710452e-05	236635.33	650377.5	-0.00014676024
0	0.6334702	0.6334702	-2.1046838e-10	0.06675076	0.066750765	0	125579.14	125579.13	-4.875e-05	650453.94	236404.48	-0.00020745056	236404.34	650453.75	-0.00013793255
0	0.6333603	0.6333602	-3.4516814e-10	0.0666094	0.0666094	0	125557.34	125557.33	-7e-05	650530.94	236173.56	-0.00022951978	236173.44	650530.7	-0.0002537959
0	0.63324934	0.6332493	5.8931145e-11	0.06646817	0.06646816	0	125535.35	125535.34	1.5e-05	650607.7	235941.52	1.5448446e-05	235941.34	650607.5	7.5035314e-05
0	0.6331387	0.63313866	-1.3469977e-10	0.06632643	0.06632643	0	125513.414	125513.414	-2.4375e-05	650684.3	235710	-5.29661e-05	235709.86	650684.1	-0.00010372528
0	0.6330276	0.63302755	-2.609808e-10	0.06618507	0.06618507	0	125491.38	125491.37	-5.3125e-05	650761.2	235477.55	-0.00015227754	235477.39	650760.94	-0.0002648305
0	0.6329163	0.6329162	-1.5153723e-10	0.06604384	0.06604385	0	125469.33	125469.305	-3.1875e-05	650838.2	235244.73	-0.00010372528	235244.58	650837.94	-0.00013462217
0	0.63280475	0.6328047	-2.1888712e-10	0.065902434	0.065902434	0	125447.22	125447.21	-3.75e-05	650914.8	235012.08	-0.00014124294	235011.92	650914.5	-0.00016993292
0	0.6326932	0.6326932	-1.5995597e-10	0.06576085	0.06576085	0	125425.11	125425.11	-2.71875e-05	650991.8	234778.89	-9.710452e-05	234778.75	650991.5	-0.00011475989
0	0.632581	0.632581	-1.0944356e-10	0.065619476	0.065619476	0	125402.85	125402.85	-2.375e-05	651068.75	234544.73	-9.048376e-05	234544.56	651068.5	-6.841455e-05
0	0.6324668	0.6324667	-1.7679344e-10	0.06547824	0.06547824	0	125380.22	125380.21	-3.6875e-05	651146.9	234306.78	-7.944915e-05	234306.64	651146.6	-0.00016662253
0	0.63235635	0.6323563	-1.936309e-10	0.065336525	0.065336525	0	125358.305	125358.305	-3.6875e-05	651222.5	234076.52	-0.00012358757	234076.36	651222.25	-0.00016331214
0	0.63224417	0.63224405	-7.5768614e-11	0.06519514	0.06519514	0	125336.06	125336.06	-2e-05	651299.4	233842.5	-8.386299e-05	233842.34	651299.1	-5.29661e-05
0	0.6321318	0.63213176	-2.1046838e-10	0.065053925	0.065053925	0	125313.79	125313.78	-4.09375e-05	651376	233608.61	-0.00017655367	233608.47	651375.8	-0.000121380646
0	0.632017	0.6320169	-1.5153723e-10	0.064912505	0.06491251	0	125291.04	125291.05	-4.25e-05	651454.06	233369.9	-8.8276836e-05	233369.77	651453.75	-0.00017986406
0	0.6319045	0.6319044	-1.1786229e-10	0.06477093	0.06477093	0	125268.73	125268.73	-2.5e-05	651530.7	233135.67	-4.855226e-05	233135.53	651530.5	-0.00013351871
0	0.6317913	0.63179123	-4.8828663e-10	0.06462956	0.06462956	0	125246.31	125246.3	-9.6875e-05	651607.5	232900.48	-0.00035972812	232900.34	651607.4	-0.00036083156
0	0.63167745	0.6316774	-1.1786229e-10	0.06448818	0.06448818	0	125223.74	125223.734	-2.9375e-05	651684.75	232663.9	-7.062147e-05	232663.75	651684.5	-9.600106e-05
0	0.6315641	0.63156396	-3.5358688e-10	0.0643466	0.0643466	0	125201.26	125201.24	-7e-05	651761.4	232428.31	-0.00026924434	232428.17	651761.25	-0.00020524365
0	0.6314482	0.6314481	-2.5256205e-10	0.06420524	0.06420522	0	125178.27	125178.266	-5.375e-05	651839.5	232188.08	-0.00017213983	232187.94	651839.2	-0.00022069209
0	0.6313346	0.63133454	-8.418735e-11	0.064063966	0.064063966	0	125155.78	125155.78	-2.5e-05	651916.1	231952.5	-7.944915e-05	231952.34	651915.94	-6.4000706e-05
0	0.63122034	0.63122034	-2.3572458e-10	0.063922584	0.063922584	0	125133.125	125133.12	-4.25e-05	651993.1	231715.56	-0.00018538136	231715.42	651992.9	-0.00012800141
0	0.631105	0.63110495	-6.734988e-11	0.063781016	0.06378101	0	125110.266	125110.25	-1.3125e-05	652070.25	231477.06	-6.1793784e-05	231476.94	652069.94	-5.075918e-05
0	0.6309901	0.6309901	-1.7679344e-10	0.06363963	0.06363963	0	125087.48	125087.46	-3.75e-05	652147.5	231238.83	-5.29661e-05	231238.66	652147.2	-0.00020303672
0	0.63087404	0.630874	-4.2093676e-11	0.06349825	0.06349824	0	125064.48	125064.47	-1.25e-05	652225.25	230998.69	-6.6207626e-06	230998.55	652224.94	-6.620763e-05
0	0.6307587	0.6307585	-1.5153723e-10	0.06335668	0.06335668	0	125041.59	125041.586	-1.875e-05	652302.6	230759.58	-0.0001059322	230759.47	652302.4	-0.00012689795
0	0.63064337	0.63064337	-1.5995597e-10	0.06321527	0.063215286	0	125018.734	125018.734	-3.46875e-05	652379.56	230521.34	-3.5310735e-05	230521.2	652379.25	-0.00017655367
0	0.630527	0.63052696	-1.7679344e-10	0.06307404	0.06307404	0	124995.69	124995.664	-4.25e-05	652456.8	230281.2	-0.0001257945	230281.08	652456.6	-0.00018096752
0	0.6304109	0.6304108	-2.609808e-10	0.06293266	0.062932655	0	124972.66	124972.65	-5.0625e-05	652534.44	230040.94	-0.00018538136	230040.8	652534.25	-0.00018869173
0	0.63029426	0.63029426	-1.5995597e-10	0.062790945	0.062790945	0	124949.55	124949.53	-2.75e-05	652611.75	229800.4	-7.944915e-05	229800.27	652611.56	-0.00013462217
0	0.63017756	0.6301775	-2.3572458e-10	0.062649705	0.062649705	0	124926.38	124926.38	-5e-05	652689.4	229559.38	-0.00013241525	229559.25	652689.06	-0.00021407133
0	0.6300611	0.63006103	-4.6303042e-10	0.06250833	0.06250833	0	124903.31	124903.29	-8.90625e-05	652766.3	229319.38	-0.00028248588	229319.27	652766	-0.00036634886
0	0.62994283	0.6299427	-2.4414332e-10	0.06236674	0.06236674	0	124879.875	124879.83	-4.75e-05	652843.94	229076.06	-0.00015007063	229075.92	652843.8	-0.0002118644
0	0.629826	0.6298259	-1.2628103e-10	0.062225346	0.062225346	0	124856.71	124856.69	-2.5e-05	652921.5	228834.97	-0.00013241525	228834.86	652921.4	-4.1931497e-05
0	0.62970763	0.6297075	-2.3572458e-10	0.06208412	0.06208412	0	124833.24	124833.22	-5.15625e-05	652999.4	228591.38	-0.00013462217	228591.23	652999.2	-0.00020855402
0	0.62959003	0.62959	-5.8931145e-11	0.061942413	0.061942413	0	124809.93	124809.914	-6.875e-06	653076.6	228349.6	-2.648305e-05	228349.47	653076.3	-3.3103814e-05
0	0.62947196	0.6294719	-2.2730585e-10	0.06180102	0.06180102	0	124786.53	124786.516	-4.375e-05	653154.2	228106.75	-0.00017655367	228106.62	653153.94	-0.0001368291
0	0.62935334	0.6293533	-6.734988e-11	0.06165979	0.06165979	0	124763.016	124762.99	-1.3125e-05	653231.9	227863	-4.4138418e-05	227862.88	653231.7	-7.282839e-05
0	0.62923485	0.62923485	-2.3572458e-10	0.061518367	0.061518367	0	124739.53	124739.52	-5e-05	653309.6	227619.44	-0.0001588983	227619.34	653309.4	-0.00020303672
0	0.6291162	0.6291161	-2.3572458e-10	0.061376818	0.061376818	0	124715.97	124715.97	-5.125e-05	653387.1	227375.58	-0.000108139124	227375.47	653386.9	-0.00027145128
0	0.6289971	0.628997	-3.367494e-11	0.061235435	0.061235435	0	124692.375	124692.37	-8.75e-06	653464.7	227131.36	1.7655368e-05	227131.25	653464.44	-1.10346045e-05
0	0.6288771	0.628877	-6.734988e-11	0.061094042	0.061094042	0	124668.6	124668.58	-1.5e-05	653542.75	226885.28	-1.7655368e-05	226885.17	653542.5	-0.00012358757
0	0.6287577	0.62875754	-1.5995597e-10	0.0609525	0.06095251	0	124644.92	124644.91	-3.375e-05	653620.44	226640.48	-0.0001257945	226640.34	653620.2	-0.00011917373
0	0.6286381	0.628638	-2.1888712e-10	0.060811102	0.060811102	0	124621.21	124621.21	-3.875e-05	653697.8	226395.62	-0.00013241525	226395.52	653697.56	-0.00014344986
0	0.6285179	0.6285179	-2.3572458e-10	0.06066984	0.06066984	0	124597.39	124597.37	-4.65625e-05	653775.56	226149.67	-0.00018538136	226149.55	653775.25	-0.00012358757
0	0.6283976	0.6283974	-2.86237e-10	0.060528446	0.060528446	0	124573.52	124573.52	-5.625e-05	653853.4	225903.33	-0.00018538136	225903.19	653853.06	-0.00020745056
0	0.62827677	0.62827665	-1.8521218e-10	0.060386896	0.060386896	0	124549.59	124549.57	-3.875e-05	653931.3	225656.22	-0.00014124294	225656.14	653931	-0.00014455331
0	0.6281559	0.62815577	-1.3469977e-10	0.060245506	0.060245506	0	124525.63	124525.61	-2.75e-05	654009.2	225409.16	-5.29661e-05	225409.05	654009	-0.0001478637
0	0.6280349	0.6280348	-1.0944356e-10	0.060104124	0.060104124	0	124501.625	124501.61	-3.25e-05	654087.06	225161.86	-7.724223e-05	225161.72	654086.8	-0.00014124294
0	0.6279123	0.62791216	-2.7781827e-10	0.059962578	0.059962578	0	124477.32	124477.32	-5.625e-05	654165.5	224911.84	-0.00028248588	224911.7	654165.2	-0.00010924259
0	0.6277915	0.62779146	-1.5153723e-10	0.059821147	0.059821147	0	124453.4	124453.375	-3.75e-05	654243	224665.31	-9.710452e-05	224665.17	654242.7	-0.00017434676
0	0.6276701	0.6276701	-2.0204964e-10	0.05967991	0.059679918	0	124429.336	124429.31	-4.25e-05	654320.7	224417.77	-0.00015448446	224417.66	654320.3	-0.00019862287
0	0.6275475	0.6275473	-1.5995597e-10	0.05953851	0.05953851	0	124405.016	124404.99	-3.125e-05	654398.6	224167.9	-0.00012358757	224167.81	654398.5	-9.820798e-05
0	0.62742513	0.6274251	-2.6939953e-10	0.059396826	0.059396826	0	124380.766	124380.734	-5.75e-05	654476.5	223918.83	-0.00024717514	223918.72	654476.1	-0.00013020834
0	0.627303	0.62730294	-1.683747e-10	0.059255596	0.059255596	0	124356.57	124356.52	-2.875e-05	654554.56	223669.86	-0.00011917373	223669.75	654554.2	-0.000121380646
0	0.62718	0.62717986	-1.936309e-10	0.059114188	0.059114188	0	124332.16	124332.125	-4.25e-05	654632.7	223419.33	-0.00014124294	223419.2	654632.44	-0.00016772599
0	0.62705725	0.6270572	-2.1046838e-10	0.058972627	0.05897263	0	124307.83	124307.81	-4.125e-05	654710.4	223169.97	-0.0001588983	223169.83	654710.2	-0.0001478637
0	0.62693375	0.62693363	-1.431185e-10	0.058831234	0.058831234	0	124283.34	124283.33	-3e-05	654788.56	222918.83	-0.00011917373	222918.72	654788.25	-8.8276836e-05
0	0.6268101	0.62681	-1.431185e-10	0.058689985	0.05868999	0	124258.836	124258.81	-3.34375e-05	654866.5	222667.77	-0.00011475989	222667.67	654866.3	-0.00011807027
0	0.626686	0.62668586	-2.7781827e-10	0.0585483	0.0585483	0	124234.22	124234.21	-5.75e-05	654945.06	222415.52	-0.00023834746	222415.39	654944.75	-0.00019641596
0	0.6265619	0.6265618	-1.1786229e-10	0.058406904	0.058406904	0	124209.63	124209.625	-3.125e-05	655023.1	222163.66	-8.8276836e-05	222163.55	655022.8	-8.6069915e-05
0	0.62643766	0.62643754	-2.4414332e-10	0.058265664	0.058265664	0	124185.01	124184.984	-4.71875e-05	655100.94	221911.75	-0.00012358757	221911.64	655100.8	-0.00021627825
0	0.62631285	0.6263128	-2.1046838e-10	0.05812423	0.05812423	0	124160.266	124160.26	-4.375e-05	655179.44	221658.72	-0.00015007063	221658.61	655179.2	-0.00016551907
0	0.62618834	0.6261883	-1.0102482e-10	0.057982713	0.057982713	0	124135.586	124135.555	-2.625e-05	655257.25	221406.6	-8.386299e-05	221406.48	655257	-5.7379944e-05
0	0.62606275	0.62606263	-1.1786229e-10	0.057841305	0.057841305	0	124110.695	124110.664	-2.3125e-05	655335.56	221152.44	-3.5310735e-05	221152.34	655335.3	-0.00013296699
0	0.62593687	0.6259367	-4.3777423e-10	0.057699904	0.057699904	0	124085.71	124085.69	-8.5e-05	655413.5	220898.17	-0.00024717514	220898.06	655413.25	-0.00037738346
0	0.62581176	0.6258116	-5.051241e-11	0.057558395	0.057558395	0	124060.91	124060.89	-8.75e-06	655492.2	220644.3	-4.634534e-05	220644.22	655491.9	-2.8689972e-05
0	0.6256862	0.62568605	-1.936309e-10	0.057416987	0.057416987	0	124036.03	124036.016	-3.625e-05	655569.8	220391.02	-9.710452e-05	220390.94	655569.5	-0.00017213983
0	0.62555987	0.62555987	-1.8521218e-10	0.05727571	0.05727571	0	124011.01	124010.984	-3.625e-05	655648.4	220135.62	-0.0001059322	220135.53	655648.1	-0.0001588983
0	0.62543374	0.6254337	-7.5768614e-11	0.0571343	0.0571343	0	123985.99	123985.97	-1.375e-05	655726.7	219880.61	-5.7379944e-05	219880.52	655726.44	-5.5173023e-05
0	0.6253066	0.62530655	1.683747e-11	0.05699279	0.05699279	0	123960.79	123960.77	-4.0625e-06	655805.3	219624.08	8.827684e-06	219623.98	655805.1	-2.8689972e-05
0	0.6251803	0.62518007	-1.2628103e-10	0.05685139	0.056851387	0	123935.73	123935.7	-3.09375e-05	655883.4	219369.11	-8.8276836e-05	219369	655883	-9.048376e-05
0	0.62505233	0.6250522	-2.3151521e-10	0.056709986	0.056709986	0	123910.37	123910.336	-4.75e-05	655961.7	219111.62	-0.00020524365	219111.56	655961.4	-0.00013241525
0	0.62492526	0.6249251	-2.3572458e-10	0.05656847	0.05656847	0	123885.18	123885.15	-4.59375e-05	656040.25	218855.14	-0.00017655367	218855.05	656040.06	-0.00016110523
0	0.6247953	0.62479526	-2.0204964e-10	0.05642703	0.05642703	0	123859.414	123859.38	-4e-05	656119.2	218594.34	-0.0001588983	218594.23	656118.9	-9.710452e-05
0	0.6246695	0.62466943	-1.0944356e-10	0.056285787	0.056285787	0	123834.49	123834.484	-2.3125e-05	656196.9	218340.69	-6.841455e-05	218340.6	656196.56	-7.613877e-05
0	0.62454087	0.6245408	-2.3572458e-10	0.056144364	0.056144364	0	123808.99	123808.96	-4.6875e-05	656275.7	218081.72	-0.00019420905	218081.61	656275.4	-0.00016220869
0	0.62441283	0.62441266	-2.5256205e-10	0.056002706	0.056002706	0	123783.62	123783.58	-4.3125e-05	656353.6	217824.47	-0.00015007063	217824.39	656353.3	-0.00018317443
0	0.62428355	0.6242835	-2.2730585e-10	0.055861466	0.055861466	0	123757.98	123757.96	-3.75e-05	656432.3	217564.78	-0.00011475989	217564.7	656432.06	-0.00017655367
0	0.62415516	0.6241551	-3.5358688e-10	0.055720054	0.05572005	0	123732.52	123732.51	-7.375e-05	656510.7	217306.8	-0.00016331214	217306.69	656510.3	-0.00033103814
0	0.6240257	0.6240256	-2.7781827e-10	0.05557856	0.05557856	0	123706.86	123706.83	-4.625e-05	656589.4	217046.75	-0.00017655367	217046.67	656589.06	-0.00017434676
0	0.62389624	0.62389606	-8.418735e-11	0.055437103	0.05543711	0	123681.18	123681.16	-1.5e-05	656667.75	216786.98	-4.4138418e-05	216786.89	656667.56	-3.9724575e-05
0	0.6237663	0.6237661	-2.5256205e-11	0.05529586	0.05529586	0	123655.414	123655.39	-1.09375e-05	656746.44	216526.42	-5.29661e-05	216526.36	656746.2	-4.74488e-05
0	0.623636	0.6236357	-1.2628103e-10	0.055154454	0.055154454	0	123629.586	123629.57	-2.125e-05	656825.2	216265.17	-8.6069915e-05	216265.08	656824.94	-0.00011255297
0	0.6235056	0.6235054	-5.051241e-11	0.05501279	0.05501279	0	123603.74	123603.72	-2.5e-06	656903.75	216004.12	-1.3241525e-05	216004.06	656903.4	-1.7655368e-05
0	0.62337345	0.62337327	-6.734988e-11	0.054871544	0.054871544	0	123577.54	123577.51	-1.03125e-05	656983.1	215739.73	1.7655368e-05	215739.66	656982.75	-9.269068e-05
0	0.6232443	0.6232441	-3.0307445e-10	0.05473012	0.054730132	0	123551.945	123551.91	-6.125e-05	657060.75	215481.39	-0.00022951978	215481.28	657060.4	-0.00020414019
0	0.6231126	0.6231124	-1.5995597e-10	0.054588605	0.054588605	0	123525.836	123525.805	-3.25e-05	657139.5	215218.16	-0.00012800141	215218.06	657139.2	-5.5173023e-05
0	0.62298155	0.6229814	-1.1786229e-10	0.05444719	0.05444719	0	123499.87	123499.83	-2.1875e-05	657217.94	214956.31	3.0896892e-05	214956.22	657217.7	-0.00020193326
0	0.62284946	0.62284935	-1.8521218e-10	0.05430595	0.05430595	0	123473.69	123473.66	-2.65625e-05	657297	214692.4	-3.5310735e-05	214692.36	657296.6	-0.00020303672
0	0.62271625	0.6227161	-1.0102482e-10	0.054164287	0.054164287	0	123447.26	123447.23	-2.25e-05	657376.3	214426.5	-0.00013020834	214426.44	657375.94	-4.4138418e-05
0	0.6225855	0.6225853	-5.051241e-11	0.05402286	0.05402286	0	123421.33	123421.305	-1.625e-05	657454.1	214165.56	-7.062147e-05	214165.48	657453.9	-2.8689972e-05
0	0.6224521	0.62245196	-3.0307445e-10	0.053881623	0.053881623	0	123394.9	123394.86	-5.25e-05	657533.1	213899.84	-0.00013241525	213899.77	657532.8	-0.00028027897
0	0.62231976	0.62231964	-1.1786229e-10	0.053740162	0.053740162	0	123368.664	123368.64	-2.875e-05	657611.5	213636.22	-0.00010151836	213636.14	657611.2	-6.4000706e-05
0	0.6221868	0.62218666	-1.936309e-10	0.053598683	0.053598683	0	123342.31	123342.3	-4.65625e-05	657690.4	213371.2	-0.00012358757	213371.16	657690.1	-0.00014676024
0	0.62205315	0.622053	-3.0307445e-10	0.053457264	0.053457264	0	123315.81	123315.78	-5.78125e-05	657769.3	213105.23	-0.0002648305	213105.16	657768.94	-0.00015227754
0	0.6219196	0.6219194	-1.5153723e-10	0.05331584	0.05331584	0	123289.336	123289.29	-2.625e-05	657848.1	212839.33	-9.931144e-05	212839.27	657847.8	-0.00011255297
0	0.6217857	0.62178546	-5.051241e-11	0.053174376	0.053174376	0	123262.79	123262.76	-1.3125e-05	657926.9	212573.17	-2.648305e-05	212573.1	657926.56	-7.282839e-05
0	0.62165153	0.6216515	-2.9465572e-10	0.053032946	0.053032946	0	123236.21	123236.18	-6.625e-05	658005.56	212306.66	-0.00014124294	212306.61	658005.3	-0.0002979343
0	0.6215173	0.6215171	-1.2628103e-10	0.05289166	0.05289166	0	123209.59	123209.56	-2.3125e-05	658084.2	212040.08	-0.0001478637	212039.98	658083.94	-3.5310735e-05
0	0.62138236	0.6213822	-1.5995597e-10	0.052750226	0.052750226	0	123182.83	123182.805	-3.8125e-05	658163.1	211772.25	-0.00015007063	211772.17	658162.8	-0.00010703567
0	0.6212471	0.621247	-2.5256205e-10	0.052608766	0.052608766	0	123156.03	123156	-5.5e-05	658242.1	211503.95	-0.0002118644	211503.89	658241.8	-0.00015227754
0	0.62111187	0.62111175	-1.5995597e-10	0.052467342	0.052467342	0	123129.22	123129.2	-3.625e-05	658320.7	211235.94	-9.048376e-05	211235.89	658320.5	-0.00020303672
0	0.6209752	0.620975	-1.0102482e-10	0.052325904	0.052325904	0	123102.12	123102.086	-2.09375e-05	658399.9	210965.42	-8.827684e-06	210965.38	658399.6	-0.00017986406
0	0.62084055	0.6208404	-2.1046838e-10	0.05218446	0.05218445	0	123075.43	123075.4	-4.15625e-05	658478.5	210698.31	-0.00019420905	210698.23	658478.2	-0.00011917373
0	0.62070346	0.62070334	-1.2628103e-10	0.052042987	0.052042987	0	123048.27	123048.23	-2.75e-05	658557.8	210427.19	-7.5035314e-05	210427.12	658557.5	-0.000121380646
0	0.6205677	0.62056744	-1.683747e-10	0.051901728	0.051901728	0	123021.336	123021.29	-3.15625e-05	658636.3	210158.39	-0.00013241525	210158.31	658636.06	-0.00013241525
0	0.6204309	0.62043077	-1.7679344e-10	0.051760294	0.051760297	0	122994.23	122994.19	-3e-05	658715.5	209887.86	-8.8276836e-05	209887.81	658715.2	-0.00012800141
0	0.62029326	0.6202931	-1.0102482e-10	0.051618665	0.051618665	0	122966.914	122966.88	-2.375e-05	658794.75	209615.81	-0.00012800141	209615.77	658794.44	-4.634534e-05
0	0.6201561	0.62015593	1.683747e-11	0.05147743	0.05147743	0	122939.75	122939.71	4.375e-06	658873.25	209345.38	7.062147e-05	209345.36	658872.94	-5.186264e-05
0	0.62001854	0.6200184	-2.1046838e-10	0.051335983	0.051335983	0	122912.484	122912.46	-4.5e-05	658952.56	209073.52	-0.00013241525	209073.45	658952.25	-0.00021848518
0	0.6198802	0.61988	-1.8521218e-10	0.051194496	0.051194493	0	122885.05	122885.016	-3.125e-05	659031.5	208800.84	-8.8276836e-05	208800.81	659031.2	-0.00015448446
0	0.61974263	0.61974245	-1.0944356e-10	0.051053066	0.051053066	0	122857.766	122857.734	-2.59375e-05	659110.56	208529.19	-6.1793784e-05	208529.11	659110.2	-0.00015007063
0	0.61960393	0.61960375	0	0.050911807	0.050911807	0	122830.28	122830.26	-1.25e-06	659189.7	208255.88	2.648305e-05	208255.81	659189.4	-3.5310735e-05
0	0.6194651	0.619465	-1.2628103e-10	0.050770186	0.050770186	0	122802.77	122802.74	-2.75e-05	659268.44	207982.86	-8.386299e-05	207982.81	659268.1	-0.00012800141
0	0.61932623	0.619326	-1.683747e-10	0.050628755	0.050628755	0	122775.23	122775.18	-3.3125e-05	659347.8	207708.94	-0.00016772599	207708.89	659347.44	-8.165607e-05
0	0.6191864	0.6191862	-1.7679344e-10	0.050487496	0.050487496	0	122747.49	122747.48	-3.40625e-05	659427.1	207433.89	-7.944915e-05	207433.86	659426.8	-0.0001588983
0	0.6190468	0.6190466	-3.1991193e-10	0.050346017	0.050346017	0	122719.836	122719.8	-5.625e-05	659506.1	207159.5	-0.00020303672	207159.47	659505.75	-0.00020745056
0	0.6189071	0.61890686	-1.3469977e-10	0.05020459	0.05020459	0	122692.125	122692.09	-2.96875e-05	659585.2	206884.77	-0.00010151836	206884.73	659584.8	-0.000108139124
0	0.61876684	0.6187666	-1.936309e-10	0.05006314	0.050063144	0	122664.336	122664.28	-3e-05	659664.25	206609.34	-0.0001588983	206609.3	659663.94	-0.00011807027
0	0.61862606	0.6186258	-1.3469977e-10	0.049921695	0.049921695	0	122636.43	122636.39	-2.34375e-05	659742.94	206333.5	-9.48976e-05	206333.47	659742.7	-9.710452e-05
0	0.6184849	0.61848474	-5.8931145e-11	0.04978028	0.04978028	0	122608.45	122608.41	-9.6875e-06	659822.06	206056.86	-7.062147e-05	206056.83	659821.75	-2.206921e-06
0	0.61834395	0.6183438	-2.3572458e-10	0.049638826	0.049638826	0	122580.51	122580.47	-4.5625e-05	659901.25	205780.38	-0.0001588983	205780.34	659900.9	-0.00012358757
0	0.61820257	0.6182024	-2.3572458e-10	0.04949753	0.049497526	0	122552.49	122552.445	-4.75e-05	659980.75	205502.98	-0.00015227754	205502.94	659980.44	-0.00019420905
0	0.6180609	0.6180606	-1.936309e-10	0.049356084	0.049356084	0	122524.38	122524.34	-3.65625e-05	660060	205225.19	-0.00014124294	205225.17	660059.75	-0.000108139124
0	0.6179188	0.61791855	-2.5256205e-10	0.049214657	0.049214657	0	122496.22	122496.17	-4.8125e-05	660139.4	204946.98	-0.00016772599	204946.92	660139	-0.00018538136
0	0.6177769	0.61777663	-8.418735e-11	0.049073208	0.04907321	0	122468.08	122468.05	-2.5e-05	660218.2	204669.38	-2.206921e-06	204669.33	660217.94	-0.000110346045
0	0.6176339	0.6176336	-1.0102482e-10	0.048931774	0.048931774	0	122439.734	122439.69	-1.625e-05	660297.6	204389.67	-8.8276836e-05	204389.64	660297.3	-6.510417e-05
0	0.61749107	0.61749095	-4.2093676e-11	0.04879036	0.04879036	0	122411.44	122411.4	-1e-05	660376.75	204110.92	8.827684e-06	204110.88	660376.4	-6.7311084e-05
0	0.6173481	0.6173479	-1.2628103e-10	0.048648857	0.048648857	0	122383.07	122383.055	-1.875e-05	660455.6	203831.62	-1.3241525e-05	203831.58	660455.44	-0.000110346045
0	0.6172039	0.6172038	-1.5153723e-10	0.04850761	0.04850761	0	122354.516	122354.48	-2.65625e-05	660535.3	203550.3	-7.944915e-05	203550.27	660534.94	-9.48976e-05
0	0.6170588	0.6170587	-2.1046838e-10	0.048366148	0.048366148	0	122325.74	122325.695	-4e-05	660615.5	203266.92	-0.00017655367	203266.89	660615.2	-6.9518006e-05
0	0.6169158	0.61691564	-1.5995597e-10	0.04822455	0.04822455	0	122297.38	122297.34	-3e-05	660694	202988.17	-0.00011696681	202988.16	660693.6	-0.0001368291
0	0.61677134	0.61677116	-3.367494e-11	0.048083294	0.048083294	0	122268.76	122268.7	-1.09375e-05	660773.4	202706.5	-4.4138418e-05	202706.48	660773.1	-1.4344986e-05
0	0.6166271	0.6166268	-1.8521218e-10	0.04794183	0.04794183	0	122240.14	122240.1	-3.6875e-05	660852.3	202425.62	-0.00015007063	202425.58	660851.94	-0.00015007063
0	0.61648214	0.61648196	-1.0944356e-10	0.047800392	0.0478004	0	122211.43	122211.38	-2.28125e-05	660931.4	202143.67	-9.931144e-05	202143.62	660931.06	-0.00010151836
0	0.6163352	0.6163349	-1.8521218e-10	0.04765895	0.047658946	0	122182.29	122182.25	-3.84375e-05	661011	201858.23	-9.710452e-05	201858.19	661010.75	-0.00015779484
0	0.61619043	0.61619025	-2.7781827e-10	0.047517676	0.047517676	0	122153.59	122153.555	-5.15625e-05	661090.5	201576.17	-0.00018538136	201576.17	661090.1	-0.00023393362
0	0.61604357	0.61604327	-1.683747e-11	0.047376227	0.04737622	0	122124.46	122124.42	1.25e-06	661169.6	201291.3	-1.7655368e-05	201291.28	661169.3	-5.7379944e-05
0	0.61589855	0.6158983	-2.6939953e-10	0.047234632	0.047234632	0	122095.73	122095.68	-5.28125e-05	661248.8	201009.19	-0.00019862287	201009.17	661248.5	-0.00016662253
0	0.6157519	0.61575174	-3.1991193e-10	0.047093365	0.047093365	0	122066.66	122066.62	-6.25e-05	661328.1	200724.56	-0.00018538136	200724.56	661327.75	-0.00026041668
0	0.6156044	0.61560416	-1.5153723e-10	0.046951856	0.046951856	0	122037.4	122037.37	-3e-05	661408.06	200438.12	-6.4000706e-05	200438.11	661407.7	-0.00014565678
0	0.6154571	0.6154569	-1.683747e-10	0.046810478	0.046810478	0	122008.21	122008.164	-3.84375e-05	661487.44	200152.52	-0.00016772599	200152.48	661487.06	-5.075918e-05
0	0.6153099	0.6153097	-1.1786229e-10	0.046669014	0.046669014	0	121979.03	121978.99	-2.6875e-05	661566.5	199867.31	-0.0001059322	199867.31	661566.2	-0.00010151836
0	0.6151618	0.61516154	-2.0204964e-10	0.046527762	0.046527762	0	121949.664	121949.625	-4.3125e-05	661645.94	199580.56	-0.000121380646	199580.55	661645.6	-0.00020303672
0	0.61501366	0.6150134	-1.3469977e-10	0.04638618	0.04638618	0	121920.305	121920.26	-2.5e-05	661725.1	199293.95	-7.062147e-05	199293.95	661724.9	-0.00011807027
0	0.61486524	0.614865	-2.0204964e-10	0.046244707	0.04624471	0	121890.9	121890.836	-3.5e-05	661804.6	199006.73	-0.00011917373	199006.75	661804.25	-0.00016772599
0	0.61471623	0.61471605	-1.8521218e-10	0.04610345	0.046103448	0	121861.34	121861.305	-3e-05	661884.2	198718.61	-7.724223e-05	198718.61	661883.8	-0.0001588983
0	0.61456686	0.61456656	-3.367494e-11	0.045961928	0.045961935	0	121831.72	121831.68	-5.625e-06	661963.56	198430.02	0	198430	661963.3	-3.8621114e-05
0	0.614418	0.6144177	-2.5256205e-11	0.04582056	0.04582056	0	121802.22	121802.17	-6.875e-06	662042.7	198142.52	0	198142.53	662042.3	-3.5310735e-05
0	0.6142682	0.61426795	-1.7679344e-10	0.0456791	0.045679096	0	121772.53	121772.46	-4e-05	662122.2	197853.25	-0.00014124294	197853.25	662121.9	-0.00014124294
0	0.61411804	0.6141178	-1.2628103e-10	0.04553762	0.04553762	0	121742.76	121742.7	-3.125e-05	662201.56	197563.67	-9.710452e-05	197563.66	662201.1	-0.00011255297
0	0.6139672	0.61396694	-2.1888712e-10	0.045396265	0.045396265	0	121712.87	121712.81	-4e-05	662281.4	197272.7	-7.062147e-05	197272.67	662281.1	-0.00021627825
0	0.6138164	0.61381614	-1.2628103e-10	0.045254786	0.04525479	0	121682.95	121682.914	-2.6875e-05	662360.56	196982.31	-4.855226e-05	196982.3	662360.3	-0.00015007063
0	0.61366516	0.613665	-1.5153723e-10	0.04511347	0.04511347	0	121652.99	121652.93	-4.25e-05	662440.4	196690.92	-0.00012358757	196690.9	662440	-0.00010924259
0	0.61351436	0.61351407	-1.0102482e-10	0.04497199	0.044972	0	121623.09	121623.03	-1.875e-05	662519.25	196400.78	-9.710452e-05	196400.81	662518.9	-6.620763e-05
0	0.6133625	0.6133621	-2.4414332e-10	0.04483065	0.04483065	0	121592.98	121592.914	-5e-05	662599	196108.3	-0.00016110523	196108.3	662598.75	-0.00022951978
0	0.6132101	0.6132098	-1.2628103e-10	0.044689175	0.044689175	0	121562.766	121562.7	-2.5e-05	662678.75	195815.3	-7.062147e-05	195815.33	662678.44	-0.0001004149