# t (s)	mx ()	my ()	mz ()	B_extx (T)	B_exty (T)	B_extz (T)	m_fullx (A/m)	m_fully (A/m)	m_fullz (A/m)	m_full.region1x (A/m)	m_full.region1y (A/m)	m_full.region1z (A/m)	m_full.region2x (A/m)	m_full.region2y (A/m)	m_full.region2z (A/m)
0	0.65439063	0.6543948	-3.893415e-10	0.07071083	0.07071083	0	85473.2	85473.766	-4.9861497e-05	624133.8	292017	-0.00019670428	292013.12	624135.9	-0.00032289192
0	0.6543062	0.65430635	1.7697341e-10	0.07056912	0.07056912	0	85462.17	85462.2	2.5623269e-05	624214.56	291814.47	0.0002709323	291814.06	624214.4	-3.154691e-05
0	0.65421534	0.6542151	-2.123681e-10	0.070427895	0.070427895	0	85450.31	85450.27	-2.7700831e-05	624299.1	291602.38	-0.00030804632	291602.34	624298.75	0
0	0.6541228	0.6541225	-6.3710426e-10	0.0702865	0.0702865	0	85438.23	85438.18	-8.102493e-05	624385.44	291386.44	-0.00046021378	291386.47	624385.1	-0.00032660333
0	0.6540321	0.65403175	-2.1944703e-10	0.07014491	0.07014491	0	85426.37	85426.32	-2.6315789e-05	624470.25	291174.66	-0.00019299287	291174.66	624469.8	-7.422803e-05
0	0.6539401	0.6539398	-4.9552557e-10	0.07000352	0.07000352	0	85414.35	85414.32	-6.578947e-05	624555.75	290960.34	-0.00042309976	290960.38	624555.3	-0.00030247922
0	0.65384835	0.6538481	-5.59236e-10	0.069862284	0.069862284	0	85402.375	85402.33	-7.063712e-05	624640.9	290746.88	-0.0002820665	290746.9	624640.44	-0.00039340855
0	0.6537552	0.65375483	-3.114732e-10	0.06972058	0.06972057	0	85390.2	85390.164	-3.9473685e-05	624726.6	290530.56	-5.9382422e-05	290530.6	624726.2	-0.00034887175
0	0.65366274	0.65366244	-4.318151e-10	0.06957921	0.0695792	0	85378.13	85378.09	-5.6094184e-05	624812.06	290315.78	-0.00039711996	290315.78	624811.7	-0.00016886876
0	0.6535696	0.6535692	-2.8315747e-10	0.06943796	0.06943795	0	85365.95	85365.914	-4.0166204e-05	624897.94	290099.38	-0.000118764845	290099.4	624897.44	-0.0002709323
0	0.6534777	0.65347743	-4.9552557e-10	0.06929655	0.06929654	0	85353.96	85353.914	-6.232687e-05	624983.25	289885.44	-0.00023752969	289885.44	624982.8	-0.00038969715
0	0.6533839	0.65338355	-5.804728e-10	0.06915499	0.06915499	0	85341.72	85341.66	-7.4792246e-05	625069.1	289668.34	-0.00040083134	289668.38	625068.75	-0.00039340855
0	0.6532903	0.6532899	-4.1765724e-10	0.0690136	0.0690136	0	85329.47	85329.43	-5.2631578e-05	625155.1	289451.22	-0.0002820665	289451.22	625154.6	-0.0002560867
0	0.65319645	0.6531961	-2.123681e-10	0.068872206	0.068872206	0	85317.23	85317.18	-2.6315789e-05	625241.3	289233.62	-0.0002523753	289233.66	625240.9	1.8557007e-06
0	0.6531028	0.6531024	-2.123681e-10	0.06873067	0.06873067	0	85304.99	85304.94	-2.6315789e-05	625327.2	289016.66	7.422803e-06	289016.7	625326.75	-0.00023752969
0	0.6530085	0.65300816	-3.1855213e-10	0.06858927	0.06858926	0	85292.68	85292.63	-3.808864e-05	625413.25	288798.6	-8.9073634e-05	288798.66	625412.8	-0.0003043349
0	0.6529146	0.65291435	-3.468679e-10	0.06844801	0.06844801	0	85280.42	85280.37	-4.5706372e-05	625499.7	288580.72	-0.00016330167	288580.75	625499.25	-0.0002894893
0	0.6528196	0.6528192	-3.468679e-10	0.06830662	0.06830662	0	85268	85267.96	-4.5706372e-05	625586.2	288361.16	-0.0002560867	288361.2	625585.7	-0.00019299287
0	0.65272665	0.6527262	-2.123681e-10	0.06816507	0.06816507	0	85255.86	85255.81	-2.8393351e-05	625670.9	288146.38	-0.00013361045	288146.4	625670.4	-0.00016701306
0	0.65263045	0.65263	-6.6542005e-10	0.06802368	0.06802368	0	85243.29	85243.24	-8.448753e-05	625757.75	287924.75	-0.00043052257	287924.78	625757.3	-0.00042124407
0	0.6525354	0.65253496	7.0789364e-12	0.06788229	0.06788229	0	85230.875	85230.83	0	625844.6	287704.84	8.9073634e-05	287704.88	625844.2	-4.0825416e-05
0	0.6524397	0.65243936	-5.096834e-10	0.067740746	0.067740746	0	85218.39	85218.34	-6.786703e-05	625930.9	287484.72	-0.00034887175	287484.78	625930.4	-0.00034516034
0	0.6523437	0.65234333	-1.2034192e-10	0.06759931	0.06759932	0	85205.84	85205.81	-1.5235457e-05	626017.56	287263.62	-6.680522e-05	287263.7	626017.06	-0.00013361045
0	0.6522486	0.6522483	-3.7518363e-10	0.06745808	0.06745808	0	85193.43	85193.39	-4.7091413e-05	626104.06	287043.97	-0.00034887175	287044	626103.6	-0.00014103325
0	0.6521517	0.65215135	-6.087885e-10	0.067316696	0.06731669	0	85180.77	85180.72	-8.240997e-05	626190.6	286821.72	-0.00040083134	286821.78	626190.25	-0.00041567697
0	0.65205646	0.65205604	-4.9552557e-10	0.06717499	0.06717499	0	85168.32	85168.27	-6.509695e-05	626277.2	286601.72	-0.00032660333	286601.75	626276.8	-0.00033402612
0	0.6519593	0.65195894	-1.6281554e-10	0.06703376	0.06703376	0	85155.63	85155.58	-1.9390582e-05	626364.8	286378.12	-4.4536817e-05	286378.16	626364.3	-0.00014474466
0	0.651863	0.6518627	-3.468679e-10	0.06689237	0.06689237	0	85143.06	85143.016	-4.7091413e-05	626451.25	286156.88	-0.00021526129	286156.9	626450.8	-0.0002338183
0	0.6517651	0.6517647	-4.742887e-10	0.06675079	0.06675079	0	85130.28	85130.234	-6.371191e-05	626538.4	285932.78	-0.00029320072	285932.8	626537.9	-0.00035443885
0	0.65166813	0.6516677	-2.8315747e-10	0.0666094	0.0666094	0	85117.59	85117.55	-3.808864e-05	626625.56	285709.72	-6.680522e-05	285709.8	626625	-0.00031175773
0	0.6515706	0.65157026	-2.1944703e-10	0.06646816	0.06646816	0	85104.875	85104.81	-3.2548476e-05	626712.56	285486.38	-0.00019299287	285486.4	626712	-0.00015216746
0	0.65147287	0.6514725	-3.1855213e-10	0.06632646	0.06632647	0	85092.09	85092.055	-4.432133e-05	626799.25	285262.62	-0.00018464222	285262.7	626798.8	-0.0002709323
0	0.65137565	0.6513753	-5.096834e-10	0.06618508	0.06618508	0	85079.41	85079.37	-6.4404434e-05	626886.3	285039.6	-0.00048619357	285039.66	626885.9	-0.00018928148
0	0.6512771	0.6512768	-2.6899957e-10	0.06604384	0.06604384	0	85066.55	85066.484	-3.3240998e-05	626973.56	284814.5	-0.00023752969	284814.56	626973	-0.000118764845
0	0.6511784	0.651178	-4.318151e-10	0.065902404	0.065902404	0	85053.64	85053.6	-5.6786703e-05	627061.1	284588.66	-0.00036742873	284588.75	627060.6	-0.00019670428
0	0.6510808	0.65108037	-7.0789363e-10	0.06576087	0.06576087	0	85040.88	85040.83	-9.4182826e-05	627148.4	284364.7	-0.0004954721	284364.75	627147.8	-0.0004676366
0	0.6509819	0.65098155	-4.742887e-10	0.06561947	0.065619476	0	85027.98	85027.92	-6.232687e-05	627235.6	284138.97	-0.00032660333	284139.06	627235.1	-0.00031918052
0	0.65088207	0.65088165	-2.2652596e-10	0.06547824	0.06547824	0	85014.94	85014.875	-2.7700831e-05	627323.44	283911.4	-0.0002523753	283911.44	627322.9	-6.680522e-05
0	0.6507828	0.6507824	-2.6192065e-10	0.06533654	0.06533655	0	85001.98	85001.92	-3.601108e-05	627411.44	283684.44	-0.00021526129	283684.5	627411	-0.00017072447
0	0.6506828	0.65068233	-4.742887e-10	0.06519516	0.06519516	0	84988.91	84988.84	-6.232687e-05	627499.2	283456.56	-0.00034144893	283456.62	627498.75	-0.0002746437
0	0.6505838	0.6505834	-5.804728e-10	0.06505392	0.06505392	0	84975.98	84975.914	-7.756233e-05	627586.75	283230.47	-0.0005381532	283230.53	627586.25	-0.00023752969
0	0.6504834	0.65048295	-2.6192065e-10	0.06491248	0.06491248	0	84962.86	84962.81	-3.1855954e-05	627674.9	283001.88	-0.00029691213	283001.94	627674.4	-5.7526722e-05
0	0.6503831	0.6503827	-1.4865767e-10	0.06477095	0.06477095	0	84949.76	84949.7	-1.8698061e-05	627762.75	282773.47	-0.00020783849	282773.5	627762.3	2.2268408e-05
0	0.6502835	0.6502831	-6.229464e-10	0.064629555	0.064629555	0	84936.76	84936.695	-7.894737e-05	627849.94	282546.9	-0.00032660333	282546.97	627849.44	-0.0004676366
0	0.6501819	0.6501814	-2.9731534e-10	0.06448816	0.06448816	0	84923.47	84923.414	-3.8781163e-05	627938.1	282316.44	-0.00026350952	282316.5	627937.6	-0.00014660036
0	0.65008146	0.6500811	-3.6810469e-10	0.06434663	0.06434663	0	84910.37	84910.32	-4.8476453e-05	628026.1	282087.88	-0.00032660333	282087.94	628025.6	-0.00014845606
0	0.64997953	0.6499791	-5.6631494e-10	0.06420524	0.06420524	0	84897.055	84897	-7.5484764e-05	628114.7	281856.66	-0.00041567697	281856.72	628114.1	-0.00035258313
0	0.64987856	0.6498781	-4.5305193e-10	0.06406396	0.06406396	0	84883.87	84883.805	-5.9556787e-05	628202.7	281627.22	-0.00036000594	281627.3	628202.2	-0.00023567399
0	0.64977723	0.6497769	-1.8405234e-10	0.06392255	0.06392255	0	84870.63	84870.57	-2.4930749e-05	628290.75	281397.38	-0.0002672209	281397.44	628290.2	7.422803e-06
0	0.6496754	0.649675	-1.4157873e-10	0.063781045	0.063781045	0	84857.33	84857.27	-1.5235457e-05	628379	281166.56	-5.9382422e-05	281166.66	628378.44	-9.092934e-05
0	0.6495729	0.64957243	-4.0349937e-10	0.06363963	0.06363963	0	84843.93	84843.875	-5.5401662e-05	628467.4	280934.62	-0.00042681117	280934.72	628466.9	-0.00014845606
0	0.6494708	0.64947045	-5.238413e-10	0.06349823	0.06349823	0	84830.61	84830.55	-6.855956e-05	628555.5	280703.56	-0.00037114014	280703.62	628555	-0.00033402612
0	0.6493672	0.6493668	-2.548417e-10	0.06335672	0.06335672	0	84817.086	84817.03	-3.601108e-05	628644.4	280469.62	-8.165083e-05	280469.72	628643.9	-0.000254231
0	0.6492655	0.6492651	-3.5394682e-10	0.06321528	0.06321528	0	84803.8	84803.734	-4.7091413e-05	628732.6	280239.1	-0.00023010689	280239.2	628732.06	-0.00022268409
0	0.6491613	0.6491609	-2.4776278e-10	0.06307403	0.06307403	0	84790.18	84790.12	-2.9085873e-05	628822	280003.84	-0.00013361045	280003.9	628821.44	-0.00022268409
0	0.64905876	0.64905834	-6.3002537e-10	0.062932625	0.062932625	0	84776.78	84776.73	-8.3102495e-05	628910.06	279772.1	-0.00038598574	279772.2	628909.56	-0.0004676366
0	0.6489546	0.64895415	-3.2563108e-10	0.06279095	0.06279095	0	84763.18	84763.125	-4.501385e-05	628998.56	279537.78	-0.00018557007	279537.84	628998.06	-0.0002523753
0	0.6488503	0.6488499	-1.9821023e-10	0.06264971	0.06264971	0	84749.56	84749.51	-2.8393351e-05	629088.44	279301.97	-8.9073634e-05	279302.06	629087.9	-0.00017814727
0	0.64874715	0.6487468	-2.336049e-10	0.06250831	0.06250831	0	84736.09	84736.03	-3.0470914e-05	629176.56	279069.44	-9.6496435e-05	279069.5	629176.06	-0.00018557007
0	0.648642	0.64864165	-4.3889406e-10	0.062366765	0.062366772	0	84722.36	84722.3	-5.9556787e-05	629265.56	278833.22	-0.0002894893	278833.3	629265	-0.0002820665
0	0.64853746	0.6485371	7.0789364e-12	0.062225346	0.06222535	0	84708.695	84708.64	4.1551248e-06	629355.06	278597.28	-7.422803e-05	278597.3	629354.7	7.422803e-05
0	0.64843225	0.64843184	-2.1944703e-10	0.06208411	0.06208411	0	84694.95	84694.9	-3.0470914e-05	629444.25	278360.84	-0.00014103325	278360.9	629443.75	-0.00018557007
0	0.64832765	0.64832723	-1.1326298e-10	0.06194245	0.06194245	0	84681.3	84681.24	-1.5235457e-05	629533.2	278125.56	-4.4536817e-05	278125.6	629532.6	-0.00010391924
0	0.64822215	0.6482217	-3.1855213e-10	0.06180103	0.06180103	0	84667.5	84667.44	-4.0858726e-05	629622.44	277888.3	-0.0002672209	277888.4	629621.94	-0.00015587886
0	0.64811707	0.6481167	-6.3710426e-10	0.061659794	0.061659794	0	84653.78	84653.734	-8.033241e-05	629711.5	277652.34	-0.0005242354	277652.47	629710.94	-0.00032660333
0	0.64801055	0.64801013	-4.247362e-10	0.061518334	0.061518334	0	84639.87	84639.81	-5.2631578e-05	629801.4	277413.4	-0.00021154988	277413.5	629800.75	-0.00034887175
0	0.6479045	0.64790404	-5.096834e-10	0.06137684	0.06137684	0	84626.02	84625.96	-6.855956e-05	629890.06	277176.12	-0.00035629453	277176.22	629889.56	-0.00034144893
0	0.6477983	0.6477978	-6.937358e-10	0.06123543	0.06123543	0	84612.14	84612.09	-9.349031e-05	629979.7	276937.8	-0.00040454275	276937.94	629979.06	-0.00056970015
0	0.6476919	0.6476914	-3.0439426e-10	0.06109402	0.06109402	0	84598.26	84598.19	-4.0166204e-05	630069.06	276699.5	-0.000111342044	276699.6	630068.6	-0.0002950564
0	0.6475843	0.64758396	-2.7607852e-10	0.060952537	0.060952537	0	84584.21	84584.15	-4.0858726e-05	630158.94	276459.06	-0.00016330167	276459.2	630158.44	-0.00023010689
0	0.64747715	0.64747673	-2.0528916e-10	0.060811114	0.06081111	0	84570.2	84570.15	-2.6315789e-05	630248.9	276219.03	-1.4845606e-05	276219.12	630248.4	-0.0002597981
0	0.64737016	0.6473698	-5.663149e-11	0.06066983	0.06066983	0	84556.234	84556.19	-8.3102495e-06	630338.44	275979.8	-0.00012618765	275979.9	630337.94	6.309382e-05
0	0.647262	0.64726156	-2.8315747e-10	0.060528416	0.060528416	0	84542.1	84542.04	-3.808864e-05	630428.06	275738.72	-0.00013361045	275738.8	630427.44	-0.0002672209
0	0.6471547	0.64715415	-1.557366e-10	0.060386926	0.060386926	0	84528.086	84528.01	-2.0083102e-05	630517.6	275498.9	-0.00010391924	275499.03	630517	-9.2785034e-05
0	0.6470459	0.64704543	-8.494724e-11	0.06024551	0.06024551	0	84513.86	84513.81	-9.695291e-06	630608.3	275255.8	-0.000100207835	275255.94	630607.75	-4.8248217e-05
0	0.64693785	0.6469373	-9.202617e-11	0.060104094	0.060104094	0	84499.75	84499.695	-8.3102495e-06	630697.7	275015.16	-5.9382422e-05	275015.25	630697.1	-4.4536817e-05
0	0.646829	0.6468285	-3.468679e-10	0.059962615	0.059962615	0	84485.54	84485.48	-4.362881e-05	630788.4	274772.16	-0.00029691213	274772.28	630787.7	-0.00012989905
0	0.64672047	0.64672	-4.247362e-10	0.059821147	0.059821147	0	84471.37	84471.305	-5.5401662e-05	630878.25	274530.34	-0.0002672209	274530.47	630877.6	-0.000291345
0	0.64661133	0.6466109	4.247362e-11	0.05967991	0.05967991	0	84457.11	84457.055	5.540166e-06	630968.2	274287.53	-2.9691211e-05	274287.66	630967.6	8.165083e-05
0	0.64650124	0.64650077	-2.548417e-10	0.05953848	0.05953848	0	84442.734	84442.67	-3.601108e-05	631057.8	274043.8	-0.00017814727	274043.94	631057.2	-0.00017443587
0	0.64639115	0.6463907	-3.2563108e-10	0.05939683	0.05939683	0	84428.34	84428.28	-4.2243766e-05	631148.5	273798.97	-0.00018928148	273799.1	631147.9	-0.00023567399
0	0.64628166	0.6462811	-6.229464e-10	0.0592556	0.059255593	0	84414.05	84413.984	-8.240997e-05	631239.56	273554.56	-0.00043052257	273554.66	631238.94	-0.00039340855
0	0.64617103	0.6461706	-5.8755173e-10	0.05911416	0.05911416	0	84399.61	84399.55	-7.617728e-05	631329.94	273309.5	-0.00038227436	273309.6	631329.4	-0.00038227436
0	0.6460608	0.6460603	-4.884466e-10	0.058972657	0.058972657	0	84385.2	84385.14	-6.232687e-05	631420.56	273064.44	-0.00043423395	273064.56	631420	-0.00014845606
0	0.6459498	0.64594924	-3.0439426e-10	0.05883124	0.05883124	0	84370.71	84370.64	-3.3240998e-05	631510.44	272819.1	-0.0002857779	272819.25	631509.9	-8.165083e-05
0	0.6458395	0.64583904	-1.8405234e-10	0.058689978	0.058689978	0	84356.305	84356.25	-2.4238227e-05	631601.06	272574.16	-0.00013361045	272574.3	631600.44	-0.000100207835
0	0.6457276	0.64572716	-2.548417e-10	0.058548335	0.058548335	0	84341.69	84341.62	-3.462604e-05	631691.6	272326.9	-0.00021154988	272327.03	631691	-0.00016701306
0	0.64561546	0.6456149	-4.0349937e-10	0.05840692	0.058406916	0	84327.03	84326.97	-5.33241e-05	631782.5	272078.97	-0.0002672209	272079.1	631781.94	-0.0002672209
0	0.6455041	0.64550364	-5.026045e-10	0.058265667	0.058265656	0	84312.49	84312.43	-6.509695e-05	631873.6	271832	-0.00033402612	271832.12	631873.06	-0.00035629453
0	0.64539087	0.64539033	-1.4865767e-10	0.0581242	0.0581242	0	84297.695	84297.63	-1.9390582e-05	631965.25	271581.75	-6.309382e-05	271581.88	631964.6	-0.00010391924
0	0.64528	0.64527947	-2.902364e-10	0.057982743	0.057982743	0	84283.22	84283.15	-3.67036e-05	632055.4	271336.4	-0.00020783849	271336.56	632054.9	-0.000118764845
0	0.6451666	0.64516604	-4.672098e-10	0.057841305	0.057841305	0	84268.41	84268.336	-6.024931e-05	632147.1	271085.94	-0.0002820665	271086.12	632146.5	-0.00032660333
0	0.64505374	0.64505327	-3.9642045e-10	0.057699878	0.057699878	0	84253.68	84253.6	-5.1246538e-05	632238.1	270837	-0.00027835512	270837.12	632237.56	-0.0002746437
0	0.64494085	0.6449403	-5.5215704e-10	0.057558425	0.057558432	0	84238.914	84238.85	-7.34072e-05	632328.8	270588.2	-0.0002894893	270588.34	632328.2	-0.00044536818
0	0.64482653	0.644826	-2.548417e-10	0.057416994	0.057416994	0	84223.99	84223.93	-3.3933517e-05	632419.94	270337.03	-4.4536817e-05	270337.16	632419.4	-0.0002764994
0	0.6447127	0.6447122	-1.6281554e-10	0.057275705	0.057275705	0	84209.125	84209.055	-2.3545706e-05	632511.06	270086.56	-0.00015402316	270086.7	632510.5	-0.00013361045
0	0.6445989	0.6445984	-7.0789364e-12	0.057134263	0.057134267	0	84194.266	84194.195	6.9252076e-07	632602.9	269835.6	8.165083e-05	269835.75	632602.25	-5.9382422e-05
0	0.6444849	0.6444844	-5.5215704e-10	0.056992825	0.056992825	0	84179.37	84179.3	-7.063712e-05	632694.1	269584.56	-0.0002672209	269584.72	632693.56	-0.00046021378
0	0.64436996	0.6443694	-3.5394682e-10	0.05685139	0.05685139	0	84164.35	84164.28	-4.5706372e-05	632785.94	269331.84	-0.00029320072	269332	632785.3	-0.00016144596
0	0.6442551	0.64425445	-4.247362e-10	0.05670995	0.05670995	0	84149.34	84149.266	-5.33241e-05	632876.9	269080.03	-0.00038598574	269080.16	632876.25	-0.00020041567
0	0.6441399	0.64413923	-3.3978895e-10	0.05656851	0.05656851	0	84134.29	84134.23	-4.7091413e-05	632968	268827.5	-0.0002523753	268827.62	632967.5	-0.00022268409
0	0.64402395	0.6440234	-2.6899957e-10	0.05642703	0.05642703	0	84119.164	84119.086	-3.601108e-05	633060.8	268572.6	-0.00026350952	268572.7	633060.2	-0.00011319774
0	0.6439085	0.643908	-1.2034192e-10	0.05628578	0.05628578	0	84104.086	84104.016	-1.5927977e-05	633152.44	268319.44	-7.422803e-05	268319.56	633151.9	-0.000111342044
0	0.6437927	0.64379215	-4.742887e-10	0.05614433	0.05614433	0	84088.95	84088.88	-5.8864265e-05	633244.3	268065.28	-0.00043423395	268065.44	633243.75	-0.00019113718
0	0.6436762	0.6436757	-1.3449979e-10	0.056002717	0.056002717	0	84073.74	84073.67	-1.6620499e-05	633336.1	267810.47	-9.6496435e-05	267810.66	633335.5	-0.000118764845
0	0.6435602	0.6435596	-2.8315747e-10	0.05586147	0.05586147	0	84058.586	84058.52	-3.7396123e-05	633427.6	267556.44	-0.00016330167	267556.6	633427	-0.00023752969
0	0.64344347	0.6434429	-3.6102576e-10	0.05572002	0.05572002	0	84043.336	84043.27	-4.5706372e-05	633519.3	267301.34	-0.00017814727	267301.53	633518.7	-0.00031175773
0	0.6433256	0.64332503	-2.8315747e-10	0.055578597	0.055578597	0	84027.95	84027.88	-3.7396123e-05	633611.2	267044.53	-0.00020783849	267044.7	633610.56	-0.00018371436
0	0.6432081	0.64320755	-3.6810469e-10	0.05543711	0.05543711	0	84012.6	84012.53	-4.9861497e-05	633704	266787.2	-0.0002672209	266787.34	633703.4	-0.00020041567
0	0.6430905	0.6430899	-3.1855213e-10	0.05529585	0.05529586	0	83997.23	83997.16	-4.2936288e-05	633796.06	266530.44	-2.9691211e-05	266530.62	633795.3	-0.00039711996
0	0.64297247	0.64297193	-4.6013088e-10	0.05515441	0.05515441	0	83981.83	83981.74	-6.232687e-05	633888.3	266273	-0.0003006235	266273.16	633887.75	-0.00031175773
0	0.6428542	0.6428537	-3.7518363e-10	0.055012796	0.055012796	0	83966.375	83966.3	-4.7783935e-05	633980.5	266015.25	-0.0002820665	266015.44	633979.8	-0.00022268409
0	0.6427345	0.64273393	-4.3889406e-10	0.054871537	0.054871537	0	83950.734	83950.67	-5.8864265e-05	634073.3	265754.78	-0.00034144893	265754.94	634072.7	-0.0002820665
0	0.64261657	0.642616	-3.893415e-10	0.054730095	0.05473009	0	83935.336	83935.266	-4.7091413e-05	634165.5	265497.56	-0.00019299287	265497.78	634164.8	-0.00031732483
0	0.64249766	0.642497	-4.8136767e-10	0.05458864	0.05458864	0	83919.8	83919.73	-6.4404434e-05	634257.75	265238.7	-0.00022639548	265238.88	634257.06	-0.00040825416
0	0.642378	0.6423774	-3.468679e-10	0.054447185	0.054447185	0	83904.164	83904.1	-4.432133e-05	634349.8	264979.16	-0.00029691213	264979.34	634349.1	-0.00016886876
0	0.6422575	0.6422569	-2.4776278e-10	0.054305937	0.054305937	0	83888.44	83888.37	-3.3240998e-05	634443.4	264716.9	-0.00021340558	264717.1	634442.8	-9.835214e-05
0	0.6421381	0.6421376	-3.6810469e-10	0.054164324	0.054164328	0	83872.85	83872.77	-4.7783935e-05	634535.9	264457.3	-7.793943e-05	264457.5	634535.3	-0.00039340855
0	0.6420171	0.6420165	-2.2652596e-10	0.054022875	0.054022875	0	83857.03	83856.95	-3.0470914e-05	634628.5	264195.22	-0.00016330167	264195.38	634627.9	-0.00018185868
0	0.6418972	0.6418966	-9.202617e-11	0.053881623	0.053881623	0	83841.375	83841.305	-1.4542937e-05	634721.44	263934.47	1.4845606e-05	263934.66	634720.75	-0.00012804335
0	0.6417763	0.6417758	-5.946307e-10	0.05374012	0.05374012	0	83825.59	83825.516	-8.033241e-05	634814.2	263672.6	-0.00043052257	263672.75	634813.56	-0.00037114014
0	0.64165485	0.64165425	-2.2652596e-10	0.05359871	0.05359871	0	83809.734	83809.65	-2.9085873e-05	634907.25	263409.44	-0.00015959026	263409.62	634906.56	-0.00012618765
0	0.64153326	0.64153266	-5.3092025e-10	0.053457264	0.053457268	0	83793.84	83793.766	-6.6481996e-05	635000.25	263146.1	-0.0002672209	263146.28	634999.7	-0.00041382125
0	0.64141166	0.641411	-5.450781e-10	0.053315807	0.05331581	0	83777.96	83777.875	-6.925208e-05	635093.2	262882.9	-0.00029691213	262883.12	635092.5	-0.00040083134
0	0.64128876	0.64128804	-3.5394682e-10	0.053174414	0.053174406	0	83761.9	83761.82	-4.432133e-05	635185.56	262618.4	-0.00016330167	262618.62	635184.9	-0.00030247922
0	0.6411664	0.6411658	-6.3710426e-10	0.05303296	0.05303296	0	83745.92	83745.84	-8.033241e-05	635278.75	262353.97	-0.00035258313	262354.2	635278.2	-0.0004676366
0	0.64104426	0.6410437	-3.3271003e-10	0.05289165	0.05289165	0	83729.98	83729.9	-4.639889e-05	635372.6	262089.27	-0.0002672209	262089.48	635371.9	-0.00019299287
0	0.64092106	0.6409204	-1.8405234e-10	0.05275019	0.05275019	0	83713.875	83713.8	-2.3545706e-05	635466.06	261823.2	-0.00015959026	261823.42	635465.44	-5.381532e-05
0	0.640798	0.6407974	-4.9552557e-10	0.052608795	0.052608795	0	83697.8	83697.72	-6.371191e-05	635559.1	261557.88	-0.00034330462	261558.06	635558.5	-0.0002894893
0	0.6406736	0.64067304	-3.893415e-10	0.052467342	0.052467342	0	83681.555	83681.48	-5.193906e-05	635653.2	261289.69	-0.0003154691	261289.89	635652.56	-0.00017814727
0	0.64054984	0.6405492	-2.6192065e-10	0.052325875	0.052325875	0	83665.4	83665.31	-3.601108e-05	635746.2	261023.28	-0.00022268409	261023.53	635745.56	-0.00012062055
0	0.640426	0.6404254	-6.583411e-10	0.052184496	0.052184496	0	83649.22	83649.13	-8.725762e-05	635839.06	260757.16	-0.00034516034	260757.38	635838.44	-0.000489905
0	0.6403011	0.6403005	-4.0349937e-10	0.052042983	0.05204299	0	83632.914	83632.82	-5.33241e-05	635933.25	260488.12	-0.00029691213	260488.33	635932.56	-0.00023010689
0	0.6401767	0.6401762	-3.8226255e-10	0.051901728	0.051901728	0	83616.664	83616.586	-5.1246538e-05	636026.1	260221.14	-0.00031175773	260221.39	636025.4	-0.0002412411
0	0.6400511	0.6400505	-1.8405234e-10	0.051760256	0.051760264	0	83600.25	83600.18	-2.4930749e-05	636120.9	259950.52	-0.00014474466	259950.77	636120.2	-0.00012618765
0	0.63992584	0.6399253	-1.4157873e-10	0.05161868	0.05161868	0	83583.88	83583.81	-1.6620499e-05	636214.44	259681.56	-0.00017814727	259681.78	636213.75	-2.9691211e-05
0	0.6397996	0.639799	-2.4068383e-10	0.05147742	0.05147742	0	83567.41	83567.32	-3.1855954e-05	636308.25	259411	-0.00020041567	259411.22	636307.56	-0.000111342044
0	0.6396735	0.6396728	-1.3449979e-10	0.05133595	0.051335942	0	83550.914	83550.836	-1.5235457e-05	636402.6	259139.95	-8.165083e-05	259140.2	636401.94	-7.422803e-05
0	0.6395479	0.6395472	4.9552557e-11	0.051194534	0.051194534	0	83534.516	83534.42	1.0387812e-05	636495.8	258870.9	1.4845606e-05	258871.16	636495.1	6.680522e-05
0	0.63942003	0.6394194	-3.0439426e-10	0.05105307	0.051053066	0	83517.83	83517.73	-4.0858726e-05	636590.2	258597.64	-0.0002857779	258597.86	636589.5	-0.00013361045
0	0.63929397	0.6392933	-6.087885e-10	0.050911795	0.050911795	0	83501.35	83501.266	-7.756233e-05	636683.94	258327.31	-0.00044165677	258327.53	636683.3	-0.00033402612
0	0.6391659	0.6391653	-1.6989447e-10	0.05077023	0.05077023	0	83484.63	83484.55	-2.1468144e-05	636778.2	258053.92	-7.422803e-05	258054.17	636777.4	-0.00014103325
0	0.63903815	0.6390375	-4.742887e-10	0.050628766	0.050628766	0	83467.95	83467.86	-5.9556787e-05	636873	257780.2	-0.00037114014	257780.45	636872.3	-0.0002523753
0	0.63891023	0.6389096	-4.672098e-10	0.050487492	0.050487492	0	83451.23	83451.16	-5.9556787e-05	636967	257507.1	-0.00030804632	257507.33	636966.3	-0.00031175773
0	0.6387821	0.63878137	-4.1765724e-10	0.05034598	0.05034598	0	83434.49	83434.41	-5.2631578e-05	637061.3	257233.3	-0.00031918052	257233.52	637060.7	-0.0002449525
0	0.6386537	0.63865304	-2.1944703e-10	0.050204623	0.050204623	0	83417.73	83417.63	-3.0470914e-05	637155.6	256959.33	-0.00019299287	256959.58	637154.94	-8.536223e-05
0	0.63852435	0.63852364	-5.026045e-10	0.050063137	0.050063137	0	83400.83	83400.74	-6.371191e-05	637250.5	256683.3	-0.00034144893	256683.53	637249.8	-0.00031361342
0	0.6383953	0.6383946	-2.6899957e-10	0.049921665	0.049921665	0	83383.98	83383.88	-3.2548476e-05	637344.75	256408.44	-0.000118764845	256408.66	637344.1	-0.00023752969
0	0.6382659	0.6382652	-3.0439426e-10	0.04978032	0.04978032	0	83367.07	83366.98	-4.0858726e-05	637439.06	256132.8	-0.0002820665	256133.08	637438.44	-0.00010763064
0	0.63813555	0.6381349	-4.5305193e-10	0.049638834	0.049638834	0	83350.05	83349.96	-5.5401662e-05	637533.6	255855.95	-0.00035258313	255856.19	637532.94	-0.00021526129
0	0.638006	0.63800526	-3.114732e-10	0.049497522	0.049497522	0	83333.12	83333.02	-3.808864e-05	637628.1	255579.97	-4.4536817e-05	255580.25	637627.44	-0.00035629453
0	0.63787425	0.63787365	-2.4068383e-10	0.049356047	0.049356047	0	83315.92	83315.83	-2.8393351e-05	637724	255299.83	-0.00023010689	255300.08	637723.25	-7.608373e-05
0	0.637744	0.6377434	-3.114732e-10	0.04921469	0.049214687	0	83298.92	83298.83	-4.1551248e-05	637818.3	255023.12	-0.00039340855	255023.4	637817.6	-2.4124109e-05
0	0.6376128	0.63761204	-3.6810469e-10	0.04907322	0.04907322	0	83281.77	83281.68	-4.5706372e-05	637912.3	254745.31	-0.0002746437	254745.56	637911.6	-0.00019299287
0	0.6374815	0.63748074	-4.8136767e-10	0.048931733	0.048931733	0	83264.62	83264.52	-6.232687e-05	638008	254465.81	-0.0002709323	254466.08	638007.2	-0.00035629453
0	0.6373499	0.6373492	-2.6192065e-10	0.048790403	0.048790403	0	83247.43	83247.34	-3.3240998e-05	638102.5	254187.05	-0.00014845606	254187.33	638101.8	-0.00019670428
0	0.6372169	0.63721627	-3.0439426e-10	0.04864886	0.04864886	0	83230.06	83229.97	-4.0166204e-05	638198.5	253904.88	-0.00034516034	253905.12	638197.9	-0.00010391924
0	0.6370843	0.63708365	-7.2205153e-10	0.0485076	0.0485076	0	83212.734	83212.65	-9.349031e-05	638292.25	253625.47	-0.00041938835	253625.77	638291.56	-0.0005344418
0	0.6369513	0.63695073	-6.3002537e-10	0.0483661	0.048366107	0	83195.375	83195.29	-8.171745e-05	638388.8	253342.88	-0.00033773753	253343.12	638388.06	-0.00045093527
0	0.63681877	0.63681805	-3.7518363e-10	0.04822456	0.04822456	0	83178.055	83177.97	-4.9168975e-05	638483.7	253062.31	-0.00017814727	253062.55	638483	-0.0003043349
0	0.636685	0.6366843	-1.4865767e-10	0.048083298	0.048083298	0	83160.586	83160.49	-2.0775624e-05	638579.2	252779.66	-0.000118764845	252779.94	638578.4	-5.195962e-05
0	0.63655066	0.63655	-1.2034192e-10	0.047941796	0.047941796	0	83143.055	83142.945	-1.5235457e-05	638675	252495.72	-0.00010763064	252496.02	638674.25	-2.2268408e-05
0	0.6364165	0.63641584	-3.0439426e-10	0.04780043	0.047800437	0	83125.52	83125.43	-3.8781163e-05	638770	252212.97	-0.00019299287	252213.22	638769.25	-0.00022268409
0	0.6362823	0.6362816	-3.6810469e-10	0.047658943	0.04765895	0	83107.984	83107.9	-4.7783935e-05	638865.5	251929.42	-0.00030804632	251929.69	638864.8	-0.00017443587
0	0.63614804	0.6361473	-4.0349937e-10	0.04751767	0.04751767	0	83090.445	83090.35	-5.2631578e-05	638960.5	251646.39	-0.00042124407	251646.69	638959.8	-9.6496435e-05
0	0.63601243	0.6360116	-5.7339383e-10	0.04737618	0.04737618	0	83072.734	83072.63	-7.34072e-05	639055.8	251361.16	-0.00035629453	251361.47	639055.1	-0.00037856295
0	0.63587725	0.63587654	-8.0699875e-10	0.04723464	0.04723464	0	83055.08	83054.984	-0.00010387812	639151.9	251076.02	-0.0005789786	251076.31	639151.06	-0.00044536818
0	0.6357401	0.63573927	-3.6102576e-10	0.047093365	0.047093365	0	83037.16	83037.06	-4.5706372e-05	639248.5	250787.3	-0.0002672209	250787.61	639247.7	-0.00019299287
0	0.63560456	0.63560385	-4.45973e-10	0.046951815	0.046951815	0	83019.47	83019.375	-5.5401662e-05	639343.9	250502.27	-0.00031175773	250502.53	639343.2	-0.0002820665
0	0.635468	0.63546723	-4.3889406e-10	0.04681052	0.04681052	0	83001.63	83001.53	-5.8171747e-05	639439.75	250215.22	-0.00032660333	250215.52	639439	-0.0002764994
0	0.63533103	0.6353302	-5.5215704e-10	0.046669014	0.046669014	0	82983.734	82983.64	-7.202216e-05	639535.7	249927.47	-0.00039340855	249927.75	639534.94	-0.00036371735
0	0.6351942	0.6351934	-3.468679e-10	0.04652775	0.04652775	0	82965.87	82965.766	-4.432133e-05	639631.25	249640.31	-0.00037114014	249640.62	639630.5	-7.422803e-05
0	0.635056	0.63505536	-8.494724e-11	0.046386227	0.04638622	0	82947.82	82947.73	-1.1080332e-05	639727.75	249350.45	-9.2785034e-05	249350.78	639727	-3.7114016e-05
0	0.6349183	0.6349175	-6.583411e-10	0.046244718	0.046244718	0	82929.82	82929.73	-8.3102495e-05	639822.56	249062.81	-0.00039340855	249063.12	639821.7	-0.00046021378
0	0.63477886	0.634778	-1.2742085e-10	0.04610344	0.04610344	0	82911.62	82911.516	-1.6620499e-05	639920.4	248769.69	-0.00016701306	248769.98	639919.7	0
0	0.6346388	0.6346381	-2.123681e-10	0.045961883	0.045961883	0	82893.32	82893.22	-2.7700831e-05	640017.6	248476.4	-0.00015587886	248476.73	640016.8	-0.00010391924
0	0.6345019	0.6345011	-3.2563108e-10	0.045820598	0.045820598	0	82875.44	82875.336	-4.432133e-05	640112.8	248189.47	-0.00015959026	248189.77	640112	-0.0002597981
0	0.63436323	0.63436246	-3.3978895e-10	0.045679092	0.045679096	0	82857.33	82857.23	-4.501385e-05	640208.3	247899.94	-0.00016144596	247900.27	640207.6	-0.0002820665
0	0.6342229	0.63422227	-6.1586747e-10	0.045537587	0.045537587	0	82839.01	82838.9	-7.8254845e-05	640305	247606.78	-0.0005789786	247607.12	640304.25	-0.0002597981
0	0.6340837	0.634083	-3.7518363e-10	0.045396306	0.045396306	0	82820.82	82820.73	-4.9861497e-05	640400.8	247316.1	-0.00022639548	247316.44	640400.06	-0.00034144893
0	0.63394237	0.6339416	-1.2034192e-10	0.0452548	0.0452548	0	82802.35	82802.25	-1.8698061e-05	640498.4	247020.62	-0.00022268409	247020.98	640497.56	4.4536817e-05
0	0.6338017	0.6338009	-1.8405234e-10	0.04511347	0.04511347	0	82783.99	82783.89	-2.9085873e-05	640594.56	246727.62	-0.00018557007	246727.94	640593.75	-9.835214e-05
0	0.6336592	0.63365835	-3.893415e-10	0.044971954	0.044971954	0	82765.36	82765.26	-4.9861497e-05	640692.4	246430.11	-0.000254231	246430.44	640691.56	-0.00023010689