# t (s)	mx ()	my ()	mz ()	B_extx (T)	B_exty (T)	B_extz (T)	m_fullx (A/m)	m_fully (A/m)	m_fullz (A/m)	m_full.region1x (A/m)	m_full.region1y (A/m)	m_full.region1z (A/m)	m_full.region2x (A/m)	m_full.region2y (A/m)	m_full.region2z (A/m)
0	0.6424794	0.6424787	-2.832217e-10	0.07071087	0.07071087	0	94174.625	94174.54	-4.125e-05	647065.6	252405.1	-0.00014028176	252405.56	647065.2	-0.0002589243
0	0.64237565	0.6423745	-3.529597e-10	0.07056911	0.07056911	0	94159.43	94159.26	-5.1875e-05	647152.06	252173.06	-0.0002596705	252173.9	647151.3	-0.00020893027
0	0.6422683	0.64226717	-2.9318425e-10	0.07042788	0.07042789	0	94143.695	94143.516	-4.4375e-05	647243.6	251931.23	-0.00019102197	251932.12	647242.75	-0.00022460005
0	0.6421604	0.6421592	-4.639712e-10	0.07028652	0.07028653	0	94127.875	94127.695	-7.21875e-05	647335.3	251688.31	-0.00033428843	251689.22	647334.5	-0.00035219674
0	0.64205194	0.64205074	-3.7573128e-10	0.070144884	0.070144884	0	94111.97	94111.805	-5.71875e-05	647427.06	251444.81	-0.0002626552	251445.72	647426.2	-0.0003253343
0	0.6419436	0.64194244	-6.831478e-11	0.07000352	0.07000352	0	94096.09	94095.914	-6.25e-06	647518.94	251201.19	2.3877747e-05	251202.1	647518.2	-0.00011938873
0	0.64183486	0.6418336	-4.696641e-10	0.06986229	0.06986229	0	94080.16	94079.98	-6.5625e-05	647610.7	250957.17	-0.00032234957	250958.1	647609.9	-0.00033428843
0	0.64172626	0.641725	-1.5086181e-10	0.069720544	0.069720544	0	94064.23	94064.055	-2.625e-05	647702.1	250713.7	-0.00011938873	250714.64	647701.3	-0.000104465136
0	0.64161724	0.6416159	-5.0666793e-10	0.06957919	0.069579184	0	94048.24	94048.07	-7.375e-05	647794.1	250469.03	-0.00034622732	250469.95	647793.4	-0.00042383
0	0.6415078	0.64150655	-4.639712e-10	0.069437966	0.069437966	0	94032.21	94032.04	-6.5e-05	647886.2	250223.84	-0.0002745941	250224.77	647885.3	-0.00041189112
0	0.64139867	0.6413975	-3.0457006e-10	0.069296576	0.069296576	0	94016.23	94016.03	-4.4375e-05	647977.44	249979.75	-0.00029847183	249980.67	647976.6	-0.00012759671
0	0.64128816	0.6412869	-2.4479463e-10	0.06915496	0.06915496	0	94000.016	93999.83	-3.75e-05	648070	249732.47	-0.00020296084	249733.42	648069.2	-0.00015222063
0	0.6411785	0.64117724	-2.8037525e-10	0.069013596	0.069013596	0	93983.945	93983.766	-3.9375e-05	648161.8	249487.16	-0.000211915	249488.1	648161.06	-0.00020296084
0	0.64106756	0.6410664	-1.2524376e-10	0.068872236	0.068872236	0	93967.69	93967.5	-1.8125e-05	648254.3	249239.42	-8.357211e-05	249240.33	648253.44	-4.4770775e-05
0	0.6409576	0.64095634	-2.1348369e-10	0.06873064	0.06873064	0	93951.56	93951.375	-3.0625e-05	648346.06	248993.6	-0.00016714422	248994.55	648345.3	-0.00013580469
0	0.6408461	0.64084476	-2.5333396e-10	0.06858927	0.06858927	0	93935.2	93935.02	-3.3125e-05	648438.9	248744.64	-0.00028653294	248745.56	648438.06	-5.9694365e-05
0	0.64073515	0.6407339	-1.622476e-10	0.06844801	0.068448015	0	93918.97	93918.78	-2.65625e-05	648531	248497.27	-9.5510986e-05	248498.25	648530.2	-0.00013207378
0	0.6406238	0.64062256	-1.7932629e-10	0.06830665	0.06830665	0	93902.63	93902.445	-2.65625e-05	648623.56	248248.8	-7.760267e-05	248249.75	648622.75	-0.00016714422
0	0.64051026	0.64050907	-3.244952e-10	0.06816504	0.068165034	0	93886	93885.82	-4.75e-05	648717.06	247996.47	-0.00023280803	247997.42	648716.2	-0.00021489972
0	0.64039975	0.64039856	-5.4936466e-10	0.068023674	0.068023674	0	93869.8	93869.61	-8.0625e-05	648808.94	247749.7	-0.0004894938	247750.69	648808.25	-0.00032608048
0	0.6402881	0.64028686	-5.1805377e-10	0.06788232	0.06788232	0	93853.43	93853.24	-7.3125e-05	648900.94	247501.44	-0.00033428843	247502.44	648900.1	-0.0004059217
0	0.64017546	0.64017427	-1.9355854e-10	0.067740716	0.067740716	0	93836.92	93836.74	-2.65625e-05	648993.7	247251.06	-0.00010744986	247252.02	648992.94	-0.00018952962
0	0.6400628	0.6400616	-1.5370825e-10	0.06759932	0.06759932	0	93820.41	93820.21	-2.4375e-05	649086.5	247000.58	-0.00016117479	247001.53	649085.6	-5.6709647e-05
0	0.63994974	0.6399485	-3.4442035e-10	0.06745809	0.06745809	0	93803.83	93803.66	-5.0625e-05	649179.44	246749.3	-0.00019102197	246750.28	649178.56	-0.0002925024
0	0.6398347	0.6398335	-4.0988868e-10	0.067316726	0.06731672	0	93786.984	93786.8	-6.40625e-05	649273.3	246494.38	-0.00026563992	246495.36	649272.5	-0.00031638014
0	0.6397223	0.639721	-5.6928982e-11	0.067174986	0.067174986	0	93770.49	93770.305	-6.875e-06	649365.7	246244.44	-8.655683e-05	246245.42	649364.94	1.1938873e-05
0	0.63960946	0.63960814	-1.3378311e-10	0.06703377	0.06703377	0	93753.945	93753.766	-1.8125e-05	649458.2	245994.06	-0.00012535817	245995.02	649457.4	-5.372493e-05
0	0.6394952	0.63949394	-4.8389637e-10	0.066892385	0.066892385	0	93737.2	93737.01	-7.21875e-05	649551.56	245740.73	-0.00035219674	245741.7	649550.75	-0.00036338944
0	0.6393814	0.63938016	-2.6471977e-10	0.066750765	0.066750765	0	93720.53	93720.34	-3.8125e-05	649644.2	245488.84	-0.0002447469	245489.81	649643.4	-0.0001790831
0	0.6392658	0.63926446	-2.2202304e-10	0.0666094	0.0666094	0	93703.58	93703.39	-3e-05	649738	245233.11	-0.00016714422	245234.1	649737.2	-0.00013953558
0	0.6391518	0.63915056	-1.8786564e-10	0.06646816	0.066468164	0	93686.87	93686.67	-2.625e-05	649831	244980.56	-6.864852e-05	244981.56	649830.1	-0.00018505253
0	0.6390366	0.6390353	-2.6329655e-10	0.06632643	0.06632643	0	93669.98	93669.8	-3.75e-05	649924.3	244725.92	-0.00025071634	244726.9	649923.5	-0.00015072827
0	0.6389214	0.63892	-3.7430806e-10	0.06618507	0.06618507	0	93653.086	93652.9	-5.75e-05	650017.6	244471.17	-0.0002626552	244472.17	650016.8	-0.0003022027
0	0.63880515	0.6388039	-2.4764107e-10	0.06604384	0.06604384	0	93636.055	93635.87	-3.1875e-05	650111.3	244214.92	-0.00011043457	244215.94	650110.5	-0.00019549904
0	0.638689	0.6386877	-4.639712e-10	0.065902434	0.065902434	0	93619.04	93618.84	-6.8125e-05	650204.94	243958.61	-0.00028056352	243959.61	650204.1	-0.0003827901
0	0.63857365	0.6385724	-4.1558157e-10	0.06576085	0.06576085	0	93602.13	93601.94	-5.875e-05	650298.06	243704.11	-0.00028653294	243705.12	650297.2	-0.0003290652
0	0.638456	0.6384546	-2.1490691e-10	0.06561948	0.065619476	0	93584.875	93584.69	-3.71875e-05	650393.2	243444.22	-0.0001313276	243445.22	650392.3	-0.00022086914
0	0.6383406	0.6383392	-2.3340882e-10	0.06547824	0.06547824	0	93567.96	93567.766	-3.4375e-05	650485.5	243190.27	-0.00011341929	243191.3	650484.6	-0.00021340736
0	0.6382232	0.63822186	-5.806756e-10	0.06533652	0.065336525	0	93550.76	93550.56	-8.6875e-05	650579.44	242932.06	-0.00046561606	242933.08	650578.6	-0.0004089064
0	0.63810587	0.63810456	-2.3625527e-10	0.06519514	0.06519514	0	93533.56	93533.37	-3.59375e-05	650673.44	242673.7	-0.00015520534	242674.72	650672.75	-0.00018505253
0	0.6379889	0.63798755	-1.9071209e-10	0.065053925	0.065053925	0	93516.414	93516.22	-2.4375e-05	650767	242416.38	-0.0002447469	242417.38	650766.2	-5.596347e-05
0	0.63786924	0.6378679	-1.622476e-10	0.06491251	0.06491251	0	93498.87	93498.67	-2.53125e-05	650861.8	242154.1	-3.5816618e-05	242155.1	650860.94	-0.00017833691
0	0.6377524	0.6377511	-3.0172362e-10	0.06477093	0.06477093	0	93481.76	93481.555	-4.375e-05	650955.6	241896.77	-0.00017012894	241897.8	650954.8	-0.00023877746
0	0.6376342	0.63763285	-2.8464492e-10	0.06462956	0.06462956	0	93464.42	93464.23	-4.1875e-05	651049.44	241637.33	-0.00022086914	241638.34	651048.6	-0.00014550501
0	0.63751566	0.6375143	-2.0636756e-10	0.06448818	0.06448818	0	93447.03	93446.85	-3.21875e-05	651143.5	241377.31	-0.00011938873	241378.36	651142.7	-0.00018654489
0	0.6373957	0.6373943	-2.5048752e-10	0.0643466	0.0643466	0	93429.45	93429.25	-3.78125e-05	651238.94	241113.88	-0.00028056352	241114.9	651238.25	-8.357211e-05
0	0.6372774	0.63727605	-1.4801535e-10	0.06420524	0.06420522	0	93412.125	93411.92	-2e-05	651332.1	240855.22	-1.1938873e-05	240856.25	651331.3	-0.00016117479
0	0.6371572	0.63715583	-1.4374568e-10	0.064063966	0.064063966	0	93394.49	93394.29	-2.3125e-05	651427.4	240591.56	-0.00016714422	240592.61	651426.56	-2.0146848e-05
0	0.6370386	0.6370372	-2.9887715e-10	0.063922584	0.06392258	0	93377.11	93376.914	-4.40625e-05	651520.4	240332.53	-0.00012535817	240333.61	651519.5	-0.00028727914
0	0.6369179	0.6369165	-7.116123e-11	0.06378101	0.06378101	0	93359.42	93359.23	-1.25e-05	651615.3	240068.64	0	240069.7	651614.4	-6.640998e-05
0	0.63679796	0.63679653	-4.6112475e-10	0.06363963	0.06363963	0	93341.85	93341.63	-6.71875e-05	651709.9	239806.16	-0.00032234957	239807.23	651709	-0.00034398877
0	0.63667727	0.63667595	-3.35881e-10	0.06349824	0.06349825	0	93324.15	93323.95	-4.34375e-05	651804.44	239542.6	-0.00021788443	239543.67	651803.56	-0.00023877746
0	0.63655627	0.6365549	-2.7752878e-10	0.06335668	0.06335668	0	93306.42	93306.21	-3.8125e-05	651899.2	239278.53	-0.00021489972	239279.58	651898.4	-0.00016789041
0	0.6364337	0.6364323	1.4232246e-10	0.06321527	0.06321527	0	93288.445	93288.25	2.25e-05	651994.4	239011.75	0.00014326647	239012.84	651993.5	6.417144e-05
0	0.63631314	0.6363118	-2.732591e-10	0.06307404	0.06307404	0	93270.8	93270.586	-4.125e-05	652088.9	238748.53	-0.0002925024	238749.61	652088	-0.00011938873
0	0.63619155	0.63619006	-3.188023e-10	0.062932655	0.06293266	0	93252.94	93252.75	-4.5625e-05	652183.6	238483.31	-0.00014923592	238484.42	652182.8	-0.0002484778
0	0.6360704	0.63606894	-1.3947601e-10	0.062790945	0.062790945	0	93235.19	93234.99	-2.1875e-05	652278	238219.47	-9.5510986e-05	238220.55	652277.1	-0.00013207378
0	0.635947	0.6359457	-1.7221018e-10	0.062649705	0.062649705	0	93217.125	93216.92	-2.46875e-05	652373.4	237951.48	-0.00011938873	237952.56	652372.44	-0.00011341929
0	0.6358245	0.63582313	-2.9887717e-11	0.06250833	0.06250833	0	93199.16	93198.95	-5e-06	652468.5	237684.75	3.28319e-05	237685.8	652467.56	-7.9095036e-05
0	0.6357019	0.6357005	-1.0816507e-10	0.06236674	0.06236674	0	93181.19	93180.98	-1.53125e-05	652563.56	237417.97	-1.1938873e-05	237419.06	652562.7	-7.1633236e-05
0	0.6355776	0.63557625	-3.3872743e-10	0.062225346	0.062225346	0	93162.97	93162.75	-4.84375e-05	652659.2	237148.45	-0.00028653294	237149.55	652658.25	-0.00020296084
0	0.6354553	0.6354539	-1.9640499e-10	0.06208412	0.06208412	0	93145.04	93144.83	-2.75e-05	652754	236882.3	-0.00014923592	236883.4	652753.1	-0.00010968839
0	0.63533175	0.6353304	-1.7078695e-10	0.061942413	0.061942413	0	93126.93	93126.72	-2.375e-05	652849.1	236614.3	-0.00014923592	236615.39	652848.2	-9.103391e-05
0	0.6352071	0.63520575	-2.903378e-10	0.061801024	0.06180102	0	93108.67	93108.46	-4.34375e-05	652944.6	236344.33	-0.0002298233	236345.44	652943.75	-0.00018132164
0	0.635083	0.63508165	-4.411996e-10	0.06165979	0.06165979	0	93090.47	93090.266	-6.71875e-05	653040.06	236075.03	-0.0003939828	236076.16	653039.1	-0.00022907712
0	0.63495815	0.6349567	-3.1737907e-10	0.061518367	0.061518367	0	93072.16	93071.95	-4.6875e-05	653135.3	235804.95	-0.0001790831	235806.08	653134.4	-0.0002626552
0	0.6348328	0.6348313	-2.903378e-10	0.06137681	0.061376818	0	93053.79	93053.586	-4.4375e-05	653230.94	235533.89	-0.00025071634	235535.02	653230.06	-0.00017311366
0	0.6347063	0.6347049	-7.970057e-11	0.061235435	0.061235435	0	93035.25	93035.04	-1.125e-05	653328.25	235259.5	-0.00012834289	235260.62	653327.4	2.6116284e-05
0	0.6345812	0.6345798	-5.023983e-10	0.061094042	0.061094042	0	93016.914	93016.695	-7.375e-05	653423.7	234988.98	-0.0003581662	234990.11	653422.7	-0.00033876553
0	0.63445646	0.634455	-1.3947601e-10	0.060952503	0.06095251	0	92998.63	92998.42	-1.90625e-05	653518.1	234719.88	-5.372493e-05	234721	653517.1	-0.00015296681
0	0.63432854	0.6343272	-9.677927e-11	0.060811102	0.060811102	0	92979.9	92979.68	-1.125e-05	653615.56	234443.48	-4.4770775e-05	234444.61	653614.6	-7.760267e-05
0	0.634204	0.6342025	-3.4442035e-10	0.06066984	0.06066984	0	92961.62	92961.41	-5.390625e-05	653709.4	234175.03	-0.00038204395	234176.19	653708.5	-0.00017460602
0	0.63407636	0.63407487	-5.280163e-10	0.060528446	0.060528446	0	92942.91	92942.695	-7.6875e-05	653805.6	233900.08	-0.00034622732	233901.2	653804.75	-0.00038204395
0	0.63395	0.63394856	-2.3483204e-10	0.060386896	0.0603869	0	92924.38	92924.18	-3.5e-05	653901.44	233627.44	-0.00015819007	233628.56	653900.56	-0.00020146849
0	0.6338224	0.6338209	-1.0247217e-10	0.060245506	0.060245506	0	92905.69	92905.46	-1.625e-05	653997.8	233352.31	-9.5510986e-05	233353.47	653996.94	-1.2685053e-05
0	0.6336949	0.63369346	-2.3340882e-10	0.060104124	0.060104124	0	92887	92886.77	-3.5625e-05	654093.75	233077.95	-0.0002596705	233079.1	654092.8	-8.357211e-05
0	0.6335673	0.6335658	-4.0704223e-10	0.059962578	0.059962578	0	92868.28	92868.08	-5.625e-05	654189.5	232803.56	-0.00029847183	232804.72	654188.5	-0.0002589243
0	0.6334378	0.6334364	-3.1595584e-10	0.059821147	0.059821147	0	92849.31	92849.11	-4.53125e-05	654286.4	232525.48	-0.0002626552	232526.66	654285.44	-0.00014923592
0	0.6333098	0.63330835	-1.5228503e-10	0.059679918	0.05967991	0	92830.55	92830.33	-2.28125e-05	654382.44	232250.05	-0.000116404015	232251.22	654381.56	-0.00014326647
0	0.6331809	0.6331794	-1.0104895e-10	0.05953851	0.05953851	0	92811.67	92811.445	-1.75e-05	654478.8	231973.39	-0.00011341929	231974.56	654477.8	-2.9101004e-05
0	0.63305163	0.63305014	-4.1273512e-10	0.059396826	0.059396826	0	92792.71	92792.49	-6.125e-05	654575.25	231695.84	-0.0003581662	231697.02	654574.4	-0.00023206184
0	0.63292235	0.63292086	-8.823992e-11	0.059255596	0.059255596	0	92773.76	92773.54	-1.1875e-05	654671.44	231418.58	-7.1633236e-05	231419.77	654670.56	-7.1633236e-05
0	0.6327918	0.6327903	-3.188023e-10	0.059114188	0.059114188	0	92754.625	92754.4	-4.78125e-05	654768.3	231139	-0.00028653294	231140.16	654767.44	-0.00018430635
0	0.632662	0.63266045	-3.8142417e-10	0.058972627	0.058972627	0	92735.6	92735.38	-5.53125e-05	654864.9	230860.75	-0.00025071634	230861.95	654863.94	-0.0002925024
0	0.63253146	0.63253	-1.679405e-10	0.058831234	0.058831234	0	92716.46	92716.234	-2.78125e-05	654961.56	230581.36	-0.00011043457	230582.53	654960.6	-9.5510986e-05
0	0.63240105	0.6323995	-1.3093666e-10	0.05868999	0.05868999	0	92697.34	92697.13	-2.03125e-05	655057.7	230302.48	-0.00014326647	230303.72	655056.8	-8.8049186e-05
0	0.6322691	0.6322676	-2.1063723e-10	0.0585483	0.0585483	0	92678	92677.79	-2.90625e-05	655155.06	230020.5	-0.00019102197	230021.7	655154.06	-0.00011043457
0	0.6321384	0.63213694	-3.529597e-10	0.058406904	0.058406904	0	92658.85	92658.625	-5.40625e-05	655251.4	229741.22	-0.0002626552	229742.42	655250.5	-0.0002626552
0	0.6320055	0.632004	-3.3161132e-10	0.058265664	0.058265664	0	92639.35	92639.14	-4.75e-05	655348.9	229457.61	-0.0003760745	229458.81	655348	-0.00013281996
0	0.6318743	0.6318729	-3.244952e-10	0.05812423	0.05812423	0	92620.15	92619.92	-4.78125e-05	655445.44	229177.44	-0.00029847183	229178.64	655444.6	-0.00019997612
0	0.631742	0.6317405	-3.6719194e-10	0.057982713	0.057982713	0	92600.75	92600.52	-5.46875e-05	655542.3	228895.3	-0.00023877746	228896.5	655541.5	-0.00028653294
0	0.6316083	0.63160676	-1.1670441e-10	0.057841305	0.057841305	0	92581.14	92580.92	-1.625e-05	655639.94	228610.55	0	228611.77	655639	-0.0001790831
0	0.63147616	0.6314746	-2.6756622e-10	0.057699904	0.057699904	0	92561.77	92561.555	-3.875e-05	655736.56	228328.8	-0.00023877746	228330	655735.7	-0.00016714422
0	0.6313426	0.63134104	-2.5191074e-10	0.057558388	0.057558388	0	92542.19	92541.96	-3.65625e-05	655834	228044.31	-0.00025071634	228045.53	655833	-0.00015520534
0	0.63120914	0.6312076	-2.561804e-10	0.057416987	0.057416987	0	92522.64	92522.414	-3.8125e-05	655931.06	227760.56	-0.00023877746	227761.81	655930.1	-0.00011565783
0	0.6310741	0.6310725	-2.960307e-10	0.05727571	0.05727571	0	92502.836	92502.61	-4.375e-05	656028.9	227473.61	-0.00023280803	227474.86	656027.9	-0.00019400669
0	0.6309401	0.6309385	-9.1086375e-11	0.057134308	0.0571343	0	92483.195	92482.96	-1.5e-05	656126.06	227188.7	-5.9694365e-05	227189.95	656125.2	-8.954155e-05
0	0.6308059	0.63080436	-9.535604e-11	0.05699279	0.05699279	0	92463.53	92463.3	-1.25e-05	656223.3	226903.66	-0.00010148042	226904.9	656222.44	-5.2232567e-06
0	0.6306704	0.6306688	-2.2771594e-11	0.056851387	0.05685139	0	92443.68	92443.445	-6.875e-06	656320.75	226616.53	-0.00011938873	226617.78	656319.8	4.7755493e-05
0	0.6305351	0.6305335	8.539347e-12	0.05670998	0.05670998	0	92423.836	92423.6	-9.375e-07	656418.5	226329.4	-1.1938873e-05	226330.66	656417.5	4.999403e-05
0	0.63039947	0.63039786	-4.981286e-10	0.05656847	0.05656847	0	92403.945	92403.72	-7.15625e-05	656516.3	226041.6	-0.0003133954	226042.86	656515.4	-0.0003581662
0	0.6302636	0.630262	-3.0172362e-10	0.05642703	0.05642703	0	92384.03	92383.805	-4.125e-05	656613.8	225753.88	-0.00020296084	225755.16	656612.94	-0.00019102197
0	0.6301272	0.6301256	-1.9213532e-10	0.056285787	0.056285787	0	92364.04	92363.805	-2.875e-05	656711.6	225465.1	-0.00025071634	225466.34	656710.75	-2.3877747e-05
0	0.62999076	0.62998915	-2.0779078e-10	0.05614437	0.056144364	0	92344.05	92343.805	-2.40625e-05	656809.25	225176.6	-9.84957e-05	225177.84	656808.3	-0.00015520534
0	0.62985325	0.62985164	-3.871171e-10	0.056002706	0.0560027	0	92323.89	92323.66	-5.71875e-05	656907.3	224886	-0.00037010506	224887.27	656906.4	-0.00020743792
0	0.6297163	0.62971467	-2.1063723e-10	0.05586147	0.055861466	0	92303.81	92303.58	-2.71875e-05	657005.1	224596.36	-0.00014326647	224597.62	657004.2	-0.00013729704
0	0.6295777	0.6295761	-4.8958926e-10	0.05572005	0.05572005	0	92283.51	92283.266	-6.9375e-05	657103.44	224304.06	-0.00037010506	224305.34	657102.44	-0.000328319
0	0.62944067	0.62943906	5.6928982e-11	0.05557856	0.05557856	0	92263.414	92263.18	9.375e-06	657200.94	224014.72	7.1633236e-05	224016.02	657200	1.5669772e-05
0	0.629302	0.62930036	-2.8179847e-10	0.0554371	0.055437114	0	92243.086	92242.85	-3.59375e-05	657299.06	223722.48	-0.00013729704	223723.78	657298	-0.00025071634
0	0.6291631	0.6291614	-1.3378311e-10	0.05529586	0.05529586	0	92222.72	92222.484	-1.65625e-05	657397.25	223429.77	-3.5816618e-05	223431.05	657396.25	-0.000121627265
0	0.629024	0.6290225	3.415739e-11	0.055154454	0.055154454	0	92202.35	92202.11	2.8125e-06	657495.44	223136.98	5.9694365e-05	223138.28	657494.5	-1.1938873e-05
0	0.6288845	0.62888294	-2.3056237e-10	0.05501279	0.05501279	0	92181.89	92181.66	-3.03125e-05	657594	222843.06	-0.00015819007	222844.36	657593.06	-0.00013953558
0	0.62874514	0.62874347	-3.8427064e-10	0.054871544	0.054871544	0	92161.45	92161.22	-5.46875e-05	657692.2	222549.61	-0.00019102197	222550.89	657691.25	-0.0003581662
0	0.628605	0.62860334	-2.5048752e-10	0.05473012	0.05473012	0	92140.92	92140.69	-3.75e-05	657790.5	222255.14	-0.00021489972	222256.44	657789.56	-0.00014326647
0	0.628465	0.6284634	-2.8464492e-12	0.054588605	0.054588605	0	92120.4	92120.164	-6.25e-07	657888.6	221961.1	5.372493e-05	221962.42	657887.56	-2.3877747e-05
0	0.62832355	0.6283219	-1.7932629e-10	0.05444718	0.05444719	0	92099.664	92099.42	-2.625e-05	657987.5	221664.17	-0.00014923592	221665.45	657986.5	-0.00010744986
0	0.62818253	0.62818086	-5.6928984e-12	0.05430595	0.05430595	0	92078.984	92078.76	9.375e-07	658086.1	221368.06	4.7755493e-05	221369.36	658085.1	-3.432426e-05
0	0.62803954	0.6280379	-3.244952e-10	0.054164287	0.054164287	0	92058.04	92057.805	-4.96875e-05	658186.2	221067.83	-0.00014326647	221069.16	658185.25	-0.00033428843
0	0.6278996	0.6278979	-2.732591e-10	0.05402286	0.05402286	0	92037.516	92037.28	-4e-05	658283	220775.16	-0.00025668577	220776.5	658282	-0.00014550501
0	0.62775666	0.627755	-7.4007675e-11	0.053881623	0.053881623	0	92016.58	92016.336	-9.375e-06	658382.1	220475.86	-0.0001313276	220477.2	658381.1	1.1938873e-05
0	0.6276147	0.627613	-2.490643e-10	0.053740162	0.053740162	0	91995.75	91995.51	-3.53125e-05	658480.7	220178.45	-0.00019997612	220179.78	658479.75	-0.00011938873
0	0.6274713	0.6274696	1.5940115e-10	0.053598683	0.053598683	0	91974.76	91974.49	2.09375e-05	658579.94	219878.58	3.5816618e-05	219879.92	658578.94	0.00018430635
0	0.6273281	0.6273264	-3.7857772e-10	0.053457264	0.053457264	0	91953.76	91953.51	-5.53125e-05	658678.7	219579.34	-0.00028354823	219580.72	658677.7	-0.00026116284
0	0.6271846	0.62718296	-3.8427064e-10	0.053315833	0.05331584	0	91932.734	91932.484	-5.46875e-05	658777.5	219279.62	-0.00037010506	219281	658776.5	-0.00019773758
0	0.62704074	0.6270392	-1.4232246e-10	0.053174376	0.053174376	0	91911.64	91911.39	-1.90625e-05	658876.56	218979.22	-0.00013431231	218980.56	658875.56	-9.327244e-05
0	0.62689537	0.6268937	-1.4943857e-10	0.053032946	0.053032946	0	91890.32	91890.086	-2.0625e-05	658976.25	218675.9	-0.00015520534	218677.28	658975.3	-5.074021e-05
0	0.62675154	0.6267499	-1.850192e-10	0.05289166	0.052891657	0	91869.24	91869	-3.09375e-05	659075.1	218375.75	-0.00016117479	218377.14	659074.06	-0.00015520534
0	0.6266067	0.626605	-2.6756622e-10	0.052750226	0.052750226	0	91848.016	91847.766	-3.59375e-05	659174	218074.05	-0.00011938873	218075.45	659173	-0.00023430039
0	0.62646097	0.62645936	-1.2239731e-10	0.05260877	0.052608766	0	91826.664	91826.414	-1.5625e-05	659273.44	217770.6	-4.7755493e-05	217771.97	659272.44	-0.000112673115
0	0.6263158	0.62631404	-2.3910174e-10	0.052467342	0.052467342	0	91805.37	91805.125	-3.625e-05	659372.3	217468.36	-0.00023280803	217469.78	659371.3	-0.00011938873
0	0.62616915	0.6261675	-6.831478e-11	0.052325904	0.052325904	0	91783.875	91783.64	-9.6875e-06	659471.94	217163.48	-8.058739e-05	217164.88	659470.94	-1.716213e-05
0	0.62602276	0.626021	-4.924357e-10	0.05218446	0.05218446	0	91762.42	91762.16	-7.0625e-05	659571.4	216859.1	-0.00039995223	216860.48	659570.4	-0.00029399476
0	0.6258758	0.625874	-2.7895203e-10	0.052042987	0.052042987	0	91740.87	91740.61	-4.125e-05	659670.94	216553.75	-0.0002925024	216555.17	659669.9	-0.00012311962
0	0.62572855	0.62572676	-3.472668e-10	0.051901728	0.051901728	0	91719.29	91719.03	-5.28125e-05	659770.4	216248.14	-0.00032234957	216249.53	659769.44	-0.00016789041
0	0.62558043	0.6255787	-2.832217e-10	0.051760294	0.051760297	0	91697.586	91697.33	-4e-05	659870.2	215941.03	-0.00021788443	215942.44	659869.2	-0.000211915
0	0.6254326	0.6254307	-4.041958e-10	0.051618665	0.051618673	0	91675.91	91675.66	-5.875e-05	659969.9	215634.34	-0.0003133954	215635.75	659968.8	-0.00025668577
0	0.6252833	0.6252816	-1.7647984e-10	0.05147743	0.05147743	0	91654.03	91653.77	-2.75e-05	660070.75	215324.48	-0.0001969914	215325.9	660069.7	-7.2379415e-05
0	0.62513566	0.62513393	-4.2981382e-10	0.051335983	0.051335983	0	91632.39	91632.125	-6.3125e-05	660169.3	215019.19	-0.00031638014	215020.61	660168.3	-0.00031861867
0	0.6249867	0.624985	-4.0134931e-10	0.051194493	0.051194496	0	91610.555	91610.3	-5.84375e-05	660268.9	214711.1	-0.00024176217	214712.5	660267.9	-0.00033428843
0	0.6248368	0.624835	-1.2524376e-10	0.051053066	0.051053066	0	91588.58	91588.32	-1.875e-05	660369	214401.03	-0.0001462512	214402.47	660368	-1.1938873e-05
0	0.6246869	0.62468517	-4.411996e-11	0.050911807	0.050911807	0	91566.6	91566.34	-5.9375e-06	660468.9	214091.23	4.1786054e-05	214092.67	660468	-9.327244e-05
0	0.6245371	0.6245354	4.8389636e-11	0.050770186	0.050770186	0	91544.66	91544.4	7.5e-06	660568.5	213782.03	5.9694366e-06	213783.47	660567.56	6.56638e-05
0	0.624385	0.6243833	-3.2734165e-10	0.050628755	0.050628755	0	91522.35	91522.1	-4.6875e-05	660670.1	213467.42	-0.00028056352	213468.89	660669.1	-0.00016938277
0	0.6242351	0.6242333	-1.622476e-10	0.050487496	0.050487496	0	91500.38	91500.125	-2.125e-05	660769.2	213158.47	-2.9847182e-05	213159.88	660768.25	-0.00016938277
0	0.6240825	0.6240808	-2.9887717e-11	0.050346017	0.050346017	0	91478.01	91477.75	-2.8125e-06	660870.5	212843.52	-8.954155e-05	212844.98	660869.44	3.5816618e-05
0	0.6239319	0.62393016	-3.7288483e-10	0.050204586	0.05020459	0	91455.94	91455.68	-5.34375e-05	660969.44	212533.84	-0.0003104107	212535.31	660968.4	-0.00022534623
0	0.62377864	0.6237769	-4.1558157e-10	0.05006314	0.05006314	0	91433.47	91433.2	-5.875e-05	661070.25	212218.38	-0.00029847183	212219.84	661069.2	-0.00030071035
0	0.6236267	0.623625	-2.7610556e-10	0.049921695	0.049921695	0	91411.21	91410.945	-3.75e-05	661170.3	211905.6	-0.00012535817	211907.06	661169.25	-0.00025668577
0	0.623474	0.6234723	-2.1063723e-10	0.049780272	0.04978028	0	91388.81	91388.56	-3.25e-05	661270.25	211591.95	-0.00020893027	211593.39	661269.25	-0.00010744986
0	0.62332016	0.6233184	-1.9355854e-10	0.049638826	0.049638826	0	91366.266	91366	-2.90625e-05	661371.06	211275.61	-8.954155e-05	211277.1	661370.06	-0.00013953558
0	0.6231673	0.6231654	-1.06741845e-10	0.049497534	0.04949753	0	91343.85	91343.586	-2.03125e-05	661471.1	210961.48	-5.9694365e-05	210962.97	661470.1	-0.00011938873
0	0.6230118	0.6230101	-5.436718e-10	0.049356084	0.04935608	0	91321.08	91320.81	-8e-05	661572.94	210642.12	-0.00031936486	210643.62	661571.94	-0.00046263132
0	0.62285835	0.6228565	-3.5865258e-10	0.049214657	0.049214657	0	91298.57	91298.31	-5.25e-05	661672.4	210327.8	-0.0003104107	210329.25	661671.3	-0.00022012297
0	0.6227035	0.6227017	-3.529597e-10	0.049073208	0.04907321	0	91275.875	91275.61	-5.28125e-05	661772.94	210010.33	-0.0002447469	210011.84	661772	-0.00026862463
0	0.6225483	0.62254643	-4.3266027e-10	0.048931774	0.048931774	0	91253.125	91252.86	-6.5625e-05	661873.5	209692.53	-0.00036413563	209694.03	661872.5	-0.00026041668
0	0.62239265	0.6223908	-3.244952e-10	0.04879036	0.04879036	0	91230.31	91230.05	-4.9375e-05	661974.3	209373.86	-0.00029847183	209375.4	661973.25	-0.00019176815
0	0.62223595	0.62223417	-5.0097504e-10	0.048648857	0.048648857	0	91207.34	91207.08	-7.34375e-05	662075.5	209053.3	-0.00037010506	209054.78	662074.5	-0.00033578082
0	0.6220781	0.62207633	8.823992e-11	0.04850761	0.04850761	0	91184.22	91183.945	1.5e-05	662176.8	208731.11	0.00020893027	208732.62	662175.8	-2.4623925e-05
0	0.6219223	0.62192047	-2.5048752e-10	0.048366144	0.048366148	0	91161.37	91161.11	-3.625e-05	662277.44	208412.23	-0.00018505253	208413.75	662276.44	-0.00012610435
0	0.62176484	0.62176305	-4.867428e-10	0.04822455	0.04822455	0	91138.3	91138.016	-7.25e-05	662378.44	208090.78	-0.000328319	208092.33	662377.4	-0.00037010506
0	0.6216076	0.6216057	-4.0988868e-10	0.048083294	0.048083294	0	91115.23	91114.97	-5.6875e-05	662479.3	207769.67	-0.00030145654	207771.22	662478.2	-0.00025668577
0	0.6214492	0.6214473	-1.9925143e-10	0.04794183	0.04794183	0	91092.016	91091.74	-2.875e-05	662580.56	207446.78	-0.00014923592	207448.31	662579.5	-0.00013729704
0	0.6212905	0.6212887	-8.2547025e-11	0.047800392	0.047800396	0	91068.766	91068.5	-1.21875e-05	662681.44	207123.78	-4.7755493e-05	207125.34	662680.3	-8.357211e-05
0	0.62113017	0.62112826	-4.269674e-11	0.047658946	0.047658946	0	91045.25	91044.984	-9.6875e-06	662783.2	206797.4	-1.1938873e-05	206798.95	662782.2	-7.2752504e-05
0	0.62097234	0.6209705	-2.9318425e-10	0.047517676	0.047517676	0	91022.12	91021.87	-3.8125e-05	662883.94	206475.83	-0.00021489972	206477.38	662882.94	-0.00015371299
0	0.6208129	0.620811	-3.5865258e-10	0.04737622	0.04737622	0	90998.74	90998.48	-5.46875e-05	662984.8	206151.61	-0.00029548712	206153.2	662983.75	-0.00022833094
0	0.6206514	0.6206495	-3.5011324e-10	0.047234632	0.047234632	0	90975.086	90974.82	-4.96875e-05	663086.75	205823.7	-0.0002745941	205825.27	663085.7	-0.0002298233
0	0.6204909	0.620489	-1.9640499e-10	0.047093365	0.047093365	0	90951.555	90951.28	-2.96875e-05	663188.1	205497.62	-0.00019102197	205499.2	663187	-7.088706e-05
0	0.6203311	0.62032926	-3.0172362e-10	0.046951856	0.046951856	0	90928.125	90927.86	-4.3125e-05	663288.94	205173.12	-0.00025370106	205174.7	663287.8	-0.00016117479
0	0.6201696	0.6201677	-4.3266027e-10	0.046810478	0.046810478	0	90904.45	90904.19	-6.1875e-05	663390.44	204845.47	-0.00037010506	204847.05	663389.4	-0.00025593958
0	0.6200074	0.6200055	-2.7041266e-10	0.046669014	0.046669014	0	90880.69	90880.41	-3.71875e-05	663492.25	204516.64	-0.00029847183	204518.22	663491.2	-0.00010259969
0	0.619844	0.6198421	-2.8037525e-10	0.046527762	0.046527762	0	90856.734	90856.47	-3.96875e-05	663594.1	204185.92	-0.00018505253	204187.52	663593.1	-0.00020296084
0	0.6196821	0.61968017	-2.8464492e-10	0.04638618	0.04638618	0	90832.984	90832.72	-4.25e-05	663695.75	203857.55	-0.00026862463	203859.12	663694.7	-0.00011938873
0	0.61951923	0.6195173	-3.5580613e-10	0.04624471	0.04624471	0	90809.12	90808.85	-5.375e-05	663797.2	203528.1	-0.0002477316	203529.7	663796.1	-0.000270117
0	0.61935544	0.6193535	-1.7647984e-10	0.04610345	0.04610345	0	90785.11	90784.83	-2.65625e-05	663899.2	203196.75	-0.0001790831	203198.34	663898.2	-0.00010073424
0	0.6191915	0.6191896	-2.6756622e-10	0.045961928	0.045961935	0	90761.086	90760.805	-4e-05	664000.94	202865.5	-0.0002298233	202867.11	663999.9	-0.00015819007
0	0.6190265	0.6190245	-2.2913915e-10	0.04582056	0.04582056	0	90736.91	90736.62	-3.78125e-05	664102.75	202532.61	-0.00011341929	202534.23	664101.75	-0.00022012297
0	0.6188622	0.6188603	-1.3947601e-10	0.0456791	0.045679096	0	90712.82	90712.55	-1.71875e-05	664204.56	202200.88	-0.00018206782	202202.5	664203.56	-1.1938873e-05
0	0.6186956	0.61869365	-4.411996e-10	0.04553762	0.04553763	0	90688.4	90688.125	-6.21875e-05	664307.06	201865.06	-0.00042084526	201866.7	664306.06	-0.00017759073
0	0.6185313	0.6185293	-3.074165e-10	0.04539626	0.045396265	0	90664.31	90664.03	-4.875e-05	664408.4	201533.72	-0.00028653294	201535.36	664407.4	-0.00016117479
0	0.6183647	0.6183627	-4.782035e-10	0.045254786	0.04525479	0	90639.89	90639.61	-7e-05	664510.94	201197.97	-0.00038204395	201199.61	664509.8	-0.0003070529
0	0.61819804	0.6181961	-1.7932629e-10	0.04511347	0.04511347	0	90615.47	90615.18	-2.375e-05	664612.9	200862.72	-0.00010744986	200864.39	664611.8	-0.00013468541
0	0.61803114	0.6180291	-2.2202304e-10	0.044972	0.04497199	0	90591	90590.72	-3.40625e-05	664714.94	200527.05	-0.00019848376	200528.72	664713.75	-9.774952e-05
0	0.61786336	0.6178614	-2.2202304e-10	0.04483065	0.04483065	0	90566.42	90566.13	-3.59375e-05	664817.44	200189.67	-0.00018356017	200191.31	664816.4	-0.00015072827
0	0.6176944	0.6176924	1.4232246e-12	0.044689175	0.044689175	0	90541.64	90541.35	1.25e-06	664920.7	199849.69	-3.730898e-05	199851.36	664919.75	5.2232568e-05
0	0.6175275	0.6175255	-2.1633013e-10	0.044547684	0.044547684	0	90517.164	90516.89	-3.21875e-05	665021.75	199515.06	-0.0002925024	199516.73	665020.56	-8.207975e-06