# t (s)	mx ()	my ()	mz ()	B_extx (T)	B_exty (T)	B_extz (T)	m_fullx (A/m)	m_fully (A/m)	m_fullz (A/m)	m_full.region1x (A/m)	m_full.region1y (A/m)	m_full.region1z (A/m)	m_full.region2x (A/m)	m_full.region2y (A/m)	m_full.region2z (A/m)
0	0.6538673	0.6538645	-3.0709654e-10	0.07071087	0.07071087	0	78176.375	78176.03	-3.625e-05	621837.3	293574.75	-0.00021223654	293577.06	621835.5	-0.00018296253
0	0.65377957	0.65377843	-4.815832e-10	0.07056911	0.07056911	0	78165.88	78165.75	-5.75e-05	621912.56	293377.97	-0.00030737705	293378.75	621911.8	-0.00038788057
0	0.6536886	0.6536877	-1.675072e-10	0.07042789	0.07042788	0	78155.01	78154.9	-1.75e-05	621994.5	293168.94	-0.00020491803	293169.6	621993.8	-1.8296252e-05
0	0.65359724	0.65359634	-1.675072e-10	0.07028653	0.07028653	0	78144.086	78143.98	-2.25e-05	622076.4	292959.22	-4.3911008e-05	292959.8	622075.6	-0.00020125878
0	0.65350467	0.65350366	-2.931376e-10	0.070144884	0.070144884	0	78133.016	78132.9	-3.625e-05	622159.3	292746.62	-0.00019394029	292747.22	622158.6	-0.00024882905
0	0.6534132	0.6534122	-3.7689118e-10	0.07000352	0.07000352	0	78122.08	78121.96	-4.1875e-05	622240.9	292537	-0.00043911007	292537.56	622240.06	-9.148126e-05
0	0.6533203	0.65331936	-2.09384e-11	0.06986229	0.06986229	0	78110.97	78110.87	0	622323.75	292324.03	0	292324.62	622323.06	-0.00010611827
0	0.6532275	0.6532265	-2.09384e-10	0.069720544	0.069720544	0	78099.88	78099.766	-2.5e-05	622406.7	292111.2	-0.00027810305	292111.8	622406	2.1955504e-05
0	0.6531345	0.65313363	-2.8615812e-10	0.06957919	0.06957919	0	78088.77	78088.66	-4.25e-05	622489.3	291898.47	-0.00036592505	291899.12	622488.56	-0.00017564403
0	0.6530417	0.65304077	-4.5366533e-10	0.069437966	0.069437966	0	78077.664	78077.555	-5.75e-05	622571.75	291685.94	-0.00029274003	291686.53	622571.06	-0.00038056207
0	0.6529488	0.6529479	-1.8146613e-10	0.069296576	0.069296576	0	78066.56	78066.45	-2.125e-05	622653.9	291473.84	-0.00012075527	291474.44	622653.25	-0.00017198478
0	0.652855	0.652854	-1.1865094e-10	0.06915496	0.06915496	0	78055.34	78055.23	-1.125e-05	622737.1	291259.22	-0.00010245902	291259.9	622736.44	-7.684426e-05
0	0.65276116	0.65276015	-7.8170026e-10	0.069013596	0.069013596	0	78044.13	78044.01	-9e-05	622820	291045.03	-0.0004976581	291045.7	622819.3	-0.0006513466
0	0.65266716	0.6526662	-3.9085013e-10	0.068872236	0.068872236	0	78032.89	78032.77	-4.25e-05	622903	290830.5	-0.00019028103	290831.1	622902.2	-0.00032933254
0	0.6525729	0.65257186	-3.4897332e-10	0.06873064	0.06873064	0	78021.6	78021.49	-4.5e-05	622985.44	290616	-0.00030737705	290616.6	622984.6	-0.00023419203
0	0.65247893	0.6524779	-3.4897332e-10	0.06858927	0.06858927	0	78010.375	78010.266	-4.875e-05	623068.75	290401.16	-0.00032201406	290401.75	623068	-0.00027810305
0	0.65238374	0.65238273	2.931376e-10	0.068448015	0.068448015	0	77998.99	77998.88	3.75e-05	623151.5	290185.2	0.00023419203	290185.75	623150.6	0.00018662178
0	0.65228957	0.6522886	-2.3730187e-10	0.06830665	0.06830665	0	77987.734	77987.625	-2.5625e-05	623234.8	289969.88	-0.00026346603	289970.5	623234.1	-0.00010245902
0	0.65219414	0.6521931	-2.4428132e-10	0.06816504	0.06816504	0	77976.33	77976.21	-2.875e-05	623317.94	289753.2	-0.00019028103	289753.84	623317.25	-0.00020125878
0	0.65209943	0.6520985	-2.09384e-10	0.068023674	0.068023674	0	77965.016	77964.9	-3.125e-05	623401.06	289537.56	-0.00013173302	289538.16	623400.3	-0.00018296253
0	0.652004	0.6520031	1.3958933e-10	0.06788232	0.06788232	0	77953.6	77953.484	1.375e-05	623484.25	289320.78	0.00016100703	289321.44	623483.5	3.6592504e-05
0	0.6519087	0.6519078	-3.7689118e-10	0.067740716	0.067740716	0	77942.2	77942.086	-4.5e-05	623566.94	289104.6	-0.00026346603	289105.25	623566.25	-0.00031469556
0	0.65181214	0.6518112	-1.1865094e-10	0.06759932	0.06759932	0	77930.66	77930.54	-1e-05	623650.5	288885.88	-2.1955504e-05	288886.47	623649.75	-0.00011343677
0	0.65171623	0.6517153	-1.1865094e-10	0.06745809	0.06745809	0	77919.195	77919.08	-1.5625e-05	623734.44	288667.66	-0.00013173302	288668.3	623733.7	-9.5140516e-05
0	0.65162015	0.6516191	-2.3730187e-10	0.067316726	0.06731672	0	77907.7	77907.59	-2.25e-05	623817.75	288449.88	-0.00017564403	288450.56	623816.94	-0.00019759953
0	0.65152335	0.65152234	-2.512608e-10	0.067174986	0.067174986	0	77896.13	77896.016	-2.8125e-05	623901.5	288230.62	-0.00029274003	288231.25	623900.7	-7.684426e-05
0	0.6514268	0.6514258	-4.4668585e-10	0.06703377	0.06703377	0	77884.586	77884.47	-5.375e-05	623984.7	288012.12	-0.00030737705	288012.75	623984	-0.0003183548
0	0.65132916	0.65132827	-6.3513145e-10	0.066892385	0.066892385	0	77872.914	77872.8	-7e-05	624068.2	287792.1	-0.0006001171	287792.7	624067.44	-0.0003256733
0	0.6512326	0.65123165	-5.5835732e-11	0.06675076	0.066750765	0	77861.37	77861.25	-6.25e-06	624152.25	287572.7	-0.00021223654	287573.34	624151.6	0.00011709602
0	0.65113515	0.65113413	-6.839877e-10	0.0666094	0.0666094	0	77849.73	77849.61	-7.6875e-05	624235.8	287352.84	-0.00058548007	287353.5	624235.06	-0.00043179156
0	0.65103775	0.65103674	-2.721992e-10	0.06646817	0.066468164	0	77838.07	77837.95	-3.125e-05	624319.56	287132.62	-0.00019028103	287133.25	624318.8	-0.00018296253
0	0.6509391	0.65093815	-1.8146613e-10	0.06632643	0.06632643	0	77826.27	77826.164	-2.25e-05	624403.3	286910.84	-5.488876e-05	286911.5	624402.5	-0.00024151054
0	0.6508409	0.6508399	-2.931376e-10	0.06618507	0.06618507	0	77814.54	77814.42	-2.9375e-05	624487.4	286689.3	-0.00017564403	286689.97	624486.56	-0.00027810305
0	0.6507429	0.65074193	-2.931376e-10	0.06604384	0.06604384	0	77802.82	77802.7	-3.625e-05	624571.8	286467.56	-0.00030737705	286468.25	624571.06	-8.7822016e-05
0	0.65064424	0.65064335	-4.18768e-10	0.065902434	0.065902434	0	77791.03	77790.92	-4.75e-05	624655.94	286245.47	-0.0003329918	286246.12	624655.2	-0.0002744438
0	0.6505455	0.65054446	-2.512608e-10	0.06576085	0.06576085	0	77779.22	77779.09	-2.6875e-05	624740	286023	-5.854801e-05	286023.66	624739.3	-0.00025614753
0	0.65044653	0.6504456	-2.512608e-10	0.06561948	0.065619476	0	77767.39	77767.27	-3.125e-05	624824.06	285800.4	-0.00020491803	285801.06	624823.3	-0.00010977752
0	0.6503474	0.6503464	-3.4199385e-10	0.06547824	0.06547824	0	77755.54	77755.414	-4.375e-05	624908	285577.78	-0.00019394029	285578.44	624907.2	-0.00030737705
0	0.65024775	0.65024674	-2.09384e-10	0.065336525	0.065336525	0	77743.62	77743.49	-2.5625e-05	624992.44	285353.66	-0.00023419203	285354.3	624991.7	-8.416276e-05
0	0.65014815	0.6501472	-4.7460375e-10	0.06519514	0.06519514	0	77731.72	77731.59	-5e-05	625075.8	285130.97	-0.00034396956	285131.62	625075.06	-0.00030005854
0	0.6500479	0.65004694	-2.931376e-10	0.06505392	0.065053925	0	77719.73	77719.62	-3.5e-05	625161.3	284905.16	-0.00015368852	284905.8	625160.5	-0.00033665105
0	0.64994794	0.649947	-3.6991174e-10	0.06491251	0.06491251	0	77707.78	77707.66	-3.5625e-05	625245.6	284680.8	-0.00026346603	284681.47	625244.94	-0.00023419203
0	0.6498473	0.6498462	-4.7460375e-10	0.06477093	0.06477093	0	77695.74	77695.625	-5.875e-05	625330.1	284455.34	-0.0004976581	284456.06	625329.3	-0.00027078454
0	0.6497467	0.6497458	-3.2803493e-10	0.06462956	0.06462956	0	77683.72	77683.6	-3e-05	625414.56	284230.22	-0.00010245902	284230.88	625413.75	-0.0002890808
0	0.6496457	0.64964473	-1.8844559e-10	0.06448818	0.06448818	0	77671.64	77671.516	-2.75e-05	625498.5	284004.72	-0.00019028103	284005.38	625497.8	-9.148126e-05
0	0.64954364	0.6495425	-4.3272694e-10	0.0643466	0.0643466	0	77659.43	77659.31	-4.75e-05	625584.4	283776.06	-0.0002671253	283776.75	625583.56	-0.00031469556
0	0.6494431	0.6494421	-3.2803493e-10	0.06420522	0.06420522	0	77647.414	77647.29	-3.8125e-05	625669	283550.6	-0.00025980678	283551.28	625668.2	-0.0002524883
0	0.64934206	0.649341	-5.9325467e-10	0.064063966	0.064063966	0	77635.336	77635.21	-6.25e-05	625753.2	283324.9	-0.0005415691	283325.6	625752.5	-0.00024151054
0	0.64923954	0.6492386	-3.4199385e-10	0.06392258	0.063922584	0	77623.07	77622.96	-3.5e-05	625838.56	283096.12	-0.00020491803	283096.78	625837.75	-0.00024151054
0	0.6491378	0.64913684	-2.5824026e-10	0.06378101	0.06378101	0	77610.914	77610.79	-2.5e-05	625923.4	282868.97	-0.0002890808	282869.62	625922.5	-8.0503516e-05
0	0.64903533	0.64903426	-1.9542507e-10	0.06363963	0.06363963	0	77598.664	77598.54	-1.875e-05	626008.2	282640.56	-0.00013173302	282641.28	626007.44	-0.00013173302
0	0.64893323	0.64893216	-3.8387066e-10	0.06349824	0.06349824	0	77586.46	77586.336	-4.375e-05	626092.8	282413.06	-0.00033665105	282413.78	626092.06	-0.00020491803
0	0.64882964	0.6488285	-4.2574747e-10	0.06335668	0.06335668	0	77574.06	77573.94	-4.9375e-05	626177.56	282183.16	-0.0003476288	282183.8	626176.75	-0.00025614753
0	0.64872694	0.64872587	-5.3043947e-10	0.06321527	0.063215286	0	77561.79	77561.664	-6.875e-05	626263.1	281953.88	-0.00043911007	281954.53	626262.25	-0.00042447308
0	0.64862424	0.6486232	-9.073307e-11	0.06307404	0.06307404	0	77549.51	77549.38	-8.75e-06	626348	281725.25	-1.4637002e-05	281725.94	626347.2	-0.00016466627
0	0.6485192	0.6485182	-3.2105546e-10	0.062932655	0.06293266	0	77536.96	77536.83	-3.5e-05	626433.75	281492.44	-0.00030005854	281493.12	626432.94	-0.00018662178
0	0.6484165	0.64841545	-3.7689118e-10	0.062790945	0.062790945	0	77524.69	77524.55	-4.5e-05	626518.75	281263.7	-0.00038056207	281264.38	626518	-0.00021955503
0	0.6483124	0.6483114	-3.6293227e-10	0.062649705	0.062649705	0	77512.234	77512.1	-4.5e-05	626604.3	281032.38	-0.00023419203	281033.1	626603.5	-0.0002963993
0	0.6482079	0.6482067	-3.2105546e-10	0.06250833	0.06250833	0	77499.73	77499.59	-3.875e-05	626690	280800.28	-0.0002963993	280800.97	626689.2	-0.00019759953
0	0.64810383	0.6481027	-5.5835732e-11	0.06236674	0.06236674	0	77487.3	77487.164	-8.75e-06	626774.6	280569.94	8.7822016e-05	280570.66	626773.9	-0.00014637002
0	0.647999	0.6479979	-1.9542507e-10	0.062225346	0.062225346	0	77474.766	77474.64	-2.875e-05	626860.06	280337.94	-0.00016100703	280338.62	626859.25	-0.00022687354
0	0.64789397	0.6478929	-2.721992e-10	0.06208412	0.06208412	0	77462.2	77462.07	-3.25e-05	626946	280104.88	-0.0002817623	280105.56	626945.1	-0.00015002927
0	0.64778864	0.64778763	-4.3272694e-10	0.061942413	0.061942413	0	77449.62	77449.484	-5.0625e-05	627031.56	279871.94	-0.00033665105	279872.62	627030.75	-0.00030005854
0	0.6476833	0.6476822	-8.37536e-11	0.06180102	0.06180102	0	77437.02	77436.89	-1e-05	627117.2	279638.75	-0.00016100703	279639.44	627116.44	-7.318501e-06
0	0.6475775	0.64757645	-3.7689118e-10	0.06165979	0.06165979	0	77424.37	77424.234	-4.875e-05	627202.75	279405.06	-0.00039153983	279405.78	627202	-0.00024882905
0	0.6474695	0.64746845	-4.955421e-10	0.061518367	0.061518367	0	77411.45	77411.32	-5.1875e-05	627289.8	279166.75	-0.00038056207	279167.47	627289	-0.00030005854
0	0.6473659	0.6473648	-3.4897332e-10	0.061376818	0.061376818	0	77399.06	77398.93	-4.125e-05	627373.8	278937.72	-0.00027810305	278938.44	627372.94	-0.00024882905
0	0.6472586	0.64725757	-3.0709654e-10	0.061235435	0.061235435	0	77386.234	77386.11	-3.5e-05	627460.1	278701.2	-0.00021955503	278701.9	627459.4	-0.00019394029
0	0.64715207	0.6471511	-1.8844559e-10	0.061094042	0.061094042	0	77373.51	77373.38	-1.875e-05	627546.2	278466.16	-0.00014637002	278466.84	627545.3	-0.00013173302
0	0.6470447	0.64704365	-2.2334293e-10	0.06095251	0.06095251	0	77360.67	77360.54	-2.25e-05	627632.56	278229.38	-0.00013173302	278230.1	627631.75	-0.00019028103
0	0.6469377	0.64693666	-3.2105546e-10	0.060811102	0.060811102	0	77347.88	77347.74	-3.875e-05	627718.5	277993.6	-0.00023419203	277994.34	627717.6	-0.00021223654
0	0.6468306	0.6468296	-1.3260987e-10	0.06066984	0.06066984	0	77335.07	77334.945	-1.5e-05	627804.1	277757.97	-0.00020491803	277758.7	627803.4	-1.8296252e-05
0	0.64672214	0.646721	-4.18768e-11	0.060528453	0.060528446	0	77322.09	77321.96	-2.5e-06	627890.2	277520	-0.00016100703	277520.75	627889.4	8.0503516e-05
0	0.6466143	0.64661324	-2.3730187e-10	0.060386896	0.060386896	0	77309.22	77309.086	-2.625e-05	627976.9	277282.47	-0.0003256733	277283.2	627976.06	-2.9274004e-05
0	0.6465064	0.6465053	-1.3260987e-10	0.060245506	0.060245506	0	77296.31	77296.19	-1.6875e-05	628062.75	277045.62	-8.7822016e-05	277046.34	628061.94	-0.00017930327
0	0.6463982	0.6463971	-3.9085013e-10	0.060104124	0.060104124	0	77283.38	77283.24	-5.125e-05	628148.7	276808.2	-0.00038056207	276808.9	628147.75	-0.00019394029
0	0.6462888	0.6462877	-1.675072e-10	0.05996258	0.059962578	0	77270.29	77270.16	-1.5e-05	628235.2	276568.4	-0.00013539227	276569.16	628234.3	-0.00014271078
0	0.64618003	0.64617896	-1.5354827e-10	0.059821147	0.059821147	0	77257.28	77257.15	-2.125e-05	628321.6	276329.7	-0.00023419203	276330.47	628320.7	-4.0251758e-05
0	0.64606994	0.6460689	-1.9542507e-10	0.059679918	0.059679918	0	77244.13	77244	-2.25e-05	628407.56	276089.7	-1.4637002e-05	276090.44	628406.8	-0.00018662178
0	0.64596087	0.6459598	-1.8844559e-10	0.05953851	0.05953851	0	77231.09	77230.95	-2.5e-05	628494.4	275850.1	-0.00017930327	275850.88	628493.6	-0.00013173302
0	0.6458512	0.6458501	-3.350144e-10	0.059396826	0.059396826	0	77217.97	77217.84	-4.25e-05	628581.06	275609.88	-0.00026346603	275610.6	628580.3	-0.0002890808
0	0.64574075	0.6457397	-5.7231625e-10	0.059255596	0.059255596	0	77204.766	77204.63	-7.125e-05	628667.75	275368.53	-0.00046838407	275369.22	628667	-0.00039519905
0	0.64563096	0.6456299	-3.4897332e-10	0.059114184	0.059114188	0	77191.64	77191.5	-4.4375e-05	628754.75	275127.9	-0.0002817623	275128.66	628753.9	-0.0002890808
0	0.64552134	0.6455202	-1.9542507e-10	0.058972627	0.05897263	0	77178.53	77178.4	-2.4375e-05	628840.44	274888.78	-0.00019028103	274889.5	628839.56	-0.00014637002
0	0.64540917	0.6454081	-2.8615812e-10	0.058831234	0.058831234	0	77165.125	77164.99	-3.125e-05	628928.1	274644	-0.00021955503	274644.72	628927.3	-0.00015368852
0	0.64529926	0.64529806	-3.559528e-10	0.058689985	0.05868999	0	77151.98	77151.83	-4.25e-05	629014.3	274403.84	-0.00028542156	274404.6	629013.44	-0.00026346603
0	0.6451871	0.6451859	-2.8615812e-10	0.0585483	0.0585483	0	77138.56	77138.43	-3.4375e-05	629101.2	274159.97	-0.00027810305	274160.72	629100.3	-0.00013905152
0	0.64507484	0.6450736	-4.0480908e-10	0.058406904	0.058406904	0	77125.15	77125.016	-4.75e-05	629188.06	273915.97	-0.00024882905	273916.7	629187.2	-0.0003329918
0	0.64496315	0.644962	-4.676243e-10	0.058265664	0.058265664	0	77111.79	77111.66	-5.875e-05	629275.4	273672.28	-0.00035860654	273673.03	629274.5	-0.00032933254
0	0.6448513	0.64485025	-3.0011707e-10	0.05812423	0.05812423	0	77098.43	77098.29	-3.75e-05	629362.6	273428.5	-0.00024882905	273429.25	629361.8	-0.00023053278
0	0.6447389	0.6447378	-2.931376e-10	0.057982713	0.057982713	0	77084.98	77084.84	-2.625e-05	629449.9	273183.88	-0.00023419203	273184.62	629448.94	-0.00016100703
0	0.6446264	0.64462525	-3.0011707e-10	0.05784131	0.057841305	0	77071.53	77071.4	-3.9375e-05	629536.9	272939.3	-0.00033665105	272940.1	629536	-0.00018296253
0	0.6445132	0.644512	-4.0480908e-10	0.057699904	0.057699904	0	77057.99	77057.85	-4.75e-05	629624.1	272693.53	-0.00024882905	272694.3	629623.25	-0.0003695843
0	0.6444004	0.6443993	-1.256304e-10	0.057558395	0.057558388	0	77044.52	77044.375	-1.125e-05	629710.9	272448.94	-8.7822016e-05	272449.7	629710	-4.7570258e-05
0	0.64428616	0.644285	-4.676243e-10	0.057416987	0.057416987	0	77030.86	77030.72	-5.8125e-05	629798.8	272201.06	-0.00039519905	272201.84	629797.94	-0.00033665105
0	0.6441732	0.6441721	-1.465688e-10	0.05727571	0.05727571	0	77017.35	77017.22	-1.875e-05	629885.5	271956.25	-0.00014637002	271957.06	629884.6	-6.220726e-05
0	0.64405847	0.6440572	-3.6293227e-10	0.0571343	0.0571343	0	77003.625	77003.484	-4.25e-05	629972.94	271708.06	-0.0002963993	271708.84	629972.1	-0.0002524883
0	0.64394337	0.6439423	-3.6991174e-10	0.05699279	0.05699279	0	76989.88	76989.734	-4.375e-05	630060.8	271459.25	-0.00039519905	271460	630059.9	-0.00020491803
0	0.64383	0.6438288	-4.2574747e-10	0.056851387	0.056851387	0	76976.31	76976.164	-4.6875e-05	630148.1	271213.03	-0.00033665105	271213.8	630147.25	-0.00030737705
0	0.6437149	0.6437137	-2.7917866e-11	0.056709986	0.05670998	0	76962.56	76962.42	-6.25e-06	630235.8	270964.34	-5.854801e-05	270965.16	630234.94	1.8296252e-05
0	0.6435997	0.64359856	-4.4668585e-10	0.05656847	0.05656847	0	76948.79	76948.64	-5.375e-05	630323.44	270715.4	-0.00038056207	270716.22	630322.6	-0.00023419203
0	0.64348406	0.6434829	-5.3741894e-10	0.05642703	0.05642703	0	76934.95	76934.81	-6e-05	630411.06	270465.88	-0.00046838407	270466.62	630410.2	-0.0003037178
0	0.64336836	0.64336723	-2.303224e-10	0.056285787	0.056285787	0	76921.12	76920.98	-2.25e-05	630498.94	270215.94	-0.00014637002	270216.75	630498	-0.00013905152
0	0.64325273	0.6432515	-9.073307e-11	0.056144364	0.056144364	0	76907.29	76907.15	-9.375e-06	630586.25	269966.7	4.0251758e-05	269967.5	630585.4	-0.00016466627
0	0.64313656	0.6431354	-3.350144e-10	0.056002706	0.056002706	0	76893.414	76893.27	-4.4375e-05	630674.1	269716.38	-0.00038056207	269717.16	630673.2	-0.00015368852
0	0.64302003	0.64301884	-1.8844559e-10	0.055861466	0.055861473	0	76879.48	76879.336	-2e-05	630761.9	269465.4	-0.00016100703	269466.2	630761	-7.684426e-05
0	0.6429031	0.64290184	-3.350144e-10	0.05572005	0.05572005	0	76865.49	76865.35	-3.625e-05	630849.4	269214.16	-0.00019028103	269214.97	630848.5	-0.00023419203
0	0.64278555	0.6427843	-3.0709654e-10	0.05557856	0.05557856	0	76851.44	76851.29	-4.0625e-05	630937.06	268961.9	-0.00023419203	268962.72	630936.2	-0.00016832553
0	0.6426679	0.6426667	-6.839877e-10	0.055437103	0.055437103	0	76837.375	76837.23	-7.375e-05	631026	268708.22	-0.00048302108	268709.03	631025.1	-0.00040983607
0	0.6425512	0.64254993	-1.3958933e-10	0.05529586	0.05529586	0	76823.43	76823.28	-1.5e-05	631113.6	268457.28	-0.00011709602	268458.1	631112.75	-7.318501e-05
0	0.6424326	0.6424314	-2.3730187e-10	0.055154447	0.055154454	0	76809.234	76809.09	-1.8125e-05	631201.5	268203.28	-0.00010245902	268204.12	631200.56	-0.00018296253
0	0.64231414	0.64231294	-1.256304e-10	0.05501279	0.055012785	0	76795.086	76794.945	-1.375e-05	631290.3	267948.78	-0.00020491803	267949.56	631289.4	7.318501e-06
0	0.64219654	0.6421953	-2.3730187e-10	0.054871544	0.054871544	0	76781.016	76780.875	-2.625e-05	631378.25	267696.06	-0.00019028103	267696.9	631377.4	-0.00014637002
0	0.64207786	0.6420766	-2.6521974e-10	0.05473012	0.054730132	0	76766.83	76766.68	-3.0625e-05	631466.3	267441.84	-0.00032201406	267442.66	631465.44	-9.148126e-05
0	0.6419584	0.6419571	-3.0709654e-10	0.054588605	0.054588605	0	76752.54	76752.4	-3.875e-05	631554.9	267186.03	-0.00032201406	267186.88	631554	-0.00015734778
0	0.64183927	0.641838	-2.931376e-10	0.05444719	0.05444719	0	76738.3	76738.16	-2.75e-05	631643.3	266930.8	-0.00030005854	266931.66	631642.4	-0.00011709602
0	0.64171946	0.64171827	-1.675072e-10	0.05430595	0.05430595	0	76723.98	76723.83	-1.9375e-05	631731.3	266675.03	-0.00014637002	266675.88	631730.44	-0.00013173302
0	0.64159983	0.64159864	-3.6991174e-10	0.05416429	0.054164287	0	76709.67	76709.53	-4e-05	631819.9	266419.12	-0.00023419203	266419.97	631818.94	-0.0002963993
0	0.6414787	0.6414774	-3.6991174e-10	0.05402286	0.05402286	0	76695.195	76695.05	-3.625e-05	631908.56	266160.8	-0.00020125878	266161.62	631907.6	-0.0002671253
0	0.6413589	0.6413576	-1.675072e-10	0.053881623	0.053881623	0	76680.86	76680.72	-1.5625e-05	631996.94	265904.66	-0.00017564403	265905.47	631996	2.5614754e-05
0	0.6412378	0.64123654	-4.606448e-10	0.053740162	0.053740162	0	76666.39	76666.24	-5.75e-05	632085.5	265646.5	-0.00035128806	265647.34	632084.7	-0.00027810305
0	0.64111704	0.6411158	-3.9085013e-10	0.053598683	0.053598687	0	76651.96	76651.805	-4.375e-05	632174.2	265388.84	-0.00028542156	265389.7	632173.3	-0.00021223654
0	0.6409961	0.64099485	-2.6521974e-10	0.053457264	0.053457264	0	76637.5	76637.35	-3.125e-05	632262.56	265131.22	-0.00026346603	265132.06	632261.6	-0.00015734778
0	0.6408736	0.6408724	-1.8146613e-10	0.05331584	0.05331584	0	76622.85	76622.7	-1.75e-05	632351.6	264870.62	-0.00019028103	264871.47	632350.6	-0.00010611827
0	0.6407528	0.64075154	-4.0480908e-10	0.05317437	0.053174376	0	76608.41	76608.25	-5.25e-05	632439.7	264613.38	-0.0003476288	264614.2	632438.75	-0.00023053278
0	0.64062965	0.64062834	-5.0950105e-10	0.053032946	0.053032946	0	76593.67	76593.52	-6.5625e-05	632529.06	264351.47	-0.00035128806	264352.3	632528.2	-0.0003988583
0	0.6405074	0.64050615	-5.9325467e-10	0.052891657	0.05289166	0	76579.07	76578.914	-6.75e-05	632618.06	264091.47	-0.00046838407	264092.28	632617.1	-0.00038056207
0	0.64038426	0.64038295	-4.3272694e-10	0.052750226	0.052750226	0	76564.336	76564.18	-5.6875e-05	632706.75	263830.34	-0.00033665105	263831.2	632705.9	-0.0003110363
0	0.6402617	0.6402604	-3.4199385e-10	0.05260877	0.052608766	0	76549.69	76549.53	-3.5e-05	632795.4	263570.1	-0.00020491803	263570.94	632794.5	-0.00025614753
0	0.6401378	0.6401366	-4.3970638e-10	0.052467342	0.052467342	0	76534.88	76534.73	-5.25e-05	632885.06	263307.06	-0.00038056207	263307.94	632884.2	-0.00021955503
0	0.6400146	0.64001334	-1.256304e-10	0.052325908	0.052325904	0	76520.15	76519.99	-7.5e-06	632973.75	263045.8	-8.0503516e-05	263046.72	632972.75	-1.4637002e-05
0	0.6398902	0.6398889	-2.7917865e-10	0.05218445	0.05218445	0	76505.266	76505.12	-3.6875e-05	633062.94	262782.4	-0.00027810305	262783.25	633062	-0.00021589578
0	0.639766	0.6397647	-4.2574747e-10	0.052042987	0.052042987	0	76490.42	76490.266	-5.5e-05	633151.5	262520.06	-0.00040983607	262520.94	633150.5	-0.00019394029
0	0.6396411	0.6396399	-2.1636347e-10	0.051901728	0.051901728	0	76475.49	76475.336	-2.75e-05	633241.4	262255.34	-0.00017930327	262256.2	633240.44	-0.00013539227
0	0.63951623	0.63951504	-2.512608e-10	0.051760297	0.051760297	0	76460.57	76460.414	-3.4375e-05	633330.7	261991.3	-0.00016100703	261992.2	633329.75	-0.00021955503
0	0.6393912	0.6393898	-4.3272694e-10	0.051618673	0.051618665	0	76445.6	76445.45	-5.375e-05	633419.9	261726.88	-0.00042447308	261727.75	633419	-0.00018296253
0	0.63926476	0.6392634	-9.073307e-11	0.05147742	0.05147743	0	76430.5	76430.34	-1.125e-05	633509.44	261460.4	-0.00013905152	261461.28	633508.44	1.0977752e-05
0	0.6391397	0.63913834	-5.7231625e-10	0.051335983	0.051335983	0	76415.53	76415.375	-6.75e-05	633598.7	261195.9	-0.0005708431	261196.8	633597.75	-0.0003037178
0	0.6390136	0.6390124	-4.7460375e-10	0.051194496	0.051194493	0	76400.48	76400.31	-5.625e-05	633688	260930.19	-0.00039519905	260931.06	633687.06	-0.00027810305
0	0.63888747	0.63888615	-5.513779e-10	0.051053066	0.051053066	0	76385.39	76385.23	-6.625e-05	633777.2	260664.42	-0.00039519905	260665.31	633776.2	-0.00035128806
0	0.6387597	0.6387583	-2.7917865e-10	0.050911807	0.050911807	0	76370.1	76369.95	-3.625e-05	633867.1	260395.53	-0.00038056207	260396.42	633866.1	-0.00010245902
0	0.6386331	0.6386317	-3.350144e-10	0.050770186	0.050770186	0	76354.97	76354.81	-4.25e-05	633956.8	260128.55	-0.00019028103	260129.42	633955.9	-0.0002524883
0	0.63850546	0.6385041	1.04692e-10	0.050628755	0.050628755	0	76339.7	76339.55	1.375e-05	634046.2	259860.5	0.00014637002	259861.4	634045.2	-7.318501e-06
0	0.6383783	0.638377	-2.303224e-10	0.050487496	0.050487496	0	76324.51	76324.35	-1.8125e-05	634135.75	259592.97	-0.00014637002	259593.89	634134.8	-0.00012075527
0	0.63824993	0.6382486	-5.025216e-10	0.050346017	0.050346017	0	76309.164	76309	-5.125e-05	634225.7	259323.33	-0.00035128806	259324.25	634224.7	-0.0003329918
0	0.6381211	0.6381198	-2.931376e-10	0.05020459	0.05020459	0	76293.766	76293.61	-3.1875e-05	634315.75	259053.08	-0.00028542156	259053.95	634314.7	-9.5140516e-05
0	0.63799345	0.6379921	-1.7448666e-10	0.050063144	0.050063144	0	76278.49	76278.336	-2.5625e-05	634405.06	258784.8	-0.00024882905	258785.72	634404.06	-5.488876e-05
0	0.6378639	0.6378625	-2.09384e-10	0.049921695	0.049921695	0	76263.01	76262.84	-3.25e-05	634495.1	258513.45	-0.00021589578	258514.38	634494.06	-0.00010977752
0	0.6377351	0.6377338	-3.0709654e-10	0.049780272	0.04978028	0	76247.62	76247.45	-3.375e-05	634584.8	258243.48	-0.00031469556	258244.4	634583.8	-8.416276e-05
0	0.6376052	0.6376039	-4.4668585e-10	0.049638826	0.049638826	0	76232.086	76231.914	-4.875e-05	634674.8	257971.47	-0.00033665105	257972.4	634673.9	-0.0003110363
0	0.63747567	0.63747424	-3.978296e-10	0.04949753	0.04949753	0	76216.586	76216.414	-4.75e-05	634764.75	257700.19	-0.00043911007	257701.08	634763.8	-0.00019028103
0	0.6373458	0.6373444	-1.9542507e-10	0.049356084	0.049356084	0	76201.07	76200.9	-2.25e-05	634854.44	257428.66	-0.00021589578	257429.58	634853.5	-5.488876e-05
0	0.63721514	0.63721377	-5.025216e-10	0.049214657	0.049214657	0	76185.44	76185.27	-5.8125e-05	634944.8	257155.45	-0.00029274003	257156.38	634943.8	-0.0004354508
0	0.63708305	0.6370817	-2.2334293e-10	0.04907321	0.04907321	0	76169.65	76169.49	-3e-05	635035.2	256880.14	-0.00023419203	256881.08	635034.2	-0.00014271078
0	0.63695246	0.6369511	-2.7917865e-10	0.048931774	0.048931774	0	76154.04	76153.875	-3.375e-05	635125.25	256607.23	-0.00031469556	256608.17	635124.25	-5.854801e-05
0	0.63682157	0.6368202	-3.4897332e-10	0.04879036	0.04879036	0	76138.38	76138.22	-3.75e-05	635215.44	256333.77	-0.00024882905	256334.72	635214.44	-0.00026346603
0	0.6366895	0.6366882	-4.8856263e-10	0.048648857	0.048648857	0	76122.6	76122.44	-5.625e-05	635304.9	256059.56	-0.00030737705	256060.5	635303.9	-0.00036592505
0	0.6365569	0.6365555	-8.37536e-11	0.04850761	0.04850761	0	76106.74	76106.586	-1.125e-05	635396.2	255782.61	-9.5140516e-05	255783.56	635395.2	1.0977752e-05
0	0.6364257	0.63642424	-2.0240454e-10	0.048366144	0.048366144	0	76091.05	76090.88	-1.6875e-05	635485.8	255509.08	-0.00021955503	255510	635484.9	-3.6592505e-06
0	0.6362923	0.6362908	-3.0709654e-10	0.04822455	0.048224546	0	76075.1	76074.93	-3.375e-05	635576.5	255231.77	-0.00023419203	255232.72	635575.44	-0.00024151054
0	0.6361596	0.6361581	-2.303224e-10	0.048083294	0.048083294	0	76059.23	76059.06	-2.25e-05	635667.06	254955.31	-0.00031469556	254956.28	635666	-3.2933254e-05
0	0.6360259	0.6360246	-2.2334293e-10	0.04794183	0.04794183	0	76043.26	76043.09	-2.6875e-05	635757.6	254677.77	-0.00021955503	254678.72	635756.56	-0.00013539227
0	0.6358925	0.635891	-3.0709654e-10	0.0478004	0.047800396	0	76027.3	76027.13	-4.25e-05	635848.1	254400.36	-0.00026346603	254401.31	635847.1	-0.00023419203
0	0.63575566	0.6357542	-2.8615812e-10	0.047658946	0.04765895	0	76010.95	76010.77	-4.125e-05	635939.7	254117.33	-0.00017564403	254118.25	635938.6	-0.00026346603
0	0.6356237	0.6356222	-2.8615812e-10	0.047517676	0.047517676	0	75995.164	75995	-3.4375e-05	636028.5	253843.67	0	253844.69	636027.5	-0.00038788057
0	0.6354891	0.6354878	-9.771253e-11	0.047376227	0.047376227	0	75979.086	75978.914	-8.75e-06	636119.8	253564.08	-7.318501e-05	253565	636118.8	-3.6592505e-06
0	0.63535225	0.6353508	-7.049261e-10	0.04723464	0.047234632	0	75962.71	75962.55	-8.375e-05	636211.1	253281	-0.0005342506	253281.97	636210.1	-0.00051961356
0	0.6352177	0.6352163	-5.7231625e-10	0.047093365	0.047093365	0	75946.625	75946.45	-6.125e-05	636301.2	253002.58	-0.00035128806	253003.58	636300.25	-0.00038788057
0	0.63508236	0.63508093	-3.8387066e-10	0.046951856	0.046951856	0	75930.45	75930.27	-4.25e-05	636391.9	252722.52	-0.00030737705	252723.5	636390.9	-0.00021955503
0	0.6349468	0.6349454	-2.4428132e-10	0.04681048	0.046810478	0	75914.24	75914.06	-2.625e-05	636483	252441.55	-0.00022687354	252442.53	636481.94	-0.00011343677
0	0.634811	0.63480955	-4.4668585e-10	0.046669014	0.046669014	0	75898.01	75897.83	-4.75e-05	636573.5	252160.92	-0.00026346603	252161.92	636572.5	-0.00036592505
0	0.6346738	0.63467234	-2.7917865e-10	0.046527762	0.04652776	0	75881.6	75881.43	-2.75e-05	636664.44	251877.8	-0.00023419203	251878.8	636663.56	-9.5140516e-05
0	0.63453746	0.634536	-4.18768e-11	0.04638618	0.04638618	0	75865.3	75865.13	-1e-05	636755.06	251596.47	-0.00019211066	251597.45	636753.94	2.1955504e-05
0	0.6343995	0.63439804	-2.09384e-10	0.04624471	0.04624471	0	75848.805	75848.63	-2.625e-05	636846.4	251312.05	-0.00017564403	251313.05	636845.25	-9.879976e-05
0	0.634262	0.63426065	-2.5824026e-10	0.04610345	0.04610345	0	75832.37	75832.195	-3.5e-05	636937.4	251028.48	-0.00023419203	251029.47	636936.4	-0.00016100703
0	0.6341241	0.6341227	-6.9794665e-12	0.045961928	0.045961935	0	75815.875	75815.7	1.25e-06	637028.2	250744.58	-3.2933254e-05	250745.56	637027.1	3.6592505e-06
0	0.6339855	0.6339841	-3.2105546e-10	0.04582056	0.04582056	0	75799.31	75799.14	-4.0625e-05	637119.56	250459.25	-0.00032201406	250460.23	637118.5	-0.00021223654
0	0.6338467	0.6338452	-8.37536e-11	0.045679096	0.045679096	0	75782.71	75782.53	-1.75e-05	637210.8	250173.61	2.9274004e-05	250174.6	637209.75	-0.00014637002
0	0.6337076	0.63370615	-5.025216e-10	0.04553762	0.04553763	0	75766.08	75765.91	-5.6875e-05	637301.9	249887.75	-0.00046838407	249888.78	637300.8	-0.00023419203
0	0.6335686	0.6335671	-5.9325467e-10	0.045396265	0.045396265	0	75749.46	75749.28	-6.625e-05	637392.9	249602.06	-0.00046838407	249603.1	637391.9	-0.00034945842
0	0.6334289	0.6334274	-1.256304e-10	0.04525479	0.04525479	0	75732.75	75732.586	-1.5e-05	637484	249315.38	-0.00011709602	249316.39	637482.94	-2.9274004e-05
0	0.6332887	0.6332872	-3.4897332e-10	0.04511347	0.04511347	0	75715.99	75715.81	-4.625e-05	637575.6	249027.55	-0.00032018442	249028.55	637574.5	-0.00024882905
0	0.63314676	0.63314533	-9.771253e-11	0.044972	0.044972	0	75699.03	75698.86	-1.25e-05	637666.4	248738.1	-5.854801e-05	248739.12	637665.4	-8.0503516e-05
0	0.6330072	0.63300574	-8.37536e-11	0.04483065	0.04483065	0	75682.35	75682.18	-1.625e-05	637757.75	248451.42	-4.3911008e-05	248452.42	637756.7	-0.00010977752
0	0.63286525	0.63286376	-2.6521974e-10	0.044689175	0.044689175	0	75665.375	75665.2	-3.375e-05	637849.94	248160.39	-0.00024151054	248161.44	637848.94	-0.00017930327
0	0.63272446	0.632723	4.18768e-11	0.044547684	0.044547684	0	75648.53	75648.35	-6.25e-07	637941.06	247872.17	-0.00013173302	247873.22	637939.9	0.00017198478
0	0.63258314	0.63258165	-4.18768e-11	0.04440635	0.04440635	0	75631.63	75631.45	-5e-06	638031.94	247583.45	7.318501e-05	247584.5	638030.75	-9.879976e-05
0	0.6324406	0.632439	-2.7917865e-10	0.044264823	0.044264823	0	75614.59	75614.414	-3.875e-05	638124.1	247291.62	-0.00023053278	247292.66	638123.1	-0.00024882905