# t (s)	mx ()	my ()	mz ()	B_extx (T)	B_exty (T)	B_extz (T)	m_fullx (A/m)	m_fully (A/m)	m_fullz (A/m)	m_full.region1x (A/m)	m_full.region1y (A/m)	m_full.region1z (A/m)	m_full.region2x (A/m)	m_full.region2y (A/m)	m_full.region2z (A/m)
0	0.6488301	0.64882994	-2.3586866e-10	0.070710905	0.07071091	0	70191.625	70191.62	-2.5826446e-05	633276.44	275085.84	-0.00014037434	275085.72	633276.1	-0.0002406417
0	0.64873594	0.6487355	-4.2711348e-10	0.070569135	0.070569135	0	70181.43	70181.4	-4.752066e-05	633356.9	274873.3	-0.00037433155	274873.47	633356.56	-0.0002406417
0	0.64863735	0.648637	-4.1436385e-10	0.07042785	0.07042785	0	70170.77	70170.73	-4.338843e-05	633443.94	274648.25	-0.0003475936	274648.34	633443.56	-0.00023395722
0	0.6485388	0.6485385	-5.7373453e-11	0.070286535	0.07028653	0	70160.11	70160.07	-1.0330578e-05	633530.8	274423.3	-7.352941e-05	274423.47	633530.44	-2.6737967e-05
0	0.6484395	0.64843917	-2.2949381e-10	0.07014484	0.07014484	0	70149.37	70149.33	-2.4793388e-05	633618.2	274197.1	-0.0002473262	274197.22	633617.75	-8.0213904e-05
0	0.6483407	0.6483403	-3.8886452e-10	0.07000351	0.07000352	0	70138.67	70138.63	-4.1322313e-05	633704.8	273971.97	-0.0003475936	273972.06	633704.4	-0.00026069517
0	0.6482413	0.64824086	-2.9961694e-10	0.069862306	0.069862306	0	70127.92	70127.88	-3.2024793e-05	633791.56	273746.12	-0.0001737968	273746.25	633791.1	-0.00029411764
0	0.6481417	0.64814126	-1.4024622e-10	0.06972053	0.06972053	0	70117.15	70117.11	-1.6528926e-05	633878.1	273520.2	-0.00012032085	273520.34	633877.7	-0.000113636364
0	0.6480403	0.64803994	-2.932421e-10	0.06957921	0.06957921	0	70106.18	70106.14	-2.7892562e-05	633966.94	273289.34	-0.0002473262	273289.44	633966.56	-0.0001737968
0	0.6479415	0.6479412	-2.5499314e-10	0.069437936	0.069437936	0	70095.484	70095.445	-2.1694215e-05	634053.25	273064.78	-0.00018048128	273064.94	634052.8	-0.0001737968
0	0.6478406	0.64784026	-4.2711348e-10	0.0692966	0.0692966	0	70084.586	70084.54	-4.442149e-05	634140.4	272836.4	-0.00029411764	272836.53	634140	-0.0003475936
0	0.6477397	0.6477393	-2.3586866e-10	0.069154926	0.069154926	0	70073.66	70073.62	-2.9958677e-05	634227.94	272607.47	-0.0002406417	272607.62	634227.5	-0.00015374331
0	0.6476397	0.6476393	-2.5499313e-11	0.069013596	0.069013596	0	70062.84	70062.79	-4.1322314e-06	634315.56	272379.9	0	272379.97	634315.1	-2.0053476e-05
0	0.64753836	0.6475379	-2.7411762e-10	0.06887227	0.06887227	0	70051.875	70051.836	-3.0991734e-05	634403.06	272150.53	-0.00018716577	272150.7	634402.6	-0.00021390374
0	0.64743584	0.6474355	-2.7411762e-10	0.0687306	0.0687306	0	70040.8	70040.75	-2.9958677e-05	634491.56	271918.53	-0.0001737968	271918.66	634491.2	-0.0002406417
0	0.6473351	0.64733475	-3.5061556e-10	0.06858926	0.06858927	0	70029.9	70029.85	-3.92562e-05	634578.94	271690.1	-0.00027406416	271690.2	634578.56	-0.00028074867
0	0.64723366	0.64723325	-4.717373e-10	0.06844801	0.06844801	0	70018.914	70018.875	-5.268595e-05	634666.5	271460.5	-0.00039438502	271460.66	634666	-0.00030748663
0	0.6471306	0.64713025	-3.5699038e-10	0.06830669	0.068306684	0	70007.77	70007.73	-3.512397e-05	634754.9	271227.9	-0.0002473262	271228.03	634754.44	-0.00026069517
0	0.64702934	0.6470289	-1.9761968e-10	0.068165004	0.068165004	0	69996.81	69996.77	-2.2727272e-05	634842	270999.03	-0.00027406416	270999.12	634841.56	-3.6764704e-05
0	0.64692724	0.6469268	-1.14746906e-10	0.06802368	0.06802368	0	69985.76	69985.72	-1.0330578e-05	634929.6	270768.34	-5.3475935e-05	270768.53	634929.2	-9.358289e-05
0	0.6468241	0.6468237	-4.717373e-10	0.067882344	0.067882344	0	69974.61	69974.56	-4.9586775e-05	635017.94	270535.7	-0.00037433155	270535.8	635017.56	-0.0003475936
0	0.6467202	0.64671975	-2.1674416e-10	0.06774067	0.06774067	0	69963.36	69963.32	-2.2727272e-05	635106.7	270301.4	-8.68984e-05	270301.53	635106.25	-0.00026069517
0	0.646618	0.6466176	-3.0599176e-10	0.06759931	0.06759931	0	69952.31	69952.266	-3.2024793e-05	635194.3	270070.75	-0.00023395722	270070.88	635193.8	-0.00020053476
0	0.6465149	0.64651453	-1.9761968e-10	0.06745811	0.06745811	0	69941.16	69941.11	-2.0661157e-05	635281.9	269838.88	-6.0160426e-05	269839.03	635281.4	-0.00026069517
0	0.6464095	0.64640903	-4.3986315e-10	0.06731677	0.06731677	0	69929.75	69929.7	-4.752066e-05	635371.75	269601.34	-0.00036096256	269601.5	635371.3	-0.00028743315
0	0.64630705	0.6463067	-3.9523937e-10	0.06717497	0.06717497	0	69918.67	69918.63	-4.338843e-05	635458.8	269371	-0.00038101606	269371.12	635458.4	-0.00021390374
0	0.64620304	0.6462026	-3.378659e-10	0.06703377	0.06703377	0	69907.42	69907.38	-3.305785e-05	635547.3	269136.94	-0.00021390374	269137.1	635546.8	-0.00026737968
0	0.64609826	0.6460979	-3.824897e-10	0.06689243	0.06689243	0	69896.09	69896.05	-4.0289255e-05	635636	268901.47	-0.0003409091	268901.62	635635.56	-0.00023395722
0	0.64599407	0.6459937	-3.1236658e-10	0.06675072	0.06675072	0	69884.81	69884.77	-3.2024793e-05	635724.25	268667.38	-0.00032085562	268667.5	635723.8	-0.00015374331
0	0.64588916	0.64588875	-5.227359e-10	0.0666094	0.0666094	0	69873.46	69873.42	-5.9917355e-05	635812.44	268432.22	-0.00045454546	268432.34	635812	-0.0003342246
0	0.64578396	0.6457836	-1.0837208e-10	0.06646818	0.06646818	0	69862.086	69862.05	-7.231405e-06	635901.2	268196.2	-4.6791443e-05	268196.34	635900.75	-6.684492e-05
0	0.6456792	0.6456787	-1.338714e-10	0.06632638	0.06632638	0	69850.74	69850.695	-1.1363636e-05	635989.9	267960.75	-8.68984e-05	267960.9	635989.44	-6.684492e-05
0	0.64557225	0.6455718	-2.677428e-10	0.06618506	0.06618506	0	69839.17	69839.13	-2.5826446e-05	636079.44	267721.44	-0.00016042781	267721.6	636079.1	-0.00022058823
0	0.64546704	0.6454667	-2.1674416e-10	0.06604385	0.06604385	0	69827.8	69827.75	-2.376033e-05	636168.2	267485.5	-0.00016042781	267485.66	636167.75	-0.00015374331
0	0.6453612	0.6453608	-3.1874142e-10	0.06590248	0.06590248	0	69816.35	69816.305	-3.409091e-05	636256.6	267248.9	-0.00023395722	267249.06	636256.2	-0.00026737968
0	0.6452551	0.6452546	-1.338714e-10	0.06576081	0.06576081	0	69804.875	69804.83	-9.297521e-06	636345.4	267011.62	-0.00010026738	267011.8	636345	-7.352941e-05
0	0.64514834	0.6451479	-2.5499313e-11	0.06561947	0.065619476	0	69793.32	69793.27	-6.198347e-06	636433.94	266773.62	-0.00010026738	266773.78	636433.44	4.0106952e-05
0	0.64504164	0.6450411	-2.4224348e-10	0.06547826	0.06547826	0	69781.77	69781.73	-2.6859505e-05	636523.56	266534.47	-0.0003275401	266534.62	636523.1	-6.0160426e-05
0	0.6449344	0.644934	-2.7411762e-10	0.06533646	0.06533646	0	69770.17	69770.125	-2.2727272e-05	636612.94	266295.03	-0.00028074867	266295.2	636612.56	-0.00010026738
0	0.64482754	0.64482707	-3.7611486e-10	0.065195136	0.065195136	0	69758.61	69758.57	-4.0289255e-05	636701.7	266056.66	-0.0002540107	266056.84	636701.25	-0.0002540107
0	0.64471936	0.6447189	-2.9961694e-10	0.06505393	0.065053925	0	69746.914	69746.87	-3.0991734e-05	636790.56	265816.44	-0.00030748663	265816.62	636790.06	-0.00012700535
0	0.64461184	0.6446114	-4.46238e-10	0.064912565	0.064912565	0	69735.28	69735.234	-4.5454544e-05	636880.7	265575.78	-0.0003409091	265575.9	636880.25	-0.00030748663
0	0.6445042	0.6445038	-2.486183e-10	0.064770885	0.064770885	0	69723.63	69723.59	-2.376033e-05	636969.8	265335.9	-0.00023395722	265336.1	636969.3	-0.00014037434
0	0.6443952	0.64439476	-5.099863e-10	0.06462956	0.06462956	0	69711.836	69711.79	-5.5785124e-05	637060.06	265092.97	-0.00036764707	265093.2	637059.6	-0.00038101606
0	0.64428735	0.6442869	-5.673597e-10	0.064488225	0.06448822	0	69700.18	69700.125	-6.301653e-05	637148.9	264853.16	-0.0005080214	264853.34	637148.56	-0.0003475936
0	0.64417666	0.6441762	-2.039945e-10	0.064346544	0.064346544	0	69688.195	69688.15	-1.8595041e-05	637239.94	264607.12	-0.00020721926	264607.28	637239.56	-7.352941e-05
0	0.64406955	0.6440691	-5.6098487e-10	0.064205214	0.064205214	0	69676.6	69676.555	-5.8884296e-05	637327.94	264369.22	-0.00038101606	264369.4	637327.5	-0.000434492
0	0.6439598	0.6439594	-3.1874142e-10	0.06406397	0.06406397	0	69664.75	69664.7	-3.512397e-05	637417.9	264125.7	-0.00018716577	264125.88	637417.44	-0.00030748663
0	0.64385056	0.64385015	-1.2112174e-10	0.06392263	0.06392263	0	69652.92	69652.875	-1.446281e-05	637507.4	263883.25	-0.00010695187	263883.4	637506.94	-6.684492e-05
0	0.64374065	0.6437402	-3.3149108e-10	0.06378097	0.06378097	0	69641.03	69640.984	-3.409091e-05	637597.7	263639	-0.0003342246	263639.22	637597.2	-0.00010695187
0	0.64363074	0.6436303	-3.8886452e-10	0.06363963	0.06363963	0	69629.15	69629.09	-4.1322313e-05	637686.8	263396.12	-0.0003342246	263396.28	637686.3	-0.0002406417
0	0.6435204	0.64352	-3.1236658e-10	0.063498296	0.063498296	0	69617.22	69617.17	-3.512397e-05	637776.7	263151.8	-0.00037433155	263152	637776.25	-0.000113636364
0	0.6434085	0.64340806	-3.4424072e-10	0.06335664	0.06335664	0	69605.1	69605.055	-4.0289255e-05	637868.6	262903.12	-0.00027406416	262903.28	637868.2	-0.0003275401
0	0.6432987	0.64329827	-2.9961694e-10	0.06321528	0.06321528	0	69593.23	69593.18	-3.2024793e-05	637958	262660	-0.00027406416	262660.16	637957.56	-0.00018048128
0	0.6431878	0.64318734	-1.8487002e-10	0.06307405	0.06307405	0	69581.23	69581.18	-1.6528926e-05	638048.06	262414.8	-8.68984e-05	262414.97	638047.56	-0.00018048128
0	0.64307624	0.6430758	-4.781121e-10	0.062932715	0.062932715	0	69569.16	69569.11	-5.371901e-05	638138.5	262168	-0.00039438502	262168.16	638138.06	-0.0003409091
0	0.6429653	0.6429648	-3.0599176e-10	0.062790945	0.062790945	0	69557.15	69557.1	-3.0991734e-05	638228.25	261922.98	-0.00018048128	261923.19	638227.75	-0.0002473262
0	0.6428527	0.64285225	-1.5937071e-10	0.06264971	0.06264972	0	69544.98	69544.93	-1.6528926e-05	638318.25	261675.38	-0.00014705882	261675.56	638317.7	-4.6791443e-05
0	0.6427406	0.64274	-2.8686728e-10	0.062508374	0.062508374	0	69532.84	69532.79	-3.0991734e-05	638408.56	261428.05	-0.00019385027	261428.22	638408.06	-0.00022058823
0	0.64262676	0.6426263	-5.546101e-10	0.06236669	0.06236669	0	69520.53	69520.48	-5.5785124e-05	638501.25	261175.98	-0.00038770054	261176.19	638500.75	-0.00040106953
0	0.6425158	0.6425153	-2.9961694e-10	0.062225346	0.062225346	0	69508.52	69508.47	-3.305785e-05	638590.25	260931.69	-0.00028743315	260931.88	638589.75	-0.00014371658
0	0.6424032	0.6424026	-3.378659e-10	0.06208414	0.06208414	0	69496.34	69496.29	-3.7190082e-05	638680.56	260683.62	-0.0003342246	260683.78	638680.1	-0.00013368984
0	0.6422876	0.6422872	-1.4024622e-10	0.061942354	0.061942354	0	69483.84	69483.8	-1.446281e-05	638773.4	260429.16	-0.00014705882	260429.34	638772.9	-6.684492e-05
0	0.6421761	0.6421757	-2.039945e-10	0.06180101	0.06180101	0	69471.78	69471.734	-1.8595041e-05	638862.44	260184.03	-0.00012700535	260184.22	638861.94	-0.00016042781
0	0.64206225	0.64206177	-6.1835836e-10	0.061659798	0.061659798	0	69459.46	69459.4	-6.198347e-05	638953.7	259933.23	-0.0004812834	259933.42	638953.25	-0.000407754
0	0.6419488	0.64194834	-2.7411762e-10	0.061518423	0.061518427	0	69447.195	69447.14	-2.892562e-05	639044	259684.19	-0.00014037434	259684.38	639043.44	-0.0002473262
0	0.6418347	0.64183414	-3.0599176e-10	0.061376773	0.061376773	0	69434.84	69434.79	-2.892562e-05	639134.56	259433.73	-0.0002473262	259433.94	639134.1	-0.00018048128
0	0.6417196	0.64171904	-2.5499314e-10	0.061235428	0.061235428	0	69422.38	69422.33	-2.7892562e-05	639225.25	259181.92	-0.0001671123	259182.16	639224.8	-0.00021390374
0	0.64160436	0.6416039	-1.8487002e-10	0.06109409	0.06109409	0	69409.93	69409.875	-2.4793388e-05	639316.5	258929.36	-0.00010695187	258929.58	639316.06	-0.0002473262
0	0.64148784	0.64148736	-5.9285904e-10	0.060952455	0.06095245	0	69397.32	69397.266	-6.4049585e-05	639409.94	258672.86	-0.0005815508	258673.02	639409.5	-0.00036764707
0	0.6413746	0.6413741	-2.23119e-10	0.060811095	0.060811095	0	69385.07	69385.02	-2.2727272e-05	639499.4	258424.86	-0.00023395722	258425.08	639498.94	-0.00012700535
0	0.6412587	0.6412582	-1.9124485e-10	0.06066985	0.06066985	0	69372.53	69372.48	-2.4793388e-05	639591.25	258170.77	-0.00027406416	258170.98	639590.75	-5.3475935e-05
0	0.6411433	0.64114285	-1.7849519e-10	0.060528502	0.060528506	0	69360.055	69360	-1.96281e-05	639682.1	257918.39	-7.352941e-05	257918.58	639681.56	-0.00020053476
0	0.6410271	0.6410266	-1.7849519e-10	0.060386855	0.060386855	0	69347.49	69347.43	-1.7561984e-05	639772.6	257665.17	-0.000113636364	257665.42	639772.1	-0.00016042781
0	0.64091057	0.64091	-2.677428e-10	0.06024551	0.06024551	0	69334.86	69334.81	-3.2024793e-05	639864.94	257409.61	-0.0001671123	257409.83	639864.44	-0.00026069517
0	0.64079386	0.6407933	-2.9961694e-10	0.06010417	0.06010417	0	69322.24	69322.19	-3.305785e-05	639956.3	257154.92	-0.00023395722	257155.12	639955.8	-0.00020721926
0	0.64067686	0.64067626	-8.9247595e-11	0.059962522	0.059962522	0	69309.586	69309.53	-6.198347e-06	640048.2	256899.17	6.684492e-06	256899.39	640047.6	-0.00012032085
0	0.6405594	0.64055884	-2.1674416e-10	0.059821144	0.059821144	0	69296.875	69296.82	-2.376033e-05	640140.2	256642.62	-0.00018716577	256642.84	640139.6	-0.00013368984
0	0.6404423	0.6404418	-2.486183e-10	0.05967993	0.05967993	0	69284.21	69284.164	-2.9958677e-05	640231.44	256387.6	-0.0001737968	256387.81	640230.94	-0.00019385027
0	0.6403238	0.64032334	-2.8686728e-10	0.05953857	0.05953857	0	69271.41	69271.35	-3.7190082e-05	640323.75	256129.5	-0.00020053476	256129.7	640323.25	-0.0002540107
0	0.64020693	0.64020634	-4.2073867e-10	0.05939681	0.05939681	0	69258.74	69258.69	-4.752066e-05	640414.75	255874.62	-0.0003342246	255874.84	640414.2	-0.0003342246
0	0.64008814	0.6400876	-5.673597e-10	0.059255596	0.059255596	0	69245.91	69245.84	-5.9917355e-05	640506.1	255617.12	-0.000421123	255617.34	640505.56	-0.00038770054
0	0.6399691	0.6399685	-3.2511624e-10	0.05911423	0.05911423	0	69233.016	69232.96	-3.409091e-05	640598.1	255358.3	-0.00020721926	255358.55	640597.56	-0.00027406416
0	0.6398499	0.6398494	-2.8049243e-10	0.05897258	0.05897258	0	69220.125	69220.07	-3.305785e-05	640690.4	255099.23	-0.00020721926	255099.45	640690	-0.00020721926
0	0.63973016	0.6397297	-4.3348833e-10	0.05883123	0.05883123	0	69207.17	69207.11	-4.6487603e-05	640784.1	254837.92	-0.000434492	254838.14	640783.6	-0.00022727273
0	0.63961214	0.6396116	-2.23119e-10	0.058689997	0.058689997	0	69194.41	69194.34	-2.4793388e-05	640874.9	254581.89	-0.00016042781	254582.14	640874.4	-0.00018048128
0	0.6394916	0.63949114	-2.8686728e-10	0.058548246	0.058548246	0	69181.375	69181.32	-2.892562e-05	640967.94	254320.14	-0.00023395722	254320.39	640967.44	-0.0001671123
0	0.639372	0.6393715	-2.7411762e-10	0.058406897	0.058406897	0	69168.42	69168.37	-3.2024793e-05	641059.7	254060.86	-0.00027406416	254061.08	641059.2	-0.000113636364
0	0.63925177	0.6392512	-3.5061556e-10	0.058265675	0.058265675	0	69155.414	69155.36	-3.305785e-05	641152.2	253800.05	-0.0002473262	253800.27	641151.6	-0.0002473262
0	0.63913065	0.6391301	-5.8010935e-10	0.05812428	0.05812428	0	69142.32	69142.266	-5.9917355e-05	641245.06	253537.61	-0.0003475936	253537.86	641244.56	-0.00052139035
0	0.63900995	0.6390094	-4.3348833e-10	0.057982665	0.05798266	0	69129.266	69129.21	-4.9586775e-05	641337.44	253276.36	-0.00030080214	253276.55	641336.94	-0.0003475936
0	0.6388889	0.6388884	-3.0599176e-10	0.057841305	0.057841305	0	69116.16	69116.11	-3.305785e-05	641429.5	253014.72	-0.0003342246	253014.9	641429	-0.00010695187
0	0.6387675	0.63876694	-2.3586866e-10	0.05769995	0.05769995	0	69103.03	69102.97	-2.2727272e-05	641522.44	252751.89	-0.00016042781	252752.14	641521.8	-0.00018048128
0	0.6386456	0.6386451	-9.562243e-11	0.057558335	0.057558335	0	69089.84	69089.78	-1.1363636e-05	641615.2	252488.45	-0.00018048128	252488.67	641614.6	1.3368984e-05
0	0.6385234	0.63852286	-3.9523937e-10	0.05741697	0.05741698	0	69076.625	69076.57	-4.5454544e-05	641708	252224.6	-0.0002473262	252224.83	641707.44	-0.0003409091
0	0.63840127	0.63840073	-4.6536247e-10	0.057275716	0.057275716	0	69063.41	69063.35	-5.268595e-05	641800.6	251960.92	-0.000407754	251961.17	641800.1	-0.00029411764
0	0.63827896	0.6382783	-6.566073e-10	0.057134356	0.057134356	0	69050.17	69050.12	-7.128099e-05	641892.56	251697.64	-0.00052807486	251697.86	641892.06	-0.00042780748
0	0.63815415	0.6381537	-1.2112174e-10	0.056992743	0.056992743	0	69036.67	69036.62	-9.297521e-06	641987.7	251427.92	-5.3475935e-05	251428.14	641987.2	-0.000113636364
0	0.6380327	0.6380322	-3.9523937e-10	0.05685139	0.056851383	0	69023.54	69023.484	-4.2355372e-05	642079.1	251166.5	-0.0003342246	251166.72	642078.6	-0.00026069517
0	0.6379097	0.63790923	-1.7849519e-10	0.05671003	0.05671003	0	69010.24	69010.18	-1.96281e-05	642171.75	250901.77	-0.00020053476	250901.95	642171.2	-4.0106952e-05
0	0.63778526	0.6377846	-3.824897e-10	0.05656841	0.05656841	0	68996.766	68996.7	-3.92562e-05	642264.7	250634.3	-0.0002473262	250634.55	642264.25	-0.00029411764
0	0.63766134	0.63766074	-2.8049243e-10	0.056427028	0.056427028	0	68983.37	68983.3	-3.0991734e-05	642357.6	250368.03	-0.0002473262	250368.28	642357.1	-0.00018716577
0	0.6375351	0.6375346	-4.526128e-10	0.0562858	0.0562858	0	68969.7	68969.64	-4.752066e-05	642453.4	250095.55	-0.00032085562	250095.8	642452.9	-0.0003275401
0	0.6374121	0.6374115	-2.932421e-10	0.05614443	0.05614443	0	68956.39	68956.33	-3.409091e-05	642545.25	249831.3	-0.00022727273	249831.58	642544.75	-0.00028743315
0	0.63728726	0.6372868	-3.4424072e-10	0.05600269	0.05600269	0	68942.9	68942.836	-3.92562e-05	642638.5	249563.36	-0.00030080214	249563.64	642638.06	-0.00023395722
0	0.63716274	0.6371621	-3.2511624e-10	0.055861466	0.055861462	0	68929.414	68929.35	-3.822314e-05	642730.94	249296.55	-0.00037433155	249296.8	642730.44	-0.00011697861
0	0.63703614	0.63703567	-2.3586866e-10	0.0557201	0.0557201	0	68915.734	68915.67	-2.4793388e-05	642825.06	249025.4	-0.00021390374	249025.62	642824.5	-0.00010695187
0	0.6369101	0.63690954	2.2949381e-10	0.0555785	0.055578496	0	68902.09	68902.03	2.376033e-05	642918.4	248755.47	4.0106952e-05	248755.72	642917.94	0.00026737968
0	0.6367842	0.63678366	-2.23119e-10	0.055437103	0.055437114	0	68888.48	68888.414	-2.2727272e-05	643011.9	248485.75	-4.0106952e-05	248486	643011.4	-0.0002473262
0	0.6366565	0.63665587	-4.6536247e-10	0.055295877	0.055295877	0	68874.66	68874.59	-4.752066e-05	643107.56	248211.3	-0.00037433155	248211.58	643107.06	-0.00029411764
0	0.6365315	0.6365309	-5.7373453e-11	0.05515451	0.055154506	0	68861.13	68861.07	-1.0330578e-05	643199.5	247944.3	-0.00014037434	247944.56	643198.94	2.0053476e-05
0	0.636404	0.63640344	-4.526128e-10	0.055012774	0.055012777	0	68847.34	68847.28	-4.855372e-05	643293.5	247671.88	-0.00030748663	247672.14	643292.94	-0.00035427808
0	0.63627577	0.6362753	-3.1874142e-10	0.05487154	0.05487154	0	68833.47	68833.414	-3.512397e-05	643388.4	247397.53	-0.0002406417	247397.77	643387.9	-0.00021390374
0	0.6361491	0.6361486	-3.1874142e-10	0.054730177	0.054730177	0	68819.766	68819.7	-3.305785e-05	643481.3	247127.12	-0.00018716577	247127.39	643480.75	-0.0002473262
0	0.63602084	0.63602024	-3.0599176e-10	0.054588553	0.054588553	0	68805.88	68805.83	-3.6157024e-05	643575.5	246853.38	-0.00019385027	246853.62	643574.94	-0.00026737968
0	0.63589257	0.635892	-6.1835836e-10	0.05444718	0.05444718	0	68792.016	68791.95	-6.4049585e-05	643669.56	246579.83	-0.00044117647	246580.08	643669	-0.00047459893
0	0.63576454	0.6357639	-1.5937071e-10	0.054305963	0.054305963	0	68778.164	68778.1	-1.8595041e-05	643762.94	246307.16	-0.00021390374	246307.4	643762.4	-1.3368984e-05
0	0.63563514	0.6356345	-3.824897e-10	0.05416423	0.05416423	0	68764.16	68764.09	-4.1322313e-05	643857.75	246031.11	-0.00023395722	246031.42	643857.2	-0.0003275401
0	0.6355055	0.6355049	-3.378659e-10	0.054022845	0.054022845	0	68750.14	68750.08	-3.92562e-05	643951.9	245755.53	-0.0003275401	245755.84	643951.3	-0.00019385027
0	0.6353743	0.63537365	-3.3149108e-10	0.053881627	0.053881627	0	68735.945	68735.88	-3.6157024e-05	644048.4	245475.33	-0.0002473262	245475.64	644047.8	-0.00026069517
0	0.6352461	0.63524556	-7.012311e-11	0.053740222	0.053740222	0	68722.08	68722.016	-1.0330578e-05	644141.3	245202.98	-0.00010695187	245203.27	644140.75	-4.0106952e-05
0	0.6351156	0.63511497	-2.8049243e-10	0.05359863	0.05359863	0	68707.95	68707.9	-3.0991734e-05	644235.94	244925.62	-0.00022727273	244925.88	644235.3	-0.00018716577
0	0.63498557	0.63498497	-2.3586866e-10	0.053457264	0.053457264	0	68693.9	68693.83	-2.4793388e-05	644330.1	244649.45	-0.00015374331	244649.73	644329.5	-0.00022727273
0	0.6348549	0.6348543	-3.5061556e-10	0.053315885	0.053315885	0	68679.76	68679.695	-3.92562e-05	644424.25	244372.39	-0.00030080214	244372.67	644423.7	-0.00021390374
0	0.6347217	0.63472116	-1.7849519e-10	0.053174306	0.053174306	0	68665.35	68665.29	-1.96281e-05	644521	244089.2	-0.0001671123	244089.52	644520.4	-8.0213904e-05
0	0.6345923	0.63459164	-2.9961694e-10	0.05303294	0.05303294	0	68651.34	68651.28	-3.0991734e-05	644613.75	243815.14	-0.00028743315	243815.4	644613.06	-0.00012700535
0	0.6344585	0.63445795	-2.5499314e-10	0.05289167	0.052891675	0	68636.875	68636.81	-2.6859505e-05	644710.44	243531.16	-0.0002406417	243531.45	644709.9	-0.0001671123
0	0.6343277	0.63432705	-3.1874142e-10	0.052750282	0.052750286	0	68622.73	68622.66	-3.305785e-05	644804.2	243254.27	-0.00032085562	243254.56	644803.56	-0.00019385027
0	0.63419616	0.63419557	-4.2711348e-10	0.05260872	0.05260872	0	68608.49	68608.43	-4.6487603e-05	644898.25	242976.06	-0.00036764707	242976.39	644897.7	-0.00028074867
0	0.63406307	0.6340625	-3.7611486e-10	0.052467346	0.052467342	0	68594.1	68594.03	-4.0289255e-05	644993.1	242694.95	-0.00035427808	242695.25	644992.56	-0.00018716577
0	0.63393027	0.63392967	-4.781121e-10	0.052325953	0.052325953	0	68579.73	68579.664	-5.371901e-05	645087.94	242414.17	-0.00044117647	242414.48	645087.4	-0.0002406417
0	0.63379616	0.6337956	-2.2949381e-10	0.052184395	0.05218439	0	68565.23	68565.16	-2.0661157e-05	645183.4	242131.05	-0.00020721926	242131.31	645182.75	-9.358289e-05
0	0.6336628	0.6336623	-4.781121e-10	0.052042976	0.05204298	0	68550.8	68550.734	-4.9586775e-05	645278.94	241848.88	-0.0003409091	241849.14	645278.25	-0.00036764707
0	0.63352877	0.6335281	-3.6974004e-10	0.051901743	0.051901743	0	68536.3	68536.23	-4.1322313e-05	645373.94	241566.12	-0.00022727273	241566.39	645373.3	-0.00032085562
0	0.6333924	0.6333917	-2.1036933e-10	0.051760364	0.051760364	0	68521.54	68521.46	-2.4793388e-05	645471.3	241277.7	-0.00014705882	241278	645470.75	-0.00018716577
0	0.6332603	0.6332597	-5.6098487e-10	0.05161865	0.05161865	0	68507.26	68507.19	-5.9917355e-05	645564	241000.16	-0.00054812833	241000.45	645563.44	-0.0003342246
0	0.6331247	0.63312405	-7.649794e-11	0.051477425	0.051477425	0	68492.586	68492.516	-1.0330578e-05	645659.6	240714.61	-0.00026069517	240714.9	645659.2	0.00010695187
0	0.6329895	0.6329889	-2.677428e-10	0.051336035	0.051336035	0	68477.96	68477.88	-2.6859505e-05	645755.44	240429.64	-0.0002406417	240429.97	645754.8	-0.00019385027
0	0.63285404	0.6328534	-2.932421e-10	0.05119444	0.051194444	0	68463.3	68463.234	-3.0991734e-05	645850.8	240144.56	-0.0002473262	240144.86	645850.2	-0.00020721926
0	0.6327178	0.6327172	-3.378659e-10	0.051053066	0.051053066	0	68448.56	68448.5	-3.7190082e-05	645946.2	239858.39	-0.00026737968	239858.72	645945.7	-0.00028074867
0	0.63258165	0.63258094	-3.7611486e-10	0.05091182	0.05091182	0	68433.83	68433.76	-3.92562e-05	646041.94	239571.97	-0.0002540107	239572.3	646041.4	-0.00030748663
0	0.6324444	0.6324438	-3.5061556e-10	0.050770126	0.05077012	0	68418.984	68418.914	-3.7190082e-05	646137.75	239284.05	-0.00020721926	239284.34	646137.1	-0.00026069517
0	0.63230795	0.63230723	-2.6136796e-10	0.050628737	0.050628737	0	68404.22	68404.14	-2.9958677e-05	646233.44	238997.3	-0.00030748663	238997.62	646232.8	-8.0213904e-05
0	0.63217086	0.63217014	-1.4024622e-10	0.0504875	0.0504875	0	68389.39	68389.31	-1.6528926e-05	646329.06	238709.73	-0.00012032085	238710.06	646328.56	-0.00010026738
0	0.6320327	0.6320321	-3.1236658e-10	0.050346084	0.05034608	0	68374.45	68374.38	-3.2024793e-05	646425.25	238420.28	-0.00042780748	238420.58	646424.7	-2.6737967e-05
0	0.63189465	0.631894	-3.3149108e-10	0.050204538	0.050204538	0	68359.51	68359.44	-3.6157024e-05	646521.56	238130.66	-0.00022058823	238130.95	646520.94	-0.0002540107
0	0.6317562	0.6317556	-6.502325e-10	0.050063137	0.05006314	0	68344.54	68344.46	-7.231405e-05	646617.06	237841.25	-0.00055481284	237841.62	646616.5	-0.00041443852
0	0.63161725	0.63161653	-3.9523937e-10	0.049921747	0.049921747	0	68329.5	68329.42	-4.5454544e-05	646713.56	237550.2	-0.00032085562	237550.56	646712.94	-0.00028743315
0	0.6314771	0.6314764	-5.9285904e-10	0.049780212	0.049780212	0	68314.34	68314.266	-6.714876e-05	646811.56	237255.98	-0.00052139035	237256.34	646811	-0.00036764707
0	0.6313392	0.63133854	-2.486183e-10	0.04963881	0.04963881	0	68299.42	68299.35	-2.376033e-05	646905.7	236968.84	-0.00026737968	236969.17	646905.1	-9.358289e-05
0	0.63119775	0.63119704	-2.932421e-10	0.04949754	0.04949754	0	68284.12	68284.04	-3.2024793e-05	647004.4	236671.97	-0.00027406416	236672.33	647003.8	-0.00018716577
0	0.631058	0.6310573	-2.2949381e-10	0.04935615	0.04935615	0	68269	68268.92	-2.1694215e-05	647100.44	236380.33	-0.00013368984	236380.7	647099.9	-0.00012700535
0	0.6309187	0.63091815	-1.7849519e-10	0.04921461	0.04921461	0	68253.945	68253.87	-1.7561984e-05	647195.3	236090.56	-0.000113636364	236090.92	647194.75	-0.00014037434
0	0.63077796	0.63077724	-3.6974004e-10	0.04907322	0.049073216	0	68238.7	68238.625	-4.338843e-05	647292.06	235796.67	-0.0003342246	235797.03	647291.44	-0.0002473262
0	0.6306366	0.6306358	-2.3586866e-10	0.048931822	0.048931822	0	68223.41	68223.336	-2.6859505e-05	647388.4	235502.39	-0.00036096256	235502.75	647387.75	-2.0053476e-05
0	0.63049525	0.63049453	-3.0599176e-10	0.0487903	0.0487903	0	68208.12	68208.05	-2.9958677e-05	647484.9	235208.1	-0.000421123	235208.42	647484.3	-5.3475935e-05
0	0.6303538	0.6303531	-3.3149108e-10	0.048648853	0.048648853	0	68192.82	68192.75	-3.409091e-05	647581.56	234913.4	-0.00028074867	234913.77	647580.9	-0.00021390374
0	0.6302097	0.63020897	-4.2711348e-10	0.048507623	0.048507623	0	68177.234	68177.16	-4.2355372e-05	647680.6	234612.58	-0.00038101606	234612.94	647680	-0.00022727273
0	0.63006943	0.63006866	-1.4662105e-10	0.04836622	0.04836622	0	68162.06	68161.984	-1.5495867e-05	647774.94	234321.84	-0.00022727273	234322.19	647774.44	-2.6737967e-05
0	0.62992394	0.6299234	-3.5699038e-10	0.04822453	0.04822453	0	68146.33	68146.25	-3.6157024e-05	647874.44	234018.88	-0.0003409091	234019.2	647873.75	-0.0001671123
0	0.6297832	0.62978244	-3.7611486e-10	0.048083294	0.048083298	0	68131.09	68131.016	-3.822314e-05	647968.94	233727.17	-0.00026737968	233727.5	647968.3	-0.00030748663
0	0.6296377	0.62963706	-9.562243e-11	0.04794189	0.04794189	0	68115.35	68115.28	-6.198347e-06	648068	233424.42	-0.00015374331	233424.8	648067.4	1.3368984e-05
0	0.62949425	0.6294936	-6.757318e-10	0.04780034	0.047800336	0	68099.836	68099.766	-7.4380165e-05	648163.3	233128.3	-0.00060828874	233128.66	648162.7	-0.00039438502
0	0.6293505	0.6293498	-4.526128e-10	0.047658943	0.047658943	0	68084.28	68084.21	-4.855372e-05	648260.5	232829.78	-0.0003475936	232830.17	648259.9	-0.00031417113
0	0.6292047	0.62920403	-1.9761968e-10	0.047517695	0.047517695	0	68068.516	68068.43	-2.376033e-05	648359.75	232526.47	-0.00022727273	232526.86	648359.1	-9.358289e-05
0	0.6290612	0.6290604	-4.908618e-10	0.04737629	0.04737629	0	68052.98	68052.91	-5.0619834e-05	648455.5	232229.75	-0.00036096256	232230.14	648454.9	-0.00031417113
0	0.628914	0.6289133	-3.378659e-10	0.047234613	0.047234613	0	68037.06	68036.98	-3.92562e-05	648554.44	231924.83	-0.0002540107	231925.19	648553.8	-0.00028743315
0	0.6287688	0.62876815	-3.378659e-10	0.04709337	0.04709337	0	68021.36	68021.28	-3.822314e-05	648651.5	231624.53	-0.00032085562	231624.9	648650.9	-0.00018716577
0	0.6286245	0.6286238	-2.9961694e-10	0.04695193	0.04695193	0	68005.75	68005.664	-3.305785e-05	648746.94	231327.05	-0.00023395722	231327.4	648746.25	-0.00020721926
0	0.6284759	0.6284751	-4.2711348e-10	0.046810426	0.046810426	0	67989.66	67989.58	-4.752066e-05	648846.8	231018.94	-0.0003409091	231019.3	648846.1	-0.00028074867
0	0.628328	0.6283273	-3.8886452e-10	0.04666901	0.04666901	0	67973.67	67973.586	-4.5454544e-05	648945.06	230713.88	-0.00038770054	230714.27	648944.4	-0.00022727273
0	0.6281833	0.62818253	-2.8686728e-10	0.04652778	0.04652778	0	67958.01	67957.94	-3.2024793e-05	649039.8	230416.42	-0.00046122994	230416.81	649039.25	6.684492e-06
0	0.62803406	0.6280333	-2.5499314e-10	0.046386104	0.046386104	0	67941.86	67941.78	-3.0991734e-05	649140	230107.17	-0.00020053476	230107.56	649139.44	-0.00020053476
0	0.62788814	0.6278875	-4.1436385e-10	0.046244696	0.046244696	0	67926.08	67926	-4.442149e-05	649235.7	229807.34	-0.00038770054	229807.72	649235.1	-0.00021390374
0	0.62773967	0.6277389	-2.7411762e-10	0.04610346	0.046103455	0	67910.016	67909.94	-3.0991734e-05	649333.25	229501.92	-0.00030748663	229502.3	649332.56	-0.000113636364
0	0.62759113	0.6275904	-3.378659e-10	0.045961995	0.045961995	0	67893.945	67893.87	-3.92562e-05	649431.1	229196.11	-0.00029411764	229196.5	649430.4	-0.00022058823
0	0.627442	0.62744117	-3.824897e-11	0.045820504	0.045820504	0	67877.82	67877.734	1.0330579e-06	649529	228889.33	-0.00014037434	228889.73	649528.4	8.0213904e-05
0	0.6272905	0.6272897	-2.932421e-10	0.045679096	0.045679096	0	67861.42	67861.34	-3.0991734e-05	649629.6	228576.61	-0.0002406417	228577	649629.06	-0.00020721926
0	0.627143	0.6271422	-3.6974004e-10	0.045537677	0.045537677	0	67845.47	67845.38	-4.1322313e-05	649725.44	228274.25	-0.00030080214	228274.66	649724.94	-0.0002540107
0	0.6269922	0.62699145	-2.4224348e-10	0.04539619	0.04539619	0	67829.16	67829.08	-2.4793388e-05	649824.06	227964.75	-0.00016042781	227965.16	649823.4	-0.00022727273
0	0.626842	0.6268413	-4.3348833e-10	0.045254778	0.045254778	0	67812.914	67812.836	-4.442149e-05	649922.06	227656.39	-0.00027406416	227656.8	649921.44	-0.0003342246
0	0.62669086	0.62669015	-5.163611e-10	0.045113485	0.045113493	0	67796.56	67796.48	-4.9586775e-05	650020.2	227346.66	-0.000421123	227347.06	650019.56	-0.00029411764
0	0.6265393	0.62653846	-2.677428e-10	0.044972066	0.044972066	0	67780.15	67780.07	-2.9958677e-05	650118.75	227035.78	-0.00029411764	227036.17	650118.06	-0.00014037434