# t (s)	mx ()	my ()	mz ()	B_extx (T)	B_exty (T)	B_extz (T)	m_fullx (A/m)	m_fully (A/m)	m_fullz (A/m)	m_full.region1x (A/m)	m_full.region1y (A/m)	m_full.region1z (A/m)	m_full.region2x (A/m)	m_full.region2y (A/m)	m_full.region2z (A/m)
0	0.6345698	0.63574874	-6.94152e-11	0.07071087	0.07071087	0	87726.51	87889.48	-1e-05	660012.94	229240.8	-0.00022192633	229162.02	660030.4	9.082007e-05
0	0.63444996	0.635628	-1.5995677e-10	0.07056911	0.07056911	0	87709.945	87872.78	-2.4375e-05	660103.1	228981.72	-0.00018705218	228904.69	660119.75	-4.8963862e-05
0	0.6343268	0.6355036	-3.5009406e-10	0.07042789	0.07042789	0	87692.914	87855.59	-4.75e-05	660195.9	228715.12	-0.00019022256	228640.17	660211.56	-0.00031273693
0	0.6342026	0.635378	-2.3239002e-10	0.07028652	0.07028653	0	87675.73	87838.23	-3.375e-05	660289.3	228446.22	-0.00027423754	228373.34	660304	-8.845085e-05
0	0.6340784	0.6352525	-2.3540808e-10	0.070144884	0.070144884	0	87658.57	87820.88	-3.1875e-05	660382.7	228177.52	-0.00026789677	228106.83	660396.3	-7.897397e-05
0	0.6339537	0.6351267	4.2252733e-11	0.07000352	0.07000352	0	87641.336	87803.484	5.625e-06	660475.94	227908.36	-1.2681504e-05	227839.69	660488.75	7.1076574e-05
0	0.6338295	0.6350013	-2.2937197e-10	0.06986229	0.06986229	0	87624.164	87786.14	-3.125e-05	660568.75	227640.2	-0.00017595587	227573.56	660580.6	-0.00016426586
0	0.63370407	0.6348745	-2.9878716e-10	0.069720544	0.069720544	0	87606.83	87768.625	-4.1875e-05	660662.4	227369.45	-0.00014266692	227305.05	660673.3	-0.00029773187
0	0.6335787	0.634748	-1.388304e-10	0.06957919	0.069579184	0	87589.49	87751.125	-2.125e-05	660755.75	227099.23	-0.00017754105	227036.89	660765.6	-2.922037e-05
0	0.63345355	0.63462144	-3.1085937e-10	0.069437966	0.069437966	0	87572.18	87733.64	-4.5e-05	660848.75	226829.38	-0.00029484497	226769.16	660857.75	-0.00017137351
0	0.633327	0.6344936	-2.2333586e-10	0.069296576	0.069296576	0	87554.68	87715.96	-3.0625e-05	660942.75	226556.77	-0.0002250967	226498.77	660950.7	-0.00010424564
0	0.6332009	0.63436633	-1.7504703e-10	0.06915496	0.06915496	0	87537.26	87698.38	-2.625e-05	661035.94	226285.73	-0.00015217805	226229.73	661042.94	-0.00013662496
0	0.63307434	0.6342385	-1.7504703e-10	0.069013596	0.069013596	0	87519.766	87680.695	-2.375e-05	661129.56	226013.34	-0.00021558556	225959.56	661135.6	-4.6594643e-05
0	0.6329483	0.63411105	-1.0261377e-10	0.068872236	0.068872236	0	87502.33	87663.07	-1.3125e-05	661222.5	225742.3	-1.9022256e-05	225690.69	661227.56	-0.0001034559
0	0.63282084	0.6339823	-3.1387742e-10	0.06873064	0.06873064	0	87484.71	87645.27	-4.4375e-05	661316.25	225468.66	-0.00024094858	225419.2	661320.4	-0.0002187579
0	0.6326931	0.6338533	-4.04419e-10	0.06858927	0.06858927	0	87467.06	87627.445	-5.65625e-05	661410	225194.66	-0.00034874136	225147.3	661413.25	-0.00025429617
0	0.6325659	0.63372487	-2.3239002e-10	0.06844801	0.068448015	0	87449.47	87609.68	-3.25e-05	661503.25	224921.8	-0.00015376323	224876.61	661505.4	-0.0001871683
0	0.63243765	0.6335953	-3.6820236e-10	0.06830665	0.06830665	0	87431.74	87591.77	-4.875e-05	661597.06	224646.94	-0.00028533384	224603.98	661598.25	-0.00026140385
0	0.63231003	0.6334663	-1.4486651e-10	0.06816504	0.06816504	0	87414.1	87573.945	-2e-05	661690.25	224373.56	-0.00011096316	224332.78	661690.4	-0.0001231994
0	0.632181	0.633336	-4.4365367e-10	0.068023674	0.068023674	0	87396.25	87555.93	-6.0625e-05	661784.2	224097.48	-0.00035349693	224058.86	661783.44	-0.0002764089
0	0.6320525	0.63320607	-3.1387742e-10	0.067882314	0.06788232	0	87378.5	87537.96	-4.5625e-05	661877.6	223822.36	-0.00018388181	223786.11	661875.94	-0.00030326005
0	0.6319237	0.6330759	-3.6216627e-10	0.067740716	0.067740716	0	87360.69	87519.98	-4.96875e-05	661971.1	223547.06	-0.0002789931	223512.9	661968.44	-0.00025429617
0	0.6317943	0.63294524	-4.164912e-10	0.06759932	0.06759932	0	87342.79	87501.91	-5.8125e-05	662064.75	223270.67	-0.00028057827	223238.81	662061.2	-0.00029062422
0	0.6316639	0.6328136	-3.802746e-10	0.06745809	0.06745809	0	87324.77	87483.695	-5.25e-05	662159.06	222992.48	-0.00032337836	222962.77	662154.25	-0.00024166035
0	0.63153464	0.6326829	-4.2252733e-11	0.067316726	0.067316726	0	87306.9	87465.63	-4.6875e-06	662252.25	222716.55	-7.92594e-05	222689.16	662246.6	9.476877e-06
0	0.63140386	0.6325507	-3.4405795e-10	0.067174986	0.067174986	0	87288.82	87447.375	-5.125e-05	662346.4	222437.84	-0.00022034113	222412.7	662339.7	-0.00031115743
0	0.6312727	0.6324183	-3.5613015e-10	0.06703377	0.06703377	0	87270.68	87429.07	-5e-05	662440.44	222158.53	-0.00027265234	222135.48	662432.94	-0.000266932
0	0.63114256	0.6322866	-4.406356e-10	0.066892385	0.066892385	0	87252.69	87410.86	-6.1875e-05	662533.8	221881.23	-0.00029801534	221860.61	662525.25	-0.00031115743
0	0.63101166	0.6321544	-2.595525e-10	0.06675076	0.066750765	0	87234.59	87392.586	-3.5e-05	662627.44	221602.72	-0.00020607444	221584.4	662617.9	-0.00015952742
0	0.6308802	0.63202155	-2.6257055e-10	0.0666094	0.0666094	0	87216.42	87374.21	-3.6875e-05	662721.25	221323.19	-0.00024094858	221307.19	662710.8	-0.0001034559
0	0.63074845	0.6318884	-3.47076e-10	0.06646817	0.066468164	0	87198.22	87355.81	-5e-05	662815.2	221043.2	-0.00024728934	221029.56	662803.6	-0.0002527167
0	0.63061637	0.631755	5.432494e-11	0.06632643	0.06632643	0	87179.96	87337.36	6.875e-06	662909	220763.03	8.560015e-05	220751.55	662896.44	-3.8697246e-05
0	0.6304837	0.6316207	-2.7464275e-10	0.06618507	0.06618507	0	87161.6	87318.81	-3.703125e-05	663003.2	220481.1	-0.00025363007	220472.1	662989.7	-0.00012951731
0	0.63035107	0.6314867	-1.6297481e-10	0.06604384	0.06604384	0	87143.26	87300.28	-2.28125e-05	663097.1	220199.88	-0.00015217805	220193.17	663082.56	-0.00010108668
0	0.6302182	0.6313526	-3.1387742e-10	0.065902434	0.065902434	0	87124.91	87281.734	-4.625e-05	663190.8	219918.7	-0.00028216347	219914.28	663175.3	-0.00019427597
0	0.63008505	0.631218	-2.3239002e-10	0.06576085	0.06576085	0	87106.51	87263.13	-2.875e-05	663284.7	219636.78	-0.0001712003	219634.67	663268.2	-0.0001492608
0	0.62995106	0.6310825	-6.94152e-11	0.065619476	0.065619476	0	87087.98	87244.39	-1.1875e-05	663379	219353	-8.8770525e-05	219353.27	663361.56	-3.8697246e-05
0	0.6298171	0.6309471	-1.9315534e-10	0.06547825	0.06547824	0	87069.45	87225.695	-2.5625e-05	663473.06	219069.88	-0.00013949655	219072.5	663454.56	-0.00012714809
0	0.6296831	0.63081175	-1.9919144e-10	0.06533652	0.065336525	0	87050.94	87206.95	-2.8125e-05	663566.94	218786.66	-0.00021558556	218791.69	663547.44	-9.6348245e-05
0	0.6295487	0.6306759	-2.8067884e-10	0.06519514	0.06519514	0	87032.375	87188.17	-3.875e-05	663661	218502.81	-0.00022985226	218510.3	663640.4	-0.00018164013
0	0.6294135	0.6305392	-4.3761758e-10	0.06505392	0.065053925	0	87013.66	87169.29	-5.9375e-05	663755.25	218217.52	-0.00034081543	218227.27	663733.7	-0.0002740397
0	0.6292785	0.6304026	-1.4184845e-10	0.064912505	0.06491251	0	86994.99	87150.41	-2.1875e-05	663849.3	217932.58	-3.8044513e-05	217944.86	663826.75	-0.00016584534
0	0.6291433	0.6302661	-2.5049834e-10	0.06477093	0.06477093	0	86976.32	87131.516	-3.5e-05	663943.2	217647.8	-0.00016961512	217662.44	663919.6	-0.00020217337
0	0.6290072	0.6301285	-3.3198574e-10	0.06462956	0.06462956	0	86957.51	87112.52	-4.75e-05	664037.44	217361.34	-0.00020607444	217378.36	664012.94	-0.00027561915
0	0.62887084	0.62999064	-2.2635392e-10	0.06448818	0.06448818	0	86938.64	87093.45	-3.1875e-05	664131.9	217074.22	-0.00015217805	217093.69	664106.25	-0.00017137351
0	0.62873495	0.6298532	3.0180522e-12	0.0643466	0.0643466	0	86919.85	87074.46	0	664225.7	216788.31	-0.00015693362	216810.27	664199.2	0.00012951731
0	0.62859774	0.62971455	-1.0563183e-10	0.06420524	0.06420524	0	86900.88	87055.28	-1.375e-05	664320.25	216499.97	1.9022256e-05	216524.38	664292.56	-0.0001611069
0	0.62846124	0.62957656	-2.716247e-10	0.064063966	0.064063966	0	86882.016	87036.21	-3.75e-05	664414.06	216213.28	-0.00022826708	216240.14	664385.4	-0.00016742482
0	0.62832355	0.6294374	-2.655886e-10	0.06392258	0.063922584	0	86862.99	87016.97	-3.75e-05	664508.44	215924.36	-0.00023777821	215953.69	664478.9	-0.00016426586
0	0.62818545	0.62929785	1.1166793e-10	0.063781016	0.06378101	0	86843.89	86997.68	1.25e-05	664602.9	215634.88	0.0001442521	215666.56	664572.25	-2.2902452e-05
0	0.62804705	0.62915814	-4.4968979e-10	0.06363964	0.06363963	0	86824.766	86978.375	-6.4375e-05	664697.2	215345.27	-0.0003550821	215379.22	664665.75	-0.00031905485
0	0.6279091	0.6290184	-3.802746e-10	0.06349825	0.06349824	0	86805.69	86959.04	-5.1875e-05	664791.5	215055.8	-0.00030752647	215092.53	664758.8	-0.0002448193
0	0.6277711	0.6288789	-1.3581235e-10	0.06335668	0.06335668	0	86786.61	86939.75	-1.875e-05	664885.3	214766.9	-7.92594e-05	214806.12	664851.6	-0.00012477888
0	0.62763214	0.6287384	9.054157e-12	0.06321527	0.06321527	0	86767.39	86920.336	6.25e-07	664979.6	214476.19	-3.170376e-05	214517.95	664944.94	5.291256e-05
0	0.62749296	0.62859756	-2.384261e-10	0.06307404	0.063074045	0	86748.16	86900.86	-3.1875e-05	665073.94	214185.06	-0.00031069684	214229.36	665038.25	-5.37023e-05
0	0.6273533	0.6284565	-3.3198574e-10	0.062932655	0.06293266	0	86728.86	86881.36	-4.5e-05	665168.2	213893.61	-0.0003424006	213940.39	665131.5	-0.00015241976
0	0.62721306	0.6283146	-4.677981e-10	0.062790945	0.062790945	0	86709.48	86861.75	-6.8125e-05	665262.8	213600.83	-0.0004248304	213650.22	665225	-0.00031668562
0	0.62707317	0.6281732	-9.054157e-11	0.062649705	0.062649705	0	86690.12	86842.19	-1.28125e-05	665357	213308.88	-4.755564e-05	213360.81	665318.1	-7.1076574e-05
0	0.62693214	0.62803066	-3.591482e-10	0.06250833	0.06250834	0	86670.63	86822.49	-5.0625e-05	665451.5	213015.16	-0.00031069684	213069.56	665411.7	-0.00020217337
0	0.62679124	0.62788826	-1.6901093e-10	0.06236674	0.06236674	0	86651.15	86802.79	-2.875e-05	665545.9	212721.62	-0.0003297191	212778.62	665505.06	5.054334e-05
0	0.62665033	0.6277457	-1.901373e-10	0.062225346	0.062225346	0	86631.67	86783.1	-2.65625e-05	665640.06	212428.27	-0.0002124152	212487.84	665598.25	-7.2656054e-05
0	0.62650824	0.627602	-3.5613015e-10	0.06208412	0.06208412	0	86612.03	86763.23	-5.0625e-05	665734.8	212132.67	-0.00029484497	212194.83	665692	-0.0002029631
0	0.626367	0.6274591	-2.8973302e-10	0.061942417	0.061942413	0	86592.49	86743.47	-3.875e-05	665828.9	211838.88	-0.00020924481	211903.66	665785	-0.00019822466
0	0.6262241	0.62731457	-1.6297481e-10	0.06180102	0.06180102	0	86572.74	86723.49	-2.09375e-05	665923.8	211542.03	-0.00012998542	211609.48	665878.8	-8.529189e-05
0	0.62608194	0.6271709	-7.152784e-10	0.06165979	0.06165979	0	86553.086	86703.63	-0.00010125	666017.9	211247.11	-0.0005516454	211317.06	665971.94	-0.00048608478
0	0.6259392	0.6270265	-2.4144417e-11	0.061518367	0.061518367	0	86533.36	86683.67	-3.75e-06	666112.25	210950.97	-6.9748276e-05	211023.62	666065.25	3.3958808e-05
0	0.625796	0.62688166	-2.082456e-10	0.061376818	0.061376818	0	86513.56	86663.65	-2.9375e-05	666206.7	210654.02	-6.0237144e-05	210729.34	666158.7	-0.0002385014
0	0.62565225	0.6267362	-1.901373e-10	0.061235435	0.061235435	0	86493.69	86643.54	-2.28125e-05	666301.4	210356.16	-0.00014108173	210434.12	666252.3	-0.00012635835
0	0.62550837	0.6265907	-2.957691e-10	0.061094042	0.061094042	0	86473.81	86623.43	-4.125e-05	666395.9	210058.33	-0.00025997084	210138.98	666345.6	-0.00015794794
0	0.625364	0.62644464	-4.3459952e-10	0.060952503	0.0609525	0	86453.83	86603.234	-6.125e-05	666490.44	209759.48	-0.00038678586	209842.81	666439.25	-0.00021638868
0	0.6252193	0.62629837	-2.8671496e-10	0.060811102	0.060811102	0	86433.836	86583.01	-3.8125e-05	666585.06	209460.31	-0.0003027709	209546.38	666532.9	-0.00010187642
0	0.62507474	0.6261521	-5.311772e-10	0.06066984	0.06066984	0	86413.84	86562.77	-7.40625e-05	666679.44	209161.58	-0.0004121489	209250.34	666626.06	-0.00037749557
0	0.62492925	0.62600493	-4.3459952e-10	0.060528446	0.060528446	0	86393.734	86542.44	-5.65625e-05	666774.06	208861.28	-0.0002647264	208952.77	666719.7	-0.00035064443
0	0.6247834	0.6258576	-4.1950926e-10	0.0603869	0.060386896	0	86373.57	86522.07	-5.5625e-05	666868.7	208560.6	-0.0004375119	208654.64	666813.25	-0.00013978392
0	0.6246383	0.6257107	-2.8973302e-10	0.060245506	0.060245506	0	86353.51	86501.766	-3.8125e-05	666962.7	208261.38	-0.00016485955	208358.14	666906.3	-0.00026298332
0	0.62449163	0.62556225	-4.1950926e-10	0.060104124	0.060104124	0	86333.234	86481.24	-6.078125e-05	667057.56	207959.06	-0.00032654873	208058.64	667000.2	-0.0003222138
0	0.6243451	0.6254142	-1.2072209e-10	0.05996258	0.05996258	0	86312.984	86460.77	-1.65625e-05	667152	207657.56	-0.00019497813	207759.84	667093.56	2.961524e-05
0	0.6241981	0.6252655	-4.04419e-10	0.059821147	0.059821147	0	86292.664	86440.2	-6e-05	667246.6	207355.08	-0.00033605986	207460.14	667187.1	-0.00025903463
0	0.62405074	0.6251164	-2.4446223e-10	0.059679918	0.059679918	0	86272.29	86419.6	-3.4375e-05	667341.25	207052.14	-0.00019656331	207159.94	667280.6	-0.00015478898
0	0.62390333	0.6249672	-1.901373e-10	0.05953851	0.05953851	0	86251.91	86398.984	-3.09375e-05	667435.7	206749.16	-0.00013632617	206859.78	667374	-0.00016979403
0	0.6237549	0.624817	-1.5693871e-10	0.059396826	0.059396826	0	86231.39	86378.23	-2.3125e-05	667530.56	206444.38	-0.00020290406	206557.77	667467.9	-6.6733e-05
0	0.62360716	0.62466764	-2.9275107e-10	0.059255596	0.059255593	0	86210.96	86357.56	-4.1875e-05	667624.8	206141.36	-0.00020290406	206257.53	667561	-0.00023218348
0	0.6234585	0.62451726	-2.9878716e-10	0.059114188	0.059114188	0	86190.41	86336.78	-4.28125e-05	667719.25	205836.69	-0.00031069684	205955.61	667654.5	-0.00012714809
0	0.6233088	0.6243658	-4.2252732e-10	0.058972627	0.058972627	0	86169.71	86315.85	-5.625e-05	667814.3	205529.9	-0.00031069684	205651.62	667748.5	-0.00025706028
0	0.6231598	0.62421507	-1.388304e-10	0.058831234	0.05883124	0	86149.12	86295	-1.890625e-05	667908.75	205224.78	-8.4014966e-05	205349.45	667841.75	-0.00015044541
0	0.6230101	0.6240635	-1.2675819e-10	0.058689985	0.05868999	0	86128.414	86274.05	-1.5e-05	668003.4	204918.42	-6.0237144e-05	205045.89	667935.4	-0.00012477888
0	0.6228603	0.62391204	-3.3802186e-10	0.0585483	0.0585483	0	86107.71	86253.12	-4.71875e-05	668097.75	204612.33	-0.00025997084	204742.55	668028.7	-0.00023613217
0	0.62270916	0.62375915	-3.3198574e-10	0.058406904	0.058406904	0	86086.82	86231.984	-4.6875e-05	668192.75	204303.48	-0.00023460783	204436.6	668122.7	-0.0002448193
0	0.62255836	0.62360656	-3.350038e-10	0.058265664	0.058265664	0	86065.97	86210.89	-4.5e-05	668287.3	203995.61	-0.00032020797	204131.62	668216.2	-0.0001492608
0	0.62240756	0.6234539	-2.3239002e-10	0.05812423	0.05812423	0	86045.125	86189.77	-3.1875e-05	668381.8	203687.81	-0.00011413354	203826.77	668309.6	-0.00019940927
0	0.62225646	0.6233011	-8.7523516e-11	0.057982713	0.057982713	0	86024.234	86168.65	-1.59375e-05	668476.2	203379.77	-4.2800075e-05	203521.55	668402.94	-9.6348245e-05
0	0.6221039	0.6231468	-1.1468598e-10	0.05784131	0.05784131	0	86003.15	86147.32	-1.53125e-05	668571.2	203069.17	-8.560015e-05	203213.81	668496.8	-9.003033e-05
0	0.6219522	0.62299323	-3.6216627e-10	0.057699904	0.057699904	0	85982.164	86126.09	-5e-05	668665.56	202760.03	-0.00032337836	202907.69	668590.2	-0.00020770154
0	0.62179893	0.6228385	-2.5351637e-10	0.057558388	0.057558388	0	85960.99	86104.695	-3.625e-05	668760.3	202448.89	-0.00027265234	202599.08	668683.94	-0.00012635835
0	0.621646	0.62268347	-1.7202897e-10	0.057416987	0.057416987	0	85939.836	86083.266	-2.8125e-05	668855.2	202137.45	-9.194091e-05	202290.84	668777.6	-0.00018124527
0	0.6214936	0.6225292	-6.94152e-11	0.0572757	0.05727571	0	85918.77	86061.94	-8.75e-06	668949.25	201827.72	-2.6948195e-05	201984.11	668870.7	-5.212282e-05
0	0.6213394	0.6223732	-1.9919144e-10	0.0571343	0.057134308	0	85897.45	86040.38	-2.78125e-05	669044.2	201514.8	-0.00021875594	201674.11	668964.5	-8.845085e-05
0	0.62118536	0.6222173	-1.4486651e-10	0.05699279	0.05699279	0	85876.15	86018.83	-2.1875e-05	669138.8	201202.14	-6.657789e-05	201364.4	669058.1	-0.00017176839
0	0.6210309	0.62206095	-1.8711924e-10	0.05685139	0.056851387	0	85854.81	85997.2	-2.4375e-05	669233.5	200888.94	-0.00023460783	201054.36	669151.75	-4.0671595e-05
0	0.62087613	0.62190425	-3.229316e-10	0.056709986	0.056709986	0	85833.41	85975.54	-4.3125e-05	669328.2	200575.27	-0.00023143744	200743.62	669245.4	-0.0002448193
0	0.6207216	0.62174785	-3.1387742e-10	0.056568477	0.05656847	0	85812.05	85953.92	-4.3125e-05	669422.44	200262.45	-0.00019497813	200433.78	669338.5	-0.00026377305
0	0.6205661	0.62159055	-3.3198574e-10	0.05642703	0.05642703	0	85790.55	85932.17	-4.59375e-05	669517	199947.89	-0.00032337836	200122.25	669431.94	-0.00012477888
0	0.6204096	0.62143224	-1.8108313e-10	0.056285787	0.05628579	0	85768.914	85910.28	-2.4375e-05	669612.06	199631.56	-0.00012998542	199808.94	669525.94	-0.00010266616
0	0.62025356	0.6212742	-3.1991354e-10	0.05614437	0.05614437	0	85747.336	85888.44	-4.25e-05	669706.6	199316.06	-0.00023777821	199496.5	669619.44	-0.00024323983
0	0.62009746	0.6211163	-1.9315534e-10	0.056002706	0.056002706	0	85725.75	85866.61	-2.53125e-05	669800.9	199001.03	-0.00026631157	199184.48	669712.7	-2.0533233e-05
0	0.6199401	0.6209571	-1.7504703e-10	0.05586147	0.055861466	0	85704.016	85844.6	-2.5e-05	669895.6	198683.77	-0.00018229662	198870.27	669806.4	-0.00011846096
0	0.6197826	0.6207977	-2.6860664e-10	0.055720054	0.055720054	0	85682.234	85822.57	-3.71875e-05	669990.3	198366.25	-0.0002250967	198555.78	669900	-0.00015399924
0	0.6196249	0.62063813	-2.0522754e-10	0.05557856	0.05557856	0	85660.44	85800.51	-2.78125e-05	670084.9	198048.64	-0.00015217805	198241.22	669993.44	-0.00014965568
0	0.6194666	0.62047786	-4.4365367e-10	0.05543711	0.055437103	0	85638.55	85778.34	-6.09375e-05	670179.6	197729.77	-0.00046604528	197925.45	670087.1	-0.00018006066
0	0.61930835	0.6203177	-3.6820236e-10	0.05529586	0.05529586	0	85616.67	85756.21	-5.28125e-05	670274.06	197411.52	-0.00031069684	197610.3	670180.44	-0.00023415782
0	0.6191498	0.62015706	-4.8288834e-10	0.055154454	0.055154454	0	85594.74	85734	-6.875e-05	670368.6	197092.42	-0.0003550821	197294.39	670273.94	-0.00039131602
0	0.61899054	0.619996	-3.0180522e-12	0.05501279	0.055012785	0	85572.734	85711.734	0	670463.1	196772.69	5.8651956e-05	196977.77	670367.3	-5.844074e-05
0	0.61882883	0.6198327	-4.5572587e-10	0.054871544	0.054871544	0	85550.37	85689.164	-5.71875e-05	670558.56	196448.88	-0.0005009194	196656.62	670461.9	-0.00012477888
0	0.61867106	0.61967254	-3.6518433e-10	0.05473013	0.054730132	0	85528.56	85667.016	-5.09375e-05	670652.2	196131.47	-0.00026631157	196342.88	670554.25	-0.000266932
0	0.61851066	0.61951023	-3.591482e-10	0.054588605	0.054588605	0	85506.41	85644.57	-4.75e-05	670746.8	195809.95	-0.00022351151	196024.56	670647.8	-0.00028588576
0	0.6183495	0.6193471	-2.655886e-10	0.05444718	0.05444718	0	85484.12	85622.02	-3.40625e-05	670841.56	195487.17	-0.00023777821	195704.83	670741.44	-0.00012714809
0	0.61818886	0.6191844	-1.901373e-10	0.05430595	0.05430595	0	85461.91	85599.53	-2.84375e-05	670935.75	195165.48	-0.00013315579	195386.39	670834.6	-0.00013662496
0	0.61802685	0.61902046	-2.3540808e-10	0.054164287	0.054164287	0	85439.51	85576.87	-3.265625e-05	671030.56	194841.56	-0.00017754105	195065.56	670928.4	-0.00017176839
0	0.61786515	0.61885667	-3.1085937e-10	0.05402286	0.05402286	0	85417.16	85554.234	-4.0625e-05	671125.06	194518.14	-0.00026948197	194745.5	671021.6	-0.00019980414
0	0.61770284	0.6186924	-3.591482e-10	0.053881623	0.053881623	0	85394.72	85531.52	-4.84375e-05	671219.5	194194.03	-0.0003170376	194424.55	671115.1	-0.00019427597
0	0.61754024	0.6185278	-1.961734e-10	0.053740162	0.053740162	0	85372.234	85508.77	-2.65625e-05	671313.94	193869.52	-0.00018388181	194103.25	671208.44	-0.00010424564
0	0.6173776	0.61836314	-1.4486651e-10	0.053598683	0.053598683	0	85349.75	85485.99	-1.625e-05	671408.3	193544.88	-8.084459e-05	193781.95	671301.7	-0.000115696865
0	0.617214	0.61819756	-1.0261377e-10	0.053457264	0.053457264	0	85327.13	85463.1	-1.5625e-05	671502.75	193218.84	-0.00012047429	193459.12	671395.2	-1.5005055e-05
0	0.61704874	0.6180306	2.4144417e-10	0.05331584	0.05331584	0	85304.29	85440.04	3.078125e-05	671597.75	192890.53	0.00010779278	193133.64	671489.1	0.0002448193
0	0.6168858	0.6178652	-2.3540808e-10	0.053174376	0.053174376	0	85281.76	85417.16	-3.15625e-05	671691.8	192565.22	-0.00016961512	192812.11	671581.94	-0.00018006066
0	0.6167214	0.6176987	-9.355962e-11	0.05303295	0.053032946	0	85259.03	85394.15	-1.21875e-05	671786.06	192238.27	1.2681504e-05	192488.4	671675.2	-0.00014373263
0	0.6165561	0.6175314	-3.4405795e-10	0.05289166	0.052891657	0	85236.18	85371.01	-4.578125e-05	671880.7	191909.72	-0.00020765963	192163.16	671768.6	-0.00027324993
0	0.6163908	0.61736405	-2.2937197e-10	0.052750226	0.052750226	0	85213.34	85347.88	-2.96875e-05	671975	191581.48	-0.0002250967	191838.31	671861.9	-0.000100296944
0	0.616225	0.6171961	-1.327943e-10	0.05260877	0.052608766	0	85190.414	85324.664	-1.78125e-05	672069.4	191252.33	-0.00012047429	191512.48	671955.2	-7.2656054e-05
0	0.61605895	0.61702806	-1.7202897e-10	0.052467342	0.052467342	0	85167.45	85301.43	-2.28125e-05	672163.6	190923.05	-0.00013949655	191186.44	672048.3	-0.00011846096
0	0.61589223	0.6168593	-2.203178e-10	0.052325908	0.052325904	0	85144.4	85278.11	-3e-05	672258.06	190592.77	-0.00013315579	190859.42	672141.7	-0.00018795805
0	0.6157258	0.6166909	-6.94152e-11	0.05218446	0.05218445	0	85121.4	85254.81	-8.75e-06	672352.06	190263.16	-0.00016485955	190533.2	672234.6	9.4768766e-05
0	0.61555755	0.6165207	-3.410399e-10	0.052042987	0.052042987	0	85098.125	85231.28	-4.6875e-05	672446.6	189930.55	-0.00030752647	190203.75	672328.25	-0.00018164013
0	0.6153901	0.61635077	-2.1729976e-10	0.051901728	0.051901728	0	85074.99	85207.805	-3.15625e-05	672540.94	189598.8	-0.00011254835	189875.72	672421.3	-0.0001978298
0	0.6152225	0.6161812	-2.9878716e-10	0.051760294	0.051760297	0	85051.82	85184.36	-4.125e-05	672634.94	189267.78	-0.00028533384	189548	672514.25	-0.00018321961
0	0.6150527	0.61600953	-2.9275107e-10	0.051618665	0.051618665	0	85028.34	85160.625	-4.28125e-05	672729.56	188933	-0.00023777821	189216.36	672607.94	-0.00019704006
0	0.6148845	0.6158389	-2.8973302e-10	0.05147742	0.05147742	0	85005.086	85137.03	-4.15625e-05	672823.7	188600.39	-0.00023302264	188887.52	672700.8	-0.00019585545
0	0.61471474	0.6156671	-4.7081616e-10	0.051335983	0.051335983	0	84981.62	85113.28	-5.96875e-05	672918	188265.89	-0.00033605986	188556.27	672794.06	-0.00032537276
0	0.6145453	0.61549544	-2.4144417e-10	0.051194493	0.051194496	0	84958.195	85089.55	-3.34375e-05	673012.06	187931.83	-0.00024094858	188225.8	672887	-0.00011372252
0	0.61437476	0.61532265	-2.5653443e-10	0.051053066	0.051053066	0	84934.63	85065.67	-3.375e-05	673106.5	187595.92	-0.00032496353	187893.47	672980.3	-4.1856205e-05
0	0.61420417	0.61514986	-6.579354e-10	0.050911807	0.050911807	0	84911.04	85041.766	-8.875e-05	673200.7	187260.11	-0.00056432694	187561.16	673073.4	-0.00033721887
0	0.6140331	0.61497664	9.054157e-12	0.050770186	0.050770186	0	84887.39	85017.84	1.25e-06	673294.75	186923.8	-5.0726016e-05	187228.33	673166.44	5.212282e-05
0	0.61386174	0.6148033	1.8711924e-10	0.050628755	0.050628755	0	84863.7	84993.87	2.5625e-05	673388.7	186587.48	0.00019497813	186895.3	673259.3	7.344579e-05
0	0.61369	0.6146293	-3.6820236e-10	0.050487496	0.050487496	0	84839.97	84969.81	-5e-05	673482.9	186250.02	-0.00036776363	186561.55	673352.25	-0.00016584534
0	0.6135176	0.61445475	-2.2937197e-10	0.050346017	0.050346017	0	84816.12	84945.67	-3.1875e-05	673576.94	185911.8	-0.00021083001	186226.73	673445.3	-9.160981e-05
0	0.6133448	0.61427975	-2.8973302e-10	0.05020459	0.05020459	0	84792.23	84921.484	-4.15625e-05	673671.1	185573	-0.0002758227	185891.47	673538.4	-0.00016268638
0	0.6131717	0.6141044	-9.959572e-11	0.05006314	0.050063144	0	84768.31	84897.25	-1.0625e-05	673765	185233.86	-0.00012681504	185555.92	673631.3	-2.1322972e-05
0	0.6129981	0.61392856	-3.8329262e-10	0.049921695	0.049921695	0	84744.305	84872.93	-5.15625e-05	673859.25	184893.9	-0.0002631412	185219.64	673724.25	-0.00027324993
0	0.61282426	0.61375266	-2.5351637e-10	0.04978028	0.049780272	0	84720.27	84848.62	-3.78125e-05	673952.94	184554.12	-0.00012681504	184883.22	673817	-0.00025034748
0	0.61265033	0.61357635	-3.0482328e-10	0.049638826	0.049638826	0	84696.23	84824.25	-4.09375e-05	674046.7	184213.95	-0.0003043561	184546.7	673909.7	-0.00014373263
0	0.61247474	0.6133987	-3.4405795e-10	0.04949753	0.04949753	0	84671.945	84799.68	-4.59375e-05	674141	183871.08	-0.00022985226	184207.33	674002.9	-0.00025429617
0	0.61229986	0.61322147	-2.957691e-10	0.049356084	0.04935608	0	84647.77	84775.17	-4.15625e-05	674234.9	183529.45	-0.00020290406	183869.48	674095.6	-0.0002199425
0	0.61212456	0.61304396	-4.4968979e-10	0.049214657	0.049214657	0	84623.54	84750.64	-6.28125e-05	674328.44	183187.7	-0.0004121489	183531.27	674188.1	-0.0002617987
0	0.61194795	0.61286515	-3.289677e-10	0.04907321	0.049073208	0	84599.125	84725.92	-4.828125e-05	674422.56	182843.55	-0.00025521527	183190.69	674281.1	-0.00021165024
0	0.6117719	0.6126866	3.9234678e-11	0.048931766	0.048931774	0	84574.79	84701.24	6.25e-06	674516.3	182500.23	0	182851.28	674373.75	7.1076574e-05
0	0.6115951	0.6125077	-2.8671496e-10	0.04879036	0.04879036	0	84550.36	84676.516	-4e-05	674609.94	182156.4	-0.00026631157	182510.97	674466.3	-0.00015557872
0	0.61141723	0.6123277	-9.959572e-11	0.048648857	0.048648857	0	84525.77	84651.625	-1.921875e-05	674703.8	181810.75	-0.00015534842	182168.89	674559.2	-1.2635835e-05
0	0.6112397	0.6121475	-2.2333586e-10	0.04850761	0.04850761	0	84501.21	84626.73	-2.90625e-05	674797.6	181465.12	-0.00017595587	181827.19	674651.8	-0.0001231994
0	0.61106175	0.6119673	-3.4405795e-10	0.048366148	0.048366144	0	84476.6	84601.805	-5.125e-05	674891.2	181119.58	-0.00032654873	181485.28	674744.4	-0.0002148092
0	0.61088294	0.6117862	-4.164912e-10	0.048224546	0.04822455	0	84451.88	84576.766	-5.90625e-05	674984.94	180772.42	-0.00036142286	181141.9	674836.94	-0.00025113721
0	0.6107036	0.6116046	-4.2252733e-11	0.048083294	0.048083294	0	84427.1	84551.65	-5.625e-06	675078.8	180424.7	3.8044513e-05	180797.9	674929.7	-0.00012280453
0	0.61052424	0.61142284	-2.1126366e-11	0.04794183	0.04794183	0	84402.31	84526.54	-5e-06	675172.3	180077.05	-5.389639e-05	180454.06	675022.1	3.27742e-05
0	0.6103449	0.61124104	-3.289677e-10	0.047800392	0.047800392	0	84377.51	84501.414	-4.5625e-05	675265.56	179729.7	-0.0002124152	180110.45	675114.25	-0.0002408706
0	0.6101639	0.611058	-2.9275107e-10	0.047658946	0.047658946	0	84352.49	84476.09	-4.34375e-05	675359.25	179379.78	-0.00018229662	179764.17	675206.94	-0.00024442445
0	0.6099833	0.61087495	-3.289677e-10	0.047517676	0.047517676	0	84327.53	84450.79	-4.53125e-05	675452.75	179030.44	-0.0003424006	179418.7	675299.4	-0.00016268638
0	0.6098021	0.6106914	-1.7202897e-10	0.04737622	0.047376227	0	84302.48	84425.43	-2.46875e-05	675546.1	178680.4	-0.00011730391	179072.44	675391.6	-0.00012477888
0	0.60962033	0.6105073	-8.7523516e-11	0.047234632	0.047234632	0	84277.34	84399.96	-1.28125e-05	675639.6	178329.36	-5.706677e-05	178725.22	675484	-9.318929e-05
0	0.60943794	0.61032254	-2.474803e-10	0.047093365	0.047093365	0	84252.12	84374.42	-3.09375e-05	675733.1	177977.42	-0.00012681504	178377.06	675576.5	-0.00024876802
0	0.60925514	0.61013734	-4.04419e-10	0.046951856	0.046951856	0	84226.86	84348.81	-5.5e-05	675826.6	177624.97	-0.00042166002	178028.55	675668.9	-0.0001690043
0	0.6090724	0.609952	-1.9919144e-10	0.04681048	0.046810478	0	84201.586	84323.19	-2.71875e-05	675919.94	177272.47	-0.00027423754	177680.06	675761	-2.843063e-05
0	0.6088888	0.60976607	-1.961734e-10	0.046669014	0.046669014	0	84176.22	84297.49	-2.65625e-05	676013.3	176919.22	-0.00011413354	177330.66	675853.3	-0.00014689159
0	0.6087051	0.60958	-2.655886e-10	0.046527762	0.04652776	0	84150.81	84271.766	-3.65625e-05	676106.44	176565.84	-0.0003186228	176981.1	675945.25	-6.6338136e-05
0	0.6085205	0.6093931	-1.901373e-10	0.04638618	0.04638618	0	84125.3	84245.94	-2.5625e-05	676199.6	176211.27	-0.00027265234	176630.25	676037.5	1.5794794e-06
0	0.60833573	0.60920566	-2.3540808e-10	0.046244707	0.04624471	0	84099.75	84220.016	-3.34375e-05	676292.9	175855.88	-0.0002789931	176279.03	676129.6	-0.00010700973
0	0.6081507	0.6090182	-1.961734e-10	0.04610345	0.04610345	0	84074.18	84194.11	-2.84375e-05	676386	175500.69	-0.00023777821	175927.81	676221.56	-6.15997e-05
0	0.6079643	0.6088296	-3.6216627e-11	0.045961928	0.045961928	0	84048.39	84168.04	-6.5625e-06	676479.2	175143.67	-4.2800075e-05	175574.31	676313.75	-2.0928102e-05
0	0.6077787	0.6086414	-3.6820236e-10	0.045820568	0.04582056	0	84022.75	84142.01	-5.53125e-05	676572.1	174787.55	-0.00041848962	175222.53	676405.56	-0.00013662496
0	0.6075919	0.60845226	-1.901373e-10	0.045679096	0.045679096	0	83996.92	84115.87	-2.484375e-05	676665.06	174430.02	-0.00020290406	174868.73	676497.44	-5.054334e-05
0	0.60740525	0.6082629	-2.9275107e-10	0.04553762	0.04553763	0	83971.11	84089.695	-4.21875e-05	676757.9	174072.44	-0.00016485955	174515.36	676589.25	-0.00029378317
0	0.60721743	0.6080727	-1.5392067e-10	0.04539626	0.045396265	0	83945.14	84063.38	-1.875e-05	676851	173713.25	-0.00017754105	174160.19	676681.25	-5.291256e-05
0	0.60702974	0.60788244	-4.979786e-10	0.04525479	0.045254786	0	83919.2	84037.086	-7.109375e-05	676943.6	173354.6	-0.00041848962	173805.55	676772.8	-0.00033090095
0	0.6068411	0.6076915	-1.509026e-11	0.04511347	0.04511347	0	83893.13	84010.69	-4.6875e-06	677036.56	172994.6	-8.084459e-05	173449.48	676864.6	7.1076574e-05
0	0.6066521	0.6074999	-2.9878716e-10	0.04497199	0.044972	0	83866.99	83984.195	-4.28125e-05	677129.44	172633.56	-0.00024094858	173092.64	676956.4	-0.00021717841
0	0.60646284	0.6073081	-2.5653443e-10	0.04483065	0.04483065	0	83840.83	83957.68	-3.53125e-05	677222.2	172272.72	-0.00022034113	172735.81	677048.06	-0.00014057367
0	0.6062727	0.60711545	-2.716247e-10	0.044689175	0.044689175	0	83814.555	83931.05	-3.9375e-05	677315	171910.4	-0.0002885042	172377.66	677139.75	-0.00013701984
0	0.6060823	0.60692257	-2.3239002e-10	0.044547684	0.044547684	0	83788.23	83904.39	-3.1875e-05	677407.6	171548.05	-0.00015217805	172019.23	677231.3	-0.00017492735