//mumax 3.10 [windows_amd64 go1.11.6(gc) CUDA-11.0]
//GPU info: NVIDIA GeForce RTX 3090(24575MB), CUDA Driver 12.1, cc=8.6, using cc=80 PTX
//(c) Arne Vansteenkiste, Dynamat LAB, Ghent University, Belgium
//This is free software without any warranty. See license.txt
//********************************************************************//
//  If you use mumax in any work or publication,                      //
//  we kindly ask you to cite the references in references.bib        //
//********************************************************************//
//output directory: r1;p0.1;a2.8e-07;l1.8000000000000002e-07;s3.out/
randSeed(3)
ThermSeed(3)
resolution := 2e-09
zResolution := 5e-09
a := 2.8e-07
gridSize := 280
gridDepth := 5
SetCellsize(resolution, resolution, zResolution)
SetGridsize(gridSize, gridSize, gridDepth)
SetPBC(16, 16, 0)
//resizing...
Msat = 700e3
Aex = 13e-12
alpha = 0.2
Bmax := 0.1
Bstep := Bmax / 500.0
TableAdd(B_ext)
TableAdd(m_full)
islandWidth := 8e-08
islandLength := 1.8000000000000002e-07
ellipseConstant := 9.000000000000001e-09
hIsland := Universe().Inverse()
vIsland := Universe().Inverse()
vIslands := Universe().Inverse()
hIslands := Universe().Inverse()
hIsland = rect(islandLength-2*ellipseConstant, islandWidth)
hIsland = hIsland.add(ellipse(ellipseConstant*2, islandWidth).transl(islandLength/2-ellipseConstant, 0, 0))
hIsland = hIsland.add(ellipse(ellipseConstant*2, islandWidth).transl(-islandLength/2+ellipseConstant, 0, 0))
hIsland = hIsland.add(rect(4.437772778474598e-09, 1.112360000741091e-09).transl(6.078575724085243e-08, -4e-08, 0))
hIsland = hIsland.add(rect(2.4135599617751523e-09, 1.9172488700235944e-09).transl(7.647420414660446e-08, -4e-08, 0))
hIsland = hIsland.sub(rect(7.373299106386007e-09, -2.617835858831393e-09).transl(7.869944493289234e-08, -4e-08, 0))
hIsland = hIsland.add(rect(4.013625549681625e-09, 2.264487312837058e-09).transl(-1.891745117206903e-08, -4e-08, 0))
hIsland = hIsland.add(rect(7.415526061217664e-09, 1.3577276829847117e-09).transl(-5.429851806289279e-08, -4e-08, 0))
hIsland = hIsland.add(rect(2.734694093297871e-09, 1.6542104724532519e-09).transl(3.203229840679512e-08, -4e-08, 0))
hIsland = hIsland.add(rect(9.691183722213516e-09, 1.2174917031648276e-09).transl(-5.2917276609184354e-08, -4e-08, 0))
hIsland = hIsland.sub(rect(3.496392603444374e-09, -3.168434669255907e-09).transl(7.735157672785836e-08, -4e-08, 0))
hIsland = hIsland.add(rect(9.563014465044585e-09, 2.3309784965425865e-10).transl(-7.183705837417398e-08, -4e-08, 0))
hIsland = hIsland.add(rect(9.309757229621535e-09, 6.676701376077808e-10).transl(4.443211751213352e-08, -4e-08, 0))
hIsland = hIsland.sub(rect(2.781230148216893e-09, -3.690419149607265e-09).transl(-1.5411160977913437e-08, -4e-08, 0))
hIsland = hIsland.sub(rect(6.3963650557689904e-09, -1.3666809636153581e-09).transl(8.964462751947496e-08, -1.1129243027322784e-08, 0))
hIsland = hIsland.add(rect(2.8491275323771206e-09, 6.884563582728332e-10).transl(-7.279097834650845e-08, -4e-08, 0))
hIsland = hIsland.add(rect(4.065834167387297e-09, 5.755994240308764e-09).transl(-3.7738653977962916e-08, -4e-08, 0))
hIsland = hIsland.sub(rect(3.185602228428837e-09, -7.045834043622027e-10).transl(6.173699745318696e-08, -4e-08, 0))
hIsland = hIsland.add(rect(8.569805080263124e-09, 2.8547898834897337e-09).transl(-6.070948779535439e-08, -4e-08, 0))
hIsland = hIsland.add(rect(2.62016783623087e-09, 1.7894752493105963e-09).transl(-4.5437601012818886e-08, -4e-08, 0))
hIsland = hIsland.sub(rect(6.618814365239681e-09, -2.5357556994268766e-09).transl(7.66111143406732e-08, -4e-08, 0))
hIsland = hIsland.sub(rect(4.733254775933958e-09, -1.3384680209304774e-09).transl(7.52691444709305e-08, -4e-08, 0))
hIsland = hIsland.sub(rect(8.205089003561767e-09, -5.852302262676001e-10).transl(-1.5692635045513125e-08, -4e-08, 0))
hIsland = hIsland.sub(rect(6.835685995669128e-09, -1.5062938613894579e-09).transl(-2.7365398567740808e-08, -4e-08, 0))
hIsland = hIsland.sub(rect(7.37596631350299e-09, -2.65382514658169e-09).transl(-1.9483213084222254e-08, -4e-08, 0))
hIsland = hIsland.add(rect(8.850704921753384e-09, 9.10999284275938e-10).transl(8.531576930879825e-08, -3.510102113058227e-08, 0))
hIsland = hIsland.add(rect(2.2747390069898057e-09, 2.0427035192585425e-09).transl(8.284824062922494e-08, -3.914745951777645e-08, 0))
hIsland = hIsland.add(rect(5.125305453607831e-09, 2.2238523662114664e-09).transl(8.432766833113125e-08, -3.7165395687415967e-08, 0))
hIsland = hIsland.sub(rect(3.393134567486663e-09, -2.0499992506342597e-09).transl(-2.7663582442688675e-08, -4e-08, 0))
hIsland = hIsland.sub(rect(6.792660164721261e-09, -3.298144853710327e-09).transl(-9.375761053464293e-09, -4e-08, 0))
hIsland = hIsland.add(rect(5.841483456071645e-09, 1.2810641877699965e-09).transl(1.554595356744835e-08, -4e-08, 0))
hIsland = hIsland.sub(rect(3.6526151936680526e-09, -5.088024474165342e-10).transl(-2.842538346003248e-08, -4e-08, 0))
hIsland = hIsland.add(rect(5.131005310181749e-09, 2.536468029464034e-09).transl(7.635750569763151e-08, -4e-08, 0))
hIsland = hIsland.add(rect(3.426125104098315e-09, 2.525010284170456e-09).transl(-5.937411616594859e-09, -4e-08, 0))
hIsland = hIsland.sub(rect(7.2059987803637685e-09, -3.2069931184874357e-10).transl(6.696219848454781e-08, -4e-08, 0))
hIsland = hIsland.sub(rect(7.559853274567671e-09, -8.70623179777823e-10).transl(-7.480923692104648e-08, -4e-08, 0))
hIsland = hIsland.add(rect(4.831353444831165e-09, 2.6212943193129963e-09).transl(-7.49089425182701e-08, -4e-08, 0))
hIsland = hIsland.add(rect(5.263433529487263e-09, 1.302065466745347e-09).transl(-8.445446693755775e-08, -3.693615664494829e-08, 0))
hIsland = hIsland.add(rect(8.439667622865145e-09, 1.1574160994348761e-09).transl(6.186737355248495e-08, -4e-08, 0))
hIsland = hIsland.add(rect(5.8502528874689365e-09, 1.5764099236890719e-09).transl(6.723708879620153e-08, -4e-08, 0))
hIsland = hIsland.sub(rect(3.342558930139937e-09, -5.909169013875257e-11).transl(-2.8087344520175145e-08, -4e-08, 0))
hIsland = hIsland.sub(rect(2.1301823554564755e-09, -9.698487033938446e-10).transl(-5.3653375105685453e-08, -4e-08, 0))
hIsland = hIsland.sub(rect(2.556484233070158e-09, -4.118782017429403e-09).transl(2.8098271736436618e-08, -4e-08, 0))
hIsland = hIsland.add(rect(5.313388653488966e-09, 2.7903022956005645e-10).transl(4.29400882296973e-08, -4e-08, 0))
hIsland = hIsland.add(rect(3.016977145521681e-09, 1.3681374757171164e-09).transl(6.386523441677322e-08, -4e-08, 0))
hIsland = hIsland.add(rect(2.2744623647821708e-09, 1.1367428122437309e-10).transl(7.835736516593158e-08, -4e-08, 0))
hIsland = hIsland.sub(rect(9.138394028440538e-09, -1.0576669677508865e-09).transl(-5.074975075282373e-08, -4e-08, 0))
hIsland = hIsland.sub(rect(4.850176716771001e-09, -1.7462947523475627e-10).transl(-3.5743688980002124e-08, -4e-08, 0))
hIsland = hIsland.sub(rect(5.9062616525593935e-09, -5.154970843157167e-09).transl(-8.279435510531129e-08, -3.9196948673392424e-08, 0))
hIsland = hIsland.add(rect(5.317619939415837e-09, 1.4264895809604087e-09).transl(-3.1035823834593045e-08, -4e-08, 0))
hIsland = hIsland.sub(rect(6.348435679722163e-09, -2.56925736025439e-09).transl(-6.483000858524744e-08, -4e-08, 0))
hIsland = hIsland.sub(rect(5.1349221705128675e-09, -1.8491328032022888e-09).transl(8.168499714119247e-08, -3.98839746688918e-08, 0))
hIsland = hIsland.add(rect(5.8262906828677416e-09, 9.077578024699355e-10).transl(2.7285976908351385e-08, -4e-08, 0))
hIsland = hIsland.sub(rect(9.953497650512067e-09, -1.9245140222143163e-09).transl(-2.2158576742124255e-08, -4e-08, 0))
hIsland = hIsland.add(rect(8.732835441543692e-09, 9.770836295526052e-10).transl(8.181076161680039e-08, -3.9837364581563496e-08, 0))
hIsland = hIsland.sub(rect(8.964421131751202e-09, -1.8460210162067588e-09).transl(2.5026033739042205e-08, -4e-08, 0))
hIsland = hIsland.sub(rect(4.533991451307648e-09, -1.8511451893896276e-09).transl(-3.7710038846425324e-08, -4e-08, 0))
hIsland = hIsland.sub(rect(7.360175670958537e-09, -9.872990484026346e-10).transl(4.1378688695258245e-08, -4e-08, 0))
hIsland = hIsland.sub(rect(6.483391113941947e-09, -9.841849358069014e-10).transl(3.989490062570433e-08, -4e-08, 0))
hIsland = hIsland.sub(rect(2.3040355836496904e-09, -1.3277821400789988e-09).transl(7.095190556005653e-08, -4e-08, 0))
hIsland = hIsland.sub(rect(9.124885768592762e-09, -3.496150018703061e-09).transl(4.2912828323923974e-08, -4e-08, 0))
hIsland = hIsland.add(rect(3.5095410556283765e-09, 1.0673795799869552e-09).transl(7.300477320381427e-09, -4e-08, 0))
hIsland = hIsland.add(rect(6.166526176328476e-09, 3.0319923917001203e-12).transl(3.149795762692745e-08, -4e-08, 0))
hIsland = hIsland.add(rect(7.727650576902595e-09, 1.1962586275552424e-10).transl(4.529893382603951e-08, -4e-08, 0))
hIsland = hIsland.sub(rect(7.53244710045104e-09, -1.7773074873313145e-09).transl(3.206647757156783e-08, -4e-08, 0))
hIsland = hIsland.add(rect(3.6879704442737994e-09, 2.2018296400503303e-09).transl(-4.291591782581181e-08, -4e-08, 0))
hIsland = hIsland.sub(rect(9.461051311103944e-09, -2.4791227386764483e-10).transl(3.287945919218686e-08, -4e-08, 0))
hIsland = hIsland.sub(rect(2.1447325625954712e-09, -3.069801269638443e-10).transl(5.514924460023407e-08, -4e-08, 0))
hIsland = hIsland.sub(rect(5.782539993902457e-09, -1.2774915206622605e-09).transl(6.758827462093521e-08, -4e-08, 0))
hIsland = hIsland.add(rect(7.907199610767511e-09, 1.697816167234578e-09).transl(8.561601249853774e-08, -3.433816682649666e-08, 0))
hIsland = hIsland.add(rect(2.8430934741965928e-09, 1.966851064153992e-09).transl(2.7641277172348707e-08, -4e-08, 0))
hIsland = hIsland.sub(rect(3.886526143576934e-09, -5.535380606879615e-10).transl(4.846390722617946e-08, -4e-08, 0))
hIsland = hIsland.add(rect(6.191963885899819e-09, 1.6217077571119913e-09).transl(-6.76090094333497e-08, -4e-08, 0))
hIsland = hIsland.sub(rect(3.629139347303636e-09, -1.989062219788534e-09).transl(-7.00695487515763e-08, -4e-08, 0))
hIsland = hIsland.add(rect(2.898938074972934e-09, 7.319038234675731e-10).transl(-3.554825761940564e-08, -4e-08, 0))
hIsland = hIsland.sub(rect(3.849616810837705e-09, -1.5548843323034298e-09).transl(-2.3463205280063085e-08, -4e-08, 0))
hIsland = hIsland.add(rect(4.255572625111439e-09, 3.3160283145959784e-10).transl(-7.176460712453845e-08, -4e-08, 0))
hIsland = hIsland.sub(rect(6.4682716505964925e-09, -1.5323677848119718e-09).transl(6.942651420547647e-08, -4e-08, 0))
hIsland = hIsland.sub(rect(9.836139735160448e-09, -1.3730283157224302e-09).transl(4.455039259734516e-08, -4e-08, 0))
hIsland = hIsland.sub(rect(2.2918230300963708e-09, -3.6577278669497237e-09).transl(-5.195399926324756e-08, -4e-08, 0))
hIsland = hIsland.add(rect(4.4924964910714225e-09, 2.182255091471223e-09).transl(8.000514305702233e-08, -4e-08, 0))
hIsland = hIsland.add(rect(2.7876371929583012e-09, 2.5415793365370024e-09).transl(3.4969643945398675e-08, -4e-08, 0))
hIsland = hIsland.add(rect(3.005524832272739e-09, 5.734794347933051e-10).transl(-4.232480081506792e-08, -4e-08, 0))
hIsland = hIsland.add(rect(7.184024064355846e-09, 1.5170008812280059e-09).transl(-6.170905570403183e-08, -4e-08, 0))
hIsland = hIsland.sub(rect(4.197163850156107e-09, -4.286223625394533e-10).transl(-7.027774278842759e-09, -4e-08, 0))
hIsland = hIsland.add(rect(6.316720448065205e-09, 2.9918845779463806e-09).transl(8.67712010790963e-08, -3.069346272284657e-08, 0))
hIsland = hIsland.add(rect(6.691644970135783e-09, 1.5528925859906754e-09).transl(2.450058395496886e-08, -4e-08, 0))
hIsland = hIsland.add(rect(5.844229834574778e-09, 2.091733212803099e-09).transl(5.809834880083115e-08, -4e-08, 0))
hIsland = hIsland.add(rect(3.489159643601779e-09, 8.203233082161079e-10).transl(8.187843435180248e-08, -3.9809013952782195e-08, 0))
hIsland = hIsland.sub(rect(3.677056062531102e-09, -4.838320892195054e-10).transl(4.819253460699288e-08, -4e-08, 0))
hIsland = hIsland.add(rect(4.028310382784609e-09, 1.206971748550413e-09).transl(6.194848926575285e-08, -4e-08, 0))
hIsland = hIsland.add(rect(8.360622269153545e-09, 3.677606102896724e-09).transl(-1.905708871013495e-08, -4e-08, 0))
hIsland = hIsland.add(rect(4.528209607657565e-09, 3.870210060477219e-09).transl(8.516317065340263e-08, -3.546321623724119e-08, 0))
hIsland = hIsland.sub(rect(8.272558188690612e-09, -1.7915795691410278e-09).transl(5.8089239246189496e-08, -4e-08, 0))
hIsland = hIsland.add(rect(6.073834236888337e-09, 3.7048221512382185e-09).transl(-5.827873231739142e-09, -4e-08, 0))
hIsland = hIsland.add(rect(2.0196889125721624e-09, 3.972375484217032e-09).transl(3.9070988956776656e-08, -4e-08, 0))
hIsland = hIsland.sub(rect(5.102237338381587e-09, -1.0872109228000508e-09).transl(-1.0821044659692317e-08, -4e-08, 0))
hIsland = hIsland.add(rect(9.323993381167674e-09, 2.448438541275953e-09).transl(-4.0333816700989105e-08, -4e-08, 0))
hIsland = hIsland.add(rect(7.944160516779107e-09, 3.0353251681764802e-09).transl(-6.765760955307775e-08, -4e-08, 0))
hIsland = hIsland.sub(rect(4.407318003046635e-09, -6.760468527153809e-10).transl(3.2549042937338494e-08, -4e-08, 0))
hIsland = hIsland.add(rect(3.937217724041972e-09, 1.9323670444172412e-10).transl(7.504103506525612e-09, -4e-08, 0))
hIsland = hIsland.sub(rect(2.8944822884233584e-09, -2.6881272927622646e-10).transl(-3.182739318254676e-08, -4e-08, 0))
hIsland = hIsland.add(rect(9.699993607623555e-09, 1.9464725380949228e-09).transl(-9.69552502973224e-10, -4e-08, 0))
hIsland = hIsland.add(rect(9.318439964808867e-09, 9.647789379993835e-10).transl(-2.5022863124999396e-08, -4e-08, 0))
hIsland = hIsland.sub(rect(8.012530479900333e-09, -3.929243542762466e-09).transl(-8.192808287846867e-09, -4e-08, 0))
hIsland = hIsland.add(rect(4.342404967377233e-09, 1.6086412242323835e-09).transl(5.163519221862834e-08, -4e-08, 0))
hIsland = hIsland.add(rect(4.2055664704818064e-09, 5.040977186822111e-10).transl(3.669627227521877e-08, -4e-08, 0))
hIsland = hIsland.add(rect(7.807607708424295e-09, 7.035418325801241e-10).transl(5.6030133084464205e-09, -4e-08, 0))
hIsland = hIsland.sub(rect(6.1471166441215636e-09, -2.0376681573266814e-09).transl(-8.800750261222575e-08, -2.5100256115814747e-08, 0))
hIsland = hIsland.sub(rect(2.225834909565812e-09, -3.109939010245358e-09).transl(-5.487957931794044e-09, -4e-08, 0))
hIsland = hIsland.sub(rect(5.813941527514952e-09, -1.0484913488227991e-09).transl(6.285811992627524e-08, -4e-08, 0))
hIsland = hIsland.sub(rect(2.2418716264007496e-09, -8.554649005563171e-10).transl(-3.6539747015678405e-08, -4e-08, 0))
hIsland = hIsland.sub(rect(2.4830118273635845e-09, -3.786490867038508e-09).transl(5.6427354136150534e-08, -4e-08, 0))
hIsland = hIsland.add(rect(8.337786726681208e-09, 2.633096331748198e-09).transl(-6.167440933975386e-08, -4e-08, 0))
hIsland = hIsland.add(rect(4.640171046482793e-09, 2.5518806317872228e-09).transl(8.96616796780318e-08, -1.086419436104185e-08, 0))
hIsland = hIsland.sub(rect(8.845217797531025e-09, -6.379044061305625e-10).transl(-8.729903596911419e-08, -2.856991281432944e-08, 0))
hIsland = hIsland.add(rect(2.438124400994739e-09, 3.5513690758253666e-09).transl(2.7616548029042116e-08, -4e-08, 0))
hIsland = hIsland.sub(rect(6.915648790405074e-09, -1.505193300295776e-09).transl(5.992331227075405e-08, -4e-08, 0))
hIsland = hIsland.add(rect(9.664795980683874e-09, 4.877957914947265e-10).transl(4.9493363605111283e-08, -4e-08, 0))
hIsland = hIsland.add(rect(4.864892684276603e-09, 6.0676337111220025e-09).transl(-5.344532556481806e-08, -4e-08, 0))
hIsland = hIsland.sub(rect(6.037140804946408e-09, -9.903241336152958e-10).transl(2.9468744269828045e-08, -4e-08, 0))
hIsland = hIsland.sub(rect(2.538123540475601e-09, -1.244736566472291e-09).transl(1.640483503274471e-08, -4e-08, 0))
hIsland = hIsland.add(rect(2.7500329721902085e-09, 1.1380937699627864e-09).transl(4.8425616919655696e-08, -4e-08, 0))
hIsland = hIsland.sub(rect(7.37862830071861e-09, -1.2098172488063176e-09).transl(4.7209901557397994e-08, -4e-08, 0))
hIsland = hIsland.add(rect(2.2909654005681066e-09, 4.0824480376458206e-10).transl(-2.1945211919311844e-08, -4e-08, 0))
hIsland = hIsland.add(rect(3.220399533687324e-09, 5.258337055590012e-10).transl(-6.291985332418629e-08, -4e-08, 0))
hIsland = hIsland.sub(rect(9.037866172696636e-09, -3.03375611530397e-09).transl(5.160124876917692e-08, -4e-08, 0))
hIsland = hIsland.add(rect(3.158223048994133e-09, 2.7484138252109964e-09).transl(-8.388386001471188e-08, -3.789090288959296e-08, 0))
hIsland = hIsland.sub(rect(5.091076010920806e-09, -2.3918634247924934e-09).transl(-3.5717264536737706e-09, -4e-08, 0))
hIsland = hIsland.sub(rect(9.43576685710313e-09, -7.734303553251665e-10).transl(-5.5680086346909776e-08, -4e-08, 0))
hIsland = hIsland.add(rect(2.8265932141957313e-09, 1.804463149797213e-09).transl(-3.827998434220007e-08, -4e-08, 0))
hIsland = hIsland.sub(rect(9.305753523954002e-09, -8.782310364220955e-11).transl(-1.4530505355883252e-08, -4e-08, 0))
hIsland = hIsland.add(rect(3.2623245102853248e-09, 2.1305996064067e-09).transl(6.160041893025301e-09, -4e-08, 0))
hIsland = hIsland.sub(rect(6.396263414683589e-09, -4.456079334453565e-09).transl(5.3223570474473555e-09, -4e-08, 0))
hIsland = hIsland.add(rect(3.867341153079071e-09, 6.593383698044872e-10).transl(-6.088377429647837e-08, -4e-08, 0))
hIsland = hIsland.sub(rect(8.221453964019296e-09, -3.668577615396472e-10).transl(8.864104622057436e-09, -4e-08, 0))
hIsland = hIsland.sub(rect(8.312677969132238e-09, -1.878814079380622e-09).transl(-4.9018804328925896e-08, -4e-08, 0))
hIsland = hIsland.sub(rect(2.758282334800474e-09, -1.0294429507245166e-10).transl(2.747405769671596e-08, -4e-08, 0))
hIsland = hIsland.sub(rect(3.955253458568348e-09, -2.7149617625550673e-09).transl(-1.7853510066056425e-08, -4e-08, 0))
hIsland = hIsland.sub(rect(4.5129058558804495e-09, -2.516157399569904e-09).transl(-1.1746623217360488e-08, -4e-08, 0))
hIsland = hIsland.sub(rect(5.730843126259382e-09, -1.3324349491246382e-09).transl(8.213461110219546e-08, -3.968086459800158e-08, 0))
hIsland = hIsland.sub(rect(4.672419166617538e-09, -5.831136804927696e-10).transl(-5.318799388007299e-09, -4e-08, 0))
hIsland = hIsland.add(rect(2.0853159849819945e-09, 3.0693350219949307e-09).transl(-3.395240413810673e-08, -4e-08, 0))
hIsland = hIsland.add(rect(8.271652539654636e-09, 1.8030908078777349e-09).transl(7.078727589822736e-08, -4e-08, 0))
hIsland = hIsland.sub(rect(9.965877861979736e-09, -9.031621861079166e-10).transl(6.288652164209693e-08, -4e-08, 0))
hIsland = hIsland.add(rect(8.752764884042315e-09, 9.177321202210671e-10).transl(-2.3791670299340662e-08, -4e-08, 0))
hIsland = hIsland.add(rect(3.58801573946326e-09, 2.712939279660062e-09).transl(-1.0101706477916237e-08, -4e-08, 0))
hIsland = hIsland.add(rect(2.2309570004884983e-09, 1.6381590255401346e-09).transl(7.894670360123773e-08, -4e-08, 0))
hIsland = hIsland.sub(rect(8.642463673379691e-09, -7.856253266802999e-11).transl(1.3323168049626966e-08, -4e-08, 0))
hIsland = hIsland.add(rect(2.7041256771295485e-09, 2.4297652986651937e-09).transl(-1.4738324801778948e-08, -4e-08, 0))
hIsland = hIsland.sub(rect(2.3734554261522204e-09, -1.0347870058330946e-09).transl(-2.2414584355485122e-08, -4e-08, 0))
hIsland = hIsland.add(rect(2.681990500842324e-09, 2.3268901949590763e-10).transl(4.456889856908632e-08, -4e-08, 0))
hIsland = hIsland.add(rect(3.063774599455937e-09, 8.24643293597943e-10).transl(8.400640431501852e-08, -3.770228616564662e-08, 0))
hIsland = hIsland.sub(rect(3.6683308163449236e-09, -7.48899587965816e-10).transl(-1.1490177687899345e-08, -4e-08, 0))
hIsland = hIsland.add(rect(3.940379753832375e-09, 1.603724718530654e-09).transl(3.487688396189334e-08, -4e-08, 0))
hIsland = hIsland.add(rect(8.381579651385586e-09, 3.645650412958979e-10).transl(3.945078792519299e-08, -4e-08, 0))
hIsland = hIsland.sub(rect(8.431642017924038e-09, -3.6370256245832003e-09).transl(4.615648690812887e-09, -4e-08, 0))
hIsland = hIsland.sub(rect(4.392789006169992e-09, -2.0566698810166157e-09).transl(-4.969214010555597e-09, -4e-08, 0))
hIsland = hIsland.sub(rect(5.122346196550892e-09, -5.5592767225547834e-09).transl(4.8724724138156274e-08, -4e-08, 0))
hIsland = hIsland.add(rect(2.653516040021449e-09, 3.6804290265595493e-09).transl(2.9587911539786418e-08, -4e-08, 0))
hIsland = hIsland.sub(rect(2.6515998255053674e-09, -2.4419167600377374e-09).transl(-5.0443104573807327e-08, -4e-08, 0))
hIsland = hIsland.add(rect(2.1329496169728074e-09, 3.2544872644980867e-11).transl(3.726368830392994e-08, -4e-08, 0))
hIsland = hIsland.add(rect(5.349533611378033e-09, 8.526790301434972e-10).transl(6.431681633923773e-08, -4e-08, 0))
hIsland = hIsland.sub(rect(2.3944869265530154e-09, -9.599128664045635e-10).transl(-1.0619778283139477e-08, -4e-08, 0))
hIsland = hIsland.sub(rect(9.326803443615434e-09, -1.5756629235747215e-09).transl(2.0414759080923464e-08, -4e-08, 0))
hIsland = hIsland.sub(rect(3.2988625071793403e-09, -9.617466922016064e-10).transl(6.673968102210201e-08, -4e-08, 0))
hIsland = hIsland.add(rect(4.941402433667773e-09, 2.0796668886685144e-09).transl(-6.755679265794322e-08, -4e-08, 0))
hIsland = hIsland.sub(rect(4.696465016809535e-09, -7.926754293009443e-10).transl(6.814018697449882e-08, -4e-08, 0))
hIsland = hIsland.add(rect(9.543827816948561e-09, 1.4171647376368316e-09).transl(7.4255130588151e-08, -4e-08, 0))
hIsland = hIsland.sub(rect(3.168230635576599e-09, -1.5102894666370315e-09).transl(7.90937922290173e-08, -4e-08, 0))
hIsland = hIsland.add(rect(8.051710259597316e-09, 4.002399079368537e-09).transl(-3.5069563934638076e-08, -4e-08, 0))
hIsland = hIsland.sub(rect(6.026580414060935e-09, -7.603467583228757e-10).transl(3.5729848961557063e-08, -4e-08, 0))
hIsland = hIsland.sub(rect(8.450936857972214e-09, -1.6796159982271433e-09).transl(-5.94830825369228e-08, -4e-08, 0))
hIsland = hIsland.sub(rect(2.6090150058076713e-09, -2.2278538982287506e-09).transl(-2.19916273713882e-08, -4e-08, 0))
hIsland = hIsland.sub(rect(4.315353805043967e-09, -2.492594487909111e-09).transl(2.5748045977408898e-08, -4e-08, 0))
hIsland = hIsland.add(rect(4.609638972574898e-09, 2.4848222431616476e-10).transl(-1.969850722525709e-08, -4e-08, 0))
hIsland = hIsland.add(rect(9.118756208949933e-09, 2.0256745035642504e-09).transl(-8.562917702932605e-08, -3.430314243422054e-08, 0))
hIsland = hIsland.sub(rect(5.451872318089585e-09, -1.1793987063002314e-09).transl(5.5461861155487214e-08, -4e-08, 0))
hIsland = hIsland.add(rect(5.127589800098414e-09, 2.035001252220798e-09).transl(-7.32929060827292e-09, -4e-08, 0))
hIsland = hIsland.add(rect(7.240686050699596e-09, 2.5112794815105556e-10).transl(2.993078883778478e-09, -4e-08, 0))
hIsland = hIsland.add(rect(5.409810635482083e-09, 9.97615334219084e-10).transl(6.253359579858026e-08, -4e-08, 0))
hIsland = hIsland.add(rect(8.161855271356349e-09, 1.917073413214499e-09).transl(5.3459162343822566e-08, -4e-08, 0))
hIsland = hIsland.sub(rect(2.19174877533667e-09, -1.4318373061507346e-09).transl(-1.9542636106127042e-09, -4e-08, 0))
hIsland = hIsland.add(rect(7.730682218281311e-09, 1.0212014266009878e-09).transl(-7.211393974753791e-08, -4e-08, 0))
hIsland = hIsland.sub(rect(9.542842035281797e-09, -1.178878592995347e-09).transl(3.984236918220582e-08, -4e-08, 0))
hIsland = hIsland.add(rect(5.242503976339852e-09, 1.2772122989994337e-09).transl(-5.831008886116448e-08, -4e-08, 0))
hIsland = hIsland.sub(rect(4.160653537991528e-09, -1.648192377611183e-09).transl(-3.6335247744455924e-08, -4e-08, 0))
hIsland = hIsland.sub(rect(4.2648292361714474e-09, -2.3041742877214958e-10).transl(-2.3838447332186614e-08, -4e-08, 0))
hIsland = hIsland.sub(rect(8.372114065273481e-09, -1.9031855861347406e-10).transl(-3.555238029898173e-08, -4e-08, 0))
hIsland = hIsland.sub(rect(9.310805633638783e-09, -7.021822228790007e-10).transl(-8.228610913151976e-08, -3.95894794110251e-08, 0))
hIsland = hIsland.sub(rect(5.396673583855927e-09, -3.3896590408123587e-09).transl(-9.480741908798356e-09, -4e-08, 0))
hIsland = hIsland.sub(rect(7.705801087125054e-09, -1.330121173331688e-09).transl(-3.2157396522659267e-08, -4e-08, 0))
hIsland = hIsland.sub(rect(6.952320137229088e-09, -1.543040403991495e-09).transl(-8.265293862495954e-08, -3.9319594311639826e-08, 0))
hIsland = hIsland.sub(rect(6.951002714584927e-09, -1.0098537238625945e-09).transl(-4.63613992019705e-10, -4e-08, 0))
hIsland = hIsland.add(rect(6.7848168072022686e-09, 3.1473506260353477e-09).transl(-8.039872308601894e-08, -4e-08, 0))
hIsland = hIsland.add(rect(8.611553922305476e-09, 2.1859048780809524e-09).transl(1.9647479194849296e-08, -4e-08, 0))
hIsland = hIsland.sub(rect(3.078877537281149e-09, -1.0679438072146049e-09).transl(-2.3492547847030428e-08, -4e-08, 0))
hIsland = hIsland.sub(rect(2.4058822419698765e-09, -6.978947381038131e-10).transl(-1.9877272658234234e-08, -4e-08, 0))
hIsland = hIsland.add(rect(9.495892408485013e-09, 8.640962231297886e-10).transl(4.051376889443918e-08, -4e-08, 0))
hIsland = hIsland.sub(rect(4.741818960806771e-09, -2.3166149974633236e-10).transl(-6.584039261389056e-08, -4e-08, 0))
hIsland = hIsland.add(rect(9.775840127598614e-09, 1.4700710499771545e-09).transl(-2.897217070943918e-08, -4e-08, 0))
hIsland = hIsland.sub(rect(3.015915051835223e-09, -3.8473628110878345e-09).transl(8.620280432902942e-08, -3.263893822826202e-08, 0))
hIsland = hIsland.sub(rect(3.9344901398416106e-09, -1.6414317364432949e-09).transl(-5.7248806805370285e-08, -4e-08, 0))
hIsland = hIsland.add(rect(2.982949395650688e-09, 1.6045587582536664e-09).transl(-7.926669557518287e-08, 4e-08, 0))
hIsland = hIsland.add(rect(2.675588524243181e-09, 1.7550133421159407e-09).transl(5.1512826648489136e-08, 4e-08, 0))
hIsland = hIsland.add(rect(9.397353274169204e-09, 2.37494676190601e-09).transl(-1.2424767851600462e-08, 4e-08, 0))
hIsland = hIsland.add(rect(4.762075173578379e-09, 5.232323441994842e-10).transl(7.967127632346668e-08, 4e-08, 0))
hIsland = hIsland.sub(rect(2.2310157324679205e-09, -6.515120985493193e-10).transl(2.7795676531615846e-08, 4e-08, 0))
hIsland = hIsland.sub(rect(8.912085550390377e-09, -1.0972927963626487e-09).transl(-7.147959535157232e-09, 4e-08, 0))
hIsland = hIsland.add(rect(2.257215212034354e-09, 3.144535977549829e-09).transl(-8.59341288949975e-08, 3.345293271317352e-08, 0))
hIsland = hIsland.sub(rect(7.990738128902865e-09, -1.9408056049072857e-10).transl(1.048657215367932e-09, 4e-08, 0))
hIsland = hIsland.add(rect(3.413143412550625e-09, 9.370947826753754e-10).transl(4.330455646272746e-08, 4e-08, 0))
hIsland = hIsland.add(rect(4.832274953919145e-09, 2.6851149975500577e-09).transl(-5.2149887459350805e-08, 4e-08, 0))
hIsland = hIsland.add(rect(8.037375418665005e-09, 5.293023250076325e-11).transl(6.848030754036355e-08, 4e-08, 0))
hIsland = hIsland.sub(rect(4.613071563130167e-09, -1.6519454372393546e-09).transl(-2.159221904521262e-08, 4e-08, 0))
hIsland = hIsland.add(rect(8.67342115876266e-09, 2.0182353762473127e-09).transl(6.336124729550468e-10, 4e-08, 0))
hIsland = hIsland.add(rect(8.875582627521898e-09, 1.0091952309914074e-09).transl(-6.209445385954423e-08, 4e-08, 0))
hIsland = hIsland.add(rect(5.467400390410708e-09, 1.3914500521344823e-09).transl(-2.4895851247091848e-08, 4e-08, 0))
hIsland = hIsland.add(rect(4.360066433255699e-09, 5.070674617939398e-09).transl(6.434964132191851e-08, 4e-08, 0))
hIsland = hIsland.add(rect(2.1000057948547103e-09, 1.2342563970437718e-09).transl(9.23146174428293e-09, 4e-08, 0))
hIsland = hIsland.sub(rect(7.3190140386076314e-09, -1.6560212841212028e-09).transl(8.40571202972415e-08, 3.762164217921149e-08, 0))
hIsland = hIsland.add(rect(5.344432863270559e-09, 2.1344600864837903e-09).transl(7.133454989238219e-08, 4e-08, 0))
hIsland = hIsland.sub(rect(6.377304124263467e-09, -1.4200857394896548e-09).transl(-7.782809675627214e-08, 4e-08, 0))
hIsland = hIsland.add(rect(5.397495407947725e-09, 1.2382929217509478e-09).transl(6.582719694430732e-08, 4e-08, 0))
hIsland = hIsland.sub(rect(4.583017487134105e-09, -4.517397216654036e-09).transl(6.55343348163374e-08, 4e-08, 0))
hIsland = hIsland.sub(rect(6.622194816005408e-09, -1.094032616005189e-09).transl(4.717303877769062e-08, 4e-08, 0))
hIsland = hIsland.sub(rect(3.9961067949583325e-09, -1.6269633688855984e-10).transl(6.858874089793845e-08, 4e-08, 0))
hIsland = hIsland.add(rect(4.584064437115534e-09, 2.464222356967331e-10).transl(-8.239683821497094e-08, 3.951529611661964e-08, 0))
hIsland = hIsland.add(rect(6.517563974732602e-09, 1.649306103295005e-09).transl(-3.6454338624947525e-09, 4e-08, 0))
hIsland = hIsland.add(rect(8.879901448637928e-09, 1.07963925636002e-09).transl(-1.7145882450022327e-08, 4e-08, 0))
hIsland = hIsland.sub(rect(3.2252508195611825e-09, -1.841309731063073e-10).transl(4.9362437226383305e-09, 4e-08, 0))
hIsland = hIsland.sub(rect(4.679972910964029e-09, -1.1951871913960494e-09).transl(-5.644771587046081e-08, 4e-08, 0))
hIsland = hIsland.sub(rect(8.056591752986652e-09, -2.6942699872750237e-09).transl(4.3141696065830116e-08, 4e-08, 0))
hIsland = hIsland.add(rect(5.548663475148183e-09, 8.192680369569723e-09).transl(-8.642215182845586e-08, 3.1925923380340414e-08, 0))
hIsland = hIsland.sub(rect(7.582844461811292e-09, -2.623778553171417e-09).transl(3.646743923250018e-08, 4e-08, 0))
hIsland = hIsland.sub(rect(6.663290117954038e-09, -7.028338771124242e-10).transl(2.0003967917887026e-09, 4e-08, 0))
hIsland = hIsland.sub(rect(7.891190615816794e-09, -1.619917145605004e-10).transl(-7.022775119695468e-08, 4e-08, 0))
hIsland = hIsland.add(rect(6.378772121359729e-09, 5.759945860035329e-10).transl(2.8071562805997616e-08, 4e-08, 0))
hIsland = hIsland.sub(rect(6.937099073332468e-09, -7.87873914594418e-10).transl(-4.383892153353147e-08, 4e-08, 0))
hIsland = hIsland.add(rect(5.48429018974296e-09, 2.6949481474316658e-11).transl(-6.283213105305996e-08, 4e-08, 0))
hIsland = hIsland.add(rect(2.4318749129198693e-09, 1.5936519945667357e-09).transl(1.665039174838124e-08, 4e-08, 0))
hIsland = hIsland.add(rect(3.0752312374751334e-09, 2.223290558949189e-09).transl(-8.272079918953981e-08, 3.926204466271303e-08, 0))
hIsland = hIsland.add(rect(2.490168166111615e-09, 2.0781880522941334e-09).transl(-5.81649160946454e-08, 4e-08, 0))
hIsland = hIsland.sub(rect(2.322447531602898e-09, -3.580194074495365e-09).transl(3.5739418752972434e-08, 4e-08, 0))
hIsland = hIsland.sub(rect(6.3812641109635974e-09, -1.5102655181449052e-10).transl(6.32020375771626e-08, 4e-08, 0))
hIsland = hIsland.sub(rect(5.3386128666524805e-09, -6.878814701520177e-10).transl(2.9180417019815745e-08, 4e-08, 0))
hIsland = hIsland.add(rect(6.064240898711499e-09, 1.0626416880743722e-09).transl(5.750735421839882e-08, 4e-08, 0))
hIsland = hIsland.add(rect(2.628403961286832e-09, 3.228365542664855e-09).transl(-5.2938411391844e-08, 4e-08, 0))
hIsland = hIsland.add(rect(6.8297485997296e-09, 9.434123783950328e-10).transl(-4.27019502951807e-09, 4e-08, 0))
hIsland = hIsland.add(rect(3.1238216109429962e-09, 1.1128250961226739e-09).transl(1.2227507538093966e-08, 4e-08, 0))
hIsland = hIsland.add(rect(3.652680958499636e-09, 1.3204915570771329e-09).transl(7.471555313926501e-08, 4e-08, 0))
hIsland = hIsland.sub(rect(9.203908464686134e-09, -5.760454758866158e-11).transl(-6.788277532072016e-08, 4e-08, 0))
hIsland = hIsland.add(rect(4.945493639661603e-09, 7.403727718857892e-10).transl(9.13600985521321e-09, 4e-08, 0))
hIsland = hIsland.sub(rect(6.645018390559017e-09, -2.5903802906095105e-10).transl(8.342565075757922e-08, 3.8519828058089746e-08, 0))
hIsland = hIsland.sub(rect(4.015316663883083e-09, -9.805200664049824e-10).transl(-8.622938780307008e-08, 3.255491184956394e-08, 0))
hIsland = hIsland.add(rect(5.59916094457616e-09, 3.5942655567597155e-09).transl(1.402542652883854e-08, 4e-08, 0))
hIsland = hIsland.add(rect(6.734299692671411e-09, 2.495688169363999e-09).transl(8.948752029136284e-08, 1.3305154893492908e-08, 0))
hIsland = hIsland.add(rect(7.803658061983787e-09, 1.8535964408185998e-09).transl(-6.495904096487101e-08, 4e-08, 0))
hIsland = hIsland.add(rect(8.872134206148822e-09, 5.518241807656364e-09).transl(3.277529370149993e-08, 4e-08, 0))
hIsland = hIsland.sub(rect(7.327520814316275e-09, -4.5227722658517326e-10).transl(3.6036069337819005e-08, 4e-08, 0))
hIsland = hIsland.sub(rect(9.153024356974492e-09, -2.9733318540726646e-09).transl(3.984947846662554e-08, 4e-08, 0))
hIsland = hIsland.add(rect(4.57278318985002e-09, 1.7834971202544388e-09).transl(-6.60380642051016e-08, 4e-08, 0))
hIsland = hIsland.add(rect(7.459318503514604e-09, 1.8423222595685129e-09).transl(6.092852545284372e-08, 4e-08, 0))
hIsland = hIsland.sub(rect(9.625119940721257e-09, -2.1962427037913516e-09).transl(8.183705476252008e-08, 3.982662161327226e-08, 0))
hIsland = hIsland.add(rect(9.937607017591827e-09, 1.410355173662595e-09).transl(-5.735634814414915e-08, 4e-08, 0))
hIsland = hIsland.add(rect(3.774950015661316e-09, 2.63177630090218e-09).transl(-4.6157679368591836e-08, 4e-08, 0))
hIsland = hIsland.add(rect(8.178736890487275e-09, 3.3200791428554373e-10).transl(2.5056849326536858e-08, 4e-08, 0))
hIsland = hIsland.sub(rect(9.642401092466191e-09, -8.413979777745665e-10).transl(3.3639959845002383e-09, 4e-08, 0))
hIsland = hIsland.sub(rect(4.8023350205416845e-09, -2.4345872792732857e-09).transl(-7.950128325293534e-08, 4e-08, 0))
hIsland = hIsland.sub(rect(4.4138839188463094e-09, -4.3457876420791836e-10).transl(-5.653357413627826e-08, 4e-08, 0))
hIsland = hIsland.add(rect(2.3859655101004853e-09, 4.919731201112818e-09).transl(-1.6878064840493318e-08, 4e-08, 0))
hIsland = hIsland.add(rect(9.383786244060035e-09, 2.6400872263417085e-09).transl(4.73175641836296e-09, 4e-08, 0))
hIsland = hIsland.add(rect(2.63882909265164e-09, 2.6626898518762917e-09).transl(-5.1914034528792606e-08, 4e-08, 0))
hIsland = hIsland.sub(rect(7.998222039315381e-09, -1.5331851716127891e-09).transl(7.752938987019754e-08, 4e-08, 0))
hIsland = hIsland.sub(rect(8.42397716964539e-09, -1.0191851038797475e-09).transl(1.010729076524058e-09, 4e-08, 0))
hIsland = hIsland.sub(rect(9.519350677123126e-09, -5.677928196525872e-10).transl(-5.3296346151186395e-08, 4e-08, 0))
hIsland = hIsland.add(rect(7.460468579778547e-09, 1.6129346365457217e-10).transl(5.704259965434544e-09, 4e-08, 0))
hIsland = hIsland.sub(rect(9.001797815114678e-09, -2.961617821286379e-09).transl(5.502703333623062e-08, 4e-08, 0))
hIsland = hIsland.sub(rect(7.768944970362323e-09, -3.795066594908257e-09).transl(-4.649583057744435e-08, 4e-08, 0))
hIsland = hIsland.sub(rect(3.19746479759347e-09, -1.887367503714301e-09).transl(-7.553717724182758e-08, 4e-08, 0))
hIsland = hIsland.add(rect(6.350770374417037e-09, 1.6706455726353982e-09).transl(-5.3322376842724475e-08, 4e-08, 0))
hIsland = hIsland.add(rect(9.450424734602907e-09, 1.6230625037994177e-09).transl(1.3555156392361214e-08, 4e-08, 0))
hIsland = hIsland.sub(rect(8.256050378655938e-09, -2.050821237093532e-09).transl(-8.266576148647921e-08, 3.930890356722676e-08, 0))
hIsland = hIsland.add(rect(8.734353731121659e-09, 7.27462651142626e-10).transl(1.7771274566988246e-08, 4e-08, 0))
hIsland = hIsland.sub(rect(4.171601293377374e-09, -2.1725363646307856e-10).transl(4.112008095179921e-08, 4e-08, 0))
hIsland = hIsland.add(rect(8.752247156288068e-09, 2.837385556102186e-09).transl(6.211802584663353e-09, 4e-08, 0))
hIsland = hIsland.sub(rect(8.975941855726313e-09, -5.215657345643051e-10).transl(6.36577061605746e-08, 4e-08, 0))
hIsland = hIsland.add(rect(5.007865207237326e-09, 5.767242166922442e-10).transl(7.457309785669373e-08, 4e-08, 0))
hIsland = hIsland.sub(rect(6.571583341838545e-09, -4.1602023170574e-09).transl(4.8224529880366296e-08, 4e-08, 0))
hIsland = hIsland.sub(rect(9.523420925087758e-09, -3.3762311041697256e-09).transl(-2.1194396033878358e-08, 4e-08, 0))
hIsland = hIsland.add(rect(6.929203353960979e-09, 2.098283484575045e-09).transl(5.6431887795623155e-08, 4e-08, 0))
hIsland = hIsland.sub(rect(4.913901843944539e-09, -7.209938098457683e-10).transl(5.851336794891039e-08, 4e-08, 0))
hIsland = hIsland.add(rect(4.231884275404559e-09, 3.64782354021166e-09).transl(-5.9468432924148334e-08, 4e-08, 0))
hIsland = hIsland.sub(rect(9.692077042467371e-09, -1.970818296457175e-09).transl(-5.9756571685644e-09, 4e-08, 0))
hIsland = hIsland.add(rect(7.55044824698275e-09, 4.278339501280359e-10).transl(3.609467689975463e-08, 4e-08, 0))
hIsland = hIsland.sub(rect(2.381597334599383e-09, -9.852490989850759e-10).transl(-2.183517157646648e-08, 4e-08, 0))
hIsland = hIsland.sub(rect(6.0041999017819956e-09, -7.435751895837413e-10).transl(-7.861254989368537e-08, 4e-08, 0))
hIsland = hIsland.add(rect(6.790716570003894e-09, 4.235478198528651e-09).transl(-7.58634263613895e-08, 4e-08, 0))
hIsland = hIsland.sub(rect(9.33737052437785e-09, -2.1440137058815688e-09).transl(7.610905173856536e-08, 4e-08, 0))
hIsland = hIsland.add(rect(2.7695793064304645e-09, 8.192367002662187e-10).transl(1.2531828319251516e-09, 4e-08, 0))
hIsland = hIsland.sub(rect(6.607057197730011e-09, -1.3119866116864278e-09).transl(8.458683221104473e-08, 3.668609174068783e-08, 0))
hIsland = hIsland.add(rect(7.559382481587364e-09, 1.5501164572294993e-09).transl(-1.6242893130294437e-08, 4e-08, 0))
hIsland = hIsland.add(rect(2.0126336202970417e-09, 4.684827729401611e-10).transl(4.65826315136448e-08, 4e-08, 0))
hIsland = hIsland.add(rect(6.212360623317325e-09, 1.5311260616384282e-09).transl(-4.742629070635942e-08, 4e-08, 0))
hIsland = hIsland.add(rect(9.290947114838394e-09, 6.107894586693084e-10).transl(3.604946860582288e-08, 4e-08, 0))
hIsland = hIsland.add(rect(3.0047712686432826e-09, 1.9624315146860523e-09).transl(4.08022662997871e-09, 4e-08, 0))
hIsland = hIsland.add(rect(6.545454643047689e-09, 1.7478107684871405e-10).transl(5.1423261812385214e-08, 4e-08, 0))
hIsland = hIsland.add(rect(3.6803246697530253e-09, 3.0340496822982307e-10).transl(2.92401282374375e-08, 4e-08, 0))
hIsland = hIsland.sub(rect(4.630250402402436e-09, -8.552380372088692e-10).transl(-4.1400876509719746e-08, 4e-08, 0))
hIsland = hIsland.sub(rect(8.350704722644369e-09, -1.634191838744317e-09).transl(4.6138971105560066e-08, 4e-08, 0))
hIsland = hIsland.add(rect(2.674921020659265e-09, 2.3518082928331163e-09).transl(-4.94560039774398e-08, 4e-08, 0))
hIsland = hIsland.add(rect(5.440397959490187e-09, 1.2732900317957239e-09).transl(-5.970045339820091e-08, 4e-08, 0))
hIsland = hIsland.add(rect(9.573567663069153e-09, 2.40271906958178e-09).transl(-8.185226076025227e-08, 3.982025084320152e-08, 0))
hIsland = hIsland.add(rect(8.383991596108264e-09, 7.714359574001609e-10).transl(2.1997604716405553e-08, 4e-08, 0))
hIsland = hIsland.sub(rect(5.935337047115095e-09, -1.4828691727739695e-09).transl(-1.1472686354751426e-08, 4e-08, 0))
hIsland = hIsland.add(rect(8.654996317864348e-09, 4.5503647811200424e-09).transl(5.7791786505134964e-08, 4e-08, 0))
hIsland = hIsland.sub(rect(3.811577815310677e-09, -9.657968252138516e-10).transl(-7.726548657405129e-08, 4e-08, 0))
hIsland = hIsland.add(rect(3.4735348772803347e-09, 3.5077683538561177e-11).transl(-4.257794482577556e-08, 4e-08, 0))
hIsland = hIsland.sub(rect(2.6455262130841714e-09, -2.3637462756346236e-09).transl(-2.3501059503442074e-08, 4e-08, 0))
hIsland = hIsland.sub(rect(4.125473053317961e-09, -1.5057279543462488e-09).transl(9.176569051709418e-09, 4e-08, 0))
hIsland = hIsland.add(rect(6.7194779216806626e-09, 1.193287117330514e-09).transl(7.780032709342087e-08, 4e-08, 0))
hIsland = hIsland.sub(rect(2.6257569795716934e-09, -3.799748242424604e-10).transl(-4.46088367137755e-08, 4e-08, 0))
hIsland = hIsland.add(rect(5.1253502084859784e-09, 2.7693519750362615e-09).transl(8.47334813322835e-08, 3.639593441994656e-08, 0))
hIsland = hIsland.sub(rect(2.147100318887141e-09, -2.1653140652088264e-09).transl(7.48466773032999e-08, 4e-08, 0))
hIsland = hIsland.add(rect(5.059331236114478e-09, 8.72097461785817e-10).transl(8.517294818482165e-08, 3.544050927560784e-08, 0))
hIsland = hIsland.add(rect(4.286597251624327e-09, 2.246637725441977e-09).transl(-7.266086357590559e-08, 4e-08, 0))
hIsland = hIsland.add(rect(7.0681468217855464e-09, 2.2054227257136865e-09).transl(-8.385087392192013e-08, 3.794017848316787e-08, 0))
hIsland = hIsland.sub(rect(5.2344285235731395e-09, -2.1970963775717104e-10).transl(-3.8974266030785956e-08, 4e-08, 0))
hIsland = hIsland.sub(rect(2.5568759275138986e-09, -2.4818817005667277e-09).transl(-5.51026307227676e-08, 4e-08, 0))
hIsland = hIsland.add(rect(8.083998965334208e-09, 5.592002696955949e-10).transl(-6.491284111185806e-08, 4e-08, 0))
hIsland = hIsland.add(rect(6.608677542956903e-09, 2.0688087371234515e-09).transl(8.598453906968416e-08, 3.3304986543275294e-08, 0))
hIsland = hIsland.sub(rect(2.3271402231294857e-09, -1.5751286040030414e-09).transl(1.6728437216013293e-08, 4e-08, 0))
hIsland = hIsland.add(rect(6.807940434957489e-09, 1.554039350229208e-09).transl(3.022000523909242e-08, 4e-08, 0))
hIsland = hIsland.add(rect(5.56715631688687e-09, 1.5404721389325885e-09).transl(8.944453216504081e-08, 1.3834918437407061e-08, 0))
hIsland = hIsland.sub(rect(4.23867701410086e-09, -1.4526737661023672e-10).transl(-1.724997269538033e-09, 4e-08, 0))
hIsland = hIsland.add(rect(6.452656548151199e-09, 2.0252733304786143e-09).transl(-1.5072810602962353e-08, 4e-08, 0))
hIsland = hIsland.sub(rect(5.0625239973788525e-09, -8.03076334484159e-10).transl(1.5121745614027322e-08, 4e-08, 0))
hIsland = hIsland.sub(rect(5.8246613756439875e-09, -4.3665616449912234e-10).transl(3.4755337688636755e-09, 4e-08, 0))
hIsland = hIsland.sub(rect(4.542256032750846e-09, -2.1277783780878005e-09).transl(5.3912447457680826e-08, 4e-08, 0))
hIsland = hIsland.sub(rect(7.816997192490398e-09, -1.0659986509658457e-09).transl(8.837455565344391e-08, 2.2929167974118826e-08, 0))
hIsland = hIsland.sub(rect(5.565907282476571e-09, -3.104517228731398e-09).transl(-4.625170344491618e-08, 4e-08, 0))
hIsland = hIsland.sub(rect(5.588464234050558e-09, -4.7370911407751625e-09).transl(1.463251828687404e-08, 4e-08, 0))
hIsland = hIsland.sub(rect(5.1981824065381785e-09, -1.3742402180348527e-09).transl(-4.641199683806757e-08, 4e-08, 0))
hIsland = hIsland.add(rect(8.260477794662266e-09, 2.269407788113561e-09).transl(1.724251609741028e-09, 4e-08, 0))
hIsland = hIsland.sub(rect(6.548692521678254e-09, -7.078301219318897e-10).transl(5.528087119037133e-08, 4e-08, 0))
hIsland = hIsland.add(rect(2.616404438699795e-09, 5.812557378576996e-10).transl(5.283217020098373e-09, 4e-08, 0))
hIsland = hIsland.sub(rect(2.888245212072687e-09, -1.1287900172652121e-09).transl(-5.673018319795174e-08, 4e-08, 0))
hIsland = hIsland.sub(rect(4.588130673570057e-09, -2.220233279552761e-09).transl(2.1465585571044485e-08, 4e-08, 0))
hIsland = hIsland.add(rect(8.96998180194001e-09, 1.7954888576231175e-10).transl(5.809177419164273e-08, 4e-08, 0))
hIsland = hIsland.sub(rect(3.437668639666427e-09, -1.6756798333091106e-09).transl(-8.223115065435748e-08, 3.962397779279554e-08, 0))
hIsland = hIsland.sub(rect(6.513820772119205e-09, -5.582840260021074e-09).transl(4.231046645333612e-08, 4e-08, 0))
hIsland = hIsland.add(rect(4.5275657655303844e-09, 2.215691391908547e-09).transl(-2.4028195060327832e-08, 4e-08, 0))
hIsland = hIsland.sub(rect(4.275711647553701e-09, -1.0189684616324172e-09).transl(-8.733301284925468e-09, 4e-08, 0))
hIsland = hIsland.add(rect(3.425125453503104e-09, 3.1668131521174444e-10).transl(-7.044349189953725e-08, 4e-08, 0))
hIsland = hIsland.add(rect(9.737474867055245e-09, 2.065449637031975e-09).transl(1.994974535791522e-09, 4e-08, 0))
hIsland = hIsland.sub(rect(9.522314011657542e-09, -1.7900936723357732e-09).transl(-1.7431800757054235e-08, 4e-08, 0))
hIsland = hIsland.add(rect(5.2099275308961794e-09, 2.0334119425267947e-09).transl(8.325832738081448e-08, 3.8720258503642655e-08, 0))
hIsland = hIsland.add(rect(4.283576408893148e-09, 1.3618767236602419e-09).transl(-2.6406671279202432e-08, 4e-08, 0))
hIsland = hIsland.add(rect(6.345927515819426e-09, 2.8067587997814237e-09).transl(4.3173792402297054e-08, 4e-08, 0))
hIsland = hIsland.add(rect(8.199797603508615e-09, 4.290552126832392e-09).transl(-2.2602120772317923e-08, 4e-08, 0))
hIsland = hIsland.sub(rect(4.874603368936903e-09, -1.9344604092939227e-10).transl(-3.317303347665775e-09, 4e-08, 0))
hIsland = hIsland.sub(rect(3.188318886115884e-09, -2.804784491015467e-10).transl(-8.653409794972011e-08, 3.1544210756569744e-08, 0))
hIsland = hIsland.add(rect(7.778211473489922e-09, 1.238084129997829e-10).transl(5.717082126078145e-08, 4e-08, 0))
hIsland = hIsland.sub(rect(8.819533847328332e-09, -1.815936614233569e-09).transl(-7.379140837287609e-08, 4e-08, 0))
hIsland = hIsland.add(rect(2.188974599518871e-09, 1.8106817717591896e-09).transl(5.42283854163957e-08, 4e-08, 0))
hIsland = hIsland.add(rect(5.734753848571198e-09, 7.821040901840433e-10).transl(-4.863199566413158e-09, 4e-08, 0))
hIsland = hIsland.add(rect(4.3833935352001895e-09, 1.543877902154586e-09).transl(-2.5305840846176574e-08, 4e-08, 0))
hIsland = hIsland.add(rect(5.282603944135156e-09, 3.048111530452216e-09).transl(6.680548927367412e-10, 4e-08, 0))
hIsland = hIsland.sub(rect(5.3326342926853375e-09, -2.1662875637226385e-09).transl(3.080860169622731e-08, 4e-08, 0))
hIsland = hIsland.sub(rect(3.732313514166312e-09, -9.133715690939457e-10).transl(-2.8191687892818527e-08, 4e-08, 0))
hIsland = hIsland.sub(rect(7.89057746921519e-09, -8.859411024748557e-10).transl(-6.365129036356249e-08, 4e-08, 0))
hIsland = hIsland.add(rect(9.887103902937207e-09, 4.6102681845636327e-10).transl(-5.769928634631968e-08, 4e-08, 0))
hIsland = hIsland.sub(rect(4.533781115879244e-09, -1.958575991432568e-09).transl(-1.3584630319450502e-08, 4e-08, 0))
hIsland = hIsland.add(rect(4.6259344468317015e-09, 2.027144686493113e-09).transl(8.2876022412103e-09, 4e-08, 0))
hIsland = hIsland.add(rect(8.584259489228882e-09, 1.0027937790210651e-09).transl(-2.98504270490213e-08, 4e-08, 0))
hIsland = hIsland.sub(rect(4.223280307675362e-09, -1.7390517091026078e-09).transl(-2.064153610160105e-08, 4e-08, 0))
hIsland = hIsland.add(rect(9.128748672343093e-09, 4.348144771835019e-10).transl(1.9565855128150084e-08, 4e-08, 0))
hIsland = hIsland.sub(rect(6.814227819302012e-09, -1.2587818517737315e-10).transl(-5.5891261044973414e-08, 4e-08, 0))
hIsland = hIsland.sub(rect(4.000984954620191e-09, -6.260731091603076e-10).transl(-8.906065243162647e-08, 1.779215106545827e-08, 0))
hIsland = hIsland.add(rect(9.262183563659222e-09, 2.8861316621623504e-09).transl(-4.8142894767408914e-08, 4e-08, 0))
hIsland = hIsland.add(rect(6.7862372523713505e-09, 3.8736921877235255e-09).transl(-5.101210093901943e-08, 4e-08, 0))
hIsland = hIsland.add(rect(3.882095443960224e-09, 4.195545201770571e-09).transl(-7.106458613594757e-08, 4e-08, 0))
hIsland = hIsland.sub(rect(7.116068725616746e-09, -3.8769013264901013e-10).transl(-5.679371255585683e-08, 4e-08, 0))
hIsland = hIsland.add(rect(6.6462166185846605e-09, 1.131120977230161e-09).transl(-9.649202407941855e-09, 4e-08, 0))
hIsland = hIsland.sub(rect(3.2392207619948358e-09, -2.856989821311182e-09).transl(7.988253829428944e-08, 4e-08, 0))
hIsland = hIsland.add(rect(6.422242491614409e-09, 3.5981745523203123e-10).transl(7.414725976363612e-08, 4e-08, 0))
hIsland = hIsland.add(rect(9.898374890623232e-09, 2.37473299044819e-09).transl(5.321559792861936e-08, 4e-08, 0))
hIsland = hIsland.sub(rect(3.805309186512689e-09, -1.4882494483056429e-09).transl(8.336021190187137e-08, 3.860004472031307e-08, 0))
hIsland = hIsland.add(rect(4.205650418703889e-09, 3.6584480187614285e-10).transl(-2.312854772052076e-08, 4e-08, 0))
hIsland = hIsland.add(rect(7.709358879290213e-09, 2.074113297256188e-09).transl(-7.657599557980627e-09, 4e-08, 0))
hIsland = hIsland.sub(rect(6.064721486971669e-09, -2.83095824684943e-09).transl(1.9099325211926008e-08, 4e-08, 0))
hIsland = hIsland.add(rect(3.727368192321254e-09, 8.058240601869888e-12).transl(4.119153747682111e-08, 4e-08, 0))
hIsland = hIsland.sub(rect(5.596479432226117e-09, -1.5607083931933561e-09).transl(-3.016343717864719e-08, 4e-08, 0))
hIsland = hIsland.add(rect(9.373419691439672e-09, 1.0627061213179885e-09).transl(7.735177799645229e-08, 4e-08, 0))
hIsland = hIsland.sub(rect(9.10901600305374e-09, -9.087814627346781e-10).transl(4.579712638367234e-08, 4e-08, 0))
hIsland = hIsland.sub(rect(8.469735450807236e-09, -2.109675294998299e-09).transl(-7.327026305486978e-08, 4e-08, 0))
hIsland = hIsland.sub(rect(3.066482440701359e-09, -4.22949842389978e-10).transl(3.924568433578355e-08, 4e-08, 0))
hIsland = hIsland.sub(rect(2.3760634915665033e-09, -2.6247780804625927e-09).transl(3.1136393093093624e-08, 4e-08, 0))
hIsland = hIsland.sub(rect(9.034499748880945e-09, -1.4591914969315377e-10).transl(-6.155750635439208e-08, 4e-08, 0))
hIsland = hIsland.add(rect(8.779406711040898e-09, 1.2773737226502628e-09).transl(-3.6096039170366017e-08, 4e-08, 0))
hIsland = hIsland.add(rect(9.925813130491388e-09, 1.166832579828918e-09).transl(-6.679884847225818e-08, 4e-08, 0))
hIsland = hIsland.add(rect(4.537048875235275e-09, 1.6348375262903372e-09).transl(3.284129216342939e-08, 4e-08, 0))
hIsland = hIsland.sub(rect(4.8135357083592145e-09, -5.898201900408962e-10).transl(4.3714257293869766e-08, 4e-08, 0))
vIsland = hIsland.rotz(pi / 2)
hIslands = hIslands.add(hIsland.transl(-a/2, a, 0))
hIsland = rect(islandLength-2*ellipseConstant, islandWidth)
hIsland = hIsland.add(ellipse(ellipseConstant*2, islandWidth).transl(islandLength/2-ellipseConstant, 0, 0))
hIsland = hIsland.add(ellipse(ellipseConstant*2, islandWidth).transl(-islandLength/2+ellipseConstant, 0, 0))
hIsland = hIsland.add(rect(7.0518238765201526e-09, 1.6641835157977888e-09).transl(-7.538597317378259e-08, -4e-08, 0))
hIsland = hIsland.add(rect(4.4355793988775555e-09, 3.094444418928955e-09).transl(-4.238545307283579e-08, -4e-08, 0))
hIsland = hIsland.add(rect(7.4028913431687184e-09, 2.3911991378863907e-09).transl(5.941410831266051e-08, -4e-08, 0))
hIsland = hIsland.add(rect(4.4237116475837015e-09, 2.1654590339162735e-09).transl(-9.846973361356064e-10, -4e-08, 0))
hIsland = hIsland.add(rect(4.9032052127052686e-09, 7.51975821283184e-10).transl(-5.770229704279343e-08, -4e-08, 0))
hIsland = hIsland.sub(rect(7.524969571185502e-09, -2.4426718983703117e-10).transl(-5.663163779566431e-08, -4e-08, 0))
hIsland = hIsland.add(rect(9.390224559642783e-09, 1.884195082617749e-09).transl(-4.28760649274226e-08, -4e-08, 0))
hIsland = hIsland.add(rect(6.502602447830226e-09, 1.2894449431447338e-09).transl(4.4844826663456694e-08, -4e-08, 0))
hIsland = hIsland.sub(rect(5.2069669221134165e-09, -8.241808984802048e-10).transl(-1.822653656463156e-08, -4e-08, 0))
hIsland = hIsland.add(rect(2.3304634667836784e-09, 1.3452246226759087e-09).transl(8.47369817479084e-08, -3.638883763614361e-08, 0))
hIsland = hIsland.sub(rect(7.2678458208124645e-09, -7.523563480163824e-10).transl(8.369821111910454e-08, -3.8160067488808675e-08, 0))
hIsland = hIsland.add(rect(3.6819634683876806e-09, 4.263047291043117e-09).transl(-1.2717726099123945e-08, -4e-08, 0))
hIsland = hIsland.sub(rect(3.1323931775075694e-09, -2.1137781739392176e-10).transl(8.586553751705585e-08, -3.365079777679508e-08, 0))
hIsland = hIsland.sub(rect(6.505040202092064e-09, -3.04350912706829e-09).transl(2.442537761669773e-08, -4e-08, 0))
hIsland = hIsland.sub(rect(3.1616681479553776e-09, -1.323830959342769e-09).transl(-8.363172970198538e-08, -3.8251667927985164e-08, 0))
hIsland = hIsland.add(rect(8.28592538654906e-09, 1.3599140122270942e-09).transl(-8.449602062770775e-08, -3.685884714357493e-08, 0))
hIsland = hIsland.add(rect(3.0926051712586917e-09, 7.143550164219182e-10).transl(6.052456240458242e-08, -4e-08, 0))
hIsland = hIsland.sub(rect(8.431650183166636e-09, -9.915198596265971e-10).transl(1.4773622220205236e-08, -4e-08, 0))
hIsland = hIsland.sub(rect(3.3352030583520716e-09, -3.389761441348113e-11).transl(-6.146593292962202e-08, -4e-08, 0))
hIsland = hIsland.add(rect(5.08421932040273e-09, 1.310824909784926e-09).transl(-2.8613891106650814e-08, -4e-08, 0))
hIsland = hIsland.add(rect(7.928681964402447e-09, 1.0705012580788356e-09).transl(-2.228676943193335e-08, -4e-08, 0))
hIsland = hIsland.add(rect(2.7583902554984032e-09, 2.4283662342436912e-09).transl(-6.215012621296665e-08, -4e-08, 0))
hIsland = hIsland.add(rect(5.754261822137405e-09, 1.154482316134239e-09).transl(4.3461063965269547e-08, -4e-08, 0))
hIsland = hIsland.sub(rect(6.761604996583032e-09, -3.8031800952509923e-10).transl(3.9725788535784014e-08, -4e-08, 0))
hIsland = hIsland.sub(rect(3.7772587961787576e-09, -3.242439218057007e-09).transl(-8.148395797301738e-08, -3.994212719110214e-08, 0))
hIsland = hIsland.sub(rect(9.630681372246408e-09, -4.608919940884189e-10).transl(-1.2576876826807595e-08, -4e-08, 0))
hIsland = hIsland.sub(rect(7.082168752147939e-09, -5.409149259308586e-10).transl(3.555089761435225e-08, -4e-08, 0))
hIsland = hIsland.sub(rect(6.1459175586201975e-09, -7.650011550483085e-11).transl(-6.459907991282132e-08, -4e-08, 0))
hIsland = hIsland.add(rect(3.78339137729521e-09, 1.5043979703399123e-10).transl(-5.880070345151195e-09, -4e-08, 0))
hIsland = hIsland.add(rect(2.8773967675085476e-09, 1.290490624277353e-09).transl(-4.165740144324086e-08, -4e-08, 0))
hIsland = hIsland.sub(rect(6.850304528590196e-09, -1.7820341315912956e-09).transl(5.680907968080126e-08, -4e-08, 0))
hIsland = hIsland.add(rect(6.149672146697368e-09, 5.122264093183444e-09).transl(3.199410609424155e-08, -4e-08, 0))
hIsland = hIsland.sub(rect(3.75618993114173e-09, -3.3832424063956827e-09).transl(-8.905779502006735e-08, -1.7817699295621627e-08, 0))
hIsland = hIsland.add(rect(9.914996311069985e-09, 8.191708686673473e-11).transl(1.2733929341331375e-08, -4e-08, 0))
hIsland = hIsland.add(rect(6.818539943685984e-09, 8.58280954639265e-10).transl(-3.747286318103907e-08, -4e-08, 0))
hIsland = hIsland.add(rect(5.1992024289537905e-09, 8.055772704649993e-10).transl(2.231375093601523e-08, -4e-08, 0))
hIsland = hIsland.add(rect(4.0873111403629765e-09, 1.8265486201445272e-10).transl(-2.041840692689273e-08, -4e-08, 0))
hIsland = hIsland.sub(rect(6.552087945653136e-09, -1.8624633692532322e-09).transl(-2.4434307022572364e-08, -4e-08, 0))
hIsland = hIsland.sub(rect(7.427148602244946e-09, -9.436424689322615e-10).transl(6.262490987788843e-08, -4e-08, 0))
hIsland = hIsland.sub(rect(9.358108838571953e-09, -9.502612704197787e-10).transl(-8.221261039850589e-08, -3.963526949672143e-08, 0))
hIsland = hIsland.add(rect(9.656869516313262e-09, 3.4316262535080207e-10).transl(-4.73477573729144e-08, -4e-08, 0))
hIsland = hIsland.add(rect(7.306741001347615e-09, 2.2018369798031216e-09).transl(1.4373551964038511e-08, -4e-08, 0))
hIsland = hIsland.sub(rect(2.116137009849106e-09, -1.521481644337156e-09).transl(-2.0078156852476404e-08, -4e-08, 0))
hIsland = hIsland.sub(rect(4.075425740844469e-09, -1.2128157668866296e-09).transl(6.082304254556551e-08, -4e-08, 0))
hIsland = hIsland.add(rect(8.951758618502017e-09, 2.033917156228857e-09).transl(8.51221036537956e-08, -3.5557850333548186e-08, 0))
hIsland = hIsland.add(rect(7.657800249564493e-09, 2.7586204998453957e-09).transl(6.973474427071806e-09, -4e-08, 0))
hIsland = hIsland.sub(rect(3.3985040981354678e-09, -1.1769781009980894e-09).transl(-7.098139856477419e-08, -4e-08, 0))
hIsland = hIsland.add(rect(9.275593283234638e-09, 2.3692781376232544e-09).transl(-2.0275526882788276e-08, -4e-08, 0))
hIsland = hIsland.sub(rect(3.6522980989296664e-09, -7.609143400865656e-10).transl(-6.129472555353879e-08, -4e-08, 0))
hIsland = hIsland.add(rect(7.267228931770083e-09, 4.935320886174986e-10).transl(2.243601922421872e-08, -4e-08, 0))
hIsland = hIsland.add(rect(3.8917039097956475e-09, 3.350242318570679e-09).transl(7.485456418103937e-08, -4e-08, 0))
hIsland = hIsland.add(rect(7.425267108184449e-09, 2.596610401296179e-09).transl(4.148231278646323e-08, -4e-08, 0))
hIsland = hIsland.add(rect(3.4770005671344492e-09, 3.535543788355757e-10).transl(1.8834632225195923e-08, -4e-08, 0))
hIsland = hIsland.add(rect(3.051107028861034e-09, 5.6529414872533124e-11).transl(5.674796080300919e-08, -4e-08, 0))
hIsland = hIsland.add(rect(5.406965652342392e-09, 5.109361170856767e-11).transl(-6.13769461785862e-08, -4e-08, 0))
hIsland = hIsland.add(rect(3.2456441393851424e-09, 7.650814637442366e-10).transl(3.196209682069693e-08, -4e-08, 0))
hIsland = hIsland.add(rect(2.408156771785422e-09, 1.5073949629011047e-09).transl(8.885614843630934e-08, -1.9515581237703964e-08, 0))
hIsland = hIsland.add(rect(2.6688481421413075e-09, 1.017326151255869e-09).transl(1.4213361007605438e-08, -4e-08, 0))
hIsland = hIsland.add(rect(4.9167899906874265e-09, 3.558653978154177e-10).transl(-6.107370619423305e-08, -4e-08, 0))
hIsland = hIsland.add(rect(4.37097842625139e-09, 1.6566591647802225e-09).transl(-2.3699130912247524e-08, -4e-08, 0))
hIsland = hIsland.add(rect(5.282303747402808e-09, 1.491864378449562e-09).transl(6.131135505791096e-08, -4e-08, 0))
hIsland = hIsland.add(rect(9.9225562949966e-09, 7.967102204550961e-10).transl(-8.855843358087503e-08, -2.1714230097130524e-08, 0))
hIsland = hIsland.sub(rect(3.95692901614139e-09, -1.7430950085362212e-09).transl(5.520811646818735e-08, -4e-08, 0))
hIsland = hIsland.sub(rect(5.536132194457612e-09, -9.06238694845817e-10).transl(-3.152289932979887e-08, -4e-08, 0))
hIsland = hIsland.sub(rect(3.01016510899081e-09, -2.698592389243513e-09).transl(-2.1699308930280623e-08, -4e-08, 0))
hIsland = hIsland.sub(rect(8.707923109413548e-09, -2.3484267484298645e-09).transl(-8.817925518850204e-08, -2.4122442780450974e-08, 0))
hIsland = hIsland.add(rect(6.7843939485963676e-09, 8.727281047750339e-10).transl(-3.210219775652597e-08, -4e-08, 0))
hIsland = hIsland.sub(rect(3.033585805163397e-09, -2.238886946529681e-09).transl(1.5061850262153512e-08, -4e-08, 0))
hIsland = hIsland.add(rect(9.740606424292122e-09, 1.440767200524853e-09).transl(2.7847774741861022e-08, -4e-08, 0))
hIsland = hIsland.sub(rect(3.3709608695076634e-09, -2.25615237417008e-09).transl(-7.477265726435168e-08, -4e-08, 0))
hIsland = hIsland.add(rect(3.285198114338772e-09, 3.4864998561709904e-10).transl(6.689412323395988e-08, -4e-08, 0))
hIsland = hIsland.add(rect(6.355703724346153e-09, 2.122969075179302e-10).transl(6.317214237263906e-08, -4e-08, 0))
hIsland = hIsland.add(rect(4.910576654339135e-09, 1.7005034474698968e-10).transl(2.0998388446054583e-08, -4e-08, 0))
hIsland = hIsland.sub(rect(9.906077536521411e-09, -3.023216619744412e-10).transl(7.085691765234753e-08, -4e-08, 0))
hIsland = hIsland.sub(rect(7.3761646993713904e-09, -3.905910546991784e-10).transl(2.0540747592256694e-08, -4e-08, 0))
hIsland = hIsland.sub(rect(9.84475659893523e-09, -9.888874552691396e-10).transl(-3.0235361099949006e-08, -4e-08, 0))
hIsland = hIsland.add(rect(9.822088436903432e-09, 3.497944054207199e-10).transl(4.518224961253647e-08, -4e-08, 0))
hIsland = hIsland.add(rect(6.348362895442717e-09, 7.680399796594927e-10).transl(-6.653187492025138e-08, -4e-08, 0))
hIsland = hIsland.add(rect(2.10989227101366e-09, 1.895310009565519e-09).transl(-7.358372798831656e-08, -4e-08, 0))
hIsland = hIsland.add(rect(8.694312594171557e-09, 5.759113347370589e-10).transl(6.577956661603942e-08, -4e-08, 0))
hIsland = hIsland.sub(rect(6.014630108038713e-09, -1.8202239577690798e-09).transl(5.703784257611046e-08, -4e-08, 0))
hIsland = hIsland.sub(rect(3.351025784669311e-09, -1.816567906528984e-09).transl(-6.758707103082385e-08, -4e-08, 0))
hIsland = hIsland.sub(rect(2.4648313810954336e-09, -9.446859566891901e-11).transl(1.2202139648454881e-08, -4e-08, 0))
hIsland = hIsland.sub(rect(5.10688022023432e-09, -1.6563695505922934e-09).transl(6.075250948730193e-08, -4e-08, 0))
hIsland = hIsland.add(rect(8.36520415063479e-09, 9.560873684769548e-10).transl(4.435953593286051e-08, -4e-08, 0))
hIsland = hIsland.sub(rect(9.146448107548988e-09, -9.621188903216275e-10).transl(7.45682193698137e-08, -4e-08, 0))
hIsland = hIsland.add(rect(7.196047894341905e-09, 6.680691347868178e-10).transl(-3.644902622002335e-08, -4e-08, 0))
hIsland = hIsland.add(rect(6.226985817952886e-09, 3.1399211789264743e-10).transl(6.971560875041412e-08, -4e-08, 0))
hIsland = hIsland.add(rect(5.6454248057231824e-09, 1.5536958850951951e-09).transl(-6.463182684730077e-08, -4e-08, 0))
hIsland = hIsland.sub(rect(4.0851507610028735e-09, -1.3938834823289003e-09).transl(8.821685737395826e-08, -2.3899778249477813e-08, 0))
hIsland = hIsland.sub(rect(8.61822524104582e-09, -3.40361027950913e-10).transl(6.730170060781853e-08, -4e-08, 0))
hIsland = hIsland.add(rect(4.676490500948518e-09, 1.542763345054539e-09).transl(7.31747295641302e-08, -4e-08, 0))
hIsland = hIsland.add(rect(4.700503672551507e-09, 2.7339350590916292e-09).transl(4.277306886440863e-08, -4e-08, 0))
hIsland = hIsland.add(rect(8.349687784049941e-09, 3.0858430771608715e-09).transl(-4.0937374934621115e-08, -4e-08, 0))
hIsland = hIsland.sub(rect(5.205656227981967e-09, -1.1019490453964992e-09).transl(-1.4049961807569365e-08, -4e-08, 0))
hIsland = hIsland.add(rect(6.785618833612574e-09, 6.006565608060547e-09).transl(-7.790742593792807e-08, -4e-08, 0))
hIsland = hIsland.sub(rect(2.7848691153629677e-09, -1.7363511918238243e-09).transl(-1.8324969897978717e-08, -4e-08, 0))
hIsland = hIsland.sub(rect(8.618093471180777e-09, -1.524999794837239e-09).transl(2.747319833932353e-08, -4e-08, 0))
hIsland = hIsland.add(rect(7.054326319521697e-09, 2.2686211287741087e-09).transl(-8.541022709198571e-08, -3.486832996446662e-08, 0))
hIsland = hIsland.sub(rect(3.93952338634998e-09, -1.878225400458728e-09).transl(3.021957352107842e-08, -4e-08, 0))
hIsland = hIsland.add(rect(4.481029292352488e-09, 6.922996238357724e-10).transl(1.4171545998771429e-08, -4e-08, 0))
hIsland = hIsland.add(rect(5.505520150474163e-09, 1.385023628890638e-10).transl(-5.14737456695933e-08, -4e-08, 0))
hIsland = hIsland.add(rect(6.187658035662741e-09, 2.7038324365670047e-09).transl(6.386773121581278e-08, -4e-08, 0))
hIsland = hIsland.add(rect(6.730740697821826e-09, 2.0262518577678735e-09).transl(6.916127387701556e-09, -4e-08, 0))
hIsland = hIsland.add(rect(7.254851355089801e-09, 2.5702634575329745e-10).transl(6.201627123709463e-08, -4e-08, 0))
hIsland = hIsland.sub(rect(3.2097428266623276e-09, -7.114643392154324e-10).transl(-4.56311927886559e-08, -4e-08, 0))
hIsland = hIsland.sub(rect(8.44248918434348e-09, -1.5403868122427736e-09).transl(9.688231513571512e-09, -4e-08, 0))
hIsland = hIsland.add(rect(4.531019938824201e-09, 4.88667645931422e-11).transl(-8.442294091902463e-08, -3.699408707237359e-08, 0))
hIsland = hIsland.sub(rect(8.180330943275412e-09, -1.921960652943459e-09).transl(5.9189816904208846e-08, -4e-08, 0))
hIsland = hIsland.add(rect(9.211159374602961e-09, 1.4475750593864119e-09).transl(2.8048114692968948e-08, -4e-08, 0))
hIsland = hIsland.sub(rect(9.485466430355434e-09, -3.7411871518155914e-09).transl(2.8736179691996087e-08, -4e-08, 0))
hIsland = hIsland.add(rect(6.351405735316211e-09, 1.7838470402578848e-10).transl(4.927634795328144e-08, -4e-08, 0))
hIsland = hIsland.sub(rect(2.6332402193994355e-09, -6.855252577172295e-10).transl(-5.421416938359387e-08, -4e-08, 0))
hIsland = hIsland.add(rect(9.00487518566985e-09, 1.1536226173489013e-09).transl(2.2337026600711662e-08, -4e-08, 0))
hIsland = hIsland.add(rect(2.499634450214737e-09, 4.323447706029372e-10).transl(-4.965167606524269e-08, -4e-08, 0))
hIsland = hIsland.add(rect(3.077571873623342e-09, 4.8064984185845235e-09).transl(3.271461489222336e-08, -4e-08, 0))
hIsland = hIsland.sub(rect(9.226036925777841e-09, -3.5485112666255434e-09).transl(-2.5173952731220246e-08, -4e-08, 0))
hIsland = hIsland.sub(rect(6.9264835410555585e-09, -3.839631246064861e-09).transl(-7.751195565533785e-08, -4e-08, 0))
hIsland = hIsland.sub(rect(8.939670215325564e-09, -2.6457373148523377e-09).transl(5.492593360370997e-08, -4e-08, 0))
hIsland = hIsland.add(rect(4.1055962643558205e-09, 1.2994846220239512e-09).transl(2.3643451396753598e-08, -4e-08, 0))
hIsland = hIsland.add(rect(3.2586921041306987e-09, 1.9334345811019975e-09).transl(1.5120140398511582e-09, -4e-08, 0))
hIsland = hIsland.sub(rect(2.9673131414639055e-09, -2.3124275960819057e-09).transl(5.975473204083895e-08, -4e-08, 0))
hIsland = hIsland.sub(rect(2.190142628803571e-09, -1.296293251560544e-09).transl(5.952649612147416e-08, -4e-08, 0))
hIsland = hIsland.add(rect(7.350266812587454e-09, 2.7739496046555146e-09).transl(-2.24701273300446e-08, -4e-08, 0))
hIsland = hIsland.add(rect(9.223967481155775e-09, 3.4451386709017113e-09).transl(2.5892104230794122e-08, -4e-08, 0))
hIsland = hIsland.add(rect(2.765809136511094e-09, 1.8821082087714833e-09).transl(-2.2047119307938822e-08, -4e-08, 0))
hIsland = hIsland.sub(rect(9.465676616909156e-09, -6.667619549758599e-10).transl(-1.2195929253548148e-08, -4e-08, 0))
hIsland = hIsland.sub(rect(2.662601909742818e-09, -1.1645741753468578e-10).transl(6.574475715217596e-08, -4e-08, 0))
hIsland = hIsland.sub(rect(5.063020141892248e-09, -1.169831368040835e-09).transl(2.728872041614725e-08, -4e-08, 0))
hIsland = hIsland.sub(rect(2.9407198817381766e-09, -1.7296484005510855e-09).transl(-7.221552471773191e-08, -4e-08, 0))
hIsland = hIsland.add(rect(4.326780722397529e-09, 5.208509568013178e-10).transl(-5.461709785559687e-08, -4e-08, 0))
hIsland = hIsland.sub(rect(8.729805305522718e-09, -1.5385481375059371e-09).transl(8.321643091484073e-10, -4e-08, 0))
hIsland = hIsland.sub(rect(7.803787023534944e-09, -2.014789719982894e-10).transl(-2.852641578512954e-08, -4e-08, 0))
hIsland = hIsland.add(rect(4.979427547745235e-09, 3.8266659675332166e-10).transl(-5.3857483185683164e-08, -4e-08, 0))
hIsland = hIsland.add(rect(6.466512229777084e-09, 6.080480404741776e-10).transl(2.3383614127903678e-08, -4e-08, 0))
hIsland = hIsland.sub(rect(2.746755173447311e-09, -2.1522767615895524e-09).transl(7.940164845896767e-08, -4e-08, 0))
hIsland = hIsland.add(rect(2.4019016426036263e-09, 1.5496267499923043e-09).transl(5.3822778670473436e-08, -4e-08, 0))
hIsland = hIsland.add(rect(4.037365709027223e-09, 2.465877054534707e-10).transl(-8.782892855837888e-08, -2.6054353346179146e-08, 0))
hIsland = hIsland.add(rect(7.548601723242633e-09, 8.226826068909309e-10).transl(-6.953910682290525e-08, -4e-08, 0))
hIsland = hIsland.sub(rect(2.3217767182750117e-09, -2.1185515157462763e-09).transl(7.322470484026728e-08, -4e-08, 0))
hIsland = hIsland.add(rect(6.550700461284611e-09, 4.0463665143458035e-10).transl(5.192616740486439e-08, -4e-08, 0))
hIsland = hIsland.sub(rect(8.458746512387577e-09, -3.940538708464305e-10).transl(5.8216425560991036e-08, -4e-08, 0))
hIsland = hIsland.add(rect(2.9959991781182585e-09, 1.1730390867675016e-09).transl(-2.9504877831529097e-08, -4e-08, 0))
hIsland = hIsland.sub(rect(5.76081579473936e-09, -1.3999716598598252e-09).transl(-8.011058948519473e-08, -4e-08, 0))
hIsland = hIsland.sub(rect(8.871175837424702e-09, -3.14649949274067e-09).transl(-5.473511562619655e-08, -4e-08, 0))
hIsland = hIsland.add(rect(8.657597191187293e-09, 5.4161131779914346e-11).transl(-5.0438336592761365e-08, -4e-08, 0))
hIsland = hIsland.add(rect(5.7523001079500375e-09, 2.306411723355411e-09).transl(1.4969059464520037e-08, -4e-08, 0))
hIsland = hIsland.add(rect(7.502128416950828e-09, 4.074698580603308e-09).transl(-3.619413402600728e-08, -4e-08, 0))
hIsland = hIsland.sub(rect(5.194967511593953e-09, -2.4148703990971826e-10).transl(-1.6400541803053003e-09, -4e-08, 0))
hIsland = hIsland.add(rect(3.783154242214034e-09, 6.465530710320124e-10).transl(-8.509862201446591e-08, -3.5611427651922475e-08, 0))
hIsland = hIsland.add(rect(6.241426280733565e-09, 9.606266337181623e-10).transl(8.009895189291287e-08, -4e-08, 0))
hIsland = hIsland.add(rect(7.1990876825505955e-09, 3.7097917351390998e-09).transl(6.225893810028713e-08, -4e-08, 0))
hIsland = hIsland.add(rect(8.887018021454495e-09, 2.1099060175856458e-09).transl(7.452297124545767e-08, -4e-08, 0))
hIsland = hIsland.add(rect(6.103832051937368e-09, 3.236005986701622e-10).transl(6.110266476544272e-08, -4e-08, 0))
hIsland = hIsland.add(rect(6.869861430009674e-09, 1.4009301072262048e-09).transl(8.60420441104744e-08, -3.313356172155596e-08, 0))
hIsland = hIsland.sub(rect(9.15474487058268e-09, -4.6857211422602325e-09).transl(-3.828669168272612e-08, -4e-08, 0))
hIsland = hIsland.sub(rect(6.919729987960127e-09, -3.867316318622723e-10).transl(5.321765839953922e-08, -4e-08, 0))
hIsland = hIsland.sub(rect(7.039329688394763e-09, -2.2812616963233515e-09).transl(1.050508781324046e-08, -4e-08, 0))
hIsland = hIsland.sub(rect(7.59410043890903e-09, -8.744679778745225e-10).transl(1.4452235183645698e-08, -4e-08, 0))
hIsland = hIsland.sub(rect(7.510683468972096e-09, -1.5707784466888756e-09).transl(-8.232875910380858e-08, -3.956164728224617e-08, 0))
hIsland = hIsland.sub(rect(2.1266029001588002e-09, -1.5679118457972806e-09).transl(6.893163930815155e-08, -4e-08, 0))
hIsland = hIsland.add(rect(2.0301449109005647e-09, 2.1324947896781175e-09).transl(8.304035277585623e-08, -3.895853079848381e-08, 0))
hIsland = hIsland.sub(rect(6.8938988622986425e-09, -1.7909037528600732e-09).transl(7.77977492811754e-08, -4e-08, 0))
hIsland = hIsland.sub(rect(5.220344817323976e-09, -2.379079222026658e-09).transl(-5.894442159291791e-08, -4e-08, 0))
hIsland = hIsland.add(rect(4.139396299795073e-09, 5.690315673286308e-10).transl(8.94002656816616e-08, -1.435736932298239e-08, 0))
hIsland = hIsland.add(rect(8.84432038058555e-09, 2.08119020619611e-09).transl(6.227782862728778e-08, -4e-08, 0))
hIsland = hIsland.sub(rect(3.0122087247383105e-09, -4.0578681681005024e-10).transl(9.411433212858612e-09, -4e-08, 0))
hIsland = hIsland.add(rect(7.0410704847992105e-09, 1.6644495447415192e-10).transl(-7.492899679672374e-08, -4e-08, 0))
hIsland = hIsland.add(rect(9.46864681314656e-09, 8.638982605305101e-10).transl(6.253577354966869e-08, -4e-08, 0))
hIsland = hIsland.sub(rect(8.08275849833883e-09, -1.0344580072751748e-09).transl(-6.002575201283375e-09, -4e-08, 0))
hIsland = hIsland.sub(rect(6.4597798081264735e-09, -2.55989424798067e-09).transl(7.672505625056684e-09, -4e-08, 0))
hIsland = hIsland.sub(rect(8.88832843155975e-09, -8.125220836121352e-10).transl(4.2686594697404604e-08, -4e-08, 0))
hIsland = hIsland.sub(rect(9.520931753798824e-09, -2.5248750500829374e-09).transl(-2.0133361669054886e-08, -4e-08, 0))
hIsland = hIsland.add(rect(9.458059554583323e-09, 2.815263585121747e-09).transl(4.617377575720818e-08, -4e-08, 0))
hIsland = hIsland.sub(rect(2.933560771459624e-09, -7.593887114632708e-10).transl(9.754066268901115e-09, -4e-08, 0))
hIsland = hIsland.sub(rect(3.999868557976445e-09, -1.210438492311972e-09).transl(-6.27155638449125e-08, -4e-08, 0))
hIsland = hIsland.sub(rect(2.97460732399823e-09, -9.259520613056959e-10).transl(-8.854276326934878e-08, -2.1821598661633283e-08, 0))
hIsland = hIsland.add(rect(2.7349178578658003e-09, 1.0432927114986144e-09).transl(4.0286757748774545e-08, -4e-08, 0))
hIsland = hIsland.sub(rect(7.184993160518829e-09, -4.475575510184113e-09).transl(-1.0083404452427185e-08, -4e-08, 0))
hIsland = hIsland.sub(rect(5.265608433733039e-09, -4.211877884983283e-09).transl(-2.9004869640424104e-08, -4e-08, 0))
hIsland = hIsland.sub(rect(5.753381585348116e-09, -6.507038407491871e-11).transl(-3.116356757811383e-08, -4e-08, 0))
hIsland = hIsland.sub(rect(6.683632739382993e-09, -1.1079971182382476e-10).transl(5.9158911228140677e-08, -4e-08, 0))
hIsland = hIsland.add(rect(5.662510773705394e-09, 2.3996013877261107e-09).transl(-5.3267037589407074e-08, -4e-08, 0))
hIsland = hIsland.add(rect(9.003550005955316e-09, 1.9219827027291845e-09).transl(-8.373191429753322e-08, -3.811267098095321e-08, 0))
hIsland = hIsland.sub(rect(3.4448506287263688e-09, -6.332300076217893e-10).transl(2.5733627365421668e-08, -4e-08, 0))
hIsland = hIsland.sub(rect(4.636079316089917e-09, -1.0704150529569052e-11).transl(4.7274959891558467e-08, -4e-08, 0))
hIsland = hIsland.add(rect(3.750804557458579e-09, 1.638112863577809e-10).transl(2.1380657656786526e-08, -4e-08, 0))
hIsland = hIsland.add(rect(6.3571918128424706e-09, 7.448975001542377e-10).transl(-4.1160770001895256e-08, -4e-08, 0))
hIsland = hIsland.add(rect(2.0517485605701866e-09, 1.3000477703769684e-09).transl(2.3847320903582823e-08, -4e-08, 0))
hIsland = hIsland.sub(rect(7.734790017557892e-09, -1.655823212055191e-09).transl(-3.781193269313164e-08, -4e-08, 0))
hIsland = hIsland.sub(rect(5.932720021296662e-09, -6.85929926268037e-10).transl(1.4157157204995022e-09, -4e-08, 0))
hIsland = hIsland.sub(rect(3.2242456292792234e-09, -3.802001445720111e-09).transl(-8.76601554934344e-08, -2.6903514407454546e-08, 0))
hIsland = hIsland.add(rect(6.69065431163453e-09, 1.3495813789888223e-09).transl(6.664363746609293e-08, -4e-08, 0))
hIsland = hIsland.sub(rect(2.431960321226485e-09, -1.1032332100523191e-09).transl(4.5018328997315636e-08, -4e-08, 0))
hIsland = hIsland.sub(rect(6.640518228426853e-09, -7.81768690348551e-10).transl(-6.046119000158256e-08, -4e-08, 0))
hIsland = hIsland.add(rect(5.982354367181625e-09, 4.3775965971895234e-10).transl(-8.687665177311591e-08, -3.029565064739186e-08, 0))
hIsland = hIsland.add(rect(9.791217989053752e-09, 2.8638936620819374e-09).transl(6.612333483759198e-08, -4e-08, 0))
hIsland = hIsland.sub(rect(6.212151470435112e-09, -3.4125829412916844e-09).transl(1.0805157714771092e-08, -4e-08, 0))
hIsland = hIsland.sub(rect(9.211094685175765e-09, -1.9671176389669713e-09).transl(-5.029077179801721e-08, -4e-08, 0))
hIsland = hIsland.add(rect(3.3418472833140895e-09, 1.383698115378637e-09).transl(-3.1661915327695605e-08, -4e-08, 0))
hIsland = hIsland.add(rect(9.462916441265376e-09, 7.133301505073617e-10).transl(4.492048277652236e-08, 4e-08, 0))
hIsland = hIsland.add(rect(9.992868930065162e-09, 4.5999219366952355e-09).transl(4.887126126762817e-08, 4e-08, 0))
hIsland = hIsland.sub(rect(3.7026983573176077e-09, -1.6722587942289199e-09).transl(4.472900192956771e-08, 4e-08, 0))
hIsland = hIsland.sub(rect(3.894927434858487e-09, -2.946738658896965e-09).transl(4.596163042647501e-08, 4e-08, 0))
hIsland = hIsland.sub(rect(9.726424639088524e-09, -1.5294189152880974e-09).transl(8.082796156629561e-08, 4e-08, 0))
hIsland = hIsland.sub(rect(8.900143683376755e-09, -3.634353072933525e-09).transl(-6.44779303092434e-08, 4e-08, 0))
hIsland = hIsland.add(rect(5.515507160448563e-09, 3.5150551720721104e-10).transl(-7.276272499972876e-08, 4e-08, 0))
hIsland = hIsland.add(rect(2.93352077031442e-09, 7.456056074373251e-11).transl(7.285975974049095e-08, 4e-08, 0))
hIsland = hIsland.sub(rect(3.953077775307747e-09, -3.0632533754383833e-10).transl(2.2837574289914694e-08, 4e-08, 0))
hIsland = hIsland.add(rect(2.6179603493709023e-09, 1.5792058751423819e-09).transl(5.141036063585677e-08, 4e-08, 0))
hIsland = hIsland.add(rect(3.726357022593697e-09, 2.6342475673767545e-09).transl(-3.6575523305328576e-08, 4e-08, 0))
hIsland = hIsland.add(rect(9.188718053415567e-09, 7.0982852575998e-10).transl(-5.16504605298543e-08, 4e-08, 0))
hIsland = hIsland.sub(rect(2.4382041546468775e-09, -1.6441267139841173e-09).transl(3.6268875802144266e-08, 4e-08, 0))
hIsland = hIsland.add(rect(4.111430541030762e-09, 5.466684509279796e-10).transl(6.640030435742189e-08, 4e-08, 0))
hIsland = hIsland.add(rect(2.2275646788474523e-09, 3.566749586533667e-11).transl(-4.7756929734665394e-08, 4e-08, 0))
hIsland = hIsland.add(rect(5.533571448643342e-09, 5.29391790345158e-10).transl(-6.604905941383302e-08, 4e-08, 0))
hIsland = hIsland.sub(rect(3.1740876602419674e-09, -2.4448261782384143e-09).transl(-8.419920256888844e-08, 3.738755399253929e-08, 0))
hIsland = hIsland.add(rect(2.1289356845538858e-09, 5.509454920089581e-10).transl(-2.8924948773924752e-08, 4e-08, 0))
hIsland = hIsland.sub(rect(9.966415709448808e-09, -3.344085409525274e-10).transl(3.6596457914979133e-08, 4e-08, 0))
hIsland = hIsland.add(rect(2.787814591672705e-09, 4.17592856991115e-10).transl(-2.623667039600125e-08, 4e-08, 0))
hIsland = hIsland.sub(rect(3.992127070960047e-09, -3.887743716842725e-09).transl(3.554276333361354e-08, 4e-08, 0))
hIsland = hIsland.sub(rect(4.1573308197944825e-09, -1.4033193471045557e-09).transl(-4.6163614840648296e-09, 4e-08, 0))
hIsland = hIsland.sub(rect(4.691296993685362e-09, -3.797059604875476e-09).transl(2.678593348627707e-08, 4e-08, 0))
hIsland = hIsland.sub(rect(9.597151423486382e-09, -2.2391593433331622e-09).transl(-2.597437596134158e-08, 4e-08, 0))
hIsland = hIsland.sub(rect(8.35545830899964e-09, -4.275688796705239e-09).transl(-5.295685344471117e-08, 4e-08, 0))
hIsland = hIsland.sub(rect(9.396372835237401e-09, -6.399322339917577e-12).transl(-3.362678130821346e-08, 4e-08, 0))
hIsland = hIsland.add(rect(3.1057420772974845e-09, 2.515515791350913e-09).transl(8.86766862387397e-08, 2.0878715438441184e-08, 0))
hIsland = hIsland.sub(rect(9.914616876199162e-09, -2.6200922281013798e-09).transl(-7.05105242137636e-08, 4e-08, 0))
hIsland = hIsland.sub(rect(6.093461884305401e-09, -2.4388954145884668e-09).transl(7.999802118127651e-08, 4e-08, 0))
hIsland = hIsland.sub(rect(8.920164098645964e-09, -1.5211910456251339e-09).transl(6.756879360583391e-08, 4e-08, 0))
hIsland = hIsland.sub(rect(2.5678551873076207e-09, -1.0698178614857038e-09).transl(-5.8377887499174266e-08, 4e-08, 0))
hIsland = hIsland.add(rect(3.3840430538240307e-09, 1.7839156816649263e-10).transl(-2.4128751382332832e-08, 4e-08, 0))
hIsland = hIsland.sub(rect(7.2411714719185e-09, -4.4739388197893635e-09).transl(-9.186951846925846e-10, 4e-08, 0))
hIsland = hIsland.add(rect(7.28613597169978e-09, 3.6498729602319087e-09).transl(-3.004987145157673e-08, 4e-08, 0))
hIsland = hIsland.add(rect(3.95545845693144e-09, 5.924616938157536e-10).transl(2.6538225641803857e-08, 4e-08, 0))
hIsland = hIsland.sub(rect(2.2412232990705923e-09, -3.0716430675780017e-09).transl(5.405626392011624e-08, 4e-08, 0))
hIsland = hIsland.add(rect(6.6960852974393e-09, 1.0056169059904072e-09).transl(4.0542103593626573e-08, 4e-08, 0))
hIsland = hIsland.add(rect(2.333437885099948e-09, 3.5745140832985575e-09).transl(1.1994291256398982e-09, 4e-08, 0))
hIsland = hIsland.sub(rect(2.528000385876558e-09, -3.279153256809174e-09).transl(6.09598764847188e-08, 4e-08, 0))
hIsland = hIsland.add(rect(9.005596765249615e-09, 3.4883565254869933e-09).transl(-7.669559058597536e-08, 4e-08, 0))
hIsland = hIsland.sub(rect(4.602977645784323e-09, -6.712883849296416e-10).transl(-5.1915794116193307e-08, 4e-08, 0))
hIsland = hIsland.sub(rect(6.42879033577047e-09, -3.211677452755334e-10).transl(5.3163625786264e-09, 4e-08, 0))
hIsland = hIsland.add(rect(7.064493992453495e-09, 1.5473531909193376e-09).transl(1.965899106710339e-08, 4e-08, 0))
hIsland = hIsland.add(rect(6.953408107074219e-09, 2.765768671253561e-10).transl(-7.759305289549742e-08, 4e-08, 0))
hIsland = hIsland.sub(rect(6.8070428680958164e-09, -2.349283817334213e-09).transl(-1.6002378134776582e-09, 4e-08, 0))
hIsland = hIsland.sub(rect(9.857758702086117e-09, -1.2392605621953708e-09).transl(1.0281962719175713e-08, 4e-08, 0))
hIsland = hIsland.sub(rect(4.033795166299207e-09, -1.601136025276031e-09).transl(-2.4243812706835874e-08, 4e-08, 0))
hIsland = hIsland.sub(rect(3.931081500382643e-09, -1.9423849173808024e-10).transl(-2.412374231741906e-08, 4e-08, 0))
hIsland = hIsland.sub(rect(7.99223232676587e-09, -3.314100197114736e-09).transl(-7.791037935115749e-08, 4e-08, 0))
hIsland = hIsland.add(rect(3.3539058309255013e-09, 7.943741872513162e-10).transl(4.2568154401026787e-08, 4e-08, 0))
hIsland = hIsland.sub(rect(9.33905826476489e-09, -7.935196388781172e-10).transl(-7.471789516756008e-08, 4e-08, 0))
hIsland = hIsland.sub(rect(8.35527139692606e-09, -1.887075547294851e-09).transl(-6.837675859021072e-08, 4e-08, 0))
hIsland = hIsland.sub(rect(5.776754185473995e-09, -1.3649747013951006e-09).transl(-3.036019533462076e-08, 4e-08, 0))
hIsland = hIsland.add(rect(3.4920360523490307e-09, 5.753836325564504e-10).transl(-7.005742598915585e-08, 4e-08, 0))
hIsland = hIsland.add(rect(3.8132542437441695e-09, 1.7508270919878946e-09).transl(5.967142005757857e-08, 4e-08, 0))
hIsland = hIsland.add(rect(9.728574108989363e-09, 2.731536248978292e-09).transl(6.624301891068862e-08, 4e-08, 0))
hIsland = hIsland.add(rect(9.451670757621074e-09, 1.3816651532444004e-09).transl(-4.033054173839607e-08, 4e-08, 0))
hIsland = hIsland.sub(rect(2.5985845340720915e-09, -3.5174166078781736e-11).transl(5.013066706733779e-08, 4e-08, 0))
hIsland = hIsland.add(rect(8.101283317850196e-09, 4.766075973408576e-10).transl(-5.567207274870444e-08, 4e-08, 0))
hIsland = hIsland.add(rect(8.741369697185613e-09, 3.1993720615259302e-09).transl(-4.897613616223584e-08, 4e-08, 0))
hIsland = hIsland.sub(rect(6.806660415851112e-09, -1.6126408767949189e-09).transl(5.921783475044499e-08, 4e-08, 0))
[...]
hIsland = hIsland.add(rect(7.498138357007506e-09, 9.874734638100667e-10).transl(3.5584397997325914e-08, 4e-08, 0))
hIsland = hIsland.sub(rect(4.473142511100265e-09, -1.2170551700779691e-09).transl(4.039444211986265e-08, 4e-08, 0))
hIsland = hIsland.sub(rect(7.571547304295567e-09, -6.741449221668027e-10).transl(2.2820175759348217e-08, 4e-08, 0))
hIsland = hIsland.add(rect(7.206827024863345e-09, 3.709265661486333e-09).transl(-7.880915131817832e-08, 4e-08, 0))
hIsland = hIsland.sub(rect(2.964464376249012e-09, -6.977600947077138e-10).transl(2.276987491284904e-08, 4e-08, 0))
hIsland = hIsland.sub(rect(4.694159668764056e-09, -1.6350115744982275e-09).transl(4.0545409764565553e-10, 4e-08, 0))
hIsland = hIsland.sub(rect(8.403174953507963e-09, -1.1238593348690382e-09).transl(2.1850821293823713e-08, 4e-08, 0))
hIsland = hIsland.sub(rect(6.445270924686778e-09, -5.651346097252237e-10).transl(-8.248290574094351e-08, 3.9453298677835606e-08, 0))
hIsland = hIsland.sub(rect(5.459985153358287e-09, -2.817076406218176e-10).transl(-2.4034471983252776e-08, 4e-08, 0))
hIsland = hIsland.sub(rect(2.785128961120855e-09, -7.25288378218671e-10).transl(-8.521813731830937e-08, 3.5334679936292285e-08, 0))
hIsland = hIsland.add(rect(4.582142104801227e-09, 1.4084452252395573e-11).transl(-8.583580369750131e-08, 3.373535423583014e-08, 0))
hIsland = hIsland.sub(rect(3.676012412845185e-09, -6.313184427349981e-10).transl(-8.618401552081838e-08, 3.269793909914874e-08, 0))
hIsland = hIsland.sub(rect(4.9187203486919705e-09, -2.032733115527553e-10).transl(-7.963014945428941e-09, 4e-08, 0))
hIsland = hIsland.sub(rect(6.5898047032653786e-09, -3.889839467852263e-09).transl(6.747061566406778e-08, 4e-08, 0))
hIsland = hIsland.add(rect(4.773166119021596e-09, 4.732415875494709e-09).transl(2.9432104039607712e-08, 4e-08, 0))
hIsland = hIsland.sub(rect(2.732326942813047e-09, -1.3412909938922342e-09).transl(-2.4198545258067097e-08, 4e-08, 0))
hIsland = hIsland.sub(rect(8.350432819321875e-09, -1.8639570145639677e-09).transl(2.416093667324236e-08, 4e-08, 0))
hIsland = hIsland.sub(rect(2.0740549260432557e-09, -1.481709253993658e-09).transl(8.628745757862255e-08, 3.2369103498843696e-08, 0))
hIsland = hIsland.add(rect(8.014140399405287e-09, 1.1919965618379595e-09).transl(5.00242443879798e-08, 4e-08, 0))
hIsland = hIsland.add(rect(8.166825963468783e-09, 1.9287043308294374e-09).transl(8.747764071740822e-08, 2.7769837349066107e-08, 0))
hIsland = hIsland.add(rect(9.310355819040908e-09, 6.967850659371276e-11).transl(-6.14040222447889e-08, 4e-08, 0))
hIsland = hIsland.sub(rect(4.107745287534191e-09, -1.1687323406622702e-09).transl(-5.676573635911555e-08, 4e-08, 0))
hIsland = hIsland.sub(rect(7.424761147488513e-09, -5.169133582459235e-09).transl(7.872236848897014e-08, 4e-08, 0))
hIsland = hIsland.add(rect(7.91133503184515e-09, 2.9535193202409774e-09).transl(-6.483908448928023e-08, 4e-08, 0))
hIsland = hIsland.add(rect(5.658037478015911e-09, 1.4526970682435934e-09).transl(1.945678448299457e-08, 4e-08, 0))
hIsland = hIsland.add(rect(8.673540306257675e-09, 1.3951279541889642e-10).transl(3.261148423922075e-08, 4e-08, 0))
hIsland = hIsland.add(rect(4.600440302739615e-09, 1.2501751734998156e-09).transl(-2.829189458189133e-08, 4e-08, 0))
hIsland = hIsland.sub(rect(3.077298153435872e-09, -9.375240014656104e-11).transl(-1.9776510332472662e-08, 4e-08, 0))
hIsland = hIsland.add(rect(7.2616050614862455e-09, 3.1244163150185442e-09).transl(2.757665448285841e-08, 4e-08, 0))
hIsland = hIsland.sub(rect(5.952156911681493e-09, -1.3134705545223858e-09).transl(-8.132775813799001e-08, 3.997346641022034e-08, 0))
hIsland = hIsland.add(rect(6.6909619345247465e-09, 7.405911323581259e-10).transl(4.89551415917178e-08, 4e-08, 0))
hIsland = hIsland.sub(rect(8.515160168108307e-09, -2.443650095211135e-09).transl(-1.7577770046615095e-08, 4e-08, 0))
hIsland = hIsland.sub(rect(7.501728674571382e-09, -2.7957481944740164e-09).transl(2.3849124729579908e-08, 4e-08, 0))
hIsland = hIsland.sub(rect(3.781956461084769e-09, -9.347222679914874e-10).transl(-5.5020360848500665e-08, 4e-08, 0))
hIsland = hIsland.add(rect(8.343397729978167e-09, 1.4636128077922682e-10).transl(-1.6146510447941e-08, 4e-08, 0))
hIsland = hIsland.add(rect(6.744965688168421e-09, 1.6160208399359522e-09).transl(4.0071372056071796e-08, 4e-08, 0))
hIsland = hIsland.add(rect(3.5241882402757183e-09, 4.3374865451520415e-09).transl(-2.2876268935915005e-08, 4e-08, 0))
hIsland = hIsland.sub(rect(5.711098872403292e-09, -6.582491675361865e-10).transl(3.112822925721762e-08, 4e-08, 0))
hIsland = hIsland.sub(rect(4.16277255988697e-09, -4.817494265050758e-09).transl(4.230717288722561e-08, 4e-08, 0))
hIsland = hIsland.add(rect(2.317962232448266e-09, 1.0806457104079433e-10).transl(1.7459694747862754e-08, 4e-08, 0))
hIsland = hIsland.add(rect(4.016526954752782e-09, 1.7445871991555125e-09).transl(5.6971072540403617e-08, 4e-08, 0))
hIsland = hIsland.sub(rect(3.2123082552802896e-09, -3.027312602657487e-09).transl(5.47212128302617e-08, 4e-08, 0))
hIsland = hIsland.add(rect(6.136751597861034e-09, 3.2641856906116725e-09).transl(-5.8209619767332524e-08, 4e-08, 0))
hIsland = hIsland.add(rect(4.004338989433794e-09, 4.829964682795121e-09).transl(7.569649762895229e-08, 4e-08, 0))
hIsland = hIsland.add(rect(5.6067513202490715e-09, 6.481947317294338e-11).transl(5.7633152661465174e-08, 4e-08, 0))
hIsland = hIsland.add(rect(8.05387969228177e-09, 2.577033464855523e-09).transl(5.017184896965024e-08, 4e-08, 0))
hIsland = hIsland.sub(rect(9.302254754696322e-09, -3.547524778028134e-09).transl(4.382066616479993e-08, 4e-08, 0))
hIsland = hIsland.sub(rect(9.555388245251618e-09, -8.844254839658817e-10).transl(8.793689514951428e-08, 2.5484727233498818e-08, 0))
hIsland = hIsland.add(rect(7.694438259898099e-09, 1.3855685239472604e-09).transl(-5.661119623374565e-08, 4e-08, 0))
hIsland = hIsland.sub(rect(4.68541656091112e-09, -2.1129888264110475e-09).transl(8.393294467852604e-08, 3.781640783423973e-08, 0))
hIsland = hIsland.sub(rect(4.11972263998477e-09, -5.991622960165823e-10).transl(-6.913850803980689e-08, 4e-08, 0))
hIsland = hIsland.add(rect(9.083461921921692e-09, 3.306819704320146e-09).transl(-8.691981847986048e-08, 3.012918659291461e-08, 0))
hIsland = hIsland.sub(rect(7.654036782905923e-09, -3.2092019660387586e-10).transl(-2.7252240185471213e-08, 4e-08, 0))
hIsland = hIsland.sub(rect(9.221162823245512e-09, -2.3064131668281895e-09).transl(-5.580539556408338e-08, 4e-08, 0))
hIsland = hIsland.sub(rect(7.971235778416032e-09, -3.010870894353208e-09).transl(1.0480912467489128e-09, 4e-08, 0))
hIsland = hIsland.sub(rect(9.301060561091617e-09, -3.7743805801594304e-09).transl(-4.1639503861632286e-08, 4e-08, 0))
hIsland = hIsland.add(rect(5.413337429318914e-09, 4.99174485668719e-10).transl(2.862363050078037e-08, 4e-08, 0))
hIsland = hIsland.add(rect(9.46182601156761e-09, 4.106171655142465e-10).transl(2.907673944173562e-08, 4e-08, 0))
hIsland = hIsland.add(rect(4.263174669269293e-09, 3.428561879816869e-09).transl(-3.8673237716925124e-08, 4e-08, 0))
hIsland = hIsland.sub(rect(9.449564405758216e-09, -5.201470874838802e-10).transl(6.469348676265647e-08, 4e-08, 0))
hIsland = hIsland.sub(rect(2.218479790219793e-09, -1.1083177112233584e-09).transl(3.8432284980181664e-08, 4e-08, 0))
hIsland = hIsland.add(rect(7.760443029440008e-09, 2.5762731036258085e-09).transl(-4.892687481333428e-08, 4e-08, 0))
hIsland = hIsland.sub(rect(5.566835007585487e-09, -3.724961247332283e-10).transl(6.103530632696969e-08, 4e-08, 0))
hIsland = hIsland.sub(rect(9.46602511288516e-09, -7.663944041981221e-10).transl(-7.590889164127747e-08, 4e-08, 0))
hIsland = hIsland.add(rect(9.008006248760968e-09, 2.09925523476986e-09).transl(-1.501558265924807e-08, 4e-08, 0))
hIsland = hIsland.sub(rect(9.066517454693258e-09, -4.922026038836883e-10).transl(8.870309271785056e-08, 2.0685708112188786e-08, 0))
hIsland = hIsland.sub(rect(9.034483480366948e-09, -6.694329727946232e-10).transl(-8.22131200940735e-08, 3.963496140626544e-08, 0))
hIsland = hIsland.sub(rect(2.2469280107626786e-09, -2.0375715886292024e-09).transl(-3.206118372113907e-08, 4e-08, 0))
hIsland = hIsland.sub(rect(3.5065654675431653e-09, -8.092776960291453e-10).transl(2.4775141552893772e-08, 4e-08, 0))
hIsland = hIsland.sub(rect(7.109237230669636e-09, -2.16175354003165e-09).transl(5.96756543497908e-08, 4e-08, 0))
hIsland = hIsland.sub(rect(2.7200814259281066e-09, -4.3179136783061877e-10).transl(8.429432247424361e-08, 3.722403032044824e-08, 0))
hIsland = hIsland.sub(rect(8.793045066543086e-09, -2.2287082266865705e-09).transl(-6.017240835978192e-09, 4e-08, 0))
hIsland = hIsland.sub(rect(7.68474080634906e-09, -1.2960059581232192e-09).transl(-1.5880788964247756e-08, 4e-08, 0))
hIsland = hIsland.add(rect(9.141642883766743e-09, 5.463930225974244e-10).transl(-7.746200474825636e-08, 4e-08, 0))
hIsland = hIsland.sub(rect(7.78143596985353e-09, -3.0811887233821615e-10).transl(4.2783538946917706e-08, 4e-08, 0))
hIsland = hIsland.sub(rect(4.256473913551744e-09, -1.921518740102594e-10).transl(3.5470924493169425e-08, 4e-08, 0))
hIsland = hIsland.add(rect(4.484350045853905e-09, 3.878899347462438e-09).transl(5.460424785716563e-09, 4e-08, 0))
hIsland = hIsland.sub(rect(8.218330369419396e-09, -1.296156136765104e-09).transl(4.995420900966601e-08, 4e-08, 0))
hIsland = hIsland.add(rect(2.2931160714284298e-09, 1.5391785584113147e-09).transl(-7.855979130724588e-08, 4e-08, 0))
hIsland = hIsland.add(rect(4.282362334361357e-09, 4.314524416641452e-11).transl(3.5344819776247365e-09, 4e-08, 0))
hIsland = hIsland.add(rect(7.490322261342462e-09, 4.16599795719716e-09).transl(6.400117084416301e-08, 4e-08, 0))
hIsland = hIsland.sub(rect(3.5211910218848976e-09, -5.369651942720625e-10).transl(7.120316134463815e-08, 4e-08, 0))
hIsland = hIsland.add(rect(9.764368276690671e-09, 1.4033575404711197e-09).transl(-3.704830148609578e-08, 4e-08, 0))
hIsland = hIsland.add(rect(4.123466233098691e-09, 5.4063841894387705e-11).transl(-3.284537639258307e-08, 4e-08, 0))
hIsland = hIsland.sub(rect(8.303937109493731e-09, -2.9829276010936405e-09).transl(7.564724199050467e-08, 4e-08, 0))
hIsland = hIsland.sub(rect(8.381614688695664e-09, -1.2650040565708803e-09).transl(5.4101416805341446e-08, 4e-08, 0))
hIsland = hIsland.add(rect(2.0584313577203706e-09, 3.279481513736843e-11).transl(-3.046652881458815e-08, 4e-08, 0))
hIsland = hIsland.sub(rect(2.6562876683778677e-09, -2.048752830281246e-09).transl(-6.546044441374977e-08, 4e-08, 0))
hIsland = hIsland.add(rect(3.6914270877682e-09, 2.3238600069901744e-09).transl(-8.303463978285329e-08, 3.896443226595269e-08, 0))
hIsland = hIsland.add(rect(9.28973238723393e-09, 9.104837592524969e-10).transl(-4.0962429674602226e-08, 4e-08, 0))
hIsland = hIsland.add(rect(6.45311227518173e-09, 1.9311308748224705e-09).transl(-8.914570940987493e-08, 1.7009753605679616e-08, 0))
hIsland = hIsland.sub(rect(6.266851369036547e-09, -2.370436399388965e-09).transl(2.727773428286798e-09, 4e-08, 0))
hIsland = hIsland.add(rect(3.4887642784919984e-09, 2.2497565960643376e-09).transl(-5.653222546435081e-08, 4e-08, 0))
hIsland = hIsland.add(rect(5.636106718832848e-09, 9.925601925017372e-10).transl(4.6168476266279974e-08, 4e-08, 0))
hIsland = hIsland.sub(rect(9.159741999182181e-09, -2.9422146136375684e-10).transl(4.8077373678779213e-08, 4e-08, 0))
hIsland = hIsland.add(rect(5.546828967549248e-09, 2.71907101405276e-10).transl(-5.083007479162708e-08, 4e-08, 0))
hIsland = hIsland.add(rect(3.4264634022404286e-09, 7.02846998117054e-10).transl(-8.117984633651155e-08, 3.999201285571559e-08, 0))
hIsland = hIsland.sub(rect(3.232535941655865e-09, -2.5717621264510027e-09).transl(-2.9245093978384584e-08, 4e-08, 0))
hIsland = hIsland.sub(rect(6.334513155146995e-09, -9.262683804107245e-10).transl(2.300295252494296e-08, 4e-08, 0))
hIsland = hIsland.sub(rect(4.039973104281981e-09, -6.227117241640889e-10).transl(1.9309891042037233e-08, 4e-08, 0))
hIsland = hIsland.add(rect(3.528143699163523e-09, 1.5938672292253491e-09).transl(-2.923995885484096e-08, 4e-08, 0))
hIsland = hIsland.sub(rect(7.828956036094811e-09, -1.33269102024528e-09).transl(8.897674547493467e-08, 1.8524075293884955e-08, 0))
hIsland = hIsland.sub(rect(5.886643712929922e-09, -1.3406445006263157e-09).transl(9.915912628426945e-09, 4e-08, 0))
hIsland = hIsland.sub(rect(7.0933392590735915e-09, -1.2703022326592515e-09).transl(1.7071595638427786e-08, 4e-08, 0))
hIsland = hIsland.sub(rect(3.4163228818426896e-09, -2.1946405551976915e-09).transl(7.7227255192089e-08, 4e-08, 0))
hIsland = hIsland.add(rect(4.032953850711048e-09, 3.302380085480793e-09).transl(8.664577639622486e-08, 3.115083460311654e-08, 0))
hIsland = hIsland.add(rect(8.959762601898165e-09, 8.602428283117201e-10).transl(7.133659270007816e-09, 4e-08, 0))
hIsland = hIsland.add(rect(5.262213914627539e-09, 1.8197789101060583e-10).transl(-2.269879754706625e-09, 4e-08, 0))
hIsland = hIsland.sub(rect(9.735271837446837e-09, -1.1636256803686668e-09).transl(-7.291698320914716e-08, 4e-08, 0))
hIsland = hIsland.sub(rect(8.98123783242597e-09, -2.6346811712948607e-10).transl(-6.017222402339821e-09, 4e-08, 0))
hIsland = hIsland.add(rect(6.031932154903868e-09, 2.0799507717163307e-09).transl(5.023227752832168e-08, 4e-08, 0))
hIsland = hIsland.add(rect(7.143594287411873e-09, 1.9778151088743334e-09).transl(7.346378471673092e-08, 4e-08, 0))
hIsland = hIsland.add(rect(6.604331584718709e-09, 5.197264828942322e-10).transl(-7.243566565317734e-08, 4e-08, 0))
hIsland = hIsland.add(rect(9.624088161811308e-09, 1.0900974236910646e-09).transl(6.54742953616646e-08, 4e-08, 0))
hIsland = hIsland.add(rect(4.092217554643482e-09, 8.896557646666575e-11).transl(-7.478741417178348e-08, 4e-08, 0))
hIsland = hIsland.sub(rect(6.825113069977353e-09, -2.841024324601185e-09).transl(-1.7339580414798606e-08, 4e-08, 0))
hIsland = hIsland.sub(rect(9.936839771334268e-09, -3.5272224166761147e-09).transl(-1.5565998419251624e-08, 4e-08, 0))
hIsland = hIsland.sub(rect(8.009819198236802e-09, -1.3964434743414286e-09).transl(3.097549905842032e-08, 4e-08, 0))
hIsland = hIsland.add(rect(6.7858063854029115e-09, 2.2959216975996974e-09).transl(-7.557183090161406e-08, 4e-08, 0))
hIsland = hIsland.sub(rect(6.849137085005902e-09, -3.111344669296621e-10).transl(2.4671585887195214e-08, 4e-08, 0))
hIsland = hIsland.add(rect(2.8337956167209024e-09, 1.0650890357302723e-09).transl(-2.4802373306823367e-08, 4e-08, 0))
hIsland = hIsland.add(rect(5.212231039494581e-09, 1.033014476113604e-09).transl(8.503573436462453e-08, 3.575302059605593e-08, 0))
hIsland = hIsland.sub(rect(4.55543739910917e-09, -2.7266558486580414e-09).transl(6.443491885963172e-10, 4e-08, 0))
hIsland = hIsland.add(rect(6.007167416264585e-09, 4.2362780739575665e-10).transl(-3.486054119001403e-08, 4e-08, 0))
hIsland = hIsland.add(rect(6.907987521074846e-09, 2.8609026254154315e-09).transl(-4.958761123070361e-08, 4e-08, 0))
hIsland = hIsland.sub(rect(8.459206823583567e-09, -2.623376060353352e-10).transl(4.71357672853189e-08, 4e-08, 0))
hIsland = hIsland.add(rect(4.319506929068565e-09, 2.7162980472985373e-09).transl(4.668106419262343e-09, 4e-08, 0))
hIsland = hIsland.add(rect(6.450443727690676e-09, 3.030369836468685e-09).transl(6.618312822653361e-08, 4e-08, 0))
hIsland = hIsland.sub(rect(5.610129090589607e-09, -1.7743809759036402e-09).transl(6.412398136878317e-08, 4e-08, 0))
hIsland = hIsland.add(rect(8.711401075187819e-09, 4.104930203766375e-09).transl(3.147642493706777e-08, 4e-08, 0))
hIsland = hIsland.sub(rect(3.302753882951376e-09, -3.1085144142508813e-10).transl(-7.119347736354997e-08, 4e-08, 0))
hIsland = hIsland.add(rect(4.2864229910769375e-09, 1.6395969177945788e-09).transl(-6.621830578584566e-08, 4e-08, 0))
hIsland = hIsland.sub(rect(6.915620342429145e-09, -4.946362073896863e-10).transl(-6.473219019915404e-08, 4e-08, 0))
hIsland = hIsland.sub(rect(6.428438362486672e-09, -5.540553674339592e-10).transl(8.11430534954137e-08, 3.99949467666005e-08, 0))
hIsland = hIsland.sub(rect(9.217270348445511e-09, -2.4512796598568568e-09).transl(7.678565906517939e-08, 4e-08, 0))
hIsland = hIsland.add(rect(7.007451149409167e-09, 1.3773561558208903e-10).transl(-5.828316869716997e-08, 4e-08, 0))
hIsland = hIsland.sub(rect(6.174441706579855e-09, -1.8480472163559078e-09).transl(-1.3811534538825221e-08, 4e-08, 0))
hIsland = hIsland.add(rect(3.515135471340063e-09, 1.9604311456047972e-10).transl(1.8274199623687435e-09, 4e-08, 0))
hIsland = hIsland.add(rect(6.371604011651094e-09, 3.079594502638725e-09).transl(-4.990749836393476e-08, 4e-08, 0))
hIsland = hIsland.add(rect(8.342722195566863e-09, 3.788855146192001e-09).transl(-7.1235110001572e-08, 4e-08, 0))
hIsland = hIsland.add(rect(7.3266837736813944e-09, 3.043551945146167e-11).transl(7.733158725085006e-08, 4e-08, 0))
hIsland = hIsland.add(rect(3.9096476535111345e-09, 2.7735907437830184e-09).transl(8.470392194646034e-08, 3.645554362545899e-08, 0))
hIsland = hIsland.add(rect(2.3310116692869604e-09, 1.6758078293433188e-09).transl(8.445250064055046e-08, 3.6939787997813845e-08, 0))
hIsland = hIsland.sub(rect(9.96923143008775e-09, -2.752296745666597e-09).transl(1.512817005775593e-09, 4e-08, 0))
hIsland = hIsland.sub(rect(7.594651256623607e-09, -3.0549547191452644e-09).transl(-5.862668827408509e-08, 4e-08, 0))
hIsland = hIsland.add(rect(9.576682133162083e-09, 6.924673630336174e-10).transl(1.8087560694871805e-08, 4e-08, 0))
hIsland = hIsland.add(rect(3.0832497622051484e-09, 1.8699146529713403e-09).transl(-1.0705572398147505e-08, 4e-08, 0))
hIsland = hIsland.sub(rect(3.8404614718615596e-09, -1.981585151619329e-09).transl(6.099146877203374e-08, 4e-08, 0))
hIsland = hIsland.sub(rect(5.214030049352866e-09, -3.0128304722067314e-09).transl(2.197565083762785e-09, 4e-08, 0))
hIsland = hIsland.add(rect(3.3502181377599643e-09, 3.194506809571765e-09).transl(-2.5440428693911862e-08, 4e-08, 0))
hIsland = hIsland.add(rect(5.362245730041204e-09, 4.6110546529809194e-10).transl(-6.840142968438381e-08, 4e-08, 0))
hIsland = hIsland.sub(rect(9.217081599283184e-09, -1.0985399631072813e-09).transl(7.424774634135655e-08, 4e-08, 0))
hIsland = hIsland.add(rect(5.8519124378773855e-09, 2.1311673561225413e-09).transl(-7.762344366667159e-08, 4e-08, 0))
hIsland = hIsland.add(rect(3.6788488423959127e-09, 3.826250630798247e-09).transl(3.674152004683828e-08, 4e-08, 0))
hIsland = hIsland.sub(rect(4.418939481650095e-09, -1.4743263048379218e-09).transl(-6.155014192578229e-08, 4e-08, 0))
hIsland = hIsland.sub(rect(2.4923632273310236e-09, -3.9615204108115016e-09).transl(-4.246924807350149e-08, 4e-08, 0))
hIsland = hIsland.sub(rect(5.350895042013325e-09, -8.18472550096317e-10).transl(1.1597988678033137e-08, 4e-08, 0))
hIsland = hIsland.sub(rect(6.461422490965905e-09, -1.407229343132347e-09).transl(6.657412726127666e-08, 4e-08, 0))
hIsland = hIsland.add(rect(4.807907072932427e-09, 6.237805706037819e-10).transl(-6.546756399853046e-08, 4e-08, 0))
hIsland = hIsland.add(rect(3.1679138478928038e-09, 2.3014372992696366e-09).transl(2.324989916572241e-08, 4e-08, 0))
hIsland = hIsland.sub(rect(2.4092126578251023e-09, -6.2876600184824555e-09).transl(-1.1968798044553153e-08, 4e-08, 0))
hIsland = hIsland.add(rect(6.134179459364284e-09, 9.136000655323058e-10).transl(-2.993511496878652e-09, 4e-08, 0))
vIsland = hIsland.rotz(pi / 2)
vIslands = vIslands.add(vIsland.transl(0, -a/2, 0))
DefRegion(1, hIslands)
DefRegion(2, vIslands)
TableAdd(m_full.Region(1))
TableAdd(m_full.Region(2))
setgeom(hIslands.add(vIslands))
save(geom)
r2o2 := sqrt(2) / 2
m = RandomMagSeed(4)
B_ext = vector(Bmax*r2o2, Bmax*r2o2, 0)
relax()
minimize()
for B := Bmax; B >= -Bmax; B -= Bstep {
	B_ext = vector(B*r2o2, B*r2o2, 0)
	minimize()
	tablesave()
}
//********************************************************************//
//Please cite the following references, relevant for your simulation. //
//See bibtex file in output folder for justification.                 //
//********************************************************************//
//   * Vansteenkiste et al., AIP Adv. 4, 107133 (2014).
//   * Exl et al., J. Appl. Phys. 115, 17D118 (2014).
