# t (s)	mx ()	my ()	mz ()	B_extx (T)	B_exty (T)	B_extz (T)	m_fullx (A/m)	m_fully (A/m)	m_fullz (A/m)	m_full.region1x (A/m)	m_full.region1y (A/m)	m_full.region1z (A/m)	m_full.region2x (A/m)	m_full.region2y (A/m)	m_full.region2z (A/m)
0	0.6426693	0.6426689	-4.0576045e-10	0.07071097	0.07071097	0	59034.26	59034.227	-4.005623e-05	641566.56	258170.31	-0.00022711324	258170.45	641566.1	-0.00038338098
0	0.64240915	0.642409	-2.2817111e-10	0.070357	0.070357	0	59010.363	59010.35	-2.156504e-05	641776.3	257596.58	-0.000120197896	257596.47	641776.06	-0.00020847339
0	0.642143	0.64214283	-1.3733174e-10	0.07000352	0.07000352	0	58985.918	58985.906	-1.6166945e-05	641993.4	257006.92	-4.8716345e-05	257006.83	641993.2	-0.00019768294
0	0.6418765	0.64187646	-1.2659317e-10	0.0696501	0.0696501	0	58961.438	58961.43	-7.0692995e-06	642209.2	256418.16	-5.9538757e-05	256418.03	642208.9	-4.8203936e-05
0	0.6416098	0.64160967	-1.7926968e-10	0.069296405	0.069296405	0	58936.938	58936.926	-2.0222327e-05	642423.7	255830.2	-0.00020088846	255830.11	642423.4	-0.000107318614
0	0.6413391	0.641339	-1.7899414e-10	0.068943016	0.068943016	0	58912.07	58912.062	-1.721261e-05	642640.75	255234.19	-0.0001554622	255234.08	642640.5	-0.00010687398
0	0.64107	0.6410698	-3.7441544e-10	0.0685895	0.0685895	0	58887.35	58887.336	-2.9871191e-05	642856.75	254641.34	-0.00025548798	254641.27	642856.44	-0.00019977675
0	0.64079696	0.6407968	-6.929858e-11	0.06823556	0.06823556	0	58862.27	58862.258	-2.9275477e-06	643074.3	254041.52	-3.4487524e-09	254041.42	643074	-4.4615103e-05
0	0.64052325	0.64052314	-1.2985148e-10	0.067882404	0.067882404	0	58837.125	58837.113	-9.405229e-06	643291.56	253441.12	-7.9518526e-05	253440.97	643291.25	-6.3825915e-05
0	0.6402471	0.6402469	-3.0443914e-10	0.06752848	0.06752848	0	58811.758	58811.742	-2.935284e-05	643511.06	252834.94	-0.0003148464	252834.81	643510.75	-0.00013251818
0	0.6399719	0.6399718	-1.5782974e-10	0.067174956	0.067174956	0	58786.49	58786.477	-1.3558432e-05	643727	252233.83	-0.00019969071	252233.78	643726.7	-6.952419e-06
0	0.639692	0.6396919	-2.4324284e-10	0.066821866	0.066821866	0	58760.77	58760.758	-1.1826392e-05	643947.6	251621.23	-4.1892097e-05	251621.14	643947.3	-0.00013835312
0	0.63941205	0.639412	-3.1282785e-10	0.066467956	0.066467956	0	58735.062	58735.043	-1.8154802e-05	644166.44	251010.64	-0.00012826978	251010.55	644166.06	-0.0001484263
0	0.6391317	0.6391316	-2.6605854e-10	0.06611443	0.06611443	0	58709.3	58709.293	-2.7075852e-05	644383.75	250400.77	-0.00025798776	250400.67	644383.5	-0.00015467338
0	0.63884896	0.6388487	-2.3247937e-10	0.065760985	0.065760985	0	58683.324	58683.312	-2.4135099e-05	644603.3	249785.34	-0.00020426183	249785.27	644602.94	-0.00016357955
0	0.63856375	0.6385636	-3.7430292e-10	0.065407366	0.065407366	0	58657.137	58657.113	-3.333868e-05	644823.56	249165.73	-0.00026893703	249165.66	644823.25	-0.00023917548
0	0.6382752	0.6382751	-8.867466e-11	0.06505393	0.06505393	0	58630.633	58630.613	-4.1192425e-06	645046.25	248539.16	-3.8161565e-05	248539.1	645045.94	-2.4619523e-05
0	0.63798994	0.63798976	-3.3635947e-10	0.06470037	0.06470037	0	58604.426	58604.414	-3.5784346e-05	645264.3	247921.73	-0.00019239739	247921.66	645264	-0.0003529894
0	0.6376979	0.6376977	-2.3136659e-10	0.0643465	0.0643465	0	58577.586	58577.57	-1.4424552e-05	645487.9	247289.14	-0.00020749675	247289.1	645487.56	-1.2346844e-05
0	0.63740927	0.63740915	-1.9438087e-10	0.06399331	0.06399331	0	58551.086	58551.062	-1.6296333e-05	645706.56	246666.5	-0.00020075146	246666.45	645706.3	-4.761984e-05
0	0.6371148	0.6371146	-8.800209e-11	0.06363943	0.06363943	0	58524.03	58524.02	-6.651108e-06	645928.94	246031.9	-6.459814e-05	246031.86	645928.56	-3.6770933e-05
0	0.63682	0.63681984	-3.141222e-10	0.06328587	0.06328587	0	58496.96	58496.938	-2.5305111e-05	646152.5	245395.58	-0.00022287834	245395.5	646152.2	-0.0001627951
0	0.63652605	0.63652587	-4.0963036e-10	0.062932774	0.062932774	0	58469.95	58469.93	-3.5646564e-05	646372.5	244763.98	-0.0002802944	244763.94	646372.1	-0.00026299243
0	0.63622594	0.63622576	-4.2458426e-11	0.06257892	0.06257892	0	58442.387	58442.375	-4.3933474e-06	646597.7	244118.72	-6.6399094e-05	244118.67	646597.44	-5.596072e-07
0	0.63592774	0.63592744	-1.3044252e-10	0.06222535	0.06222535	0	58414.99	58414.97	-1.2405173e-05	646819.94	243478.86	-2.6212154e-05	243478.81	646819.6	-0.00016285422
0	0.6356266	0.63562644	-1.7831193e-10	0.061871868	0.061871868	0	58387.336	58387.312	-1.5553724e-05	647043.3	242833.98	-0.00013267709	242833.94	647043	-0.00010437615
0	0.6353252	0.635325	-2.288399e-10	0.06151831	0.06151831	0	58359.65	58359.633	-1.8555798e-05	647265	242190.45	-0.00025325455	242190.4	647264.6	-2.955308e-05
0	0.63502055	0.6350203	-1.6840505e-10	0.06116485	0.06116485	0	58331.656	58331.637	-2.3141032e-05	647489.4	241539.42	-0.00018124735	241539.38	647488.94	-0.00017144349
0	0.6347143	0.6347141	-1.223186e-10	0.06081125	0.06081125	0	58303.53	58303.508	-1.144709e-05	647713.6	240886.38	-6.9643516e-05	240886.36	647713.3	-0.000104820785
0	0.63440394	0.63440377	-1.5121181e-10	0.06045742	0.06045742	0	58275.023	58275	-1.6240992e-05	647940.9	240224.73	-0.00014215845	240224.69	647940.5	-0.00010536939
0	0.6340965	0.63409626	-2.1952307e-10	0.06010422	0.06010422	0	58246.78	58246.758	-2.2640588e-05	648163.5	239571.61	-0.00015321665	239571.56	648163.1	-0.00019184698
0	0.6337849	0.63378465	-3.3609399e-10	0.059750397	0.059750397	0	58218.15	58218.133	-3.1234526e-05	648388.8	238910.02	-0.00031516305	238909.97	648388.5	-0.00016088015
0	0.63347065	0.6334705	-2.648243e-10	0.059396796	0.059396796	0	58189.293	58189.273	-1.8076156e-05	648615	238244.03	-0.00020385742	238244.03	648614.56	-7.164002e-05
0	0.6331541	0.6331539	-5.4313265e-10	0.059043687	0.059043687	0	58160.21	58160.188	-3.4859313e-05	648843.3	237572.48	-0.00029973057	237572.45	648842.9	-0.0002315578
0	0.6328384	0.63283813	-2.1464223e-10	0.05868988	0.05868988	0	58131.21	58131.188	-1.8921248e-05	649068.9	236904.9	-8.7280765e-05	236904.88	649068.44	-0.00020109664
0	0.6325196	0.6325193	-3.0453012e-10	0.058336265	0.058336265	0	58101.926	58101.906	-2.9431283e-05	649295.7	236231.75	-0.00029236713	236231.75	649295.3	-0.00015619304
0	0.6321987	0.6321985	-3.660035e-10	0.057982735	0.057982735	0	58072.45	58072.43	-2.4708319e-05	649523	235555.16	-0.00022806946	235555.16	649522.7	-0.00014850829
0	0.6318779	0.63187766	-3.1088573e-10	0.057629257	0.057629257	0	58042.98	58042.957	-3.0034218e-05	649748.44	234880.62	-0.0003157019	234880.64	649748.06	-0.00014204753
0	0.6315518	0.6315515	-8.312991e-11	0.05727573	0.05727573	0	58013.03	58013	-1.8316656e-06	649976.9	234195.7	-3.3588054e-05	234195.7	649976.5	5.671767e-06
0	0.63122714	0.6312269	-1.3984071e-10	0.056922108	0.056922108	0	57983.207	57983.18	-2.5067391e-05	650204.44	233513.58	-0.00014795904	233513.58	650204	-0.00023409129
0	0.63089925	0.63089895	-3.391717e-10	0.056568343	0.056568343	0	57953.074	57953.05	-3.5062843e-05	650432.5	232826.31	-0.00025403057	232826.31	650432.1	-0.00028035976
0	0.63056904	0.63056874	-1.8693909e-10	0.05621512	0.05621512	0	57922.76	57922.73	-2.1511145e-05	650661.7	232134.98	-4.8885035e-05	232135.02	650661.3	-0.0002789648
0	0.6302374	0.630237	-1.8896246e-10	0.055861373	0.055861373	0	57892.28	57892.258	-2.694219e-05	650890.6	231441.6	-0.00015048812	231441.64	650890.25	-0.00026013592
0	0.6299018	0.6299015	-3.1897238e-10	0.055507712	0.055507712	0	57861.477	57861.438	-2.1677773e-05	651120.9	230741.73	-0.00024842666	230741.78	651120.44	-8.196276e-05
0	0.6295666	0.62956625	-4.4201615e-10	0.055154584	0.055154584	0	57830.668	57830.637	-4.1729734e-05	651350.4	230042.84	-0.00027869025	230042.84	651349.94	-0.00035730973
0	0.62922853	0.6292281	-6.7732965e-11	0.05480085	0.05480085	0	57799.613	57799.582	-6.079543e-07	651580.75	229339.14	-5.176258e-05	229339.19	651580.25	4.249679e-05
0	0.6288905	0.62889016	-2.2097231e-10	0.05444718	0.05444718	0	57768.562	57768.54	-2.4930214e-05	651810.5	228636.25	-0.00024714143	228636.25	651810.06	-0.00013281818
0	0.62854886	0.62854844	-4.4268483e-10	0.054093607	0.054093607	0	57737.176	57737.15	-2.9777895e-05	652041.25	227927.02	-0.0002604579	227927.06	652040.94	-0.00019338493
0	0.6282034	0.6282031	-3.4340128e-10	0.053740222	0.053740222	0	57705.45	57705.426	-2.7254491e-05	652274.6	227210.12	-0.00021161578	227210.17	652274.1	-0.000203768
0	0.6278592	0.62785876	-1.8445817e-10	0.053386647	0.053386647	0	57673.832	57673.8	-1.6159973e-05	652503.75	226498.94	-0.00023199554	226498.98	652503.3	-1.4297485e-05
0	0.62751025	0.6275099	-2.7774305e-10	0.053032976	0.053032976	0	57641.773	57641.742	-2.8925826e-05	652737.9	225776.38	-0.00013560335	225776.45	652737.3	-0.00030525314
0	0.627162	0.6271616	-2.5430824e-10	0.052679278	0.052679278	0	57609.79	57609.75	-3.0044472e-05	652967.75	225058.98	-0.0002858838	225059.05	652967.25	-0.00017202192
0	0.62680846	0.62680805	-2.1025487e-10	0.052326016	0.052326016	0	57577.312	57577.28	-2.0706277e-05	653202.5	224329.33	-0.00017189153	224329.44	653202	-0.0001436914
0	0.6264543	0.62645394	-3.9807474e-10	0.05197235	0.05197235	0	57544.78	57544.75	-4.1035542e-05	653435.44	223600.52	-0.00029099415	223600.6	653435	-0.00033442568
0	0.62609833	0.626098	-1.6521731e-10	0.05161863	0.05161863	0	57512.074	57512.05	-6.2910467e-06	653668.6	222868.9	-7.398841e-05	222868.98	653668.2	-2.189299e-05
0	0.6257415	0.6257412	-2.5002306e-10	0.051265486	0.051265486	0	57479.305	57479.27	-2.3892513e-05	653899.94	222138.08	-0.00018312025	222138.16	653899.5	-0.00018102389
0	0.62538016	0.62537986	-4.0720374e-10	0.050911825	0.050911825	0	57446.117	57446.082	-3.5543708e-05	654134.1	221397.98	-0.00030342888	221398.1	654133.75	-0.0002382903
0	0.6250186	0.6250182	-1.5574428e-10	0.050558098	0.050558098	0	57412.9	57412.863	-2.9666455e-05	654368.1	220657.81	-0.00018649029	220657.9	654367.6	-0.0002656541
0	0.62465423	0.6246538	-3.329432e-10	0.050204474	0.050204474	0	57379.43	57379.395	-3.2921896e-05	654602.44	219913.38	-0.00034879547	219913.48	654601.94	-0.00015296483
0	0.62428665	0.62428623	-4.7177895e-10	0.049851187	0.049851187	0	57345.668	57345.633	-4.2692332e-05	654837.7	219163.58	-0.00036448165	219163.67	654837.2	-0.00028618923
0	0.62391716	0.6239166	-4.4463873e-12	0.04949756	0.04949756	0	57311.72	57311.676	-2.0986442e-06	655073.06	218410.75	-6.430723e-06	218410.84	655072.5	-2.5554567e-05
0	0.62354565	0.6235453	-3.586059e-10	0.04914384	0.04914384	0	57277.6	57277.562	-3.1269006e-05	655310.06	217653.72	-0.00032873664	217653.84	655309.6	-0.00014783212
0	0.6231719	0.62317157	-3.49318e-10	0.048790213	0.048790213	0	57243.273	57243.24	-3.8520662e-05	655546.06	216894.62	-0.0002616321	216894.75	655545.56	-0.00032545862
0	0.6227977	0.6227973	-3.231774e-10	0.048436925	0.048436925	0	57208.9	57208.863	-2.3191726e-05	655780.06	216136.69	-0.00029841045	216136.83	655779.56	-5.5053002e-05
0	0.62241936	0.6224189	-2.2943984e-10	0.0480833	0.0480833	0	57174.137	57174.094	-2.3136943e-05	656016.7	215370.23	-0.00017090914	215370.38	656016.2	-0.0001817194
0	0.62203854	0.62203807	-1.571353e-10	0.04772956	0.04772956	0	57139.164	57139.125	-2.256712e-05	656253.8	214600.02	-0.0001966994	214600.16	656253.3	-0.00014724447
0	0.6216566	0.6216562	-2.0250096e-10	0.047376387	0.047376387	0	57104.074	57104.04	-1.6084567e-05	656490.8	213828.2	-8.150141e-05	213828.34	656490.4	-0.00016364235
0	0.62127185	0.6212714	-2.6638317e-10	0.047022752	0.047022752	0	57068.727	57068.688	-3.0230736e-05	656728.4	213052.06	-0.0002465328	213052.2	656727.75	-0.00021421176
0	0.6208845	0.620884	-2.6357672e-10	0.04666901	0.04666901	0	57033.156	57033.113	-1.9038951e-05	656965.94	212272.16	-0.00018681111	212272.3	656965.56	-0.000103360195
0	0.62049276	0.62049234	-8.331409e-11	0.0463154	0.0463154	0	56997.168	56997.125	5.880099e-06	657206.75	211482.98	1.4781974e-05	211483.12	657206.3	7.48362e-05
0	0.6201023	0.62010175	-2.0849487e-10	0.045962088	0.045962088	0	56961.3	56961.25	-1.6064878e-05	657442.94	210700.05	-0.0001958777	210700.22	657442.4	-4.8965987e-05
0	0.61970705	0.6197066	-3.8182077e-10	0.04560847	0.04560847	0	56924.992	56924.957	-4.1987354e-05	657683.9	209905.86	-0.00037785835	209906	657683.4	-0.00026206797
0	0.61931014	0.61930966	-3.8531467e-10	0.04525476	0.04525476	0	56888.54	56888.49	-3.5626934e-05	657923.06	209110.89	-0.00034947813	209111.1	657922.5	-0.00019350948
0	0.6189122	0.6189117	-3.3879616e-10	0.04490114	0.04490114	0	56851.977	56851.93	-3.06964e-05	658160.5	208316.39	-0.00024385097	208316.58	658159.9	-0.00022399069
0	0.61850905	0.6185085	-2.1638875e-10	0.04454782	0.04454782	0	56814.945	56814.9	-2.2102071e-05	658402.56	207509.84	-0.00013641693	207510.05	658402	-0.00020043919
0	0.61810607	0.61810553	-2.5954563e-10	0.044194218	0.044194218	0	56777.93	56777.887	-2.2933693e-05	658640.6	206707.72	-0.00023152068	206707.9	658640.06	-0.000118010146
0	0.61769915	0.6176986	-1.6506062e-10	0.043840475	0.043840475	0	56740.555	56740.508	-1.8764727e-05	658881.3	205897.3	-0.00014950613	205897.52	658880.8	-0.00013648579
0	0.617288	0.6172875	-1.593106e-10	0.043486863	0.043486863	0	56702.793	56702.74	-2.5605375e-05	659124.7	205078.39	-0.00021749928	205078.62	659124.1	-0.00017275043
0	0.6168765	0.61687595	-4.668082e-10	0.04313367	0.04313367	0	56664.98	56664.93	-4.4356108e-05	659365.8	204261.05	-0.00034151482	204261.25	659365.25	-0.00033451346
0	0.6164635	0.6164629	-1.6585965e-10	0.042779926	0.042779926	0	56627.043	56626.992	-2.279032e-05	659605.25	203443.36	-0.00019664776	203443.58	659604.7	-0.00015069793
0	0.6160463	0.6160457	-3.9888204e-10	0.042426325	0.042426325	0	56588.727	56588.676	-2.7707905e-05	659847.4	202617.1	-0.00031908808	202617.36	659846.9	-0.00010320619
0	0.61562634	0.6156258	-2.8781275e-10	0.042072985	0.042072985	0	56550.15	56550.1	-2.1677168e-05	660089.5	201787.17	-6.0462862e-05	201787.44	660089	-0.00026991733
0	0.6152042	0.61520356	-1.81891e-10	0.041719384	0.041719384	0	56511.367	56511.32	-1.9483226e-05	660332.4	200953.23	-0.00014273787	200953.5	660331.8	-0.00015420461
0	0.614779	0.61477834	-3.6850703e-10	0.041365676	0.041365676	0	56472.312	56472.25	-3.48636e-05	660575.4	200114.94	-0.00034158258	200115.2	660574.75	-0.00018977108
0	0.6143507	0.61435	-1.1331477e-10	0.04101209	0.04101209	0	56432.96	56432.914	-8.706889e-06	660819.2	199271.45	-5.8733585e-05	199271.73	660818.56	-7.396751e-05
0	0.613921	0.61392045	-1.6777708e-10	0.040658716	0.040658716	0	56393.5	56393.438	-2.2509677e-05	661062.56	198426.6	-0.00021945026	198426.86	661061.94	-0.0001236182
0	0.61348635	0.61348575	-2.1979145e-10	0.040305134	0.040305134	0	56353.574	56353.51	-1.3574341e-05	661308.75	197571.84	-0.0001223913	197572.12	661308.1	-8.4494306e-05
0	0.61305195	0.61305135	-3.921275e-10	0.0399514	0.0399514	0	56313.676	56313.613	-2.6075164e-05	661550.75	196721.7	-0.00021245478	196722	661550.2	-0.00018495497
0	0.61261207	0.6126114	-2.7180105e-10	0.039597817	0.039597817	0	56273.26	56273.207	-2.0299798e-05	661797.75	195858.86	-0.00019105374	195859.17	661797.1	-0.000118334036
0	0.6121717	0.6121712	-2.1151657e-10	0.039244577	0.039244577	0	56232.82	56232.76	-2.0157651e-05	662040.9	194999.33	-0.00015275789	194999.64	662040.25	-0.00015446347
0	0.61172736	0.61172664	-2.2886443e-10	0.038890842	0.038890842	0	56191.992	56191.938	-2.0154894e-05	662286.5	194131.5	-0.00019720155	194131.83	662285.9	-0.0001099778
0	0.6112799	0.61127925	-3.053887e-10	0.03853726	0.03853726	0	56150.9	56150.836	-2.3495424e-05	662532.4	193259.17	-0.00028411523	193259.48	662531.8	-7.397692e-05
0	0.61082846	0.61082774	-4.4681356e-10	0.038183875	0.038183875	0	56109.418	56109.355	-4.0331e-05	662780.7	192378.73	-0.00028432792	192379.06	662780.1	-0.00033035403
0	0.61037713	0.61037636	-1.879816e-10	0.037830293	0.037830293	0	56067.96	56067.9	-2.1711796e-05	663024.9	191502.78	-0.00012070609	191503.14	663024.2	-0.00021020189
0	0.6099194	0.6099187	-2.0606036e-10	0.037476562	0.037476562	0	56025.926	56025.863	-1.9091114e-05	663274.3	190612.56	-0.00022266408	190612.89	663273.6	-6.8302244e-05
0	0.6094614	0.6094608	-2.1625723e-10	0.037123032	0.037123032	0	55983.855	55983.793	-1.700635e-05	663519.6	189726.06	-0.00021157596	189726.44	663518.94	-4.761665e-05
0	0.60899913	0.6089985	-2.7615898e-10	0.036769606	0.036769606	0	55941.387	55941.324	-2.2083495e-05	663767.4	188831.05	-0.0001800008	188831.42	663766.7	-0.0001565722
0	0.60853446	0.6085337	-4.7170595e-10	0.03641605	0.03641605	0	55898.7	55898.637	-4.762794e-05	664015.25	187932.64	-0.00039531698	187933	664014.56	-0.00033057705
0	0.6080662	0.6080654	-9.530521e-11	0.036062315	0.036062315	0	55855.688	55855.617	-1.5006987e-05	664264	187028.2	-0.00015887636	187028.6	664263.4	-6.984409e-05
0	0.6075951	0.6075944	-3.8706424e-10	0.035708763	0.035708763	0	55812.414	55812.35	-3.3178327e-05	664512.6	186120.2	-0.00033707102	186120.6	664512	-0.00016859756
0	0.60711926	0.6071186	-4.3706735e-10	0.035355486	0.035355486	0	55768.71	55768.645	-2.9258808e-05	664764.1	185202.47	-0.00025018744	185202.88	664763.44	-0.00019574401
0	0.60664344	0.60664266	-2.5341682e-10	0.03500176	0.03500176	0	55724.992	55724.926	-2.4371944e-05	665011.25	184289.16	-0.00021058708	184289.6	665010.56	-0.00016086402
0	0.6061623	0.60616153	-2.350821e-10	0.034648202	0.034648202	0	55680.805	55680.74	-2.5054513e-05	665261.7	183365.2	-0.00019511941	183365.61	665261	-0.00018673466
0	0.60567784	0.6056771	-3.8688328e-10	0.03429475	0.03429475	0	55636.312	55636.24	-3.5927325e-05	665512.3	182436.36	-0.00033161364	182436.8	665511.6	-0.00021595223
0	0.60519105	0.6051903	-2.7231833e-10	0.033941202	0.033941202	0	55591.586	55591.51	-2.2074326e-05	665762.8	181504.27	-0.0002332746	181504.7	665762.1	-0.000103158665
0	0.60470057	0.6046998	-3.0328898e-10	0.033587478	0.033587478	0	55546.523	55546.45	-2.7917744e-05	666014.2	180566.14	-0.00023983161	180566.6	666013.5	-0.00018566079
0	0.60420656	0.6042057	-9.36325e-11	0.033233978	0.033233978	0	55501.15	55501.074	-4.031803e-06	666265.75	179623	-0.00014532742	179623.48	666265.06	8.3878986e-05
0	0.6037078	0.603707	-3.561341e-10	0.032880493	0.032880493	0	55455.336	55455.26	-2.860709e-05	666520	178670.47	-0.00019025194	178670.95	666519.3	-0.0002457467
0	0.6032071	0.6032063	-6.870858e-11	0.032526966	0.032526966	0	55409.344	55409.26	-9.577276e-06	666772.44	177716.98	-9.569563e-05	177717.48	666771.75	-5.0270966e-05
0	0.602703	0.60270214	-4.1337123e-10	0.03217325	0.03217325	0	55363.04	55362.957	-3.383177e-05	667025.25	176758.33	-0.00030568446	176758.84	667024.6	-0.00020994319
0	0.6021973	0.60219634	-3.7803888e-10	0.031819716	0.031819716	0	55316.582	55316.492	-2.9748644e-05	667275.94	175799.66	-0.00030917872	175800.17	667275.25	-0.00014421827
0	0.6016842	0.6016834	-2.598806e-10	0.031466387	0.031466387	0	55269.457	55269.375	-1.7167813e-05	667532.44	174825.05	-0.00022210053	174825.55	667531.7	-3.955291e-05
0	0.6011712	0.6011703	-2.9490277e-10	0.031112675	0.031112675	0	55222.332	55222.25	-2.876273e-05	667783.94	173855.2	-0.00035360854	173855.73	667783.25	-8.476222e-05
0	0.60065246	0.6006515	-1.4954493e-10	0.030759156	0.030759156	0	55174.676	55174.594	-1.3841028e-05	668039.2	172873.58	-0.00013044938	172874.11	668038.56	-8.050076e-05
0	0.6001307	0.6001298	-3.464937e-10	0.030405626	0.030405626	0	55126.75	55126.676	-2.1125717e-05	668294	171888.47	-0.0002511549	171889	668293.25	-7.082065e-05
0	0.5996036	0.5996027	6.2168055e-11	0.03005211	0.03005211	0	55078.336	55078.25	1.3885838e-05	668551.8	170892.6	4.693681e-05	170893.16	668551.1	0.00016469628
0	0.59907436	0.5990734	-3.588925e-10	0.029698398	0.029698398	0	55029.71	55029.633	-3.1634154e-05	668807.75	169895.72	-0.00027526813	169896.3	668807	-0.00020686579
0	0.5985416	0.5985407	-2.534598e-10	0.02934494	0.02934494	0	54980.78	54980.7	-1.5927202e-05	669062.4	168895.17	-0.00023643729	168895.78	669061.75	-6.3080897e-06
0	0.59800535	0.59800434	-5.3044295e-11	0.028991368	0.028991368	0	54931.523	54931.438	-3.6216195e-06	669318.8	167888.03	-4.920831e-05	167888.62	669318.1	-5.9885424e-06
0	0.5974632	0.59746224	-5.5473465e-10	0.028637866	0.028637866	0	54881.72	54881.633	-4.9160124e-05	669578.6	166869.19	-0.00046580337	166869.75	669578	-0.00028344264
0	0.5969198	0.5969189	-5.8941874e-10	0.028284172	0.028284172	0	54831.805	54831.72	-4.959084e-05	669834.25	165852.86	-0.0004815192	165853.48	669833.44	-0.0002742913
0	0.5963711	0.5963701	-1.6289528e-10	0.027930686	0.027930686	0	54781.4	54781.312	-1.452424e-05	670092.7	164826.19	-0.00020617867	164826.8	670092	-1.518427e-05
0	0.59581846	0.59581745	-1.6034304e-10	0.027577292	0.027577292	0	54730.637	54730.55	-1.2990649e-05	670351.4	163793.8	-0.00012657099	163794.44	670350.7	-7.141859e-05
0	0.5952617	0.59526074	-3.5792347e-10	0.02722359	0.02722359	0	54679.492	54679.4	-2.9791578e-05	670611	162754.7	-0.00021481908	162755.36	670610.2	-0.00023923226
0	0.5947009	0.59469986	-2.4431174e-10	0.026870111	0.026870111	0	54627.977	54627.883	-2.406048e-05	670870.8	161709.67	-0.00019214692	161710.33	670870	-0.00017455718
0	0.5941355	0.5941345	-4.3240594e-10	0.026516488	0.026516488	0	54576.05	54575.96	-3.494894e-05	671131.4	160657.8	-0.00029147143	160658.45	671130.6	-0.00024118292
0	0.59356636	0.59356534	-2.3660807e-10	0.026163008	0.026163008	0	54523.77	54523.676	-2.4740399e-05	671392.25	159600.05	-0.00011782216	159600.73	671391.44	-0.00025924452
0	0.5929913	0.5929902	-4.2714668e-10	0.025809314	0.025809314	0	54470.938	54470.844	-4.316247e-05	671656.2	158530.83	-0.00036927435	158531.48	671655.5	-0.0002885618
0	0.5924145	0.5924134	-1.4758286e-10	0.025455913	0.025455913	0	54417.96	54417.863	-9.4491525e-06	671916.4	157463.25	-0.00013975987	157463.94	671915.6	-4.2540087e-06
0	0.5918323	0.59183127	-1.3289785e-10	0.025102237	0.025102237	0	54364.48	54364.387	-1.578253e-05	672178.94	156385.61	-0.00015867242	156386.31	672178.2	-8.186802e-05
0	0.59124565	0.59124464	-1.281721e-10	0.02474878	0.02474878	0	54310.6	54310.492	-1.8336581e-05	672441.94	155301.31	-0.00018337985	155302.03	672441.2	-9.6086726e-05
0	0.5906542	0.5906532	-3.603387e-10	0.024395106	0.024395106	0	54256.26	54256.164	-3.0979794e-05	672706	154209.23	-0.00038799836	154209.95	672705.25	-8.4162515e-05
0	0.59005666	0.5900556	-6.5605785e-11	0.02404165	0.02404165	0	54201.375	54201.273	-7.3886063e-06	672972.9	153105.8	-6.229509e-05	153106.53	672972.06	-5.031414e-05
0	0.5894575	0.5894564	-2.432488e-11	0.023688193	0.023688193	0	54146.344	54146.24	-1.0075717e-06	673235.75	152004.02	-5.0159855e-05	152004.75	673234.94	3.4803525e-05
0	0.5888524	0.5888513	-3.1738812e-10	0.023334505	0.023334505	0	54090.75	54090.65	-3.3580036e-05	673501.25	150891.36	-0.0003312657	150892.12	673500.4	-0.00018052531
0	0.5882421	0.588241	-3.2026626e-10	0.022981044	0.022981044	0	54034.688	54034.586	-2.8404695e-05	673767.6	149770.45	-0.00035973833	149771.23	673766.94	-7.317565e-05
0	0.5876262	0.5876251	-1.3874372e-10	0.02262738	0.02262738	0	53978.113	53978.01	-6.1995074e-06	674035.3	148640.58	-9.144912e-05	148641.34	674034.6	-3.0371423e-06
0	0.5870068	0.58700573	-7.9743816e-11	0.02227391	0.02227391	0	53921.227	53921.113	-6.3625666e-06	674302.7	147506.02	-0.00010455133	147506.81	674301.94	7.579892e-06
0	0.5863818	0.5863807	-1.702005e-10	0.021920238	0.021920238	0	53863.812	53863.707	-1.6913853e-05	674571.4	146362.39	-0.00019289291	146363.22	674570.6	-6.488995e-05
0	0.5857516	0.58575046	-5.3912064e-10	0.021566834	0.021566834	0	53805.918	53805.82	-5.0932344e-05	674840.56	145210.88	-0.0005206637	145211.69	674839.8	-0.00025559252
0	0.5851147	0.58511364	-3.294076e-10	0.021213163	0.021213163	0	53747.414	53747.312	-3.337288e-05	675112.75	144047.06	-0.0003749206	144047.86	675111.94	-0.00013371313
0	0.58447564	0.5844745	-3.9260434e-10	0.020859692	0.020859692	0	53688.71	53688.605	-3.3597178e-05	675381.06	142884.02	-0.00030250725	142884.86	675380.25	-0.00020954505
0	0.58382946	0.58382833	-3.063332e-10	0.020506045	0.020506045	0	53629.355	53629.25	-2.5108671e-05	675652.75	141707.72	-0.0002590138	141708.53	675651.94	-0.00012366574
0	0.5831778	0.5831766	-3.2884256e-10	0.020152567	0.020152567	0	53569.49	53569.387	-3.6694953e-05	675924.9	140523.16	-0.0004052474	140524.05	675924.1	-0.00015401778
0	0.5825204	0.58251923	-3.0054287e-10	0.019798908	0.019798908	0	53509.105	53509	-2.5469333e-05	676198.4	139329.34	-0.00018468652	139330.2	676197.5	-0.00020348979
0	0.58185804	0.58185685	-1.9158741e-10	0.019445421	0.019445421	0	53448.26	53448.156	-2.1248396e-05	676472	138128.34	-0.0001487294	138129.23	676471.2	-0.0001751159
0	0.5811896	0.5811884	-2.564587e-10	0.019091938	0.019091938	0	53386.863	53386.75	-2.1312206e-05	676746.7	136917.89	-0.00024815093	136918.77	676745.8	-7.6666896e-05
0	0.5805144	0.5805132	-1.447974e-10	0.018738281	0.018738281	0	53324.836	53324.727	-1.31974975e-05	677022.6	135696.56	-0.00014516385	135697.47	677021.8	-5.5978286e-05
0	0.57983446	0.5798333	-3.9252307e-10	0.018384803	0.018384803	0	53262.383	53262.273	-3.5255445e-05	677299.06	134468.25	-0.00024850375	134469.16	677298.3	-0.000288822
0	0.5791477	0.5791465	-1.5472755e-10	0.018031158	0.018031158	0	53199.293	53199.188	-1.4141106e-05	677576.9	133229.02	-0.00014159051	133229.9	677576.1	-7.393309e-05
0	0.578455	0.57845366	-2.4970354e-10	0.017677743	0.017677743	0	53135.656	53135.55	-2.4026598e-05	677855.25	131980.64	-0.0001872571	131981.55	677854.56	-0.0001789306
0	0.57775545	0.5777542	-5.2426546e-10	0.017324101	0.017324101	0	53071.4	53071.293	-4.854261e-05	678134.94	130721.766	-0.00046533317	130722.695	678134.1	-0.00027450136
0	0.5770495	0.5770483	-2.5354951e-10	0.016970601	0.016970601	0	53006.562	53006.45	-2.197253e-05	678415.6	129452.71	-0.0002130606	129453.625	678414.94	-0.000121821206
0	0.5763371	0.57633597	-3.1604933e-10	0.016616989	0.016616989	0	52941.125	52941.01	-3.3059012e-05	678697.4	128173.695	-0.0002666923	128174.6	678696.75	-0.00023715777
0	0.57561773	0.5756165	-3.0258002e-10	0.016263483	0.016263483	0	52875.04	52874.926	-2.5953917e-05	678980.4	126883.414	-0.0003085683	126884.35	678979.75	-8.699355e-05
0	0.5748913	0.57489014	-2.4756205e-10	0.015909858	0.015909858	0	52808.32	52808.207	-2.030841e-05	679264.5	125582.41	-0.00027722292	125583.336	679263.75	-3.2296113e-05
0	0.57415813	0.57415694	-1.6322518e-10	0.015556337	0.015556337	0	52740.96	52740.85	-9.495106e-06	679549.44	124270.98	-0.00012384306	124271.92	679548.6	-2.0871184e-05
0	0.5734154	0.57341427	-3.592878e-10	0.015202813	0.015202813	0	52672.75	52672.637	-3.4833098e-05	679838.25	122942.37	-0.00031972624	122943.336	679837.56	-0.00021116257
0	0.57266927	0.5726681	-3.8023165e-10	0.014849199	0.014849199	0	52604.2	52604.094	-3.748719e-05	680123.44	121612.55	-0.00034303518	121613.48	680122.8	-0.00022830449
0	0.5719135	0.57191235	-5.623771e-10	0.014495684	0.014495684	0	52534.773	52534.676	-5.233665e-05	680412.44	120265.54	-0.0005566321	120266.49	680411.75	-0.00024102713
0	0.57114965	0.5711484	-1.756734e-10	0.014142086	0.014142086	0	52464.6	52464.492	-1.3170424e-05	680703.06	118905.43	-0.00025842764	118906.37	680702.3	5.769814e-05
0	0.5703777	0.57037663	-1.7088254e-10	0.013788646	0.013788646	0	52393.71	52393.6	-1.2904146e-05	680994.94	117533.055	-0.00018695934	117534.016	680994.1	-9.711865e-06
0	0.56959754	0.5695964	-2.1795175e-10	0.0134350555	0.0134350555	0	52322.04	52321.934	-2.4392348e-05	681288.25	116147.34	-0.00024248748	116148.27	681287.5	-0.00012927459
0	0.568809	0.5688078	-1.5167084e-10	0.013081504	0.013081504	0	52249.6	52249.492	-1.03902685e-05	681583	114748.53	-8.302933e-05	114749.48	681582.4	-7.5328026e-05
0	0.5680112	0.56801003	-4.215838e-10	0.012727956	0.012727956	0	52176.32	52176.223	-3.810351e-05	681879.8	113334.94	-0.0004765246	113335.88	681879.2	-0.0001042083
0	0.567205	0.5672039	-1.9546093e-10	0.01237439	0.01237439	0	52102.266	52102.156	-2.5524563e-05	682177.6	111908.414	-0.00013373216	111909.33	682176.9	-0.00025528594
0	0.56638914	0.566388	-1.906033e-10	0.012020825	0.012020825	0	52027.32	52027.22	-1.6024624e-05	682477.5	110466.38	-6.736218e-05	110467.29	682476.9	-0.000176868
0	0.5655634	0.56556237	-3.877542e-10	0.0116672525	0.0116672525	0	51951.473	51951.38	-3.8121383e-05	682779.3	109008.49	-0.00036248902	109009.41	682778.8	-0.00021851638
0	0.56472594	0.56472486	3.6236153e-11	0.01131369	0.01131369	0	51874.543	51874.445	6.4285423e-06	683085.2	107530.25	-3.1242802e-05	107531.15	683084.5	0.00012921977
0	0.5638825	0.56388146	-1.5465218e-10	0.010960119	0.010960119	0	51797.066	51796.977	-1.6555286e-05	683388.3	106046.3	-0.00017706622	106047.164	683387.75	-7.525174e-05
0	0.5630238	0.5630228	-2.8017022e-10	0.010606581	0.010606581	0	51718.195	51718.1	-2.9117775e-05	683698.25	104534.26	-0.00027438335	104535.11	683697.7	-0.00016939864
0	0.56215644	0.5621554	-3.235479e-11	0.010253022	0.010253022	0	51638.516	51638.426	-3.5988821e-06	684008	103010.164	-0.0001843772	103010.99	684007.44	0.00012952689
0	0.56128025	0.56127924	-1.0689081e-10	0.009899454	0.009899454	0	51558.03	51557.945	-9.874486e-06	684317.4	101474.22	-0.00014766176	101475.03	684316.8	-2.8345862e-06
0	0.56038964	0.56038874	-2.0383449e-10	0.009545969	0.009545969	0	51476.22	51476.133	-2.3644689e-05	684631.7	99912.97	-0.00019446286	99913.75	684631.2	-0.0001659042
0	0.55948704	0.5594861	-5.406309e-10	0.009192402	0.009192402	0	51393.31	51393.23	-4.4539658e-05	684948.1	98333.02	-0.00039637642	98333.79	684947.6	-0.00028244941
0	0.55857116	0.5585702	-6.1307753e-10	0.0088388715	0.0088388715	0	51309.176	51309.1	-5.777938e-05	685267.44	96731.37	-0.0005283815	96732.086	685267	-0.00035222998
0	0.5576421	0.55764127	-3.3375194e-10	0.0084853005	0.0084853005	0	51223.832	51223.758	-2.843291e-05	685589.3	95108.87	-0.00037733174	95109.55	685588.94	-5.6012264e-05
0	0.55669826	0.5566974	-1.0932002e-10	0.008131742	0.008131742	0	51137.145	51137.07	-1.2120663e-05	685914.56	93462.38	-0.00011643787	93463.03	685914.2	-6.8292306e-05
0	0.5557403	0.5557396	-2.2823086e-10	0.0077781687	0.0077781687	0	51049.14	51049.074	-1.4237691e-05	686242.44	91793.375	-0.00015327425	91793.96	686242	-6.372141e-05
0	0.5547675	0.55476683	-2.7834268e-10	0.0074245995	0.0074245995	0	50959.78	50959.723	-2.1478289e-05	686572.9	90101.03	-0.00032625048	90101.58	686572.5	-1.0986328e-06
0	0.5537744	0.5537738	-4.33658e-10	0.007071043	0.007071043	0	50868.555	50868.5	-3.5820838e-05	686910.2	88373.43	-0.00035394155	88373.91	686909.8	-0.00019200135