//mumax 3.10 [windows_amd64 go1.11.6(gc) CUDA-11.0]
//GPU info: NVIDIA GeForce RTX 3090(24575MB), CUDA Driver 12.0, cc=8.6, using cc=80 PTX
//(c) Arne Vansteenkiste, Dynamat LAB, Ghent University, Belgium
//This is free software without any warranty. See license.txt
//********************************************************************//
//  If you use mumax in any work or publication,                      //
//  we kindly ask you to cite the references in references.bib        //
//********************************************************************//
//output directory: r1;p0.5;a5.12e-07;l3.0000000000000004e-07;s1.out/
randSeed(1)
ThermSeed(1)
resolution := 2e-09
zResolution := 5e-09
a := 5.12e-07
gridSize := 512
gridDepth := 5
SetCellsize(resolution, resolution, zResolution)
SetGridsize(gridSize, gridSize, gridDepth)
SetPBC(16, 16, 0)
//resizing...
Msat = 700e3
Aex = 13e-12
alpha = 0.2
Bmax := 0.1
Bstep := Bmax / 500.0
TableAdd(B_ext)
TableAdd(m_full)
islandWidth := 8e-08
islandLength := 3.0000000000000004e-07
ellipseConstant := 7.500000000000001e-08
hIsland := rect(islandLength-2*ellipseConstant, islandWidth)
hIsland = hIsland.add(ellipse(ellipseConstant*2, islandWidth).transl(islandLength/2-ellipseConstant, 0, 0))
hIsland = hIsland.add(ellipse(ellipseConstant*2, islandWidth).transl(-islandLength/2+ellipseConstant, 0, 0))
hIsland = hIsland.add(rect(6.000000000000001e-09, 8.6694629311726e-10).transl(-1.1349278393906271e-07, -3.4329874092122466e-08, 0))
hIsland = hIsland.add(rect(6.000000000000001e-09, 5.394936188202183e-09).transl(1.175747527781721e-07, -3.2930430861044814e-08, 0))
hIsland = hIsland.add(rect(6.000000000000001e-09, 2.2593660003340856e-09).transl(8.54461705137881e-09, -4e-08, 0))
hIsland = hIsland.sub(rect(6.000000000000001e-09, -1.1301359000430472e-09).transl(2.0135433633913923e-08, -4e-08, 0))
hIsland = hIsland.add(rect(6.000000000000001e-09, 9.006818883427693e-10).transl(-1.2957243740165007e-08, -4e-08, 0))
hIsland = hIsland.add(rect(6.000000000000001e-09, 3.393590112219512e-09).transl(-1.2235790592734032e-07, -3.101703042991705e-08, 0))
hIsland = hIsland.add(rect(6.000000000000001e-09, 6.86430061043597e-10).transl(2.2868085052587015e-08, -4e-08, 0))
hIsland = hIsland.add(rect(6.000000000000001e-09, 1.6566060276810467e-09).transl(9.254104868607072e-08, -3.889061258358974e-08, 0))
hIsland = hIsland.add(rect(6.000000000000001e-09, 7.122708038935937e-10).transl(-5.114280652739152e-08, -4e-08, 0))
hIsland = hIsland.sub(rect(6.000000000000001e-09, -2.367290840561778e-09).transl(-2.4823853715834036e-08, -4e-08, 0))
hIsland = hIsland.sub(rect(6.000000000000001e-09, -6.104818183487063e-10).transl(-9.720140220973076e-08, -3.820728582962463e-08, 0))
hIsland = hIsland.sub(rect(6.000000000000001e-09, -2.637088769903823e-09).transl(1.204897236323225e-07, -3.1802434764004047e-08, 0))
hIsland = hIsland.sub(rect(6.000000000000001e-09, -3.340242657145298e-09).transl(-3.9073047243429454e-08, -4e-08, 0))
hIsland = hIsland.sub(rect(6.000000000000001e-09, -3.1393667950967525e-10).transl(8.652998732072365e-08, -3.95244959831564e-08, 0))
hIsland = hIsland.sub(rect(6.000000000000001e-09, -1.0682687043716087e-09).transl(-1.1286001788978993e-08, -4e-08, 0))
hIsland = hIsland.sub(rect(6.000000000000001e-09, -1.7174009440814511e-09).transl(-1.1511131215342178e-07, -3.37987040375593e-08, 0))
hIsland = hIsland.sub(rect(6.000000000000001e-09, -1.917378132333699e-09).transl(-2.674359555014147e-08, -4e-08, 0))
hIsland = hIsland.add(rect(6.000000000000001e-09, 3.7622891764058094e-10).transl(-9.913423326045992e-08, -3.7872445699596635e-08, 0))
hIsland = hIsland.add(rect(6.000000000000001e-09, 1.5125327491848503e-09).transl(-1.2550846131200003e-07, -2.9569451315484267e-08, 0))
hIsland = hIsland.sub(rect(6.000000000000001e-09, -4.9691578398469e-10).transl(-2.2386528492827283e-08, -4e-08, 0))
hIsland = hIsland.sub(rect(6.000000000000001e-09, -1.0478990601503877e-09).transl(4.250093494491212e-08, -4e-08, 0))
hIsland = hIsland.add(rect(6.000000000000001e-09, 1.4804455357595311e-09).transl(3.476857864890116e-08, -4e-08, 0))
hIsland = hIsland.sub(rect(6.000000000000001e-09, -2.5562530162363914e-09).transl(-9.378101696421261e-08, -3.8725558468940975e-08, 0))
hIsland = hIsland.sub(rect(6.000000000000001e-09, -2.5250453042420373e-10).transl(-7.023171377162668e-08, -4e-08, 0))
hIsland = hIsland.sub(rect(6.000000000000001e-09, -1.1144950288352979e-09).transl(2.620674797039628e-08, -4e-08, 0))
hIsland = hIsland.sub(rect(6.000000000000001e-09, -1.6977141646459262e-10).transl(-3.969078816274193e-08, -4e-08, 0))
hIsland = hIsland.add(rect(6.000000000000001e-09, 9.081928612977242e-11).transl(9.766290593799668e-08, -3.8130135789280194e-08, 0))
hIsland = hIsland.add(rect(6.000000000000001e-09, 1.2532054256657156e-09).transl(-1.1905943908575544e-07, -3.237015174898085e-08, 0))
hIsland = hIsland.add(rect(6.000000000000001e-09, 2.54682794936097e-09).transl(1.3090666730391085e-08, -4e-08, 0))
hIsland = hIsland.add(rect(6.000000000000001e-09, 1.4632902395597336e-09).transl(1.3923899019223845e-07, -2.064456203902569e-08, 0))
hIsland = hIsland.sub(rect(6.000000000000001e-09, -9.414130507592214e-10).transl(-1.334409429200605e-07, -2.5070389457535206e-08, 0))
hIsland = hIsland.sub(rect(6.000000000000001e-09, -1.7049677878126806e-09).transl(1.8815325163146898e-08, -4e-08, 0))
hIsland = hIsland.add(rect(6.000000000000001e-09, 6.278126185465535e-10).transl(8.221676672078562e-08, -3.9814389905507877e-08, 0))
hIsland = hIsland.add(rect(6.000000000000001e-09, 2.232332104965157e-09).transl(-1.3062097876958657e-07, -2.6833116365635867e-08, 0))
hIsland = hIsland.sub(rect(6.000000000000001e-09, -1.84078256196311e-09).transl(-8.036478125404814e-08, -3.989753675572007e-08, 0))
hIsland = hIsland.sub(rect(6.000000000000001e-09, -6.726023800590287e-10).transl(7.624215337848161e-08, -3.9994513597019886e-08, 0))
hIsland = hIsland.sub(rect(6.000000000000001e-09, -1.4681077404285375e-09).transl(-1.208290471558194e-07, -3.166355773893457e-08, 0))
hIsland = hIsland.add(rect(6.000000000000001e-09, 1.8026925881268463e-09).transl(-5.7584767337019015e-08, -4e-08, 0))
hIsland = hIsland.sub(rect(6.000000000000001e-09, -1.108598082481107e-09).transl(-1.2412215540947207e-07, -3.022647009694731e-08, 0))
hIsland = hIsland.sub(rect(6.000000000000001e-09, -1.124826922460224e-09).transl(-1.0373726180986058e-07, -3.6947221585810925e-08, 0))
hIsland = hIsland.add(rect(6.000000000000001e-09, 2.1086831725147094e-09).transl(5.178000014386175e-08, -4e-08, 0))
hIsland = hIsland.sub(rect(6.000000000000001e-09, -1.4028621813135165e-09).transl(-1.0963314380871961e-07, -3.547987864160449e-08, 0))
hIsland = hIsland.add(rect(6.000000000000001e-09, 1.6524309093526906e-09).transl(-4.898177671680153e-08, -4e-08, 0))
hIsland = hIsland.sub(rect(6.000000000000001e-09, -1.2759126771569361e-09).transl(4.891829256500199e-08, -4e-08, 0))
hIsland = hIsland.sub(rect(6.000000000000001e-09, -9.676284838583188e-10).transl(1.3022801990212292e-07, -2.7063005691017135e-08, 0))
hIsland = hIsland.sub(rect(6.000000000000001e-09, -8.140039576688658e-10).transl(4.083943919506088e-08, -4e-08, 0))
hIsland = hIsland.add(rect(6.000000000000001e-09, 4.514644285714238e-10).transl(1.4433430899979317e-07, -1.5251408694624747e-08, 0))
hIsland = hIsland.sub(rect(6.000000000000001e-09, -1.4677498524997706e-09).transl(1.450874464274834e-07, -1.4238600213594244e-08, 0))
hIsland = hIsland.sub(rect(6.000000000000001e-09, -2.5480137629071225e-09).transl(-1.2393080288079536e-07, -3.031462411181977e-08, 0))
hIsland = hIsland.add(rect(6.000000000000001e-09, 4.453484021443995e-09).transl(-8.557751505069741e-08, -3.9600192772962066e-08, 0))
hIsland = hIsland.add(rect(6.000000000000001e-09, 4.798102762285815e-10).transl(1.1183714172281547e-07, -3.484273234217275e-08, 0))
hIsland = hIsland.sub(rect(6.000000000000001e-09, -2.1844712353791418e-09).transl(-7.636292954027356e-08, -3.999339473665164e-08, 0))
hIsland = hIsland.sub(rect(6.000000000000001e-09, -3.158101944811446e-10).transl(-7.127652316792385e-08, -4e-08, 0))
hIsland = hIsland.add(rect(6.000000000000001e-09, 2.3074819144998902e-09).transl(6.21009351374237e-08, -4e-08, 0))
hIsland = hIsland.add(rect(6.000000000000001e-09, 7.798038738635076e-10).transl(8.646995481821662e-09, -4e-08, 0))
hIsland = hIsland.sub(rect(6.000000000000001e-09, -2.033928628014853e-10).transl(-5.339708847269108e-08, -4e-08, 0))
hIsland = hIsland.add(rect(6.000000000000001e-09, 2.0253775242411502e-09).transl(-1.450782469537083e-07, -1.4251474067896735e-08, 0))
hIsland = hIsland.add(rect(6.000000000000001e-09, 2.9707034183277734e-09).transl(5.2596786593368386e-08, -4e-08, 0))
hIsland = hIsland.add(rect(6.000000000000001e-09, 1.727035266460964e-10).transl(-8.836048096045293e-08, -3.93602079434629e-08, 0))
hIsland = hIsland.sub(rect(6.000000000000001e-09, -1.7481064660413706e-10).transl(-1.1339934390205354e-07, -3.4359626490343235e-08, 0))
hIsland = hIsland.sub(rect(6.000000000000001e-09, -1.50664943684446e-10).transl(1.1006013476773526e-07, -3.53603899428202e-08, 0))
hIsland = hIsland.sub(rect(6.000000000000001e-09, -1.7571081824518846e-09).transl(-5.44578921539507e-08, -4e-08, 0))
hIsland = hIsland.sub(rect(6.000000000000001e-09, -3.564064167249423e-09).transl(-2.7933027123168128e-08, -4e-08, 0))
hIsland = hIsland.add(rect(6.000000000000001e-09, 3.4609541118861898e-09).transl(1.115360105642409e-07, -3.493280379059071e-08, 0))
hIsland = hIsland.add(rect(6.000000000000001e-09, 2.153051665254026e-09).transl(1.4376193965729437e-07, -1.5971491531581872e-08, 0))
hIsland = hIsland.sub(rect(6.000000000000001e-09, -7.336618764714234e-11).transl(6.100696671729714e-08, -4e-08, 0))
hIsland = hIsland.sub(rect(6.000000000000001e-09, -1.1653724660374683e-09).transl(1.1775503443048605e-07, -3.2863924833184426e-08, 0))
hIsland = hIsland.sub(rect(6.000000000000001e-09, -1.9369362852981627e-09).transl(3.5471265372610424e-08, -4e-08, 0))
hIsland = hIsland.sub(rect(6.000000000000001e-09, -1.051970393841979e-09).transl(-5.172354054895036e-08, -4e-08, 0))
hIsland = hIsland.add(rect(6.000000000000001e-09, 3.5997927993169723e-09).transl(1.1491144787848158e-07, -3.3865937328601234e-08, 0))
hIsland = hIsland.sub(rect(6.000000000000001e-09, -2.5126193789047406e-09).transl(1.1875060977659614e-08, -4e-08, 0))
hIsland = hIsland.add(rect(6.000000000000001e-09, 5.992419434133776e-11).transl(6.645896595735828e-08, -4e-08, 0))
hIsland = hIsland.add(rect(6.000000000000001e-09, 9.280937790451321e-10).transl(5.648134186371921e-08, -4e-08, 0))
hIsland = hIsland.add(rect(6.000000000000001e-09, 3.6164270622983984e-10).transl(6.643867693382822e-08, -4e-08, 0))
hIsland = hIsland.sub(rect(6.000000000000001e-09, -1.8536473899197823e-10).transl(1.3533895948449218e-08, -4e-08, 0))
hIsland = hIsland.sub(rect(6.000000000000001e-09, -2.6273048384135063e-09).transl(1.0155329003531868e-07, -3.7409152679894067e-08, 0))
hIsland = hIsland.add(rect(6.000000000000001e-09, 6.54855814808408e-10).transl(-8.03698851095443e-08, -3.989734145251947e-08, 0))
hIsland = hIsland.add(rect(6.000000000000001e-09, 6.497628905396994e-10).transl(4.554855019400852e-08, -4e-08, 0))
hIsland = hIsland.sub(rect(6.000000000000001e-09, -7.876754070396054e-10).transl(1.0963545033702965e-07, -3.547923819280315e-08, 0))
hIsland = hIsland.add(rect(6.000000000000001e-09, 2.6930457510178013e-09).transl(-1.4406228701784107e-07, -1.5598523115187246e-08, 0))
hIsland = hIsland.add(rect(6.000000000000001e-09, 3.1666548912512506e-09).transl(-1.0325849538780306e-07, -3.705211201410017e-08, 0))
hIsland = hIsland.add(rect(6.000000000000001e-09, 2.8487977214518063e-09).transl(1.4429610797809692e-07, -1.5300713537701114e-08, 0))
hIsland = hIsland.add(rect(6.000000000000001e-09, 1.340611812936211e-09).transl(2.8408441184508112e-08, -4e-08, 0))
hIsland = hIsland.sub(rect(6.000000000000001e-09, -8.536830556396265e-10).transl(1.0917975352390201e-07, -3.560472158070548e-08, 0))
hIsland = hIsland.add(rect(6.000000000000001e-09, 8.963414028787113e-10).transl(-4.856672193302116e-08, -4e-08, 0))
hIsland = hIsland.add(rect(6.000000000000001e-09, 5.614447103510301e-11).transl(9.796836376409454e-08, -3.80781111240224e-08, 0))
hIsland = hIsland.sub(rect(6.000000000000001e-09, -1.7020684232310126e-09).transl(1.4297128707312716e-07, -1.6906785561075436e-08, 0))
hIsland = hIsland.add(rect(6.000000000000001e-09, 8.449013664550039e-11).transl(2.5835295309802093e-08, -4e-08, 0))
hIsland = hIsland.sub(rect(6.000000000000001e-09, -3.097288758640519e-09).transl(4.651951220964023e-08, -4e-08, 0))
hIsland = hIsland.sub(rect(6.000000000000001e-09, -2.4267177913576854e-09).transl(1.2738058000516704e-07, -2.8628004133685994e-08, 0))
hIsland = hIsland.sub(rect(6.000000000000001e-09, -3.51588530446543e-10).transl(-4.372690095218458e-08, -4e-08, 0))
hIsland = hIsland.sub(rect(6.000000000000001e-09, -1.0905879271302368e-09).transl(1.4899396574273696e-07, -6.529643228099935e-09, 0))
hIsland = hIsland.add(rect(6.000000000000001e-09, 3.0826496242101636e-10).transl(-5.504933608898025e-08, -4e-08, 0))
hIsland = hIsland.sub(rect(6.000000000000001e-09, -1.3615719869556543e-09).transl(-9.039651886112126e-08, -3.914807338783721e-08, 0))
hIsland = hIsland.sub(rect(6.000000000000001e-09, -2.1070083473552497e-09).transl(6.097304429822765e-08, -4e-08, 0))
hIsland = hIsland.sub(rect(6.000000000000001e-09, -2.3245571996774476e-09).transl(-1.3361218240316907e-07, -2.4956421817240546e-08, 0))
hIsland = hIsland.add(rect(6.000000000000001e-09, 2.9505611983066796e-09).transl(3.6731613348481676e-08, -4e-08, 0))
hIsland = hIsland.sub(rect(6.000000000000001e-09, -5.452351604726726e-10).transl(-4.107611832365773e-08, -4e-08, 0))
hIsland = hIsland.sub(rect(6.000000000000001e-09, -2.0980500234142802e-10).transl(1.1947908898594668e-07, -3.220649217856102e-08, 0))
hIsland = hIsland.add(rect(6.000000000000001e-09, 1.7787474129657816e-09).transl(1.4676280444666033e-07, -1.1624952753801243e-08, 0))
hIsland = hIsland.add(rect(6.000000000000001e-09, 1.081095271244014e-09).transl(7.601956844797718e-08, 3.999630375875101e-08, 0))
hIsland = hIsland.sub(rect(6.000000000000001e-09, -3.305703244104321e-09).transl(-2.5842680603054377e-08, 4e-08, 0))
hIsland = hIsland.sub(rect(6.000000000000001e-09, -3.2805351761635148e-09).transl(8.622657341768649e-08, 3.954933342070814e-08, 0))
hIsland = hIsland.add(rect(6.000000000000001e-09, 7.520515472411288e-10).transl(5.2648522156408045e-09, 4e-08, 0))
hIsland = hIsland.add(rect(6.000000000000001e-09, 7.041386408135439e-11).transl(-2.098491304799106e-08, 4e-08, 0))
hIsland = hIsland.add(rect(6.000000000000001e-09, 1.8253110200888032e-09).transl(7.063496441462051e-08, 4e-08, 0))
hIsland = hIsland.add(rect(6.000000000000001e-09, 1.126404566685085e-09).transl(1.0810694403490203e-07, 3.589190787330892e-08, 0))
hIsland = hIsland.sub(rect(6.000000000000001e-09, -2.024992278223015e-11).transl(-7.718570269837626e-08, 3.9983010449590594e-08, 0))
hIsland = hIsland.sub(rect(6.000000000000001e-09, -2.744943113138787e-09).transl(7.382891761370434e-08, 4e-08, 0))
hIsland = hIsland.sub(rect(6.000000000000001e-09, -1.976850869444118e-09).transl(3.3261219761241185e-08, 4e-08, 0))
hIsland = hIsland.add(rect(6.000000000000001e-09, 3.796147318457516e-11).transl(2.6877061509850114e-08, 4e-08, 0))
hIsland = hIsland.sub(rect(6.000000000000001e-09, -1.2127284982723772e-09).transl(1.2926152564718805e-07, 2.76135198290927e-08, 0))
hIsland = hIsland.add(rect(6.000000000000001e-09, 2.5500836440654414e-09).transl(-7.28122753773253e-08, 4e-08, 0))
hIsland = hIsland.add(rect(6.000000000000001e-09, 4.166722826313014e-10).transl(8.024603201411594e-08, 3.990202810099533e-08, 0))
hIsland = hIsland.sub(rect(6.000000000000001e-09, -1.728674892187898e-10).transl(7.662815974945624e-08, 3.9990573452204464e-08, 0))
hIsland = hIsland.add(rect(6.000000000000001e-09, 5.468469091187706e-09).transl(-2.2092189839189694e-08, 4e-08, 0))
hIsland = hIsland.add(rect(6.000000000000001e-09, 5.305802810322923e-10).transl(1.4059098764643794e-07, 1.9397666495643694e-08, 0))
hIsland = hIsland.sub(rect(6.000000000000001e-09, -2.5579485143212245e-10).transl(1.263887660907913e-07, 2.9134817815620936e-08, 0))
hIsland = hIsland.add(rect(6.000000000000001e-09, 4.598981065327143e-09).transl(1.116394640372946e-07, 3.49019693302272e-08, 0))
hIsland = hIsland.sub(rect(6.000000000000001e-09, -4.211913950905564e-09).transl(-3.4426440299879403e-08, 4e-08, 0))
hIsland = hIsland.add(rect(6.000000000000001e-09, 3.3546529545879352e-09).transl(1.473941404009323e-07, 1.0452359622814927e-08, 0))
hIsland = hIsland.sub(rect(6.000000000000001e-09, -2.0768658819459543e-09).transl(-8.341779925612255e-08, 3.974725717797683e-08, 0))
hIsland = hIsland.add(rect(6.000000000000001e-09, 4.446986081437382e-10).transl(1.328933627481553e-07, 2.542919994210263e-08, 0))
hIsland = hIsland.add(rect(6.000000000000001e-09, 1.325865471232502e-09).transl(1.0391753960100316e-07, 3.69071903755691e-08, 0))
hIsland = hIsland.add(rect(6.000000000000001e-09, 8.399530600774549e-10).transl(4.377354508489107e-08, 4e-08, 0))
hIsland = hIsland.add(rect(6.000000000000001e-09, 5.67380995323378e-10).transl(1.610685153630488e-08, 4e-08, 0))
hIsland = hIsland.add(rect(6.000000000000001e-09, 2.2879515531271925e-09).transl(-9.171488350938772e-08, 3.8993971661335114e-08, 0))
hIsland = hIsland.add(rect(6.000000000000001e-09, 4.1042198510810394e-10).transl(1.4805535717931506e-07, 9.0496277133428e-09, 0))
hIsland = hIsland.sub(rect(6.000000000000001e-09, -1.3505775102090879e-09).transl(6.209576911049408e-08, 4e-08, 0))
hIsland = hIsland.add(rect(6.000000000000001e-09, 3.185063970293734e-11).transl(1.103950163725058e-07, 3.526536482936594e-08, 0))
hIsland = hIsland.add(rect(6.000000000000001e-09, 9.089739900148158e-10).transl(3.670527385747363e-08, 4e-08, 0))
hIsland = hIsland.add(rect(6.000000000000001e-09, 2.9986956794616384e-09).transl(-3.472725200523933e-08, 4e-08, 0))
hIsland = hIsland.add(rect(6.000000000000001e-09, 4.0525258774734587e-11).transl(-7.977537579660282e-09, 4e-08, 0))
hIsland = hIsland.sub(rect(6.000000000000001e-09, -2.469060922472114e-10).transl(-2.6536049639037243e-08, 4e-08, 0))
hIsland = hIsland.add(rect(6.000000000000001e-09, 9.603685434066375e-11).transl(8.598196194727419e-08, 3.9568864120639764e-08, 0))
hIsland = hIsland.add(rect(6.000000000000001e-09, 1.3012626799600022e-09).transl(-1.376309088920661e-07, 2.2005214744251266e-08, 0))
hIsland = hIsland.add(rect(6.000000000000001e-09, 3.753355061523388e-09).transl(-9.742059549999186e-08, 3.817086040629234e-08, 0))
hIsland = hIsland.sub(rect(6.000000000000001e-09, -1.1535441458522095e-09).transl(1.3623196501274054e-07, 2.3097991589787416e-08, 0))
hIsland = hIsland.sub(rect(6.000000000000001e-09, -5.683188290038596e-09).transl(4.477215845592402e-08, 4e-08, 0))
hIsland = hIsland.sub(rect(6.000000000000001e-09, -1.2663256545477644e-10).transl(1.3097351394782508e-07, 2.6623782778668532e-08, 0))
hIsland = hIsland.add(rect(6.000000000000001e-09, 2.045667526209677e-09).transl(1.2913759341023297e-07, 2.7682625333422195e-08, 0))
hIsland = hIsland.add(rect(6.000000000000001e-09, 1.6040334152387384e-10).transl(-2.596768531323136e-08, 4e-08, 0))
hIsland = hIsland.sub(rect(6.000000000000001e-09, -3.1004249333872527e-09).transl(6.737531098354283e-08, 4e-08, 0))
hIsland = hIsland.sub(rect(6.000000000000001e-09, -9.100585363421789e-10).transl(-3.561805707916892e-08, 4e-08, 0))
hIsland = hIsland.add(rect(6.000000000000001e-09, 3.0459866713527534e-09).transl(4.830953229132119e-08, 4e-08, 0))
hIsland = hIsland.sub(rect(6.000000000000001e-09, -4.1556192422775845e-10).transl(3.6988551488502006e-08, 4e-08, 0))
hIsland = hIsland.add(rect(6.000000000000001e-09, 1.2227766340434605e-09).transl(-3.88433170306258e-08, 4e-08, 0))
hIsland = hIsland.sub(rect(6.000000000000001e-09, -2.8164264966196074e-09).transl(-9.49304528414731e-08, 3.8561796360310596e-08, 0))
hIsland = hIsland.sub(rect(6.000000000000001e-09, -2.263020046284529e-09).transl(-7.8562013392099e-08, 3.995486185841042e-08, 0))
hIsland = hIsland.add(rect(6.000000000000001e-09, 3.515883036925719e-09).transl(-2.010727680547365e-08, 4e-08, 0))
hIsland = hIsland.sub(rect(6.000000000000001e-09, -6.346387539954309e-10).transl(-2.7721365708261277e-09, 4e-08, 0))
hIsland = hIsland.add(rect(6.000000000000001e-09, 8.692057730238087e-10).transl(2.6492307963559957e-08, 4e-08, 0))
hIsland = hIsland.add(rect(6.000000000000001e-09, 2.4077648622606963e-09).transl(3.146006398375747e-08, 4e-08, 0))
hIsland = hIsland.sub(rect(6.000000000000001e-09, -1.6864639378210256e-10).transl(1.0910155958510607e-07, 3.562604244508419e-08, 0))
hIsland = hIsland.sub(rect(6.000000000000001e-09, -7.183211949828248e-10).transl(-1.1472916156457136e-07, 3.3926849293284316e-08, 0))
hIsland = hIsland.sub(rect(6.000000000000001e-09, -1.5796690303792427e-09).transl(-6.453346706992715e-08, 4e-08, 0))
hIsland = hIsland.add(rect(6.000000000000001e-09, 3.5808864437014367e-09).transl(-1.447785804362232e-07, 1.4663754496877143e-08, 0))
hIsland = hIsland.sub(rect(6.000000000000001e-09, -2.443502143368544e-09).transl(3.8328602254188245e-08, 4e-08, 0))
hIsland = hIsland.add(rect(6.000000000000001e-09, 2.7621355787628243e-09).transl(-3.109305714860417e-09, 4e-08, 0))
hIsland = hIsland.sub(rect(6.000000000000001e-09, -1.4804655135479466e-09).transl(-1.708609865720001e-08, 4e-08, 0))
hIsland = hIsland.add(rect(6.000000000000001e-09, 4.2932353974555074e-10).transl(-2.734418456860095e-08, 4e-08, 0))
hIsland = hIsland.add(rect(6.000000000000001e-09, 2.584686593630239e-09).transl(-8.201048826761481e-08, 3.982487193099177e-08, 0))
hIsland = hIsland.add(rect(6.000000000000001e-09, 3.1077270053324326e-10).transl(-9.060228960864513e-08, 3.9124893341648e-08, 0))
hIsland = hIsland.sub(rect(6.000000000000001e-09, -7.789147919332241e-10).transl(-1.1971738233036312e-07, 3.211249434384541e-08, 0))
hIsland = hIsland.sub(rect(6.000000000000001e-09, -1.5575100748503022e-09).transl(-1.2877376997882304e-07, 2.788360142408967e-08, 0))
hIsland = hIsland.add(rect(6.000000000000001e-09, 1.0857969915483358e-09).transl(6.51509457936787e-08, 4e-08, 0))
hIsland = hIsland.add(rect(6.000000000000001e-09, 9.492429754704528e-10).transl(5.756947268977961e-08, 4e-08, 0))
hIsland = hIsland.add(rect(6.000000000000001e-09, 1.4839079874541517e-09).transl(6.812938522804034e-08, 4e-08, 0))
hIsland = hIsland.sub(rect(6.000000000000001e-09, -5.0737626352376675e-09).transl(-5.622336260731074e-08, 4e-08, 0))
hIsland = hIsland.add(rect(6.000000000000001e-09, 3.555187409348953e-09).transl(9.605602979609423e-08, 3.8391271634779083e-08, 0))
hIsland = hIsland.add(rect(6.000000000000001e-09, 2.6486453910577906e-09).transl(5.047150536859979e-08, 4e-08, 0))
hIsland = hIsland.sub(rect(6.000000000000001e-09, -3.546154736143369e-09).transl(5.62643524063178e-08, 4e-08, 0))
hIsland = hIsland.sub(rect(6.000000000000001e-09, -2.891172003974336e-09).transl(7.449956060436751e-08, 4e-08, 0))
hIsland = hIsland.add(rect(6.000000000000001e-09, 1.80570211622289e-09).transl(-8.331745830144793e-08, 3.9753265291117085e-08, 0))
hIsland = hIsland.sub(rect(6.000000000000001e-09, -1.8144873867943984e-09).transl(-6.19807105565571e-08, 4e-08, 0))
hIsland = hIsland.add(rect(6.000000000000001e-09, 9.096304857366256e-10).transl(1.3503910349063957e-07, 2.3972167874023084e-08, 0))
hIsland = hIsland.add(rect(6.000000000000001e-09, 5.7294128627585666e-09).transl(5.3458884609100736e-08, 4e-08, 0))
hIsland = hIsland.sub(rect(6.000000000000001e-09, -3.516850327969552e-10).transl(-1.4940726722722469e-07, 5.018963753909622e-09, 0))
hIsland = hIsland.add(rect(6.000000000000001e-09, 6.256145616192377e-09).transl(1.2000955984636246e-07, 3.199617542672179e-08, 0))
hIsland = hIsland.add(rect(6.000000000000001e-09, 8.49353604613667e-10).transl(-4.3439032797439545e-09, 4e-08, 0))
hIsland = hIsland.add(rect(6.000000000000001e-09, 6.434681242228227e-10).transl(3.9412396362861996e-08, 4e-08, 0))
hIsland = hIsland.add(rect(6.000000000000001e-09, 7.674730655414222e-10).transl(3.1844127387997353e-09, 4e-08, 0))
hIsland = hIsland.sub(rect(6.000000000000001e-09, -3.3880182290621037e-10).transl(-7.191130114298793e-08, 4e-08, 0))
hIsland = hIsland.sub(rect(6.000000000000001e-09, -1.398235804021463e-09).transl(8.726869365364589e-09, 4e-08, 0))
hIsland = hIsland.add(rect(6.000000000000001e-09, 1.0431071395419616e-09).transl(-2.3178711232701215e-08, 4e-08, 0))
hIsland = hIsland.add(rect(6.000000000000001e-09, 9.329592403399416e-10).transl(-1.337723290036472e-07, 2.484906025347359e-08, 0))
hIsland = hIsland.add(rect(6.000000000000001e-09, 1.7490824801980215e-09).transl(1.237197794817825e-07, 3.041114690254035e-08, 0))
hIsland = hIsland.sub(rect(6.000000000000001e-09, -1.2580893775570055e-09).transl(7.171847402446563e-08, 4e-08, 0))
hIsland = hIsland.add(rect(6.000000000000001e-09, 2.338071243228081e-09).transl(-1.181974739986088e-07, 3.269893694289221e-08, 0))
hIsland = hIsland.sub(rect(6.000000000000001e-09, -4.628387761952454e-10).transl(-8.542907381676972e-08, 3.961139021582104e-08, 0))
hIsland = hIsland.add(rect(6.000000000000001e-09, 9.109758176558334e-10).transl(-4.6349988751477914e-08, 4e-08, 0))
hIsland = hIsland.add(rect(6.000000000000001e-09, 7.514295192023046e-10).transl(-8.27126538754465e-08, 3.978793553007097e-08, 0))
hIsland = hIsland.sub(rect(6.000000000000001e-09, -2.096431219169123e-09).transl(-1.0508703668869244e-07, 3.664031139428386e-08, 0))
hIsland = hIsland.add(rect(6.000000000000001e-09, 1.3021064594781259e-09).transl(-3.8504534028631504e-08, 4e-08, 0))
hIsland = hIsland.add(rect(6.000000000000001e-09, 1.3902132509975954e-10).transl(1.256952961659523e-07, 2.9478366047389053e-08, 0))
hIsland = hIsland.sub(rect(6.000000000000001e-09, -1.5277067453333265e-09).transl(-3.7417953827583945e-08, 4e-08, 0))
hIsland = hIsland.add(rect(6.000000000000001e-09, 5.246247106491098e-10).transl(1.0980629180503676e-07, 3.5431650085455675e-08, 0))
hIsland = hIsland.add(rect(6.000000000000001e-09, 4.875489262410389e-10).transl(-1.2072325243094112e-07, 3.170703307727252e-08, 0))
hIsland = hIsland.sub(rect(6.000000000000001e-09, -3.0087628597624724e-09).transl(1.4640900633055844e-07, 1.2228971820587942e-08, 0))
hIsland = hIsland.add(rect(6.000000000000001e-09, 8.667467238282832e-10).transl(-1.3225129486942439e-08, 4e-08, 0))
vIsland := hIsland.rotz(pi / 2)
vIslands := Universe().Inverse()
hIslands := Universe().Inverse()
hIslands = hIslands.add(hIsland.transl(-a/2, a, 0))
hIslands = hIslands.add(hIsland.transl(-a/2, -a, 0))
hIslands = hIslands.add(hIsland.transl(a/2, a, 0))
hIslands = hIslands.add(hIsland.transl(a/2, -a, 0))
hIslands = hIslands.add(hIsland.transl(-a/2, 0, 0))
hIslands = hIslands.add(hIsland.transl(a/2, 0, 0))
vIslands = vIslands.add(vIsland.transl(-a, a/2, 0))
vIslands = vIslands.add(vIsland.transl(a, a/2, 0))
vIslands = vIslands.add(vIsland.transl(-a, -a/2, 0))
vIslands = vIslands.add(vIsland.transl(a, -a/2, 0))
vIslands = vIslands.add(vIsland.transl(0, a/2, 0))
vIslands = vIslands.add(vIsland.transl(0, -a/2, 0))
DefRegion(1, hIslands)
DefRegion(2, vIslands)
TableAdd(m_full.Region(1))
TableAdd(m_full.Region(2))
setgeom(hIslands.add(vIslands))
save(m)
r2o2 := sqrt(2) / 2
m = RandomMagSeed(4)
B_ext = vector(Bmax*r2o2, Bmax*r2o2, 0)
relax()
minimize()
for B := Bmax; B >= -Bmax; B -= Bstep {
	B_ext = vector(B*r2o2, B*r2o2, 0)
	minimize()
	tablesave()
}
//********************************************************************//
//Please cite the following references, relevant for your simulation. //
//See bibtex file in output folder for justification.                 //
//********************************************************************//
//   * Vansteenkiste et al., AIP Adv. 4, 107133 (2014).
//   * Exl et al., J. Appl. Phys. 115, 17D118 (2014).
