# t (s)	mx ()	my ()	mz ()	B_extx (T)	B_exty (T)	B_extz (T)	m_fullx (A/m)	m_fully (A/m)	m_fullz (A/m)	m_full.region1x (A/m)	m_full.region1y (A/m)	m_full.region1z (A/m)	m_full.region2x (A/m)	m_full.region2y (A/m)	m_full.region2z (A/m)
0	0.63620996	0.63620985	-1.877193e-10	0.07071035	0.07071035	0	31845.012	31845.008	-1.0803303e-05	641815.75	248878.19	-0.00011735033	248878.11	641815.7	-0.00016648028
0	0.63593996	0.6359395	-2.5290778e-10	0.07035735	0.07035735	0	31831.502	31831.48	-1.0968609e-05	642000.5	248315.14	-0.00019060836	248315.44	642000.25	-8.7635286e-05
0	0.6356644	0.63566405	-1.6484467e-10	0.07000352	0.07000352	0	31817.709	31817.684	-1.1436761e-05	642190.25	247739.66	-0.00012429652	247739.95	642189.94	-0.00012655967
0	0.6353879	0.6353874	-2.5118962e-10	0.06964972	0.06964972	0	31803.87	31803.844	-1.0451885e-05	642379.44	247163.23	-0.00019440611	247163.6	642379.2	-0.00012371631
0	0.6351095	0.635109	-2.1031796e-10	0.06929681	0.06929681	0	31789.934	31789.902	-1.0738539e-05	642569.6	246583.3	-0.00010609652	246583.6	642569.3	-0.0002240249
0	0.63482934	0.6348288	-3.1821085e-10	0.068943016	0.068943016	0	31775.906	31775.883	-1.7021566e-05	642759.7	246000.95	-0.00022977938	246001.23	642759.44	-0.00022187558
0	0.63454914	0.63454866	-2.182543e-10	0.068589196	0.068589196	0	31761.883	31761.857	-8.501824e-06	642949.4	245419.08	-0.00015422393	245419.44	642949	-5.4920933e-05
0	0.6342664	0.63426596	-2.262696e-10	0.06823614	0.06823614	0	31747.732	31747.709	-1.2105178e-05	643139.9	244832.73	-0.00015001232	244833.08	643139.56	-0.00019559803
0	0.6339827	0.6339823	-3.033136e-10	0.06788247	0.06788247	0	31733.533	31733.512	-1.4912163e-05	643330	244245.48	-0.0002736045	244245.83	643329.6	-0.00016504922
0	0.633697	0.6336965	-4.2994394e-10	0.06752808	0.06752808	0	31719.229	31719.203	-1.9261155e-05	643520.75	243654.61	-0.00024099852	243654.94	643520.5	-0.00025618417
0	0.63341016	0.6334096	-1.5457717e-10	0.06717558	0.06717558	0	31704.873	31704.844	-8.154072e-06	643711.4	243062.39	-8.7162385e-05	243062.72	643711.1	-8.017767e-05
0	0.63312095	0.6331204	-2.7774902e-10	0.06682197	0.06682197	0	31690.395	31690.373	-1.3100591e-05	643902.44	242466.53	-0.00019914185	242466.89	643902.06	-0.00012040464
0	0.63283235	0.63283193	-1.3166675e-10	0.06646759	0.06646759	0	31675.95	31675.928	-6.00883e-06	644092.75	241872.23	-5.6256624e-05	241872.61	644092.4	-7.985799e-05
0	0.63253945	0.6325389	-1.2894845e-10	0.06611506	0.06611506	0	31661.291	31661.268	-6.7091028e-06	644284.4	241270.6	-0.00011353384	241270.9	644284	-8.720838e-06
0	0.63224804	0.63224745	-2.00274e-10	0.065761305	0.065761305	0	31646.7	31646.678	-1.0942384e-05	644475.3	240671.55	-0.00013688352	240671.89	644474.94	-0.0001415024
0	0.6319548	0.6319542	-2.3771646e-10	0.065407045	0.065407045	0	31632.021	31631.998	-1.12844855e-05	644666.1	240070.16	-0.00014620193	240070.5	644665.75	-0.00019699612
0	0.6316588	0.6316583	-3.2413205e-10	0.06505334	0.06505334	0	31617.209	31617.186	-1.6656142e-05	644857.6	239464.3	-0.00030131705	239464.67	644857.3	-0.00016457481
0	0.6313616	0.63136107	-3.0150005e-10	0.064700775	0.064700775	0	31602.33	31602.305	-1.2961964e-05	645049.06	238856.73	-0.00019912669	238857.08	645048.75	-0.00018471268
0	0.63106054	0.63106	-3.2807101e-10	0.064346395	0.064346395	0	31587.268	31587.242	-1.4256322e-05	645241.5	238242.92	-0.00019923162	238243.27	645241.2	-0.00021445082
0	0.63076234	0.6307618	-3.035264e-10	0.06399281	0.06399281	0	31572.336	31572.31	-1.3588291e-05	645432.6	237634.16	-0.0002042387	237634.55	645432.3	-0.00020054041
0	0.6304599	0.6304595	-2.477404e-10	0.06363959	0.06363959	0	31557.205	31557.176	-1.2807169e-05	645624.44	237019.14	-0.0001395228	237019.48	645624.1	-0.00016114043
0	0.6301558	0.63015527	-5.1917537e-12	0.06328585	0.06328585	0	31541.973	31541.95	-1.3129359e-06	645817.6	236400.08	2.0441372e-05	236400.44	645817.25	-4.794442e-05
0	0.6298514	0.6298508	-2.8641914e-10	0.06293233	0.06293233	0	31526.742	31526.715	-1.4118808e-05	646009.4	235782.16	-0.00019318111	235782.53	646009.06	-0.00017247033
0	0.6295458	0.62954533	-2.2453356e-10	0.06257907	0.06257907	0	31511.447	31511.414	-9.607094e-06	646200.6	235163.06	-0.00015989963	235163.42	646200.3	-0.00012351472
0	0.6292356	0.629235	-3.3355183e-10	0.062225346	0.062225346	0	31495.916	31495.893	-1.5895335e-05	646393.6	234535.8	-0.0002215308	234536.22	646393.25	-0.0002495799
0	0.6289264	0.628926	-5.2431476e-11	0.06187167	0.06187167	0	31480.445	31480.416	-3.964979e-06	646585.7	233910.92	-7.506525e-05	233911.31	646585.3	1.8245714e-06
0	0.6286151	0.62861454	-3.305163e-10	0.061518516	0.061518516	0	31464.861	31464.83	-1.7457493e-05	646779.06	233281.66	-0.0002447877	233282.05	646778.7	-0.00027651
0	0.6283036	0.628303	-2.2259329e-10	0.061164852	0.061164852	0	31449.264	31449.232	-1.07831565e-05	646970.44	232654.12	-0.0001290541	232654.52	646970.06	-0.00022940512
0	0.62798905	0.6279885	-3.0132977e-10	0.060811155	0.060811155	0	31433.525	31433.498	-1.6318514e-05	647162.94	232021.42	-0.0002062901	232021.81	647162.5	-0.00024061537
0	0.62767154	0.627671	-2.8878405e-10	0.06045782	0.06045782	0	31417.63	31417.6	-1.4935182e-05	647356.9	231382.83	-0.0002263139	231383.23	647356.5	-0.00017418058
0	0.62735415	0.62735367	-1.9139663e-10	0.060104296	0.060104296	0	31401.744	31401.717	-1.0891317e-05	647549.6	230745.89	-0.00014522641	230746.3	647549.2	-0.00012776515
0	0.6270354	0.6270348	-3.403226e-10	0.059749953	0.059749953	0	31385.791	31385.762	-1.6412176e-05	647741.75	230107.47	-0.00024964317	230107.88	647741.3	-0.00024935618
0	0.6267127	0.626712	-2.052845e-10	0.059397247	0.059397247	0	31369.633	31369.604	-1.1240347e-05	647936	229461.27	-0.00014080886	229461.7	647935.56	-0.00018253182
0	0.6263909	0.6263904	-1.7224863e-10	0.059043795	0.059043795	0	31353.531	31353.502	-9.263964e-06	648128.44	228818.44	-0.00012115558	228818.83	648128.06	-0.000106845095
0	0.62606645	0.6260659	-1.5155018e-10	0.058689456	0.058689456	0	31337.29	31337.258	-9.995398e-06	648321.56	228171.02	-0.00013893223	228171.44	648321.2	-8.529235e-05
0	0.62573975	0.62573916	-2.0268123e-10	0.05833672	0.05833672	0	31320.934	31320.908	-9.862698e-06	648515.1	227520.11	-0.00023227028	227520.55	648514.7	-4.3246164e-05
0	0.62541324	0.6254127	-2.7509722e-10	0.057983108	0.057983108	0	31304.594	31304.564	-1.2751142e-05	648707.1	226871.05	-0.00026393455	226871.47	648706.6	-9.9090816e-05
0	0.6250826	0.625082	-1.2753097e-10	0.05762891	0.05762891	0	31288.045	31288.014	-5.673041e-06	648901.6	226213.64	-9.642453e-05	226214.06	648901.25	-4.9585564e-05
0	0.624752	0.6247515	-8.017481e-11	0.05727533	0.05727533	0	31271.498	31271.467	-2.8135717e-06	649094.3	225558.03	-5.522526e-05	225558.45	649093.94	-0.000107106236
0	0.62441915	0.6244185	-2.583783e-10	0.05692256	0.05692256	0	31254.83	31254.797	-1.4424554e-05	649287.7	224898.64	-0.00021139739	224899.06	649287.2	-0.00012768856
0	0.62408286	0.62408215	-3.091655e-10	0.056568235	0.056568235	0	31238.002	31237.973	-1.6243202e-05	649482.3	224233.22	-0.00024386116	224233.64	649481.9	-0.0002195873
0	0.62374765	0.623747	-2.0085318e-10	0.056214813	0.056214813	0	31221.219	31221.19	-1.1991121e-05	649674.6	223571.64	-8.7995955e-05	223572.06	649674.2	-0.0002363314
0	0.62340873	0.6234081	-8.635639e-11	0.055861287	0.055861287	0	31204.258	31204.229	-5.2633814e-06	649869.2	222902.55	-0.00011390957	222903	649868.75	-2.1583646e-05
0	0.62306947	0.62306887	-1.3222816e-10	0.055507686	0.055507686	0	31187.277	31187.244	-8.58408e-06	650061.94	222234.9	-0.000107789165	222235.31	650061.56	-7.929158e-05
0	0.6227271	0.6227265	-3.1424488e-10	0.055154335	0.055154335	0	31170.143	31170.107	-1.6780681e-05	650256.06	221561.47	-0.00023198882	221561.9	650255.6	-0.00021707566
0	0.62238395	0.62238336	-1.3021445e-10	0.05480076	0.05480076	0	31152.967	31152.936	-5.256794e-06	650449.3	220887.83	-0.00012696967	220888.28	650448.9	-5.6277782e-05
0	0.6220361	0.62203544	-1.4919284e-10	0.054447178	0.054447178	0	31135.555	31135.521	-6.101451e-06	650644.7	220205.38	-0.00016069441	220205.88	650644.25	-3.878517e-05
0	0.6216896	0.62168896	-2.7391786e-10	0.054093663	0.054093663	0	31118.21	31118.178	-1.5173548e-05	650838.4	219526.61	-0.00019576703	219527.06	650837.94	-0.00021850778
0	0.6213417	0.62134105	-2.0817155e-10	0.053740177	0.053740177	0	31100.795	31100.762	-1.0225253e-05	651031.2	218846.67	-0.00018507575	218847.17	651030.75	-0.00010190364
0	0.6209895	0.62098885	-1.5459006e-10	0.053386666	0.053386666	0	31083.166	31083.133	-9.380798e-06	651225.1	218159.72	-0.0001472444	218160.19	651224.6	-0.00012976368
0	0.62063587	0.6206353	-3.3713146e-10	0.053033147	0.053033147	0	31065.46	31065.434	-1.6223998e-05	651419.6	217470.17	-0.00022931097	217470.64	651419.06	-0.00024376379
0	0.62028325	0.6202826	-2.8103303e-10	0.05267945	0.05267945	0	31047.816	31047.783	-1.430463e-05	651612.9	216783.12	-0.00017446456	216783.6	651612.44	-0.00020443334
0	0.61992586	0.61992514	-2.440658e-10	0.052326117	0.052326117	0	31029.928	31029.895	-1.1570203e-05	651807.06	216088.62	-0.00017057749	216089.08	651806.6	-0.00015289469
0	0.6195673	0.6195666	-1.8539235e-10	0.051971845	0.051971845	0	31011.98	31011.941	-9.502117e-06	652001.75	215391.9	-0.0002005494	215392.42	652001.3	-3.967097e-05
0	0.6192067	0.61920613	-3.0184172e-10	0.051618867	0.051618867	0	30993.934	30993.896	-1.5563168e-05	652195.9	214693.14	-0.00019784275	214693.66	652195.44	-0.0002348321
0	0.6188455	0.61884487	-1.7564503e-10	0.051265612	0.051265612	0	30975.85	30975.816	-1.0736048e-05	652388.9	213994.3	-0.0001657978	213994.83	652388.44	-9.941613e-05
0	0.61848044	0.6184797	-2.4190336e-10	0.050911337	0.050911337	0	30957.574	30957.54	-1.2194238e-05	652583.75	213288.25	-0.00020760625	213288.75	652583.4	-0.00013195514
0	0.6181144	0.6181136	-3.1322514e-10	0.050558325	0.050558325	0	30939.252	30939.217	-1.4445341e-05	652777.7	212581.86	-0.00024237136	212582.38	652777.25	-0.00019798547
0	0.61774623	0.61774546	-2.3519567e-10	0.05020489	0.05020489	0	30920.822	30920.79	-1.1615232e-05	652971.75	211872.36	-0.0001654046	211872.86	652971.3	-0.00015608457
0	0.6173761	0.6173754	-3.4464148e-10	0.049850788	0.049850788	0	30902.3	30902.262	-1.8242748e-05	653165.7	211160.22	-0.0002265132	211160.77	653165.3	-0.00025952357
0	0.6170039	0.61700314	-2.2103654e-10	0.04949739	0.04949739	0	30883.672	30883.637	-1.2454417e-05	653359.9	210445.03	-0.00020597354	210445.58	653359.4	-0.00014478064
0	0.61663014	0.6166295	-1.2188105e-10	0.049144328	0.049144328	0	30864.96	30864.926	-8.093056e-06	653552.94	209728.75	-9.209187e-05	209729.28	653552.44	-0.00012767037
0	0.6162538	0.61625296	-2.1240744e-10	0.048790082	0.048790082	0	30846.123	30846.084	-1.0708399e-05	653747	209007.7	-0.00019910317	209008.23	653746.56	-0.00013463653
0	0.6158768	0.6158761	-2.5719454e-10	0.04843687	0.04843687	0	30827.25	30827.217	-1.41655055e-05	653940.56	208286.45	-0.00018780022	208286.95	653940	-0.00018601656
0	0.6154948	0.6154941	-3.231049e-10	0.04808294	0.04808294	0	30808.13	30808.094	-1.6609029e-05	654135.94	207556.25	-0.00023484259	207556.78	654135.5	-0.00021247429
0	0.61511356	0.6151127	-4.1540688e-10	0.04772953	0.04772953	0	30789.05	30789.014	-2.2314505e-05	654328.6	206829.81	-0.00027438076	206830.34	654328.06	-0.00030487456
0	0.6147305	0.6147298	-2.2123581e-10	0.047376405	0.047376405	0	30769.88	30769.84	-1.2232525e-05	654522.3	206099.92	-0.00018823176	206100.47	654521.75	-0.00011264008
0	0.61434305	0.6143423	-1.2848339e-10	0.047022395	0.047022395	0	30750.486	30750.445	-6.962612e-06	654717.2	205362.55	-0.00011075597	205363.08	654716.6	-7.288279e-05
0	0.6139549	0.6139541	-1.6084184e-10	0.04666901	0.04666901	0	30731.053	30731.014	-8.533259e-06	654911.06	204625.19	-0.00014542925	204625.75	654910.56	-8.632128e-05
0	0.61356556	0.6135647	-1.0808821e-10	0.046315704	0.046315704	0	30711.566	30711.525	-6.519522e-06	655103.6	203887.56	-9.3106835e-05	203888.11	655103.1	-7.343379e-05
0	0.613173	0.61317223	-1.867223e-10	0.045961797	0.045961797	0	30691.916	30691.877	-9.150127e-06	655297.25	203144.44	-0.00019959567	203145	655296.75	-5.929094e-05
0	0.6127772	0.6127764	-1.8520227e-10	0.045608494	0.045608494	0	30672.105	30672.066	-1.0966942e-05	655491.1	202396.28	-0.00016003949	202396.88	655490.7	-0.00010353245
0	0.6123817	0.61238086	-1.1661948e-10	0.045255188	0.045255188	0	30652.305	30652.268	-5.6389695e-06	655684.3	201649.56	-0.0001358483	201650.16	655683.7	-2.6455129e-05
0	0.6119815	0.6119807	-1.9281528e-10	0.04490103	0.04490103	0	30632.275	30632.236	-1.0413819e-05	655879.1	200894.31	-0.00014726401	200894.9	655878.6	-9.011448e-05
0	0.61158097	0.6115802	-2.5300062e-10	0.044547945	0.044547945	0	30612.229	30612.19	-1.2607032e-05	656071.6	200141.16	-0.00013909771	200141.75	656071.1	-0.00022704221
0	0.6111779	0.61117715	-7.344968e-11	0.04419374	0.04419374	0	30592.05	30592.012	-3.2012397e-06	656264.75	199383.7	-9.7808326e-05	199384.31	656264.2	8.300874e-07
0	0.61077166	0.6107708	-1.5894087e-10	0.043840446	0.043840446	0	30571.723	30571.678	-8.208909e-06	656459.3	198620.39	-9.1683105e-05	198621	656458.75	-0.00012924775
0	0.6103656	0.61036485	-2.1534749e-10	0.043487187	0.043487187	0	30551.4	30551.355	-1.1822312e-05	656651.06	197860.27	-0.00019446215	197860.89	656650.5	-0.000103191465
0	0.60995567	0.60995483	-1.8281804e-10	0.043133244	0.043133244	0	30530.873	30530.834	-8.920504e-06	656844.1	197093.25	-5.9863727e-05	197093.88	656843.5	-0.00012489219
0	0.60954404	0.6095432	-2.7105912e-10	0.042779926	0.042779926	0	30510.271	30510.23	-1.2993043e-05	657037	196323.98	-0.00018770558	196324.61	657036.5	-0.00011307936
0	0.609129	0.6091282	-3.070047e-10	0.042426657	0.042426657	0	30489.5	30489.46	-1.3771354e-05	657230.4	195549.64	-0.00020134283	195550.27	657229.9	-0.00021822087
0	0.6087128	0.60871196	-2.4099706e-10	0.04207268	0.04207268	0	30468.664	30468.62	-1.0075131e-05	657423.06	194774.14	-0.0002618434	194774.77	657422.6	-1.2811797e-05
0	0.6082939	0.60829306	-3.1175448e-10	0.041719414	0.041719414	0	30447.697	30447.656	-1.5484078e-05	657615.94	193994.92	-0.00025893492	193995.53	657615.4	-0.00017682154
0	0.6078714	0.6078705	-1.9893451e-10	0.04136609	0.04136609	0	30426.55	30426.506	-1.0576282e-05	657808.9	193210.39	-0.00015118289	193211.05	657808.44	-9.0116795e-05
0	0.60744876	0.6074478	-1.3212863e-10	0.041011933	0.041011933	0	30405.393	30405.348	-8.569866e-06	658001.25	192426.19	-7.023328e-05	192426.84	658000.75	-0.00016312685
0	0.60702306	0.6070221	-2.3874924e-10	0.040658846	0.040658846	0	30384.084	30384.04	-1.3024383e-05	658193.8	191637.84	-0.00014131925	191638.53	658193.2	-0.00022099557
0	0.60659516	0.60659426	-1.6657092e-10	0.04030471	0.04030471	0	30362.666	30362.623	-8.55651e-06	658385.75	190846.75	-0.00017366582	190847.42	658385.1	-6.135974e-05
0	0.60616344	0.60616255	-1.9160766e-10	0.03995136	0.03995136	0	30341.059	30341.012	-8.095688e-06	658579.4	190048.73	-0.00014823633	190049.4	658578.75	-7.501397e-05
0	0.6057328	0.6057319	-1.8653025e-10	0.039598063	0.039598063	0	30319.506	30319.46	-9.19596e-06	658769.9	189255.4	-0.0001759727	189256.06	658769.2	-7.896901e-05
0	0.6052963	0.6052954	-2.741794e-10	0.039244205	0.039244205	0	30297.656	30297.611	-1.4072317e-05	658963.2	188451	-0.00025221662	188451.72	658962.5	-0.0001092586
0	0.6048589	0.6048579	-2.9528047e-10	0.038890842	0.038890842	0	30275.758	30275.71	-1.4363982e-05	659155	187646.66	-0.00017837987	187647.38	659154.4	-0.0002605769
0	0.6044195	0.60441864	-2.593402e-10	0.038537536	0.038537536	0	30253.771	30253.723	-1.1789848e-05	659345.3	186841.4	-0.00019580942	186842.12	659344.7	-0.00012792951
0	0.6039773	0.60397637	-2.3190873e-10	0.038183637	0.038183637	0	30231.633	30231.59	-1.2206141e-05	659537.06	186030.52	-0.00019228215	186031.22	659536.5	-0.00017780784
0	0.60353166	0.60353065	-3.671391e-10	0.03783033	0.03783033	0	30209.324	30209.275	-1.9358657e-05	659728.3	185215.2	-0.00028676045	185215.92	659727.7	-0.000254631
0	0.60308504	0.6030841	-3.2114217e-10	0.03747694	0.03747694	0	30186.973	30186.922	-1.3828203e-05	659919.6	184398.7	-0.00023944743	184399.44	659919	-0.0001559859
0	0.60263556	0.60263467	-1.4345332e-10	0.03712286	0.03712286	0	30164.473	30164.428	-8.388098e-06	660110.25	183578.84	-0.00014157289	183579.58	660109.56	-7.609976e-05
0	0.6021834	0.60218245	-3.5345554e-10	0.036769744	0.036769744	0	30141.844	30141.795	-1.7969323e-05	660301.3	182754.7	-0.00024443274	182755.48	660300.7	-0.00023494766
0	0.60172886	0.6017278	-2.4983127e-10	0.036415678	0.036415678	0	30119.09	30119.035	-1.1360046e-05	660491.9	181927.72	-0.00020145021	181928.48	660491.25	-8.9804504e-05
0	0.6012716	0.6012706	-2.5729335e-10	0.036062278	0.036062278	0	30096.203	30096.152	-1.4297708e-05	660682.4	181097.12	-0.00027286264	181097.88	660681.7	-9.865428e-05
0	0.60081124	0.6008102	-1.7916868e-10	0.035708938	0.035708938	0	30073.158	30073.107	-8.629049e-06	660872.9	180262.05	-0.00016476116	180262.81	660872.2	-0.00011231274
0	0.6003483	0.6003473	-1.868646e-10	0.035355177	0.035355177	0	30049.986	30049.936	-1.043091e-05	661064.2	179422.77	-0.00012453205	179423.55	661063.5	-0.00018854272
0	0.5998847	0.5998837	-1.2772482e-10	0.03500176	0.03500176	0	30026.781	30026.73	-6.793287e-06	661252.75	178585.1	-0.0001537645	178585.88	661252.1	-2.4625999e-05
0	0.5994154	0.59941435	-2.7633026e-10	0.034648404	0.034648404	0	30003.291	30003.238	-1.2220539e-05	661442.6	177738.2	-0.00024940402	177738.97	661441.94	-8.648813e-05
0	0.5989447	0.5989437	-3.076662e-10	0.034294598	0.034294598	0	29979.729	29979.678	-1.505426e-05	661633.44	176888.34	-0.00023971665	176889.16	661632.8	-0.00018045121
0	0.59847313	0.598472	-3.035074e-10	0.033941235	0.033941235	0	29956.127	29956.072	-1.4085118e-05	661822.56	176039.05	-0.00030686267	176039.86	661821.75	-7.759327e-05
0	0.59799755	0.5979965	-1.5051922e-10	0.03358779	0.03358779	0	29932.322	29932.268	-8.609937e-06	662011.75	175184.03	-0.00012537342	175184.86	662011.1	-8.4274856e-05
0	0.59751886	0.59751785	-2.4944272e-10	0.033233795	0.033233795	0	29908.361	29908.309	-1.4518918e-05	662200.7	174324.95	-0.00022469705	174325.77	662200	-0.00015627133
0	0.5970397	0.5970387	-1.2799216e-10	0.032880653	0.032880653	0	29884.38	29884.322	-8.0147665e-06	662388.1	173466.66	-0.00017444835	173467.48	662387.44	-6.521975e-05
0	0.59655666	0.59655553	-3.136574e-10	0.03252667	0.03252667	0	29860.2	29860.143	-1.648865e-05	662576.2	172602.27	-0.0002194469	172603.12	662575.56	-0.00023028413
0	0.5960691	0.596068	-1.7172504e-10	0.032173198	0.032173198	0	29835.795	29835.738	-7.108376e-06	662764.56	171731.33	-0.00025940937	171732.16	662763.9	5.2739782e-05
0	0.59558034	0.59557927	-3.1216557e-10	0.031819794	0.031819794	0	29811.33	29811.275	-1.4788645e-05	662952.44	170859.2	-0.00026201783	170860.08	662951.75	-0.0001476238
0	0.5950891	0.59508795	-4.3072528e-11	0.031466164	0.031466164	0	29786.738	29786.684	-3.220472e-06	663140.25	169983.62	-4.784869e-05	169984.48	663139.5	-9.757362e-06
0	0.59459406	0.5945929	-1.2447461e-10	0.031112673	0.031112673	0	29761.965	29761.908	-6.4364303e-06	663329	169101.83	-9.374193e-05	169102.7	663328.25	-7.469802e-05
0	0.5940974	0.5940962	-3.1581432e-10	0.030759258	0.030759258	0	29737.1	29737.045	-1.582238e-05	663514.7	168220.67	-0.0002561229	168221.56	663514	-0.00014594762
0	0.593596	0.59359485	-1.5409368e-10	0.030405577	0.030405577	0	29712.006	29711.945	-8.526383e-06	663703.25	167330.27	-5.1593346e-05	167331.16	663702.5	-0.00013217333
0	0.59309405	0.59309286	-9.22717e-11	0.030052148	0.030052148	0	29686.877	29686.82	-6.3517227e-06	663889.6	166441.08	-7.515762e-05	166441.97	663889.06	-5.542826e-05
0	0.5925885	0.5925873	-1.510779e-10	0.029698623	0.029698623	0	29661.572	29661.512	-8.982827e-06	664074.9	165548.05	-0.00020525021	165548.95	664074.1	-4.5647135e-05
0	0.5920796	0.5920784	-1.4854823e-10	0.029344728	0.029344728	0	29636.104	29636.041	-7.739685e-06	664262.2	164648.33	-0.00014251402	164649.23	664261.44	-6.543642e-05
0	0.5915675	0.59156626	-9.119163e-11	0.028991554	0.028991554	0	29610.473	29610.41	-3.2977052e-06	664448.06	163745.61	-2.9070297e-05	163746.53	664447.3	-9.942482e-05
0	0.5910547	0.5910535	-2.4896102e-10	0.028637664	0.028637664	0	29584.8	29584.738	-1.0622793e-05	664632.3	162843.23	-0.00019826017	162844.19	664631.6	-0.00012096049
0	0.5905377	0.5905365	-1.5129294e-10	0.028284118	0.028284118	0	29558.922	29558.861	-8.091641e-06	664817.3	161934.55	-0.000104465376	161935.52	664816.56	-0.000101709
0	0.59001607	0.5900148	-2.0292801e-10	0.027930643	0.027930643	0	29532.816	29532.756	-7.640073e-06	665003.56	161018.03	-0.00013210544	161019	665002.75	-8.2775165e-05
0	0.58949274	0.5894915	-2.6968677e-10	0.027577167	0.027577167	0	29506.623	29506.555	-1.42331155e-05	665187	160101.94	-0.00032439927	160102.92	665186.1	-4.9626087e-05
0	0.58896744	0.5889662	-1.4752721e-10	0.027223589	0.027223589	0	29480.328	29480.264	-5.738985e-06	665371.1	159182.31	-5.854285e-05	159183.31	665370.3	-0.000117422926
0	0.5884366	0.5884353	-1.6069757e-10	0.026870089	0.026870089	0	29453.756	29453.69	-8.323155e-06	665556.5	158253.72	-0.0001305989	158254.72	665555.7	-8.9733374e-05
0	0.5879049	0.5879036	-3.1055755e-10	0.026516574	0.026516574	0	29427.139	29427.074	-1.5253085e-05	665739	157326.86	-0.000255468	157327.86	665738.1	-0.00015997402
0	0.5873695	0.5873682	-2.2973884e-10	0.026163058	0.026163058	0	29400.34	29400.271	-1.2114777e-05	665923.3	156392.98	-0.0002280821	156394	665922.44	-0.00010473587
0	0.58683103	0.58682966	-8.852368e-11	0.025809433	0.025809433	0	29373.389	29373.322	-4.094759e-06	666106.2	155456.22	-4.31924e-05	155457.27	666105.3	-6.776218e-05
0	0.5862895	0.58628815	-2.8842156e-10	0.025455669	0.025455669	0	29346.283	29346.217	-1.4822636e-05	666288.75	154515.53	-0.00021929925	154516.58	666287.9	-0.0002392684
0	0.5857453	0.5857439	-3.3749933e-10	0.025102446	0.025102446	0	29319.045	29318.979	-1.7549086e-05	666469.6	153572.73	-0.00026400218	153573.78	666468.75	-0.00025280245
0	0.58519757	0.5851962	-1.7996203e-10	0.024748694	0.024748694	0	29291.627	29291.56	-1.0098103e-05	666651.75	152623.8	-0.00016295646	152624.88	666650.9	-0.00010029358
0	0.5846466	0.5846452	-1.8054731e-10	0.024395041	0.024395041	0	29264.05	29263.979	-8.618924e-06	666832.94	151671.28	-0.000187255	151672.36	666832.06	-1.7514902e-05
0	0.5840923	0.584091	-1.6025438e-10	0.02404147	0.02404147	0	29236.309	29236.238	-8.320279e-06	667014.2	150714.02	-9.224879e-05	150715.08	667013.3	-0.00015837462
0	0.58353364	0.58353215	-1.9532544e-10	0.023688203	0.023688203	0	29208.336	29208.27	-1.1509542e-05	667196.44	149749.56	-0.00022140669	149750.67	667195.5	-9.428684e-05
0	0.58297306	0.58297163	-2.9615776e-10	0.023334505	0.023334505	0	29180.283	29180.21	-1.4884492e-05	667376.7	148784.42	-0.00020028061	148785.56	667375.8	-0.00021787638
0	0.58240986	0.58240837	-1.8898805e-10	0.022980899	0.022980899	0	29152.092	29152.021	-9.790978e-06	667555.3	147817.4	-0.00018405724	147818.53	667554.44	-8.087621e-05
0	0.58184177	0.5818403	-3.4280628e-10	0.022627594	0.022627594	0	29123.656	29123.578	-1.7930708e-05	667736.25	146841.02	-0.00020757904	146842.19	667735.5	-0.00028386572
0	0.5812713	0.5812698	-2.2542426e-10	0.022273973	0.022273973	0	29095.1	29095.021	-1.2231129e-05	667915.44	145863.27	-0.00022430443	145864.42	667914.5	-7.0039634e-05
0	0.5806974	0.58069587	-2.0182526e-10	0.021920223	0.021920223	0	29066.375	29066.297	-9.84632e-06	668094.1	144880.98	-0.00016518983	144882.17	668093.2	-0.00011632569
0	0.5801207	0.5801192	-2.6238783e-10	0.021566622	0.021566622	0	29037.512	29037.434	-1.2212786e-05	668271.1	143896.81	-0.00020627501	143898	668270.06	-0.00016345273
0	0.5795395	0.5795379	-1.5086557e-10	0.021213328	0.021213328	0	29008.414	29008.34	-7.628748e-06	668449.1	142905	-0.00016717563	142906.2	668448.2	-3.6142992e-05
0	0.57895565	0.5789541	-2.5824087e-10	0.020859707	0.020859707	0	28979.191	28979.113	-1.4488766e-05	668626.6	141910.06	-0.0002650918	141911.27	668625.7	-0.00010161863
0	0.5783676	0.57836604	-2.605325e-10	0.020505967	0.020505967	0	28949.756	28949.68	-1.2263909e-05	668804.94	140908.44	-0.0002167722	140909.69	668803.94	-0.00015169868
0	0.57777655	0.57777494	-1.002124e-10	0.020152355	0.020152355	0	28920.176	28920.094	-6.1798887e-06	668981.7	139904.27	-0.0001349478	139905.53	668980.75	-5.7954654e-05
0	0.5771817	0.5771801	-1.9114332e-10	0.019799031	0.019799031	0	28890.4	28890.32	-9.582628e-06	669157.9	138895.25	-0.00015550367	138896.5	669156.9	-0.0001181177
0	0.57658374	0.57658213	-2.2368443e-10	0.019445421	0.019445421	0	28860.469	28860.393	-1.2332303e-05	669333.56	137882.42	-0.00019077476	137883.69	669332.6	-0.0001396682
0	0.5759826	0.57598096	-1.1389753e-10	0.019091818	0.019091818	0	28830.377	28830.295	-5.424027e-06	669507.5	136866.78	-0.00013747741	136868.1	669506.5	1.2083083e-05
0	0.57537645	0.5753749	-1.6646601e-10	0.01873847	0.01873847	0	28800.041	28799.955	-7.78912e-06	669683.56	135842.14	-0.00019885377	135843.45	669682.6	-3.8563572e-05
0	0.5747679	0.5747662	-1.4709889e-10	0.018384872	0.018384872	0	28769.578	28769.494	-6.549403e-06	669857.94	134815.83	-0.00023976012	134817.17	669856.8	5.5897897e-05
0	0.5741553	0.57415354	-2.2577701e-10	0.018031139	0.018031139	0	28738.91	28738.828	-1.2769235e-05	670031.8	133784.23	-0.00025298836	133785.6	670030.7	-6.169028e-05
0	0.57353956	0.5735378	-1.9943723e-10	0.017677588	0.017677588	0	28708.094	28708.008	-1.0035087e-05	670203.9	132750.11	-0.00025699552	132751.47	670202.9	-2.8304301e-05
0	0.5729198	0.5729181	-9.9374196e-11	0.017324202	0.017324202	0	28677.072	28676.986	-4.5681536e-06	670376.3	131710.03	-0.00018893216	131711.4	670375.4	7.3648545e-05
0	0.5722951	0.57229334	-2.5684047e-10	0.016970618	0.016970618	0	28645.805	28645.717	-1.280746e-05	670550.4	130661.38	-0.00026250427	130662.766	670549.3	-0.00010857778
0	0.57166845	0.57166666	-1.5736898e-10	0.016616898	0.016616898	0	28614.434	28614.348	-7.1187305e-06	670720.7	129613.586	-0.00022744018	129614.99	670719.7	7.346874e-06
0	0.57103634	0.5710346	-2.7586455e-10	0.016263334	0.016263334	0	28582.797	28582.71	-1.46611565e-05	670893.56	128555.87	-0.00029924785	128557.305	670892.56	-0.00012572175
0	0.5704028	0.570401	-1.3891753e-10	0.015909897	0.015909897	0	28551.086	28550.994	-6.956391e-06	671062.7	127499.81	-0.00018276836	127501.26	671061.6	-1.9385063e-05
0	0.5697629	0.56976104	-1.6603043e-10	0.015556336	0.015556336	0	28519.055	28518.965	-7.957169e-06	671234.8	126431.79	-0.000120707395	126433.27	671233.7	-0.00011916575
0	0.56912106	0.5691192	-2.2745215e-10	0.015202789	0.015202789	0	28486.93	28486.84	-1.0908699e-05	671403.06	125364.92	-0.000228418	125366.4	671402	-5.815691e-05
0	0.56847394	0.5684721	-2.8239894e-10	0.014849312	0.014849312	0	28454.54	28454.445	-1.3428336e-05	671572.75	124289.24	-0.00024020406	124290.76	671571.7	-0.00014594466
0	0.5678235	0.5678217	-1.3119845e-10	0.014495777	0.014495777	0	28421.986	28421.889	-7.215232e-06	671741.2	123210.26	-0.00011411001	123211.79	671740.1	-9.542438e-05
0	0.5671678	0.5671659	-1.541696e-10	0.014142059	0.014142059	0	28389.16	28389.066	-8.706105e-06	671910.75	122122.59	-0.00018692881	122124.14	671909.6	-6.0808496e-05
0	0.5665098	0.5665078	-1.8089483e-10	0.013788584	0.013788584	0	28356.223	28356.127	-9.423634e-06	672077	121035.17	-0.00019740725	121036.72	672075.8	-3.6949452e-05
0	0.56584626	0.5658443	-2.8742078e-10	0.013435044	0.013435044	0	28323.012	28322.91	-1.534355e-05	672245.4	119937.81	-0.00031403903	119939.4	672244.2	-9.953813e-05
0	0.56517965	0.5651777	-3.373851e-10	0.013081529	0.013081529	0	28289.645	28289.547	-1.5564396e-05	672411.94	118837.98	-0.0002239351	118839.586	672410.75	-0.000214409
0	0.5645092	0.5645072	-1.11094606e-10	0.012727834	0.012727834	0	28256.086	28255.986	-5.905915e-06	672576.6	117734.63	-0.00013023471	117736.266	672575.5	-6.928972e-06
0	0.5638333	0.5638313	-1.1491797e-10	0.012374347	0.012374347	0	28222.252	28222.156	-7.0714646e-06	672743.3	116621.74	-9.449897e-05	116623.38	672742.1	-0.00010098507
0	0.563155	0.56315297	-7.546508e-11	0.012020735	0.012020735	0	28188.309	28188.2	-4.222515e-06	672906.44	115508.91	-8.061057e-05	115510.6	672905.2	-8.007825e-06
0	0.5624705	0.56246835	-2.9512076e-10	0.0116672525	0.0116672525	0	28154.04	28153.934	-1.4765513e-05	673072.2	114384.75	-0.00030012676	114386.46	673070.94	-0.00013170163
0	0.5617828	0.56178063	-3.3303005e-10	0.011313797	0.011313797	0	28119.617	28119.512	-1.7142635e-05	673235.9	113258.27	-0.0003104309	113260	673234.6	-0.00015977322
0	0.56109154	0.56108946	-2.059088e-10	0.010960111	0.010960111	0	28085.018	28084.91	-1.1932577e-05	673397.5	112128.945	-0.00016817478	112130.7	673396.25	-0.00016021618
0	0.5603938	0.5603916	-2.2051243e-10	0.010606664	0.010606664	0	28050.092	28049.982	-1.1351343e-05	673561.56	110988.02	-0.00026714723	110989.8	673560.3	-3.9706716e-05
0	0.5596927	0.5596905	-2.7864694e-10	0.010252983	0.010252983	0	28014.998	28014.889	-1.4670267e-05	673723.25	109844.69	-0.00028706063	109846.5	673722	-0.00013846588
0	0.55898744	0.55898523	-1.7920737e-10	0.009899516	0.009899516	0	27979.697	27979.59	-8.267258e-06	673884.44	108696.055	-0.000121246296	108697.89	673883.2	-0.00011089416
0	0.55827886	0.55827665	-1.990011e-10	0.009545909	0.009545909	0	27944.232	27944.117	-9.065589e-06	674043.44	107545.13	-0.00020729992	107546.99	674042.1	-9.6097596e-05
0	0.55756426	0.55756193	-2.1588718e-10	0.009192436	0.009192436	0	27908.46	27908.35	-1.13732285e-05	674203.7	106384.31	-0.00021901572	106386.2	674202.56	-8.7173066e-05
0	0.55684423	0.55684197	-2.9915517e-10	0.008838794	0.008838794	0	27872.422	27872.305	-1.40928305e-05	674364.6	105215.47	-0.00018582885	105217.36	674363.25	-0.00019245611
0	0.55612034	0.556118	-2.1582927e-10	0.008485309	0.008485309	0	27836.19	27836.072	-1.071907e-05	674523.44	104043.08	-0.00022999448	104045.016	674522.2	-8.654479e-05
0	0.5553934	0.555391	-2.30895e-10	0.008131667	0.008131667	0	27799.8	27799.68	-1.1877923e-05	674679.94	102868.73	-0.00019156492	102870.69	674678.6	-0.00014659042
0	0.55466026	0.55465794	-2.3440916e-10	0.007778168	0.007778168	0	27763.107	27762.988	-1.2396912e-05	674837.5	101684.94	-0.00020985161	101686.94	674836.2	-0.00011349568
0	0.5539214	0.553919	-2.566596e-10	0.007424656	0.007424656	0	27726.123	27726.002	-1.1942921e-05	674996.2	100491.79	-0.00022529557	100493.82	674994.75	-0.000114673545