//mumax 3.10 [windows_amd64 go1.11.6(gc) CUDA-11.0]
//GPU info: NVIDIA GeForce RTX 3090(24575MB), CUDA Driver 12.0, cc=8.6, using cc=80 PTX
//(c) Arne Vansteenkiste, Dynamat LAB, Ghent University, Belgium
//This is free software without any warranty. See license.txt
//********************************************************************//
//  If you use mumax in any work or publication,                      //
//  we kindly ask you to cite the references in references.bib        //
//********************************************************************//
//output directory: r1;p0.1;a5.12e-07;l3.0000000000000004e-07;s2.out/
randSeed(2)
ThermSeed(2)
resolution := 2e-09
zResolution := 5e-09
a := 5.12e-07
gridSize := 512
gridDepth := 5
SetCellsize(resolution, resolution, zResolution)
SetGridsize(gridSize, gridSize, gridDepth)
SetPBC(16, 16, 0)
//resizing...
Msat = 700e3
Aex = 13e-12
alpha = 0.2
Bmax := 0.1
Bstep := Bmax / 500.0
TableAdd(B_ext)
TableAdd(m_full)
islandWidth := 8e-08
islandLength := 3.0000000000000004e-07
ellipseConstant := 1.5000000000000002e-08
hIsland := rect(islandLength-2*ellipseConstant, islandWidth)
hIsland = hIsland.add(ellipse(ellipseConstant*2, islandWidth).transl(islandLength/2-ellipseConstant, 0, 0))
hIsland = hIsland.add(ellipse(ellipseConstant*2, islandWidth).transl(-islandLength/2+ellipseConstant, 0, 0))
hIsland = hIsland.sub(rect(1e-08, -6.093156498739116e-09).transl(5.484242209175535e-08, -4e-08, 0))
hIsland = hIsland.add(rect(1e-08, 6.119288036920596e-09).transl(1.4699721529729418e-07, -2.4009897975311354e-08, 0))
hIsland = hIsland.add(rect(1e-08, 7.035634830614876e-09).transl(-2.1687905515321347e-08, -4e-08, 0))
hIsland = hIsland.add(rect(1e-08, 1.8175273668165362e-09).transl(1.1842582003439519e-07, -4e-08, 0))
hIsland = hIsland.sub(rect(1e-08, -1.0033174657502098e-09).transl(1.314363684274464e-07, -4e-08, 0))
hIsland = hIsland.sub(rect(1e-08, -5.088537148070613e-09).transl(-7.82421701494468e-08, -4e-08, 0))
hIsland = hIsland.sub(rect(1e-08, -4.777875881589911e-09).transl(3.222403153375251e-08, -4e-08, 0))
hIsland = hIsland.sub(rect(1e-08, -3.4444635373157257e-09).transl(-1.4610320007888315e-07, -2.6894883182350533e-08, 0))
hIsland = hIsland.sub(rect(1e-08, -1.2842487349650953e-09).transl(1.8803849974277806e-08, -4e-08, 0))
hIsland = hIsland.add(rect(1e-08, 6.936309310090222e-10).transl(-1.4473108288866677e-07, -3.044044395224773e-08, 0))
hIsland = hIsland.sub(rect(1e-08, -5.43737714023453e-09).transl(6.0535076019716985e-09, -4e-08, 0))
hIsland = hIsland.sub(rect(1e-08, -9.822666944900303e-09).transl(-6.302028960099331e-08, -4e-08, 0))
hIsland = hIsland.add(rect(1e-08, 2.459336557694253e-09).transl(1.375032171550606e-07, -3.9439080798358516e-08, 0))
hIsland = hIsland.add(rect(1e-08, 5.042484073731077e-09).transl(9.720951374642107e-08, -4e-08, 0))
hIsland = hIsland.add(rect(1e-08, 2.4723173819524406e-09).transl(5.0017576719900755e-08, -4e-08, 0))
hIsland = hIsland.sub(rect(1e-08, -1.958108012636217e-09).transl(-1.0636162640217919e-07, -4e-08, 0))
hIsland = hIsland.sub(rect(1e-08, -6.42081485362806e-10).transl(-4.6922434947704005e-08, -4e-08, 0))
hIsland = hIsland.add(rect(1e-08, 1.0552802529448502e-08).transl(-8.0016549659221e-08, -4e-08, 0))
hIsland = hIsland.add(rect(1e-08, 1.101348933828892e-09).transl(7.440623594055234e-08, -4e-08, 0))
hIsland = hIsland.add(rect(1e-08, 4.108556220924209e-11).transl(7.056362118954138e-08, -4e-08, 0))
hIsland = hIsland.sub(rect(1e-08, -6.588083426853365e-09).transl(-2.460068428322462e-08, -4e-08, 0))
hIsland = hIsland.sub(rect(1e-08, -5.548563320396269e-09).transl(-5.5572952459814776e-09, -4e-08, 0))
hIsland = hIsland.add(rect(1e-08, 5.407526571552183e-09).transl(1.1861271894853096e-07, -4e-08, 0))
hIsland = hIsland.add(rect(1e-08, 7.743340653706035e-10).transl(-1.0206733547549982e-07, -4e-08, 0))
hIsland = hIsland.add(rect(1e-08, 2.252205731102857e-09).transl(-8.167261481643948e-08, -4e-08, 0))
hIsland = hIsland.add(rect(1e-08, 3.43388473088495e-10).transl(-8.132266895720052e-09, -4e-08, 0))
hIsland = hIsland.sub(rect(1e-08, -7.524233618604051e-09).transl(-1.4769587494533884e-07, -2.1302437523095144e-08, 0))
hIsland = hIsland.add(rect(1e-08, 1.3887123788560823e-09).transl(1.2593123579360565e-08, -4e-08, 0))
hIsland = hIsland.sub(rect(1e-08, -3.3642479103845565e-09).transl(5.005127748786083e-08, -4e-08, 0))
hIsland = hIsland.sub(rect(1e-08, -5.3556035806538125e-09).transl(-1.1396008332149552e-09, -4e-08, 0))
hIsland = hIsland.sub(rect(1e-08, -5.101056069372368e-09).transl(-1.2838572247216877e-07, -4e-08, 0))
hIsland = hIsland.add(rect(1e-08, 1.8684594246205646e-09).transl(1.224339353791848e-07, -4e-08, 0))
hIsland = hIsland.sub(rect(1e-08, -9.652123920863364e-09).transl(2.8439391931608892e-08, -4e-08, 0))
hIsland = hIsland.sub(rect(1e-08, -2.12419031506939e-09).transl(1.1165309231072762e-07, -4e-08, 0))
hIsland = hIsland.sub(rect(1e-08, -2.737878127926236e-09).transl(-6.696870917526004e-08, -4e-08, 0))
hIsland = hIsland.add(rect(1e-08, 1.7066648239146125e-10).transl(-1.8175855171077382e-08, -4e-08, 0))
hIsland = hIsland.add(rect(1e-08, 3.3958495519975825e-10).transl(-8.874909819351474e-08, -4e-08, 0))
hIsland = hIsland.sub(rect(1e-08, -4.727860322728502e-09).transl(-1.0547671134510737e-07, -4e-08, 0))
hIsland = hIsland.add(rect(1e-08, 7.865492783153278e-10).transl(6.616323457525648e-08, -4e-08, 0))
hIsland = hIsland.sub(rect(1e-08, -7.3813841018458255e-09).transl(-5.011286468989485e-08, -4e-08, 0))
hIsland = hIsland.add(rect(1e-08, 2.799970213883914e-09).transl(-1.191780870593555e-07, -4e-08, 0))
hIsland = hIsland.sub(rect(1e-08, -4.315239684825305e-09).transl(8.305351522611212e-08, -4e-08, 0))
hIsland = hIsland.add(rect(1e-08, 7.156202123947157e-09).transl(-1.2880435857773936e-07, -4e-08, 0))
hIsland = hIsland.add(rect(1e-08, 1.2927435057943516e-08).transl(-8.819097725241089e-08, -4e-08, 0))
hIsland = hIsland.add(rect(1e-08, 4.680240813394994e-09).transl(3.554670775128171e-08, -4e-08, 0))
hIsland = hIsland.sub(rect(1e-08, -1.4059958945279966e-09).transl(1.1150986945935481e-07, -4e-08, 0))
hIsland = hIsland.add(rect(1e-08, 4.156895142415656e-09).transl(5.233259423642273e-08, -4e-08, 0))
hIsland = hIsland.sub(rect(1e-08, -7.041769685534635e-09).transl(-2.1702104846513158e-08, -4e-08, 0))
hIsland = hIsland.sub(rect(1e-08, -2.9047533027608304e-09).transl(1.7556383165775745e-09, -4e-08, 0))
hIsland = hIsland.add(rect(1e-08, 1.5172871694485746e-10).transl(1.1079571744489862e-07, -4e-08, 0))
hIsland = hIsland.add(rect(1e-08, 2.1414799908238625e-09).transl(-8.921476365800523e-08, -4e-08, 0))
hIsland = hIsland.sub(rect(1e-08, -5.217826515126561e-09).transl(-2.1011374956098692e-08, -4e-08, 0))
hIsland = hIsland.add(rect(1e-08, 4.796291280627927e-10).transl(-9.584411451355591e-08, -4e-08, 0))
hIsland = hIsland.add(rect(1e-08, 8.727925781098604e-09).transl(-1.0864142339792303e-07, -4e-08, 0))
hIsland = hIsland.sub(rect(1e-08, -1.9074488001566383e-09).transl(1.2343093415611737e-08, -4e-08, 0))
hIsland = hIsland.sub(rect(1e-08, -3.512270017926868e-09).transl(5.306229843399009e-08, -4e-08, 0))
hIsland = hIsland.add(rect(1e-08, 3.248223949701136e-09).transl(-1.469994369263706e-07, -2.4002001909108097e-08, 0))
hIsland = hIsland.add(rect(1e-08, 1.4212335936058417e-09).transl(-1.4229125895400235e-07, -3.495648524062702e-08, 0))
hIsland = hIsland.add(rect(1e-08, 1.9348134209996054e-09).transl(-1.4029929644269366e-07, -3.742060819862809e-08, 0))
hIsland = hIsland.add(rect(1e-08, 1.9870219959043027e-09).transl(-1.4641740917173726e-07, -2.594253722605734e-08, 0))
hIsland = hIsland.add(rect(1e-08, 7.76416627801022e-09).transl(8.229758302987261e-08, -4e-08, 0))
hIsland = hIsland.add(rect(1e-08, 5.434599585227939e-09).transl(5.862992725859229e-08, -4e-08, 0))
hIsland = hIsland.add(rect(1e-08, 1.4807479518157006e-09).transl(6.247031258423581e-08, -4e-08, 0))
hIsland = hIsland.add(rect(1e-08, 6.120041661817311e-09).transl(1.0755180370538705e-07, -4e-08, 0))
hIsland = hIsland.sub(rect(1e-08, -3.0471773925440295e-09).transl(1.4078738287577138e-07, -3.690287065730888e-08, 0))
hIsland = hIsland.add(rect(1e-08, 1.183526742783938e-09).transl(-1.0357242048388275e-07, -4e-08, 0))
hIsland = hIsland.sub(rect(1e-08, -1.7999976235583305e-09).transl(1.2990599237591433e-09, -4e-08, 0))
hIsland = hIsland.sub(rect(1e-08, -1.2653840280687262e-09).transl(7.769795700145887e-09, -4e-08, 0))
hIsland = hIsland.add(rect(1e-08, 3.2704242377030272e-09).transl(-1.1651211865750973e-07, -4e-08, 0))
hIsland = hIsland.sub(rect(1e-08, -1.1055741742356878e-09).transl(4.386530132093518e-08, -4e-08, 0))
hIsland = hIsland.sub(rect(1e-08, -3.706274640987947e-09).transl(1.6400121380128935e-08, -4e-08, 0))
hIsland = hIsland.sub(rect(1e-08, -3.6687485726510264e-09).transl(7.045543591099044e-08, -4e-08, 0))
hIsland = hIsland.sub(rect(1e-08, -3.5246404258950955e-09).transl(1.1349101842210606e-07, -4e-08, 0))
hIsland = hIsland.sub(rect(1e-08, -8.18593039139725e-09).transl(-9.787330607814001e-08, -4e-08, 0))
hIsland = hIsland.sub(rect(1e-08, -2.1894454904104322e-09).transl(-1.0978191602235858e-07, -4e-08, 0))
hIsland = hIsland.add(rect(1e-08, 5.307810872770598e-09).transl(-6.78838160622435e-08, -4e-08, 0))
hIsland = hIsland.sub(rect(1e-08, -1.1690852736904514e-09).transl(-5.2431086773322693e-08, -4e-08, 0))
hIsland = hIsland.add(rect(1e-08, 7.453707991254838e-10).transl(6.755442004827014e-08, -4e-08, 0))
hIsland = hIsland.sub(rect(1e-08, -7.096496767534724e-09).transl(2.810579496170744e-09, -4e-08, 0))
hIsland = hIsland.sub(rect(1e-08, -7.321498775362152e-09).transl(3.339219926249127e-08, -4e-08, 0))
hIsland = hIsland.add(rect(1e-08, 5.462344474908009e-09).transl(-1.4160183620192062e-08, -4e-08, 0))
hIsland = hIsland.sub(rect(1e-08, -3.2496996223848953e-09).transl(-1.4313808903376924e-07, -3.3601217637031626e-08, 0))
hIsland = hIsland.sub(rect(1e-08, -3.0668324815148205e-09).transl(1.1125783253997551e-07, -4e-08, 0))
hIsland = hIsland.add(rect(1e-08, 1.986173569118744e-09).transl(1.316875880837641e-07, -4e-08, 0))
hIsland = hIsland.sub(rect(1e-08, -3.999309505409947e-09).transl(8.521282078183906e-08, -4e-08, 0))
hIsland = hIsland.add(rect(1e-08, 7.115080369196746e-09).transl(3.370977421206857e-08, -4e-08, 0))
hIsland = hIsland.sub(rect(1e-08, -5.552776354930597e-09).transl(6.96323659611458e-08, -4e-08, 0))
hIsland = hIsland.sub(rect(1e-08, -1.9062951434454175e-09).transl(1.3815844526741604e-07, -3.910321143892459e-08, 0))
hIsland = hIsland.add(rect(1e-08, 5.581105876327557e-09).transl(-1.01271663170892e-07, -4e-08, 0))
hIsland = hIsland.add(rect(1e-08, 1.1806094097909179e-09).transl(-6.739341201943045e-08, -4e-08, 0))
hIsland = hIsland.sub(rect(1e-08, -1.8282175968219448e-09).transl(1.2363804274489483e-07, -4e-08, 0))
hIsland = hIsland.sub(rect(1e-08, -7.163826940605724e-10).transl(-1.06138779250694e-08, -4e-08, 0))
hIsland = hIsland.sub(rect(1e-08, -1.3592906699335522e-09).transl(9.59681403344278e-08, -4e-08, 0))
hIsland = hIsland.add(rect(1e-08, 3.0354277167487785e-09).transl(-9.917212576875936e-08, -4e-08, 0))
hIsland = hIsland.sub(rect(1e-08, -2.266888182983964e-09).transl(1.4741898728625556e-07, -2.2433111207827202e-08, 0))
hIsland = hIsland.sub(rect(1e-08, -3.377641528996157e-10).transl(7.578143785769003e-08, -4e-08, 0))
hIsland = hIsland.add(rect(1e-08, 1.8438554073262916e-09).transl(5.146552600823927e-08, -4e-08, 0))
hIsland = hIsland.add(rect(1e-08, 4.4331135133571815e-09).transl(-6.63759485343322e-08, -4e-08, 0))
hIsland = hIsland.add(rect(1e-08, 2.7407444816456426e-09).transl(-1.400684379806361e-07, -3.764734007415623e-08, 0))
hIsland = hIsland.sub(rect(1e-08, -3.032663551664188e-09).transl(4.357133086254897e-10, -4e-08, 0))
hIsland = hIsland.sub(rect(1e-08, -2.217539898664997e-09).transl(-8.519509403155133e-08, 4e-08, 0))
hIsland = hIsland.sub(rect(1e-08, -4.144231153904668e-09).transl(9.584546771518803e-08, 4e-08, 0))
hIsland = hIsland.add(rect(1e-08, 2.014030939547195e-09).transl(-7.982972479028633e-08, 4e-08, 0))
hIsland = hIsland.add(rect(1e-08, 3.4127496457518214e-09).transl(-1.2012893364949957e-07, 4e-08, 0))
hIsland = hIsland.add(rect(1e-08, 3.7601887459716495e-09).transl(1.3163846235557886e-07, 4e-08, 0))
hIsland = hIsland.add(rect(1e-08, 4.530098538631643e-09).transl(-3.663943561215274e-08, 4e-08, 0))
hIsland = hIsland.sub(rect(1e-08, -1.2382073391435876e-09).transl(-1.2081643126120992e-07, 4e-08, 0))
hIsland = hIsland.sub(rect(1e-08, -2.745135034898485e-09).transl(1.3307059312017631e-07, 4e-08, 0))
hIsland = hIsland.add(rect(1e-08, 2.8210644591351713e-09).transl(-7.280693741694009e-08, 4e-08, 0))
hIsland = hIsland.add(rect(1e-08, 7.79787283734861e-09).transl(5.909869426529357e-08, 4e-08, 0))
hIsland = hIsland.sub(rect(1e-08, -8.358844159628091e-10).transl(8.777162291109583e-08, 4e-08, 0))
hIsland = hIsland.sub(rect(1e-08, -5.97587964461468e-09).transl(-7.524117188487313e-09, 4e-08, 0))
hIsland = hIsland.add(rect(1e-08, 1.3225716216734182e-11).transl(-2.1620194217714804e-08, 4e-08, 0))
hIsland = hIsland.add(rect(1e-08, 2.0836456006703374e-09).transl(9.53964049965945e-09, 4e-08, 0))
hIsland = hIsland.sub(rect(1e-08, -3.641862226207653e-09).transl(2.4723572300373195e-08, 4e-08, 0))
hIsland = hIsland.sub(rect(1e-08, -7.970921955403749e-09).transl(1.498209091300222e-07, 6.1626271798102465e-09, 0))
hIsland = hIsland.add(rect(1e-08, 1.0071444237013416e-09).transl(-1.0240591002181277e-07, 4e-08, 0))
hIsland = hIsland.sub(rect(1e-08, -1.1252491346327297e-10).transl(1.4307073864434725e-07, 3.3716536290762874e-08, 0))
hIsland = hIsland.sub(rect(1e-08, -8.606235343935097e-10).transl(1.3406112601650434e-07, 4e-08, 0))
hIsland = hIsland.add(rect(1e-08, 9.393990058917494e-09).transl(1.0942184963481545e-07, 4e-08, 0))
hIsland = hIsland.add(rect(1e-08, 4.3955008631468925e-09).transl(-1.1924985942623019e-07, 4e-08, 0))
hIsland = hIsland.sub(rect(1e-08, -3.301019195767414e-09).transl(-1.4589894671946075e-07, 2.748257926195509e-08, 0))
hIsland = hIsland.add(rect(1e-08, 3.2713417728585143e-09).transl(4.144912094264902e-08, 4e-08, 0))
hIsland = hIsland.sub(rect(1e-08, -3.2992200586870633e-09).transl(7.793718677737683e-08, 4e-08, 0))
hIsland = hIsland.add(rect(1e-08, 9.402316437490332e-10).transl(-4.517912720039268e-08, 4e-08, 0))
hIsland = hIsland.sub(rect(1e-08, -2.110359136374638e-09).transl(-1.4910319320758982e-07, 1.3623493785700343e-08, 0))
hIsland = hIsland.add(rect(1e-08, 7.004376479034426e-11).transl(-1.3528279593921388e-07, 3.999289060880822e-08, 0))
hIsland = hIsland.add(rect(1e-08, 1.5007936383125789e-09).transl(-1.487496773191868e-07, 1.598807858502155e-08, 0))
hIsland = hIsland.sub(rect(1e-08, -1.6413742467060047e-10).transl(5.913092676766993e-08, 4e-08, 0))
hIsland = hIsland.add(rect(1e-08, 2.0353422466864774e-09).transl(4.017074053431805e-08, 4e-08, 0))
hIsland = hIsland.sub(rect(1e-08, -5.235699554644008e-10).transl(9.053858230362106e-08, 4e-08, 0))
hIsland = hIsland.sub(rect(1e-08, -2.3066426893696983e-09).transl(-8.347354735493151e-08, 4e-08, 0))
hIsland = hIsland.sub(rect(1e-08, -1.9350564702535064e-09).transl(-7.996931346591205e-08, 4e-08, 0))
hIsland = hIsland.sub(rect(1e-08, -1.3045094546372317e-09).transl(1.1826791705919479e-07, 4e-08, 0))
hIsland = hIsland.add(rect(1e-08, 5.473323334582594e-09).transl(6.419305248873838e-08, 4e-08, 0))
hIsland = hIsland.add(rect(1e-08, 3.1075426536690665e-09).transl(6.083317701360076e-08, 4e-08, 0))
hIsland = hIsland.sub(rect(1e-08, -1.180139072896324e-10).transl(-1.0625472653170053e-07, 4e-08, 0))
hIsland = hIsland.add(rect(1e-08, 7.595798627467698e-09).transl(9.617832537849502e-08, 4e-08, 0))
hIsland = hIsland.add(rect(1e-08, 5.942100876311046e-09).transl(-4.5722843957922826e-08, 4e-08, 0))
hIsland = hIsland.add(rect(1e-08, 8.261634442382858e-09).transl(2.4205823841543345e-08, 4e-08, 0))
hIsland = hIsland.add(rect(1e-08, 2.394241645350908e-09).transl(-1.0416312085522777e-07, 4e-08, 0))
hIsland = hIsland.sub(rect(1e-08, -1.0477606543113732e-09).transl(1.123004591299624e-07, 4e-08, 0))
hIsland = hIsland.add(rect(1e-08, 2.661043028167197e-09).transl(-1.1664035087296189e-07, 4e-08, 0))
hIsland = hIsland.add(rect(1e-08, 2.552504096103807e-09).transl(-1.2087223442114896e-07, 4e-08, 0))
hIsland = hIsland.add(rect(1e-08, 1.1781204522758276e-09).transl(9.857640486977846e-08, 4e-08, 0))
hIsland = hIsland.add(rect(1e-08, 3.1332266245687987e-09).transl(2.494979516824546e-08, 4e-08, 0))
hIsland = hIsland.add(rect(1e-08, 9.541863667162197e-10).transl(-6.456664820241334e-08, 4e-08, 0))
hIsland = hIsland.sub(rect(1e-08, -1.5357887284975514e-09).transl(1.0783452723883769e-07, 4e-08, 0))
hIsland = hIsland.add(rect(1e-08, 4.962154508722066e-09).transl(-1.285779425206211e-07, 4e-08, 0))
hIsland = hIsland.sub(rect(1e-08, -2.241544282403269e-09).transl(1.2103763329539283e-07, 4e-08, 0))
hIsland = hIsland.sub(rect(1e-08, -3.5372524501649492e-09).transl(2.319411740627741e-08, 4e-08, 0))
hIsland = hIsland.add(rect(1e-08, 4.392348562110111e-09).transl(1.1843120464636627e-07, 4e-08, 0))
hIsland = hIsland.sub(rect(1e-08, -4.338308380028538e-09).transl(1.4312518983407951e-07, 3.362340879382656e-08, 0))
hIsland = hIsland.add(rect(1e-08, 4.172224794062118e-09).transl(-1.0557940972191716e-07, 4e-08, 0))
hIsland = hIsland.add(rect(1e-08, 2.1492009750597525e-09).transl(-1.058440860690908e-07, 4e-08, 0))
hIsland = hIsland.sub(rect(1e-08, -2.4224136525244333e-09).transl(1.986670040749503e-08, 4e-08, 0))
hIsland = hIsland.add(rect(1e-08, 5.6020587976449846e-09).transl(4.374793350388362e-08, 4e-08, 0))
hIsland = hIsland.add(rect(1e-08, 3.39324551452405e-09).transl(-9.422816882418642e-08, 4e-08, 0))
hIsland = hIsland.add(rect(1e-08, 1.8134852783285575e-09).transl(1.0369343470491314e-07, 4e-08, 0))
hIsland = hIsland.add(rect(1e-08, 8.587782570969874e-09).transl(7.79285871379274e-08, 4e-08, 0))
hIsland = hIsland.sub(rect(1e-08, -6.754857745818628e-10).transl(-1.3208659762738383e-07, 4e-08, 0))
hIsland = hIsland.add(rect(1e-08, 3.2572390311819073e-09).transl(-1.1745454270985418e-07, 4e-08, 0))
hIsland = hIsland.add(rect(1e-08, 2.81598639068814e-09).transl(-1.1480718623802205e-07, 4e-08, 0))
hIsland = hIsland.sub(rect(1e-08, -9.641707294096452e-09).transl(-9.756948072673197e-08, 4e-08, 0))
hIsland = hIsland.sub(rect(1e-08, -2.65636818394134e-10).transl(-1.247543268327439e-07, 4e-08, 0))
hIsland = hIsland.sub(rect(1e-08, -1.3810439432277572e-09).transl(6.890516210400215e-08, 4e-08, 0))
hIsland = hIsland.add(rect(1e-08, 1.0208113205540008e-08).transl(-7.83969341467912e-08, 4e-08, 0))
hIsland = hIsland.add(rect(1e-08, 5.972943639791344e-09).transl(2.132624927900301e-08, 4e-08, 0))
hIsland = hIsland.sub(rect(1e-08, -1.1767519188273056e-09).transl(1.4445212724990247e-07, 3.1059202588507744e-08, 0))
hIsland = hIsland.sub(rect(1e-08, -5.142946882922596e-09).transl(1.3406809795069256e-07, 4e-08, 0))
hIsland = hIsland.add(rect(1e-08, 2.305941074362305e-10).transl(-1.3664681661698384e-07, 3.975820206353186e-08, 0))
hIsland = hIsland.add(rect(1e-08, 2.5753344104380674e-09).transl(-7.685263804733902e-09, 4e-08, 0))
hIsland = hIsland.add(rect(1e-08, 5.899509342117496e-09).transl(-5.909633951272663e-08, 4e-08, 0))
hIsland = hIsland.add(rect(1e-08, 4.428525361819134e-09).transl(2.2653621090605196e-08, 4e-08, 0))
hIsland = hIsland.sub(rect(1e-08, -2.933481130644341e-10).transl(-1.1613761670632227e-07, 4e-08, 0))
hIsland = hIsland.add(rect(1e-08, 2.0452923992774627e-09).transl(3.0375681120106083e-08, 4e-08, 0))
hIsland = hIsland.sub(rect(1e-08, -3.1239343768621007e-09).transl(1.614565241889477e-08, 4e-08, 0))
hIsland = hIsland.add(rect(1e-08, 1.1695739208954561e-09).transl(-7.700685778955232e-08, 4e-08, 0))
hIsland = hIsland.add(rect(1e-08, 3.569213451789475e-09).transl(-6.686127891893503e-08, 4e-08, 0))
hIsland = hIsland.sub(rect(1e-08, -7.990399736285445e-10).transl(-4.688030784834039e-08, 4e-08, 0))
hIsland = hIsland.add(rect(1e-08, 2.778723707825987e-09).transl(1.1790048826627197e-07, 4e-08, 0))
hIsland = hIsland.sub(rect(1e-08, -5.726861596461233e-09).transl(1.1318497266958115e-07, 4e-08, 0))
hIsland = hIsland.sub(rect(1e-08, -1.761987190352686e-09).transl(-1.1855868070685392e-07, 4e-08, 0))
hIsland = hIsland.add(rect(1e-08, 3.3621161117946372e-09).transl(2.3631080289937373e-08, 4e-08, 0))
hIsland = hIsland.add(rect(1e-08, 7.28557227338763e-09).transl(-5.294629034968431e-09, 4e-08, 0))
hIsland = hIsland.add(rect(1e-08, 5.729972760176637e-10).transl(3.440388371668852e-08, 4e-08, 0))
hIsland = hIsland.sub(rect(1e-08, -1.4888054445144438e-09).transl(1.3171505038704388e-08, 4e-08, 0))
hIsland = hIsland.add(rect(1e-08, 7.37480181896708e-10).transl(-6.833117932012929e-08, 4e-08, 0))
hIsland = hIsland.sub(rect(1e-08, -6.255868110350157e-09).transl(-4.2925707946322036e-08, 4e-08, 0))
hIsland = hIsland.sub(rect(1e-08, -5.371726045414445e-09).transl(-1.0091947807472096e-07, 4e-08, 0))
hIsland = hIsland.add(rect(1e-08, 4.388226325209331e-09).transl(-2.085909206087052e-08, 4e-08, 0))
hIsland = hIsland.add(rect(1e-08, 2.312471495145802e-09).transl(7.214351688267917e-08, 4e-08, 0))
hIsland = hIsland.add(rect(1e-08, 1.157215534697977e-09).transl(-9.67450953256787e-08, 4e-08, 0))
hIsland = hIsland.add(rect(1e-08, 4.054297863061433e-09).transl(4.235458907700345e-08, 4e-08, 0))
hIsland = hIsland.add(rect(1e-08, 6.528086937669178e-09).transl(-6.565130072072873e-08, 4e-08, 0))
hIsland = hIsland.add(rect(1e-08, 2.1957662725414453e-09).transl(-1.3010151171052645e-07, 4e-08, 0))
hIsland = hIsland.sub(rect(1e-08, -1.6764729896908898e-09).transl(4.8575991622720615e-08, 4e-08, 0))
hIsland = hIsland.sub(rect(1e-08, -4.156474015019721e-09).transl(-5.541152934850924e-08, 4e-08, 0))
hIsland = hIsland.sub(rect(1e-08, -9.170695851338392e-10).transl(8.918696697427508e-08, 4e-08, 0))
hIsland = hIsland.add(rect(1e-08, 2.713891934281917e-09).transl(4.4071176109166984e-08, 4e-08, 0))
vIsland := hIsland.rotz(pi / 2)
vIslands := Universe().Inverse()
hIslands := Universe().Inverse()
hIslands = hIslands.add(hIsland.transl(-a/2, a, 0))
hIslands = hIslands.add(hIsland.transl(-a/2, -a, 0))
hIslands = hIslands.add(hIsland.transl(a/2, a, 0))
hIslands = hIslands.add(hIsland.transl(a/2, -a, 0))
hIslands = hIslands.add(hIsland.transl(-a/2, 0, 0))
hIslands = hIslands.add(hIsland.transl(a/2, 0, 0))
vIslands = vIslands.add(vIsland.transl(-a, a/2, 0))
vIslands = vIslands.add(vIsland.transl(a, a/2, 0))
vIslands = vIslands.add(vIsland.transl(-a, -a/2, 0))
vIslands = vIslands.add(vIsland.transl(a, -a/2, 0))
vIslands = vIslands.add(vIsland.transl(0, a/2, 0))
vIslands = vIslands.add(vIsland.transl(0, -a/2, 0))
DefRegion(1, hIslands)
DefRegion(2, vIslands)
TableAdd(m_full.Region(1))
TableAdd(m_full.Region(2))
setgeom(hIslands.add(vIslands))
save(m)
r2o2 := sqrt(2) / 2
m = RandomMagSeed(4)
B_ext = vector(Bmax*r2o2, Bmax*r2o2, 0)
relax()
minimize()
for B := Bmax; B >= -Bmax; B -= Bstep {
	B_ext = vector(B*r2o2, B*r2o2, 0)
	minimize()
	tablesave()
}
//********************************************************************//
//Please cite the following references, relevant for your simulation. //
//See bibtex file in output folder for justification.                 //
//********************************************************************//
//   * Vansteenkiste et al., AIP Adv. 4, 107133 (2014).
//   * Exl et al., J. Appl. Phys. 115, 17D118 (2014).
