# t (s)	mx ()	my ()	mz ()	B_extx (T)	B_exty (T)	B_extz (T)	m_fullx (A/m)	m_fully (A/m)	m_fullz (A/m)	m_full.region1x (A/m)	m_full.region1y (A/m)	m_full.region1z (A/m)	m_full.region2x (A/m)	m_full.region2y (A/m)	m_full.region2z (A/m)
0	0.64931405	0.6493147	-3.1108896e-10	0.07071087	0.07071087	0	87086	87086.09	-4.5e-05	626959.4	282081	-0.00027400834	282080.25	626959.6	-0.00018756524
0	0.64922434	0.6492238	-2.6131472e-10	0.07056911	0.07056911	0	87073.98	87073.89	-4.125e-05	627033.3	281880.44	-0.00028053235	281880.8	627032.75	-0.00019490474
0	0.64912915	0.6491285	-2.364276e-10	0.07042788	0.07042788	0	87061.195	87061.1	-3e-05	627112.1	281668.28	-0.00016962421	281668.72	627111.6	-0.00011743215
0	0.64903325	0.6490325	-4.2930276e-10	0.07028652	0.07028653	0	87048.33	87048.234	-5.59375e-05	627190.94	281455.12	-0.00027400834	281455.6	627190.3	-0.00030662838
0	0.6489379	0.6489372	-3.1108896e-10	0.070144884	0.070144884	0	87035.555	87035.45	-4.625e-05	627270.4	281242.2	-0.00018919625	281242.66	627269.9	-0.00027645484
0	0.6488421	0.64884144	-3.048672e-10	0.07000352	0.07000352	0	87022.72	87022.61	-3.75e-05	627349.44	281029.06	-0.00020224426	281029.56	627348.9	-0.00024954331
0	0.648746	0.64874524	-5.0085325e-10	0.06986229	0.06986229	0	87009.82	87009.71	-6.46875e-05	627428.5	280815.4	-0.00034577245	280815.88	627428	-0.00031967642
0	0.64865017	0.64864945	-1.4932271e-10	0.069720544	0.069720544	0	86996.97	86996.86	-2.15625e-05	627507.44	280602.28	-8.807411e-05	280602.78	627506.94	-0.00014923669
0	0.6485531	0.64855236	-2.924236e-10	0.069579184	0.06957919	0	86983.945	86983.84	-4.25e-05	627587.3	280386.62	-0.00018267223	280387.06	627586.75	-0.00025525183
0	0.6484561	0.6484553	-2.5820385e-10	0.069437966	0.069437966	0	86970.93	86970.83	-3.0625e-05	627666.44	280171.62	-0.0002413883	280172.1	627665.9	-0.00012395615
0	0.6483595	0.6483587	-3.3597608e-10	0.069296576	0.069296576	0	86957.97	86957.875	-4.125e-05	627745.8	279956.88	-0.00028379436	279957.34	627745.25	-0.0002316023
0	0.64826167	0.64826095	-8.7415997e-10	0.06915496	0.069154955	0	86944.86	86944.766	-0.00011875	627825.06	279740.94	-0.00065240083	279741.4	627824.4	-0.0005773747
0	0.6481655	0.6481648	-2.2709494e-10	0.069013596	0.069013596	0	86931.96	86931.84	-3.25e-05	627904.25	279527	-0.00019572025	279527.47	627903.7	-0.00014352819
0	0.6480668	0.648066	-2.6442562e-10	0.068872236	0.068872236	0	86918.72	86918.62	-3.40625e-05	627984.06	279309	-0.00028705638	279309.47	627983.44	-0.00012395615
0	0.6479705	0.6479697	-1.9287516e-10	0.06873064	0.06873064	0	86905.8	86905.7	-2.875e-05	628063	279095.22	-0.00014352819	279095.7	628062.4	-0.00018919625
0	0.6478717	0.64787096	-1.4310092e-10	0.06858927	0.06858927	0	86892.555	86892.45	-2.375e-05	628142.9	278877.03	-0.00015005219	278877.47	628142.3	-0.00013048017
0	0.64777374	0.64777297	-3.9819387e-10	0.068448015	0.068448015	0	86879.414	86879.31	-5.46875e-05	628222.44	278660.34	-0.0003164144	278660.75	628221.9	-0.0002299713
0	0.64767534	0.6476746	-2.364276e-10	0.06830665	0.06830665	0	86866.22	86866.125	-2.875e-05	628302.2	278442.84	-9.1336115e-05	278443.3	628301.6	-0.00017125522
0	0.64757687	0.6475761	-2.1465138e-10	0.06816504	0.068165034	0	86853.01	86852.91	-2.625e-05	628381.94	278225.22	-0.00011090814	278225.66	628381.3	-0.0001565762
0	0.647478	0.64747727	-1.804316e-10	0.068023674	0.068023674	0	86839.75	86839.63	-1.6875e-05	628461.25	278007.44	-0.00025769832	278007.9	628460.7	-8.155011e-06
0	0.64737797	0.64737725	-1.6176625e-10	0.06788232	0.06788232	0	86826.336	86826.23	-2.25e-05	628541.5	277787.25	-0.00018267223	277787.75	628540.8	-8.3181105e-05
0	0.64728004	0.64727926	-3.297543e-10	0.067740716	0.067740716	0	86813.2	86813.1	-4.96875e-05	628620.8	277570.78	-0.00017288623	277571.22	628620.3	-0.00035882046
0	0.6471794	0.64717865	-2.4576027e-10	0.06759932	0.06759932	0	86799.71	86799.61	-3.625e-05	628701.25	277349.53	-0.00021855428	277350	628700.6	-0.00018674973
0	0.64708024	0.6470794	-4.23081e-10	0.06745809	0.06745809	0	86786.41	86786.305	-6e-05	628781.2	277130.62	-0.00035229645	277131.12	628780.6	-0.00027727036
0	0.64698046	0.64697963	-1.4310092e-10	0.067316726	0.067316726	0	86773.016	86772.91	-1.625e-05	628861.2	276911	-0.00011090814	276911.47	628860.5	-7.1764094e-05
0	0.6468805	0.6468796	-1.8976426e-10	0.067174986	0.067174986	0	86759.6	86759.49	-2.40625e-05	628941	276691.12	-0.00016310021	276691.6	628940.3	-8.562761e-05
0	0.64678013	0.64677936	-3.4841963e-10	0.06703377	0.06703377	0	86746.14	86746.04	-4.375e-05	629020.94	276470.75	-0.00028705638	276471.25	629020.25	-0.00018756524
0	0.64667934	0.64667857	-3.4530875e-10	0.066892385	0.066892385	0	86732.625	86732.53	-4.5625e-05	629101.1	276249.44	-0.00021855428	276249.94	629100.56	-0.00025769832
0	0.64657843	0.6465778	-6.221779e-11	0.06675075	0.066750765	0	86719.1	86719.01	-8.75e-06	629181.25	276028.16	-0.00019245825	276028.66	629180.7	9.459812e-05
0	0.64647746	0.6464766	-3.8575032e-10	0.0666094	0.0666094	0	86705.555	86705.44	-5.625e-05	629261.4	275806.47	-0.00035229645	275806.97	629260.8	-0.00026259135
0	0.6463761	0.64637536	-3.7330675e-10	0.06646816	0.066468164	0	86691.96	86691.85	-4.75e-05	629341.7	275584.4	-0.00028705638	275584.9	629341	-0.00021855428
0	0.6462747	0.64627385	-1.3065736e-10	0.06632643	0.06632643	0	86678.37	86678.25	-1.96875e-05	629422.06	275362.03	-0.00016962421	275362.53	629421.44	-6.3609084e-05
0	0.6461734	0.6461727	-4.5418988e-10	0.06618507	0.06618507	0	86664.77	86664.664	-6.25e-05	629502	275140.3	-0.00036534446	275140.8	629501.3	-0.00033435543
0	0.64607084	0.64607	-3.1731073e-10	0.06604384	0.06604384	0	86651.016	86650.914	-3.71875e-05	629582.9	274915.78	-0.00037513048	274916.28	629582.2	-0.00012721817
0	0.64596903	0.6459682	-2.3020583e-10	0.065902434	0.065902434	0	86637.36	86637.26	-3.375e-05	629663.06	274693.06	-0.00026096034	274693.56	629662.44	-0.00012314066
0	0.64586663	0.64586586	-4.9152055e-10	0.06576085	0.06576085	0	86623.63	86623.53	-6.625e-05	629743.4	274469.4	-0.00041753653	274469.9	629742.9	-0.0003147834
0	0.64576405	0.6457632	-1.6798804e-10	0.065619476	0.065619476	0	86609.87	86609.76	-2e-05	629823.4	274245.72	-7.82881e-05	274246.22	629822.9	-0.00016636221
0	0.6456609	0.64566004	-4.852988e-10	0.06547824	0.06547824	0	86596.03	86595.92	-6.28125e-05	629903.94	274020.8	-0.00041753653	274021.34	629903.2	-0.00029847337
0	0.64555824	0.6455574	-5.101859e-10	0.06533652	0.06533652	0	86582.27	86582.16	-6.5e-05	629984.8	273796.16	-0.0004697286	273796.72	629984.2	-0.00027237734
0	0.6454542	0.64545345	-9.332669e-11	0.06519514	0.06519514	0	86568.33	86568.21	-1.125e-05	630064.94	273570.53	-1.3048017e-05	273571.03	630064.3	-0.00014352819
0	0.6453507	0.6453498	-4.448572e-10	0.065053925	0.065053925	0	86554.42	86554.32	-5.75e-05	630146	273344.34	-0.00022507829	273344.88	630145.4	-0.00043221554
0	0.64524776	0.645247	-2.5509295e-10	0.064912505	0.064912505	0	86540.625	86540.52	-3.5e-05	630226.6	273119.66	-0.00013048017	273120.2	630226.06	-0.0002373108
0	0.6451418	0.64514095	-2.8620184e-10	0.06477093	0.06477093	0	86526.41	86526.3	-3.4375e-05	630308.56	272889.4	-0.00015005219	272889.9	630307.94	-0.00019572025
0	0.6450395	0.6450387	-2.5509295e-10	0.06462956	0.06462956	0	86512.7	86512.58	-3.75e-05	630388	272666.84	-0.00020224426	272667.34	630387.4	-0.00022834029
0	0.6449343	0.6449335	-3.7330675e-10	0.06448818	0.06448818	0	86498.59	86498.48	-5.25e-05	630468.56	272438.94	-0.0002316023	272439.44	630467.94	-0.0003229384
0	0.64483	0.64482903	-2.7998007e-10	0.0643466	0.0643466	0	86484.586	86484.48	-3.9375e-05	630549.56	272211.8	-0.00025769832	272212.3	630548.94	-0.00020550627
0	0.6447251	0.64472425	-3.608632e-10	0.06420522	0.06420524	0	86470.52	86470.42	-5.40625e-05	630630.75	271983.88	-0.00026748434	271984.38	630630.1	-0.00028053235
0	0.64461994	0.64461917	-4.6041165e-10	0.064063966	0.064063966	0	86456.445	86456.32	-5.875e-05	630711.94	271755.53	-0.00022181628	271756.1	630711.3	-0.0003979645
0	0.6445148	0.64451396	-2.5509295e-10	0.063922584	0.063922584	0	86442.32	86442.21	-3.25e-05	630792.7	271527.5	-0.00020224426	271528	630792.06	-0.00015983821
0	0.6444084	0.6444076	-1.804316e-10	0.06378101	0.06378101	0	86428.055	86427.95	-2.5625e-05	630874.4	271296.97	-3.914405e-05	271297.53	630873.6	-0.00018674973
0	0.64430326	0.6443024	-2.3020583e-10	0.06363963	0.06363963	0	86413.96	86413.84	-2.75e-05	630955	271069.06	-0.00026096034	271069.6	630954.4	-6.931759e-05
0	0.6441976	0.64419675	-2.4887117e-10	0.06349824	0.06349824	0	86399.766	86399.67	-3.34375e-05	631035.8	270840.22	-0.00020224426	270840.72	631035.25	-0.00016636221
0	0.64409035	0.6440895	-4.79077e-10	0.06335668	0.06335668	0	86385.4	86385.28	-6.21875e-05	631117.2	270608.75	-0.00028053235	270609.25	631116.56	-0.0003930715
0	0.64398414	0.64398336	-2.8931274e-10	0.06321528	0.06321527	0	86371.16	86371.04	-4e-05	631198.5	270378.75	-0.0003131524	270379.25	631197.94	-0.00016473122
0	0.64387757	0.64387673	-3.6708497e-10	0.06307404	0.06307404	0	86356.85	86356.734	-4.84375e-05	631279.56	270148.34	-0.00017288623	270148.88	631279	-0.00030010438
0	0.6437702	0.64376944	-9.954847e-11	0.062932655	0.062932655	0	86342.45	86342.35	-1.25e-05	631361.1	269916.62	6.5240083e-06	269917.16	631360.5	-0.00016391571
0	0.6436626	0.6436618	-3.3597608e-10	0.062790945	0.062790945	0	86328.02	86327.914	-4.375e-05	631442.4	269684.72	-0.00020876827	269685.25	631441.75	-0.00026585333
0	0.64355516	0.6435543	-3.1731073e-10	0.062649705	0.062649705	0	86313.625	86313.5	-4.34375e-05	631523.94	269452.7	-0.00024465032	269453.22	631523.3	-0.00019898225
0	0.64344776	0.64344686	-4.2930276e-10	0.06250833	0.06250833	0	86299.22	86299.1	-5.625e-05	631605.3	269221.1	-0.00026422233	269221.66	631604.56	-0.00032783143
0	0.6433397	0.64333886	-2.5198205e-10	0.06236674	0.06236674	0	86284.72	86284.6	-3.875e-05	631686.25	268988.78	-0.0002348643	268989.28	631685.7	-0.00015983821
0	0.64322996	0.64322907	-2.115405e-10	0.062225346	0.062225346	0	86270	86269.88	-2.5625e-05	631768.8	268752.5	-0.00017941023	268753.06	631768.1	-0.00012721817
0	0.64312285	0.6431221	-1.3687915e-10	0.06208412	0.06208412	0	86255.65	86255.52	-1.5625e-05	631849.8	268521.78	-6.8502086e-05	268522.34	631849.1	-0.00011253914
0	0.6430145	0.6430136	1.462118e-10	0.061942417	0.061942417	0	86241.09	86240.984	1.625e-05	631930.94	268288.78	0	268289.34	631930.2	0.00019653575
0	0.6429055	0.6429046	-4.2930276e-10	0.061801024	0.06180102	0	86226.48	86226.36	-5.4375e-05	632012.25	268054.78	-0.0003131524	268055.34	632011.6	-0.00029031836
0	0.64279604	0.6427952	-3.1731073e-10	0.06165979	0.06165979	0	86211.81	86211.69	-4.84375e-05	632094.3	267819.7	-0.00018919625	267820.2	632093.6	-0.0002968424
0	0.64268595	0.6426851	-2.426494e-10	0.061518367	0.061518367	0	86197.05	86196.93	-3.25e-05	632175.7	267584.2	-0.0002348643	267584.72	632175.06	-0.00013700417
0	0.64257663	0.64257574	-2.0220782e-10	0.06137681	0.061376818	0	86182.37	86182.26	-2.84375e-05	632257.94	267348.7	-0.00010438413	267349.25	632257.4	-0.00017451722
0	0.6424664	0.6424656	-3.4530875e-10	0.061235435	0.061235435	0	86167.59	86167.48	-4.71875e-05	632339.8	267112.62	-0.00021203027	267113.2	632339.2	-0.00024709682
0	0.6423568	0.642356	-2.9864541e-10	0.061094042	0.061094042	0	86152.89	86152.79	-3.875e-05	632421.5	266877.53	-0.00032620042	266878.06	632420.9	-8.07346e-05
0	0.642246	0.6422451	-3.2042163e-10	0.060952503	0.060952503	0	86138.03	86137.91	-4.4375e-05	632503.25	266640.5	-0.00029358038	266641.06	632502.56	-0.00020876827
0	0.64213556	0.6421347	-6.47065e-10	0.060811102	0.060811102	0	86123.23	86123.1	-8.59375e-05	632585.3	266403.9	-0.0004697286	266404.47	632584.56	-0.00048685411
0	0.64202446	0.6420235	-2.2709494e-10	0.06066984	0.06066984	0	86108.31	86108.2	-3e-05	632667.4	266166.28	-0.00019572025	266166.84	632666.7	-0.00018104124
0	0.6419134	0.6419125	-2.0220782e-10	0.060528446	0.060528446	0	86093.44	86093.31	-2.90625e-05	632749.25	265928.94	-0.00011743215	265929.5	632748.56	-0.00018593424
0	0.6418021	0.6418012	-2.3020583e-10	0.0603869	0.060386896	0	86078.484	86078.375	-3.75e-05	632831.1	265691.2	-0.00020550627	265691.72	632830.4	-0.00017370172
0	0.64169043	0.6416896	-2.675365e-10	0.060245506	0.060245506	0	86063.53	86063.414	-3.125e-05	632913.25	265452.8	-0.0002348643	265453.38	632912.56	-0.00018756524
0	0.6415788	0.64157784	-2.1776227e-10	0.060104124	0.060104124	0	86048.54	86048.43	-2.90625e-05	632994.94	265214.72	-0.00024465032	265215.28	632994.4	-7.82881e-05
0	0.64146537	0.64146453	-5.5373833e-10	0.059962578	0.05996258	0	86033.336	86033.23	-7.0625e-05	633076.8	264974.12	-0.00042079855	264974.7	633076.25	-0.00037349947
0	0.64135325	0.64135236	-4.9774233e-11	0.059821147	0.059821147	0	86018.3	86018.18	-1e-05	633159.4	264734.62	-2.6096033e-05	264735.2	633158.8	-6.0347076e-05
0	0.6412415	0.64124054	-9.332669e-11	0.059679918	0.059679918	0	86003.305	86003.18	-1.21875e-05	633241.5	264495.94	-8.4812105e-05	264496.56	633240.8	-6.5240083e-06
0	0.64112693	0.6411261	-3.1108896e-10	0.05953851	0.05953851	0	85987.945	85987.83	-4.28125e-05	633324	264253.16	-0.00027727036	264253.72	633323.25	-0.0001582072
0	0.64101493	0.641014	-2.5198205e-10	0.059396826	0.059396826	0	85972.91	85972.8	-4.375e-05	633406.25	264014.1	-0.00020876827	264014.66	633405.56	-0.00019164274
0	0.64090025	0.64089936	-2.4887117e-10	0.059255596	0.059255596	0	85957.53	85957.414	-3.5e-05	633489.06	263770.72	-0.00022834029	263771.3	633488.4	-0.00016962421
0	0.6407881	0.6407872	-2.737583e-10	0.059114188	0.059114188	0	85942.5	85942.375	-3.96875e-05	633570.7	263532.03	-0.00022181628	263532.62	633570	-0.00016636221
0	0.6406731	0.6406722	-4.0441564e-10	0.058972627	0.058972627	0	85927.086	85926.95	-5.75e-05	633653.9	263287.97	-0.00041753653	263288.53	633653.1	-0.0002299713
0	0.6405594	0.6405585	-7.155046e-11	0.058831234	0.058831234	0	85911.83	85911.7	-8.125e-06	633735.9	263046.72	-4.2406053e-05	263047.28	633735.2	-8.1550104e-05
0	0.6404446	0.6404437	-4.9774233e-11	0.05868999	0.05868999	0	85896.43	85896.305	-3.4375e-06	633818.7	262803.2	-9.786013e-06	262803.8	633818	-8.644311e-05
0	0.64033014	0.6403293	-3.4530875e-10	0.0585483	0.0585483	0	85881.09	85880.97	-4.5e-05	633900.94	262560.78	-0.00026096034	262561.38	633900.1	-0.00021203027
0	0.6402151	0.6402142	-1.524336e-10	0.058406904	0.058406904	0	85865.65	85865.53	-2.15625e-05	633983.44	262317.1	-8.1550104e-05	262317.7	633982.8	-0.00020224426
0	0.6400995	0.6400986	-1.8665338e-11	0.058265664	0.058265664	0	85850.15	85850.02	-3.75e-06	634066.06	262072.77	8.4812105e-05	262073.34	634065.3	-0.00011580115
0	0.63998455	0.6399837	-3.608632e-10	0.05812423	0.058124237	0	85834.734	85834.61	-4.375e-05	634148.44	261829.42	-0.0002348643	261830.02	634147.7	-0.00033435543
0	0.63986796	0.639867	-2.8620184e-10	0.057982713	0.057982713	0	85819.086	85818.96	-3.90625e-05	634231.2	261583.27	-0.00015005219	261583.84	634230.5	-0.00029031836
0	0.6397526	0.6397518	-1.9909693e-10	0.057841305	0.05784131	0	85803.625	85803.5	-2.375e-05	634313.94	261339.2	-0.00015005219	261339.81	634313.25	-0.00011498565
0	0.6396361	0.6396352	-1.4310092e-10	0.057699904	0.057699904	0	85788	85787.875	-2.25e-05	634396.25	261093.66	-7.82881e-05	261094.27	634395.56	-0.00013700417
0	0.6395188	0.63951784	-2.0531872e-10	0.057558388	0.057558388	0	85772.266	85772.13	-3.0625e-05	634479.6	260846.12	-0.00022507829	260846.7	634478.9	-0.00013455767
0	0.6394024	0.63940144	-4.6974435e-10	0.057416987	0.057416987	0	85756.66	85756.53	-6.4375e-05	634562.56	260600.3	-0.00036860647	260600.89	634561.8	-0.00034821895
0	0.63928616	0.6392852	-3.7952852e-10	0.05727571	0.05727571	0	85741.055	85740.93	-4.375e-05	634644.8	260355.16	-0.0002479123	260355.77	634644.1	-0.0003107059
0	0.6391677	0.6391668	-1.213247e-10	0.0571343	0.0571343	0	85725.18	85725.06	-1.9375e-05	634727.8	260106.42	-0.0001565762	260107.02	634727.1	-3.2620042e-05
0	0.63905066	0.63904965	-3.1108896e-10	0.05699279	0.05699279	0	85709.47	85709.34	-4.09375e-05	634810.3	259859.94	-0.00018267223	259860.52	634809.7	-0.00026014482
0	0.6389326	0.6389317	-4.0130477e-10	0.056851387	0.056851387	0	85693.65	85693.516	-5.75e-05	634893.8	259611.28	-0.00020876827	259611.88	634893.1	-0.00043547756
0	0.6388144	0.6388135	-2.5509295e-10	0.056709986	0.05670998	0	85677.8	85677.664	-3.40625e-05	634976.5	259363	-0.0002316023	259363.62	634975.94	-0.00010438413
0	0.63869536	0.63869447	-5.91069e-10	0.05656847	0.05656847	0	85661.83	85661.695	-7.75e-05	635059.8	259113.02	-0.00045015657	259113.64	635059.2	-0.00042650706
0	0.6385774	0.6385764	-2.426494e-10	0.05642703	0.05642703	0	85645.99	85645.87	-3.375e-05	635143.06	258864.64	-0.00026096034	258865.25	635142.4	-8.236561e-05
0	0.6384581	0.6384571	-2.0220782e-10	0.056285787	0.056285787	0	85629.99	85629.875	-2.5625e-05	635226.44	258614.25	-0.00013374217	258614.86	635225.75	-0.0001565762
0	0.63833654	0.6383356	-8.710491e-11	0.05614437	0.056144364	0	85613.695	85613.57	-1.09375e-05	635310.6	258359.98	-0.00033272442	258360.62	635309.9	0.00014679019
0	0.6382199	0.63821894	-2.924236e-10	0.056002706	0.056002706	0	85598.055	85597.93	-3.25e-05	635392.06	258115.2	-0.00021529228	258115.83	635391.4	-0.00020713726
0	0.6380998	0.6380989	-1.8665337e-10	0.05586147	0.055861473	0	85581.95	85581.82	-2.5e-05	635475.2	257864.1	-0.00018267223	257864.72	635474.3	-5.2192067e-05
0	0.637979	0.63797796	-3.5153053e-10	0.05572005	0.055720054	0	85565.734	85565.6	-4.15625e-05	635559.1	257610.77	-0.00025769832	257611.4	635558.3	-0.00022100078
0	0.6378564	0.63785547	-2.7998007e-10	0.05557856	0.05557856	0	85549.3	85549.17	-3.375e-05	635643.8	257354.56	-0.00016962421	257355.2	635643	-0.00020795276
0	0.63773847	0.6377375	-3.608632e-10	0.0554371	0.055437103	0	85533.49	85533.36	-5.375e-05	635725.6	257107.64	-0.00024465032	257108.28	635724.94	-0.00034577245
0	0.63761795	0.637617	-3.4219785e-10	0.05529586	0.05529586	0	85517.31	85517.19	-4.8125e-05	635808.8	256855.67	-0.00021529228	256856.3	635808	-0.00029031836
0	0.63749677	0.6374958	-1.3376825e-10	0.055154454	0.055154454	0	85501.08	85500.94	-2.125e-05	635892	256602.94	-2.6096033e-05	256603.58	635891.25	-0.00016799322
0	0.6373754	0.63737446	-4.23081e-10	0.05501279	0.05501279	0	85484.8	85484.66	-6.0625e-05	635975.4	256349.61	-0.00021529228	256350.28	635974.6	-0.00045015657
0	0.6372533	0.63725233	-4.3552453e-10	0.054871544	0.054871544	0	85468.414	85468.29	-5.3125e-05	636059	256095.08	-0.0003131524	256095.69	636058.25	-0.00034821895
0	0.6371312	0.63713014	-3.6397407e-10	0.05473013	0.054730132	0	85452.02	85451.89	-4.875e-05	636142.9	255840.1	-0.0003131524	255840.73	636142.1	-0.00023894181
0	0.6370092	0.63700825	-1.9909693e-10	0.054588605	0.054588605	0	85435.68	85435.55	-2.875e-05	636226.1	255586.16	-0.00020224426	255586.81	636225.44	-8.1550104e-05
0	0.63688624	0.6368852	-1.0265936e-10	0.05444718	0.05444718	0	85419.18	85419.05	-9.6875e-06	636310.06	255330.08	-6.5240085e-05	255330.72	636309.2	-4.0775052e-05
0	0.63676226	0.63676125	-1.2567994e-09	0.05430595	0.05430595	0	85402.555	85402.42	-0.00016625	636393	255073.45	-0.0011841075	255074.08	636392.4	-0.00063038233
0	0.6366404	0.63663936	-2.0531872e-10	0.054164287	0.05416429	0	85386.2	85386.08	-2.8125e-05	636477	254818.9	-0.0001565762	254819.52	636476.25	-0.0001614692
0	0.6365177	0.6365167	-1.182138e-10	0.05402286	0.05402286	0	85369.74	85369.62	-1.6875e-05	636560.2	254563.89	-0.00013700417	254564.5	636559.44	-8.4812105e-05
0	0.63639355	0.6363925	-5.381839e-10	0.053881623	0.053881623	0	85353.1	85352.96	-7.5e-05	636643.94	254306.39	-0.00030010438	254307.03	636643.1	-0.00044689458
0	0.6362694	0.6362684	-2.3020583e-10	0.053740162	0.053740162	0	85336.45	85336.32	-3.0625e-05	636727.5	254049.03	-0.00010438413	254049.7	636726.75	-0.00022834029
0	0.63614506	0.63614404	-3.4219787e-11	0.053598683	0.053598683	0	85319.77	85319.64	-1.875e-06	636811.94	253790.48	5.2192067e-05	253791.16	636811.2	-0.00012232516
0	0.6360207	0.63601977	-4.9152055e-10	0.053457264	0.053457264	0	85303.1	85302.96	-6.5e-05	636895.7	253532.72	-0.0003849165	253533.39	636894.94	-0.0003098904
0	0.6358963	0.6358953	-5.848472e-10	0.05331584	0.05331584	0	85286.42	85286.29	-7.8125e-05	636979.06	253275.2	-0.00042732255	253275.88	636978.25	-0.00036860647
0	0.6357709	0.63576996	-5.91069e-10	0.053174376	0.053174376	0	85269.6	85269.46	-7.6875e-05	637062.94	253015.75	-0.00034577245	253016.39	637062.1	-0.0004746216
0	0.63564533	0.6356443	-2.7998007e-10	0.05303295	0.05303295	0	85252.75	85252.61	-3.75e-05	637147.1	252755.61	-0.0002348643	252756.31	637146.4	-0.00013211116
0	0.63551897	0.6355179	-3.7952852e-10	0.05289166	0.052891657	0	85235.8	85235.664	-4.6875e-05	637230.8	252494.98	-0.0002348643	252495.69	637230.1	-0.0002348643
0	0.63539386	0.63539284	-4.6663345e-10	0.052750226	0.052750226	0	85219.016	85218.88	-6.34375e-05	637314.75	252235.94	-0.0003131524	252236.61	637314	-0.00042813804
0	0.6352671	0.6352661	-2.2087317e-10	0.05260877	0.05260877	0	85202.03	85201.89	-2.875e-05	637399.25	251974.05	-0.0002348643	251974.73	637398.44	-0.00015005219
0	0.6351414	0.63514036	-2.737583e-10	0.052467342	0.052467342	0	85185.164	85185.03	-3.5e-05	637482.56	251714.81	-0.0002316023	251715.5	637481.8	-0.00015983821
0	0.6350143	0.63501334	-1.2754647e-10	0.052325904	0.052325908	0	85168.12	85167.98	-2.4375e-05	637566.6	251452.73	-0.00016962421	251453.4	637565.9	-6.0347076e-05
0	0.6348866	0.6348856	-2.7998007e-10	0.05218446	0.05218446	0	85151	85150.85	-4.375e-05	637651.06	251189.55	-0.00018267223	251190.25	637650.4	-0.0003139679
0	0.6347596	0.63475853	-2.426494e-10	0.052042987	0.052042987	0	85133.96	85133.81	-2.9375e-05	637735.06	250927.6	-0.00028053235	250928.27	637734.4	-3.914405e-05
0	0.63463193	0.6346309	-2.395385e-10	0.051901728	0.051901728	0	85116.84	85116.695	-3.1875e-05	637819.1	250664.9	-0.00025769832	250665.58	637818.4	-0.00012558716
0	0.634503	0.634502	-2.924236e-10	0.0517603	0.051760297	0	85099.55	85099.4	-3.875e-05	637903.75	250399.88	-0.00014352819	250400.58	637902.94	-0.00026096034
0	0.63437533	0.63437426	-4.479681e-10	0.051618665	0.051618665	0	85082.414	85082.27	-5.6875e-05	637987.9	250136.83	-0.00032946243	250137.5	637987.1	-0.00030010438
0	0.634247	0.63424593	-2.0531872e-10	0.05147742	0.05147742	0	85065.22	85065.08	-2.84375e-05	638072	249873.19	-0.00011743215	249873.88	638071.2	-0.00014026617
0	0.6341176	0.63411653	-5.35073e-10	0.051335976	0.051335983	0	85047.85	85047.71	-6.875e-05	638156.56	249607.48	-0.0004697286	249608.17	638155.7	-0.0003164144
0	0.63398904	0.633988	-3.235325e-10	0.051194493	0.051194496	0	85030.6	85030.46	-4.1875e-05	638240.4	249343.55	-0.0003033664	249344.22	638239.6	-0.00016310021
0	0.6338598	0.6338588	-5.0085325e-10	0.051053066	0.051053066	0	85013.28	85013.14	-6.65625e-05	638324.4	249078.64	-0.00043058457	249079.34	638323.6	-0.0003245694
0	0.6337301	0.6337289	-3.1108896e-10	0.050911807	0.050911807	0	84995.87	84995.734	-3.75e-05	638408.9	248812.6	-0.00016962421	248813.3	638408	-0.0003082594
0	0.63359904	0.63359797	-9.02158e-11	0.050770186	0.050770186	0	84978.305	84978.164	-1.125e-05	638493.3	248544.58	4.2406053e-05	248545.3	638492.56	-0.00016310021
0	0.63346905	0.633468	-2.4887117e-10	0.050628755	0.050628755	0	84960.85	84960.72	-3.65625e-05	638578	248277.83	-0.00011743215	248278.53	638577.3	-0.00027156185
0	0.6333383	0.6333372	-2.675365e-10	0.050487496	0.050487496	0	84943.336	84943.19	-3.5e-05	638662.6	248010.28	-0.00026096034	248011.02	638661.8	-0.0001590227
0	0.63320744	0.63320637	-2.6131472e-10	0.050346017	0.050346017	0	84925.79	84925.65	-3.34375e-05	638746.94	247742.83	-0.00018919625	247743.55	638746.1	-0.00017614823
0	0.63307583	0.63307476	-1.2443558e-11	0.05020459	0.05020459	0	84908.125	84907.984	3.125e-07	638831.5	247474.08	7.1764094e-05	247474.77	638830.7	-9.541362e-05
0	0.63294387	0.63294274	-4.852988e-10	0.05006314	0.05006314	0	84890.43	84890.28	-6.5e-05	638916.2	247204.45	-0.00030010438	247205.14	638915.4	-0.0003930715
0	0.6328123	0.63281125	-2.8309097e-10	0.049921695	0.049921695	0	84872.79	84872.66	-3.6875e-05	639000.7	246935.89	-0.00013048017	246936.61	638999.9	-0.00028053235
0	0.63268083	0.63267976	-2.2709494e-10	0.04978028	0.04978028	0	84855.16	84855.01	-2.78125e-05	639084.7	246667.78	-0.00019572025	246668.48	639083.9	-0.00011253914
0	0.63254744	0.63254637	-5.3196214e-10	0.049638826	0.049638826	0	84837.266	84837.12	-6.625e-05	639170	246395.75	-0.0003131524	246396.47	639169.2	-0.00043221554
0	0.63241476	0.6324137	-4.3241366e-10	0.049497534	0.04949753	0	84819.47	84819.32	-5.625e-05	639254.56	246125.42	-0.0003131524	246126.16	639253.75	-0.0002968424
0	0.63228214	0.632281	-3.6708497e-10	0.04935608	0.049356084	0	84801.68	84801.52	-5.25e-05	639338.9	245855.3	-0.00027400834	245856.05	639338.06	-0.00025035883
0	0.6321477	0.63214666	-5.164077e-10	0.049214657	0.049214657	0	84783.664	84783.516	-6.375e-05	639424.06	245582.11	-0.00036534446	245582.83	639423.2	-0.00033027792
0	0.6320144	0.63201326	-2.9864541e-10	0.049073208	0.04907321	0	84765.766	84765.62	-3.5625e-05	639508.7	245310.64	-0.0002479123	245311.39	639507.9	-0.00018267223
0	0.63187987	0.63187873	-5.5996013e-10	0.048931766	0.048931774	0	84747.734	84747.58	-7.1875e-05	639593.5	245037.61	-0.00040448853	245038.34	639592.7	-0.00037920798
0	0.63174593	0.6317448	-3.5464143e-10	0.04879036	0.04879036	0	84729.766	84729.62	-4.25e-05	639678.1	244765.47	-0.00027400834	244766.2	639677.25	-0.00020469076
0	0.6316111	0.63161	-4.261919e-10	0.048648857	0.048648857	0	84711.69	84711.53	-5.9375e-05	639763.1	244491.67	-0.00026748434	244492.42	639762.25	-0.00034577245
0	0.63147664	0.6314755	-4.5418988e-10	0.04850761	0.04850761	0	84693.66	84693.5	-6.3125e-05	639847.7	244218.89	-0.00036534446	244219.6	639846.8	-0.0003310934
0	0.63134116	0.63134	-9.643758e-11	0.048366148	0.048366148	0	84675.47	84675.32	-1.125e-05	639932.6	243944.25	-3.914405e-05	243944.98	639931.8	-6.0347076e-05
0	0.63120526	0.6312041	-3.8575032e-10	0.048224546	0.048224546	0	84657.26	84657.1	-4.875e-05	640017.5	243669.06	-0.00021855428	243669.83	640016.75	-0.0003164144
0	0.6310692	0.6310681	-3.048672e-10	0.048083294	0.048083294	0	84639.01	84638.85	-4.4375e-05	640102.75	243393.42	-0.00021855428	243394.17	640101.8	-0.00020713726
0	0.63093317	0.63093203	-1.3687915e-10	0.04794183	0.04794183	0	84620.76	84620.6	-2.125e-05	640187.5	243118.2	-0.00011743215	243118.92	640186.7	-0.00010846164
0	0.63079655	0.6307955	-3.017563e-10	0.047800392	0.047800392	0	84602.44	84602.29	-4.125e-05	640272.2	242842.23	-0.00018593424	242842.98	640271.3	-0.00029031836
0	0.6306599	0.63065875	-4.2930276e-10	0.04765895	0.047658946	0	84584.1	84583.95	-5.625e-05	640357.25	242565.75	-0.00027074636	242566.52	640356.44	-0.00033517092
0	0.63052255	0.6305214	-2.675365e-10	0.047517676	0.047517676	0	84565.68	84565.52	-3.875e-05	640442.56	242288.19	-0.0002348643	242288.92	640441.7	-0.00016636221
0	0.63038427	0.6303832	-2.675365e-10	0.04737623	0.047376227	0	84547.14	84546.99	-3.96875e-05	640527.75	242009.47	-0.00015005219	242010.23	640526.94	-0.0002348643
0	0.63024724	0.6302461	-7.3728085e-10	0.047234632	0.047234632	0	84528.75	84528.59	-9.625e-05	640612.5	241732.86	-0.0006980689	241733.61	640611.56	-0.00032538493
0	0.6301093	0.6301082	-1.1199203e-10	0.047093365	0.047093365	0	84510.266	84510.12	-2.125e-05	640697.5	241454.84	-0.00010438413	241455.62	640696.6	-0.00013048017
0	0.6299702	0.629969	-2.6131472e-10	0.046951856	0.046951856	0	84491.6	84491.44	-3.0625e-05	640783.1	241174.34	-0.00018593424	241175.14	640782.2	-0.00015983821
0	0.62983125	0.62983	-4.759661e-10	0.04681048	0.046810478	0	84472.96	84472.8	-6.125e-05	640868.25	240894.56	-0.00019572025	240895.33	640867.44	-0.00043547756
0	0.62969196	0.6296908	-3.577523e-10	0.046669014	0.046669014	0	84454.29	84454.125	-5.125e-05	640953.4	240614.61	-0.00033924842	240615.42	640952.44	-0.00016962421
0	0.6295529	0.6295517	-2.675365e-10	0.046527762	0.046527762	0	84435.63	84435.48	-3.5625e-05	641038.44	240334.89	-0.00016636221	240335.69	641037.5	-0.00017941023
0	0.62941325	0.629412	5.91069e-11	0.04638618	0.04638618	0	84416.9	84416.74	5e-06	641123.3	240054.45	3.2620042e-06	240055.23	641122.44	7.013309e-05
0	0.6292731	0.6292719	-4.3552453e-11	0.046244707	0.046244707	0	84398.11	84397.95	-5e-06	641208.94	239772.64	-5.8716076e-05	239773.45	641208.06	-8.155011e-06
0	0.6291333	0.62913203	-4.852988e-10	0.046103448	0.04610345	0	84379.36	84379.195	-7.0625e-05	641293.8	239491.9	-0.00042406053	239492.67	641293.06	-0.0003033664
0	0.62899166	0.62899053	-2.6442562e-10	0.045961928	0.045961928	0	84360.36	84360.2	-2.875e-05	641379.5	239208.06	-0.00011090814	239208.81	641378.6	-0.00022263179
0	0.62885094	0.6288497	-4.23081e-10	0.04582056	0.04582056	0	84341.484	84341.33	-5.5e-05	641464.9	238925.66	-0.0002348643	238926.45	641464.06	-0.00028705638
0	0.6287088	0.62870765	-1.9909693e-10	0.0456791	0.045679096	0	84322.43	84322.266	-2.3125e-05	641550.25	238641.25	-0.00014352819	238642.08	641549.4	-0.00010927714
0	0.62856793	0.6285667	-1.9909693e-10	0.04553763	0.04553762	0	84303.52	84303.36	-2.78125e-05	641634.94	238359.33	-0.00017614823	238360.12	641634	-0.00011417014
0	0.6284255	0.6284243	-4.0130477e-10	0.04539626	0.045396265	0	84284.43	84284.266	-5.25e-05	641721	238073.86	-0.00041753653	238074.69	641720.06	-0.00020224426
0	0.6282827	0.6282816	-1.5554448e-11	0.04525479	0.04525479	0	84265.28	84265.12	-2.1875e-06	641806.4	237788.67	4.5668057e-05	237789.42	641805.44	-0.00011743215
0	0.6281402	0.628139	-2.115405e-10	0.04511347	0.04511347	0	84246.17	84246.01	-2.9375e-05	641891.9	237503.66	-0.00028379436	237504.48	641891.06	-5.9531576e-05
0	0.62799716	0.6279959	-1.6176625e-10	0.04497199	0.04497199	0	84226.98	84226.81	-2.25e-05	641977.06	237218.1	-0.00011743215	237218.9	641976.2	-0.00013292667
0	0.6278541	0.6278528	-4.261919e-10	0.04483065	0.04483065	0	84207.8	84207.625	-5.625e-05	642062.56	236932.44	-0.00033272442	236933.23	642061.6	-0.00027074636
0	0.6277105	0.62770927	-1.6176625e-10	0.044689175	0.044689175	0	84188.54	84188.37	-1.8125e-05	642148	236645.97	-0.0001565762	236646.78	642147.06	-0.00010683064
0	0.62756574	0.62756455	-3.6708497e-10	0.044547684	0.044547684	0	84169.12	84168.95	-4.75e-05	642233.7	236357.53	-0.0003914405	236358.31	642232.8	-0.00013863518
0	0.6274207	0.6274194	-4.168592e-10	0.04440636	0.04440635	0	84149.66	84149.5	-5.625e-05	642319.1	236069.02	-0.0003979645	236069.84	642318.2	-0.00022834029