# t (s)	mx ()	my ()	mz ()	B_extx (T)	B_exty (T)	B_extz (T)	m_fullx (A/m)	m_fully (A/m)	m_fullz (A/m)	m_full.region1x (A/m)	m_full.region1y (A/m)	m_full.region1z (A/m)	m_full.region2x (A/m)	m_full.region2y (A/m)	m_full.region2z (A/m)
0	0.65326416	0.653261	2.389026e-09	0.07071089	0.07071089	0	71506.5	71506.16	0.00026360544	621154	293413.25	0.00015226218	293415.78	621152.1	0.0031956933
0	0.6531762	0.65317506	-3.0424643e-10	0.070569105	0.0705691	0	71496.875	71496.75	-3.344671e-05	621228.1	293217.78	-0.00027914732	293218.53	621227.3	-0.00018851509
0	0.6530841	0.6530831	-1.5903792e-10	0.070427895	0.070427895	0	71486.8	71486.69	-1.814059e-05	621308.8	293008.38	-2.900232e-05	293009	621308.06	-0.00023564385
0	0.6529907	0.65298986	-3.526493e-10	0.07028655	0.07028655	0	71476.57	71476.46	-4.0816325e-05	621390.6	292795.75	-0.00033715199	292796.34	621389.94	-0.0002175174
0	0.6528983	0.6528974	-4.978578e-10	0.07014486	0.07014486	0	71466.45	71466.36	-5.3287982e-05	621471.9	292585.03	-0.00030452435	292585.66	621471.3	-0.00038790604
0	0.65280485	0.65280396	-3.007891e-10	0.07000352	0.07000352	0	71456.234	71456.125	-3.1746033e-05	621553.4	292372.78	-0.00024651972	292373.38	621552.75	-0.00017401393
0	0.6527121	0.6527111	-1.5212322e-10	0.0698623	0.0698623	0	71446.07	71445.97	-1.8424036e-05	621634.94	292161.34	-0.00021389211	292161.97	621634.3	-1.450116e-05
0	0.65261865	0.6526177	-3.59564e-10	0.06972052	0.06972052	0	71435.84	71435.74	-3.854875e-05	621716.44	291949.06	-0.0002900232	291949.7	621715.7	-0.00023201856
0	0.6525253	0.6525244	-4.2525355e-10	0.06957919	0.06957919	0	71425.625	71425.516	-4.648526e-05	621797.75	291737.03	-0.0002175174	291737.66	621797.06	-0.0003824681
0	0.65243065	0.65242964	-1.728673e-10	0.069437966	0.069437966	0	71415.266	71415.16	-1.814059e-05	621879.4	291522.94	-0.00014863689	291523.6	621878.5	-8.156903e-05
0	0.65233743	0.65233636	-2.3164218e-10	0.0692966	0.0692966	0	71405.055	71404.945	-2.4659865e-05	621961	291310.7	-0.00020301624	291311.3	621960.25	-0.00011238399
0	0.6522422	0.65224123	-3.6993603e-10	0.06915495	0.06915495	0	71394.63	71394.53	-4.138322e-05	622042.9	291095.5	-0.0003190255	291096.16	622042.25	-0.00023201856
0	0.65214837	0.6521475	-2.6621563e-10	0.069013596	0.069013596	0	71384.37	71384.26	-2.8911565e-05	622124.9	290882.22	-0.0002175174	290882.88	622124.1	-0.00019576566
0	0.6520537	0.6520527	-3.1116115e-10	0.06887225	0.06887225	0	71374	71373.9	-3.202948e-05	622206.75	290667.8	-0.00024651972	290668.47	622206.06	-0.00023926914
0	0.6519589	0.651958	-5.186019e-10	0.06873061	0.06873061	0	71363.63	71363.52	-5.6122448e-05	622288.56	290453.3	-0.00042053364	290453.97	622287.9	-0.00030452435
0	0.6518635	0.65186256	-6.983839e-10	0.068589255	0.068589255	0	71353.19	71353.08	-7.738095e-05	622370.6	290237.66	-0.0005329176	290238.28	622369.9	-0.0005147912
0	0.6517685	0.6517675	-1.6595261e-10	0.06844802	0.06844802	0	71342.78	71342.68	-1.9557823e-05	622452.44	290022.8	-0.00015951275	290023.4	622451.7	-0.00015951275
0	0.6516726	0.6516716	-2.7658768e-11	0.06830668	0.06830668	0	71332.3	71332.19	-5.1020406e-06	622534.5	289806.62	-4.350348e-05	289807.25	622533.75	2.175174e-05
0	0.65157694	0.651576	-5.946635e-10	0.06816501	0.06816503	0	71321.82	71321.71	-6.660998e-05	622616.5	289590.56	-0.00044953596	289591.2	622615.8	-0.00044591067
0	0.65148085	0.6514799	-2.1435545e-10	0.06802368	0.06802368	0	71311.305	71311.2	-2.3809524e-05	622698.94	289373.72	-0.00020301624	289374.34	622698.2	-8.700696e-05
0	0.65138465	0.6513837	-3.1116115e-10	0.06788234	0.06788234	0	71300.766	71300.66	-3.287982e-05	622781.25	289156.6	-0.00018851509	289157.28	622780.5	-0.00025195765
0	0.65128803	0.65128714	-5.1514454e-10	0.067740686	0.067740686	0	71290.2	71290.1	-5.5201246e-05	622863.3	288939.38	-0.0004386601	288940	622862.6	-0.00029727377
0	0.651192	0.65119094	-3.526493e-10	0.06759931	0.06759932	0	71279.68	71279.58	-3.854875e-05	622945.2	288722.9	-0.00022476798	288723.56	622944.5	-0.00028095997
0	0.6510951	0.6510941	-1.3137914e-10	0.0674581	0.0674581	0	71269.07	71268.97	-1.5873016e-05	623027.56	288504.88	-0.00010513341	288505.53	623026.8	-3.262761e-05
0	0.6509979	0.6509969	-1.8669669e-10	0.06731675	0.06731675	0	71258.43	71258.33	-2.324263e-05	623110.1	288286.28	-0.00010513341	288286.94	623109.4	-0.00018670244
0	0.6508994	0.6508984	-4.3216825e-10	0.06717498	0.06717498	0	71247.65	71247.555	-4.5351473e-05	623192.94	288065.56	-0.00037340488	288066.22	623192.1	-0.00026102088
0	0.6508029	0.6508019	-3.8722275e-10	0.06703377	0.06703377	0	71237.086	71236.984	-4.1950112e-05	623275.3	287848.06	-0.0002537703	287848.7	623274.56	-0.00029727377
0	0.65070456	0.6507036	-2.489289e-10	0.06689241	0.06689241	0	71226.33	71226.22	-2.7210885e-05	623357.9	287627.84	-0.00019939095	287628.5	623357.1	-0.00017401393
0	0.65060735	0.6506064	-1.9706872e-10	0.06675074	0.06675074	0	71215.69	71215.57	-1.9274376e-05	623440.06	287409.5	-5.800464e-05	287410.12	623439.4	-0.00020845418
0	0.6505083	0.6505073	-4.59827e-10	0.06660939	0.0666094	0	71204.84	71204.734	-4.8752834e-05	623523.7	287187.25	-0.00038790604	287187.88	623522.94	-0.00026102088
0	0.65041035	0.65040934	-5.49718e-10	0.06646817	0.06646817	0	71194.125	71194.01	-6.094104e-05	623606	286967.8	-0.0003299014	286968.47	623605.3	-0.00042778422
0	0.65031075	0.65030974	-3.4227726e-10	0.06632641	0.06632641	0	71183.22	71183.11	-4.0816325e-05	623688.7	286745.66	-0.00030452435	286746.28	623688	-0.00017220128
0	0.65021247	0.65021145	-4.2525355e-10	0.066185065	0.066185065	0	71172.47	71172.36	-4.7619047e-05	623771.75	286525.1	-0.0003190255	286525.75	623771	-0.0003697796
0	0.6501137	0.6501127	-4.0105214e-10	0.06604384	0.06604384	0	71161.65	71161.54	-4.3650794e-05	623854.4	286304.12	-0.00034440256	286304.78	623853.56	-0.00022114269
0	0.6500136	0.6500126	-3.6647868e-10	0.06590246	0.06590246	0	71150.695	71150.59	-3.9399092e-05	623937.3	286081.1	-0.0003335267	286081.78	623936.56	-0.00019032773
0	0.64991415	0.6499132	-1.9361138e-10	0.06576083	0.065760836	0	71139.81	71139.71	-2.2675737e-05	624020.56	285858.66	-0.00017763922	285859.34	624019.75	-0.00017401393
0	0.649814	0.64981306	-2.6967298e-10	0.06561947	0.06561947	0	71128.85	71128.74	-2.3809524e-05	624104.06	285634.94	-0.00021389211	285635.62	624103.3	-0.00010150812
0	0.64971447	0.6497134	-3.1807584e-10	0.06547826	0.06547826	0	71117.945	71117.84	-3.344671e-05	624186.94	285412.6	-0.0003190255	285413.3	624186.2	-0.0001286978
0	0.64961445	0.64961344	-1.9706872e-10	0.065336496	0.065336496	0	71107.01	71106.89	-1.7573697e-05	624269.75	285189.75	-4.350348e-05	285190.44	624269	-0.00017401393
0	0.64951247	0.6495114	-3.457346e-10	0.06519514	0.06519514	0	71095.836	71095.72	-3.45805e-05	624353.5	284963.2	-0.00027189674	284963.9	624352.8	-0.00022476798
0	0.6494127	0.64941174	-1.07177725e-10	0.065053925	0.065053925	0	71084.92	71084.81	-1.0204081e-05	624436.5	284740.7	-0.00017401393	284741.34	624435.75	3.62529e-05
0	0.6493116	0.6493106	-3.3881992e-10	0.064912535	0.064912535	0	71073.85	71073.75	-3.854875e-05	624519.9	284515.7	-0.00023926914	284516.38	624519.1	-0.00024651972
0	0.6492104	0.6492094	-3.3190523e-10	0.06477091	0.06477091	0	71062.79	71062.67	-3.6848072e-05	624603.4	284290.66	-0.00022114269	284291.28	624602.56	-0.0002537703
0	0.64910877	0.64910775	-2.4547156e-10	0.064629555	0.064629555	0	71051.65	71051.55	-2.5226758e-05	624686.9	284064.72	-0.0001087587	284065.4	624686.06	-0.00020664153
0	0.6490072	0.6490062	-5.8429145e-10	0.0644882	0.064488195	0	71040.53	71040.42	-6.0657596e-05	624770.25	283839.1	-0.0004314095	283839.78	624769.5	-0.00039334397
0	0.6489053	0.64890426	-2.3164218e-10	0.064346574	0.064346574	0	71029.375	71029.26	-2.8344672e-05	624853.7	283613	-0.00023201856	283613.7	624853.06	-0.00013776102
0	0.64880323	0.64880216	-4.6328436e-10	0.06420522	0.06420522	0	71018.2	71018.09	-4.9603175e-05	624937	283386.84	-0.00037703017	283387.53	624936.1	-0.00027914732
0	0.6487	0.648699	-2.3164218e-10	0.06406397	0.06406397	0	71006.91	71006.8	-2.2675737e-05	625020.5	283158.75	-7.25058e-05	283159.44	625019.8	-0.00020301624
0	0.6485984	0.6485973	-4.5636966e-10	0.063922614	0.063922614	0	70995.78	70995.664	-5.187075e-05	625104.25	282932.78	-0.0003190255	282933.44	625103.56	-0.0004060325
0	0.6484949	0.6484938	-3.8030806e-10	0.06378099	0.06378099	0	70984.45	70984.34	-4.0249433e-05	625187.75	282704.38	-0.00029727377	282705.06	625187	-0.0002573956
0	0.6483917	0.64839065	-3.3190523e-10	0.06363964	0.06363964	0	70973.164	70973.05	-3.5714285e-05	625271.4	282476.28	-0.0002900232	282476.94	625270.6	-0.00018851509
0	0.64828855	0.6482875	-3.2844788e-10	0.06349827	0.06349827	0	70961.87	70961.75	-3.287982e-05	625355.5	282247.72	-0.00020664153	282248.44	625354.75	-0.00022476798
0	0.64818466	0.64818364	-5.0822985e-10	0.06335666	0.06335666	0	70950.5	70950.39	-5.498866e-05	625439.5	282018.4	-0.000362529	282019.06	625438.7	-0.00033533934
0	0.6480815	0.6480804	-2.108981e-10	0.06321528	0.06321528	0	70939.21	70939.086	-2.0408163e-05	625523.44	281789.97	-0.00013413573	281790.66	625522.6	-0.00013776102
0	0.64797693	0.6479759	-5.4626065e-10	0.063074045	0.063074045	0	70927.76	70927.65	-5.7256235e-05	625607.2	281559.78	-0.00034802785	281560.47	625606.44	-0.00042415893
0	0.6478725	0.64787143	-2.7658768e-11	0.062932685	0.062932685	0	70916.336	70916.22	-5.952381e-06	625691.1	281329.75	-8.700696e-05	281330.47	625690.3	1.087587e-05
0	0.6477673	0.6477663	-4.1142417e-10	0.062790945	0.062790945	0	70904.82	70904.7	-4.8752834e-05	625775.4	281098.22	-0.000362529	281098.9	625774.6	-0.0002863979
0	0.6476631	0.6476621	-5.6009003e-10	0.06264972	0.06264972	0	70893.41	70893.3	-5.9807255e-05	625859.8	280867.84	-0.00032627612	280868.6	625859	-0.0004314095
0	0.6475572	0.6475562	-4.356256e-10	0.06250835	0.06250835	0	70881.81	70881.7	-4.223356e-05	625944.1	280635.28	-0.0004060325	280636	625943.3	-0.00015770011
0	0.6474532	0.6474521	-4.8402843e-10	0.062366717	0.062366717	0	70870.43	70870.31	-5.15873e-05	626027.56	280406.06	-0.00047853828	280406.78	626026.94	-0.0002175174
0	0.6473473	0.64734614	-3.9413744e-10	0.062225346	0.062225346	0	70858.836	70858.72	-3.798186e-05	626112.7	280172.78	-0.00034802785	280173.5	626111.9	-0.00015226218
0	0.6472408	0.6472398	-5.6009003e-10	0.062084123	0.062084123	0	70847.195	70847.07	-5.8956917e-05	626196.9	279939.7	-0.00039153133	279940.4	626196.06	-0.00042778422
0	0.6471357	0.64713466	-1.5212322e-10	0.06194238	0.06194238	0	70835.69	70835.57	-1.8707484e-05	626280.75	279708.53	-0.00017401393	279709.22	626279.94	-8.700696e-05
0	0.647029	0.6470278	-1.3483649e-10	0.061801016	0.061801016	0	70823.99	70823.87	-1.5306123e-05	626366	279473.75	-5.800464e-05	279474.5	626365.2	-0.00011600928
0	0.6469228	0.64692175	-2.627583e-10	0.0616598	0.061659794	0	70812.375	70812.25	-2.9195011e-05	626450.2	279241.03	-0.00011600928	279241.72	626449.4	-0.00024108178
0	0.64681554	0.6468145	-4.805711e-10	0.061518397	0.061518397	0	70800.64	70800.516	-5.0453516e-05	626534.3	279006.72	-0.00046403712	279007.44	626533.5	-0.00024651972
0	0.6467079	0.6467069	-3.906801e-10	0.0613768	0.0613768	0	70788.85	70788.734	-4.1950112e-05	626619.06	278771.28	-0.00030089906	278772.06	626618.25	-0.00022476798
0	0.64660084	0.6465997	-3.4227726e-10	0.061235435	0.061235435	0	70777.13	70777.01	-3.6848072e-05	626704.1	278536.25	-0.00022114269	278536.97	626703.3	-0.00029364848
0	0.6464939	0.64649284	-5.4626065e-10	0.061094064	0.061094068	0	70765.43	70765.31	-5.952381e-05	626788.56	278302.22	-0.00035527843	278302.94	626787.8	-0.00042778422
0	0.64638525	0.6463842	-4.6328436e-10	0.060952473	0.060952473	0	70753.54	70753.42	-4.7619047e-05	626873.94	278064.75	-0.0002863979	278065.47	626873.06	-0.0003824681
0	0.64627814	0.64627707	-4.1488152e-10	0.060811106	0.060811106	0	70741.81	70741.69	-4.336735e-05	626958.1	277830.6	-0.00023201856	277831.34	626957.3	-0.00037884281
0	0.64617	0.64616895	-4.287109e-10	0.06066984	0.06066984	0	70729.98	70729.86	-4.563492e-05	627042.4	277594.94	-0.0002573956	277595.66	627041.6	-0.0002900232
0	0.64606005	0.646059	-3.5610664e-10	0.060528476	0.060528483	0	70717.94	70717.81	-3.4297052e-05	627128.5	277354.84	-0.00024651972	277355.6	627127.6	-0.00024651972
0	0.6459522	0.6459511	-2.869597e-10	0.060386874	0.060386874	0	70706.13	70706.016	-3.1179137e-05	627213	277119.38	-0.00027552203	277120.12	627212.2	-0.00017038864
0	0.64584124	0.6458401	-3.837654e-10	0.06024551	0.06024551	0	70693.98	70693.86	-3.9682538e-05	627299.1	276877.78	-0.00019214037	276878.53	627298.4	-0.0003190255
0	0.6457334	0.6457323	-2.4547156e-10	0.06010415	0.06010415	0	70682.19	70682.07	-2.7210885e-05	627383.25	276642.75	-0.0002175174	276643.5	627382.56	-0.00017401393
0	0.6456242	0.64562315	-2.0744076e-10	0.059962556	0.05996255	0	70670.234	70670.12	-2.494331e-05	627468.1	276405.06	-0.0002175174	276405.84	627467.3	-9.788283e-05
0	0.64551324	0.6455122	-4.59827e-10	0.05982115	0.059821155	0	70658.086	70657.97	-5.243764e-05	627553.2	276164.72	-0.00040965778	276165.47	627552.3	-0.00030452435
0	0.64540416	0.6454029	-5.255166e-10	0.05967992	0.05967992	0	70646.14	70646.01	-5.697279e-05	627638.5	275926.5	-0.000612674	275927.28	627637.6	-0.00018851509
0	0.645294	0.6452929	-4.4254028e-10	0.059538547	0.059538547	0	70634.08	70633.95	-5.243764e-05	627723.44	275687.3	-0.0002900232	275688.06	627722.7	-0.0003697796
0	0.6451821	0.64518094	-3.3190523e-10	0.059396822	0.059396822	0	70621.836	70621.71	-3.628118e-05	627809.2	275444.88	-0.0002175174	275445.6	627808.44	-0.0002573956
0	0.6450721	0.64507097	-6.914692e-10	0.059255593	0.059255593	0	70609.79	70609.68	-7.28458e-05	627894.44	275205.78	-0.00044591067	275206.53	627893.56	-0.00055104407
0	0.64496046	0.6449593	-3.1116115e-10	0.05911421	0.05911421	0	70597.57	70597.445	-3.2312924e-05	627980.3	274963.5	-0.00027552203	274964.3	627979.4	-0.000121447214
0	0.6448501	0.64484894	-3.6647868e-10	0.058972597	0.058972597	0	70585.49	70585.37	-4.2517007e-05	628064.8	274724.4	-0.000362529	274725.2	628064.06	-0.0002175174
0	0.6447376	0.64473647	-4.1833886e-10	0.058831234	0.05883123	0	70573.19	70573.055	-4.988662e-05	628150.5	274481.38	-0.00030452435	274482.16	628149.7	-0.0003697796
0	0.64462554	0.6446245	-6.568957e-11	0.058689993	0.058689993	0	70560.92	70560.8	-5.1020406e-06	628236.1	274239	-1.450116e-05	274239.72	628235.25	-5.075406e-05
0	0.64451367	0.64451253	-1.8669669e-10	0.058548275	0.058548275	0	70548.67	70548.55	-2.0975056e-05	628321.7	273996.78	-0.00015951275	273997.53	628320.9	-0.0001450116
0	0.64440095	0.6443999	-2.489289e-10	0.058406897	0.058406897	0	70536.336	70536.21	-3.2312924e-05	628407.2	273753.44	-0.00019576566	273754.25	628406.3	-0.00018851509
0	0.6442877	0.6442865	-3.0424643e-10	0.05826567	0.05826567	0	70523.94	70523.805	-3.287982e-05	628493.06	273508.84	-0.00024651972	273509.62	628492.3	-0.00022114269
0	0.6441753	0.6441741	-2.6967298e-10	0.058124267	0.058124255	0	70511.63	70511.51	-2.6077098e-05	628578.94	273265.62	-0.0002900232	273266.38	628578.2	-0.0001087587
0	0.6440622	0.644061	-8.9891e-11	0.057982687	0.05798269	0	70499.25	70499.125	-1.4739229e-05	628664.56	273021.8	-0.0001812645	273022.53	628663.6	4.350348e-05
0	0.643947	0.64394593	-3.906801e-10	0.057841305	0.057841305	0	70486.65	70486.52	-4.2517007e-05	628751.2	272773.9	-0.0002900232	272774.72	628750.4	-0.00024651972
0	0.64383453	0.6438334	-4.978578e-10	0.057699926	0.057699926	0	70474.33	70474.21	-5.7539684e-05	628836.4	272531.25	-0.00035890372	272532.03	628835.56	-0.0004386601
0	0.6437207	0.64371955	-4.6328436e-10	0.057558365	0.057558354	0	70461.875	70461.75	-5.5555556e-05	628922.2	272286.03	-0.00027914732	272286.8	628921.3	-0.00039153133
0	0.6436064	0.6436053	-1.6595261e-10	0.057416975	0.057416983	0	70449.36	70449.234	-1.814059e-05	629008.06	272040.1	-0.0002175174	272040.88	629007.2	-3.987819e-05
0	0.64349115	0.64348996	-5.7737676e-10	0.057275712	0.057275712	0	70436.734	70436.6	-6.122449e-05	629093.56	271793.22	-0.0002900232	271794	629092.7	-0.0005437935
0	0.6433762	0.643375	-3.8722275e-10	0.05713433	0.057134338	0	70424.17	70424.04	-4.2517007e-05	629180.5	271545.44	-0.0004024072	271546.2	629179.7	-0.00017401393
0	0.64326185	0.6432607	-5.946635e-10	0.056992773	0.056992773	0	70411.65	70411.516	-6.462585e-05	629266	271299.78	-0.00037703017	271300.56	629265.2	-0.0004839762
0	0.6431459	0.64314485	-2.6621563e-10	0.056851387	0.056851387	0	70398.97	70398.836	-3.1179137e-05	629351.5	271052.1	-0.0002175174	271052.88	629350.6	-0.00015951275
0	0.64303046	0.6430293	-2.5930094e-10	0.056710005	0.056710005	0	70386.31	70386.19	-3.089569e-05	629438.44	270803.44	-0.0002175174	270804.22	629437.6	-0.00018851509
0	0.64291406	0.64291286	-3.2844788e-10	0.056568444	0.056568444	0	70373.57	70373.45	-3.4863944e-05	629524.5	270554.4	-0.000250145	270555.2	629523.6	-0.00019757831
0	0.642798	0.6427967	-2.2127014e-10	0.056427024	0.056427024	0	70360.87	70360.74	-2.5510204e-05	629611.25	270305.1	-0.00017401393	270305.88	629610.44	-0.00010150812
0	0.64268154	0.64268035	-2.489289e-10	0.05628579	0.05628579	0	70348.125	70348	-2.6360543e-05	629697.3	270056.06	-0.00019939095	270056.84	629696.5	-0.0001450116
0	0.6425644	0.6425633	-4.0105214e-10	0.056144398	0.056144398	0	70335.31	70335.17	-4.138322e-05	629783.8	269805.6	-0.00034802785	269806.4	629782.94	-0.00020301624
0	0.642448	0.6424468	-5.9812083e-10	0.0560027	0.0560027	0	70322.56	70322.43	-6.575964e-05	629869.9	269556.44	-0.0004350348	269557.28	629869.06	-0.00044953596
0	0.64232886	0.6423277	-2.9041705e-10	0.05586147	0.05586147	0	70309.516	70309.39	-3.202948e-05	629957.25	269302.34	-0.00023564385	269303.16	629956.44	-0.00020301624
0	0.6422125	0.6422113	-3.3881992e-10	0.05572008	0.05572008	0	70296.78	70296.66	-3.4013607e-05	630042.94	269053.75	-0.0002537703	269054.56	630042.06	-0.00022114269
0	0.64209485	0.6420937	-2.869597e-10	0.05557853	0.05557853	0	70283.914	70283.78	-3.1179137e-05	630129.56	268802.5	-0.00011600928	268803.3	630128.6	-0.00024651972
0	0.64197636	0.6419751	-3.8722275e-10	0.055437103	0.055437103	0	70270.92	70270.8	-3.9682538e-05	630215.7	268550.34	-0.00026464617	268551.16	630214.75	-0.00024651972
0	0.64185774	0.64185655	-3.5610664e-10	0.05529587	0.05529587	0	70257.95	70257.82	-3.6564626e-05	630302.56	268297.5	-0.0003299014	268298.34	630301.75	-0.00019032773
0	0.6417393	0.6417381	-2.9733174e-10	0.055154484	0.055154487	0	70244.99	70244.86	-3.1746033e-05	630389.5	268044.8	-0.00023926914	268045.6	630388.6	-0.0001812645
0	0.6416204	0.64161927	-4.4945497e-10	0.055012777	0.05501278	0	70231.98	70231.84	-5.1303854e-05	630475.94	267791.8	-0.00037340488	267792.62	630475.06	-0.00029364848
0	0.6415006	0.64149946	-4.0796683e-10	0.054871537	0.054871537	0	70218.86	70218.734	-4.5776644e-05	630562.5	267537.53	-0.00024651972	267538.3	630561.75	-0.00030814964
0	0.6413811	0.64138	-2.3509952e-10	0.05473016	0.05473016	0	70205.79	70205.66	-2.2108843e-05	630649.6	267283.2	-0.00015951275	267284	630648.8	-0.00015951275
0	0.64126134	0.6412602	-3.0424643e-10	0.05458858	0.05458858	0	70192.68	70192.54	-3.1462587e-05	630736.6	267028.53	-0.0003226508	267029.3	630735.75	-0.00015226218
0	0.64114094	0.6411397	-3.6993603e-10	0.054447185	0.05444718	0	70179.49	70179.35	-3.4863944e-05	630823.7	266772.84	-0.00034802785	266773.7	630822.8	-0.00011963457
0	0.6410211	0.6410199	-1.00263034e-10	0.054305956	0.054305956	0	70166.37	70166.234	-1.3605442e-05	630910.1	266518.53	-5.075406e-05	266519.34	630909.25	-0.00015407482
0	0.64089996	0.64089876	-4.4599763e-10	0.054164257	0.054164257	0	70153.12	70152.98	-4.7619047e-05	630997	266262.16	-0.00029364848	266263	630996.1	-0.000362529
0	0.64077836	0.6407772	-9.680569e-11	0.054022856	0.054022856	0	70139.805	70139.664	-1.1904762e-05	631084.3	266004.56	-0.00023201856	266005.38	631083.5	9.425754e-05
0	0.64065784	0.6406566	-4.356256e-10	0.053881623	0.053881623	0	70126.61	70126.48	-4.8185942e-05	631171.3	265748.8	-0.00027552203	265749.66	631170.44	-0.00034077727
0	0.640536	0.6405348	-2.4547156e-10	0.053740185	0.053740185	0	70113.28	70113.15	-3.4013607e-05	631257.8	265491.84	-0.00014863689	265492.7	631256.94	-0.00023926914
0	0.640414	0.6404127	2.0744077e-11	0.053598657	0.053598657	0	70099.92	70099.78	5.1020406e-06	631344.94	265233.8	3.62529e-06	265234.72	631344	6.888051e-05
0	0.64029187	0.6402906	-2.3164218e-10	0.05345726	0.05345726	0	70086.55	70086.414	-2.579365e-05	631432	264975.8	-0.00021389211	264976.62	631431.06	-0.00013957366
0	0.64016944	0.64016825	-4.9440047e-10	0.053315867	0.053315867	0	70073.16	70073.02	-5.5555556e-05	631519.7	264716.72	-0.00027189674	264717.53	631518.8	-0.00045678654
0	0.6400462	0.64004487	-2.2818483e-10	0.05317434	0.05317434	0	70059.66	70059.52	-2.3809524e-05	631606.9	264456.9	-9.425754e-05	264457.75	631605.94	-0.00017763922
0	0.6399228	0.6399215	-4.7019905e-10	0.053032946	0.053032946	0	70046.15	70046	-5.15873e-05	631694.94	264196	-0.00030089906	264196.9	631694	-0.00035527843
0	0.6398001	0.6397988	-4.4254028e-10	0.05289166	0.05289166	0	70032.72	70032.59	-4.931973e-05	631782.2	263937.16	-0.000362529	263938.03	631781.25	-0.00032627612
0	0.6396764	0.6396751	-8.9891e-11	0.05275026	0.05275026	0	70019.18	70019.03	-9.637188e-06	631869.56	263676.47	-8.700696e-05	263677.3	631868.56	-1.087587e-05
0	0.6395528	0.6395514	-3.3190523e-10	0.052608747	0.052608743	0	70005.65	70005.51	-3.543084e-05	631956.7	263416.3	-0.0002827726	263417.16	631955.75	-0.00023564385
0	0.63942766	0.63942647	-1.2100711e-10	0.052467342	0.052467342	0	69991.96	69991.82	-1.1337868e-05	632044	263153.94	-0.00016676335	263154.8	632043.06	-1.450116e-05
0	0.6393038	0.63930243	-7.606161e-11	0.052325934	0.052325934	0	69978.4	69978.25	-1.0204081e-05	632131.56	262892.94	-6.525522e-05	262893.8	632130.56	-5.6191995e-05
0	0.6391781	0.6391767	-2.0398341e-10	0.05218442	0.05218442	0	69964.63	69964.49	-2.1825397e-05	632219.4	262629.1	-0.00015951275	262629.94	632218.4	-0.000114196635
0	0.6390534	0.6390521	-3.6647868e-10	0.052042983	0.052042983	0	69950.984	69950.84	-4.2800453e-05	632307.25	262366.7	-0.00031540022	262367.56	632306.25	-0.00023926914
0	0.6389282	0.63892686	-3.7685072e-10	0.051901743	0.051901743	0	69937.28	69937.14	-3.9682538e-05	632394.75	262103.9	-0.00019576566	262104.8	632393.75	-0.00032446344
0	0.638802	0.6388007	-4.1142417e-10	0.051760327	0.051760327	0	69923.47	69923.33	-4.7052155e-05	632482.4	261839.53	-0.000362529	261840.39	632481.5	-0.00026827145
0	0.6386758	0.63867456	-3.4227726e-10	0.05161866	0.05161866	0	69909.66	69909.516	-3.798186e-05	632570.4	261574.89	-0.00027552203	261575.78	632569.44	-0.00021026682
0	0.6385503	0.638549	-4.5636966e-10	0.05147742	0.05147742	0	69895.914	69895.77	-4.8185942e-05	632657.6	261311.94	-0.00030089906	261312.83	632656.6	-0.00031540022
0	0.6384225	0.6384212	-3.975948e-10	0.051336005	0.05133601	0	69881.92	69881.79	-4.1666666e-05	632745.9	261044.78	-0.00030452435	261045.67	632744.9	-0.00024651972
0	0.63829523	0.6382939	-2.2818483e-10	0.051194474	0.051194474	0	69868	69867.85	-2.6643991e-05	632833.75	260778.73	-0.00017401393	260779.62	632832.75	-0.00020301624
0	0.6381682	0.6381669	-5.7046207e-10	0.051053066	0.051053066	0	69854.09	69853.95	-6.094104e-05	632921.1	260513.47	-0.00024651972	260514.39	632920.2	-0.00055466936
0	0.63804066	0.6380393	-5.877488e-11	0.050911807	0.050911814	0	69840.13	69839.984	-5.668934e-06	633009.7	260246.25	6.525522e-05	260247.17	633008.75	-7.25058e-05
0	0.63791376	0.63791245	-6.914692e-11	0.050770152	0.050770152	0	69826.24	69826.09	-9.637188e-06	633097.06	259981.33	-3.62529e-05	259982.25	633096.1	-4.5316126e-05
0	0.6377846	0.6377832	-4.5636966e-10	0.050628744	0.050628744	0	69812.1	69811.95	-4.8185942e-05	633185.56	259711.94	-0.0003190255	259712.83	633184.56	-0.00031177493
0	0.6376569	0.6376556	-1.5212322e-10	0.050487496	0.050487496	0	69798.13	69797.984	-1.729025e-05	633273.25	259445.61	-0.00020301624	259446.5	633272.3	-4.350348e-05
0	0.6375274	0.6375261	-4.7019905e-10	0.050346054	0.050346054	0	69783.97	69783.82	-5.15873e-05	633361.6	259175.92	-0.0003335267	259176.83	633360.7	-0.00035890372
0	0.6373983	0.637397	-2.869597e-10	0.05020456	0.05020456	0	69769.83	69769.67	-2.9195011e-05	633449.6	258907.14	-0.00017401393	258908.06	633448.7	-0.00023201856
0	0.6372689	0.6372676	-3.59564e-10	0.050063137	0.050063133	0	69755.66	69755.51	-3.6848072e-05	633538.1	258637.36	-0.00022114269	258638.28	633537.2	-0.00025195765
0	0.6371391	0.63713765	-1.00263034e-10	0.049921725	0.049921725	0	69741.45	69741.305	-1.0487528e-05	633626.1	258367.58	-9.788283e-05	258368.47	633625.25	-1.450116e-05
0	0.6370093	0.63700795	-1.2446445e-10	0.04978024	0.04978024	0	69727.24	69727.09	-1.5306123e-05	633714.25	258097.89	-9.788283e-05	258098.78	633713.3	-8.519432e-05
0	0.63687956	0.6368782	-1.3483649e-10	0.04963882	0.049638823	0	69713.04	69712.9	-1.5873016e-05	633801.94	257828.6	-1.450116e-05	257829.48	633801	-0.00016313806
0	0.63674784	0.63674647	-3.7685072e-10	0.049497537	0.049497537	0	69698.62	69698.47	-4.2517007e-05	633891.06	257554.98	-0.0003226508	257555.88	633890.06	-0.0002175174
0	0.6366172	0.6366158	-4.356256e-10	0.049356114	0.04935612	0	69684.32	69684.17	-4.7052155e-05	633979.4	257283.86	-0.00034440256	257284.75	633978.44	-0.00030089906
0	0.63648605	0.63648474	-2.0052607e-10	0.049214635	0.049214635	0	69669.96	69669.81	-2.3809524e-05	634067.44	257012.1	-0.00024651972	257013.05	634066.5	-5.800464e-05
0	0.6363545	0.63635314	-3.1116115e-10	0.04907322	0.04907322	0	69655.56	69655.42	-3.1746033e-05	634155.6	256739.73	-0.00017763922	256740.67	634154.75	-0.00027914732
0	0.6362225	0.6362211	-2.2127014e-10	0.048931796	0.048931796	0	69641.12	69640.97	-2.5510204e-05	634244.4	256466.2	-0.00012325986	256467.16	634243.4	-0.00019395302
0	0.6360893	0.63608795	-5.8429145e-10	0.04879033	0.04879033	0	69626.55	69626.39	-6.2358275e-05	634333.44	256190.75	-0.00037703017	256191.7	634332.4	-0.0004060325
0	0.63595647	0.63595504	-9.680569e-11	0.048648857	0.048648853	0	69612	69611.84	-7.086168e-06	634421	255917.11	-0.00021026682	255918.1	634420	0.00013776102
0	0.63582426	0.63582283	-4.4599763e-10	0.048507616	0.048507616	0	69597.53	69597.38	-4.6768706e-05	634509.75	255643.2	-0.00031177493	255644.16	634508.8	-0.00030452435
0	0.6356906	0.63568914	-5.186019e-10	0.04836618	0.04836618	0	69582.89	69582.74	-5.5555556e-05	634598.8	255367.1	-0.00055829465	255368.05	634597.8	-0.00020845418
0	0.6355559	0.6355545	-1.3483649e-10	0.048224546	0.048224542	0	69568.15	69568	-1.33219955e-05	634687.06	255090.22	-0.00041328307	255091.17	634686.06	0.00026102088
0	0.6354231	0.63542175	-2.9733174e-10	0.048083294	0.048083298	0	69553.62	69553.46	-3.3163265e-05	634776.3	254815.03	-0.0002537703	254816.02	634775.3	-0.00016857599
0	0.63528866	0.6352872	-9.680569e-11	0.047941867	0.04794187	0	69538.89	69538.74	-1.0204081e-05	634865.2	254537.95	-6.525522e-05	254538.9	634864.1	-7.25058e-05
0	0.6351545	0.6351531	-3.457346e-10	0.047800366	0.047800362	0	69524.21	69524.06	-3.798186e-05	634953.94	254261.45	-0.00019757831	254262.4	634952.9	-0.00034802785
0	0.63501996	0.6350185	-2.0744076e-10	0.047658943	0.047658943	0	69509.484	69509.336	-2.154195e-05	635042.6	253984.38	-0.00018851509	253985.33	635041.56	-9.425754e-05
0	0.63488525	0.63488376	-4.4254028e-10	0.047517683	0.047517687	0	69494.734	69494.586	-4.988662e-05	635130.94	253707.38	-0.0003697796	253708.33	635130.06	-0.00029183584
0	0.6347485	0.634747	-1.728673e-10	0.047376268	0.047376256	0	69479.766	69479.61	-2.3526078e-05	635220.7	253426.22	-0.0002664588	253427.17	635219.6	-4.8941416e-05
0	0.63461334	0.6346119	-2.6967298e-10	0.047234625	0.047234625	0	69464.98	69464.81	-3.089569e-05	635309.2	253148.42	-0.00010150812	253149.38	635308.1	-0.00029727377
0	0.6344776	0.63447624	1.4866587e-10	0.047093373	0.04709337	0	69450.125	69449.98	1.5306123e-05	635397.75	252869.97	5.075406e-05	252870.95	635396.8	0.00021026682
0	0.63434035	0.63433886	-3.4227726e-10	0.046951894	0.046951897	0	69435.09	69434.93	-3.344671e-05	635487	252588.45	-0.00029546113	252589.44	635485.94	-0.00018851509
0	0.6342032	0.6342019	-3.2844788e-10	0.046810456	0.04681045	0	69420.086	69419.93	-3.6848072e-05	635576.8	252306.8	-0.00029727377	252307.78	635575.75	-0.00018670244
0	0.6340671	0.6340657	-1.9015403e-10	0.04666901	0.04666901	0	69405.195	69405.04	-1.814059e-05	635664.6	252028.47	-0.00020301624	252029.45	635663.56	-9.24449e-05
0	0.63392866	0.6339272	-2.5238625e-10	0.04652777	0.046527773	0	69390.02	69389.87	-2.9478459e-05	635754.8	251744.28	-0.00019032773	251745.3	635753.75	-0.00021933005
0	0.63378996	0.63378847	-7.364147e-10	0.04638615	0.04638614	0	69374.85	69374.68	-7.4546486e-05	635843.25	251461.77	-0.0002537703	251462.77	635842.1	-0.0007087442
0	0.6336528	0.63365144	-3.526493e-10	0.046244703	0.046244703	0	69359.836	69359.69	-4.1950112e-05	635932.75	251180.28	-0.00027552203	251181.3	635931.7	-0.0003027117
0	0.63351434	0.633513	-4.6328436e-10	0.046103448	0.046103448	0	69344.695	69344.53	-4.903628e-05	636021.8	250897.38	-0.00032083815	250898.36	636020.75	-0.00029908642
0	0.6333758	0.6333744	-3.457346e-12	0.045961965	0.045961965	0	69329.52	69329.36	-2.2675738e-06	636110.8	250614.38	2.900232e-05	250615.36	636109.75	-3.987819e-05
0	0.63323545	0.633234	-3.2844788e-10	0.045820538	0.04582053	0	69314.16	69313.99	-4.1099775e-05	636200.7	250327.88	-0.0003335267	250328.92	636199.7	-0.0001848898
0	0.63309664	0.63309515	-3.1116115e-10	0.045679092	0.0456791	0	69298.96	69298.8	-3.4863944e-05	636289.75	250044.44	-0.00021026682	250045.47	636288.7	-0.00026827145
0	0.63295674	0.63295525	-1.728673e-10	0.045537654	0.045537654	0	69283.65	69283.484	-1.643991e-05	636379.06	249759.36	-0.00015951275	249760.38	636378.06	-8.156903e-05
0	0.6328167	0.6328152	-2.1435545e-10	0.045396224	0.045396224	0	69268.32	69268.16	-2.0408163e-05	636468.4	249473.94	-0.00017945186	249474.97	636467.4	-7.975638e-05
0	0.6326761	0.63267463	-2.0744076e-10	0.04525478	0.04525478	0	69252.94	69252.766	-2.6927437e-05	636557.75	249187.73	-0.00015770011	249188.77	636556.7	-0.0001450116
0	0.6325348	0.6325334	-1.3829384e-11	0.045113485	0.045113485	0	69237.47	69237.305	-3.968254e-06	636647.5	248900.27	0.0001087587	248901.31	636646.44	-0.00011600928
0	0.63239366	0.63239217	-1.9706872e-10	0.044972036	0.044972036	0	69222.01	69221.84	-2.0975056e-05	636736.94	248613.2	-0.00021570476	248614.2	636735.94	-2.175174e-05