# t (s)	mx ()	my ()	mz ()	B_extx (T)	B_exty (T)	B_extz (T)	m_fullx (A/m)	m_fully (A/m)	m_fullz (A/m)	m_full.region1x (A/m)	m_full.region1y (A/m)	m_full.region1z (A/m)	m_full.region2x (A/m)	m_full.region2y (A/m)	m_full.region2z (A/m)
0	0.64782673	0.6478255	4.0088398e-11	0.070710704	0.070710704	0	150923.38	150923.11	8.984974e-06	625536.4	281420.1	3.2226344e-05	281421.03	625535.56	3.4000383e-05
0	0.64760345	0.64760286	-1.8082119e-10	0.07035722	0.07035722	0	150871.36	150871.22	-4.4163447e-05	625706.3	280938.06	-7.895359e-05	280938.47	625705.94	-0.00016860625
0	0.6473746	0.64737403	-1.9043295e-10	0.07000352	0.07000352	0	150818.05	150817.92	-4.4183656e-05	625881.75	280442.3	-0.00016786475	280442.62	625881.4	-0.00010800439
0	0.6471478	0.64714736	-1.3116289e-10	0.06965005	0.06965005	0	150765.23	150765.11	-2.9422388e-05	626055.8	279950.84	-0.00014112593	279951.22	626055.4	-4.234682e-05
0	0.6469176	0.6469171	-1.4322033e-11	0.06929643	0.06929643	0	150711.56	150711.45	-4.805261e-06	626231.4	279452.84	1.8676983e-05	279453.22	626231	-4.821681e-05
0	0.6466865	0.6466859	-2.7094963e-11	0.068942994	0.068942994	0	150657.73	150657.6	-4.54224e-06	626406.44	278954.22	6.5960245e-05	278954.53	626406.06	-0.00010263026
0	0.64645356	0.646453	8.786973e-11	0.06858929	0.06858929	0	150603.48	150603.38	1.6841284e-05	626582	278452.7	0.00022876682	278453.06	626581.7	-9.3439776e-05
0	0.6462207	0.6462201	-1.3195942e-10	0.06823583	0.06823583	0	150549.23	150549.11	-3.0033108e-05	626757.9	277950.72	-9.035865e-05	277951.1	626757.5	-8.581036e-05
0	0.645984	0.64598346	-3.048154e-10	0.067882195	0.067882195	0	150494.06	150493.94	-7.2947274e-05	626933.9	277443.38	-1.472688e-05	277443.72	626933.44	-0.00043319
0	0.64574724	0.6457467	-1.8354995e-10	0.06752872	0.06752872	0	150438.92	150438.8	-4.3464705e-05	627110.44	276935.28	-6.0265545e-05	276935.7	627110.1	-0.00020756222
0	0.6455127	0.6455121	-8.4919925e-11	0.06717502	0.06717502	0	150384.28	150384.16	-1.814472e-05	627285.9	276431.44	-5.8011606e-06	276431.84	627285.5	-0.00011591347
0	0.64527225	0.6452718	-1.7255619e-10	0.066821605	0.066821605	0	150328.27	150328.14	-4.282468e-05	627462.56	275918.2	-0.00019524472	275918.56	627462.2	-5.7674282e-05
0	0.64503306	0.6450325	-1.8381976e-10	0.066468135	0.066468135	0	150272.55	150272.42	-4.4312037e-05	627639.06	275406.88	-0.00014355883	275407.25	627638.7	-0.00012586222
0	0.6447945	0.644794	-1.3538456e-10	0.06611443	0.06611443	0	150216.98	150216.84	-3.0319377e-05	627815.56	274896.4	-0.0001868874	274896.78	627815.2	-5.968882e-06
0	0.644552	0.64455146	-1.639766e-10	0.065760985	0.065760985	0	150160.48	150160.36	-4.0361687e-05	627992.75	274379.7	-0.00012483499	274380.12	627992.4	-0.00012239178
0	0.6443066	0.644306	-5.858602e-11	0.06540732	0.06540732	0	150103.3	150103.17	-9.928711e-06	628171.06	273857.75	-2.2432614e-05	273858.12	628170.6	-2.3044264e-05
0	0.6440649	0.64406425	-1.7415765e-10	0.0650539	0.0650539	0	150046.97	150046.84	-4.3572436e-05	628346.8	273343.62	-9.7232136e-05	273344	628346.4	-0.00015709522
0	0.64381605	0.6438156	-2.654283e-10	0.064700216	0.064700216	0	149989.03	149988.89	-5.9579324e-05	628525.94	272816.2	-0.00017261055	272816.6	628525.5	-0.00020023393
0	0.6435712	0.64357066	-1.5482922e-10	0.06434676	0.06434676	0	149931.98	149931.84	-3.3749446e-05	628702.7	272296.7	-0.0001143537	272297.12	628702.1	-0.00012292012
0	0.64332294	0.64332247	-2.6897046e-10	0.0639931	0.0639931	0	149874.14	149874.03	-6.107213e-05	628880.4	271771.44	-0.00019461829	271771.84	628879.9	-0.00018589111
0	0.6430731	0.6430725	-4.047663e-10	0.06363964	0.06363964	0	149815.94	149815.8	-9.483698e-05	629058.3	271243.7	-0.0003445699	271244.12	629057.8	-0.00024794202
0	0.64282227	0.64282167	-3.584257e-10	0.06328595	0.06328595	0	149757.5	149757.36	-8.340059e-05	629236.25	270714.62	-0.00030127575	270714.97	629235.8	-0.0002140116
0	0.6425669	0.6425664	-1.4381579e-10	0.0629325	0.0629325	0	149698.03	149697.88	-3.62095e-05	629416.2	270177.25	-0.000139518	270177.62	629415.8	-6.7956964e-05
0	0.64231616	0.6423155	-1.3853915e-10	0.06257904	0.06257904	0	149639.58	149639.45	-3.5675326e-05	629593.44	269648.72	-6.1557424e-05	269649.12	629593	-0.00014311538
0	0.6420617	0.64206105	-6.0192074e-10	0.062225346	0.062225346	0	149580.3	149580.16	-0.0001389711	629771.75	269114.22	-0.0004306799	269114.62	629771.25	-0.00042755937
0	0.6418051	0.6418045	-2.4411478e-10	0.06187191	0.06187191	0	149520.53	149520.4	-5.431058e-05	629950.3	268576.47	-0.00019667925	268576.88	629949.94	-0.00015559568
0	0.64154756	0.641547	-2.945379e-10	0.061518222	0.061518222	0	149460.55	149460.39	-7.052994e-05	630129.56	268036.7	-0.00022791098	268037.12	630129.06	-0.00019328775
0	0.6412861	0.6412854	-3.4227962e-10	0.061164826	0.061164826	0	149399.58	149399.45	-8.3080566e-05	630308.6	267491.4	-0.00022275168	267491.8	630308.2	-0.00028529388
0	0.64102876	0.6410281	3.7702178e-11	0.060811136	0.060811136	0	149339.66	149339.52	6.1852347e-06	630487.25	266952.53	8.099808e-05	266952.97	630486.8	-2.137664e-05
0	0.64076346	0.64076287	-8.014591e-11	0.060457677	0.060457677	0	149277.86	149277.73	-1.6475862e-05	630667.7	266400.72	-5.3169617e-05	266401.1	630667.25	-5.2221123e-05
0	0.6405007	0.6405001	2.3310043e-10	0.06010401	0.06010401	0	149216.67	149216.52	5.1155268e-05	630846.94	265853.72	0.00017750544	265854.16	630846.5	0.00015415654
0	0.6402383	0.6402377	-5.922822e-10	0.05975055	0.05975055	0	149155.52	149155.38	-0.00013941366	631026.4	265306.78	-0.00040786125	265307.2	631025.94	-0.00046636123
0	0.6399733	0.63997257	-2.1368132e-10	0.059396874	0.059396874	0	149093.77	149093.62	-5.1470062e-05	631206.44	264755.8	-0.00017797745	264756.22	631205.94	-0.00013507104
0	0.6397036	0.639703	-1.753998e-10	0.059043404	0.059043404	0	149030.92	149030.78	-4.0719802e-05	631386.3	264198.38	-0.000116200674	264198.78	631385.75	-0.0001428787
0	0.6394362	0.6394356	-1.6900886e-10	0.05868994	0.05868994	0	148968.66	148968.52	-3.868021e-05	631566.4	263643.84	-7.357469e-05	263644.28	631566	-0.00016195506
0	0.639167	0.6391664	-3.1273395e-10	0.05833627	0.05833627	0	148905.95	148905.8	-7.1977396e-05	631746.44	263086.94	-0.00021410816	263087.4	631746	-0.00022086027
0	0.6388958	0.63889515	-2.5675007e-10	0.057982814	0.057982814	0	148842.75	148842.61	-5.9300557e-05	631926.8	262526.75	-0.00021604574	262527.22	631926.4	-0.00015819684
0	0.6386197	0.638619	-6.444015e-11	0.057629142	0.057629142	0	148778.44	148778.28	-1.5569223e-05	632107.9	261959.22	-0.00014262839	261959.69	632107.44	4.8418784e-05
0	0.63834894	0.63834816	-2.9882638e-10	0.057275668	0.057275668	0	148715.34	148715.2	-7.21171e-05	632287.56	261400.5	-0.00022940525	261400.95	632287.06	-0.00022020975
0	0.63807267	0.638072	-7.8258455e-11	0.056922063	0.056922063	0	148650.98	148650.84	-2.1321624e-05	632468.75	260832.56	-5.1154737e-05	260833.05	632468.3	-6.4032545e-05
0	0.63779503	0.6377944	-2.0092647e-10	0.0565686	0.0565686	0	148586.31	148586.16	-4.7660855e-05	632649.7	260262.97	-9.5980446e-05	260263.45	632649.2	-0.00018413266
0	0.6375163	0.63751566	-1.03037634e-10	0.056214936	0.056214936	0	148521.38	148521.22	-2.2960263e-05	632829.75	259692.72	-9.866823e-05	259693.16	632829.25	-5.6450815e-05
0	0.63723683	0.637236	-4.414224e-11	0.05586146	0.05586146	0	148456.23	148456.1	-1.345941e-05	633011.25	259119.83	-1.0858231e-06	259120.3	633010.75	-8.535928e-05
0	0.636953	0.6369523	-9.2138776e-11	0.055507805	0.055507805	0	148390.16	148389.98	-2.1738255e-05	633192.4	258541.42	-0.0001027577	258541.88	633191.9	-3.637231e-05
0	0.63667136	0.6366707	-2.738351e-10	0.055154327	0.055154327	0	148324.55	148324.38	-6.08885e-05	633374.06	257965.4	-0.00016973165	257965.89	633373.6	-0.00021483102
0	0.63638574	0.6363851	-1.1724251e-10	0.054800846	0.054800846	0	148258.02	148257.84	-2.925446e-05	633555.06	257384.6	-6.7958696e-05	257385.06	633554.5	-0.000102275546
0	0.6361005	0.6360998	-1.7668941e-11	0.05444718	0.05444718	0	148191.55	148191.38	-6.0552507e-06	633736.94	256803.27	-1.1494328e-05	256803.77	633736.44	1.1055929e-05
0	0.63580924	0.63580847	-2.8431615e-10	0.054093722	0.054093722	0	148123.7	148123.52	-6.3103944e-05	633920.06	256212.39	-0.00024727368	256212.88	633919.6	-0.0001355558
0	0.6355233	0.63552266	-1.246847e-10	0.053740054	0.053740054	0	148057.08	148056.9	-2.8535624e-05	634100.4	255631.75	-5.44679e-05	255632.25	634099.94	-0.000113750175
0	0.63523257	0.6352318	-4.3166556e-10	0.053386588	0.053386588	0	147989.33	147989.17	-0.00010307754	634281.94	255043.11	-0.00031693457	255043.62	634281.44	-0.0003349599
0	0.63493955	0.63493884	-2.2511525e-10	0.053032987	0.053032987	0	147921.08	147920.89	-5.2461357e-05	634464	254450.83	-8.736194e-05	254451.36	634463.5	-0.00021559259
0	0.6346463	0.6346455	-2.9340874e-10	0.05267951	0.05267951	0	147852.75	147852.6	-7.074955e-05	634646	253858.42	-8.1263795e-05	253858.9	634645.44	-0.00032236625
0	0.63435006	0.63434935	-1.5635324e-10	0.05232584	0.05232584	0	147783.75	147783.58	-3.613441e-05	634828	253261.62	-7.3276686e-05	253262.12	634827.5	-0.00014178184
0	0.6340509	0.6340502	-3.403002e-10	0.05197238	0.05197238	0	147714.05	147713.88	-7.907323e-05	635010.56	252660.17	-0.00013385242	252660.66	635010	-0.00034656445
0	0.6337537	0.63375294	-2.2998785e-10	0.051618718	0.051618718	0	147644.8	147644.62	-5.4334112e-05	635192.44	252062.23	-0.00016665878	252062.75	635191.94	-0.00016239598
0	0.63345164	0.6334509	-1.4272501e-10	0.05126525	0.05126525	0	147574.45	147574.27	-3.4844303e-05	635375	251456.81	-4.4244545e-05	251457.31	635374.5	-0.00016226988
0	0.63315123	0.6331504	-8.045735e-11	0.05091175	0.05091175	0	147504.45	147504.27	-2.1037045e-05	635557.9	250853.36	-1.49717525e-05	250853.89	635557.3	-9.214268e-05
0	0.63284844	0.6328477	-2.1298838e-10	0.0505581	0.0505581	0	147433.9	147433.73	-5.439879e-05	635740.06	250247.16	-0.00016625704	250247.67	635739.56	-0.00015034633
0	0.6325441	0.63254327	-2.1843834e-10	0.050204627	0.050204627	0	147362.98	147362.83	-5.297232e-05	635922.3	249638.89	-0.00016474638	249639.39	635921.8	-0.0001428901
0	0.63223666	0.63223594	-1.5905191e-10	0.049850974	0.049850974	0	147291.39	147291.22	-3.5342408e-05	636105.2	249025.64	-3.1652915e-05	249026.16	636104.6	-0.00019794675
0	0.63192564	0.6319248	5.585857e-11	0.049497493	0.049497493	0	147218.92	147218.73	7.970907e-06	636288	248407.33	7.0814436e-05	248407.86	636287.44	-1.0659224e-05
0	0.6316182	0.6316173	-9.194547e-11	0.049143914	0.049143914	0	147147.31	147147.12	-2.2313634e-05	636470.8	247794.2	-4.061615e-05	247794.73	636470.25	-9.4015595e-05
0	0.6313068	0.631306	-2.6925792e-10	0.04879043	0.04879043	0	147074.75	147074.58	-6.379123e-05	636652.75	247176.22	-0.000113728864	247176.75	636652.2	-0.00028770382
0	0.63099164	0.630991	-2.7343425e-10	0.04843677	0.04843677	0	147001.34	147001.16	-6.1404244e-05	636836.25	246551.58	-0.00019721188	246552.14	636835.7	-0.00018955948
0	0.63067424	0.63067347	-1.9778117e-10	0.04808329	0.04808329	0	146927.38	146927.22	-4.76285e-05	637019.75	245923.72	-0.00010295259	245924.25	637019.2	-0.00018354483
0	0.6303582	0.63035744	-1.9799418e-10	0.04772965	0.04772965	0	146853.77	146853.6	-4.514712e-05	637202.44	245298.53	-0.00013445588	245299.08	637201.9	-0.00011955266
0	0.6300417	0.630041	-4.2956354e-11	0.047376156	0.047376156	0	146780.05	146779.88	-6.7183823e-06	637385.7	244672.33	-4.847344e-05	244672.9	637385	3.369356e-05
0	0.6297215	0.6297206	2.7548016e-11	0.04702266	0.04702266	0	146705.42	146705.22	5.6780887e-06	637568.75	244040.73	-3.206415e-05	244041.31	637568.2	9.3105344e-05
0	0.6293974	0.6293966	2.5014173e-11	0.046669014	0.046669014	0	146629.94	146629.75	4.9932246e-06	637751.4	243404.52	-6.997319e-05	243405.05	637750.9	8.685112e-05
0	0.62907225	0.6290714	-1.82651e-10	0.046315536	0.046315536	0	146554.17	146553.98	-3.801273e-05	637935.2	242765.45	-8.60321e-05	242766.05	637934.5	-0.00013563225
0	0.6287486	0.6287478	-1.7650018e-10	0.045961887	0.045961887	0	146478.78	146478.6	-3.9917042e-05	638118.25	242129.27	-0.00011914201	242129.84	638117.6	-0.00013364226
0	0.6284223	0.6284215	-1.2440765e-10	0.045608394	0.045608394	0	146402.75	146402.56	-2.8422912e-05	638301.44	241489.12	-8.6904074e-05	241489.73	638300.8	-8.28747e-05
0	0.6280929	0.628092	-2.322402e-10	0.04525483	0.04525483	0	146326	146325.8	-5.5377393e-05	638484.75	240844.62	-0.000109410525	240845.19	638484.1	-0.0002162713
0	0.62776047	0.6277597	-6.465001e-11	0.044901334	0.044901334	0	146248.6	146248.4	-1.3726033e-05	638667.9	240196.3	-0.00013852648	240196.84	638667.2	3.5310262e-05
0	0.627429	0.62742805	-3.1848557e-10	0.044547696	0.044547696	0	146171.34	146171.14	-7.575487e-05	638851.1	239548.75	-0.00019465604	239549.34	638850.56	-0.00026231303
0	0.6270912	0.6270904	-4.0699327e-10	0.04419421	0.04419421	0	146092.66	146092.45	-9.706488e-05	639035.06	238892.08	-0.00034638267	238892.7	639034.44	-0.00024254638
0	0.62675816	0.62675726	-3.9165873e-10	0.04384058	0.04384058	0	146015.08	146014.88	-9.0420785e-05	639217.8	238243.08	-0.00026287045	238243.67	639217.1	-0.00030464117
0	0.6264187	0.6264179	-2.449365e-10	0.043487065	0.043487065	0	145936	145935.81	-5.68667e-05	639401.25	237584.47	-0.00017576737	237585.05	639400.6	-0.00016395014
0	0.62607896	0.626078	-2.3545574e-10	0.04313356	0.04313356	0	145856.81	145856.62	-5.3676322e-05	639584.44	236925.45	-0.00017457097	236926.08	639583.75	-0.0001605367
0	0.6257341	0.6257332	-1.3402468e-10	0.042779934	0.042779934	0	145776.48	145776.3	-3.0086689e-05	639768.25	236258.97	-0.00013879432	236259.6	639767.6	-4.044509e-05
0	0.62539315	0.62539226	-2.462035e-10	0.04242642	0.04242642	0	145697.08	145696.88	-5.889815e-05	639951.6	235598.19	-0.00020971728	235598.8	639950.94	-0.00013264325
0	0.62504715	0.62504625	-2.8293126e-10	0.04207281	0.04207281	0	145616.45	145616.25	-6.2638006e-05	640134.5	234930.9	-0.00013456204	234931.53	640133.94	-0.00024083816
0	0.62469965	0.62469876	-2.2156207e-10	0.041719295	0.041719295	0	145535.52	145535.3	-5.415187e-05	640318.06	234260.86	-0.00018796684	234261.52	640317.4	-0.000114619856
0	0.62434953	0.6243487	-1.2065274e-10	0.041365758	0.041365758	0	145453.92	145453.73	-3.1517946e-05	640501.4	233587.33	-8.874672e-05	233587.95	640500.7	-7.7457364e-05
0	0.6239986	0.6239977	-1.0587427e-10	0.041012242	0.041012242	0	145372.19	145371.97	-2.2437614e-05	640684.25	232913.17	-1.2064013e-05	232913.8	640683.6	-0.00011644471
0	0.6236451	0.6236443	-2.7879402e-10	0.040658627	0.040658627	0	145289.86	145289.62	-6.0165235e-05	640867.8	232234.94	-0.0001380447	232235.53	640867.06	-0.00022850632
0	0.6232871	0.6232861	-3.0000186e-10	0.040305126	0.040305126	0	145206.4	145206.19	-6.796082e-05	641050.94	231550.25	-0.0001951861	231550.88	641050.4	-0.00019700588
0	0.6229289	0.6229279	-3.6031733e-10	0.03995151	0.03995151	0	145122.95	145122.73	-8.307275e-05	641234	230865.83	-0.00018855833	230866.45	641233.3	-0.00030758136
0	0.62256914	0.62256825	-9.564333e-11	0.039597988	0.039597988	0	145039.16	145038.92	-1.739081e-05	641418.6	230177.58	-3.0227087e-05	230178.2	641417.9	-6.4845575e-05
0	0.62221116	0.6222102	-2.152754e-10	0.03924446	0.03924446	0	144955.75	144955.53	-5.2775737e-05	641600.6	229494.34	-0.00012706096	229494.98	641600	-0.00017457006
0	0.62184495	0.62184393	-2.9542002e-10	0.03889085	0.03889085	0	144870.44	144870.2	-7.0311035e-05	641783.5	228798.77	-0.00021824076	228799.44	641782.75	-0.00020758716
0	0.6214815	0.6214805	-2.0775312e-10	0.03853732	0.03853732	0	144785.77	144785.55	-5.1350118e-05	641966.8	228106.72	-0.000190113	228107.38	641966.06	-0.000115441406
0	0.62111413	0.6211133	-1.12771986e-10	0.03818373	0.03818373	0	144700.19	144699.97	-2.8709874e-05	642149.6	227409.53	-6.94317e-05	227410.2	642148.94	-9.447931e-05
0	0.6207451	0.6207441	-2.543953e-10	0.0378302	0.0378302	0	144614.22	144613.98	-5.6158442e-05	642332.6	226709.89	-0.00018678245	226710.6	642331.9	-0.0001850075
0	0.62037075	0.6203698	-2.1228569e-10	0.03747659	0.03747659	0	144526.98	144526.77	-5.4038333e-05	642516.2	226002.19	-0.00013683396	226002.86	642515.5	-0.00017886047
0	0.62	0.6199991	-2.2371789e-10	0.037123155	0.037123155	0	144440.62	144440.4	-5.347262e-05	642697.94	225301.44	-0.00017172196	225302.1	642697.25	-0.00015544146
0	0.619624	0.619623	-3.2586644e-10	0.036769558	0.036769558	0	144353.03	144352.8	-7.691971e-05	642880.94	224591.95	-0.00022837403	224592.62	642880.2	-0.00024561238
0	0.6192426	0.6192416	-3.025302e-10	0.036416043	0.036416043	0	144264.17	144263.95	-6.94928e-05	643064	223874.95	-0.00022317244	223875.67	643063.25	-0.00022368341
0	0.6188661	0.6188651	-1.4531866e-10	0.036062438	0.036062438	0	144176.45	144176.2	-3.468657e-05	643246.06	223165.69	-0.00016444788	223166.4	643245.3	-4.673684e-05
0	0.61848336	0.61848235	-2.2712941e-10	0.035708897	0.035708897	0	144087.3	144087.08	-5.107093e-05	643428.7	222447.3	-0.0001816508	222447.98	643428.06	-0.00015449195
0	0.6180988	0.6180978	-5.454913e-11	0.035355352	0.035355352	0	143997.72	143997.47	-1.2586314e-05	643610.4	221727.33	-1.9762047e-05	221728.02	643609.6	-4.9731094e-05
0	0.6177131	0.617712	-1.8687468e-10	0.03500176	0.03500176	0	143907.86	143907.61	-4.5594497e-05	643793.1	221004.53	-0.00012764563	221005.25	643792.4	-0.00013652623
0	0.6173241	0.6173231	-2.6168107e-10	0.034648214	0.034648214	0	143817.22	143816.97	-6.146216e-05	643975.3	220277.72	-0.00020507033	220278.45	643974.5	-0.00016708153
0	0.6169335	0.6169325	-3.2543837e-10	0.034294646	0.034294646	0	143726.23	143726	-7.81859e-05	644157.56	219548.75	-0.00023756702	219549.47	644156.8	-0.00023535
0	0.6165402	0.61653906	-6.735908e-11	0.033941098	0.033941098	0	143634.6	143634.36	-1.719476e-05	644339.4	218816.11	-7.88546e-05	218816.86	644338.56	-2.641979e-05
0	0.6161451	0.616144	-2.5414174e-10	0.03358751	0.03358751	0	143542.55	143542.3	-6.0445258e-05	644520.94	218081.5	-0.00014485647	218082.22	644520.2	-0.00022625513
0	0.6157478	0.6157467	-2.0815814e-10	0.033234067	0.033234067	0	143449.98	143449.75	-4.7337144e-05	644702.94	217343.23	-0.00013539176	217344	644702.25	-0.00014841233
0	0.6153476	0.6153465	-1.1720756e-10	0.032880493	0.032880493	0	143356.75	143356.5	-2.4114865e-05	644884.44	216601.45	-9.63324e-05	216602.17	644883.6	-5.19792e-05
0	0.61494607	0.614945	-1.9461556e-10	0.03252695	0.03252695	0	143263.22	143262.97	-4.2346554e-05	645065.94	215857.88	-9.171357e-05	215858.64	645065.1	-0.00015770727
0	0.6145419	0.61454076	-2.506218e-10	0.03217338	0.03217338	0	143169.05	143168.8	-5.7255984e-05	645247.3	215110.58	-0.00021402197	215111.31	645246.5	-0.00012755347
0	0.61413515	0.614134	-1.0203965e-10	0.03181982	0.03181982	0	143074.3	143074.05	-2.1225844e-05	645428.5	214359.86	3.208476e-06	214360.66	645427.75	-0.0001306688
0	0.6137257	0.6137246	4.3220094e-11	0.03146625	0.03146625	0	142978.9	142978.64	1.0761872e-05	645609.1	213606.02	2.2090791e-05	213606.78	645608.4	7.1338574e-05
0	0.6133155	0.6133144	-3.757594e-12	0.031112673	0.031112673	0	142883.34	142883.1	2.9889563e-06	645790.3	212850.61	3.891685e-06	212851.36	645789.5	2.3608518e-05
0	0.61290187	0.61290073	-1.3504041e-10	0.030759111	0.030759111	0	142786.98	142786.72	-2.8323058e-05	645970.8	212091.05	-8.837926e-05	212091.81	645970.06	-7.9932484e-05
0	0.6124846	0.6124834	-1.4329737e-10	0.030405568	0.030405568	0	142689.78	142689.5	-3.152407e-05	646151.1	211326.48	-0.00012805397	211327.25	646150.4	-8.1806946e-05
0	0.61206746	0.6120663	-2.137483e-10	0.030052004	0.030052004	0	142592.6	142592.31	-5.143109e-05	646331.75	210561.95	-0.00017061703	210562.77	646330.94	-0.00013217538
0	0.61164474	0.61164355	-3.191163e-10	0.029698437	0.029698437	0	142494.11	142493.84	-6.942376e-05	646511.5	209790.3	-0.00025293333	209791.06	646510.7	-0.00018476017
0	0.6112228	0.6112216	-2.5599828e-10	0.02934497	0.02934497	0	142395.81	142395.55	-6.0015926e-05	646691.7	209019.5	-0.0001878545	209020.33	646690.9	-0.0001644475
0	0.6107957	0.6107944	-3.1494776e-10	0.028991407	0.028991407	0	142296.3	142296.03	-7.071875e-05	646872.6	208240.4	-0.0002882502	208241.23	646871.75	-0.00013789898
0	0.61037034	0.61036915	-9.415783e-11	0.028637834	0.028637834	0	142197.22	142196.94	-1.7816328e-05	647051.56	207466	-3.695103e-05	207466.84	647050.8	-8.431175e-05
0	0.60994107	0.60993993	-2.3831348e-10	0.0282843	0.0282843	0	142097.22	142096.92	-5.6414272e-05	647230.4	206686.33	-0.00017760404	206687.17	647229.6	-0.00016639699
0	0.60950714	0.6095059	-1.3144712e-10	0.02793073	0.02793073	0	141996.1	141995.81	-3.209191e-05	647410.1	205898.95	-0.00014232821	205899.81	647409.3	-7.0607304e-05
0	0.60907084	0.6090696	-4.2789958e-10	0.027577164	0.027577164	0	141894.47	141894.19	-0.00010091887	647588.9	205109.4	-0.00033182197	205110.25	647588.06	-0.0002918367
0	0.60863423	0.608633	-2.3920188e-10	0.02722359	0.02722359	0	141792.77	141792.47	-6.012456e-05	647767.56	204319.42	-0.00014433243	204320.27	647766.8	-0.00021314865
0	0.60819364	0.60819244	-2.8911556e-10	0.026870027	0.026870027	0	141690.11	141689.84	-6.6851826e-05	647946.1	203524.1	-0.00023053514	203524.95	647945.44	-0.00018976684
0	0.6077493	0.60774815	-3.3293765e-10	0.026516493	0.026516493	0	141586.61	141586.34	-7.969134e-05	648124.44	202723.83	-0.00028697835	202724.72	648123.56	-0.00019737105
0	0.6073049	0.6073036	-3.1218167e-10	0.02616292	0.02616292	0	141483.08	141482.77	-7.1273294e-05	648302.4	201923.56	-0.00027596764	201924.44	648301.5	-0.00014695195
0	0.6068551	0.6068539	-1.9527684e-10	0.025809359	0.025809359	0	141378.28	141377.98	-4.4802877e-05	648479.9	201116.45	-0.00015200031	201117.38	648479	-0.00014302759
0	0.6064079	0.6064066	-8.9281825e-11	0.025455875	0.025455875	0	141274.08	141273.8	-2.276694e-05	648657.4	200312.8	-0.00014654182	200313.67	648656.4	2.870151e-06
0	0.605954	0.6059528	-1.0742492e-10	0.025102314	0.025102314	0	141168.36	141168.06	-2.1584365e-05	648835.44	199499.33	-5.7084544e-05	199500.22	648834.5	-8.214205e-05
0	0.60549825	0.605497	-2.0512991e-10	0.024748746	0.024748746	0	141062.17	141061.88	-5.0247145e-05	649012.25	198684.34	-0.00015356777	198685.23	649011.4	-0.00013782762
0	0.60504	0.6050387	-1.032722e-10	0.024395214	0.024395214	0	140955.4	140955.11	-2.6201333e-05	649188.9	197866.22	-7.487979e-05	197867.14	649188	-8.135603e-05
0	0.60457784	0.6045765	-2.794938e-10	0.024041645	0.024041645	0	140847.73	140847.42	-6.6942375e-05	649365.06	197042.89	-6.353718e-05	197043.8	649364.2	-0.00034241762
0	0.60411483	0.6041136	-1.8454499e-10	0.023688078	0.023688078	0	140739.89	140739.6	-4.097664e-05	649541.7	196218.3	-0.00010355397	196219.2	649540.7	-0.00013520071
0	0.60364664	0.6036453	-3.305653e-10	0.023334507	0.023334507	0	140630.8	140630.5	-7.870053e-05	649716.9	195387.42	-0.00021730048	195388.38	649716	-0.0002715321
0	0.60317856	0.60317725	-3.0532285e-10	0.022980943	0.022980943	0	140521.77	140521.45	-7.0624155e-05	649893.2	194555.81	-0.0002573989	194556.77	649892.25	-0.00016319464
0	0.6027074	0.602706	-2.2710372e-10	0.022627415	0.022627415	0	140411.98	140411.66	-5.6095865e-05	650067.94	193721.36	-0.00026449765	193722.33	650067	-7.508484e-05
0	0.6022325	0.6022312	-1.587423e-10	0.022273848	0.022273848	0	140301.36	140301.06	-3.564774e-05	650243	192881.56	-0.000114809605	192882.53	650242.1	-9.766066e-05
0	0.6017545	0.6017531	-3.3917932e-10	0.02192029	0.02192029	0	140189.97	140189.69	-7.93494e-05	650418.2	192037.2	-0.00023507803	192038.17	650417.2	-0.00025643833
0	0.60127413	0.60127276	-2.1409793e-10	0.02156678	0.02156678	0	140078.1	140077.77	-5.1904328e-05	650592.25	191190.56	-0.00020237974	191191.52	650591.3	-0.00011410523
0	0.6007884	0.60078704	-2.1855512e-10	0.02121321	0.02121321	0	139964.94	139964.62	-4.892341e-05	650766.7	190336.11	-0.00017062493	190337.1	650765.9	-0.00012735047
0	0.60030544	0.6003041	-3.862609e-10	0.020859648	0.020859648	0	139852.44	139852.1	-9.002017e-05	650939.56	189487.14	-0.00028989327	189488.14	650938.56	-0.00026138767
0	0.59981513	0.5998137	-2.7924194e-10	0.020506121	0.020506121	0	139738.17	139737.84	-6.410115e-05	651112.2	188627.89	-0.0002781307	188628.86	651111.25	-0.00010746285
0	0.5993248	0.59932345	-6.851032e-11	0.020152563	0.020152563	0	139623.97	139623.62	-1.3148194e-05	651285.7	187768.22	-9.1714894e-05	187769.2	651284.7	2.3881017e-05
0	0.59883004	0.5988286	-2.4367314e-10	0.019798994	0.019798994	0	139508.67	139508.34	-5.8891088e-05	651458.25	186902.73	-0.0002321952	186903.77	651457.4	-0.00012292541
0	0.598332	0.5983305	-3.9457848e-10	0.019445425	0.019445425	0	139392.64	139392.31	-9.072757e-05	651630.7	186033.06	-0.00030010872	186034.1	651629.7	-0.00025956
0	0.5978312	0.59782976	-3.6321696e-10	0.019091865	0.019091865	0	139275.98	139275.64	-8.230953e-05	651802	185160.66	-0.0002607484	185161.7	651800.94	-0.0002690467
0	0.5973283	0.5973269	1.5290567e-11	0.018738296	0.018738296	0	139158.84	139158.5	2.0666598e-06	651973.5	184285.27	2.6179001e-05	184286.3	651972.4	8.675033e-06
0	0.59681904	0.5968175	-1.6639634e-10	0.018384779	0.018384779	0	139040.19	139039.84	-3.889647e-05	652144.3	183401.27	-3.7045993e-05	183402.33	652143.3	-0.0002128566
0	0.59631205	0.5963105	-2.1325161e-10	0.018031219	0.018031219	0	138922.08	138921.73	-4.851603e-05	652315.2	182520.6	-0.0002052319	182521.66	652314.25	-8.963985e-05
0	0.5957992	0.59579766	-6.570657e-11	0.017677676	0.017677676	0	138802.6	138802.23	-2.002391e-05	652485.3	181632.48	-0.00012616845	181633.56	652484.3	3.1847685e-05
0	0.59528357	0.5952821	-3.4483227e-10	0.017324107	0.017324107	0	138682.47	138682.11	-8.37533e-05	652654.94	180740.95	-0.00029555563	180742.03	652653.9	-0.00020136524
0	0.5947652	0.59476364	-1.4482444e-10	0.016970549	0.016970549	0	138561.69	138561.31	-3.3768752e-05	652823.75	179846.38	-0.00022414785	179847.47	652822.6	2.3370572e-05
0	0.5942441	0.5942427	-4.9210067e-11	0.016617034	0.016617034	0	138440.34	138439.97	-1.14328e-05	652992.75	178948	-7.1466806e-05	178949.12	652991.75	-6.2082853e-07
0	0.5937189	0.5937173	-8.7377064e-11	0.016263476	0.016263476	0	138317.95	138317.58	-1.7686352e-05	653161.3	178043.95	-0.00015248598	178045.06	653160.3	4.250813e-05
0	0.5931921	0.59319055	-3.1796916e-11	0.01590991	0.01590991	0	138195.22	138194.86	-6.6516923e-06	653328.56	177139.27	1.910935e-05	177140.4	653327.5	-6.0089205e-05
0	0.5926591	0.59265745	-8.2416095e-11	0.015556336	0.015556336	0	138071.05	138070.66	-1.9194857e-05	653495.8	176225.72	1.7612932e-05	176226.86	653494.75	-0.0001385201
0	0.59212524	0.59212357	-1.2718009e-10	0.015202784	0.015202784	0	137946.69	137946.3	-2.6897267e-05	653663.44	175310.84	-0.00010131634	175311.97	653662.25	-5.6587003e-05
0	0.59158844	0.5915868	-2.7877796e-11	0.014849219	0.014849219	0	137821.61	137821.25	-7.644635e-06	653829.4	174393.34	-6.762668e-05	174394.5	653828.25	3.4981917e-05
0	0.59104437	0.5910427	-2.404309e-11	0.014495703	0.014495703	0	137694.86	137694.5	-6.0575735e-06	653994.94	173465.98	-3.3779714e-05	173467.17	653993.9	2.5289607e-06
0	0.590504	0.5905023	-2.4062294e-10	0.01414215	0.01414215	0	137568.97	137568.58	-5.922446e-05	654160.75	172543.67	-0.00014823784	172544.84	654159.6	-0.00021505934
0	0.5899545	0.5899529	-1.7148714e-10	0.013788582	0.013788582	0	137440.97	137440.6	-3.823482e-05	654326.2	171609	-0.00014692725	171610.19	654325.06	-9.462184e-05
0	0.58940494	0.5894033	-1.9952931e-10	0.013435014	0.013435014	0	137312.9	137312.53	-4.7121146e-05	654490.7	170674.9	-5.8011123e-05	170676.1	654489.6	-0.00022001403
0	0.588851	0.5888493	-1.559524e-10	0.01308146	0.01308146	0	137183.88	137183.47	-3.540532e-05	654654.4	169735.72	-0.00011302507	169736.94	654653.3	-0.000106225816
0	0.58829397	0.5882922	-3.3214023e-10	0.012727938	0.012727938	0	137054.11	137053.72	-7.695618e-05	654817.6	168792.67	-0.00028057327	168793.88	654816.44	-0.00020244914
0	0.5877304	0.5877288	-9.759333e-11	0.012374373	0.012374373	0	136922.83	136922.45	-2.2259257e-05	654979.6	167841.86	-5.5079392e-05	167843.1	654978.44	-6.281281e-05
0	0.58716667	0.58716494	-1.019029e-10	0.012020823	0.012020823	0	136791.47	136791.1	-2.9953237e-05	655141.6	166890.42	-4.4797325e-05	166891.67	655140.56	-0.00013830788
0	0.58660036	0.5865987	-1.13496934e-10	0.011667253	0.011667253	0	136659.55	136659.16	-2.2908795e-05	655303	165936.34	-0.00015485447	165937.56	655301.75	9.877125e-06
0	0.586029	0.5860272	-3.4843634e-10	0.011313708	0.011313708	0	136526.44	136526.03	-8.327821e-05	655464.7	164974.64	-0.00023337216	164975.92	655463.44	-0.00027939884
0	0.58545625	0.5854545	6.8728856e-11	0.010960145	0.010960145	0	136393.03	136392.61	1.4543282e-05	655625	164012.47	0.00013095376	164013.75	655623.8	-2.1983751e-05
0	0.58487725	0.5848754	-1.2781107e-10	0.010606605	0.010606605	0	136258.11	136257.69	-3.0903888e-05	655784.94	163041.9	-4.411919e-05	163043.22	655783.7	-0.00013260264
0	0.5842955	0.58429366	-2.100984e-10	0.010253061	0.010253061	0	136122.6	136122.16	-5.198297e-05	655943.6	162068.7	-0.00017002894	162070.02	655942.5	-0.0001454989
0	0.5837106	0.58370876	-1.7527217e-10	0.009899497	0.009899497	0	135986.31	135985.9	-3.936311e-05	656102.94	161090.62	-2.1361151e-05	161091.94	656101.6	-0.00021779869
0	0.58312255	0.5831207	3.6160814e-11	0.0095459325	0.0095459325	0	135849.33	135848.9	1.1875868e-05	656260.25	160110	1.0067158e-05	160111.31	656259	6.233895e-05
0	0.58253056	0.5825287	-1.6142691e-10	0.009192389	0.009192389	0	135711.42	135710.98	-3.705923e-05	656417.44	159124.08	-0.00020725488	159125.42	656416.2	-3.7797756e-05
0	0.5819348	0.5819329	-1.7652818e-10	0.008838838	0.008838838	0	135572.61	135572.17	-4.1503663e-05	656573.7	158133.66	-4.8215086e-05	158135	656572.44	-0.00020575066
0	0.5813341	0.58133215	-5.554947e-11	0.008485274	0.008485274	0	135432.66	135432.22	-1.0968998e-05	656729.25	157136.98	-0.00012708611	157138.36	656728	5.845725e-05
0	0.5807301	0.58072823	6.434081e-11	0.008131738	0.008131738	0	135291.95	135291.52	1.3789317e-05	656884.25	156136.36	-8.772999e-05	156137.73	656883	0.00017486174
0	0.5801241	0.5801221	-1.4798386e-10	0.007778168	0.007778168	0	135150.78	135150.31	-3.377734e-05	657039.56	155132.73	-0.00011930911	155134.14	657038.25	-7.451687e-05
0	0.57951325	0.5795113	2.7194536e-10	0.0074246093	0.0074246093	0	135008.48	135008.03	6.0080893e-05	657193.5	154123.64	0.0002795611	154125.05	657192.1	0.00012988097
0	0.57889706	0.5788951	-8.775841e-11	0.007071075	0.007071075	0	134864.9	134864.47	-2.249485e-05	657346.6	153107.72	-0.00015614391	153109.16	657345.4	3.4627006e-05