# t (s)	mx ()	my ()	mz ()	B_extx (T)	B_exty (T)	B_extz (T)	m_fullx (A/m)	m_fully (A/m)	m_fullz (A/m)	m_full.region1x (A/m)	m_full.region1y (A/m)	m_full.region1z (A/m)	m_full.region2x (A/m)	m_full.region2y (A/m)	m_full.region2z (A/m)
0	0.65742725	0.6574243	-9.1672225e-10	0.07071067	0.07071067	0	158158.2	158157.48	-0.00022002551	617814.7	302581.06	-0.000663413	302583.4	617812.9	-0.00062351546
0	0.65734893	0.6573485	-4.2296644e-10	0.07056918	0.07056918	0	158139.39	158139.25	-0.0001040338	617884.4	302403.9	-0.00042681117	302404.1	617884.06	-0.00019299287
0	0.65726775	0.6572676	-4.831374e-10	0.07042789	0.07042789	0	158119.83	158119.8	-0.00011543367	617960.6	302214.2	-0.00033495398	302214.16	617960.44	-0.00037114014
0	0.6571859	0.6571857	-4.8667687e-10	0.070286386	0.07028639	0	158100.12	158100.11	-0.00011790497	618037.44	302022.88	-0.00022639548	302022.78	618037.2	-0.00043052257
0	0.6571034	0.65710324	8.246961e-10	0.07014501	0.07014502	0	158080.3	158080.27	0.00019834183	618114.1	301830.72	0.00075990945	301830.62	618113.8	0.00044536818
0	0.6570218	0.65702176	-5.698544e-10	0.07000352	0.07000351	0	158060.69	158060.66	-0.00013273278	618190	301640.66	-0.0004054706	301640.5	618189.75	-0.00035629453
0	0.656939	0.6569389	-2.1413783e-10	0.06986222	0.06986222	0	158040.75	158040.73	-4.9744896e-05	618267.1	301447.6	-0.00016515737	301447.47	618266.9	-0.00010391924
0	0.6568574	0.65685725	-2.0528916e-10	0.069720745	0.069720745	0	158021.11	158021.1	-5.0382652e-05	618343.9	301256.53	-7.422803e-05	301256.44	618343.6	-0.00021990054
0	0.6567743	0.65677416	-3.5040734e-10	0.06957926	0.06957926	0	158001.16	158001.11	-8.737245e-05	618420.94	301063.2	-0.00031268556	301063.1	618420.75	-0.00018928148
0	0.65669125	0.65669113	-3.167824e-10	0.06943794	0.06943794	0	157981.16	157981.11	-7.732781e-05	618497.5	300870.3	-0.00027835512	300870.2	618497.3	-0.00014103325
0	0.6566088	0.6566087	-3.0439426e-10	0.0692964	0.0692964	0	157961.31	157961.28	-7.142857e-05	618574.5	300677.97	-0.00015959026	300677.84	618574.2	-0.0002857779
0	0.6565262	0.6565261	-6.3533456e-10	0.069155104	0.069155104	0	157941.45	157941.42	-0.00015848214	618650.75	300486.06	-0.0005307304	300485.97	618650.5	-0.00037856295
0	0.65644205	0.65644187	-6.4595296e-10	0.0690136	0.0690136	0	157921.2	157921.17	-0.00015800382	618728.3	300290.7	-0.00045093527	300290.56	618728.06	-0.00048619357
0	0.656358	0.6563579	-2.5130226e-10	0.068872124	0.068872124	0	157900.98	157900.95	-5.580357e-05	618805.56	300095.72	-9.185718e-05	300095.62	618805.25	-0.0002802108
0	0.6562746	0.65627456	-4.2827566e-10	0.06873082	0.06873082	0	157880.92	157880.89	-0.000102200254	618882.6	299901.94	-0.0002857779	299901.88	618882.3	-0.00032660333
0	0.6561904	0.65619034	-3.946507e-10	0.06858932	0.06858932	0	157860.67	157860.64	-9.119898e-05	618959.75	299706.9	-0.00029412855	299706.8	618959.56	-0.0002560867
0	0.65610564	0.6561056	-3.9819018e-10	0.068447955	0.068447955	0	157840.3	157840.27	-9.8373726e-05	619037.56	299510.56	-0.00022268409	299510.47	619037.3	-0.00033077865
0	0.6560225	0.65602237	-1.7166421e-10	0.06830648	0.06830648	0	157820.27	157820.23	-4.559949e-05	619114.3	299317.3	-0.0001159813	299317.22	619114	-9.6496435e-05
0	0.6559377	0.6559376	-4.672098e-10	0.06816515	0.06816515	0	157799.86	157799.84	-0.00011049107	619191.8	299121.06	-0.00023474614	299120.9	619191.5	-0.00044165677
0	0.655853	0.6558529	-2.548417e-10	0.068023674	0.068023674	0	157779.5	157779.48	-5.707908e-05	619269.4	298925.03	-0.00020412708	298924.9	619269.1	-0.00016330167
0	0.6557676	0.6557675	-2.955456e-10	0.06788219	0.067882195	0	157758.94	157758.92	-6.664541e-05	619346.6	298728.1	-0.00019763212	298728	619346.4	-0.00022639548
0	0.65568256	0.65568244	-2.0174969e-10	0.06774088	0.06774088	0	157738.5	157738.47	-4.7831632e-05	619424.7	298531.03	-0.0001419611	298530.94	619424.44	-0.00014103325
0	0.6555976	0.6555975	-5.238413e-10	0.067599334	0.067599334	0	157718.06	157718.02	-0.00012436224	619501.9	298334.88	-0.00040639847	298334.8	619501.56	-0.00033217043
0	0.6555128	0.65551275	-4.4774273e-10	0.06745803	0.06745803	0	157697.66	157697.62	-0.000101243626	619578.75	298139.28	-0.0003669648	298139.22	619578.5	-0.00023010689
0	0.65542644	0.6554264	-9.7335376e-11	0.06731653	0.06731653	0	157676.89	157676.86	-2.742347e-05	619657.06	297940.1	-0.00014056933	297940.03	619656.8	0
0	0.65534073	0.65534055	-5.3092024e-11	0.06717506	0.06717506	0	157656.25	157656.2	-1.3711735e-05	619734.56	297742.53	-5.567102e-06	297742.4	619734.4	-0.000104383165
0	0.65525395	0.6552538	-3.6102576e-10	0.06703376	0.06703376	0	157635.39	157635.33	-9.781569e-05	619812.9	297542.78	-0.00025330315	297542.66	619812.5	-0.00033773753
0	0.6551683	0.6551682	-3.1501268e-10	0.066892266	0.066892266	0	157614.78	157614.75	-7.461735e-05	619890.56	297345.16	-0.00022082838	297345.03	619890.25	-0.00018928148
0	0.65508103	0.65508085	-2.79618e-10	0.066750884	0.066750884	0	157593.78	157593.73	-6.4333544e-05	619968.9	297144.7	-0.00021526129	297144.62	619968.5	-0.00013361045
0	0.65499514	0.65499496	-9.910511e-11	0.06660941	0.06660941	0	157573.12	157573.1	-2.2959184e-05	620046.4	296946.97	-1.2989905e-05	296946.88	620046.06	-0.00012247625
0	0.6549084	0.6549083	-3.0439426e-10	0.06646809	0.06646809	0	157552.25	157552.22	-7.366071e-05	620124.6	296747.25	-0.00025887025	296747.2	620124.3	-0.00018557007
0	0.6548215	0.65482134	-5.1145316e-10	0.06632662	0.06632662	0	157531.34	157531.3	-0.000121651785	620201.9	296548.3	-0.00046531696	296548.22	620201.56	-0.0003043349
0	0.6547337	0.65473354	-3.787231e-10	0.06618514	0.06618514	0	157510.23	157510.2	-9.008291e-05	620280.3	296347	-0.00021618913	296346.9	620280.06	-0.00033031474
0	0.6546466	0.65464646	-4.318151e-10	0.066043824	0.066043824	0	157489.28	157489.23	-0.00010267857	620358.8	296146.5	-0.00018093082	296146.4	620358.56	-0.00041196556
0	0.6545583	0.65455806	-2.7253905e-10	0.06590227	0.06590227	0	157468.02	157467.97	-6.186224e-05	620437.3	295944.34	-0.00012108447	295944.22	620437.1	-0.00022639548
0	0.6544713	0.65447104	1.0618405e-11	0.06576097	0.06576097	0	157447.08	157447.05	2.5510203e-06	620515.3	295744.5	5.474317e-05	295744.4	620515.06	-1.4845606e-05
0	0.6543833	0.6543831	-2.8138772e-10	0.065619476	0.06561947	0	157425.92	157425.89	-6.265944e-05	620593.56	295543.1	-0.00020412708	295543	620593.25	-0.00020041567
0	0.65429515	0.6542949	-1.9290101e-10	0.06547816	0.06547816	0	157404.69	157404.66	-4.5121174e-05	620671.9	295341.3	-0.000111342044	295341.25	620671.5	-0.00014845606
0	0.65420604	0.65420586	-2.2608353e-10	0.0653367	0.0653367	0	157383.28	157383.25	-5.4209184e-05	620751.06	295137.47	-0.000136394	295137.38	620750.75	-0.00017072447
0	0.6541179	0.65411776	-1.4334846e-10	0.06519521	0.06519521	0	157362.1	157362.05	-3.515625e-05	620829.06	294936.1	-0.000111805966	294936.03	620828.8	-9.2785034e-05
0	0.6540289	0.6540288	-1.7520367e-10	0.0650539	0.0650539	0	157340.66	157340.62	-3.9859693e-05	620907.75	294732.9	-0.00010995027	294732.78	620907.4	-0.0001326826
0	0.6539392	0.653939	-4.0349937e-10	0.06491235	0.06491235	0	157319.08	157319.05	-9.693878e-05	620986.4	294528.56	-0.0004054706	294528.44	620986.06	-0.00015959026
0	0.6538505	0.65385044	-6.494924e-10	0.06477103	0.06477103	0	157297.77	157297.73	-0.00015082909	621065.2	294325.75	-0.0004258833	294325.6	621064.9	-0.00049732777
0	0.6537616	0.6537615	-7.0789364e-12	0.06462956	0.06462956	0	157276.38	157276.33	-3.0293368e-06	621143.25	294123.1	-5.0103918e-05	294123	621142.94	1.1134204e-05
0	0.6536723	0.65367216	-2.652389e-10	0.06448809	0.06448809	0	157254.88	157254.83	-6.186224e-05	621221.75	293919.5	-0.00014938391	293919.38	621221.5	-0.00020041567
0	0.6535826	0.65358245	-1.7874315e-10	0.06434676	0.06434675	0	157233.28	157233.25	-4.846939e-05	621300.3	293715.38	-2.0412708e-05	293715.3	621300	-0.0002338183
0	0.6534916	0.6534915	-2.4068383e-10	0.06420529	0.06420529	0	157211.4	157211.38	-5.6122448e-05	621380.2	293508.25	-0.00016840483	293508.12	621379.94	-0.00015959026
0	0.6534014	0.6534012	-1.5927606e-10	0.06406391	0.06406391	0	157189.7	157189.67	-3.635204e-05	621459.25	293302.75	-3.0619063e-05	293302.66	621458.94	-0.00017443587
0	0.65331125	0.653311	7.0789364e-12	0.06392241	0.06392241	0	157168.03	157167.98	-2.5510203e-06	621537.75	293098.06	-5.0103918e-05	293097.94	621537.44	5.9382422e-05
0	0.65321946	0.6532193	-3.4399206e-10	0.063781105	0.063781105	0	157145.95	157145.9	-8.1792095e-05	621617	292890.38	-0.00023242651	292890.3	621616.7	-0.0002746437
0	0.65312904	0.6531289	1.8139774e-11	0.06363964	0.06363964	0	157124.19	157124.14	6.6964285e-06	621696.25	292684.53	-2.2268408e-05	292684.47	621696	5.9382422e-05
0	0.65303856	0.6530383	1.1326298e-10	0.06349814	0.06349814	0	157102.4	157102.36	2.742347e-05	621775.1	292478.84	8.489831e-05	292478.75	621774.9	6.309382e-05
0	0.6529472	0.652947	8.8486704e-11	0.06335683	0.06335683	0	157080.44	157080.39	2.6945154e-05	621854.5	292271.62	9.464074e-05	292271.53	621854.2	3.340261e-05
0	0.6528553	0.65285516	-3.893415e-11	0.06321529	0.06321529	0	157058.33	157058.28	-5.1020406e-06	621934	292063.5	-0.0001401054	292063.4	621933.75	9.6496435e-05
0	0.6527643	0.6527642	-2.6546012e-11	0.06307396	0.06307396	0	157036.44	157036.39	-5.4209186e-06	622012.7	291857.44	-3.850579e-05	291857.34	622012.3	-1.1134204e-05
0	0.652671	0.6526708	-2.9377586e-10	0.06293249	0.06293249	0	157014	157013.97	-6.632653e-05	622092.2	291647.44	-0.00012665158	291647.3	622091.8	-0.0002672209
0	0.65257925	0.65257907	1.7697342e-11	0.06279103	0.06279103	0	156991.92	156991.89	1.2356505e-06	622171.75	291439.34	1.39177555e-05	291439.25	622171.44	2.597981e-05
0	0.6524874	0.6524873	1.5042739e-10	0.06264969	0.06264969	0	156969.83	156969.78	3.762755e-05	622251.4	291231.06	6.7733075e-05	291230.97	622251.06	0.00015587886
0	0.6523937	0.6523935	1.557366e-10	0.062508225	0.062508225	0	156947.28	156947.25	4.1135205e-05	622331.2	291020.12	0.00014474466	291020.03	622330.8	8.536223e-05
0	0.6523028	0.6523027	-5.663149e-11	0.06236684	0.06236684	0	156925.42	156925.38	-1.3711735e-05	622409.7	290814.38	-9.464074e-05	290814.3	622409.4	0
0	0.65220916	0.6522091	-3.3094028e-10	0.062225346	0.062225346	0	156902.9	156902.86	-8.334662e-05	622489.94	290603	-0.0002560867	290602.9	622489.7	-0.00020783849
0	0.65211606	0.6521158	1.2919059e-10	0.062084038	0.062084038	0	156880.5	156880.45	3.6989797e-05	622569.5	290393	7.793943e-05	290392.94	622569.25	0.000115053444
0	0.65202236	0.6520222	-5.6808463e-10	0.061942577	0.061942577	0	156857.95	156857.9	-0.0001381537	622648.7	290182.75	-0.00037392369	290182.66	622648.3	-0.0004639252
0	0.6519291	0.6519289	-3.6456524e-10	0.061801083	0.06180108	0	156835.5	156835.47	-8.896684e-05	622728.6	289972.12	-0.00015959026	289972	622728.25	-0.00035629453
0	0.651835	0.65183485	3.893415e-11	0.061659772	0.061659772	0	156812.89	156812.83	1.0004783e-05	622808.44	289760.72	-1.8557008e-05	289760.62	622808.06	7.8403355e-05
0	0.6517406	0.65174043	-2.5130226e-10	0.061518237	0.06151823	0	156790.17	156790.11	-6.0586735e-05	622888.4	289548.5	-0.0001475282	289548.4	622888.06	-0.00021526129
0	0.65164655	0.6516463	-1.1503272e-10	0.061376892	0.061376892	0	156767.55	156767.5	-2.9575893e-05	622969	289336.2	-5.0567844e-05	289336.12	622968.7	-0.000111342044
0	0.6515526	0.6515525	-2.9908506e-10	0.06123543	0.06123543	0	156744.97	156744.9	-7.178731e-05	623048.6	289125.25	-0.00020412708	289125.2	623048.3	-0.00025330315
0	0.6514577	0.6514575	-8.317751e-11	0.061093967	0.061093967	0	156722.11	156722.08	-1.6183036e-05	623128.9	288912.03	-0.00010206354	288911.97	623128.5	-1.4845606e-05
0	0.651363	0.65136284	-8.494724e-11	0.060952656	0.060952652	0	156699.33	156699.28	-1.4628507e-05	623208.56	288699.7	-1.1134204e-05	288699.6	623208.25	-9.6496435e-05
0	0.65126735	0.6512672	-2.7076932e-10	0.060811166	0.060811166	0	156676.31	156676.27	-6.377551e-05	623289.06	288485.34	-0.00013917756	288485.25	623288.75	-0.00024170501
0	0.6511726	0.65117246	-2.6546013e-10	0.060669772	0.060669776	0	156653.52	156653.47	-6.5369895e-05	623368.94	288272.75	-0.00022407586	288272.66	623368.6	-0.00020041567
0	0.65107685	0.6510767	-5.7162414e-10	0.060528316	0.060528316	0	156630.48	156630.44	-0.00013819356	623449.2	288058.44	-0.00037856295	288058.38	623448.9	-0.00043423395
0	0.65098053	0.6509803	-4.0703885e-11	0.060386974	0.060386974	0	156607.3	156607.27	-1.0841837e-05	623529.56	287843.12	-7.886728e-05	287843.06	623529.3	3.7114016e-05
0	0.65088487	0.6508847	-2.5307198e-10	0.06024551	0.06024551	0	156584.31	156584.27	-6.186224e-05	623610.1	287628.88	-0.00024402465	287628.75	623609.8	-0.00012247625
0	0.65078807	0.6507879	-2.6722985e-10	0.06010405	0.060104053	0	156561.03	156560.98	-6.584822e-05	623690.44	287413.03	-0.00018464222	287412.94	623690.1	-0.00023010689
0	0.65069276	0.6506925	-4.0880857e-10	0.059962712	0.059962712	0	156538.08	156538.03	-9.183674e-05	623770.56	287199.3	-0.00027928295	287199.22	623770.2	-0.00030804632
0	0.65059555	0.6505953	-7.25591e-11	0.059821166	0.059821166	0	156514.72	156514.66	-1.7777424e-05	623851.4	286982.47	6.4949527e-06	286982.44	623851	-0.00013732185
0	0.65049917	0.6504989	-2.0351942e-10	0.05967986	0.05967985	0	156491.5	156491.47	-4.4642857e-05	623931.6	286767.2	-0.00019670428	286767.12	623931.3	-0.00010391924
0	0.6504017	0.6504015	-2.0882862e-10	0.059538368	0.059538364	0	156468.06	156468.03	-5.0382652e-05	624012.6	286549.88	-0.00010763064	286549.78	624012.3	-0.00020134353
0	0.65030473	0.65030456	-3.9288098e-10	0.059396908	0.059396908	0	156444.75	156444.7	-9.438775e-05	624092.94	286333.84	-0.000186034	286333.75	624092.56	-0.00040083134
0	0.6502068	0.65020657	-3.6987444e-10	0.059255596	0.059255596	0	156421.16	156421.12	-9.630102e-05	624174	286115.5	-0.00024077717	286115.47	624173.6	-0.00032289192
0	0.650109	0.6501088	-6.3710426e-11	0.059114102	0.059114102	0	156397.64	156397.61	-1.4030612e-05	624254.56	285898.03	-0.00020969418	285898	624254.25	0.0001196927
0	0.65001094	0.6500107	2.6722985e-10	0.058972705	0.058972705	0	156374.06	156374	6.4054526e-05	624335.44	285680	0.00026350952	285679.94	624335.06	0.00012618765
0	0.6499139	0.64991367	-1.9467076e-11	0.05883125	0.058831252	0	156350.72	156350.67	-4.384566e-06	624415.25	285464.25	8.11869e-05	285464.16	624414.94	-0.000115053444
0	0.6498147	0.64981455	-5.397689e-10	0.0586899	0.0586899	0	156326.86	156326.81	-0.00013360969	624496.44	285244.25	-0.00043052257	285244.2	624496.1	-0.00036000594
0	0.64971507	0.6497149	-3.06164e-10	0.05854845	0.05854845	0	156302.88	156302.84	-7.206632e-05	624578.06	285023.1	-0.00017026054	285023.03	624577.7	-0.00022268409
0	0.64961654	0.64961636	-3.5571657e-10	0.058406986	0.058406986	0	156279.19	156279.12	-9.064094e-05	624659.25	284803.9	-0.00029412855	284803.84	624659	-0.0002449525
0	0.64951783	0.64951766	-4.619006e-10	0.05826565	0.05826565	0	156255.42	156255.39	-0.0001120456	624739.9	284585.16	-0.0002746437	284585.1	624739.5	-0.0004203162
0	0.6494182	0.649418	-1.1326298e-10	0.058124106	0.058124106	0	156231.45	156231.42	-2.5829082e-05	624821.2	284364.28	-0.00014520859	284364.22	624820.9	1.4845606e-05
0	0.64931834	0.6493181	-1.3096033e-10	0.05798278	0.05798278	0	156207.44	156207.39	-2.5669642e-05	624901.6	284144.06	-0.00016422951	284144	624901.25	-7.422803e-06
0	0.6492187	0.6492185	-3.7695336e-10	0.05784131	0.05784131	0	156183.48	156183.42	-9.438775e-05	624983.4	283922.9	-9.464074e-05	283922.8	624983	-0.00042681117
0	0.64911884	0.64911854	-5.539268e-10	0.057699848	0.057699848	0	156159.42	156159.39	-0.00013137756	625064.6	283701.75	-0.00033680967	283701.7	625064.25	-0.00041196556
0	0.64901835	0.6490181	-4.1588752e-10	0.05755853	0.05755853	0	156135.27	156135.22	-0.00010012755	625146.25	283479.47	-0.00024263287	283479.4	625145.94	-0.00033773753
0	0.6489181	0.6489179	-1.6281554e-10	0.05741706	0.05741706	0	156111.16	156111.1	-3.6989797e-05	625227.4	283258	-9.2785035e-07	283257.97	625227.06	-0.00021618913
0	0.64881814	0.64881796	-6.3710426e-11	0.057275645	0.057275645	0	156087.11	156087.05	-1.6621492e-05	625307.94	283037.6	-1.8093082e-05	283037.5	625307.56	-5.9382422e-05
0	0.6487158	0.6487156	-2.0351942e-10	0.05713419	0.05713419	0	156062.47	156062.42	-4.5280613e-05	625390.1	282812.06	-0.00011922877	282812.03	625389.7	-0.00014103325
0	0.64861476	0.6486145	-5.4861757e-11	0.056992844	0.056992844	0	156038.19	156038.14	-1.817602e-05	625471.44	282589.34	3.7114014e-06	282589.25	625471.06	-7.979513e-05
0	0.6485122	0.648512	-3.2563108e-10	0.056851387	0.056851387	0	156013.5	156013.47	-7.2385206e-05	625553.8	282363.34	-0.00022268409	282363.28	625553.44	-0.00023010689
0	0.6484112	0.6484109	-5.132229e-11	0.056709927	0.056709927	0	155989.22	155989.16	-1.4987245e-05	625635.6	282140.2	-8.814578e-05	282140.16	625635.25	7.422803e-06
0	0.6483102	0.64831007	-5.3799915e-10	0.056568585	0.056568585	0	155964.9	155964.86	-0.00012818878	625716.3	281918.03	-0.00043423395	281917.97	625716	-0.00030804632
0	0.64820707	0.64820683	-5.043742e-10	0.056427047	0.056427047	0	155940.08	155940.03	-0.00011702806	625798.25	281691.53	-0.00024912783	281691.5	625797.94	-0.0004676366
0	0.64810425	0.648104	-4.2119672e-10	0.05628571	0.05628571	0	155915.38	155915.3	-0.00010395408	625880.06	281465.84	-0.00031964446	281465.8	625879.75	-0.0002746437
0	0.64800256	0.64800227	-1.4688793e-10	0.05614425	0.05614425	0	155890.9	155890.86	-3.4119897e-05	625961.56	281242.1	2.9691211e-05	281242	625961.25	-0.00021526129
0	0.6478987	0.64789844	-3.8580203e-10	0.056002792	0.056002792	0	155865.89	155865.84	-9.12787e-05	626043.75	281014.44	-0.00038413005	281014.38	626043.4	-0.00014474466
0	0.6477962	0.64779603	1.1326298e-10	0.05586147	0.05586147	0	155841.27	155841.23	2.5510204e-05	626125.75	280789.1	6.4021675e-05	280789.06	626125.4	0.000115053444
0	0.6476923	0.647692	-2.3006544e-10	0.055719994	0.055719994	0	155816.27	155816.2	-5.604273e-05	626207.8	280561.4	-0.00011690915	280561.34	626207.44	-0.00019299287
0	0.64758945	0.6475892	-3.7518363e-10	0.055578664	0.055578664	0	155791.52	155791.47	-8.8329085e-05	626289.6	280335.62	-0.0002839222	280335.56	626289.4	-0.00026350952
0	0.6474855	0.6474852	-1.2388139e-10	0.055437125	0.055437125	0	155766.48	155766.45	-2.9655612e-05	626371.8	280107.9	-5.4279244e-05	280107.8	626371.4	-0.00010391924
0	0.64738077	0.6473806	-4.2296644e-10	0.05529578	0.05529578	0	155741.33	155741.27	-9.7895405e-05	626453.75	279879.44	-0.00023010689	279879.34	626453.4	-0.00033402612
0	0.6472769	0.6472766	-5.026045e-10	0.055154327	0.055154327	0	155716.31	155716.28	-0.00012149235	626535.75	279651.94	-0.00042309976	279651.88	626535.4	-0.00029691213
0	0.64717263	0.6471724	-5.3799915e-10	0.05501287	0.05501287	0	155691.23	155691.17	-0.00013201531	626618.2	279423.5	-0.00026350952	279423.47	626617.8	-0.0005195962
0	0.6470672	0.64706695	-1.5042739e-10	0.054871522	0.054871522	0	155665.88	155665.83	-3.603316e-05	626700.1	279193.97	-4.4536817e-05	279193.88	626699.75	-0.000154951
0	0.6469622	0.6469619	-4.0526912e-10	0.05473008	0.05473008	0	155640.62	155640.55	-9.773597e-05	626782.5	278964.53	-0.00032567547	278964.5	626782.1	-0.00024866388
0	0.64685625	0.64685595	-3.0970346e-10	0.05458865	0.05458865	0	155615.11	155615.06	-7.270408e-05	626864.94	278733.75	-0.0002709323	278733.72	626864.6	-0.00015587886
0	0.64675176	0.64675146	-5.6277544e-10	0.054447185	0.054447185	0	155589.98	155589.92	-0.00013592155	626947.5	278504.97	-0.00034887175	278504.94	626947.1	-0.00044536818
0	0.64664537	0.6466451	-1.8582208e-10	0.054305855	0.054305855	0	155564.39	155564.34	-4.2131698e-05	627029.7	278273.94	-8.304261e-05	278273.88	627029.25	-0.00019299287
0	0.6465387	0.64653844	-1.8228262e-10	0.054164406	0.054164406	0	155538.72	155538.67	-4.3526787e-05	627112.75	278041.4	-7.608373e-05	278041.34	627112.4	-0.00015587886
0	0.6464332	0.6464329	2.5838118e-10	0.054022938	0.054022938	0	155513.36	155513.3	6.19021e-05	627194.9	277811.6	0.0001382497	277811.56	627194.56	0.00023660185
0	0.64632607	0.6463258	-4.0172965e-10	0.0538816	0.0538816	0	155487.6	155487.53	-9.614158e-05	627277.5	277578.97	-0.00025515884	277578.94	627277.1	-0.0003043349
0	0.64621973	0.6462195	-4.6013086e-11	0.05374007	0.05374007	0	155462.02	155461.95	-1.7219389e-05	627359.8	277347.84	7.422803e-06	277347.8	627359.44	-7.0516624e-05
0	0.6461126	0.6461124	-6.548016e-11	0.05359871	0.05359871	0	155436.23	155436.17	-1.5784439e-05	627442.3	277115.34	0	277115.3	627441.94	-9.0001486e-05
0	0.64600563	0.64600533	-1.3803926e-10	0.053457264	0.053457264	0	155410.48	155410.44	-3.6670917e-05	627525.44	276882.44	-2.3196259e-05	276882.4	627525	-0.00018928148
0	0.6458976	0.64589745	-2.4068383e-10	0.053315822	0.05331583	0	155384.52	155384.47	-6.441327e-05	627608	276648.75	-0.00018371436	276648.7	627607.6	-0.00018557007
0	0.6457901	0.6457899	-1.1680246e-10	0.053174462	0.053174462	0	155358.67	155358.61	-2.7104592e-05	627691.25	276415.06	2.7835511e-05	276415	627690.7	-0.00018000297
0	0.6456819	0.6456817	-6.901963e-11	0.053033024	0.053033024	0	155332.61	155332.56	-1.4668367e-05	627773.6	276181.16	-4.036149e-05	276181.1	627773.2	-5.9382422e-05
0	0.6455738	0.64557356	-7.4328835e-11	0.052891586	0.052891586	0	155306.62	155306.56	-2.0408163e-05	627856.8	275946.6	-5.2423544e-05	275946.53	627856.44	-4.4536817e-05
0	0.6454643	0.645464	-1.557366e-10	0.052750126	0.052750126	0	155280.27	155280.2	-3.4000317e-05	627940.25	275709.72	-0.00016051812	275709.7	627939.94	-8.536223e-05
0	0.64535654	0.6453563	3.2386135e-10	0.052608777	0.052608773	0	155254.36	155254.28	7.720823e-05	628022.94	275476.22	0.00029041717	275476.2	628022.6	0.00016701306
0	0.645248	0.6452477	-2.1590756e-10	0.05246734	0.052467346	0	155228.23	155228.16	-4.6875e-05	628105.75	275241.47	-0.00019392073	275241.4	628105.25	-0.00010763064
0	0.64513737	0.6451371	7.4328835e-11	0.052325882	0.052325882	0	155201.62	155201.56	2.2620376e-05	628189.1	275003.28	-5.799065e-05	275003.25	628188.6	0.00015959026
0	0.64502823	0.645028	3.3624947e-11	0.05218454	0.05218454	0	155175.38	155175.31	6.377551e-06	628272.06	274767.53	3.2474763e-05	274767.53	628271.56	7.422803e-06
0	0.644919	0.6449187	-1.9290101e-10	0.052043002	0.052043002	0	155149.08	155149	-4.3626434e-05	628354.9	274531.75	-4.0825416e-05	274531.72	628354.44	-0.00020783849
0	0.64480746	0.6448073	-5.2207155e-10	0.051901635	0.051901635	0	155122.27	155122.2	-0.0001248605	628438.9	274291.6	-0.00037392369	274291.56	628438.44	-0.00037114014
0	0.6446983	0.6446981	4.9552557e-11	0.0517602	0.0517602	0	155095.98	155095.92	1.3990752e-05	628521.56	274056.06	0.00012386803	274056.03	628521.25	-4.0825416e-05
0	0.64458656	0.6445863	-3.4155867e-10	0.051618766	0.051618766	0	155069.11	155069.05	-7.8443874e-05	628605.1	273816.2	-0.00019624035	273816.12	628604.6	-0.00022268409
0	0.64447564	0.6444754	-4.0349937e-10	0.05147742	0.05147742	0	155042.42	155042.38	-9.891183e-05	628688.94	273577	-0.00024309679	273576.97	628688.5	-0.00035490276
0	0.6443647	0.6443645	-3.0970346e-10	0.05133596	0.05133596	0	155015.75	155015.69	-7.7108576e-05	628771.75	273338.94	-0.000291345	273338.88	628771.4	-0.00012989905
0	0.6442532	0.6442529	-6.724989e-11	0.051194515	0.051194515	0	154988.9	154988.84	-2.1364796e-05	628855.7	273098.78	-6.26299e-05	273098.75	628855.2	-5.9382422e-05
0	0.64414144	0.6441411	-2.7076932e-10	0.05105309	0.05105309	0	154962.02	154961.95	-6.30979e-05	628939.25	272858.66	-0.0002412411	272858.6	628938.94	-0.00013361045
0	0.6440306	0.64403033	-1.2919059e-10	0.050911706	0.05091171	0	154935.38	154935.31	-3.603316e-05	629022.5	272620.4	-0.000136394	272620.34	629022.1	-2.9691211e-05
0	0.6439176	0.64391726	-2.5661145e-10	0.05077028	0.05077028	0	154908.17	154908.1	-6.204161e-05	629106.3	272378.25	-0.00022732334	272378.22	629105.9	-0.00014474466
0	0.643806	0.6438057	-5.8224253e-10	0.050628845	0.050628845	0	154881.33	154881.25	-0.00014239876	629189.7	272138.72	-0.00037856295	272138.66	629189.25	-0.00044815172
0	0.64369214	0.64369184	-2.3006544e-10	0.050487474	0.050487474	0	154853.95	154853.86	-5.6760204e-05	629273.5	271895.5	-0.0001971682	271895.47	629273.1	-0.00014474466
0	0.64357924	0.64357895	-1.3626952e-10	0.050345946	0.050345946	0	154826.77	154826.7	-3.348214e-05	629357.25	271653.66	-6.7733075e-05	271653.62	629356.94	-0.00013732185
0	0.6434671	0.6434668	-1.8405234e-10	0.05020459	0.05020459	0	154799.8	154799.75	-3.9281727e-05	629440.5	271413.53	-0.00010391924	271413.5	629440	-0.00016469344
0	0.6433521	0.6433518	-3.4509814e-10	0.050063137	0.050063137	0	154772.12	154772.06	-8.354592e-05	629525.06	271167.97	-0.00018696184	271167.94	629524.5	-0.00029320072
0	0.64323926	0.6432391	-8.547816e-10	0.04992171	0.04992171	0	154745.02	154744.94	-0.00021012037	629608.44	270926.7	-0.00064531993	270926.7	629608	-0.00058269
0	0.643124	0.6431236	-3.4399206e-10	0.049780354	0.049780354	0	154717.25	154717.19	-8.003826e-05	629693.06	270680.44	-0.00024541642	270680.4	629692.7	-0.00021850877
0	0.64301133	0.64301103	4.778282e-11	0.049638905	0.0496389	0	154690.14	154690.08	9.426818e-06	629776.2	270439.66	-5.381532e-05	270439.62	629775.8	0.00012618765
0	0.6428952	0.6428949	-2.6192065e-10	0.049497455	0.049497455	0	154662.22	154662.14	-6.441327e-05	629860.8	270192.5	-8.350653e-05	270192.47	629860.3	-0.00027835512
0	0.6427807	0.6427805	-3.6102576e-10	0.04935602	0.04935602	0	154634.69	154634.64	-9.363042e-05	629945	269948.2	-0.00039711996	269948.16	629944.56	-0.00012804335
0	0.6426668	0.6426665	-4.3889406e-10	0.04921464	0.04921464	0	154607.27	154607.19	-0.00010331633	630028.2	269705.3	-0.00022639548	269705.3	630027.75	-0.00038969715
0	0.6425495	0.6425492	-4.2296644e-10	0.04907321	0.04907321	0	154579.06	154578.98	-0.000105867344	630113.2	269456.2	-0.00021665306	269456.16	630112.75	-0.00034144893
0	0.64243424	0.642434	-2.8846667e-10	0.04893179	0.04893179	0	154551.33	154551.27	-6.447305e-05	630197.4	269210.6	-0.00016701306	269210.62	630196.94	-0.00024866388
0	0.6423176	0.64231724	-2.3006544e-10	0.048790418	0.048790418	0	154523.25	154523.17	-5.6122448e-05	630282	268962.56	-0.00012015662	268962.5	630281.56	-0.00021154988
0	0.6422028	0.6422025	-4.5305193e-10	0.048648883	0.048648883	0	154495.67	154495.58	-0.00011198581	630365.4	268718.6	-0.00038088256	268718.56	630365	-0.00027835512
0	0.64208496	0.64208466	-4.707493e-10	0.04850753	0.04850753	0	154467.31	154467.23	-0.00011714764	630450.3	268468.8	-0.00029320072	268468.78	630449.75	-0.00039897565
0	0.64196885	0.64196855	-2.1944703e-10	0.048366077	0.048366077	0	154439.34	154439.28	-5.5644134e-05	630534.5	268221.84	-0.00023335437	268221.84	630534.06	-0.000118764845
0	0.6418521	0.6418518	-9.025644e-11	0.048224654	0.048224654	0	154411.27	154411.2	-2.2321428e-05	630618.8	267974.1	-5.9382422e-05	267974.1	630618.44	-7.422803e-05
0	0.6417348	0.6417344	-2.2652596e-10	0.04808329	0.04808329	0	154383.05	154382.97	-5.6062658e-05	630703.25	267725.44	-0.00018928148	267725.44	630702.75	-0.000115053444
0	0.6416161	0.6416158	-4.7605847e-10	0.04794185	0.04794185	0	154354.5	154354.44	-0.00011922034	630787.7	267474.9	-0.00044304854	267474.88	630787.2	-0.00023752969
0	0.6414984	0.6414981	-1.1149325e-10	0.047800384	0.047800384	0	154326.2	154326.12	-2.730389e-05	630872.2	267225.62	-0.00010577494	267225.62	630871.75	-3.7114016e-05
0	0.6413799	0.6413797	-2.6722985e-10	0.047658965	0.047658965	0	154297.69	154297.61	-6.6007655e-05	630956.8	266975.2	-0.00021897268	266975.16	630956.3	-0.00016515737
0	0.64126194	0.64126164	-4.672098e-10	0.04751758	0.04751758	0	154269.28	154269.22	-0.00011543367	631041.44	266725.3	-0.00032381978	266725.28	631041	-0.00033402612
0	0.64114356	0.64114326	-8.6716974e-11	0.047376156	0.047376156	0	154240.81	154240.77	-2.216199e-05	631125.9	266475.1	-5.103177e-05	266475.1	631125.5	-7.422803e-05
0	0.64102376	0.64102346	-3.468679e-10	0.047234733	0.047234733	0	154212	154211.94	-8.4163745e-05	631210.6	266222.75	-0.00024216894	266222.72	631210.1	-0.00023752969
0	0.64090455	0.6409043	-7.202818e-10	0.047093347	0.047093347	0	154183.33	154183.27	-0.00016804847	631295.5	265970.97	-0.00048712143	265970.94	631295	-0.0005233076
0	0.6407849	0.6407846	-1.3273006e-10	0.046951823	0.046951823	0	154154.56	154154.47	-3.242586e-05	631380.5	265718.47	-0.00013732185	265718.44	631380.06	-7.422803e-06
0	0.6406654	0.64066505	-7.0789363e-10	0.046810463	0.046810463	0	154125.8	154125.7	-0.00016358419	631465.25	265466.34	-0.0004755233	265466.3	631464.8	-0.00048619357
0	0.6405452	0.64054495	-5.928609e-10	0.046669025	0.04666902	0	154096.89	154096.81	-0.00013966837	631549.94	265213.38	-0.00040361492	265213.4	631549.44	-0.00043052257
0	0.64042366	0.64042336	-2.0528916e-10	0.046527658	0.046527658	0	154067.64	154067.55	-5.229592e-05	631635	264958.2	-0.00015866241	264958.2	631634.44	-0.00010391924
0	0.6403031	0.6403027	-5.079137e-10	0.046386234	0.046386234	0	154038.62	154038.56	-0.00012585698	631719.8	264704.5	-0.00034562426	264704.5	631719.3	-0.00034887175
0	0.6401821	0.6401817	-3.5040734e-10	0.0462448	0.0462448	0	154009.5	154009.44	-8.418367e-05	631805	264449.8	-0.00025144743	264449.8	631804.56	-0.0002746437
0	0.64006066	0.64006025	-7.149726e-10	0.04610342	0.04610342	0	153980.3	153980.23	-0.0001705995	631890.06	264194.78	-0.00047413152	264194.78	631889.6	-0.000564133
0	0.6399389	0.6399386	-3.3447975e-10	0.045961898	0.045961898	0	153951.02	153950.92	-8.067602e-05	631975.3	263939.1	-0.00022732334	263939.1	631974.94	-0.00022268409
0	0.6398179	0.63981754	-2.4068383e-10	0.045820512	0.045820512	0	153921.9	153921.83	-5.9590242e-05	632060	263685	-0.00017443587	263685	632059.5	-0.00013361045
0	0.6396946	0.63969433	-5.85782e-10	0.0456791	0.045679096	0	153892.25	153892.16	-0.00014030612	632145.3	263427.16	-0.00037485154	263427.16	632144.8	-0.00045650237
0	0.6395718	0.63957155	-2.3714436e-10	0.045537677	0.045537677	0	153862.72	153862.64	-5.2614796e-05	632230.9	263169.72	-0.0001345383	263169.7	632230.44	-0.00020134353
0	0.6394495	0.6394491	-3.2917055e-10	0.045396283	0.045396283	0	153833.27	153833.17	-8.067602e-05	632315.9	262913.4	-0.00027186016	262913.38	632315.3	-0.00023752969
0	0.6393254	0.63932496	-7.25591e-11	0.04525487	0.04525487	0	153803.4	153803.34	-2.1683674e-05	632401.7	262653.88	-7.515588e-05	262653.88	632401.2	-3.7114016e-05
0	0.6392031	0.63920265	-1.3273006e-10	0.045113385	0.045113385	0	153774	153773.9	-3.617267e-05	632486.7	262397.56	-7.0516624e-05	262397.56	632486.2	-0.0001234041