# t (s)	mx ()	my ()	mz ()	B_extx (T)	B_exty (T)	B_extz (T)	m_fullx (A/m)	m_fully (A/m)	m_fullz (A/m)	m_full.region1x (A/m)	m_full.region1y (A/m)	m_full.region1z (A/m)	m_full.region2x (A/m)	m_full.region2y (A/m)	m_full.region2z (A/m)
0	0.6435233	0.64352113	-4.5074158e-10	0.070710905	0.070710905	0	74829.53	74829.266	-5.1136365e-05	645647.9	255282.88	-0.0003482587	255284.67	645646.6	-0.00027596392
0	0.64325607	0.6432551	-2.846789e-10	0.07035723	0.07035723	0	74798.45	74798.34	-2.9958677e-05	645876.5	254681.36	-0.000329602	254682.02	645875.8	-6.879664e-05
0	0.6429839	0.642983	-2.4316324e-10	0.07000352	0.07000352	0	74766.81	74766.7	-2.7892562e-05	646111.94	254064.89	-0.0002363184	254065.5	646111.3	-0.0001414801
0	0.64270973	0.64270884	-2.4909405e-10	0.069649905	0.069649905	0	74734.92	74734.82	-3.0475207e-05	646347.75	253445.2	-0.00014303482	253445.81	646347.2	-0.00023243159
0	0.64243454	0.6424337	-2.7874808e-10	0.0692966	0.0692966	0	74702.93	74702.82	-3.2541324e-05	646584.1	252823.61	-0.00027985073	252824.28	646583.56	-0.00014031405
0	0.64215857	0.6421577	-4.566724e-10	0.06894301	0.06894301	0	74670.84	74670.734	-5.4752065e-05	646819.94	252201.44	-0.0003482587	252202.08	646819.25	-0.0003268812
0	0.64187974	0.6418788	-3.1433295e-10	0.06858926	0.06858927	0	74638.41	74638.305	-3.6157024e-05	647057.44	251573.42	-0.00018034826	251574.08	647056.8	-0.00024409204
0	0.64159936	0.64159834	-2.1350917e-10	0.06823563	0.06823563	0	74605.81	74605.695	-2.5826446e-05	647294.9	250943.58	-0.000111940295	250944.23	647294.2	-0.00019356344
0	0.6413161	0.64131516	-3.380562e-10	0.06788235	0.06788235	0	74572.87	74572.766	-3.822314e-05	647534.9	250306.97	-0.00025497514	250307.66	647534.25	-0.0002300995
0	0.64103454	0.6410336	-1.719935e-10	0.06752872	0.06752872	0	74540.13	74540.02	-2.0144627e-05	647771.1	249676.58	-0.00013681591	249677.27	647770.44	-0.00012748757
0	0.6407492	0.64074826	-2.5502483e-10	0.06717497	0.06717497	0	74506.95	74506.85	-2.892562e-05	648010.3	249037.97	-0.00026119404	249038.64	648009.7	-0.0001414801
0	0.64046293	0.6404619	-2.3426702e-10	0.06682182	0.06682182	0	74473.664	74473.55	-2.8409091e-05	648249.06	248398.4	-0.00013681591	248399.06	648248.4	-0.00021105411
0	0.6401742	0.64017326	-2.935751e-10	0.06646818	0.06646819	0	74440.086	74439.984	-3.512397e-05	648488.9	247754.4	-0.00028606964	247755.06	648488.1	-0.0001795709
0	0.6398831	0.63988215	-4.1515673e-11	0.066114426	0.066114426	0	74406.24	74406.125	-7.7479335e-06	648729.75	247105.89	-8.084577e-05	247106.58	648729.1	-3.1094528e-06
0	0.6395919	0.63959086	-3.1729835e-10	0.06576081	0.06576081	0	74372.375	74372.266	-3.822314e-05	648969.9	246458.03	-0.00019278607	246458.77	648969.25	-0.00025108832
0	0.63929784	0.6392969	-3.8253728e-10	0.065407515	0.06540752	0	74338.195	74338.08	-4.28719e-05	649211.2	245805.16	-0.00026741292	245805.88	649210.44	-0.00027751864
0	0.6390012	0.6390002	-3.5881403e-10	0.06505392	0.06505392	0	74303.69	74303.57	-4.5971075e-05	649453.3	245147.66	-0.00027363183	245148.38	649452.56	-0.00027129974
0	0.63870484	0.6387039	-3.8550269e-10	0.06470017	0.06470017	0	74269.234	74269.11	-4.338843e-05	649695.06	244491	-0.00041044777	244491.72	649694.4	-0.00016324627
0	0.6384061	0.6384051	-2.7874808e-10	0.064346544	0.064346544	0	74234.5	74234.38	-3.5640496e-05	649937.2	243830.67	-0.00025497514	243831.42	649936.44	-0.00018306903
0	0.63810515	0.6381041	-4.7743026e-10	0.06399326	0.06399326	0	74199.5	74199.37	-5.268595e-05	650180.4	243166.08	-0.00027985073	243166.78	650179.6	-0.00041044777
0	0.63780224	0.63780123	-3.5881403e-10	0.06363963	0.06363963	0	74164.27	74164.16	-4.0805786e-05	650423.9	242498.53	-0.00036069652	242499.3	650423.25	-0.00014692164
0	0.63749766	0.63749665	-3.2026376e-10	0.063285895	0.063285895	0	74128.87	74128.74	-3.7190082e-05	650667.5	241828.5	-0.00025497514	241829.27	650666.8	-0.00022854477
0	0.6371912	0.63719016	-3.2026376e-10	0.062932715	0.062932715	0	74093.23	74093.1	-3.873967e-05	650911.94	241154.98	-0.00019900498	241155.72	650911.4	-0.00027985073
0	0.63688284	0.6368819	-2.7874808e-10	0.062579095	0.062579095	0	74057.375	74057.26	-3.357438e-05	651156.7	240478.55	-0.0002300995	240479.3	651156.1	-0.00017646144
0	0.63657284	0.6365719	-3.6177944e-10	0.062225346	0.062225346	0	74021.33	74021.2	-4.442149e-05	651401.75	239799.48	-0.0003358209	239800.25	651401.06	-0.00022310323
0	0.63625956	0.6362585	-5.9901184e-10	0.06187174	0.06187174	0	73984.88	73984.76	-7.0764465e-05	651648.25	239114.3	-0.0004353234	239115.08	651647.56	-0.00043221394
0	0.6359465	0.63594544	-2.0164756e-10	0.061518423	0.061518423	0	73948.49	73948.375	-2.3243801e-05	651893.8	238430.66	-0.00013059702	238431.42	651893	-0.00016907649
0	0.63563067	0.6356296	-4.0922593e-10	0.061164837	0.061164837	0	73911.76	73911.63	-4.5971075e-05	652140.25	237741.88	-0.00027985073	237742.67	652139.56	-0.00030861318
0	0.6353129	0.63531184	-2.5502483e-10	0.060811095	0.060811095	0	73874.81	73874.695	-2.4793388e-05	652387.3	237049.97	-0.0002300995	237050.75	652386.56	-0.00012049129
0	0.6349911	0.63499	-3.0247133e-10	0.060457483	0.060457483	0	73837.4	73837.27	-3.2024793e-05	652637	236349.8	-0.00017412935	236350.61	652636.2	-0.00021843906
0	0.6346711	0.6346701	-2.7874808e-10	0.06010417	0.06010417	0	73800.19	73800.06	-3.409091e-05	652882.8	235656.03	-0.00019900498	235656.81	652882.06	-0.00018851057
0	0.6343472	0.6343461	-4.003297e-10	0.05975055	0.05975055	0	73762.53	73762.41	-4.700413e-05	653131.3	234954.08	-0.00029850745	234954.86	653130.56	-0.00029073382
0	0.6340199	0.63401884	-2.846789e-10	0.05939681	0.059396807	0	73724.46	73724.34	-2.892562e-05	653382.1	234244.94	-0.00019900498	234245.75	653381.3	-0.00019667289
0	0.6336935	0.63369244	-4.7149945e-10	0.05904362	0.05904362	0	73686.516	73686.38	-5.4752065e-05	653629.4	233540.72	-0.00032338308	233541.56	653628.6	-0.00036613806
0	0.6333634	0.6333623	-2.3723243e-10	0.058689997	0.058689997	0	73648.13	73648	-2.7892562e-05	653879.3	232828.66	-0.00019900498	232829.5	653878.6	-0.00013526119
0	0.63303137	0.63303024	-2.4316324e-10	0.058336258	0.058336258	0	73609.52	73609.38	-2.6342976e-05	654129.6	232113.47	-0.00014925373	232114.31	654128.9	-0.00018617848
0	0.6326957	0.6326944	-1.12685396e-10	0.057982665	0.05798266	0	73570.48	73570.336	-1.1363636e-05	654382.4	231390.61	-0.00014925373	231391.5	654381.6	-2.0988806e-05
0	0.6323598	0.63235873	-6.820432e-11	0.05762932	0.057629317	0	73531.44	73531.3	-9.297521e-06	654633.3	230669.62	-9.950249e-05	230670.5	654632.56	0
0	0.63202304	0.6320219	-2.0757837e-10	0.057275716	0.057275716	0	73492.266	73492.13	-2.892562e-05	654882.94	229948.45	-9.328358e-05	229949.34	654882.25	-0.0002386505
0	0.6316812	0.63168	-5.070843e-10	0.05692201	0.05692201	0	73452.51	73452.375	-5.8884296e-05	655136.9	229215.88	-0.00036069652	229216.72	655136.1	-0.00035991916
0	0.63133985	0.6313386	-2.9654051e-10	0.05656841	0.05656841	0	73412.82	73412.69	-3.357438e-05	655387.8	228487.03	-0.00029850745	228487.92	655387.06	-0.00013992537
0	0.6309938	0.6309927	-3.6177944e-10	0.056215063	0.056215063	0	73372.59	73372.45	-3.9772727e-05	655641.4	227749.17	-0.0002363184	227750.06	655640.6	-0.00027129974
0	0.63064814	0.6306469	-4.3887996e-10	0.055861466	0.055861466	0	73332.39	73332.25	-5.1136365e-05	655893.94	227012.55	-0.00026119404	227013.44	655893.2	-0.00039645523
0	0.63029844	0.63029724	-3.6771025e-10	0.05550773	0.05550773	0	73291.73	73291.58	-4.5971075e-05	656148.1	226268.8	-0.00020522389	226269.72	656147.44	-0.00033815298
0	0.6299468	0.6299456	-2.7281727e-10	0.055154506	0.055154506	0	73250.836	73250.695	-3.0475207e-05	656402.75	225521.84	-0.0002363184	225522.75	656402	-0.000147699
0	0.6295928	0.6295915	-1.7792431e-10	0.05480091	0.05480091	0	73209.67	73209.53	-2.0144627e-05	656657.6	224771.31	-0.00016169154	224772.23	656656.9	-8.24005e-05
0	0.62923753	0.6292363	-2.4909405e-10	0.05444718	0.05444718	0	73168.36	73168.22	-2.7892562e-05	656912.8	224018.8	-0.00017412935	224019.72	656912	-0.00015236318
0	0.6288793	0.6288781	-1.2751242e-10	0.0540936	0.0540936	0	73126.72	73126.57	-1.3946281e-05	657168.3	223261.83	-8.7064676e-05	223262.83	657167.56	-9.250622e-05
0	0.6285177	0.6285164	-1.06754584e-10	0.053740226	0.053740222	0	73084.66	73084.516	-1.34297525e-05	657425.94	222497.88	-5.5970148e-05	222498.84	657425.2	-0.00011543843
0	0.62815636	0.62815505	-3.5584863e-10	0.05338663	0.05338663	0	73042.65	73042.484	-4.0289255e-05	657680.75	221737.14	-0.0003420398	221738.08	657679.94	-0.00015080845
0	0.6277907	0.6277895	-2.4612865e-10	0.05303293	0.05303293	0	73000.125	72999.98	-2.4793388e-05	657938.06	220967.94	-0.00012437812	220968.9	657937.3	-0.00020755598
0	0.6274221	0.6274208	-3.350908e-10	0.052679352	0.052679352	0	72957.26	72957.12	-3.822314e-05	658197	220192.9	-0.00022388059	220193.9	658196.25	-0.00023320895
0	0.6270536	0.6270523	-4.5074158e-10	0.052325953	0.052325953	0	72914.414	72914.266	-5.371901e-05	658453.06	219420.97	-0.00041044777	219421.95	658452.25	-0.00030472636
0	0.62668097	0.62667966	-2.906097e-10	0.05197238	0.051972385	0	72871.08	72870.93	-3.357438e-05	658711.75	218640.61	-0.00020522389	218641.61	658710.94	-0.00021532961
0	0.6263057	0.6263044	-1.7495891e-10	0.05161865	0.05161865	0	72827.45	72827.3	-2.427686e-05	658970.56	217856.45	-0.00019900498	217857.45	658969.75	-9.483831e-05
0	0.6259277	0.6259264	-3.5881403e-10	0.0512654	0.0512654	0	72783.49	72783.336	-4.338843e-05	659231.25	217066.45	-0.00019900498	217067.47	659230.44	-0.000329602
0	0.6255492	0.6255479	-3.8550269e-10	0.05091182	0.05091182	0	72739.484	72739.336	-4.338843e-05	659489.44	216278.5	-0.00027363183	216279.55	659488.5	-0.0002829602
0	0.62516624	0.6251649	-2.0461297e-10	0.050558094	0.050558098	0	72694.945	72694.805	-1.911157e-05	659749.9	215481.77	-0.00013059702	215482.81	659749.06	-0.00013837064
0	0.62478226	0.62478095	-3.8550269e-10	0.05020453	0.050204538	0	72650.305	72650.14	-4.752066e-05	660009.9	214684.28	-0.00030472636	214685.31	660009.06	-0.0002930659
0	0.62439466	0.6243933	-2.876443e-10	0.049851112	0.049851112	0	72605.22	72605.07	-3.2541324e-05	660271	213880.44	-0.00024253731	213881.48	660270.2	-0.00015080845
0	0.62400466	0.62400335	-1.719935e-10	0.04949754	0.04949754	0	72559.875	72559.73	-1.8078512e-05	660532.7	213072.81	-0.00017412935	213073.88	660531.94	-9.1728856e-05
0	0.6236123	0.623611	-3.350908e-10	0.049143855	0.049143855	0	72514.266	72514.11	-4.28719e-05	660794.56	212261.73	-0.00031716417	212262.81	660793.7	-0.0001857898
0	0.62321585	0.6232145	-1.7495891e-10	0.0487903	0.0487903	0	72468.16	72468	-2.0661157e-05	661058.44	211442.67	-5.5970148e-05	211443.75	661057.7	-0.00020755598
0	0.6228197	0.62281835	-5.663924e-10	0.048436854	0.04843685	0	72422.09	72421.945	-6.869835e-05	661319.3	210627.2	-0.0004664179	210628.28	661318.56	-0.00037313433
0	0.62241876	0.6224174	-4.2108755e-10	0.048083294	0.048083294	0	72375.47	72375.305	-4.9586775e-05	661582.94	209802.25	-0.00037935324	209803.34	661582.06	-0.00022932213
0	0.62201595	0.62201446	-3.5881403e-10	0.04772958	0.04772958	0	72328.625	72328.46	-4.3904958e-05	661846.4	208974.7	-0.00031094527	208975.84	661845.56	-0.00022854477
0	0.62161	0.62160856	-1.6309729e-10	0.04737629	0.04737629	0	72281.42	72281.26	-1.7561984e-05	662110.6	208142.27	-0.00012437812	208143.38	662109.75	-0.000121462996
0	0.6212014	0.62119997	-2.906097e-10	0.047022734	0.047022734	0	72233.91	72233.76	-3.357438e-05	662375	207305.81	-0.00022388059	207306.95	662374.1	-0.00015935945
0	0.6207896	0.6207882	-4.0922593e-10	0.04666901	0.04666901	0	72186.03	72185.875	-4.803719e-05	662640.2	206464.17	-0.00027985073	206465.28	662639.4	-0.00031308303
0	0.6203758	0.62037444	-5.278421e-10	0.04631547	0.04631547	0	72137.914	72137.75	-6.198347e-05	662905.2	205619.83	-0.00037935324	205621	662904.3	-0.00041997046
0	0.6199587	0.61995727	-8.3031346e-11	0.045961995	0.045961995	0	72089.42	72089.25	-1.34297525e-05	663171.06	204769.98	-0.000111940295	204771.14	663170.2	-1.5547264e-05
0	0.6195385	0.61953706	-6.87974e-10	0.045608453	0.045608453	0	72040.55	72040.38	-7.9545454e-05	663437.6	203915.12	-0.00050373137	203916.25	663436.75	-0.0004990672
0	0.61911625	0.61911476	-4.53707e-10	0.045254778	0.045254778	0	71991.445	71991.29	-5.320248e-05	663703.8	203057.69	-0.000460199	203058.86	663703	-0.00021222015
0	0.61869025	0.61868876	-2.2240539e-10	0.044901233	0.04490123	0	71941.914	71941.76	-2.5309917e-05	663971	202194.12	-0.00016169154	202195.33	663970.2	-0.00014381218
0	0.61826015	0.6182588	-3.7364106e-10	0.044547744	0.044547744	0	71891.91	71891.74	-4.442149e-05	664240.25	201322.86	-0.00023942786	201324.02	664239.44	-0.00029462064
0	0.61783004	0.6178286	-3.2026376e-10	0.04419421	0.044194214	0	71841.89	71841.73	-3.6673555e-05	664506.56	200454.3	-0.00026119404	200455.52	664505.7	-0.00019045398
0	0.61739594	0.61739445	-5.011535e-10	0.0438405	0.0438405	0	71791.414	71791.234	-5.733471e-05	664774.5	199578.64	-0.00037935324	199579.86	664773.56	-0.00035292289
0	0.6169581	0.6169566	-3.2619457e-10	0.043486964	0.043486964	0	71740.5	71740.32	-3.7190082e-05	665043.5	198696.56	-0.000329602	198697.78	665042.7	-0.00013759328
0	0.616517	0.6165155	-1.7495891e-10	0.043133643	0.04313364	0	71689.21	71689.04	-2.3243801e-05	665312.75	197809.78	-0.00017412935	197811.02	665311.94	-0.00010883085
0	0.61607236	0.61607087	-7.0576645e-10	0.042779926	0.04277993	0	71637.5	71637.33	-8.161157e-05	665582.9	196917.16	-0.0006965174	196918.39	665581.94	-0.0003334888
0	0.6156263	0.6156248	-4.1515673e-11	0.042426404	0.042426404	0	71585.63	71585.46	-5.9400827e-06	665852.4	196023.14	-0.00019278607	196024.38	665851.56	0.000118936565
0	0.6151762	0.61517483	-3.8550267e-11	0.04207289	0.04207289	0	71533.305	71533.13	-3.3574381e-06	666122.7	195122.84	-9.328358e-05	195124.11	666121.8	3.8090795e-05
0	0.614723	0.6147214	-2.7281727e-10	0.04171936	0.04171936	0	71480.59	71480.414	-3.305785e-05	666393.75	194217.06	-0.00019900498	194218.34	666392.94	-0.00019667289
0	0.6142668	0.61426526	-2.313016e-10	0.041365698	0.041365698	0	71427.55	71427.375	-2.5826446e-05	666664.75	193307.47	-0.0002363184	193308.75	666663.9	-0.00011252332
0	0.6138068	0.6138053	-2.5799024e-10	0.041012183	0.041012187	0	71374.07	71373.88	-3.0475207e-05	666936.3	192392	-0.0002300995	192393.27	666935.44	-0.00014381218
0	0.613344	0.61334246	-2.876443e-10	0.040658634	0.040658634	0	71320.24	71320.08	-3.5640496e-05	667208.25	191472.08	-0.00027985073	191473.36	667207.4	-0.0001267102
0	0.6128773	0.6128758	-4.7149945e-10	0.040305126	0.040305126	0	71265.984	71265.805	-5.268595e-05	667480.8	190546.1	-0.0004726368	190547.4	667480.06	-0.00021688433
0	0.6124077	0.61240613	-3.1433295e-10	0.039951425	0.03995142	0	71211.375	71211.195	-3.589876e-05	667753.56	189615.81	-0.00018656717	189617.14	667752.75	-0.00027654695
0	0.6119347	0.6119331	-3.380562e-10	0.039597917	0.039597917	0	71156.375	71156.19	-3.6157024e-05	668026.8	188680.44	-0.00030472636	188681.75	668025.94	-0.00016402363
0	0.6114576	0.611456	8.3031346e-11	0.03924455	0.039244547	0	71100.89	71100.71	6.7148762e-06	668300.6	187738.69	3.109453e-05	187740.03	668299.75	6.6075874e-05
0	0.61097795	0.61097634	-5.1004967e-10	0.038890846	0.038890846	0	71045.12	71044.94	-5.8626032e-05	668574.44	186793.3	-0.0004664179	186794.61	668573.56	-0.00027596392
0	0.6104942	0.6104926	-2.3723243e-10	0.038537342	0.038537342	0	70988.87	70988.69	-2.4793388e-05	668849.06	185841.45	-0.00018656717	185842.81	668848.2	-0.00012049129
0	0.6100069	0.6100054	-1.03789186e-10	0.038183767	0.038183767	0	70932.21	70932.02	-1.0330578e-05	669123.8	184884.58	-9.6393036e-05	184885.92	669122.94	-4.178327e-05
0	0.6095162	0.60951453	-3.7364106e-10	0.03783027	0.03783027	0	70875.14	70874.97	-4.28719e-05	669399.06	183922.27	-0.0003358209	183923.62	669398.1	-0.00021455224
0	0.60902035	0.60901874	-3.1729835e-10	0.03747657	0.037476566	0	70817.484	70817.305	-3.6157024e-05	669675.94	182951.12	-0.00022077115	182952.48	669675.2	-0.0002363184
0	0.60852367	0.60852206	-5.130151e-10	0.037123132	0.037123136	0	70759.734	70759.55	-5.9917355e-05	669950.4	181981.38	-0.00037313433	181982.75	669949.5	-0.00036613806
0	0.60802174	0.6080201	-6.257005e-10	0.036769517	0.036769517	0	70701.36	70701.18	-7.231405e-05	670226.7	181002.33	-0.0005659204	181003.72	670225.75	-0.00035214552
0	0.6075164	0.6075148	-3.0840214e-10	0.036416046	0.036416046	0	70642.61	70642.42	-3.512397e-05	670503.4	180018.22	-0.00021144279	180019.62	670502.44	-0.00025031096
0	0.60700685	0.6070053	-3.3212538e-10	0.03606234	0.03606234	0	70583.37	70583.17	-4.2355372e-05	670780.5	179027.73	-0.0003016169	179029.12	670779.7	-0.00021824472
0	0.6064938	0.6064921	-2.1054378e-10	0.03570888	0.03570888	0	70523.695	70523.51	-2.3243801e-05	671057.75	178032.1	-0.00024253731	178033.5	671056.9	-5.324938e-05
0	0.6059765	0.6059749	-6.0197725e-10	0.035355452	0.035355452	0	70463.555	70463.36	-6.97314e-05	671335.6	177030.17	-0.00036380597	177031.6	671334.7	-0.00051072764
0	0.60545564	0.60545397	-2.4316324e-10	0.03500176	0.03500176	0	70402.98	70402.79	-2.9958677e-05	671613.6	176022.77	-0.00012437812	176024.22	671612.8	-0.0002538091
0	0.6049293	0.60492766	-1.7495891e-10	0.034648295	0.034648295	0	70341.77	70341.586	-2.1177686e-05	671893.5	175006.03	-0.00024253731	175007.5	671892.7	-1.8268034e-05
0	0.6044012	0.60439956	-4.626032e-10	0.03429463	0.034294635	0	70280.375	70280.17	-5.320248e-05	672171.1	173989.1	-0.00032338308	173990.56	672170.3	-0.00031949626
0	0.60386825	0.6038666	-4.7149945e-10	0.033941176	0.033941176	0	70218.39	70218.2	-5.6818182e-05	672450.06	172964.03	-0.00029228855	172965.5	672449.1	-0.0004034515
0	0.6033307	0.60332894	-4.981881e-10	0.033587486	0.033587486	0	70155.89	70155.7	-5.785124e-05	672729.8	171931.7	-0.00048818407	171933.17	672728.9	-0.00022737872
0	0.6027885	0.60278684	-5.011535e-10	0.033234093	0.03323409	0	70092.84	70092.66	-5.836777e-05	673010.06	170892.44	-0.00037002488	170893.92	673009.1	-0.00035292289
0	0.60224354	0.6022419	-2.4909405e-10	0.032880407	0.032880407	0	70029.484	70029.28	-3.0991734e-05	673289.7	169849.83	-0.0003358209	169851.33	673288.9	-5.363806e-05
0	0.60169315	0.6016914	-1.8682053e-10	0.032526962	0.03252696	0	69965.48	69965.28	-1.96281e-05	673570.25	168798.62	-0.00011504975	168800.12	673569.44	-0.00012457246
0	0.601139	0.6011372	-3.7660647e-10	0.032173272	0.032173272	0	69901.03	69900.836	-4.338843e-05	673851.1	167741.97	-0.00037002488	167743.47	673850.3	-0.00016013681
0	0.6005801	0.6005784	-2.906097e-10	0.031819817	0.031819817	0	69836.055	69835.86	-3.305785e-05	674132.2	166678.44	-0.00021144279	166679.95	674131.4	-0.0002005597
0	0.6000166	0.600015	-2.5205946e-10	0.031466357	0.031466357	0	69770.53	69770.336	-2.892562e-05	674413.8	165607.98	-0.00022699004	165609.5	674413	-0.00014808768
0	0.5994475	0.5994459	-2.1647457e-10	0.031112673	0.031112673	0	69704.36	69704.16	-2.5309917e-05	674696.1	164528.94	-0.00026119404	164530.45	674695.3	-5.9856964e-05
0	0.5988766	0.598875	-6.523891e-11	0.030759212	0.030759212	0	69637.97	69637.766	-9.81405e-06	674977.5	163448.28	-6.529851e-05	163449.81	674976.56	-4.2754975e-05
0	0.59829915	0.5982975	-4.833611e-10	0.030405547	0.030405547	0	69570.82	69570.625	-5.6043387e-05	675260	162357.3	-0.00044776118	162358.83	675259.2	-0.00026896765
0	0.59771675	0.59771496	-4.7446486e-10	0.030052084	0.030052084	0	69503.09	69502.89	-5.6818182e-05	675543.6	161258.12	-0.0003358209	161259.66	675542.9	-0.00038945896
0	0.5971316	0.5971299	-5.189459e-10	0.029698404	0.029698404	0	69435.055	69434.86	-5.836777e-05	675825.1	160157.61	-0.00048507462	160159.16	675824.3	-0.0002557525
0	0.5965404	0.5965387	-3.2322917e-10	0.029344998	0.029345	0	69366.31	69366.12	-3.589876e-05	676108.1	159046.9	-0.00024875623	159048.47	676107.25	-0.00020590407
0	0.59594417	0.59594244	-8.896215e-12	0.028991332	0.02899133	0	69296.97	69296.77	-3.6157026e-06	676391.75	157928.55	-5.5970148e-05	157930.06	676390.94	3.1094528e-06
0	0.59534293	0.5953412	-1.6013188e-10	0.028637858	0.02863786	0	69227.07	69226.875	-1.6270662e-05	676675.4	156803.14	-0.0002891791	156804.69	676674.56	8.317786e-05
0	0.5947362	0.5947345	6.523891e-11	0.028284209	0.028284209	0	69156.51	69156.32	9.555785e-06	676959.75	155669.36	3.420398e-05	155670.92	676958.94	8.1817474e-05
0	0.5941254	0.5941237	-2.5205946e-10	0.027930733	0.027930731	0	69085.5	69085.305	-3.1508265e-05	677243.56	154530.39	-0.00023320895	154531.98	677242.8	-0.00015003109
0	0.593509	0.5935073	-4.0626053e-10	0.027577253	0.027577253	0	69013.82	69013.62	-4.442149e-05	677528	153383.08	-0.00036380597	153384.66	677527.1	-0.0002232004
0	0.5928869	0.59288526	-8.896216e-11	0.02722359	0.02722359	0	68941.484	68941.29	-1.0588843e-05	677812.94	152227.3	-0.00013370646	152228.88	677812.06	2.0017102e-05
0	0.59225893	0.59225726	-6.286659e-10	0.026870111	0.026870111	0	68868.46	68868.26	-7.463843e-05	678098.75	151062.2	-0.0005441542	151063.78	678098	-0.00037235697
0	0.5916282	0.59162647	-2.3723243e-10	0.026516465	0.026516465	0	68795.11	68794.91	-2.9700414e-05	678382.25	149895.56	-0.00026119404	149897.19	678381.44	-0.00011942242
0	0.5909901	0.59098846	-2.5502483e-10	0.026162978	0.026162976	0	68720.92	68720.73	-2.9442148e-05	678667.7	148716.95	-0.00031094527	148718.56	678666.9	-4.9751245e-05
0	0.5903466	0.5903448	-3.8253728e-10	0.025809325	0.025809325	0	68646.08	68645.88	-4.4679753e-05	678953.2	147530.31	-0.00023942786	147531.92	678952.4	-0.00031172263
0	0.5896979	0.58969617	-8.599675e-11	0.02545591	0.02545591	0	68570.66	68570.45	-1.1880165e-05	679238.5	146336.97	-9.328358e-05	146338.56	679237.75	-4.9751245e-05
0	0.5890428	0.5890411	-2.4612865e-10	0.025102269	0.025102265	0	68494.48	68494.28	-3.0475207e-05	679524.44	145133.75	-0.00020833334	145135.34	679523.9	-0.00015508395
0	0.58838284	0.5883811	-1.719935e-10	0.02474877	0.02474877	0	68417.74	68417.55	-1.8853305e-05	679810.1	143924.3	-0.00018967662	143925.89	679809.4	-4.9751245e-05
0	0.58771485	0.5877132	2.5205946e-10	0.02439515	0.02439515	0	68340.07	68339.875	3.1508265e-05	680096.7	142702.53	0.00018034826	142704.16	680095.9	0.00022543532
0	0.58704334	0.5870416	-4.1515674e-10	0.024041647	0.024041647	0	68261.984	68261.78	-4.8295453e-05	680382.4	141476.72	-0.0004353234	141478.33	680381.6	-0.00019200871
0	0.58636504	0.5863634	-3.7957187e-10	0.023688145	0.023688145	0	68183.12	68182.914	-4.3130167e-05	680668.6	140240.78	-0.00040733832	140242.38	680667.9	-0.0001414801
0	0.5856803	0.58567864	-1.6309729e-10	0.023334505	0.023334505	0	68103.49	68103.3	-1.9886364e-05	680955	138995.83	-0.000164801	138997.42	680954.4	-7.38495e-05
0	0.5849895	0.5849879	-5.367383e-10	0.022980997	0.022980997	0	68023.164	68022.96	-6.069215e-05	681241.3	137742.4	-0.00042288558	137744	681240.6	-0.00034544076
0	0.5842923	0.5842907	-4.626032e-10	0.022627389	0.022627389	0	67942.09	67941.9	-5.4752065e-05	681527.7	136480.02	-0.000528607	136481.62	681527	-0.00014031405
0	0.58358735	0.5835857	-3.8550267e-11	0.022273874	0.022273872	0	67860.11	67859.92	-3.8739668e-06	681815.25	135205.38	-4.9751245e-05	135206.97	681814.6	-1.7879353e-05
0	0.5828784	0.5828768	-4.907746e-10	0.02192025	0.02192025	0	67777.69	67777.49	-5.5268596e-05	682100.4	133927.75	-0.00048818407	133929.34	682099.75	-0.00024039956
0	0.58216095	0.5821594	-2.6836916e-10	0.021566821	0.021566821	0	67694.26	67694.07	-2.892562e-05	682387.1	132636.75	-0.0004011194	132638.33	682386.44	4.625311e-05
0	0.5814364	0.5814348	-4.7001675e-10	0.021213202	0.021213202	0	67610	67609.81	-5.4752065e-05	682674.7	131334.7	-0.00045708954	131336.3	682674	-0.00023359763
0	0.5807071	0.58070546	-4.952227e-10	0.02085968	0.020859681	0	67525.195	67525.01	-5.3977274e-05	682960	130028.336	-0.0003016169	130029.914	682959.4	-0.00038907028
0	0.5799696	0.57996804	-2.4761135e-10	0.02050609	0.02050609	0	67439.445	67439.26	-2.7117769e-05	683246.2	128709.72	-0.0003078358	128711.27	683245.56	-4.7030473e-05
0	0.5792248	0.5792233	-2.5799024e-10	0.020152563	0.020152563	0	67352.83	67352.65	-3.0216943e-05	683532.56	127380.61	-0.0002176617	127382.17	683531.94	-0.00016732742
0	0.57847226	0.5784707	-1.4678755e-10	0.019798957	0.019798957	0	67265.33	67265.14	-1.7303719e-05	683818.94	126040.63	-0.00019278607	126042.19	683818.3	-3.0608677e-05
0	0.5777135	0.577712	-2.7726538e-10	0.019445423	0.019445423	0	67177.09	67176.914	-3.176653e-05	684104.6	124692.65	-0.00018967662	124694.21	684104.06	-0.0002300995
0	0.5769465	0.57694495	-4.596378e-10	0.019091884	0.019091884	0	67087.91	67087.734	-5.2427687e-05	684390.6	123332.914	-0.00053482584	123334.47	684390	-0.00014458955
0	0.57617044	0.5761689	-2.0164756e-10	0.018738285	0.018738285	0	66997.67	66997.5	-1.8853305e-05	684677.5	121959.65	-0.00019900498	121961.19	684676.9	-6.763059e-05
0	0.5753896	0.5753881	-1.9868215e-10	0.018384758	0.018384758	0	66906.875	66906.695	-1.9886364e-05	684961.9	120582	-0.00027985073	120583.54	684961.3	6.6075872e-06
0	0.5745993	0.57459784	-2.935751e-10	0.01803117	0.01803117	0	66814.98	66814.805	-3.6673555e-05	685247.06	119190.48	-0.0001290423	119191.99	685246.56	-0.00031910758
0	0.57380205	0.57380056	-1.3789134e-10	0.017677728	0.017677726	0	66722.27	66722.09	-1.4979339e-05	685531.8	117789.52	-0.00015236318	117791	685531.2	-5.324938e-05
0	0.5729945	0.5729931	-2.5947294e-10	0.01732415	0.01732415	0	66628.37	66628.2	-2.9700414e-05	685816.75	116374.06	-0.00020211443	116375.55	685816.3	-0.00017296331
0	0.5721799	0.5721785	-2.3871513e-10	0.016970588	0.016970588	0	66533.65	66533.484	-2.7376032e-05	686101	114949.42	-0.00025497514	114950.93	686100.5	-8.162313e-05
0	0.5713565	0.57135516	-1.8385513e-10	0.016617045	0.016617045	0	66437.9	66437.75	-1.96281e-05	686384.94	113512.72	-8.7064676e-05	113514.18	686384.44	-0.00015780472
0	0.57052267	0.5705213	-4.003297e-10	0.016263483	0.01626348	0	66340.94	66340.79	-4.752066e-05	686669.75	112060.57	-0.00036380597	112062.016	686669.3	-0.00024603546
0	0.5696818	0.56968045	-6.271832e-10	0.015909908	0.015909908	0	66243.17	66243.01	-7.2830575e-05	686952.8	110600.33	-0.000494403	110601.74	686952.3	-0.00042716108
0	0.5688319	0.56883055	-4.4184537e-10	0.015556336	0.015556336	0	66144.336	66144.19	-5.1652893e-05	687235.4	109127.88	-0.000329602	109129.3	687235	-0.0002887904
0	0.56797457	0.5679733	-2.3426702e-10	0.015202774	0.015202774	0	66044.65	66044.5	-3.0475207e-05	687516.3	107646.75	-0.00036380597	107648.14	687515.8	2.7207711e-06
0	0.5671042	0.56710285	-1.8088972e-10	0.014849202	0.014849202	0	65943.44	65943.29	-2.0144627e-05	687799.06	106145.484	-0.00018501244	106146.86	687798.56	-7.074005e-05
0	0.56622785	0.5662266	-2.1499187e-10	0.014495666	0.014495666	0	65841.53	65841.39	-2.8021694e-05	688078.8	104638.84	-0.0004291045	104640.2	688078.4	0.00010047419
0	0.5653397	0.56533843	-3.1878106e-10	0.014142103	0.014142103	0	65738.26	65738.11	-3.48657e-05	688359.2	103115.03	-0.00022077115	103116.37	688358.8	-0.0002028918
0	0.56444234	0.56444114	-2.0609567e-10	0.0137886265	0.0137886265	0	65633.92	65633.78	-2.427686e-05	688638.44	101579.6	-0.00024875623	101580.914	688638.06	-7.657027e-05
0	0.5635341	0.56353295	-1.12685396e-10	0.0134350555	0.0134350555	0	65528.31	65528.168	-1.213843e-05	688917.25	100029.17	-0.00018345771	100030.46	688916.94	5.305504e-05
0	0.56261593	0.56261474	-3.7808917e-10	0.013081488	0.013081488	0	65421.535	65421.402	-4.4938017e-05	689195.06	98465.93	-0.00038557214	98467.19	689194.8	-0.00015897077
0	0.5616856	0.5616845	-1.8682053e-10	0.012727955	0.012727955	0	65313.36	65313.234	-2.2210745e-05	689472.75	96885.82	-0.00024564678	96887.05	689472.5	3.4981342e-06
0	0.56074697	0.56074595	-3.365735e-10	0.012374385	0.012374385	0	65204.21	65204.09	-3.757748e-05	689748.06	95296.44	-0.00016791045	95297.66	689747.8	-0.00032085666
0	0.5597966	0.5597955	-6.0642535e-10	0.0120208245	0.012020824	0	65093.695	65093.574	-6.7407025e-05	690022.9	93691.13	-0.0005068408	93692.32	690022.56	-0.00033893035
0	0.5588342	0.5588332	-4.640859e-10	0.0116672525	0.0116672525	0	64981.793	64981.676	-5.5010332e-05	690296.8	92069.89	-0.00035292289	92071.05	690296.56	-0.0003016169
0	0.55786043	0.5578594	-3.6326213e-11	0.0113136945	0.0113136945	0	64868.566	64868.45	-3.6157026e-06	690569.5	90433.945	-3.886816e-05	90435.06	690569.3	3.4981342e-06
0	0.5568748	0.55687386	-3.7067566e-10	0.010960125	0.010960125	0	64753.957	64753.848	-4.442149e-05	690841	88782.625	-0.00048041044	88783.71	690840.8	-5.7524874e-05
0	0.55587745	0.55587655	-2.268535e-10	0.010606601	0.010606601	0	64637.984	64637.875	-2.7117769e-05	691111	87116.414	-0.00027363183	87117.48	691110.8	-5.8302237e-05
0	0.55486774	0.55486685	-8.154864e-11	0.010253046	0.010253047	0	64520.574	64520.473	-1.1363636e-05	691379.56	85434.3	-0.0002580846	85435.32	691379.3	0.00010688744
0	0.553845	0.5538441	-1.8830323e-10	0.009899479	0.009899479	0	64401.64	64401.54	-2.4018595e-05	691646.8	83735.195	-0.00032182835	83736.18	691646.7	2.3709577e-05
0	0.55280954	0.5528087	-3.6326214e-10	0.009545942	0.009545942	0	64281.242	64281.15	-4.209711e-05	691912.25	82020.1	-0.00037313433	82021.055	691912.2	-0.0001624689
0	0.5517607	0.55175996	-1.445635e-10	0.009192379	0.009192379	0	64159.277	64159.2	-1.7820248e-05	692176.1	80287.94	-0.000295398	80288.85	692176	7.7347635e-05
0	0.55069864	0.5506979	-5.5601346e-10	0.008838863	0.008838863	0	64035.79	64035.703	-6.5857435e-05	692438	78539.27	-0.00044465173	78540.14	692437.9	-0.00036574938
0	0.5496225	0.5496218	-3.3360809e-10	0.008485294	0.008485294	0	63910.65	63910.57	-3.92562e-05	692698.1	76772.555	-0.0003824627	76773.4	692698	-0.00011854788
0	0.54853237	0.5485317	-2.2240539e-10	0.00813174	0.008131741	0	63783.887	63783.805	-2.4018595e-05	692955.94	74988.49	-0.00022232586	74989.3	692955.9	-8.725902e-05
0	0.54742736	0.54742676	-7.7100534e-11	0.007778168	0.007778168	0	63655.4	63655.332	-9.039256e-06	693211.8	73185.805	-0.00011504975	73186.57	693211.7	7.773632e-06
0	0.546308	0.5463075	-1.3937404e-10	0.007424601	0.007424601	0	63525.23	63525.17	-1.5625e-05	693465.1	71365.39	-0.00031094527	71366.11	693465	9.1728856e-05
0	0.54517365	0.54517317	-1.3121917e-10	0.007071052	0.007071052	0	63393.336	63393.273	-1.6399794e-05	693715.9	69526.62	-0.00011504975	69527.305	693715.75	-8.6675995e-05
0	0.5440231	0.5440226	-1.690281e-10	0.0067175278	0.0067175278	0	63259.547	63259.492	-2.0273761e-05	693964.2	67667.52	-0.00033426617	67668.164	693964.2	0.00010649876