//mumax 3.10 [windows_amd64 go1.11.6(gc) CUDA-11.0]
//GPU info: NVIDIA GeForce RTX 3090(24575MB), CUDA Driver 12.1, cc=8.6, using cc=80 PTX
//(c) Arne Vansteenkiste, Dynamat LAB, Ghent University, Belgium
//This is free software without any warranty. See license.txt
//********************************************************************//
//  If you use mumax in any work or publication,                      //
//  we kindly ask you to cite the references in references.bib        //
//********************************************************************//
//output directory: r1;p0.5;a8.000000000000001e-07;l3.0000000000000004e-07;s6.out/
randSeed(6)
ThermSeed(6)
resolution := 2e-09
zResolution := 5e-09
a := 8.000000000000001e-07
gridSize := 800
gridDepth := 5
SetCellsize(resolution, resolution, zResolution)
SetGridsize(gridSize, gridSize, gridDepth)
SetPBC(16, 16, 0)
//resizing...
Msat = 700e3
Aex = 13e-12
alpha = 0.2
Bmax := 0.1
Bstep := Bmax / 500.0
TableAdd(B_ext)
TableAdd(m_full)
islandWidth := 8e-08
islandLength := 3.0000000000000004e-07
ellipseConstant := 7.500000000000001e-08
hIsland := Universe().Inverse()
vIsland := Universe().Inverse()
vIslands := Universe().Inverse()
hIslands := Universe().Inverse()
hIsland = rect(islandLength-2*ellipseConstant, islandWidth)
hIsland = hIsland.add(ellipse(ellipseConstant*2, islandWidth).transl(islandLength/2-ellipseConstant, 0, 0))
hIsland = hIsland.add(ellipse(ellipseConstant*2, islandWidth).transl(-islandLength/2+ellipseConstant, 0, 0))
hIsland = hIsland.sub(rect(5.610502022051239e-09, -1.910789206218765e-09).transl(9.445301495947488e-08, -3.8631083246245726e-08, 0))
hIsland = hIsland.add(rect(9.544802441234102e-09, 3.073278358770717e-09).transl(-1.076461071635433e-07, -3.6011777577913636e-08, 0))
hIsland = hIsland.sub(rect(7.995302659237881e-09, -5.871199678108379e-10).transl(-3.085529962427226e-08, -4e-08, 0))
hIsland = hIsland.add(rect(9.269329350020708e-09, 1.5727653945297464e-09).transl(-1.3973711759856026e-08, -4e-08, 0))
hIsland = hIsland.sub(rect(6.599817348250778e-09, -3.731526896512052e-09).transl(-1.0687075863267474e-07, -3.62087959619009e-08, 0))
hIsland = hIsland.add(rect(9.63384983500037e-09, 1.5156717393337965e-09).transl(-3.720666277809249e-08, -4e-08, 0))
hIsland = hIsland.add(rect(5.665693105636219e-09, 8.176372854570853e-10).transl(4.366427620828684e-08, -4e-08, 0))
hIsland = hIsland.add(rect(6.934612165425815e-09, 3.735299515334735e-09).transl(3.0788359432948e-08, -4e-08, 0))
hIsland = hIsland.sub(rect(9.259486275691071e-09, -3.6946271828494196e-09).transl(1.8207632025802862e-08, -4e-08, 0))
hIsland = hIsland.sub(rect(9.350178872375882e-09, -2.8871582327717895e-10).transl(7.340800587361208e-09, -4e-08, 0))
hIsland = hIsland.sub(rect(3.0167703262517896e-09, -4.76424838218456e-10).transl(-1.4585812055636935e-07, -1.3108794686183934e-08, 0))
hIsland = hIsland.add(rect(2.385116796920926e-09, 3.0451836895405935e-11).transl(9.228087177241425e-08, -3.8923730215798754e-08, 0))
hIsland = hIsland.add(rect(8.235827464357503e-09, 2.6095182411227226e-11).transl(4.6415078489696826e-08, -4e-08, 0))
hIsland = hIsland.add(rect(5.841297195606256e-09, 1.2573311732088773e-09).transl(2.5394733507744088e-08, -4e-08, 0))
hIsland = hIsland.add(rect(9.391136938532429e-09, 4.1005932416859913e-10).transl(-1.2354490209321725e-07, -3.0490590079828964e-08, 0))
hIsland = hIsland.add(rect(3.4578228600559272e-09, 1.6805676627097207e-09).transl(1.4747710444792637e-07, -1.0287519336887992e-08, 0))
hIsland = hIsland.add(rect(4.87389928603559e-09, 3.0568782501994785e-09).transl(-6.994289168483815e-08, -4e-08, 0))
hIsland = hIsland.sub(rect(9.134972087269793e-09, -1.6926623769802116e-09).transl(1.1140322180054795e-07, -3.497221426107476e-08, 0))
hIsland = hIsland.sub(rect(9.446054637626567e-09, -1.3309578263123742e-09).transl(-1.1713291211443028e-07, -3.309167964391536e-08, 0))
hIsland = hIsland.add(rect(2.2738348358857722e-09, 9.44738912135022e-10).transl(3.532836904074808e-08, -4e-08, 0))
hIsland = hIsland.add(rect(9.74596010379408e-09, 4.807002000457132e-10).transl(-7.620799422568204e-08, -3.999481121883721e-08, 0))
hIsland = hIsland.sub(rect(8.694879742387599e-09, -2.4307237485082113e-10).transl(6.912741088745671e-08, -4e-08, 0))
hIsland = hIsland.sub(rect(4.307491915347221e-09, -6.794687968855417e-10).transl(2.162057024081248e-08, -4e-08, 0))
hIsland = hIsland.add(rect(9.743842896017068e-09, 7.898484078041701e-10).transl(9.870706083940872e-08, -3.794911312369183e-08, 0))
hIsland = hIsland.sub(rect(5.6726168625838135e-09, -3.743417843622108e-10).transl(-1.3960181864330877e-07, -2.03199652001595e-08, 0))
hIsland = hIsland.add(rect(3.4377079012018126e-09, 9.164999521628404e-10).transl(2.2450376963620077e-08, -4e-08, 0))
hIsland = hIsland.sub(rect(3.027658177591465e-09, -2.4233516933595558e-09).transl(-1.1243467988581402e-07, -3.466110618727083e-08, 0))
hIsland = hIsland.add(rect(5.9822183158155845e-09, 3.100012242977923e-10).transl(-8.976822552213145e-08, -3.921686536033291e-08, 0))
hIsland = hIsland.sub(rect(5.529387855298235e-09, -2.1019403006052865e-09).transl(8.391116573321179e-08, -3.97166537707415e-08, 0))
hIsland = hIsland.add(rect(4.589004294953482e-09, 1.4245910193345023e-09).transl(-1.3677336649354543e-07, -2.2684235964550234e-08, 0))
hIsland = hIsland.add(rect(3.093290678115951e-09, 4.362133588606921e-09).transl(6.53931123697186e-10, -4e-08, 0))
hIsland = hIsland.sub(rect(4.962677850120109e-09, -2.9343505747517342e-09).transl(6.25673375065258e-08, -4e-08, 0))
hIsland = hIsland.sub(rect(4.266319215126555e-09, -2.0612119380379375e-10).transl(-1.034964694839518e-07, -3.700023294369994e-08, 0))
hIsland = hIsland.sub(rect(8.545428792447577e-09, -8.724202354525456e-10).transl(-6.910594093320622e-09, -4e-08, 0))
hIsland = hIsland.add(rect(9.591097715026028e-09, 4.577724806385818e-10).transl(1.1644524233360905e-07, -3.3337778425359954e-08, 0))
hIsland = hIsland.add(rect(6.537081181584208e-09, 5.713246833141641e-10).transl(-7.203817774658115e-08, -4e-08, 0))
hIsland = hIsland.add(rect(3.156695143534911e-09, 5.551017076277757e-10).transl(-3.721533411826266e-09, -4e-08, 0))
hIsland = hIsland.sub(rect(6.1715748923437634e-09, -2.204797193208663e-09).transl(1.4815759019834715e-07, -8.81158020075476e-09, 0))
hIsland = hIsland.sub(rect(2.586740777412528e-09, -1.711798302144384e-09).transl(-1.4959575476693475e-07, -4.147446726245702e-09, 0))
hIsland = hIsland.sub(rect(9.54580113621673e-09, -2.1694943606779875e-09).transl(5.458918826774773e-08, -4e-08, 0))
hIsland = hIsland.add(rect(9.174006416419094e-09, 3.8381477882586205e-09).transl(-1.126920090265167e-07, -3.4581690541214883e-08, 0))
hIsland = hIsland.sub(rect(8.231005238377115e-09, -9.426838049073938e-12).transl(-1.3232168208566541e-07, -2.5794950825795695e-08, 0))
hIsland = hIsland.add(rect(9.725470618794772e-09, 1.1025713456687815e-09).transl(-1.8269090900938864e-09, -4e-08, 0))
hIsland = hIsland.add(rect(2.831786973667157e-09, 1.8119281026073397e-09).transl(-2.7693509677981452e-08, -4e-08, 0))
hIsland = hIsland.sub(rect(6.0711356290209324e-09, -2.884455790002232e-09).transl(4.2753463891943135e-08, -4e-08, 0))
hIsland = hIsland.sub(rect(5.6667425191197085e-09, -3.543309377834449e-09).transl(2.6508166813640614e-08, -4e-08, 0))
hIsland = hIsland.add(rect(9.06532971166748e-09, 3.0387339983431787e-09).transl(-1.1201678007319572e-07, -3.478853652524127e-08, 0))
hIsland = hIsland.sub(rect(8.201557629821553e-09, -9.624917373397834e-10).transl(-7.270177404344918e-08, -4e-08, 0))
hIsland = hIsland.sub(rect(6.6950991030726615e-09, -3.500446513531801e-09).transl(-9.220264071251013e-09, -4e-08, 0))
hIsland = hIsland.sub(rect(2.5656604533171086e-09, -2.8754816817521986e-09).transl(1.2521122429981643e-07, -2.9713095435145584e-08, 0))
hIsland = hIsland.sub(rect(2.130169383862401e-09, -1.1143577683345205e-09).transl(-1.9100083241697823e-08, -4e-08, 0))
hIsland = hIsland.sub(rect(2.768935899823678e-09, -1.1777043197961888e-10).transl(-1.4312873733030255e-07, -1.672555059194474e-08, 0))
hIsland = hIsland.sub(rect(9.963274808736579e-09, -1.2018036489068302e-09).transl(1.3759207965119313e-09, -4e-08, 0))
hIsland = hIsland.add(rect(2.8549030327204417e-09, 8.253076867429735e-10).transl(9.616587586894599e-08, -3.8374086436715984e-08, 0))
hIsland = hIsland.add(rect(8.674171783684885e-09, 5.711601597241241e-10).transl(5.002692442835842e-08, -4e-08, 0))
hIsland = hIsland.sub(rect(6.484521819594982e-09, -9.990136606626244e-10).transl(-1.3412407612580824e-07, -2.4610566098076795e-08, 0))
hIsland = hIsland.sub(rect(7.074806909457758e-09, -1.7183411423642216e-09).transl(-6.560448760927903e-09, -4e-08, 0))
hIsland = hIsland.add(rect(3.5709040607285245e-09, 2.210363771323481e-09).transl(4.585398052865419e-08, -4e-08, 0))
hIsland = hIsland.add(rect(9.819166146561717e-09, 6.416573368485351e-10).transl(6.262264070971041e-08, -4e-08, 0))
hIsland = hIsland.sub(rect(4.330581556202196e-09, -2.1423703275483776e-09).transl(-9.369703653342062e-08, -3.873711586760445e-08, 0))
hIsland = hIsland.add(rect(9.096839696120322e-09, 1.2899220935546925e-09).transl(1.1609518816502936e-07, -3.346081440329026e-08, 0))
hIsland = hIsland.sub(rect(6.756485871001372e-09, -3.0134945263772837e-09).transl(2.054234057061689e-08, -4e-08, 0))
hIsland = hIsland.sub(rect(6.362664503934229e-09, -2.309672826573515e-09).transl(6.409542150304232e-08, -4e-08, 0))
hIsland = hIsland.add(rect(6.2665529286384525e-09, 2.5865693262031104e-10).transl(5.939656982748537e-08, -4e-08, 0))
hIsland = hIsland.add(rect(5.9285621219364004e-09, 1.0070137043444059e-09).transl(-1.1708571976410107e-07, -3.310875683320072e-08, 0))
hIsland = hIsland.add(rect(8.51840309554578e-09, 3.06701564811715e-10).transl(-9.275867246821649e-08, -3.886250928815374e-08, 0))
hIsland = hIsland.sub(rect(9.763567202880317e-09, -6.117336139672072e-10).transl(-2.144297910895098e-08, -4e-08, 0))
hIsland = hIsland.sub(rect(3.79948470135669e-09, -3.5771367478829375e-10).transl(5.550832124946433e-09, -4e-08, 0))
hIsland = hIsland.add(rect(3.0225779004425795e-09, 1.2059265348945055e-09).transl(1.1872189184969872e-07, -3.25000755607551e-08, 0))
hIsland = hIsland.sub(rect(7.063364510291585e-09, -6.718778635919021e-10).transl(-1.2878750669193829e-07, -2.787606411938709e-08, 0))
hIsland = hIsland.add(rect(7.143816268170216e-09, 3.2644792405323265e-10).transl(-9.88455688672332e-08, -3.792442110335148e-08, 0))
hIsland = hIsland.add(rect(4.636213946164616e-09, 3.183788470150173e-09).transl(1.2928964270697326e-07, -2.759779544045325e-08, 0))
hIsland = hIsland.sub(rect(9.67359827584209e-09, -7.104278345394987e-10).transl(-2.448960420911578e-08, -4e-08, 0))
hIsland = hIsland.sub(rect(2.1312730475221804e-09, -2.6795334774779614e-09).transl(-1.1015112187776829e-07, -3.5334686286486505e-08, 0))
hIsland = hIsland.add(rect(8.433807767050656e-09, 2.8784016004809104e-09).transl(1.421200729152905e-07, -1.784791702233684e-08, 0))
hIsland = hIsland.add(rect(3.983855104473776e-09, 5.652400593721186e-10).transl(-1.1888185010230217e-07, -3.243869615288653e-08, 0))
hIsland = hIsland.sub(rect(7.72573181450275e-09, -3.2961415446625574e-09).transl(2.8039329906128748e-08, -4e-08, 0))
hIsland = hIsland.sub(rect(2.324854182853155e-09, -1.3852002572072534e-09).transl(-1.003255662710185e-07, -3.765052187068411e-08, 0))
hIsland = hIsland.sub(rect(2.3165413276404837e-09, -4.790955757239492e-11).transl(-3.315049524198217e-09, -4e-08, 0))
hIsland = hIsland.sub(rect(7.3076153683967034e-09, -4.2424178139534956e-09).transl(1.4536998243843458e-07, -1.3836537232723505e-08, 0))
hIsland = hIsland.add(rect(8.003606263067417e-09, 3.605280300130538e-10).transl(7.702776721900222e-09, -4e-08, 0))
hIsland = hIsland.sub(rect(8.829909018377003e-09, -6.983002587567033e-10).transl(-3.422344967797894e-08, -4e-08, 0))
hIsland = hIsland.sub(rect(7.848664653553513e-09, -6.753144183395583e-11).transl(1.638255919768752e-08, -4e-08, 0))
hIsland = hIsland.sub(rect(9.907440592033067e-09, -2.898268140168004e-09).transl(3.607567280656112e-08, -4e-08, 0))
hIsland = hIsland.sub(rect(4.107557286930307e-09, -1.5752596493948654e-09).transl(-1.2221546075371656e-07, -3.107873992956258e-08, 0))
hIsland = hIsland.add(rect(2.886861401343675e-09, 1.8012956674527174e-10).transl(7.582050041365364e-08, -3.9997606253961215e-08, 0))
hIsland = hIsland.add(rect(9.319408239639557e-09, 5.458212387541656e-10).transl(7.60006074756096e-08, -3.999643996488267e-08, 0))
hIsland = hIsland.sub(rect(8.902640026429663e-09, -1.2442015528683325e-09).transl(-6.07918469155093e-08, -4e-08, 0))
hIsland = hIsland.add(rect(3.5845381263170923e-09, 3.111828325216525e-10).transl(-7.303362473420173e-09, -4e-08, 0))
hIsland = hIsland.add(rect(4.334186276007803e-09, 1.6561809967917333e-09).transl(-1.0717430543627996e-07, -3.613235548863526e-08, 0))
hIsland = hIsland.sub(rect(5.8066278438217954e-09, -4.948389501731889e-10).transl(5.396669854547766e-08, -4e-08, 0))
hIsland = hIsland.add(rect(4.181387493004802e-09, 2.3045499732912734e-09).transl(5.224869261179935e-08, -4e-08, 0))
hIsland = hIsland.add(rect(9.182795202441529e-09, 1.3819616302201002e-09).transl(3.344829236698425e-08, -4e-08, 0))
hIsland = hIsland.sub(rect(8.829864538283211e-09, -1.993452712754171e-09).transl(-1.2964793114050748e-07, -2.7395914684248552e-08, 0))
hIsland = hIsland.sub(rect(9.278792818463477e-09, -1.0755067633054364e-10).transl(-2.933678833564487e-08, -4e-08, 0))
hIsland = hIsland.sub(rect(3.7930177610516544e-09, -2.1338332950177854e-09).transl(-1.4644675146425668e-07, -1.2166100285100628e-08, 0))
hIsland = hIsland.add(rect(3.560215526082626e-09, 2.428820171045185e-09).transl(-4.194224585041799e-08, -4e-08, 0))
hIsland = hIsland.sub(rect(7.726879311899003e-09, -4.1653241523035477e-10).transl(-7.408136539841325e-08, -4e-08, 0))
hIsland = hIsland.add(rect(4.384747687875171e-09, 4.517560188768757e-10).transl(6.956653992991446e-08, -4e-08, 0))
hIsland = hIsland.add(rect(2.4633000322770242e-09, 7.920677753403202e-10).transl(4.1393611824724374e-08, -4e-08, 0))
hIsland = hIsland.sub(rect(9.292905993292135e-09, -1.7214701386568416e-10).transl(-5.4512438194359207e-08, -4e-08, 0))
hIsland = hIsland.sub(rect(5.071985623738084e-09, -7.354891542191341e-10).transl(-9.682913038184883e-08, -3.82682520155589e-08, 0))
hIsland = hIsland.add(rect(4.725482946490283e-09, 1.9098523889097525e-09).transl(-1.214466419301163e-07, -3.1406538952446485e-08, 0))
hIsland = hIsland.add(rect(6.641350715695377e-09, 3.27185514312938e-09).transl(8.962757341919168e-08, -3.9231856790988057e-08, 0))
hIsland = hIsland.add(rect(5.3563725130864876e-09, 1.3461148262026585e-09).transl(8.40745176579282e-08, -3.97061316436789e-08, 0))
hIsland = hIsland.sub(rect(5.508902656063156e-09, -3.4208865760640454e-11).transl(-1.2471111402604113e-07, -2.995133305188091e-08, 0))
hIsland = hIsland.add(rect(9.357835368812691e-09, 2.1870169307080504e-09).transl(-1.0223687979543493e-07, -3.726909665640946e-08, 0))
hIsland = hIsland.sub(rect(8.25822465952839e-09, -1.0522924810846786e-09).transl(6.800345258155517e-08, -4e-08, 0))
hIsland = hIsland.add(rect(5.8312756984258e-09, 8.756377882987015e-10).transl(8.020159853574957e-08, -3.990368269560342e-08, 0))
hIsland = hIsland.sub(rect(3.7413709598745754e-09, -8.938861104086622e-10).transl(7.05736544084063e-08, -4e-08, 0))
hIsland = hIsland.sub(rect(7.05181802661818e-09, -1.744777775439617e-09).transl(9.25061474331304e-08, -3.8895085512535046e-08, 0))
hIsland = hIsland.add(rect(6.4228346888057764e-09, 6.678422858882959e-10).transl(1.8421897269971557e-08, -4e-08, 0))
hIsland = hIsland.sub(rect(3.311368787353769e-09, -1.8327796176192172e-09).transl(1.3582371035968928e-08, -4e-08, 0))
hIsland = hIsland.add(rect(2.0041311913320047e-09, 2.7834865824536964e-09).transl(-1.4297316774791857e-07, -1.6904634715439937e-08, 0))
hIsland = hIsland.add(rect(9.215592575196386e-09, 4.925367140448698e-10).transl(3.5363255037672395e-08, -4e-08, 0))
hIsland = hIsland.add(rect(8.639500760635474e-09, 1.6086836648429361e-09).transl(-1.083721635532685e-08, -4e-08, 0))
hIsland = hIsland.add(rect(7.91682509611691e-09, 1.3383231227884867e-09).transl(-9.223002947398893e-08, -3.8930140816415145e-08, 0))
hIsland = hIsland.add(rect(9.947146904657808e-09, 2.294421874187315e-10).transl(2.872899930104934e-08, -4e-08, 0))
hIsland = hIsland.sub(rect(7.438459470003896e-09, -1.0665143589135264e-09).transl(-1.245723773354009e-09, -4e-08, 0))
hIsland = hIsland.sub(rect(9.467783617893005e-09, -2.2054993795926694e-09).transl(-4.293100501880922e-08, -4e-08, 0))
hIsland = hIsland.sub(rect(5.891784044306366e-09, -2.911108127959165e-09).transl(-1.4370037066693263e-07, -1.6046679198785873e-08, 0))
hIsland = hIsland.sub(rect(6.916444012706734e-09, -2.2733498899184912e-09).transl(3.220590573721562e-08, -4e-08, 0))
hIsland = hIsland.sub(rect(3.0566744111254867e-09, -2.456363947964748e-11).transl(6.221809892281489e-08, -4e-08, 0))
hIsland = hIsland.sub(rect(7.374052547054686e-09, -1.4947953153946038e-09).transl(-8.761819367163713e-08, -3.942982492489459e-08, 0))
hIsland = hIsland.add(rect(7.527033885670963e-09, 3.937189941112309e-10).transl(-1.307858343482829e-07, -2.6735594576703694e-08, 0))
hIsland = hIsland.sub(rect(5.832912393532506e-09, -3.4191857554143206e-10).transl(-4.7504274842953055e-08, -4e-08, 0))
hIsland = hIsland.sub(rect(3.1237735535285227e-09, -9.283382819816246e-10).transl(-5.628238334746239e-08, -4e-08, 0))
hIsland = hIsland.add(rect(3.252528042993836e-09, 7.847031544125003e-10).transl(-8.22618842724735e-08, -3.9812056373585295e-08, 0))
hIsland = hIsland.sub(rect(8.026390648537642e-09, -9.740684298634184e-10).transl(-8.640315167668205e-08, -3.953496120525165e-08, 0))
hIsland = hIsland.sub(rect(6.696949926754622e-09, -4.361299410749164e-09).transl(1.4581727005060465e-07, -1.317143589659974e-08, 0))
hIsland = hIsland.sub(rect(4.3700666017597955e-09, -6.881747237994915e-10).transl(3.854096048193198e-08, -4e-08, 0))
hIsland = hIsland.add(rect(8.081977734260943e-09, 1.5902617837093059e-09).transl(1.1582256610405935e-08, -4e-08, 0))
hIsland = hIsland.sub(rect(7.123179088116419e-09, -8.34295776552881e-10).transl(-3.435568977496154e-08, -4e-08, 0))
hIsland = hIsland.add(rect(2.4796772598546797e-09, 2.969536102980021e-09).transl(-1.16322430780108e-07, -3.338111440274667e-08, 0))
hIsland = hIsland.sub(rect(4.917230757732121e-09, -4.208126015726176e-10).transl(-8.917922387217214e-08, -3.927864984466757e-08, 0))
hIsland = hIsland.add(rect(5.646187491821635e-09, 1.2009370349009072e-09).transl(-2.1441012905489103e-08, -4e-08, 0))
hIsland = hIsland.sub(rect(6.298777992438193e-09, -1.5086097221036839e-09).transl(-8.631935571821042e-08, -3.954181021607806e-08, 0))
hIsland = hIsland.sub(rect(4.679857927327616e-09, -2.3800602041148673e-09).transl(-1.0623970858823265e-07, -3.636488897999324e-08, 0))
hIsland = hIsland.sub(rect(9.379489197663749e-09, -3.570753893043031e-09).transl(-1.0093592910935267e-07, -3.7532147121516834e-08, 0))
hIsland = hIsland.sub(rect(2.0185245969900916e-09, -4.016315353848696e-09).transl(5.579752748677857e-08, -4e-08, 0))
hIsland = hIsland.sub(rect(5.700702926653441e-09, -1.096639843001937e-09).transl(2.5787739188619122e-08, -4e-08, 0))
hIsland = hIsland.sub(rect(7.282202360354294e-09, -4.626665082040266e-09).transl(-1.3969692607664852e-07, -2.0233711846969263e-08, 0))
hIsland = hIsland.sub(rect(8.101336791908029e-09, -5.718143038958564e-09).transl(1.0876106093357418e-07, -3.57181689798796e-08, 0))
hIsland = hIsland.add(rect(6.612086740807291e-09, 1.165903397039453e-09).transl(1.4540023887491972e-07, -1.3792688473192641e-08, 0))
hIsland = hIsland.sub(rect(6.880241525148621e-09, -1.340903672719603e-09).transl(9.726236454549974e-08, -3.819719454444962e-08, 0))
hIsland = hIsland.sub(rect(7.367775620062089e-09, -3.2168195676188663e-10).transl(-5.4864436967087705e-08, -4e-08, 0))
hIsland = hIsland.add(rect(5.5838192354864304e-09, 4.239923441985169e-10).transl(1.1611192801728173e-07, -3.345496475236312e-08, 0))
hIsland = hIsland.sub(rect(8.581502865253502e-09, -1.2024476140945577e-09).transl(1.0797937011487218e-07, -3.592529986865534e-08, 0))
hIsland = hIsland.sub(rect(8.166418036730023e-09, -1.4801345719570548e-09).transl(-8.441885267309263e-08, -3.968331604180751e-08, 0))
hIsland = hIsland.sub(rect(6.234395743436074e-09, -3.149404378816775e-09).transl(1.3919594745743614e-07, -2.0682611174359806e-08, 0))
hIsland = hIsland.sub(rect(4.741995571752064e-09, -2.658134488208698e-09).transl(8.042444635875327e-08, -3.989524195684184e-08, 0))
hIsland = hIsland.add(rect(4.8445307287370095e-09, 1.966865069264798e-09).transl(2.653235132989034e-08, -4e-08, 0))
hIsland = hIsland.add(rect(4.051302397314951e-09, 5.237691751178781e-09).transl(-1.2416990063587808e-07, -3.020438053390447e-08, 0))
hIsland = hIsland.sub(rect(2.0787962016145204e-09, -2.6364803642226693e-09).transl(-1.513676033417913e-08, -4e-08, 0))
hIsland = hIsland.add(rect(9.266433139154185e-09, 2.595332468935353e-10).transl(-3.1868059885174226e-08, -4e-08, 0))
hIsland = hIsland.add(rect(7.093358624272949e-09, 3.0212108926267122e-09).transl(4.666851115637957e-09, -4e-08, 0))
hIsland = hIsland.add(rect(3.898804547327728e-09, 3.0800998048043805e-09).transl(-1.197883877289208e-07, -3.208433475681841e-08, 0))
hIsland = hIsland.add(rect(5.622563411986701e-09, 9.715982408345306e-10).transl(1.0682420565940147e-07, -3.622044087009923e-08, 0))
hIsland = hIsland.add(rect(2.1863917850510097e-09, 3.171132540428736e-09).transl(-9.22025167148261e-08, -3.893360152848678e-08, 0))
hIsland = hIsland.add(rect(8.600257952054084e-09, 3.4052195371281914e-09).transl(-5.744542754981476e-08, -4e-08, 0))
hIsland = hIsland.sub(rect(4.266770629761702e-09, -1.2351524994077891e-09).transl(1.4306060731502682e-07, -1.680426385603396e-08, 0))
hIsland = hIsland.sub(rect(4.127697142963152e-09, -5.678603646426082e-10).transl(9.880510396855692e-09, -4e-08, 0))
hIsland = hIsland.sub(rect(4.978773559257222e-09, -3.9243541619867915e-10).transl(1.2812236302027641e-07, -2.8236535120858824e-08, 0))
hIsland = hIsland.sub(rect(5.523099778519625e-09, -7.459159149680628e-11).transl(-3.4124481304933905e-08, -4e-08, 0))
hIsland = hIsland.add(rect(5.746504157690605e-09, 2.7894564304190187e-09).transl(-2.7556290430154597e-08, -4e-08, 0))
hIsland = hIsland.add(rect(4.513810878242499e-09, 5.459667020372891e-10).transl(1.4480338822783546e-07, -1.4630131385830851e-08, 0))
hIsland = hIsland.sub(rect(9.585678996372867e-09, -4.835389998407736e-10).transl(9.83186088233642e-08, -3.801751168914703e-08, 0))
hIsland = hIsland.sub(rect(8.593601572474924e-09, -4.335443152312737e-10).transl(1.3792665495891242e-07, -2.176389570148455e-08, 0))
hIsland = hIsland.sub(rect(5.092749681978338e-09, -6.254935086950364e-10).transl(8.312315711161169e-08, -3.976469212122537e-08, 0))
hIsland = hIsland.sub(rect(5.965782959511857e-09, -3.2527375770315843e-09).transl(-6.432440705716596e-08, -4e-08, 0))
hIsland = hIsland.sub(rect(5.4355188298828065e-09, -4.490047184606951e-10).transl(-1.0153157829527157e-07, -3.741353424764062e-08, 0))
hIsland = hIsland.sub(rect(2.9337911571093233e-09, -1.0979498499849266e-09).transl(5.48634053192713e-08, -4e-08, 0))
hIsland = hIsland.add(rect(5.677737737435735e-09, 7.944810071017805e-10).transl(1.3874697524113028e-07, -2.107391029968683e-08, 0))
hIsland = hIsland.sub(rect(5.69898745161537e-09, -3.38525614979526e-10).transl(6.161703139868382e-08, -4e-08, 0))
hIsland = hIsland.sub(rect(2.9848512672642996e-09, -3.4315994556275723e-10).transl(-1.3873017424031018e-07, -2.108835940546678e-08, 0))
hIsland = hIsland.add(rect(4.864178210391407e-09, 4.712577273490327e-10).transl(-1.0963780939500533e-07, -3.547858310212126e-08, 0))
hIsland = hIsland.add(rect(7.666778029678837e-09, 2.8321880667617217e-09).transl(-1.647316461419638e-08, -4e-08, 0))
hIsland = hIsland.add(rect(7.794082227981298e-09, 5.197118307161621e-09).transl(1.5331096665523446e-09, -4e-08, 0))
hIsland = hIsland.sub(rect(7.732808926767359e-09, -4.546618771165807e-09).transl(-2.9743933302476683e-08, -4e-08, 0))
hIsland = hIsland.sub(rect(6.2846777851483174e-09, -9.436382504469138e-10).transl(9.253274065168651e-08, -3.8891678192150554e-08, 0))
hIsland = hIsland.sub(rect(8.318720779551975e-09, -2.5594126957331596e-09).transl(-1.419739393852583e-07, -1.800338886198483e-08, 0))
hIsland = hIsland.add(rect(9.818319072876339e-09, 1.7365241899623887e-09).transl(5.0655101033493266e-08, -4e-08, 0))
hIsland = hIsland.sub(rect(3.6174340878426003e-09, -1.8225060823759473e-09).transl(-6.59375445608557e-08, -4e-08, 0))
hIsland = hIsland.add(rect(5.925337198469403e-09, 3.3278887204882192e-09).transl(1.0648443657948415e-07, -3.6304804469897566e-08, 0))
hIsland = hIsland.add(rect(2.5541175179501583e-09, 6.531479200149453e-11).transl(-9.979923346463087e-08, -3.775004772637283e-08, 0))
hIsland = hIsland.add(rect(9.49398780301224e-09, 1.5140305940585018e-09).transl(1.045328328978837e-07, -3.676834109125485e-08, 0))
hIsland = hIsland.sub(rect(6.4397750990807934e-09, -2.5105668700418502e-09).transl(7.888346981399521e-08, -3.994634147514735e-08, 0))
hIsland = hIsland.add(rect(5.534229360603969e-09, 2.8057052880635455e-09).transl(1.2411274514613187e-07, -3.0230819366961e-08, 0))
hIsland = hIsland.add(rect(8.016899868566643e-09, 1.2596820494615205e-09).transl(-5.043016144905568e-08, -4e-08, 0))
hIsland = hIsland.add(rect(6.600957402295703e-09, 1.2238765263558913e-09).transl(-1.4894972380350559e-07, -6.67068357671769e-09, 0))
hIsland = hIsland.sub(rect(7.503662122913712e-09, -3.1098187452285517e-09).transl(1.4675842783318868e-07, -1.1632634980792332e-08, 0))
hIsland = hIsland.add(rect(5.81302589471282e-09, 1.1250913008915953e-09).transl(-4.435618725839348e-08, -4e-08, 0))
hIsland = hIsland.add(rect(5.779666786646079e-09, 3.0612204341278577e-10).transl(-6.987753860741539e-08, -4e-08, 0))
hIsland = hIsland.add(rect(6.2799587769439525e-09, 3.4525074828592987e-09).transl(-4.759234354556887e-08, -4e-08, 0))
hIsland = hIsland.sub(rect(7.989343653582618e-09, -2.738499274461697e-09).transl(1.0462805243209788e-07, -3.674654478579056e-08, 0))
hIsland = hIsland.add(rect(4.218433247762127e-09, 6.19009124903628e-10).transl(3.58230457969658e-08, -4e-08, 0))
hIsland = hIsland.add(rect(8.888729151901083e-09, 1.996573007675574e-09).transl(-4.3872576303643996e-08, -4e-08, 0))
hIsland = hIsland.add(rect(4.6091606839157435e-09, 2.1277318125115574e-09).transl(-6.936457937443112e-08, -4e-08, 0))
hIsland = hIsland.sub(rect(4.390202475953711e-09, -2.449699994490338e-09).transl(-6.376098385331723e-08, -4e-08, 0))
hIsland = hIsland.sub(rect(5.6471881937958795e-09, -5.110916455685874e-10).transl(-6.955755468237495e-09, -4e-08, 0))
hIsland = hIsland.sub(rect(9.031816803976966e-09, -1.4447331295602577e-09).transl(9.303180461143231e-08, 3.8826718030937194e-08, 0))
hIsland = hIsland.sub(rect(4.011400958814774e-09, -1.483585713149957e-09).transl(-3.671307616972561e-08, 4e-08, 0))
hIsland = hIsland.add(rect(2.1907658650896064e-09, 2.002485660409572e-09).transl(-1.4849367700039548e-07, 7.976488846475626e-09, 0))
hIsland = hIsland.add(rect(8.943597101643564e-09, 7.070567225080528e-10).transl(-3.177794424249614e-08, 4e-08, 0))
hIsland = hIsland.add(rect(3.0066062291446462e-09, 2.3505549374035086e-09).transl(-1.7601506244187405e-08, 4e-08, 0))
hIsland = hIsland.sub(rect(5.794440870802568e-09, -1.2763257282924402e-09).transl(-5.121753276601152e-08, 4e-08, 0))
hIsland = hIsland.add(rect(8.955074547698717e-09, 4.4455850111078833e-10).transl(-9.474657563838156e-08, 3.8588694719550026e-08, 0))
hIsland = hIsland.add(rect(9.818961586635355e-09, 8.220657646846434e-10).transl(-7.034657973026262e-08, 4e-08, 0))
hIsland = hIsland.sub(rect(6.813262456700824e-09, -1.5280100838711506e-09).transl(1.4451443672562447e-07, 1.5016369963776327e-08, 0))
hIsland = hIsland.sub(rect(3.316583090805944e-09, -3.653071917659451e-10).transl(-1.1877784399377057e-07, 3.247864419833463e-08, 0))
hIsland = hIsland.sub(rect(4.383356441716011e-09, -5.668655145185411e-10).transl(-5.4638700645242635e-08, 4e-08, 0))
hIsland = hIsland.add(rect(3.635099700938055e-09, 1.4143535137197467e-09).transl(-1.0229158630940005e-07, 3.725771128354865e-08, 0))
hIsland = hIsland.sub(rect(2.362015575793052e-09, -2.249181081880314e-09).transl(1.2909062030491285e-07, 2.770873162676376e-08, 0))
hIsland = hIsland.add(rect(7.83337787515092e-09, 2.4234485315593502e-09).transl(-1.1940867174041218e-07, 3.223412077301859e-08, 0))
hIsland = hIsland.sub(rect(4.548385409816262e-09, -1.6333129640256175e-09).transl(2.5617229605708966e-08, 4e-08, 0))
hIsland = hIsland.add(rect(7.571925794132607e-09, 3.0222862388898286e-09).transl(1.088781309751583e-07, 3.568662516121388e-08, 0))
hIsland = hIsland.sub(rect(9.50166471122115e-09, -2.7115943250029885e-10).transl(-1.0137694538435105e-07, 3.744462175534672e-08, 0))
hIsland = hIsland.sub(rect(6.4898632200420345e-09, -1.1620614733452648e-09).transl(7.857639362724179e-08, 3.9954496459618415e-08, 0))
hIsland = hIsland.sub(rect(3.491422297108189e-09, -4.937218709232145e-10).transl(-6.738010226188714e-08, 4e-08, 0))
hIsland = hIsland.add(rect(9.391241075469762e-09, 1.1293273270296901e-09).transl(-2.4197957491388237e-08, 4e-08, 0))
hIsland = hIsland.sub(rect(4.025790167950237e-09, -3.9277528379550785e-09).transl(3.692477802138447e-08, 4e-08, 0))
hIsland = hIsland.sub(rect(3.8159536401760335e-09, -1.3313987944990564e-09).transl(-6.762085943149556e-08, 4e-08, 0))
hIsland = hIsland.add(rect(9.250228862875347e-09, 5.459597896588146e-10).transl(1.3913160602089925e-07, 2.0739310498292354e-08, 0))
hIsland = hIsland.sub(rect(7.841452096974316e-09, -3.851342524582284e-10).transl(-1.1535947446047548e-08, 4e-08, 0))
hIsland = hIsland.sub(rect(7.017350491054543e-09, -2.8081696644859522e-09).transl(3.853849891653243e-08, 4e-08, 0))
hIsland = hIsland.sub(rect(7.631519955966042e-09, -4.594078936135538e-10).transl(3.499337012951284e-08, 4e-08, 0))
hIsland = hIsland.add(rect(2.7436352554360213e-09, 1.5220891302459166e-09).transl(-6.470302084146881e-08, 4e-08, 0))
hIsland = hIsland.sub(rect(2.5590334229247873e-09, -1.9766911946485526e-09).transl(2.3882486458707507e-08, 4e-08, 0))
hIsland = hIsland.add(rect(2.725676665595965e-09, 1.5016433850002249e-09).transl(1.0612205712069465e-07, 3.6393572318741374e-08, 0))
hIsland = hIsland.add(rect(7.306763421490205e-09, 2.4816014684145995e-09).transl(-5.972156651203078e-08, 4e-08, 0))
hIsland = hIsland.add(rect(7.186347170124414e-09, 2.332814593559054e-10).transl(-1.709444311204115e-11, 4e-08, 0))
hIsland = hIsland.sub(rect(7.1668156807106185e-09, -6.100704357042384e-09).transl(2.8508650705865995e-08, 4e-08, 0))
hIsland = hIsland.add(rect(3.77104055851267e-09, 3.1553875656926074e-09).transl(3.070656904067919e-08, 4e-08, 0))
hIsland = hIsland.add(rect(2.5042276906202262e-09, 1.1092335819118312e-09).transl(-1.1621415470653351e-07, 3.341916821339109e-08, 0))
hIsland = hIsland.add(rect(4.404119380801099e-09, 2.3070804853917456e-09).transl(-9.245880966950275e-08, 3.890113724445261e-08, 0))
hIsland = hIsland.sub(rect(8.6180283154052e-09, -1.2169675438389163e-09).transl(2.2431509302218223e-08, 4e-08, 0))
hIsland = hIsland.add(rect(7.508593190728636e-09, 6.115130984452106e-10).transl(-4.6555860240024525e-08, 4e-08, 0))
hIsland = hIsland.add(rect(4.762156324832341e-09, 1.930871788603952e-09).transl(3.448170426426323e-09, 4e-08, 0))
hIsland = hIsland.add(rect(3.866248141311132e-09, 1.470843683919054e-09).transl(-7.851098832686953e-08, 3.99561464887577e-08, 0))
hIsland = hIsland.sub(rect(7.31748841573353e-09, -4.322571088846107e-10).transl(6.114337755871765e-08, 4e-08, 0))
hIsland = hIsland.sub(rect(4.063447007853969e-09, -2.4742738235696603e-09).transl(7.864253723870382e-08, 3.995279676138597e-08, 0))
hIsland = hIsland.add(rect(2.603291834367256e-09, 3.6695227453277004e-10).transl(7.94480673197279e-08, 3.992959028732823e-08, 0))
hIsland = hIsland.add(rect(8.973611125772445e-09, 9.802401297334306e-10).transl(9.304033449694609e-08, 3.882559094201493e-08, 0))
hIsland = hIsland.sub(rect(5.745360794450496e-09, -1.6078033756852592e-09).transl(4.773708248367792e-08, 4e-08, 0))
hIsland = hIsland.sub(rect(4.478501444766316e-09, -4.531109109636829e-10).transl(9.639371436787798e-08, 3.8338131588098014e-08, 0))
hIsland = hIsland.sub(rect(8.588314381304342e-09, -5.237032513872049e-10).transl(-1.162388678390199e-07, 3.341049534893519e-08, 0))
hIsland = hIsland.add(rect(6.119066771936979e-09, 1.5898665354238128e-10).transl(1.1310714577773954e-07, 3.4452034818354053e-08, 0))
hIsland = hIsland.add(rect(3.363818216972881e-09, 1.3715776268022882e-09).transl(1.3646117434762956e-07, 2.292417831411079e-08, 0))
hIsland = hIsland.sub(rect(2.4916900990944156e-09, -3.5812619244633243e-09).transl(6.517548443242401e-08, 4e-08, 0))
hIsland = hIsland.sub(rect(7.890908870132824e-09, -1.6072834278913156e-09).transl(1.0051008732927566e-07, 3.7615071946404956e-08, 0))
hIsland = hIsland.add(rect(5.8975251105552995e-09, 1.701225538479298e-09).transl(-9.377340203554521e-08, 3.872660871429384e-08, 0))
hIsland = hIsland.add(rect(5.5162103604492206e-09, 8.166750361525502e-10).transl(-1.2069442844614514e-07, 3.171885029265215e-08, 0))
hIsland = hIsland.sub(rect(8.435283822104083e-09, -2.5120855499789553e-09).transl(7.800333218916549e-08, 3.996791600653579e-08, 0))
hIsland = hIsland.add(rect(8.067079040378672e-09, 2.1533195187173606e-09).transl(1.0037668355448642e-07, 3.764073039990527e-08, 0))
hIsland = hIsland.sub(rect(3.2933233119909915e-09, -4.488302861941383e-09).transl(4.4541493638518254e-08, 4e-08, 0))
hIsland = hIsland.sub(rect(4.191529592305053e-09, -2.110446997468534e-10).transl(1.1415672998838187e-07, 3.4115622474395656e-08, 0))
hIsland = hIsland.sub(rect(2.814646390850067e-09, -1.6769147961309134e-09).transl(9.3220630172468e-08, 3.8801635286934414e-08, 0))
hIsland = hIsland.add(rect(8.457430051079055e-09, 9.573364019676412e-10).transl(2.199442006702023e-08, 4e-08, 0))
hIsland = hIsland.sub(rect(2.6589691569156184e-09, -3.2073619579919004e-09).transl(-9.656561967325008e-08, 3.831072603383831e-08, 0))
hIsland = hIsland.add(rect(7.813291317711794e-09, 1.92782929833127e-10).transl(1.4170081973197346e-07, 1.8289528444598272e-08, 0))
hIsland = hIsland.add(rect(3.1554274153500536e-09, 7.653663489600311e-10).transl(4.800913423803084e-08, 4e-08, 0))
hIsland = hIsland.sub(rect(4.4832951861554485e-09, -1.2284936307051243e-09).transl(1.2006460279821523e-07, 3.1974129874488776e-08, 0))
hIsland = hIsland.sub(rect(7.351011765787074e-09, -2.849818772718507e-09).transl(-9.785785121968984e-08, 3.8097021919630735e-08, 0))
hIsland = hIsland.sub(rect(6.0616507907895295e-09, -1.3792631035166326e-10).transl(-7.908408410720062e-08, 3.994065021717098e-08, 0))
hIsland = hIsland.add(rect(6.866146376623605e-09, 2.142802785477144e-09).transl(-7.249429975061087e-08, 4e-08, 0))
hIsland = hIsland.sub(rect(6.726511459626003e-09, -4.88719217384108e-10).transl(-4.9947799087227774e-08, 4e-08, 0))
hIsland = hIsland.add(rect(3.9557942879709085e-09, 7.955414839602196e-10).transl(4.914712826327957e-08, 4e-08, 0))
hIsland = hIsland.sub(rect(6.140632667855392e-09, -1.0213063029418738e-09).transl(1.2597150790448766e-07, 2.9342570094533392e-08, 0))
hIsland = hIsland.add(rect(7.566017960548706e-09, 2.5508964028636948e-09).transl(5.4550685128439065e-09, 4e-08, 0))
hIsland = hIsland.add(rect(6.40547399110116e-09, 2.0125731747108904e-09).transl(-6.17724982460057e-08, 4e-08, 0))
hIsland = hIsland.sub(rect(4.657332500954347e-09, -1.623894537384409e-09).transl(5.5865611156892787e-08, 4e-08, 0))
hIsland = hIsland.add(rect(5.60738762497635e-09, 1.3848418461916074e-09).transl(1.346774590570508e-07, 2.4227666127945345e-08, 0))
hIsland = hIsland.sub(rect(5.984172218001713e-09, -2.829268309867658e-10).transl(7.703149344526906e-08, 3.9985323652028854e-08, 0))
hIsland = hIsland.sub(rect(4.300766140930703e-09, -3.1764308880661154e-09).transl(-1.2638602392775898e-07, 2.9136193518892545e-08, 0))
hIsland = hIsland.add(rect(4.284756893943887e-09, 1.7528123536348243e-09).transl(-1.3511408897294374e-07, 2.3918655075994777e-08, 0))
hIsland = hIsland.add(rect(2.8323643038128213e-09, 2.019510241802849e-09).transl(3.1453734500076446e-08, 4e-08, 0))
hIsland = hIsland.sub(rect(2.967535607049306e-09, -7.26861731625317e-10).transl(8.059927099756028e-08, 3.988837104358648e-08, 0))
hIsland = hIsland.sub(rect(2.508879751565809e-09, -1.3128624458896e-10).transl(-3.343402202521909e-08, 4e-08, 0))
hIsland = hIsland.sub(rect(2.197031510874192e-09, -5.659988666938883e-09).transl(-6.032700040068938e-08, 4e-08, 0))
hIsland = hIsland.add(rect(3.962472257929867e-09, 4.070002105663036e-09).transl(-6.015539757426749e-09, 4e-08, 0))
hIsland = hIsland.sub(rect(7.878440842133446e-09, -1.7926148790590102e-09).transl(5.141180145415183e-08, 4e-08, 0))
hIsland = hIsland.sub(rect(4.477218490972864e-09, -3.3778612113238918e-09).transl(-1.0313812925518932e-07, 3.707815910863421e-08, 0))
hIsland = hIsland.sub(rect(7.661980226124976e-09, -1.4603654638384035e-10).transl(-1.4909667369832115e-07, 6.189492385594435e-09, 0))
hIsland = hIsland.sub(rect(6.909025379292019e-09, -1.0318389522396783e-10).transl(7.634341275074833e-08, 3.999358256851784e-08, 0))
hIsland = hIsland.sub(rect(6.095642500174598e-09, -7.505819848188697e-10).transl(-8.132297865262567e-08, 3.985759518983888e-08, 0))
hIsland = hIsland.add(rect(2.1094627823975857e-09, 2.6407637361216156e-09).transl(4.8336299528877356e-08, 4e-08, 0))
hIsland = hIsland.add(rect(8.846090498934624e-09, 1.4580598305173259e-09).transl(6.43734877905515e-09, 4e-08, 0))
hIsland = hIsland.add(rect(9.619471322253696e-09, 4.0000570953326344e-11).transl(1.206555198218723e-07, 3.173478320405308e-08, 0))
hIsland = hIsland.add(rect(4.958954205053696e-09, 1.3653596380177717e-09).transl(-2.8861501758888e-08, 4e-08, 0))
hIsland = hIsland.add(rect(9.796815537090644e-09, 1.72663561711749e-09).transl(6.474843529151611e-08, 4e-08, 0))
hIsland = hIsland.add(rect(9.958604001088407e-09, 9.770587250780575e-10).transl(3.7406895447132786e-08, 4e-08, 0))
hIsland = hIsland.sub(rect(2.3410748195494178e-09, -2.6688259918183356e-09).transl(1.242415063853302e-07, 3.01711811818882e-08, 0))
hIsland = hIsland.add(rect(3.78584582055638e-09, 4.886578393649246e-09).transl(-8.987963977448269e-08, 3.9204884304077584e-08, 0))
hIsland = hIsland.add(rect(6.365236326113974e-09, 3.15029531515413e-10).transl(1.904253644068446e-08, 4e-08, 0))
hIsland = hIsland.add(rect(6.943605704578077e-09, 2.433684310885752e-09).transl(-3.2650992993630425e-08, 4e-08, 0))
hIsland = hIsland.sub(rect(5.9799976471049106e-09, -1.7867442264734015e-09).transl(-6.48624286761665e-08, 4e-08, 0))
hIsland = hIsland.add(rect(6.222418062726487e-09, 2.5953718142377475e-09).transl(6.130959938063873e-08, 4e-08, 0))
hIsland = hIsland.add(rect(3.5065908233921865e-09, 4.842086002216898e-10).transl(-9.606121494023099e-08, 3.8390462612792494e-08, 0))
hIsland = hIsland.sub(rect(3.754910736036656e-09, -1.4164100925342987e-09).transl(5.9586452264113595e-08, 4e-08, 0))
hIsland = hIsland.sub(rect(8.742179260168071e-09, -1.2593602244130322e-09).transl(3.660404531307879e-09, 4e-08, 0))
hIsland = hIsland.sub(rect(6.0182338935236934e-09, -6.997180153070662e-10).transl(6.243555531821235e-08, 4e-08, 0))
hIsland = hIsland.add(rect(9.254667195629775e-09, 1.146573234449856e-09).transl(1.689281487258357e-08, 4e-08, 0))
hIsland = hIsland.sub(rect(7.469046269398937e-09, -9.452030068268686e-10).transl(-5.96827765137566e-08, 4e-08, 0))
hIsland = hIsland.add(rect(9.068898316533081e-09, 1.6496419404924953e-10).transl(-1.1491543031545738e-07, 3.386460223726503e-08, 0))
hIsland = hIsland.add(rect(2.6571012439263894e-09, 2.379729860094489e-09).transl(4.606713673101678e-08, 4e-08, 0))
hIsland = hIsland.sub(rect(7.019107546906213e-09, -6.009029905923916e-09).transl(1.0147753318502408e-07, 3.7424423108855934e-08, 0))
hIsland = hIsland.sub(rect(5.347226852390044e-09, -1.6906509640577588e-09).transl(-6.394969804950273e-08, 4e-08, 0))
hIsland = hIsland.add(rect(4.008643818755498e-09, 1.0104974313597674e-09).transl(-2.5952164244382193e-08, 4e-08, 0))
hIsland = hIsland.add(rect(2.2782504769921427e-09, 1.7034682428190987e-09).transl(2.5903013201710796e-08, 4e-08, 0))
hIsland = hIsland.add(rect(4.334192559417819e-09, 3.2320751315687537e-09).transl(-1.0028445166702464e-07, 3.7658381168338154e-08, 0))
hIsland = hIsland.sub(rect(7.012535388931496e-09, -2.027895923902141e-10).transl(7.375112363794671e-08, 4e-08, 0))
hIsland = hIsland.add(rect(7.725680879190452e-09, 2.319971190381324e-09).transl(1.033102728176309e-07, 3.704086757991886e-08, 0))
hIsland = hIsland.add(rect(8.709968881036803e-09, 3.667422349785724e-09).transl(-3.257225025437138e-08, 4e-08, 0))
hIsland = hIsland.sub(rect(5.39405675012229e-09, -2.0850851681673368e-09).transl(6.098098877310671e-08, 4e-08, 0))
hIsland = hIsland.add(rect(7.442607390963689e-09, 1.6313739487362251e-09).transl(-1.305552700634631e-07, 2.6871808107154795e-08, 0))
hIsland = hIsland.sub(rect(6.209793978252941e-09, -2.473757749098476e-09).transl(-1.199512084371708e-07, 3.201950010314435e-08, 0))
hIsland = hIsland.sub(rect(3.3569761151168445e-09, -3.915578149178445e-09).transl(8.849416482366544e-08, 3.934723375879326e-08, 0))
hIsland = hIsland.sub(rect(2.348045966704694e-09, -2.6488012980046937e-09).transl(1.6891095801255967e-08, 4e-08, 0))
hIsland = hIsland.sub(rect(9.625467115139647e-09, -1.6684507029958767e-11).transl(-6.276152858768845e-08, 4e-08, 0))
hIsland = hIsland.add(rect(5.9306190068075265e-09, 7.444791353142166e-10).transl(1.1648611292336963e-07, 3.3323315548566705e-08, 0))
hIsland = hIsland.add(rect(2.5873931381224766e-09, 1.985672670791809e-09).transl(-5.116021191028286e-08, 4e-08, 0))
hIsland = hIsland.sub(rect(5.844574702833831e-09, -2.677707870281003e-09).transl(-5.598183071725536e-08, 4e-08, 0))
hIsland = hIsland.add(rect(3.6971148136611795e-09, 5.7325667061973584e-11).transl(-3.221209592525297e-08, 4e-08, 0))
hIsland = hIsland.sub(rect(7.267864433749365e-09, -2.177279705677109e-09).transl(7.356123120978901e-08, 4e-08, 0))
hIsland = hIsland.add(rect(9.047559545321988e-09, 3.994478186479038e-09).transl(8.756469090955681e-08, 3.943468449137565e-08, 0))
hIsland = hIsland.add(rect(4.062650157977209e-09, 2.164641320969516e-09).transl(4.0301814451000866e-08, 4e-08, 0))
hIsland = hIsland.add(rect(9.8689645659541e-09, 1.603168097792648e-09).transl(-1.0017298779719968e-07, 3.767961570122323e-08, 0))
hIsland = hIsland.add(rect(4.204285106726708e-09, 7.925887700623848e-10).transl(-1.4502038241190873e-07, 1.4332146772741219e-08, 0))
hIsland = hIsland.sub(rect(7.258943503393554e-09, -3.240760155877359e-09).transl(-2.7292572256765717e-08, 4e-08, 0))
hIsland = hIsland.add(rect(8.682231433683606e-09, 1.00352366104486e-09).transl(4.838597359103066e-08, 4e-08, 0))
hIsland = hIsland.sub(rect(2.771563044388866e-09, -8.382206022314957e-10).transl(-1.0697516747627198e-08, 4e-08, 0))
hIsland = hIsland.add(rect(9.813029574162968e-09, 8.206091711029778e-10).transl(1.13278211111195e-07, 3.43980508145521e-08, 0))
hIsland = hIsland.add(rect(6.278922920066134e-09, 1.0239561397458192e-09).transl(2.4419070913730933e-08, 4e-08, 0))
hIsland = hIsland.add(rect(8.391093047722694e-09, 3.585539280265909e-10).transl(-7.934589697204407e-08, 3.993279039633893e-08, 0))
hIsland = hIsland.add(rect(4.954064190178476e-09, 1.1149906232440706e-10).transl(1.039952386813585e-08, 4e-08, 0))
hIsland = hIsland.sub(rect(5.275246639634072e-09, -5.836239347228046e-10).transl(-1.3993369346873902e-07, 2.0016813927907027e-08, 0))
hIsland = hIsland.sub(rect(5.312506087984052e-09, -4.639008890443456e-10).transl(2.342404082433352e-08, 4e-08, 0))
hIsland = hIsland.sub(rect(5.218070666614954e-09, -2.246169028218599e-09).transl(6.042744437833681e-09, 4e-08, 0))
hIsland = hIsland.add(rect(9.982840303882218e-09, 1.6408916518336018e-09).transl(5.557633637590758e-09, 4e-08, 0))
hIsland = hIsland.add(rect(3.607038823610979e-09, 3.671121688595872e-10).transl(5.946509265688546e-09, 4e-08, 0))
hIsland = hIsland.add(rect(3.3731192763244764e-09, 1.6885262676355616e-09).transl(-9.292617589657897e-08, 3.88406283239253e-08, 0))
hIsland = hIsland.sub(rect(7.921861809416818e-09, -9.674792017595068e-10).transl(1.1386017155645946e-07, 3.421193893381942e-08, 0))
hIsland = hIsland.add(rect(2.983549954393073e-09, 1.0834112162197361e-12).transl(1.336395249247026e-07, 2.49381449423909e-08, 0))
hIsland = hIsland.sub(rect(4.280366554106509e-09, -6.99854061575254e-10).transl(9.538409458944038e-08, 3.849428679209422e-08, 0))
hIsland = hIsland.sub(rect(3.942160912700337e-09, -3.90728322891461e-09).transl(1.3991248883267226e-08, 4e-08, 0))
hIsland = hIsland.add(rect(7.464149890675057e-09, 1.1657671739836226e-09).transl(1.1228021734049786e-08, 4e-08, 0))
hIsland = hIsland.add(rect(9.53509685934374e-09, 2.0192936849827195e-09).transl(-5.822792355754551e-08, 4e-08, 0))
hIsland = hIsland.sub(rect(9.101642857243497e-09, -7.123182897253252e-10).transl(5.819448543149752e-08, 4e-08, 0))
hIsland = hIsland.add(rect(3.3664754406009712e-09, 4.771905190644918e-10).transl(-8.94828530862074e-08, 3.924712619938962e-08, 0))
hIsland = hIsland.add(rect(5.054574703478024e-09, 1.0828367402008137e-09).transl(1.1921882350384661e-07, 3.230827355117038e-08, 0))
hIsland = hIsland.add(rect(8.834625573359428e-09, 2.3106473122550886e-09).transl(-9.526826248072053e-08, 3.85116803236979e-08, 0))
hIsland = hIsland.add(rect(9.421465682689317e-09, 9.262785134968936e-10).transl(-1.3934902449359484e-07, 2.054685647654648e-08, 0))
hIsland = hIsland.add(rect(7.439052696626544e-09, 1.0897186740512168e-09).transl(7.538971421909284e-08, 3.999945998863018e-08, 0))
hIsland = hIsland.sub(rect(2.780227592297978e-09, -3.1124070949962367e-09).transl(5.801298277075405e-08, 4e-08, 0))
hIsland = hIsland.add(rect(2.193127130806815e-09, 2.5190281388538897e-10).transl(-5.819994920587086e-08, 4e-08, 0))
hIsland = hIsland.sub(rect(6.440026903853771e-09, -1.1225821600323293e-09).transl(-3.1235789720658455e-08, 4e-08, 0))
hIsland = hIsland.sub(rect(7.464022863544005e-09, -2.014938705621542e-09).transl(-1.3998459202668656e-07, 1.9969774843665548e-08, 0))
hIsland = hIsland.sub(rect(9.79267915676381e-09, -2.939759128712677e-10).transl(8.216778078935887e-08, 3.981690689407452e-08, 0))
hIsland = hIsland.sub(rect(7.004742891272234e-09, -1.1320376358373837e-09).transl(1.3718935524174023e-07, 2.2358590897307847e-08, 0))
hIsland = hIsland.add(rect(6.297481894731645e-09, 3.574508408762198e-09).transl(1.1907139156089231e-07, 3.2365523257300045e-08, 0))
hIsland = hIsland.add(rect(6.437691465695441e-09, 4.0023055206328535e-10).transl(3.7111267895812684e-08, 4e-08, 0))
hIsland = hIsland.sub(rect(8.388950387287062e-09, -3.6632267575901425e-09).transl(5.996148463699374e-08, 4e-08, 0))
hIsland = hIsland.sub(rect(5.096746286237728e-09, -9.522199781146589e-10).transl(-1.084479664376693e-07, 3.5801858836646463e-08, 0))
hIsland = hIsland.add(rect(3.905296515245323e-09, 8.870525506067183e-10).transl(4.768970246037067e-08, 4e-08, 0))
hIsland = hIsland.sub(rect(2.4983924984699872e-09, -2.056314255473072e-09).transl(1.2899053750407895e-07, 2.776419749255996e-08, 0))
hIsland = hIsland.add(rect(5.569679200272299e-09, 7.852847736647466e-10).transl(1.6070393358611946e-08, 4e-08, 0))
hIsland = hIsland.add(rect(7.094377619387203e-09, 1.9058245818609224e-09).transl(-3.4983522567124945e-08, 4e-08, 0))
hIsland = hIsland.sub(rect(4.326080547642299e-09, -2.225261002648358e-09).transl(-1.4599569828049175e-07, 1.2895320915843767e-08, 0))
hIsland = hIsland.sub(rect(9.921911070273184e-09, -3.423138835255622e-11).transl(1.0531174041137676e-07, 3.6587593353602615e-08, 0))
hIsland = hIsland.sub(rect(3.738879419110923e-09, -1.544288610266267e-09).transl(-1.2030536066189354e-07, 3.187720571184425e-08, 0))
hIsland = hIsland.add(rect(6.408297539063706e-09, 2.1448427144838153e-09).transl(2.6802440120671608e-08, 4e-08, 0))
hIsland = hIsland.add(rect(7.528923693196932e-09, 1.983452137245649e-09).transl(1.4690006008372265e-07, 1.1381155387013477e-08, 0))
hIsland = hIsland.add(rect(7.954362053536834e-09, 1.6752423244872055e-09).transl(-2.4507027413238458e-08, 4e-08, 0))
hIsland = hIsland.add(rect(4.477211449368856e-09, 3.0982139301905937e-10).transl(-5.4969310463692736e-08, 4e-08, 0))
hIsland = hIsland.add(rect(5.50492938826328e-09, 9.14235572385238e-10).transl(9.572861365038757e-08, 3.844191999324059e-08, 0))
hIsland = hIsland.add(rect(5.878436548747734e-09, 2.3308869158860387e-09).transl(7.306841685319514e-09, 4e-08, 0))
hIsland = hIsland.add(rect(2.632395170815949e-09, 1.4380037871528043e-09).transl(-1.234550105767675e-07, 3.0531234629499057e-08, 0))
hIsland = hIsland.add(rect(7.2855514673380654e-09, 8.280958186221545e-10).transl(-9.366096602275468e-08, 3.874206294135878e-08, 0))
hIsland = hIsland.add(rect(2.1765459074454327e-09, 1.6517814727591155e-09).transl(2.062988626902169e-08, 4e-08, 0))
hIsland = hIsland.add(rect(2.858288825516254e-09, 9.820569205564266e-10).transl(-4.3587453076780037e-08, 4e-08, 0))
hIsland = hIsland.sub(rect(6.7068921998931536e-09, -8.125884110505977e-10).transl(1.2036295214236886e-07, 3.185390013919215e-08, 0))
hIsland = hIsland.sub(rect(8.763057412459496e-09, -2.5569975264322477e-09).transl(1.2655462891438211e-08, 4e-08, 0))
hIsland = hIsland.sub(rect(3.176579336816649e-09, -1.9124649445552517e-09).transl(-1.4800643643911615e-07, 9.161236030512953e-09, 0))
hIsland = hIsland.add(rect(6.427230387425615e-09, 9.928564611307838e-10).transl(2.1145376038414753e-08, 4e-08, 0))
hIsland = hIsland.sub(rect(8.018718615395949e-09, -1.0586515415512109e-09).transl(1.2195457942048972e-07, 3.1190961523597766e-08, 0))
hIsland = hIsland.sub(rect(3.2647288893977538e-09, -1.5191011457797057e-09).transl(1.1790455284883547e-07, 3.280845135495528e-08, 0))
hIsland = hIsland.sub(rect(2.0334862461449204e-09, -4.676439144559622e-10).transl(-7.835078332044112e-08, 3.996005917429303e-08, 0))
hIsland = hIsland.add(rect(9.213123189483835e-09, 1.2781868013357202e-09).transl(1.212892563803741e-07, 3.1472563261081716e-08, 0))
hIsland = hIsland.add(rect(5.068638607983562e-09, 4.143884724236151e-09).transl(-1.3641756575911525e-07, 2.2957398946588428e-08, 0))
hIsland = hIsland.sub(rect(9.85894024384977e-09, -2.4388943260279785e-10).transl(-6.353913642472838e-08, 4e-08, 0))
hIsland = hIsland.add(rect(7.76035473428724e-09, 2.8382212262648172e-11).transl(-4.885201233930472e-08, 4e-08, 0))
hIsland = hIsland.add(rect(2.010441458782702e-09, 6.758605994167977e-10).transl(7.509453366973264e-08, 3.999996822535729e-08, 0))
hIsland = hIsland.sub(rect(6.644197368975895e-09, -2.5334630382675616e-09).transl(-8.796693912389628e-08, 3.939762786680091e-08, 0))
hIsland = hIsland.add(rect(9.84054488470816e-09, 4.5028070989618064e-10).transl(-2.6060519998202666e-08, 4e-08, 0))
hIsland = hIsland.add(rect(2.466042484732702e-09, 1.4679711629416106e-09).transl(4.8181529289663576e-08, 4e-08, 0))
hIsland = hIsland.add(rect(2.6096676107443005e-09, 5.342272568120958e-10).transl(8.678898231169302e-08, 3.950275789795463e-08, 0))
hIsland = hIsland.sub(rect(2.174166007208526e-09, -6.579537555991934e-10).transl(-8.47337820734844e-08, 3.9661692861216913e-08, 0))
hIsland = hIsland.sub(rect(9.597920113783215e-09, -2.7012729543439785e-10).transl(1.0112499420244154e-07, 3.7494830422163734e-08, 0))
hIsland = hIsland.sub(rect(2.897164850693362e-09, -3.8946338076143054e-10).transl(1.4582918150336272e-07, 1.3153205109034918e-08, 0))
hIsland = hIsland.add(rect(3.0695146336943328e-09, 2.5843150359082447e-09).transl(-6.37889737949102e-08, 4e-08, 0))
vIsland = hIsland.rotz(pi / 2)
hIslands = hIslands.add(hIsland.transl(-a/2, a, 0))
hIsland = rect(islandLength-2*ellipseConstant, islandWidth)
hIsland = hIsland.add(ellipse(ellipseConstant*2, islandWidth).transl(islandLength/2-ellipseConstant, 0, 0))
hIsland = hIsland.add(ellipse(ellipseConstant*2, islandWidth).transl(-islandLength/2+ellipseConstant, 0, 0))
hIsland = hIsland.sub(rect(6.637560334821928e-09, -2.1741032740514677e-10).transl(5.3638153186706965e-08, -4e-08, 0))
hIsland = hIsland.add(rect(5.724590806675842e-09, 5.625919091812344e-10).transl(1.0027742627349312e-07, -3.765972267220952e-08, 0))
hIsland = hIsland.add(rect(8.425215612868297e-09, 1.0226460753986506e-09).transl(-1.4161317020202474e-07, -1.8380167519573855e-08, 0))
hIsland = hIsland.sub(rect(2.628646321231565e-09, -9.36193595275566e-12).transl(-1.692011250642732e-08, -4e-08, 0))
hIsland = hIsland.add(rect(5.940227030786712e-09, 3.8837358448364655e-11).transl(1.0805620471065556e-07, -3.5905207862935924e-08, 0))
hIsland = hIsland.add(rect(9.712408348446285e-09, 3.0970143298004306e-09).transl(-5.402530285391577e-08, -4e-08, 0))
hIsland = hIsland.sub(rect(4.11965146451987e-09, -5.313642288922403e-10).transl(-5.022385334138801e-08, -4e-08, 0))
hIsland = hIsland.add(rect(5.7300498982303505e-09, 1.0577168128729966e-09).transl(3.683107877722773e-08, -4e-08, 0))
hIsland = hIsland.sub(rect(4.134145837769503e-09, -2.0365357220894686e-09).transl(-1.3486948752662527e-07, -2.409252956150081e-08, 0))
hIsland = hIsland.add(rect(9.88718718531185e-09, 4.111758308347211e-09).transl(8.933591218662597e-08, -3.926246858111872e-08, 0))
hIsland = hIsland.sub(rect(5.937912219358053e-09, -1.0158277045528165e-09).transl(-7.782778143896234e-08, -3.997155842938223e-08, 0))
hIsland = hIsland.sub(rect(9.654121263385051e-09, -1.7736956804727891e-09).transl(-8.068669129324068e-08, -3.988485308132034e-08, 0))
hIsland = hIsland.sub(rect(5.611243992198235e-09, -5.657577474107014e-10).transl(-9.6669466739629e-08, -3.829405463097878e-08, 0))
hIsland = hIsland.add(rect(8.419993117089526e-09, 1.75300322884361e-09).transl(-1.1807714120896966e-07, -3.274406028829584e-08, 0))
hIsland = hIsland.sub(rect(7.892400420821583e-09, -1.479799671905529e-09).transl(7.97392976590763e-08, -3.992005898975352e-08, 0))
hIsland = hIsland.add(rect(5.509457534167877e-09, 2.861404760981239e-10).transl(-8.413705411492149e-08, -3.970205208771197e-08, 0))
hIsland = hIsland.add(rect(2.5062948229502517e-09, 1.2989514350595361e-09).transl(-1.0853951953186405e-09, -4e-08, 0))
hIsland = hIsland.add(rect(5.525294208535847e-09, 2.2873862832829163e-09).transl(-8.878771354028826e-08, -3.931827582639916e-08, 0))
hIsland = hIsland.add(rect(6.496945390738086e-09, 2.441678662436854e-10).transl(-3.6953178236463935e-08, -4e-08, 0))
hIsland = hIsland.add(rect(7.955883272043062e-09, 2.2554027328824443e-09).transl(-8.492816036170479e-08, -3.964798576569478e-08, 0))
hIsland = hIsland.sub(rect(9.527982244257824e-09, -2.820995910549172e-09).transl(1.251344904154745e-07, -2.9749928383104438e-08, 0))
hIsland = hIsland.sub(rect(4.6173997028882336e-09, -4.104582466648644e-09).transl(1.1523836924329174e-07, -3.37557180671162e-08, 0))
hIsland = hIsland.sub(rect(2.3170458583145353e-09, -1.0937004173303172e-09).transl(6.596858157403279e-08, -4e-08, 0))
hIsland = hIsland.sub(rect(7.378847398398084e-09, -1.810128868145904e-09).transl(1.3688610101604415e-07, -2.2596663673702592e-08, 0))
hIsland = hIsland.add(rect(7.77897124265502e-09, 4.494573082713772e-09).transl(8.676397507707061e-08, -3.950487840393656e-08, 0))
hIsland = hIsland.add(rect(9.996052015803877e-09, 1.3161093801859537e-10).transl(-4.198315850308559e-08, -4e-08, 0))
hIsland = hIsland.add(rect(7.026092444918979e-09, 7.657537242454483e-10).transl(-9.360787901832721e-08, -3.874932530796806e-08, 0))
hIsland = hIsland.sub(rect(3.1319480212131596e-09, -1.2236345569456834e-09).transl(8.767604726676703e-08, -3.9424546264940866e-08, 0))
hIsland = hIsland.add(rect(5.043592265585487e-09, 2.656825407610252e-09).transl(-6.099302721709751e-08, -4e-08, 0))
hIsland = hIsland.add(rect(5.270226469971748e-09, 1.4086782130464483e-09).transl(5.279226182233784e-08, -4e-08, 0))
hIsland = hIsland.sub(rect(7.183315649962298e-09, -7.065242462148326e-10).transl(-9.412494041074118e-08, -3.867765050168024e-08, 0))
hIsland = hIsland.add(rect(2.613135059871736e-09, 1.2011793815026415e-09).transl(-3.744807535569448e-08, -4e-08, 0))
hIsland = hIsland.sub(rect(9.590591601472464e-09, -1.8333634911562248e-09).transl(-1.3147936055481954e-07, -2.631815910519212e-08, 0))
hIsland = hIsland.add(rect(2.8495839114147314e-09, 2.698394613364449e-09).transl(3.095462549188317e-08, -4e-08, 0))
hIsland = hIsland.add(rect(6.61163807074861e-09, 2.958888311760774e-10).transl(1.3485035466095363e-07, -2.4106047466726532e-08, 0))
hIsland = hIsland.add(rect(8.641312652694156e-09, 1.7580655715899297e-09).transl(-1.4476921481480594e-07, -1.4676425011869253e-08, 0))
hIsland = hIsland.add(rect(6.1906029641037825e-09, 3.1540161820130464e-09).transl(1.78888310810501e-08, -4e-08, 0))
hIsland = hIsland.add(rect(4.328323158286315e-09, 2.4213709092712835e-10).transl(-7.127432109393243e-08, -4e-08, 0))
hIsland = hIsland.add(rect(8.396143042398458e-09, 3.1871752608460754e-10).transl(-1.6424670942744107e-08, -4e-08, 0))
hIsland = hIsland.add(rect(6.732737999266714e-09, 4.0252853012071845e-09).transl(1.2290412292114554e-07, -3.0777515635640384e-08, 0))
hIsland = hIsland.sub(rect(2.4732155825187352e-09, -1.1722964851337383e-09).transl(7.903995543841342e-08, -3.994192676838938e-08, 0))
hIsland = hIsland.add(rect(2.3330809300013646e-09, 2.517489703603449e-10).transl(7.857084305897669e-08, -3.995463767325708e-08, 0))
hIsland = hIsland.sub(rect(8.345352634714854e-09, -9.082704667946346e-10).transl(1.3771192141340686e-07, -2.193948793172062e-08, 0))
hIsland = hIsland.sub(rect(6.419439452849987e-09, -3.837278546746921e-09).transl(5.500421821989283e-08, -4e-08, 0))
hIsland = hIsland.add(rect(4.387938227845885e-09, 4.681879294738087e-09).transl(-3.889441297183174e-08, -4e-08, 0))
hIsland = hIsland.sub(rect(5.0268748342717164e-09, -5.700941048701814e-11).transl(-6.691726846011038e-08, -4e-08, 0))
hIsland = hIsland.sub(rect(5.748813922771711e-09, -1.6417287752222555e-09).transl(1.1300263993444239e-07, -3.448485393217917e-08, 0))
hIsland = hIsland.add(rect(2.5089324336941152e-09, 1.5704331728726012e-09).transl(9.694614148804507e-08, -3.8249210880594895e-08, 0))
hIsland = hIsland.add(rect(5.205666950734182e-09, 2.986382151110048e-09).transl(2.341577640505609e-08, -4e-08, 0))
hIsland = hIsland.sub(rect(4.595331402988678e-09, -1.1170593200188636e-09).transl(1.2421769897121292e-07, -3.0182228686626564e-08, 0))
hIsland = hIsland.add(rect(9.807307210404218e-09, 3.4059460179596966e-10).transl(1.4776100873245175e-07, -9.700739703092363e-09, 0))
hIsland = hIsland.sub(rect(6.9624009979711635e-09, -1.0707524175066112e-09).transl(1.2696927732224175e-07, -2.8840436869449008e-08, 0))
hIsland = hIsland.sub(rect(5.764065119950016e-09, -3.5844397281898525e-09).transl(-1.414866994491951e-08, -4e-08, 0))
hIsland = hIsland.add(rect(7.797160208144554e-09, 1.674836768706138e-09).transl(-6.666710858614939e-08, -4e-08, 0))
hIsland = hIsland.sub(rect(7.1383360517258465e-09, -1.4865771392425645e-09).transl(5.750809805910572e-08, -4e-08, 0))
hIsland = hIsland.sub(rect(5.718889407586538e-09, -3.8184053195256514e-10).transl(-1.4151564173739668e-07, -1.848036097203814e-08, 0))
hIsland = hIsland.sub(rect(4.04970602045076e-09, -4.4903785292729753e-11).transl(-5.3724814699812586e-08, -4e-08, 0))
hIsland = hIsland.sub(rect(5.792084483143296e-09, -1.3335167248974548e-09).transl(-7.988502188352773e-08, -3.99150620368712e-08, 0))
hIsland = hIsland.add(rect(7.398190743806834e-09, 8.862336882302218e-10).transl(1.8738259714398737e-08, -4e-08, 0))
hIsland = hIsland.add(rect(6.6110625771431606e-09, 1.2778931016334807e-09).transl(1.4393749993472077e-07, -1.5754752450683866e-08, 0))
hIsland = hIsland.sub(rect(9.845236255600037e-09, -2.6192245977558303e-09).transl(-6.483084328444227e-08, -4e-08, 0))
hIsland = hIsland.sub(rect(4.364163716967362e-09, -4.5184979133476025e-09).transl(3.385323807745565e-08, -4e-08, 0))
hIsland = hIsland.sub(rect(5.204596736213654e-09, -2.355717034837507e-09).transl(-9.150044885384242e-08, -3.901994088541514e-08, 0))
hIsland = hIsland.add(rect(8.008233995433579e-09, 9.950620324198441e-10).transl(-2.4848670876087164e-08, -4e-08, 0))
hIsland = hIsland.add(rect(8.382888961366854e-09, 1.1857693733748638e-09).transl(-1.449018197962942e-07, -1.4495835065693185e-08, 0))
hIsland = hIsland.sub(rect(2.099620885430257e-09, -2.624930940236403e-09).transl(1.4421357080141096e-07, -1.540661091620619e-08, 0))
hIsland = hIsland.add(rect(5.878852374987187e-09, 2.4944063367974657e-09).transl(-6.869879390598225e-08, -4e-08, 0))
hIsland = hIsland.add(rect(2.900539658529881e-09, 4.3352332057915156e-10).transl(1.470680594735977e-07, -1.1074789676947309e-08, 0))
hIsland = hIsland.add(rect(4.781109099327745e-09, 1.9699840345815596e-10).transl(-4.545401394299001e-08, -4e-08, 0))
hIsland = hIsland.sub(rect(5.520364699821394e-09, -6.32752492044746e-10).transl(1.0391780582224225e-07, -3.6907131043040324e-08, 0))
hIsland = hIsland.add(rect(3.0632285125841765e-09, 4.781421051445153e-09).transl(-5.303099682844045e-08, -4e-08, 0))
hIsland = hIsland.sub(rect(3.6511808015109947e-09, -2.4406229720620546e-09).transl(1.4359674304620324e-08, -4e-08, 0))
hIsland = hIsland.sub(rect(8.67952061917412e-09, -2.712706641335188e-09).transl(8.495018453463985e-08, -3.964641527718648e-08, 0))
hIsland = hIsland.sub(rect(6.282079374710293e-09, -2.6901319358481427e-09).transl(1.2785156349850547e-07, -2.838071200178511e-08, 0))
hIsland = hIsland.sub(rect(6.895542806766212e-09, -1.1489545130686917e-09).transl(1.0034963408835405e-07, -3.764591447814401e-08, 0))
hIsland = hIsland.add(rect(5.025483281244713e-09, 2.1564285188985327e-09).transl(3.00703396496381e-08, -4e-08, 0))
hIsland = hIsland.add(rect(7.097510556840804e-09, 2.1801846794550753e-09).transl(-3.2393044984170776e-08, -4e-08, 0))
hIsland = hIsland.add(rect(7.135426554434345e-09, 5.13001935738268e-09).transl(1.1436773772718637e-07, -3.404647793692107e-08, 0))
hIsland = hIsland.sub(rect(3.0661385382631937e-09, -4.736883852968377e-10).transl(-1.4456923665961098e-07, -1.4944008666179185e-08, 0))
hIsland = hIsland.sub(rect(3.517859257644002e-09, -1.6935259122465707e-09).transl(-1.3674173568077432e-07, -2.2708717543712465e-08, 0))
hIsland = hIsland.add(rect(4.122730860477732e-09, 2.5421086251302097e-10).transl(-1.4433279294014065e-07, -1.5253368980094348e-08, 0))
hIsland = hIsland.sub(rect(2.3568164790654507e-09, -2.175651455344454e-09).transl(3.805540160312976e-08, -4e-08, 0))
hIsland = hIsland.sub(rect(5.2674878989906206e-09, -1.1237219247216744e-10).transl(-4.046913637361764e-08, -4e-08, 0))
hIsland = hIsland.sub(rect(4.5973088060187594e-09, -2.9134919488033677e-09).transl(-1.4826279482660683e-07, -8.559341934323099e-09, 0))
hIsland = hIsland.sub(rect(8.221943583820224e-09, -4.2093872080881755e-10).transl(4.874893179598711e-08, -4e-08, 0))
hIsland = hIsland.sub(rect(9.294262928321726e-09, -4.0280099856222206e-10).transl(-1.2704744091053217e-07, -2.8800315527479786e-08, 0))
hIsland = hIsland.sub(rect(4.17069193406145e-09, -1.7377876602653335e-09).transl(-6.647050061940078e-08, -4e-08, 0))
hIsland = hIsland.add(rect(4.60474954469241e-09, 8.101338156115103e-10).transl(1.0493723813092371e-07, -3.6675196188396657e-08, 0))
hIsland = hIsland.add(rect(7.663802003965777e-09, 1.259182990783868e-09).transl(-4.6983949285464945e-08, -4e-08, 0))
hIsland = hIsland.sub(rect(9.60594072848942e-09, -1.0072665379569965e-10).transl(-8.722893577648485e-08, -3.946469591394736e-08, 0))
hIsland = hIsland.add(rect(5.917293757632238e-09, 2.783001407158004e-09).transl(-3.637413389872379e-08, -4e-08, 0))
hIsland = hIsland.add(rect(8.545304986832695e-09, 7.605092719242447e-10).transl(4.9862481767038757e-08, -4e-08, 0))
hIsland = hIsland.sub(rect(2.7139615336638497e-09, -3.979737047007009e-09).transl(-1.0579534430985604e-07, -3.6472540246394483e-08, 0))
hIsland = hIsland.add(rect(3.494177690084561e-09, 1.8271707276949534e-09).transl(-3.684663173533922e-08, -4e-08, 0))
hIsland = hIsland.add(rect(2.9344626205901403e-09, 1.426269675613247e-10).transl(-1.35651147839625e-07, -2.352984384016757e-08, 0))
hIsland = hIsland.add(rect(9.779002333680442e-09, 9.72582592817736e-10).transl(2.3159848975512024e-08, -4e-08, 0))
hIsland = hIsland.add(rect(5.543765254080762e-09, 8.960077354998817e-10).transl(7.442720625682324e-08, -4e-08, 0))
hIsland = hIsland.sub(rect(3.791466744751089e-09, -2.1429181947305474e-09).transl(1.4596514845147436e-07, -1.2943063888800462e-08, 0))
hIsland = hIsland.sub(rect(3.920693809431278e-09, -1.490488609589827e-09).transl(2.213633972078821e-08, -4e-08, 0))
hIsland = hIsland.sub(rect(5.240059245766562e-09, -5.172165177994198e-10).transl(-5.39836811381e-08, -4e-08, 0))
hIsland = hIsland.add(rect(9.602955376259565e-09, 1.9149320099901712e-09).transl(-8.085029388718143e-08, -3.987812209619321e-08, 0))
hIsland = hIsland.add(rect(7.959256191364869e-09, 6.602233741883197e-10).transl(-1.4054320036559382e-07, -1.9443558052702178e-08, 0))
hIsland = hIsland.sub(rect(7.325304632823753e-09, -2.836541030855431e-09).transl(-1.363786194622455e-07, -2.2987007409130253e-08, 0))
hIsland = hIsland.sub(rect(2.5644746113927124e-09, -1.3523474283087526e-10).transl(6.916432483234085e-08, -4e-08, 0))
hIsland = hIsland.add(rect(4.606325269606626e-09, 9.821097819562345e-10).transl(-1.4751903640812126e-08, -4e-08, 0))
hIsland = hIsland.sub(rect(5.2931988165649654e-09, -1.675705513420113e-09).transl(-1.2098804459155862e-07, -3.15979172518463e-08, 0))
hIsland = hIsland.sub(rect(4.953730583201588e-09, -8.322409012445677e-10).transl(-8.482624999836228e-08, -3.9655206630378866e-08, 0))
hIsland = hIsland.add(rect(7.332240442786869e-09, 4.055051903597846e-10).transl(-4.964075492936649e-08, -4e-08, 0))
hIsland = hIsland.add(rect(8.347660222501113e-09, 1.9153079178046894e-09).transl(1.3854255332827439e-07, -2.1248791929843196e-08, 0))
hIsland = hIsland.sub(rect(8.244385061202195e-09, -1.3732138174815402e-09).transl(5.0790349845544514e-08, -4e-08, 0))
hIsland = hIsland.add(rect(9.434684828830969e-09, 1.5722269646194437e-10).transl(7.036658134613951e-08, -4e-08, 0))
hIsland = hIsland.add(rect(6.649731050449032e-09, 1.5588858145253012e-09).transl(-1.0288874384509815e-07, -3.713171449921482e-08, 0))
hIsland = hIsland.add(rect(3.2409473719083145e-09, 5.735226046224058e-10).transl(6.576421084492037e-08, -4e-08, 0))
hIsland = hIsland.add(rect(6.057299653991462e-09, 2.1175892378462254e-09).transl(7.973530924888472e-08, -3.992019361811849e-08, 0))
hIsland = hIsland.add(rect(2.1689852651663504e-09, 9.123177060979586e-10).transl(9.206542111915217e-08, -3.895075921266426e-08, 0))
hIsland = hIsland.sub(rect(2.216358880019099e-09, -3.303420629542587e-10).transl(-1.162534084497121e-07, -3.3405388962594266e-08, 0))
hIsland = hIsland.sub(rect(2.6346121483967595e-09, -2.262950427074078e-09).transl(1.2399063978354757e-07, -3.0287122431842296e-08, 0))
hIsland = hIsland.sub(rect(7.503622383296771e-09, -2.1297683585579586e-09).transl(9.688425648153258e-08, -3.8259295246342536e-08, 0))
hIsland = hIsland.sub(rect(4.456574156977507e-09, -2.0264962639085792e-09).transl(-3.0088604963744815e-08, -4e-08, 0))
hIsland = hIsland.add(rect(4.6270291991943915e-09, 2.3764415866437833e-09).transl(4.978183468343266e-09, -4e-08, 0))
hIsland = hIsland.add(rect(2.6208762348259215e-09, 2.9694604448684163e-09).transl(5.504567225836117e-08, -4e-08, 0))
hIsland = hIsland.sub(rect(2.814137664779578e-09, -7.646193149366874e-10).transl(7.25876149372434e-08, -4e-08, 0))
hIsland = hIsland.add(rect(3.0751707073724772e-09, 3.608260157959649e-09).transl(-4.921113845505318e-08, -4e-08, 0))
hIsland = hIsland.sub(rect(8.87016903743837e-09, -1.1866337805226315e-09).transl(-1.3906173086274568e-07, -2.0800647093313115e-08, 0))
hIsland = hIsland.add(rect(6.227708839946671e-09, 1.2400475220627785e-09).transl(1.2819321541511473e-07, -2.8198568707828417e-08, 0))
hIsland = hIsland.sub(rect(3.76514731508408e-09, -2.1633610891089126e-09).transl(-6.063633032630191e-08, -4e-08, 0))
hIsland = hIsland.sub(rect(4.700330866373273e-09, -6.968498005665268e-10).transl(1.393137513457872e-07, -2.057824620766789e-08, 0))
hIsland = hIsland.sub(rect(8.896509304687374e-09, -1.7310712946997295e-09).transl(5.5905235761748696e-08, -4e-08, 0))
hIsland = hIsland.sub(rect(5.175162502460739e-09, -8.656046585667812e-10).transl(9.820545414913495e-08, -3.8037200589532426e-08, 0))
hIsland = hIsland.add(rect(7.771064462269431e-09, 6.423297962948579e-10).transl(-1.6142074126066657e-08, -4e-08, 0))
hIsland = hIsland.sub(rect(4.249797211953258e-09, -8.021468412591845e-10).transl(2.767382946563577e-08, -4e-08, 0))
hIsland = hIsland.add(rect(9.387672783240637e-09, 5.282771998394406e-10).transl(5.1788617210203854e-08, -4e-08, 0))
hIsland = hIsland.sub(rect(8.304557378931399e-09, -1.6241061736017326e-09).transl(-1.4025612734812402e-08, -4e-08, 0))
hIsland = hIsland.sub(rect(7.297133699103906e-09, -2.16511719876417e-09).transl(1.034686371661926e-07, -3.700632670627367e-08, 0))
hIsland = hIsland.sub(rect(9.23266250836456e-09, -1.2540330371598437e-09).transl(-4.964483191933665e-08, -4e-08, 0))
hIsland = hIsland.sub(rect(2.4622141960356654e-09, -3.2450992009356633e-10).transl(-1.0526674687461471e-07, -3.6598186849575066e-08, 0))
hIsland = hIsland.sub(rect(3.475750251079461e-09, -6.0710366475846e-10).transl(1.1556083500514355e-07, -3.3645762122170155e-08, 0))
hIsland = hIsland.sub(rect(9.408573686794359e-09, -1.197630210599618e-09).transl(-1.0464088091090317e-07, -3.67436019189338e-08, 0))
hIsland = hIsland.sub(rect(5.872229585893556e-09, -2.867499451971783e-09).transl(-5.600996800275361e-08, -4e-08, 0))
hIsland = hIsland.add(rect(2.8976779184980457e-09, 9.545667164089563e-11).transl(-3.411994209817614e-08, -4e-08, 0))
hIsland = hIsland.add(rect(6.793920872211961e-09, 3.644198615960975e-10).transl(-7.96998612646317e-08, -3.992138516089205e-08, 0))
hIsland = hIsland.sub(rect(8.836894958668314e-09, -1.6020792759933024e-09).transl(-5.519159534451422e-08, -4e-08, 0))
hIsland = hIsland.add(rect(7.211025219105298e-09, 2.608223699045371e-09).transl(-7.561435845635108e-08, -3.9998657981708174e-08, 0))
hIsland = hIsland.add(rect(9.757933052523902e-09, 1.3044749305693389e-09).transl(4.4663103478384526e-08, -4e-08, 0))
hIsland = hIsland.add(rect(6.693383680014294e-09, 1.8313758424699696e-09).transl(5.427898836502439e-08, -4e-08, 0))
hIsland = hIsland.add(rect(2.524912786398897e-09, 2.6689766140061535e-10).transl(-1.4453968174984442e-07, -1.498308533370479e-08, 0))
hIsland = hIsland.add(rect(3.394346117951066e-09, 2.8821023689791787e-09).transl(2.821697325278121e-08, -4e-08, 0))
hIsland = hIsland.add(rect(6.862046922832765e-09, 2.6595188056523727e-10).transl(-1.096493304649008e-08, -4e-08, 0))
hIsland = hIsland.sub(rect(2.3439152812572765e-09, -1.614700605388632e-09).transl(-2.805081331647086e-08, -4e-08, 0))
hIsland = hIsland.sub(rect(8.048676852321476e-09, -2.5823499861054174e-09).transl(-1.1464259153067567e-07, -3.3955641387018e-08, 0))
hIsland = hIsland.add(rect(7.70672645357475e-09, 6.570100806795357e-10).transl(-2.0720191659388833e-08, -4e-08, 0))
hIsland = hIsland.add(rect(9.457982756666875e-09, 7.293970576719966e-10).transl(-7.918129715302817e-08, -3.9937788970322724e-08, 0))
hIsland = hIsland.sub(rect(2.1542501205187367e-09, -2.2592694133301554e-09).transl(-5.890402715730682e-08, -4e-08, 0))
hIsland = hIsland.add(rect(2.2946413866815582e-09, 5.923324910384834e-10).transl(-9.051958412861207e-08, -3.913424874241065e-08, 0))
hIsland = hIsland.add(rect(8.230952878422485e-09, 2.8987932119037174e-09).transl(-1.1424445579154482e-07, -3.40869380089618e-08, 0))
hIsland = hIsland.sub(rect(4.167073993143998e-09, -4.845126051025872e-09).transl(3.771712120866562e-08, -4e-08, 0))
hIsland = hIsland.add(rect(2.8451780885538532e-09, 1.6537500258177568e-09).transl(1.1409864887262768e-07, -3.413456521249966e-08, 0))
hIsland = hIsland.sub(rect(5.439571437101291e-09, -2.6612986837158788e-09).transl(-4.6713694666931395e-08, -4e-08, 0))
hIsland = hIsland.add(rect(4.527750833371476e-09, 9.3982943586242e-10).transl(-1.322365204124719e-08, -4e-08, 0))
hIsland = hIsland.add(rect(6.6815406509852026e-09, 5.957237339482209e-10).transl(2.1194101171525992e-08, -4e-08, 0))
hIsland = hIsland.add(rect(9.364776039086198e-09, 3.4671969034344196e-09).transl(-2.5551619292458702e-08, -4e-08, 0))
hIsland = hIsland.sub(rect(2.3380091789783707e-09, -7.546385391098865e-11).transl(-8.084139535042955e-09, -4e-08, 0))
hIsland = hIsland.sub(rect(4.791477112726304e-09, -3.528603698633724e-09).transl(-1.4079670408027297e-07, -1.9198472029370992e-08, 0))
hIsland = hIsland.add(rect(2.9629465473875698e-09, 2.117635384801325e-09).transl(-3.868994315230489e-08, -4e-08, 0))
hIsland = hIsland.add(rect(9.562550985658113e-09, 1.2003097895163207e-09).transl(-4.2041835640929725e-08, -4e-08, 0))
hIsland = hIsland.sub(rect(5.211501015975237e-09, -9.172146851056507e-11).transl(1.3337723421357742e-08, -4e-08, 0))
hIsland = hIsland.add(rect(6.9691374952789115e-09, 9.896026212627213e-10).transl(-1.2839809347594546e-07, -2.80882095660232e-08, 0))
hIsland = hIsland.add(rect(9.767077093558255e-09, 1.4203369275951598e-09).transl(1.0529789129636965e-07, -3.659085605943865e-08, 0))
hIsland = hIsland.add(rect(3.882750148666579e-09, 1.35105228274672e-09).transl(1.2070493209024484e-07, -3.171454539678537e-08, 0))
hIsland = hIsland.add(rect(8.82548902549544e-09, 3.7197038044344025e-10).transl(5.1808775850879895e-08, -4e-08, 0))
hIsland = hIsland.add(rect(4.659893119973303e-09, 1.0584706666190813e-09).transl(3.680279115632432e-08, -4e-08, 0))
hIsland = hIsland.sub(rect(6.154509938016785e-09, -2.96154536761699e-09).transl(-7.451462918449499e-08, -4e-08, 0))
hIsland = hIsland.add(rect(3.785947927960616e-09, 1.8141104321281317e-09).transl(1.142835012974073e-07, -3.407414253602885e-08, 0))
hIsland = hIsland.sub(rect(3.3232687492736236e-09, -3.800517054234397e-09).transl(5.429236853639336e-08, -4e-08, 0))
hIsland = hIsland.add(rect(4.663177431086044e-09, 9.795236503312214e-10).transl(-9.992257713128374e-09, -4e-08, 0))
hIsland = hIsland.add(rect(2.86787052617371e-09, 9.72165217803204e-10).transl(-3.8430986226026385e-08, -4e-08, 0))
hIsland = hIsland.sub(rect(4.7230379876237634e-09, -2.970346994440284e-09).transl(1.435333865279298e-07, -1.6248513858176684e-08, 0))
hIsland = hIsland.sub(rect(2.3947663573403413e-09, -3.934728361169457e-09).transl(-7.011516631636643e-08, -4e-08, 0))
hIsland = hIsland.add(rect(3.9266101582213274e-09, 1.8594072688741596e-09).transl(-1.4070867930429827e-07, -1.928403435215921e-08, 0))
hIsland = hIsland.sub(rect(9.94991215447556e-09, -9.96813864633868e-10).transl(-2.77974026865013e-08, -4e-08, 0))
hIsland = hIsland.sub(rect(5.2021500054899835e-09, -2.4034414209859197e-09).transl(-1.0568182732098866e-07, -3.649974308729567e-08, 0))
hIsland = hIsland.add(rect(6.437293672714243e-09, 4.4929006796747393e-10).transl(-1.3541001318532852e-07, -2.3705633614977587e-08, 0))
hIsland = hIsland.sub(rect(5.953231295290116e-09, -1.9952512844357763e-09).transl(-1.2706286038425319e-08, -4e-08, 0))
hIsland = hIsland.add(rect(4.68953982666382e-09, 6.878011426799458e-10).transl(2.065579975491553e-08, -4e-08, 0))
hIsland = hIsland.sub(rect(9.227782820573939e-09, -1.9270932842477573e-09).transl(-6.801608638208061e-08, -4e-08, 0))
hIsland = hIsland.sub(rect(8.722470945443117e-09, -1.1678017191105129e-09).transl(-2.039072775326545e-08, -4e-08, 0))
hIsland = hIsland.sub(rect(2.672987189173463e-09, -1.041098365864259e-10).transl(-1.3286493174645152e-07, -2.5447600116895942e-08, 0))
hIsland = hIsland.sub(rect(5.641415885890049e-09, -1.9569826133400336e-09).transl(-1.4312196561310924e-07, -1.673339432451134e-08, 0))
hIsland = hIsland.add(rect(6.1656096526327604e-09, 1.365051220939895e-09).transl(4.0585675398141116e-08, -4e-08, 0))
hIsland = hIsland.add(rect(7.679791967715127e-09, 1.9923078483797173e-10).transl(1.2418260768482304e-08, -4e-08, 0))
hIsland = hIsland.sub(rect(6.118123082625791e-09, -3.3199478379434236e-09).transl(3.452943812279453e-09, -4e-08, 0))
hIsland = hIsland.add(rect(5.3440223321649084e-09, 6.042772805128198e-10).transl(4.032647905379022e-09, -4e-08, 0))
hIsland = hIsland.sub(rect(6.721367427613356e-09, -2.0841521146881038e-09).transl(1.2870618035205403e-07, -2.7920630069898688e-08, 0))
hIsland = hIsland.sub(rect(6.7416912543824485e-09, -2.8140715195869793e-09).transl(9.791970428902633e-09, -4e-08, 0))
hIsland = hIsland.sub(rect(3.44655702992736e-09, -8.092193388358539e-10).transl(-4.069693476409915e-08, -4e-08, 0))
hIsland = hIsland.sub(rect(5.356828643340821e-09, -4.066656272399114e-09).transl(-1.1122499811134818e-07, -3.502481461651633e-08, 0))
hIsland = hIsland.sub(rect(5.1666863471535956e-09, -1.900296922886304e-09).transl(-4.59122682548209e-09, -4e-08, 0))
hIsland = hIsland.sub(rect(8.428227818704618e-09, -7.812164981009883e-10).transl(1.1449469975308311e-07, -3.40046268910887e-08, 0))
hIsland = hIsland.add(rect(4.018028598667703e-09, 3.911371736880004e-09).transl(9.82528743716123e-08, -3.8028962374678655e-08, 0))
hIsland = hIsland.add(rect(6.550831040153373e-09, 8.136272145511727e-11).transl(1.3242997447456467e-07, -2.5726343959145118e-08, 0))
hIsland = hIsland.add(rect(9.733392955299944e-09, 1.2548089169678796e-10).transl(1.1894223612826817e-07, 3.241543614316019e-08, 0))
hIsland = hIsland.sub(rect(7.578345209382969e-09, -2.519864922961286e-10).transl(5.43354784815579e-08, 4e-08, 0))
hIsland = hIsland.sub(rect(2.664201420674042e-09, -3.7935392549057874e-10).transl(3.259028813304372e-10, 4e-08, 0))
hIsland = hIsland.sub(rect(8.672877325676953e-09, -2.7609059659747805e-09).transl(1.172457954010451e-07, 3.3050717749121036e-08, 0))
hIsland = hIsland.add(rect(8.53934138086738e-09, 2.916637814556345e-10).transl(8.033557532401364e-08, 3.9898650754216056e-08, 0))
hIsland = hIsland.sub(rect(6.1176089649917395e-09, -2.2687956971897855e-09).transl(-9.168065435961814e-08, 3.8998140655884664e-08, 0))
hIsland = hIsland.add(rect(3.2567954288085794e-09, 1.3074619858101155e-09).transl(1.4042082674012388e-07, 1.9560434831894315e-08, 0))
hIsland = hIsland.sub(rect(8.904401948702825e-09, -9.089124326175371e-10).transl(-6.242657768172962e-08, 4e-08, 0))
hIsland = hIsland.sub(rect(4.1515060911357384e-09, -5.470893283439954e-10).transl(-1.3420338435042692e-07, 2.4556274963000592e-08, 0))
hIsland = hIsland.add(rect(6.449543381349906e-09, 1.902526405731732e-09).transl(-4.576824401352463e-08, 4e-08, 0))
hIsland = hIsland.add(rect(4.052049688014135e-09, 3.0047339352381615e-09).transl(5.354594649138058e-08, 4e-08, 0))
hIsland = hIsland.add(rect(8.293787508930837e-09, 3.5183394239358854e-10).transl(7.408608175029702e-08, 4e-08, 0))
hIsland = hIsland.add(rect(3.829429352355649e-09, 1.0649711093250654e-09).transl(4.582332971606289e-09, 4e-08, 0))
hIsland = hIsland.add(rect(3.0887813893955613e-09, 1.0830442551117416e-09).transl(2.3820443295137966e-08, 4e-08, 0))
hIsland = hIsland.add(rect(4.4434424354656865e-09, 5.48312268670652e-09).transl(6.043843299145517e-08, 4e-08, 0))
hIsland = hIsland.sub(rect(4.467673601048854e-09, -3.5186789880388643e-09).transl(-4.8639644495363446e-08, 4e-08, 0))
hIsland = hIsland.add(rect(3.6288647727635593e-09, 3.2344438800373598e-09).transl(-1.2606051628291575e-07, 2.929851837915011e-08, 0))
hIsland = hIsland.add(rect(8.362157544099926e-09, 9.95803478633956e-10).transl(8.249908022814454e-08, 3.9799546782837644e-08, 0))
hIsland = hIsland.add(rect(9.441186438278542e-09, 4.853657979948124e-09).transl(-2.2135793564662494e-09, 4e-08, 0))
hIsland = hIsland.sub(rect(6.004329545649226e-09, -1.7216189930091163e-10).transl(-5.283487036016618e-08, 4e-08, 0))
hIsland = hIsland.sub(rect(9.679685193887809e-09, -6.524626067178814e-10).transl(-5.210606780127347e-08, 4e-08, 0))
hIsland = hIsland.sub(rect(6.921866095120152e-09, -2.786635149155017e-09).transl(9.057273684410263e-08, 3.912824222986637e-08, 0))
hIsland = hIsland.sub(rect(4.3396419077687086e-09, -2.1909943485543516e-09).transl(-1.2857544738184026e-07, 2.7991980758105443e-08, 0))
hIsland = hIsland.sub(rect(2.5040436388513613e-09, -4.822202725901952e-10).transl(-2.260126240976053e-08, 4e-08, 0))
hIsland = hIsland.add(rect(8.780599638406564e-09, 3.1042350754342662e-09).transl(1.216104118545578e-07, 3.133744997297103e-08, 0))
hIsland = hIsland.add(rect(7.805709110662577e-09, 3.1738107456610283e-09).transl(-2.4027591371580153e-08, 4e-08, 0))
hIsland = hIsland.sub(rect(2.0209943757790373e-09, -4.294752460762931e-09).transl(-7.370885277051478e-08, 4e-08, 0))
[...]
hIsland = hIsland.add(rect(2.5314762728272406e-09, 2.201355576341402e-09).transl(-4.135341626875105e-09, 4e-08, 0))
hIsland = hIsland.add(rect(8.751271662914293e-09, 1.4299963743807485e-09).transl(1.1973825718326462e-07, 3.2104222915654685e-08, 0))
hIsland = hIsland.sub(rect(7.758126451780449e-09, -1.1228956492556634e-09).transl(-4.759909075249118e-08, 4e-08, 0))
hIsland = hIsland.sub(rect(3.1236609468509232e-09, -1.8357759896726211e-09).transl(-3.592563135679239e-08, 4e-08, 0))
hIsland = hIsland.add(rect(3.227765652029527e-09, 6.183368560329611e-10).transl(-1.4093767100973854e-07, 1.906040767617352e-08, 0))
hIsland = hIsland.sub(rect(5.6683333227260026e-09, -7.103983425887717e-10).transl(-9.077476557459664e-08, 3.91052160969896e-08, 0))
hIsland = hIsland.add(rect(5.129569259074892e-09, 4.842560005575867e-09).transl(-8.734388146982736e-08, 3.945451557181969e-08, 0))
hIsland = hIsland.sub(rect(5.682411290104423e-09, -1.7065048380013738e-09).transl(-1.1602859436713303e-07, 3.348405155575908e-08, 0))
hIsland = hIsland.add(rect(6.233424469372773e-09, 1.3892936671529774e-09).transl(-9.569546124615863e-08, 3.84470004357375e-08, 0))
hIsland = hIsland.add(rect(9.090145687912015e-09, 2.8922250028819627e-09).transl(-1.0022261027399758e-07, 3.7670175387128274e-08, 0))
hIsland = hIsland.add(rect(6.471827290142294e-09, 1.051809484079573e-10).transl(-1.1757409721903258e-07, 3.2930671939900194e-08, 0))
hIsland = hIsland.sub(rect(9.05184367332654e-09, -5.504236752430125e-09).transl(1.0497346470403614e-08, 4e-08, 0))
hIsland = hIsland.sub(rect(4.175582280130122e-09, -2.776908152849032e-09).transl(1.0881030132181634e-07, 3.570491815296854e-08, 0))
hIsland = hIsland.sub(rect(9.232235177829758e-09, -7.671763006355535e-10).transl(-1.1181721071538978e-07, 3.484872398039335e-08, 0))
hIsland = hIsland.sub(rect(7.78680629942361e-09, -1.206968255802672e-09).transl(-3.8871907893328816e-08, 4e-08, 0))
hIsland = hIsland.add(rect(8.341402335967582e-09, 2.4252456778933263e-09).transl(-4.56583560581868e-08, 4e-08, 0))
hIsland = hIsland.add(rect(8.98376131580962e-09, 9.601739929716494e-10).transl(5.8952457467854176e-08, 4e-08, 0))
hIsland = hIsland.add(rect(9.568237782459474e-09, 4.0615420190558614e-10).transl(-6.305502597273478e-08, 4e-08, 0))
hIsland = hIsland.add(rect(5.289414228641731e-09, 7.420108960577632e-10).transl(-5.0149868502838786e-08, 4e-08, 0))
hIsland = hIsland.add(rect(2.7690658470838357e-09, 1.4155526621160889e-09).transl(8.429845357560538e-08, 3.9691391773730594e-08, 0))
hIsland = hIsland.sub(rect(7.630132324845811e-09, -2.0017208842497076e-09).transl(-1.2184197277653979e-07, 3.123908474471769e-08, 0))
hIsland = hIsland.add(rect(5.996099845192759e-09, 4.701782877160691e-10).transl(-1.2008398384494829e-08, 4e-08, 0))
hIsland = hIsland.sub(rect(3.531263806584641e-09, -1.092898990882215e-09).transl(1.433914226166481e-07, 1.6417775190749328e-08, 0))
hIsland = hIsland.sub(rect(6.058593971924979e-09, -1.2300486082864456e-09).transl(3.695993441046873e-08, 4e-08, 0))
hIsland = hIsland.sub(rect(2.0151597037981646e-09, -1.2040892369155982e-09).transl(9.889729197120555e-08, 3.791515932138485e-08, 0))
hIsland = hIsland.sub(rect(4.603321778558619e-09, -8.617629956901359e-10).transl(5.0289842848447034e-08, 4e-08, 0))
hIsland = hIsland.sub(rect(8.948876463620272e-09, -9.823731136040832e-10).transl(1.3431919286758176e-07, 2.447664963297541e-08, 0))
hIsland = hIsland.sub(rect(7.988059605841774e-09, -3.896773263240109e-10).transl(8.25687966041877e-08, 3.979579276197835e-08, 0))
hIsland = hIsland.sub(rect(2.2732273418480767e-09, -3.608707453442957e-10).transl(6.528644150635612e-08, 4e-08, 0))
hIsland = hIsland.sub(rect(3.50651847812793e-09, -1.0494836674553898e-09).transl(7.878824316394557e-09, 4e-08, 0))
hIsland = hIsland.add(rect(4.789054031480282e-09, 1.4065983687154645e-09).transl(1.7766073896247628e-08, 4e-08, 0))
hIsland = hIsland.sub(rect(8.693054126976189e-09, -1.1445437995302062e-10).transl(1.4412457455956377e-07, 1.5519845973662367e-08, 0))
hIsland = hIsland.sub(rect(2.8014949120307807e-09, -6.885308177942192e-10).transl(1.4356036368308577e-07, 1.6216109688982892e-08, 0))
hIsland = hIsland.sub(rect(4.125882452518317e-09, -8.259917685880078e-10).transl(1.152458621939072e-07, 3.375317709366816e-08, 0))
hIsland = hIsland.sub(rect(6.678032913790319e-09, -1.7749363664541015e-09).transl(1.2868737406553732e-07, 2.793091599887222e-08, 0))
hIsland = hIsland.add(rect(5.817397427492447e-09, 1.688799489693982e-09).transl(-5.9583809116692045e-08, 4e-08, 0))
hIsland = hIsland.add(rect(7.804599883574869e-09, 5.639713848175714e-09).transl(-6.475753322453375e-08, 4e-08, 0))
hIsland = hIsland.sub(rect(4.9020626251355264e-09, -1.906750267110157e-09).transl(1.9871398062938063e-08, 4e-08, 0))
hIsland = hIsland.sub(rect(3.001221036243185e-09, -1.8871436256989536e-09).transl(1.1171139332439465e-07, 3.488046319848035e-08, 0))
hIsland = hIsland.add(rect(9.297998220348593e-09, 2.223695504958869e-09).transl(6.117130984066201e-08, 4e-08, 0))
hIsland = hIsland.sub(rect(4.392567772536778e-09, -1.4265727394718315e-09).transl(7.483985096067688e-08, 4e-08, 0))
hIsland = hIsland.add(rect(9.641903403471156e-09, 2.6012866379460287e-11).transl(-8.937080562679737e-08, 3.925883999649029e-08, 0))
hIsland = hIsland.sub(rect(5.262452814222604e-09, -2.20483062750952e-10).transl(6.086620150661067e-08, 4e-08, 0))
hIsland = hIsland.add(rect(5.007539537195275e-09, 5.509033244037788e-12).transl(7.621616598495359e-08, 3.99947407753131e-08, 0))
hIsland = hIsland.sub(rect(4.424305528049704e-09, -3.026039120674349e-09).transl(-1.3501420523854989e-07, 2.3989895174005957e-08, 0))
hIsland = hIsland.sub(rect(6.558110145686369e-09, -3.889190182573637e-09).transl(2.983523470156179e-08, 4e-08, 0))
hIsland = hIsland.sub(rect(8.518552508563086e-09, -1.9770448824121934e-10).transl(4.805574975925472e-08, 4e-08, 0))
hIsland = hIsland.add(rect(3.148453576779657e-09, 1.2375848085506132e-09).transl(3.261267590742112e-08, 4e-08, 0))
hIsland = hIsland.add(rect(2.3601217451909333e-09, 2.2329087043981105e-09).transl(-1.43016599363814e-07, 1.6854870908616007e-08, 0))
hIsland = hIsland.sub(rect(8.237594189459238e-09, -5.226591335514069e-10).transl(3.4272228470743865e-08, 4e-08, 0))
hIsland = hIsland.add(rect(2.71180708688405e-09, 5.210711406675126e-10).transl(-4.8880670225417987e-08, 4e-08, 0))
hIsland = hIsland.sub(rect(7.192690151220229e-09, -1.3351879336749936e-09).transl(-1.229755959387826e-07, 3.074583263080958e-08, 0))
hIsland = hIsland.sub(rect(9.243508105480059e-09, -2.1343271376702703e-09).transl(-9.559703794107264e-08, 3.8462031482457947e-08, 0))
hIsland = hIsland.sub(rect(5.39255764646318e-09, -1.7069764357091458e-09).transl(9.551550077188959e-08, 3.847442501755219e-08, 0))
hIsland = hIsland.add(rect(2.404368067094202e-09, 3.396029922325687e-11).transl(9.212943939597975e-09, 4e-08, 0))
hIsland = hIsland.sub(rect(3.923153150534241e-09, -1.2555517550833938e-09).transl(1.1262642100460287e-07, 3.460200098983361e-08, 0))
hIsland = hIsland.sub(rect(4.995482258190289e-09, -2.0061859196047835e-09).transl(5.8591608532377e-09, 4e-08, 0))
hIsland = hIsland.sub(rect(5.457755674669185e-09, -1.0727176752635342e-09).transl(-9.640001001215086e-08, 3.833713213494255e-08, 0))
hIsland = hIsland.add(rect(9.519512471860112e-09, 5.2842395622885744e-11).transl(-1.656783687250649e-08, 4e-08, 0))
hIsland = hIsland.sub(rect(3.6313942647387736e-09, -2.0466112687436255e-09).transl(-2.586651541639109e-08, 4e-08, 0))
hIsland = hIsland.sub(rect(5.980265330131434e-09, -2.367631930371893e-09).transl(2.3780915959257933e-08, 4e-08, 0))
hIsland = hIsland.add(rect(5.199862060382445e-09, 6.913240630547269e-10).transl(5.3189703845805884e-08, 4e-08, 0))
hIsland = hIsland.add(rect(2.002280256012564e-09, 3.352264608323931e-09).transl(6.389326600790828e-08, 4e-08, 0))
hIsland = hIsland.sub(rect(3.770698681639714e-09, -1.315609760819853e-09).transl(1.2703499206229061e-07, 2.8806713296957604e-08, 0))
hIsland = hIsland.sub(rect(6.132855295336825e-09, -8.294241976131678e-10).transl(1.1990873338631362e-07, 3.20364488669299e-08, 0))
hIsland = hIsland.add(rect(7.467395824999766e-09, 1.7760510115191042e-09).transl(-7.636566758412667e-08, 3.999336816863397e-08, 0))
hIsland = hIsland.add(rect(5.305773703443922e-09, 2.631127060018429e-10).transl(1.281511101396674e-07, 2.8221143170714376e-08, 0))
hIsland = hIsland.sub(rect(8.777075082880778e-09, -3.823360857361231e-10).transl(-1.9271323071335257e-08, 4e-08, 0))
hIsland = hIsland.add(rect(9.654857203414183e-09, 2.5900299446657037e-09).transl(1.171216127654037e-08, 4e-08, 0))
hIsland = hIsland.add(rect(6.458236990275407e-09, 2.3599741727825097e-09).transl(7.2063579919286695e-09, 4e-08, 0))
hIsland = hIsland.add(rect(2.6157697859295927e-09, 2.8970639717573006e-09).transl(-1.596316423976478e-08, 4e-08, 0))
hIsland = hIsland.add(rect(9.03328346189271e-09, 3.0002395181238513e-09).transl(-5.8961393936985746e-08, 4e-08, 0))
hIsland = hIsland.sub(rect(8.63455395707284e-09, -3.447795733712931e-09).transl(1.0540671916810425e-07, 3.656516930897495e-08, 0))
hIsland = hIsland.sub(rect(2.228081478060747e-09, -2.931552009910065e-09).transl(-1.0240402919729177e-07, 3.723422725040048e-08, 0))
hIsland = hIsland.sub(rect(4.702858434589379e-09, -2.892217014445842e-09).transl(1.648928916102594e-08, 4e-08, 0))
hIsland = hIsland.add(rect(6.481193091901366e-09, 3.113021338700306e-10).transl(-7.400610105597059e-08, 4e-08, 0))
hIsland = hIsland.sub(rect(2.6962675408636585e-09, -5.953376435259543e-10).transl(6.9618406138735e-08, 4e-08, 0))
hIsland = hIsland.sub(rect(4.987941933590056e-09, -1.2342042665779345e-09).transl(-2.3809215470076244e-08, 4e-08, 0))
hIsland = hIsland.sub(rect(7.95266164819228e-09, -2.646688299666342e-09).transl(-4.535047556150952e-08, 4e-08, 0))
hIsland = hIsland.sub(rect(4.375185895671409e-09, -1.0575557860272801e-09).transl(6.400466443272576e-08, 4e-08, 0))
hIsland = hIsland.sub(rect(5.247734359026993e-09, -1.0322689667888205e-09).transl(-5.789406172289324e-09, 4e-08, 0))
hIsland = hIsland.sub(rect(2.932466279016987e-09, -7.602116915189395e-10).transl(-1.4677490613538553e-07, 1.1603681858678856e-08, 0))
hIsland = hIsland.add(rect(4.6802976194916e-09, 1.4309930932167697e-09).transl(-6.626880453489396e-08, 4e-08, 0))
hIsland = hIsland.add(rect(7.229876752359689e-09, 8.502948190782312e-10).transl(-1.4650199495076622e-07, 1.2073431244933144e-08, 0))
hIsland = hIsland.add(rect(3.762023963027957e-09, 8.447582352468151e-10).transl(-7.368192190540961e-08, 4e-08, 0))
hIsland = hIsland.add(rect(6.34335136637559e-09, 5.425285899555745e-10).transl(-1.57795566203177e-08, 4e-08, 0))
hIsland = hIsland.sub(rect(9.46673138575099e-09, -9.286803617727727e-10).transl(-5.27031400414817e-08, 4e-08, 0))
hIsland = hIsland.sub(rect(3.115431394009318e-09, -4.291050261710826e-10).transl(1.677518862077222e-08, 4e-08, 0))
hIsland = hIsland.sub(rect(7.425065198905488e-09, -2.154202109535021e-09).transl(-8.090607010389243e-08, 3.9875783433579284e-08, 0))
hIsland = hIsland.sub(rect(6.473304399721288e-09, -4.946558593292716e-10).transl(6.244243353478188e-08, 4e-08, 0))
hIsland = hIsland.sub(rect(7.374628421791654e-09, -2.0606431215289254e-09).transl(1.4296286710481165e-07, 1.6916411029030383e-08, 0))
hIsland = hIsland.add(rect(3.8099937786209285e-09, 4.668757153038718e-10).transl(-6.149384465915683e-08, 4e-08, 0))
hIsland = hIsland.add(rect(8.269571093864662e-09, 1.2993105247649815e-09).transl(2.1178862652735166e-08, 4e-08, 0))
hIsland = hIsland.add(rect(8.74752027483933e-09, 1.46860997291721e-09).transl(-1.0680732271595432e-07, 3.6224658893273904e-08, 0))
hIsland = hIsland.add(rect(8.211499388696685e-09, 1.5122851286766005e-09).transl(-1.9755922878825657e-08, 4e-08, 0))
hIsland = hIsland.add(rect(7.645657345990437e-09, 1.010064868271706e-09).transl(-1.8119767534818464e-09, 4e-08, 0))
hIsland = hIsland.add(rect(8.899570047628241e-09, 1.8799246778104186e-09).transl(4.0803507469156764e-08, 4e-08, 0))
hIsland = hIsland.sub(rect(4.204202167023483e-09, -8.910980700740482e-10).transl(-1.2552776216212933e-07, 2.9560070369543875e-08, 0))
hIsland = hIsland.add(rect(2.6875816567100304e-09, 3.91484875404867e-09).transl(-1.3206154816491563e-07, 2.5958488412204335e-08, 0))
hIsland = hIsland.add(rect(5.30024708624857e-09, 1.5477433717456385e-09).transl(1.291877894027041e-07, 2.7654675529745163e-08, 0))
hIsland = hIsland.sub(rect(5.318423924444682e-09, -1.7420722338239929e-09).transl(-2.4541667855624553e-08, 4e-08, 0))
hIsland = hIsland.add(rect(8.360395518099033e-09, 9.925367207428527e-10).transl(1.3699787409122657e-07, 2.250934333636973e-08, 0))
hIsland = hIsland.sub(rect(5.075748546066719e-09, -1.2454827551808288e-09).transl(2.4624688270453336e-08, 4e-08, 0))
hIsland = hIsland.add(rect(8.55946168733041e-09, 2.5938376814674474e-12).transl(-9.45680690681512e-08, 3.861455126235418e-08, 0))
hIsland = hIsland.add(rect(8.575502551430213e-09, 9.85428435756466e-10).transl(8.655208775227497e-08, 3.952266034613444e-08, 0))
hIsland = hIsland.sub(rect(7.615733259178345e-09, -6.624093016798985e-11).transl(-3.178879506334421e-08, 4e-08, 0))
hIsland = hIsland.add(rect(7.770907660712801e-09, 8.83391454089155e-10).transl(6.887525414956435e-08, 4e-08, 0))
hIsland = hIsland.add(rect(4.988084083340287e-09, 1.0360442116858865e-09).transl(-1.1540250063728213e-07, 3.3699906251388414e-08, 0))
hIsland = hIsland.add(rect(2.770522575097693e-09, 1.8704083988165873e-09).transl(1.1231182530830105e-07, 3.469876541501607e-08, 0))
hIsland = hIsland.add(rect(6.088046588777127e-09, 2.3843599013035835e-09).transl(1.0814295918374884e-07, 3.588245206651785e-08, 0))
hIsland = hIsland.sub(rect(9.00223713706711e-09, -3.595389333510879e-10).transl(2.0632266550507367e-08, 4e-08, 0))
hIsland = hIsland.add(rect(2.02962622601291e-09, 1.1095018416285213e-10).transl(8.210029610680653e-08, 3.9820346049756065e-08, 0))
hIsland = hIsland.add(rect(3.1691751298149068e-09, 1.6008945384391997e-09).transl(-4.8050375477795265e-08, 4e-08, 0))
hIsland = hIsland.sub(rect(8.434437977677583e-09, -1.4563664540902875e-09).transl(-8.416433212121663e-09, 4e-08, 0))
hIsland = hIsland.add(rect(5.81462396758143e-09, 5.59807387098215e-09).transl(9.166111653944692e-08, 3.900051626565269e-08, 0))
hIsland = hIsland.sub(rect(2.356667280030058e-09, -2.7042521472321637e-10).transl(1.0295470407087204e-07, 3.7117603448728453e-08, 0))
hIsland = hIsland.add(rect(7.129813863664311e-09, 2.0242257564052912e-10).transl(-1.1376224484332153e-07, 3.4243523701161965e-08, 0))
hIsland = hIsland.add(rect(4.22170208981567e-09, 3.1996980098209436e-09).transl(8.962849625678046e-09, 4e-08, 0))
hIsland = hIsland.sub(rect(7.707211553636056e-09, -9.755309634741453e-10).transl(1.1828100440100174e-07, 3.266750326238873e-08, 0))
hIsland = hIsland.add(rect(7.395551756842726e-09, 1.4102209206714883e-09).transl(1.0238927928752323e-07, 3.723731416063691e-08, 0))
hIsland = hIsland.add(rect(4.049140069419379e-09, 6.674055676803348e-10).transl(-1.217999005319887e-07, 3.125701598415177e-08, 0))
hIsland = hIsland.add(rect(2.2707387232529817e-09, 1.262525185930043e-09).transl(2.109403737198171e-08, 4e-08, 0))
hIsland = hIsland.sub(rect(4.71011808288379e-09, -1.1423871762688714e-09).transl(-3.8485348739251335e-08, 4e-08, 0))
hIsland = hIsland.sub(rect(7.903819606813389e-09, -6.080796698998691e-10).transl(-1.4096881668312462e-07, 1.902972813811896e-08, 0))
hIsland = hIsland.sub(rect(2.1733056640252465e-09, -5.747911230529897e-10).transl(1.124956945157418e-07, 3.4642341795237226e-08, 0))
hIsland = hIsland.add(rect(2.5294685742803466e-09, 2.1457664153690907e-10).transl(1.3371925475620288e-07, 2.4884724786822178e-08, 0))
hIsland = hIsland.add(rect(4.101508295525924e-09, 3.8732948882003624e-11).transl(-2.8153578248413964e-08, 4e-08, 0))
hIsland = hIsland.sub(rect(6.805445290520376e-09, -6.436347160211926e-10).transl(-4.781869465416335e-08, 4e-08, 0))
hIsland = hIsland.sub(rect(4.687040100245428e-09, -2.4033601463980105e-09).transl(-8.23687143958577e-08, 3.9806472454265574e-08, 0))
hIsland = hIsland.sub(rect(8.769647477198371e-09, -1.0207727899739635e-09).transl(-1.1053101803971523e-07, 3.522644161244862e-08, 0))
hIsland = hIsland.add(rect(8.904460037894213e-09, 1.0595703196522668e-09).transl(-1.7403059432093228e-08, 4e-08, 0))
hIsland = hIsland.sub(rect(2.0956315945628668e-09, -2.3392621395938383e-09).transl(1.4971563120720178e-07, 3.479952114487124e-09, 0))
hIsland = hIsland.sub(rect(4.88229934747532e-09, -2.675035253416943e-09).transl(-1.4022627815583186e-08, 4e-08, 0))
hIsland = hIsland.sub(rect(8.35774869923798e-09, -3.880234683455965e-10).transl(6.462432681611418e-08, 4e-08, 0))
hIsland = hIsland.sub(rect(8.924778110968884e-09, -1.7297397681441548e-09).transl(-9.783762756300393e-08, 3.810047168601492e-08, 0))
hIsland = hIsland.sub(rect(7.410804516534252e-09, -1.194024729755235e-09).transl(1.3029336616886729e-07, 2.7025024953738806e-08, 0))
hIsland = hIsland.sub(rect(2.1817561934803483e-09, -2.1172559023234893e-09).transl(-1.250260393320284e-07, 2.9801812389332772e-08, 0))
hIsland = hIsland.sub(rect(4.221557374708323e-09, -2.7352842657643645e-09).transl(-6.855304323242705e-08, 4e-08, 0))
hIsland = hIsland.add(rect(4.315094653389192e-09, 1.7006693600765102e-11).transl(-4.234323618922889e-09, 4e-08, 0))
hIsland = hIsland.add(rect(6.507850965647196e-09, 4.859561308670459e-09).transl(1.2303792871005088e-07, 3.0718136078861475e-08, 0))
hIsland = hIsland.add(rect(3.924600011698096e-09, 5.074290997490433e-10).transl(-5.457334673009778e-10, 4e-08, 0))
hIsland = hIsland.sub(rect(9.15755088205378e-09, -1.5697921290050123e-09).transl(-1.4648472233872787e-07, 1.21024894074491e-08, 0))
hIsland = hIsland.add(rect(5.294568299224293e-09, 1.113114174772372e-09).transl(4.880828410295632e-08, 4e-08, 0))
hIsland = hIsland.sub(rect(4.6437214852550074e-09, -2.9166761551570843e-09).transl(-7.351752607257832e-08, 4e-08, 0))
hIsland = hIsland.sub(rect(6.830159771608973e-09, -1.6213271891357695e-09).transl(-7.465822395489293e-08, 4e-08, 0))
hIsland = hIsland.add(rect(9.281423280623678e-09, 1.7485956887849329e-09).transl(3.9862955921766466e-08, 4e-08, 0))
hIsland = hIsland.sub(rect(2.0287245090318794e-09, -1.5494640155035679e-09).transl(1.098112897784517e-07, 3.543025340352084e-08, 0))
hIsland = hIsland.add(rect(8.505976254739062e-09, 2.288551772761724e-09).transl(4.614743693640259e-08, 4e-08, 0))
hIsland = hIsland.sub(rect(8.067021583909338e-09, -1.9490568983235867e-09).transl(-1.1103050705071579e-07, 3.50818322052105e-08, 0))
hIsland = hIsland.add(rect(2.7405097553969622e-09, 6.084080210636335e-11).transl(-5.326530028104333e-08, 4e-08, 0))
hIsland = hIsland.sub(rect(7.067196409253025e-09, -3.5227683147942457e-09).transl(1.1541232259690971e-07, 3.369655621498641e-08, 0))
hIsland = hIsland.add(rect(8.975358523877155e-09, 1.4123530974616231e-09).transl(2.8023240188985792e-08, 4e-08, 0))
hIsland = hIsland.add(rect(3.760684595785857e-09, 1.6745775638919184e-09).transl(1.4773439613441245e-08, 4e-08, 0))
hIsland = hIsland.sub(rect(4.2602986267062025e-09, -1.846491937589162e-09).transl(7.299707210226975e-09, 4e-08, 0))
hIsland = hIsland.add(rect(2.5758384423106684e-09, 1.7679247111702504e-09).transl(-1.398032848665383e-07, 2.0136665652750902e-08, 0))
vIsland = hIsland.rotz(pi / 2)
vIslands = vIslands.add(vIsland.transl(0, -a/2, 0))
DefRegion(1, hIslands)
DefRegion(2, vIslands)
TableAdd(m_full.Region(1))
TableAdd(m_full.Region(2))
setgeom(hIslands.add(vIslands))
save(geom)
r2o2 := sqrt(2) / 2
m = RandomMagSeed(4)
B_ext = vector(Bmax*r2o2, Bmax*r2o2, 0)
relax()
minimize()
for B := Bmax; B >= -Bmax; B -= Bstep {
	B_ext = vector(B*r2o2, B*r2o2, 0)
	minimize()
	tablesave()
}
//********************************************************************//
//Please cite the following references, relevant for your simulation. //
//See bibtex file in output folder for justification.                 //
//********************************************************************//
//   * Vansteenkiste et al., AIP Adv. 4, 107133 (2014).
//   * Exl et al., J. Appl. Phys. 115, 17D118 (2014).
