# t (s)	mx ()	my ()	mz ()	B_extx (T)	B_exty (T)	B_extz (T)	m_fullx (A/m)	m_fully (A/m)	m_fullz (A/m)	m_full.region1x (A/m)	m_full.region1y (A/m)	m_full.region1z (A/m)	m_full.region2x (A/m)	m_full.region2y (A/m)	m_full.region2z (A/m)
0	0.6418077	0.64267004	-3.5951675e-10	0.070710905	0.070710905	0	78793.164	78899.04	-4.2613636e-05	650270.1	249098.31	-0.00024127582	247881.39	651018.5	-0.00024025705
0	0.6416981	0.6425593	-2.1627179e-10	0.070569135	0.070569135	0	78779.72	78885.44	-2.8150827e-05	650363.06	248851.25	-5.884776e-05	247634.89	651110.8	-0.00025499676
0	0.64158446	0.6424451	-3.496862e-10	0.07042786	0.07042785	0	78765.77	78871.42	-4.0547522e-05	650459.75	248595.4	-0.00020008239	247378.75	651207.25	-0.00027268438
0	0.64147025	0.64233047	-2.90703e-10	0.070286535	0.070286535	0	78751.74	78857.34	-3.6673555e-05	650556.8	248338.39	-7.0617316e-05	247121.38	651304.06	-0.0003508048
0	0.64135593	0.6422157	-3.5951675e-10	0.07014484	0.07014484	0	78737.7	78843.266	-4.3904958e-05	650653.56	248081.56	-0.0002706997	246864.14	651400.7	-0.00023583515
0	0.6412416	0.64210117	-1.3060569e-10	0.07000352	0.07000351	0	78723.67	78829.19	-1.7303719e-05	650750.25	247824.8	-0.00013534985	246607.02	651497.2	-4.1271152e-05
0	0.64112693	0.641986	-3.679429e-10	0.069862306	0.069862306	0	78709.57	78815.05	-4.519628e-05	650847.3	247567.22	-0.00028835403	246349.16	651594	-0.0002535228
0	0.64100957	0.6418683	-9.6900994e-11	0.06972053	0.06972054	0	78695.18	78800.6	-1.2913223e-05	650946.4	247303.86	-0.0001471194	246085.44	651692.75	-1.4739697e-06
0	0.640895	0.6417534	-1.600973e-10	0.06957921	0.06957921	0	78681.12	78786.5	-1.7561984e-05	651042.3	247047.64	-0.00011475314	245828.78	651788.56	-8.4016276e-05
0	0.64078	0.64163786	-3.6372982e-10	0.069437936	0.069437936	0	78667	78772.33	-4.442149e-05	651139.3	246789.61	-0.00024716058	245570.47	651885.25	-0.00026089264
0	0.6406642	0.64152175	-7.021811e-11	0.0692966	0.06929659	0	78652.78	78758.055	-9.555785e-06	651236.4	246530.47	-1.7654329e-05	245311.02	651982.1	-0.000107599786
0	0.6405479	0.641405	-1.1234898e-11	0.069154926	0.069154926	0	78638.51	78743.73	-1.5495867e-06	651333.8	246270.16	5.884776e-06	245050.36	652079.3	-3.832321e-05
0	0.6404314	0.6412881	-2.2469795e-10	0.069013596	0.069013596	0	78624.21	78729.375	-2.7634298e-05	651431.1	246009.77	-0.000100041194	244789.6	652176.44	-0.00022699134
0	0.6403132	0.6411696	-1.4043622e-10	0.06887227	0.06887228	0	78609.69	78714.83	-1.3171488e-05	651529.1	245746.36	-0.00014123463	244525.75	652274.2	-5.453688e-05
0	0.64019716	0.64105296	-1.0673153e-10	0.0687306	0.0687306	0	78595.44	78700.51	-1.5237603e-05	651626.4	245486.6	-7.0617316e-05	244265.7	652371.1	-8.1068334e-05
0	0.64007914	0.6409346	-3.1457714e-10	0.06858926	0.06858927	0	78580.945	78685.97	-3.7964877e-05	651724.75	245222.89	-0.0002236215	244001.75	652469.25	-0.00023583515
0	0.6399613	0.6408164	-3.4126002e-10	0.06844801	0.06844801	0	78566.5	78671.47	-4.28719e-05	651822.44	244960.39	-0.00023539104	243738.9	652566.6	-0.00023583515
0	0.63984424	0.6406989	-7.723992e-11	0.06830669	0.068306684	0	78552.12	78657.03	-9.555785e-06	651919.1	244699.66	-8.238687e-05	243477.83	652663.2	-1.3265727e-05
0	0.63972604	0.6405802	-3.1036407e-10	0.068165004	0.068165004	0	78537.6	78642.46	-3.5640496e-05	652017.06	244436.28	-0.00020008239	243214.11	652760.8	-0.00020782973
0	0.63960695	0.6404607	-3.791778e-11	0.068023674	0.06802368	0	78522.984	78627.805	-4.6487603e-06	652115	244171.69	-2.942388e-05	242949.14	652858.56	-2.6531454e-05
0	0.63948846	0.6403418	-3.7496473e-10	0.06788235	0.067882344	0	78508.445	78613.2	-4.4163222e-05	652213	243907.75	-0.00030600835	242684.97	652956.25	-0.00021077767
0	0.6393698	0.64022255	-1.5588421e-10	0.06774067	0.06774067	0	78493.87	78598.57	-1.8595041e-05	652310.6	243643.88	-8.238687e-05	242420.75	653053.6	-0.00014150109
0	0.6392497	0.6401021	-3.1598152e-10	0.06759931	0.06759931	0	78479.13	78583.77	-3.873967e-05	652409.3	243377.05	-0.00023539104	242153.61	653152.06	-0.00021225163
0	0.63913053	0.6399825	-2.5418956e-10	0.06745811	0.06745811	0	78464.5	78569.09	-2.9183884e-05	652506.75	243112.78	-0.00028835403	241888.98	653249.3	-5.601085e-05
0	0.6390099	0.6398615	-1.8818454e-10	0.06731677	0.06731677	0	78449.695	78554.24	-2.5568183e-05	652605.2	242845.58	-0.00015300418	241621.4	653347.44	-0.000145923
0	0.6388901	0.6397412	2.8087246e-12	0.06717497	0.06717497	0	78434.99	78539.46	-3.6157026e-06	652703.4	242579.56	-3.5308658e-05	241355.16	653445.25	-4.421909e-06
0	0.638769	0.6396196	-3.904127e-10	0.06703377	0.06703377	0	78420.12	78524.54	-4.8811984e-05	652801.9	242311.44	-0.00028246926	241086.66	653543.5	-0.00029921584
0	0.63864875	0.6394988	-1.4324494e-10	0.06689243	0.06689243	0	78405.34	78509.71	-1.7561984e-05	652900.06	242044.75	-0.00021185193	240819.73	653641.44	2.2109545e-05
0	0.6385275	0.63937706	-3.201946e-10	0.06675072	0.06675072	0	78390.47	78494.766	-3.9772727e-05	652998.5	241776.55	-0.0002706997	240551.23	653739.7	-0.00019309003
0	0.63840646	0.6392556	-4.353523e-10	0.06660939	0.0666094	0	78375.61	78479.85	-5.0619834e-05	653096.6	241509.03	-0.00028835403	240283.39	653837.44	-0.0003360651
0	0.63828444	0.63913316	-4.69057e-10	0.06646819	0.06646819	0	78360.625	78464.81	-5.552686e-05	653195.4	241239.48	-0.00035308657	240013.53	653935.9	-0.0002874241
0	0.63816273	0.63901085	-3.5951675e-10	0.06632638	0.06632638	0	78345.67	78449.8	-4.3130167e-05	653293.75	240970.48	-0.00032954747	239744.2	654034	-0.0001754024
0	0.6380402	0.6388879	-1.0954026e-10	0.06618506	0.06618506	0	78330.63	78434.695	-1.4979339e-05	653392.44	240700.22	-3.5308658e-05	239473.66	654132.4	-0.00013560521
0	0.6379171	0.63876426	-1.5588421e-10	0.06604385	0.06604385	0	78315.54	78419.54	-1.96281e-05	653491.6	240428.81	-0.00014123463	239202	654231.1	-8.1068334e-05
0	0.63779473	0.6386414	-3.5530365e-10	0.06590248	0.06590248	0	78300.516	78404.45	-4.338843e-05	653589.9	240159.14	-0.00025304538	238932.02	654329.25	-0.00025057484
0	0.6376708	0.6385169	-1.02518445e-10	0.06576081	0.06576081	0	78285.29	78389.164	-1.2396694e-05	653689.5	239885.98	-8.238687e-05	238658.56	654428.44	-6.6328634e-05
0	0.63754773	0.63839334	-4.493959e-10	0.065619476	0.065619476	0	78270.18	78374	-5.5268596e-05	653787.7	239615.34	-0.00032954747	238387.6	654526.44	-0.00031248157
0	0.63742363	0.63826877	-2.527852e-10	0.065478265	0.06547826	0	78254.95	78358.695	-3.0991734e-05	653886.9	239342.38	-0.00015888896	238114.36	654625.4	-0.00020340782
0	0.6372999	0.63814443	-1.6150166e-10	0.06533646	0.06533646	0	78239.76	78343.44	-2.2985538e-05	653985.75	239070.11	-0.00022950627	237841.86	654723.9	-3.3164317e-05
0	0.6371739	0.6380179	-2.794681e-10	0.065195136	0.065195136	0	78224.27	78327.89	-3.4607438e-05	654086.3	238793.06	-0.00017654328	237564.52	654824	-0.00022109546
0	0.6370504	0.6378939	-1.8116272e-10	0.06505392	0.065053925	0	78209.13	78312.69	-2.2727272e-05	654184.2	238522.34	-0.00011769552	237293.56	654921.6	-0.00014887094
0	0.6369252	0.63776815	-5.168053e-10	0.064912565	0.064912565	0	78193.76	78297.25	-6.275826e-05	654283.7	238247.47	-0.0003707409	237018.42	655020.8	-0.0003508048
0	0.63679975	0.63764226	2.3874158e-11	0.064770885	0.064770885	0	78178.35	78281.78	2.840909e-06	654382.75	237972.7	2.942388e-05	236743.34	655119.5	5.895879e-06
0	0.6366744	0.6375162	-2.0503689e-10	0.06462956	0.06462956	0	78162.96	78266.31	-2.5568183e-05	654482.06	237697.66	-0.00014123463	236468.06	655218.5	-0.000145923
0	0.63654757	0.6373888	-3.6934727e-10	0.064488225	0.06448822	0	78147.38	78250.664	-4.519628e-05	654582.3	237419.78	-0.00032954747	236189.95	655318.44	-0.0002093037
0	0.6364226	0.6372634	-3.1738587e-10	0.064346544	0.064346544	0	78132.055	78235.27	-3.9772727e-05	654680.4	237146.83	-0.00020596717	235916.69	655416	-0.00023583515
0	0.63629377	0.6371339	2.8087246e-12	0.064205214	0.064205214	0	78116.234	78219.38	-7.7479336e-07	654781.8	236864.89	2.3539103e-05	235634.5	655517.2	1.4739697e-06
0	0.63616776	0.63700736	-2.7806374e-10	0.06406397	0.06406397	0	78100.766	78203.836	-3.4607438e-05	654880.75	236589.4	-0.0002236215	235358.78	655615.8	-0.00018424621
0	0.63604134	0.63688034	-1.2779697e-10	0.06392263	0.06392263	0	78085.25	78188.25	-1.5495867e-05	654979.6	236313.45	-7.650209e-05	235082.53	655714.3	-9.4334064e-05
0	0.635914	0.63675255	-2.8087244e-10	0.06378097	0.06378097	0	78069.625	78172.55	-3.4349174e-05	655078.9	236035.84	-0.00012652269	234804.69	655813.3	-0.00027563234
0	0.6357847	0.63662267	-3.1176842e-10	0.06363963	0.06363963	0	78053.734	78156.62	-3.7964877e-05	655179.3	235754.17	-0.00025304538	234522.66	655913.44	-0.00020488178
0	0.6356582	0.63649553	-3.9883888e-10	0.063498296	0.063498296	0	78038.21	78141.01	-4.8811984e-05	655278.3	235478.12	-0.00036485613	234246.47	656012	-0.00017835034
0	0.63552874	0.63636535	-3.791778e-10	0.06335664	0.06335664	0	78022.31	78125.016	-4.4938017e-05	655379.3	235195.53	-0.00025893014	233963.69	656112.56	-0.00028889807
0	0.63540095	0.6362371	-2.2469795e-10	0.06321528	0.06321528	0	78006.625	78109.266	-2.7117769e-05	655478.2	234917.81	-0.0001706585	233685.67	656211.1	-0.00015255586
0	0.63526994	0.6361053	-2.4435903e-10	0.06307405	0.06307405	0	77990.55	78093.1	-2.9183884e-05	655579.75	234632.64	-0.00021185193	233400.28	656312.4	-0.00012970934
0	0.6351413	0.63597614	-2.7385064e-10	0.062932715	0.062932715	0	77974.75	78077.24	-3.4349174e-05	655679.1	234352.95	-0.0002706997	233120.4	656411.44	-0.000119391545
0	0.6350124	0.6358467	-3.3002512e-10	0.062790945	0.062790945	0	77958.92	78061.336	-4.106405e-05	655778.5	234073.06	-0.00020008239	232840.27	656510.4	-0.0002682625
0	0.63488245	0.6357161	-4.3816104e-10	0.06264971	0.06264971	0	77942.97	78045.305	-5.1911156e-05	655878.5	233790.97	-0.00025304538	232557.94	656609.94	-0.0003508048
0	0.63475114	0.63558406	-4.9293114e-10	0.06250837	0.06250837	0	77926.85	78029.09	-6.069215e-05	655979.6	233505.81	-0.0004413582	232272.6	656710.7	-0.00026678853
0	0.6346217	0.63545406	-2.4014593e-10	0.062366694	0.06236669	0	77910.96	78013.14	-2.892562e-05	656078.7	233225.53	-0.00018831283	231992.02	656809.4	-0.00015624079
0	0.6344895	0.6353211	-1.6150166e-10	0.062225346	0.062225346	0	77894.73	77996.83	-2.0919422e-05	656180	232938.84	-0.00010592597	231705.17	656910.3	-0.000106125815
0	0.63435936	0.63519037	-1.600973e-10	0.06208414	0.06208414	0	77878.76	77980.78	-1.96281e-05	656279.25	232657.33	-8.238687e-05	231423.44	657009.25	-0.00013413125
0	0.63422596	0.6350563	-1.6992784e-10	0.061942358	0.061942354	0	77862.375	77964.32	-2.0661157e-05	656381.2	232368.42	-0.00014123463	231134.34	657110.6	-0.00010317788
0	0.6340958	0.63492554	-4.0445633e-10	0.06180101	0.06180101	0	77846.39	77948.26	-4.803719e-05	656480	232087.31	-0.00033543224	230852.98	657209.1	-0.00023436118
0	0.63396233	0.6347913	-1.6571475e-10	0.061659798	0.061659798	0	77830.01	77931.78	-1.8595041e-05	656581.8	231798.39	-9.4156414e-05	230563.94	657310.4	-0.00012528742
0	0.6338305	0.6346589	2.3874158e-11	0.061518423	0.061518427	0	77813.82	77915.516	7.7479336e-07	656681.4	231514.03	-7.650209e-05	230279.36	657409.8	8.327929e-05
0	0.63369673	0.63452435	-3.5811237e-10	0.061376773	0.061376773	0	77797.4	77899.016	-4.4938017e-05	656782.94	231225.1	-0.00032954747	229990.25	657510.9	-0.00017687636
0	0.63356435	0.63439137	-2.710419e-10	0.06123543	0.061235428	0	77781.16	77882.69	-3.1508265e-05	656882.56	230940.03	-0.00012063791	229704.97	657610.1	-0.0002623666
0	0.6334308	0.63425714	-1.600973e-10	0.06109409	0.06109409	0	77764.76	77866.2	-1.911157e-05	656983.2	230652.22	-0.000100041194	229416.95	657710.25	-0.00011496963
0	0.63329697	0.6341226	-4.016476e-10	0.060952455	0.06095245	0	77748.31	77849.69	-4.752066e-05	657083.9	230363.97	-0.0003472018	229128.52	657810.6	-0.00021962149
0	0.6331627	0.63398767	-6.9235057e-10	0.060811095	0.060811095	0	77731.83	77833.125	-8.57438e-05	657184.6	230075.1	-0.00045901255	228839.45	657910.94	-0.00052915514
0	0.6330261	0.63385034	-4.128825e-10	0.06066985	0.06066985	0	77715.08	77816.26	-5.036157e-05	657287.3	229781	-0.00040016478	228545.2	658013.06	-0.00017392842
0	0.6328931	0.6337167	-2.2469795e-10	0.060528506	0.060528502	0	77698.74	77799.84	-2.7634298e-05	657386.5	229495.39	-0.00018831283	228259.42	658111.94	-0.00014002711
0	0.6327557	0.63357836	-3.679429e-10	0.060386855	0.060386855	0	77681.87	77782.87	-4.5971075e-05	657489.4	229199.8	-0.00028246926	227963.69	658214.3	-0.0002328872
0	0.632622	0.6334441	-5.4067945e-10	0.06024551	0.06024551	0	77665.46	77766.375	-6.5857435e-05	657588.75	228913.08	-0.00040604954	227676.77	658313.3	-0.00037659926
0	0.6324856	0.63330704	-2.2750668e-10	0.06010417	0.06010417	0	77648.72	77749.56	-2.9442148e-05	657690.06	228620.77	-0.00024127582	227384.3	658414.06	-7.738341e-05
0	0.63234866	0.6331693	-3.1176842e-10	0.059962522	0.059962526	0	77631.914	77732.64	-3.770661e-05	657792.1	228326.83	-0.00016477374	227090.27	658515.6	-0.0002771063
0	0.63221323	0.63303304	-2.008238e-10	0.059821147	0.059821144	0	77615.27	77715.93	-2.660124e-05	657892.1	228036.83	-0.00017654328	226800.05	658615.3	-0.00012970934
0	0.63207483	0.63289386	-2.75255e-10	0.05967993	0.05967993	0	77598.28	77698.836	-3.589876e-05	657994.7	227740.2	-0.00018242806	226503.36	658717.4	-0.00022109546
0	0.6319389	0.63275725	-2.2750668e-10	0.05953857	0.05953857	0	77581.59	77682.06	-2.8667355e-05	658094.75	227449.78	-5.0020597e-05	226212.73	658816.94	-0.00030363776
0	0.6317998	0.6326173	-2.8087244e-11	0.059396807	0.05939681	0	77564.52	77664.88	-5.165289e-06	658197.4	227152.1	-1.1769552e-05	225914.94	658919.1	-3.5375273e-05
0	0.63166285	0.63247967	-2.724463e-10	0.059255596	0.059255596	0	77547.7	77647.99	-3.512397e-05	658297.8	226859.73	-0.00024716058	225622.44	659019.06	-0.00016508461
0	0.6315234	0.6323394	-3.7636907e-10	0.05911423	0.059114233	0	77530.59	77630.76	-4.5971075e-05	658400.3	226561.73	-0.00029129643	225324.3	659121.06	-0.0002520488
0	0.631386	0.63220125	-8.004865e-11	0.058972575	0.05897258	0	77513.72	77613.8	-8.780992e-06	658500.7	226268.77	-6.1790146e-05	225031.22	659220.94	-3.6849244e-05
0	0.63124657	0.6320611	-6.4600665e-11	0.05883123	0.058831234	0	77496.61	77596.6	-1.0847108e-05	658602.2	225971.88	-0.00010886836	224734.12	659322.06	-1.3265727e-05
0	0.63110566	0.63191926	-3.272164e-10	0.05869	0.058689997	0	77479.31	77579.19	-3.9772727e-05	658705.3	225671.11	-0.00018537045	224433.31	659424.6	-0.00027121042
0	0.63096666	0.6317794	-1.7975837e-10	0.058548246	0.058548246	0	77462.24	77562.016	-2.2469008e-05	658806.56	225374.89	-0.00013829223	224137.03	659525.4	-0.0001120217
0	0.63082755	0.6316396	-2.5418956e-10	0.058406897	0.058406897	0	77445.164	77544.85	-3.2541324e-05	658907.4	225079.19	-0.0002736421	223841.2	659625.75	-0.00010538883
0	0.6306874	0.6314987	-2.7806374e-10	0.058265675	0.058265675	0	77427.96	77527.55	-3.512397e-05	659008.8	224781.36	-0.00014417701	223543.22	659726.6	-0.00025499676
0	0.63054425	0.6313546	-2.2891104e-10	0.05812428	0.05812428	0	77410.38	77509.86	-2.660124e-05	659112.56	224476.78	-0.0002706997	223238.56	659829.94	-4.274512e-05
0	0.6304037	0.6312132	-4.4096973e-10	0.05798266	0.057982665	0	77393.125	77492.516	-5.320248e-05	659214	224178.38	-0.00035308657	222940.08	659930.8	-0.00026384057
0	0.6302635	0.6310722	-2.6682884e-10	0.05784131	0.057841305	0	77375.91	77475.19	-3.3316115e-05	659314.7	223881	-0.0002206791	222642.56	660031.1	-0.00016655857
0	0.6301218	0.63092965	-3.791778e-11	0.05769995	0.05769995	0	77358.52	77457.695	-3.6157026e-06	659416.56	223580.52	-0.00011181075	222342	660132.44	7.369849e-05
0	0.62997824	0.63078517	-2.527852e-10	0.057558335	0.057558343	0	77340.89	77439.96	-2.7892562e-05	659519.9	223275.88	-0.00018831283	222037.33	660235.1	-0.00016213667
0	0.6298359	0.63064194	-1.7414092e-10	0.05741697	0.05741698	0	77323.41	77422.375	-1.8853305e-05	659621.8	222974.36	-0.00014417701	221735.75	660336.56	-7.959436e-05
0	0.6296929	0.63049805	-3.7777345e-10	0.057275716	0.057275716	0	77305.86	77404.71	-4.4938017e-05	659723.9	222671.7	-0.00021773671	221433.03	660438.2	-0.00031469253
0	0.6295506	0.630355	-1.6290602e-10	0.057134356	0.057134356	0	77288.39	77387.14	-1.96281e-05	659825.06	222371.12	-0.00015594656	221132.31	660538.75	-5.601085e-05
0	0.62940633	0.6302099	-2.120587e-10	0.056992743	0.056992743	0	77270.69	77369.33	-2.6859505e-05	659927.6	222066.28	-9.121403e-05	220827.39	660640.8	-0.00021519957
0	0.62926084	0.63006335	-2.4435903e-10	0.05685139	0.05685139	0	77252.81	77351.34	-2.7634298e-05	660031.3	221758.55	-0.00024421822	220519.64	660743.9	-9.138612e-05
0	0.62911725	0.6299189	-3.2300332e-10	0.05671003	0.05671003	0	77235.195	77333.59	-3.7448346e-05	660133.06	221455.36	-0.00024716058	220216.45	660845.1	-0.00020340782
0	0.6289732	0.62977403	-6.600503e-11	0.05656841	0.056568418	0	77217.51	77315.83	-7.231405e-06	660234.6	221151.94	-0.00016771612	219912.92	660946.1	8.549024e-05
0	0.62882805	0.62962794	-2.3593286e-10	0.056427028	0.056427028	0	77199.69	77297.89	-2.9700414e-05	660337	220846.02	-0.00021773671	219606.92	661048	-0.00013339426
0	0.6286829	0.62948185	-3.9743453e-10	0.0562858	0.0562858	0	77181.875	77279.96	-5.0103306e-05	660439.2	220540.19	-0.00016771612	219301.1	661149.7	-0.0004186074
0	0.6285363	0.62933445	-6.179194e-11	0.056144428	0.056144428	0	77163.87	77261.85	-8.264463e-06	660542.06	220231.81	-0.00010592597	218992.62	661251.94	1.9161605e-05
0	0.6283906	0.62918764	7.3026835e-11	0.05600269	0.05600269	0	77145.98	77243.836	1.1105372e-05	660644.56	219924.9	2.3539103e-05	218685.73	661353.8	0.00010907376
0	0.628244	0.6290401	-3.5530365e-10	0.055861466	0.055861466	0	77127.984	77225.71	-4.2355372e-05	660747.1	219616.83	-0.00021185193	218377.66	661455.75	-0.00027121042
0	0.6280961	0.6288911	-3.0615097e-10	0.0557201	0.0557201	0	77109.82	77207.43	-3.8481405e-05	660850.6	219305.64	-0.00029129643	218066.53	661558.8	-0.00013413125
0	0.6279486	0.6287427	-3.314295e-10	0.055578496	0.0555785	0	77091.71	77189.2	-4.0805786e-05	660953.56	218995.86	-0.00022656388	217756.72	661661	-0.00022699134
0	0.62780195	0.62859523	-5.701711e-10	0.055437103	0.055437103	0	77073.72	77171.1	-7.128099e-05	661055.06	218688.88	-0.00043841582	217449.64	661762.06	-0.00037144037
0	0.6276521	0.62844425	-3.5811237e-10	0.055295877	0.055295877	0	77055.32	77152.58	-4.4938017e-05	661159.3	218374.28	-0.00027952687	217135.11	661865.75	-0.00024615295
0	0.62750435	0.62829554	-1.0954026e-10	0.055154506	0.05515451	0	77037.18	77134.305	-1.0847108e-05	661261.75	218064.6	-0.00012063791	216825.45	661967.5	-1.3265727e-05
0	0.6273563	0.6281466	-3.2440767e-10	0.055012777	0.055012774	0	77019	77116.016	-4.0289255e-05	661363.8	217754.95	-0.00024127582	216515.75	662068.94	-0.00020340782
0	0.6272061	0.62799525	-1.6711911e-10	0.05487154	0.05487154	0	77000.56	77097.45	-2.1694215e-05	661467.75	217440.28	-0.00015888896	216201.19	662172.2	-7.959436e-05
0	0.6270575	0.62784564	-2.4295466e-10	0.054730177	0.054730177	0	76982.32	77079.086	-2.9700414e-05	661569.56	217130.02	-0.00013240745	215890.86	662273.5	-0.00020782973
0	0.6269054	0.6276926	-4.0305195e-10	0.054588553	0.054588553	0	76963.65	77060.27	-4.8295453e-05	661674.4	216811.81	-0.00025304538	215572.73	662377.6	-0.00029479395
0	0.6267567	0.62754285	-2.9632044e-10	0.054447178	0.05444718	0	76945.4	77041.914	-3.693182e-05	661776	216501.62	-0.00025598775	215262.53	662478.75	-0.00016655857
0	0.6266047	0.6273898	-2.0784562e-10	0.054305963	0.054305963	0	76926.734	77023.12	-2.4018595e-05	661880.2	216184.17	-0.0002677573	214945.17	662582.2	-3.169035e-05
0	0.62645364	0.6272377	-1.446493e-10	0.054164227	0.05416423	0	76908.195	77004.445	-1.911157e-05	661983.3	215869.25	-0.00012652269	214630.3	662684.6	-7.29615e-05
0	0.6263035	0.62708664	1.263926e-11	0.05402285	0.05402285	0	76889.76	76985.89	1.0330579e-06	662085	215556.89	-2.0596717e-05	214317.88	662785.9	3.0953364e-05
0	0.6261494	0.6269313	-1.02518445e-10	0.053881627	0.053881627	0	76870.836	76966.836	-1.213843e-05	662190.1	215235.52	-0.00011475314	213996.67	662890.2	-4.274512e-05
0	0.62599915	0.62678003	-3.089597e-11	0.053740222	0.053740222	0	76852.38	76948.26	-4.1322314e-06	662291.75	214923.12	-0.00012063791	213684.27	662991.25	6.7802604e-05
0	0.6258454	0.62662524	-4.69057e-10	0.05359863	0.05359863	0	76833.51	76929.25	-5.8626032e-05	662395.56	214603.55	-0.00029129643	213364.72	663094.44	-0.00039207595
0	0.62569284	0.6264715	-1.7975837e-10	0.053457264	0.053457264	0	76814.78	76910.39	-2.1694215e-05	662498.9	214286.25	-0.00016183134	213047.56	663197	-9.7282e-05
0	0.62553835	0.6263159	-5.1961404e-11	0.053315885	0.053315885	0	76795.82	76891.27	-6.9731404e-06	662603.2	213965.06	-6.1790146e-05	212726.53	663300.6	4.421909e-06
0	0.62538445	0.62616086	-2.7665936e-10	0.053174306	0.053174306	0	76776.92	76872.24	-3.3316115e-05	662706.6	213645.61	-0.00025304538	212407.17	663403.44	-0.000117917574
0	0.625231	0.6260063	-3.7075162e-10	0.05303293	0.05303294	0	76758.08	76853.266	-4.4679753e-05	662809.25	213327.72	-0.0002706997	212089.3	663505.4	-0.000243205
0	0.6250763	0.62585044	-2.7806374e-10	0.05289167	0.05289167	0	76739.086	76834.14	-3.4349174e-05	662912.75	213007.11	-0.00015594656	211768.8	663608.25	-0.00025057484
0	0.62491983	0.62569284	-4.620352e-10	0.052750286	0.052750282	0	76719.88	76814.78	-5.7592973e-05	663017.44	212682.86	-0.00040016478	211444.69	663712.2	-0.0002623666
0	0.62476563	0.6255376	-2.2750668e-10	0.05260872	0.05260872	0	76700.945	76795.73	-3.073347e-05	663119.9	212364.1	-0.00019419761	211125.97	663814	-0.00016066269
0	0.62460834	0.62537897	-2.892986e-10	0.052467346	0.052467346	0	76681.64	76776.266	-3.357438e-05	663224.94	212038.23	-0.00025893014	210800.31	663918.2	-0.00012823536
0	0.62445325	0.6252228	-5.1118787e-10	0.052325953	0.052325957	0	76662.6	76757.09	-6.172521e-05	663327.4	211718.22	-0.00040016478	210480.38	664020.06	-0.00033016922
0	0.62429535	0.6250637	-4.3816104e-10	0.05218439	0.052184395	0	76643.22	76737.55	-5.371901e-05	663432.4	211391.61	-0.0003177779	210153.95	664124.25	-0.00030805968
0	0.6241396	0.62490684	-3.538993e-10	0.052042976	0.05204298	0	76624.09	76718.28	-4.1580577e-05	663534.9	211070.42	-0.00019714	209832.88	664226.2	-0.0003065857
0	0.6239815	0.6247475	-2.3874158e-10	0.051901743	0.051901743	0	76604.69	76698.734	-2.7376032e-05	663639	210744.52	-0.00020008239	209507.08	664329.56	-0.000106125815
0	0.6238239	0.6245887	-2.4435903e-10	0.051760364	0.051760364	0	76585.35	76679.234	-3.1637395e-05	663742.75	210419.6	-0.00025010298	209182.34	664432.56	-9.4334064e-05
0	0.62366563	0.6244293	-2.0924998e-10	0.05161865	0.05161865	0	76565.914	76659.664	-2.5309917e-05	663846.6	210093.64	-0.0001471194	208856.55	664535.56	-0.00013265727
0	0.62350655	0.6242689	-3.201946e-10	0.051477425	0.051477425	0	76546.38	76639.97	-3.693182e-05	663950.7	209766.16	-0.00019419761	208529.23	664639	-0.00024910088
0	0.6233476	0.62410873	-2.794681e-10	0.051336035	0.051336035	0	76526.875	76620.32	-3.6415287e-05	664054.5	209439.28	-0.0002706997	208202.52	664742.06	-0.00012970934
0	0.6231879	0.62394786	-1.08135896e-10	0.05119444	0.051194444	0	76507.26	76600.55	-1.34297525e-05	664158.56	209111.02	-0.00015300418	207874.4	664845.4	-2.9479394e-05
0	0.6230279	0.6237865	-2.2188923e-10	0.051053066	0.051053066	0	76487.61	76580.76	-2.8538223e-05	664262.7	208782.34	-0.00020596717	207545.94	664948.75	-0.00012823536
0	0.6228672	0.62362456	-4.493959e-10	0.05091182	0.05091182	0	76467.88	76560.87	-5.3977274e-05	664366.94	208452.48	-0.00036191373	207216.3	665052.2	-0.00025647072
0	0.62270486	0.6234609	-2.90703e-10	0.05077012	0.05077012	0	76447.95	76540.766	-3.7964877e-05	664472.44	208119.08	-0.00023539104	206883.16	665156.9	-0.00019161605
0	0.6225442	0.6232989	-3.1457714e-10	0.050628737	0.050628737	0	76428.234	76520.89	-3.52531e-05	664576.25	207789.77	-0.00025304538	206554.1	665259.9	-0.00016508461
0	0.62238306	0.6231366	-3.0053351e-10	0.0504875	0.0504875	0	76408.45	76500.96	-3.7835744e-05	664679.7	207460.14	-0.00019714	206224.58	665362.6	-0.00022109546
0	0.6222214	0.6229736	-2.3312413e-10	0.050346084	0.05034608	0	76388.61	76480.95	-2.6859505e-05	664783.7	207129.1	-9.7098804e-05	205893.8	665465.9	-0.00021814751
0	0.6220576	0.62280834	-3.9322143e-10	0.050204538	0.050204534	0	76368.51	76460.67	-4.8811984e-05	664889.1	206793.67	-0.00028835403	205558.69	665570.44	-0.00027268438
0	0.6218943	0.6226437	-3.2300332e-10	0.05006314	0.050063137	0	76348.45	76440.46	-4.2355372e-05	664993.7	206459.8	-0.00031483552	205225.08	665674.2	-0.0001754024
0	0.6217326	0.6224807	-4.2692613e-10	0.049921747	0.049921747	0	76328.59	76420.445	-5.0103306e-05	665096.75	206129.7	-0.00021479433	204895.2	665776.44	-0.00037659926
0	0.6215683	0.6223151	-5.561275e-10	0.049780212	0.049780212	0	76308.43	76400.11	-6.663223e-05	665201.4	205794.48	-0.00040899194	204560.22	665880.25	-0.0003743883
0	0.6214042	0.6221495	-2.303154e-10	0.04963881	0.04963881	0	76288.27	76379.78	-2.9571282e-05	665305.8	205459.44	-0.00013829223	204225.44	665983.9	-0.00020635576
0	0.6212386	0.6219824	-3.7636907e-10	0.04949754	0.04949754	0	76267.945	76359.26	-4.5454544e-05	665411.2	205121.45	-0.00031189312	203887.83	666088.44	-0.00021667355
0	0.6210733	0.62181586	-3.2581204e-10	0.04935615	0.04935615	0	76247.66	76338.82	-4.0289255e-05	665515.7	204785	-0.00019125523	203551.64	666192	-0.00028005423
0	0.6209079	0.621649	-3.5951675e-10	0.04921461	0.04921461	0	76227.34	76318.336	-4.5325414e-05	665620.1	204448.22	-0.00028541163	203215.16	666295.7	-0.0002240434
0	0.6207428	0.6214827	-2.5559393e-10	0.04907322	0.049073216	0	76207.08	76297.9	-3.2541324e-05	665723.75	204112.77	-0.00025010298	202879.92	666398.56	-8.991215e-05
0	0.62057525	0.62131345	-2.794681e-10	0.048931822	0.048931822	0	76186.51	76277.13	-3.305785e-05	665829.56	203771.53	-0.00025598775	202539.05	666503.4	-0.00014887094
0	0.6204086	0.6211454	-2.1908052e-10	0.048790295	0.0487903	0	76166.055	76256.5	-2.660124e-05	665934	203433.03	-0.00012946507	202200.94	666607	-0.00016803255
0	0.6202421	0.6209776	-3.538993e-10	0.048648853	0.048648853	0	76145.61	76235.89	-4.338843e-05	666037.9	203095.4	-0.00023244866	201863.6	666710.06	-0.00029037203
0	0.6200734	0.6208073	-2.0503689e-10	0.048507623	0.048507623	0	76124.89	76214.99	-2.5051653e-05	666143.56	202752.7	-0.00020890955	201521.25	666814.8	-6.33807e-05
0	0.6199052	0.6206376	-1.3903187e-10	0.04836622	0.04836622	0	76104.24	76194.164	-1.846591e-05	666248.25	202411.8	-0.00016183134	201180.69	666918.56	-2.9479394e-05
0	0.6197364	0.6204673	-3.791778e-10	0.04822453	0.04822453	0	76083.52	76173.25	-4.571281e-05	666353.1	202069.73	-0.00035602896	200839.02	667022.6	-0.00018424621
0	0.61956686	0.62029636	-1.1937079e-10	0.048083294	0.048083298	0	76062.71	76152.27	-1.4075414e-05	666458.06	201726.81	-0.000102983584	200496.4	667126.7	-5.7484816e-05
0	0.6193975	0.6201255	-1.4605367e-10	0.04794189	0.04794189	0	76041.93	76131.27	-1.678719e-05	666562.94	201384.03	-0.0001706585	200154.06	667230.6	-2.6531454e-05
0	0.6192292	0.61995566	-2.8508554e-10	0.04780034	0.047800336	0	76021.25	76110.45	-3.2799588e-05	666666.3	201044.27	-0.00015888896	199814.55	667333.25	-0.00022256942
0	0.6190581	0.6197831	-4.3675666e-10	0.047658943	0.047658943	0	76000.25	76089.26	-5.216942e-05	666771.6	200698.62	-0.00025304538	199469.28	667437.56	-0.0003552267
0	0.6188876	0.6196111	-3.5249492e-10	0.0475177	0.047517695	0	75979.31	76068.13	-4.2484506e-05	666876.3	200354.39	-0.00038545285	199125.47	667541.4	-0.00011496963
0	0.6187145	0.61943626	-6.179194e-11	0.04737629	0.04737629	0	75958.07	76046.67	-7.6188016e-06	666982.7	200004.77	-9.7098804e-05	198776.34	667646.75	-5.895879e-06
0	0.6185436	0.61926377	-2.4576338e-10	0.047234613	0.047234613	0	75937.08	76025.5	-2.9700414e-05	667087.1	199660.16	-0.00024716058	198432.19	667750.3	-0.00010907376
0	0.61837137	0.61908984	-1.4043622e-10	0.047093377	0.04709337	0	75915.94	76004.15	-1.6012396e-05	667192.3	199312.95	-0.00014417701	198085.44	667854.44	-3.611226e-05
0	0.61819845	0.6189153	-3.3002512e-10	0.04695193	0.04695193	0	75894.71	75982.73	-4.0289255e-05	667297.4	198964.9	-0.00022656388	197737.83	667958.7	-0.00027121042
0	0.6180262	0.61874163	-2.1908052e-10	0.046810426	0.046810426	0	75873.57	75961.41	-2.5955578e-05	667401.6	198618.81	-0.00017654328	197392.12	668061.94	-0.00012528742
0	0.6178527	0.61856645	-4.4518284e-10	0.04666901	0.04666901	0	75852.266	75939.9	-5.4752065e-05	667506.6	198270.05	-0.00025304538	197043.8	668165.94	-0.0003839691
0	0.6176786	0.61839074	-2.5840266e-10	0.04652778	0.04652778	0	75830.89	75918.32	-3.3832646e-05	667611.8	197920.11	-0.00025010298	196694.34	668270.1	-0.00015181888
0	0.61750245	0.6182129	-2.008238e-10	0.046386104	0.046386104	0	75809.27	75896.49	-2.376033e-05	667718.2	197566.28	-0.00018831283	196341.06	668375.5	-9.138612e-05
0	0.6173279	0.61803657	-2.0784562e-10	0.046244692	0.046244696	0	75787.836	75874.84	-2.4147726e-05	667823.06	197215.97	-0.00023244866	195991.25	668479.44	-6.6328634e-05
0	0.6171531	0.6178602	-1.9801508e-10	0.046103455	0.046103455	0	75766.38	75853.195	-2.3889463e-05	667927.6	196865.98	-0.00011181075	195641.73	668583	-0.00017687636
0	0.6169756	0.6176809	-3.9883888e-10	0.045961995	0.045961995	0	75744.586	75831.19	-5.036157e-05	668033.94	196510.02	-0.00024716058	195286.3	668688.3	-0.0003360651
0	0.6168012	0.617505	-3.384513e-10	0.045820504	0.045820504	0	75723.195	75809.58	-4.003099e-05	668137.6	196161.33	-0.00032660508	194938.08	668791.06	-0.00014444903
0	0.61662394	0.6173259	-2.3874158e-10	0.045679096	0.045679096	0	75701.414	75787.59	-2.8538223e-05	668243.2	195806.6	-0.00020008239	194583.89	668895.6	-0.00014444903
0	0.6164451	0.6171453	-2.3593286e-10	0.045537677	0.045537677	0	75679.46	75765.42	-2.9829545e-05	668349.6	195448.81	-0.00018242806	194226.72	669000.9	-0.00013707919
0	0.61626863	0.6169671	-4.2130868e-11	0.04539619	0.04539619	0	75657.79	75743.54	-6.198347e-06	668453.94	195096.31	-8.532925e-05	193874.73	669104.25	3.6849244e-05
0	0.61608875	0.6167854	-2.90703e-10	0.045254778	0.045254778	0	75635.72	75721.234	-3.7448346e-05	668560.4	194737.05	-0.00021185193	193516.1	669209.7	-0.00019014209
0	0.6159115	0.61660635	-1.2498824e-10	0.045113493	0.045113485	0	75613.95	75699.27	-1.330062e-05	668664.7	194383.7	-0.00012063791	193163.28	669312.94	-1.1791758e-05