# t (s)	mx ()	my ()	mz ()	B_extx (T)	B_exty (T)	B_extz (T)	m_fullx (A/m)	m_fully (A/m)	m_fullz (A/m)	m_full.region1x (A/m)	m_full.region1y (A/m)	m_full.region1z (A/m)	m_full.region2x (A/m)	m_full.region2y (A/m)	m_full.region2z (A/m)
0	0.6548211	0.65481764	-4.1057832e-10	0.0707108	0.07071081	0	95296.68	95296.18	-5.8641974e-05	623446.8	293300.06	-0.00031175773	293302.78	623444.6	-0.0002857779
0	0.6545989	0.6545983	-4.318151e-10	0.070357226	0.070357226	0	95264.336	95264.26	-5.478395e-05	623649.8	292788.4	-0.00037114014	292788.66	623649.25	-0.0002523753
0	0.6543725	0.654372	-1.9821023e-10	0.07000352	0.07000352	0	95231.39	95231.32	-3.395062e-05	623861.2	292260.12	-0.00020783849	292260.2	623860.75	-0.00013175476
0	0.6541443	0.65414387	-3.114732e-10	0.06964997	0.06964997	0	95198.18	95198.12	-4.7839505e-05	624073.56	291728.34	-0.00017814727	291728.4	624073.06	-0.00030804632
0	0.65391564	0.65391517	-2.2652596e-10	0.06929652	0.06929652	0	95164.91	95164.836	-3.317901e-05	624285.4	291196.38	-0.00020041567	291196.47	624284.8	-9.0001486e-05
0	0.65368545	0.65368503	-4.5305193e-10	0.068942994	0.068943	0	95131.41	95131.336	-6.558642e-05	624497.44	290661.94	-0.00039340855	290662.06	624497.1	-0.0002597981
0	0.6534542	0.6534538	-1.557366e-10	0.06858927	0.06858928	0	95097.76	95097.695	-1.5432099e-05	624709.2	290126.62	-8.9073634e-05	290126.75	624708.6	-0.000111342044
0	0.6532211	0.65322065	-2.9731534e-10	0.06823573	0.06823574	0	95063.82	95063.766	-4.6296296e-05	624923.6	289585.78	-0.00018557007	289585.94	624923.1	-0.0002616538
0	0.6529866	0.6529861	-1.1326298e-10	0.06788226	0.06788226	0	95029.695	95029.64	-1.697531e-05	625137.06	289043.94	-7.422803e-06	289044.06	625136.6	-0.00015959026
0	0.6527512	0.65275073	-6.087885e-10	0.067528725	0.067528725	0	94995.44	94995.375	-8.333333e-05	625351.06	288500.4	-0.0005047506	288500.56	625350.56	-0.00037485154
0	0.65251374	0.65251327	-5.8755173e-10	0.067175	0.067175	0	94960.89	94960.82	-8.410494e-05	625565.7	287953.4	-0.00047505938	287953.53	625565.2	-0.0003491037
0	0.65227515	0.65227467	-4.742887e-10	0.066821694	0.0668217	0	94926.164	94926.09	-6.481481e-05	625780.7	287404.34	-0.00044536818	287404.47	625780.25	-0.00023289044
0	0.65203536	0.65203476	-4.8136767e-10	0.06646816	0.06646815	0	94891.266	94891.195	-7.2530864e-05	625996.06	286853.25	-0.00036371735	286853.44	625995.5	-0.00035815022
0	0.6517944	0.6517939	-2.1944703e-10	0.066114426	0.06611443	0	94856.2	94856.125	-2.8549382e-05	626210.3	286301.72	-0.00029691213	286301.8	626209.75	7.422803e-06
0	0.65155107	0.65155053	-7.574462e-10	0.06576091	0.06576091	0	94820.79	94820.71	-0.0001095679	626428.2	285743.16	-0.0005047506	285743.28	626427.6	-0.000601247
0	0.65130705	0.6513066	-3.114732e-10	0.06540741	0.06540741	0	94785.28	94785.21	-4.243827e-05	626644.4	285185.4	-0.00018557007	285185.56	626643.94	-0.0002468082
0	0.6510613	0.6510609	-6.937358e-10	0.06505392	0.06505392	0	94749.52	94749.445	-9.8765435e-05	626860.56	284625.12	-0.00040639847	284625.3	626860	-0.00059846346
0	0.65081346	0.650813	-5.663149e-11	0.0647002	0.0647002	0	94713.445	94713.37	-6.1728397e-06	627079.1	284059.6	2.9691211e-05	284059.78	627078.5	-6.123813e-05
0	0.65056574	0.65056527	-6.0170957e-10	0.06434667	0.06434667	0	94677.4	94677.32	-8.1790124e-05	627296.44	283495.5	-0.00046021378	283495.7	627295.9	-0.00041846052
0	0.6503158	0.65031534	-3.5394684e-11	0.06399316	0.06399316	0	94641.02	94640.95	-6.1728397e-06	627514.06	282927.88	3.7114016e-05	282928.03	627513.5	-8.536223e-05
0	0.6500646	0.6500641	-2.9731534e-10	0.06363963	0.06363963	0	94604.47	94604.4	-4.1666666e-05	627732.5	282357.75	-0.00017814727	282357.9	627732	-0.0002412411
0	0.64981174	0.6498112	-6.3002537e-10	0.063285924	0.063285924	0	94567.664	94567.59	-8.487654e-05	627951.2	281785	-0.00032660333	281785.2	627950.7	-0.0005195962
0	0.64955485	0.6495543	-1.1326298e-10	0.06293259	0.062932596	0	94530.266	94530.2	-1.4660493e-05	628171.1	281205.5	-0.00012618765	281205.7	628170.56	-8.165083e-05
0	0.6493007	0.64930016	-1.8405234e-10	0.062579066	0.062579066	0	94493.29	94493.21	-2.7006174e-05	628391.25	280629.56	-0.000111342044	280629.75	628390.6	-0.00017072447
0	0.6490437	0.64904314	-2.9731534e-10	0.062225346	0.062225346	0	94455.9	94455.81	-4.0123457e-05	628610.75	280050.22	-0.00018557007	280050.44	628610.1	-0.00016330167
0	0.64878404	0.6487835	-2.6192065e-10	0.06187184	0.06187184	0	94418.09	94418.03	-4.3209875e-05	628831.4	279466.1	-0.00015587886	279466.28	628830.8	-0.00019670428
0	0.6485233	0.64852273	-2.2652596e-10	0.0615183	0.0615183	0	94380.15	94380.07	-3.4722223e-05	629052.56	278879.8	-0.0002597981	278880	629052	-9.092934e-05
0	0.6482619	0.6482614	-4.742887e-10	0.061164834	0.061164834	0	94342.14	94342.05	-6.404321e-05	629273.44	278293.16	-0.00023752969	278293.4	629272.9	-0.00041196556
0	0.64799625	0.64799565	1.1326298e-10	0.06081112	0.06081112	0	94303.445	94303.375	1.2345679e-05	629496.75	277697.78	-5.195962e-05	277697.97	629496.1	0.00020041567
0	0.64773273	0.64773214	-1.4865767e-10	0.060457617	0.06045761	0	94265.1	94265.016	-2.0061729e-05	629717.5	277108.16	-0.000118764845	277108.3	629716.94	-6.958878e-05
0	0.64746356	0.64746296	-1.6989447e-10	0.060104065	0.060104065	0	94225.93	94225.86	-2.3148148e-05	629940.25	276508.6	-0.00020041567	276508.75	629939.7	-6.309382e-05
0	0.6471968	0.6471963	-1.6281554e-10	0.05975055	0.059750553	0	94187.12	94187.02	-2.0061729e-05	630162	275913.38	-7.793943e-05	275913.56	630161.4	-0.00010391924
0	0.6469273	0.6469267	-4.672098e-10	0.059396844	0.059396844	0	94147.875	94147.81	-6.790124e-05	630386.25	275311.72	-0.00039340855	275311.97	630385.6	-0.00030619063
0	0.6466546	0.64665407	-1.2742085e-10	0.059043482	0.059043482	0	94108.21	94108.125	-2.3148148e-05	630609.25	274707.06	0	274707.25	630608.6	-0.00018278652
0	0.64638245	0.6463819	-1.2742085e-10	0.058689967	0.05868997	0	94068.59	94068.516	-1.5432099e-05	630833.7	274101.5	-0.00010345531	274101.75	630833.06	-2.5051959e-05
0	0.64610785	0.64610726	-5.3092025e-10	0.05833626	0.05833626	0	94028.64	94028.55	-7.638889e-05	631057.8	273493	-0.00040825416	273493.2	631057.1	-0.00038227436
0	0.6458302	0.6458296	-4.1057832e-10	0.057982776	0.057982776	0	93988.234	93988.14	-6.0185186e-05	631283.9	272878.12	-0.00020783849	272878.38	631283.3	-0.00039711996
0	0.6455523	0.64555174	-3.893415e-10	0.05762919	0.057629194	0	93947.78	93947.695	-6.0185186e-05	631508.44	272264.47	-0.0002820665	272264.72	631507.9	-0.0003006235
0	0.6452714	0.6452708	-5.1676236e-10	0.057275698	0.057275698	0	93906.914	93906.82	-7.407407e-05	631734.9	271644.9	-0.00041567697	271645.16	631734.2	-0.00031268556
0	0.6449884	0.64498776	-1.7697341e-10	0.056922045	0.056922045	0	93865.73	93865.63	-2.7777778e-05	631961.94	271021.53	-0.000118764845	271021.78	631961.4	-0.00016886876
0	0.6447071	0.6447064	-4.8136767e-10	0.05656855	0.05656855	0	93824.78	93824.69	-7.021605e-05	632186.4	270403.25	-0.0003043349	270403.5	632185.75	-0.0003961921
0	0.644422	0.6444213	-1.2034192e-10	0.05621495	0.05621495	0	93783.29	93783.195	-1.2345679e-05	632413.9	269776.6	-8.165083e-05	269776.88	632413.25	-4.8248217e-05
0	0.6441351	0.6441345	-3.893415e-10	0.055861466	0.055861466	0	93741.55	93741.45	-5.8738427e-05	632640.7	269148.38	-0.0002894893	269148.62	632640	-0.0003043349
0	0.64384514	0.6438445	-4.318151e-10	0.055507764	0.05550777	0	93699.336	93699.24	-6.0185186e-05	632869.56	268513.34	-0.00035815022	268513.6	632868.94	-0.0002523753
0	0.6435566	0.64355594	-2.0528916e-10	0.055154365	0.055154365	0	93657.35	93657.26	-3.2407406e-05	633096.06	267882.88	-0.000118764845	267883.16	633095.44	-0.0002412411
0	0.6432633	0.6432627	-4.5305193e-10	0.05480088	0.05480088	0	93614.664	93614.57	-6.404321e-05	633325.25	267243.03	-0.00038598574	267243.28	633324.7	-0.00023752969
0	0.6429711	0.6429705	-2.9731534e-10	0.05444718	0.05444719	0	93572.13	93572.05	-4.3981483e-05	633552.56	266606.66	-0.00021433343	266606.94	633551.94	-0.00017072447
0	0.6426746	0.64267397	-3.1855213e-10	0.054093715	0.054093715	0	93529	93528.9	-4.552469e-05	633782.56	265961.6	-0.00020041567	265961.88	633781.94	-0.00020969418
0	0.6423764	0.64237577	-2.548417e-10	0.053740077	0.053740077	0	93485.6	93485.5	-3.317901e-05	634012.6	265314.12	-0.0002746437	265314.44	634012	-8.165083e-05
0	0.6420781	0.6420774	-3.893415e-10	0.053386603	0.053386603	0	93442.17	93442.08	-5.169753e-05	634241.6	264667.4	-0.000111342044	264667.7	634241	-0.0004110377
0	0.6417772	0.6417765	-3.8226255e-10	0.05303296	0.05303296	0	93398.4	93398.3	-5.5555556e-05	634471.6	264016.28	-0.00023752969	264016.56	634470.9	-0.00029250482
0	0.641474	0.6414733	-1.557366e-10	0.052679494	0.052679494	0	93354.266	93354.164	-2.0061729e-05	634702.3	263360.9	-0.00014845606	263361.22	634701.6	-5.5671022e-05
0	0.6411678	0.6411671	-2.9731534e-10	0.052325834	0.052325834	0	93309.695	93309.6	-4.1666666e-05	634934.8	262699.78	-0.00023521007	262700.1	634934.06	-0.00022268409
0	0.6408603	0.64085966	-5.8755173e-10	0.051972378	0.051972378	0	93264.97	93264.86	-8.873457e-05	635166.8	262037.4	-0.00043794536	262037.7	635166.2	-0.00043423395
0	0.64055437	0.64055353	-2.4776278e-10	0.051618688	0.051618688	0	93220.43	93220.31	-3.6265432e-05	635396.25	261379.44	-0.00017814727	261379.73	635395.56	-0.00017443587
0	0.6402423	0.64024156	-7.645251e-10	0.051265243	0.051265243	0	93175.01	93174.9	-0.00011342593	635628.8	260710.03	-0.0004676366	260710.4	635628.06	-0.00066805223
0	0.6399305	0.63992983	-1.557366e-10	0.050911777	0.050911777	0	93129.65	93129.53	-2.5462963e-05	635861.94	260040.55	-0.0002597981	260040.84	635861.2	1.4845606e-05
0	0.6396151	0.6396144	-4.5305193e-10	0.050558098	0.050558098	0	93083.734	93083.63	-6.9444446e-05	636095.75	259365.16	-0.0002894893	259365.45	636095.06	-0.00041196556
0	0.6393004	0.6392997	-3.9642045e-10	0.050204657	0.050204657	0	93037.94	93037.83	-5.324074e-05	636327.5	258692.66	-0.00017814727	258692.98	636326.9	-0.0003665009
0	0.63898075	0.63898003	-4.6013088e-10	0.04985097	0.04985097	0	92991.43	92991.32	-6.867284e-05	636561.1	258011.64	-0.00035629453	258011.97	636560.4	-0.00034608817
0	0.6386587	0.6386579	-6.3710426e-10	0.049497515	0.049497515	0	92944.55	92944.44	-9.259259e-05	636797.9	257323.97	-0.0005195962	257324.33	636797.1	-0.00040454275
0	0.63833874	0.63833797	-4.45973e-10	0.049143884	0.049143884	0	92897.984	92897.875	-6.712963e-05	637029.3	256644.6	-0.0002820665	256644.92	637028.56	-0.0003572224
0	0.63801515	0.6380144	-2.4068383e-10	0.048790433	0.048790433	0	92850.89	92850.77	-3.7037036e-05	637263.9	255956.89	-0.00013361045	255957.22	637263.2	-0.00021154988
0	0.637687	0.6376862	-3.3978895e-10	0.048436742	0.04843674	0	92803.14	92803.02	-5.0925926e-05	637499.75	255261.64	-0.00031175773	255262.02	637499.06	-0.00019392073
0	0.6373604	0.6373597	-6.795779e-10	0.048083298	0.048083298	0	92755.61	92755.49	-9.799383e-05	637734.7	254569.53	-0.0005195962	254569.89	637733.94	-0.00050289487
0	0.637031	0.63703024	-4.247362e-10	0.047729615	0.047729615	0	92707.67	92707.555	-6.481481e-05	637970	253873.05	-0.00036371735	253873.44	637969.3	-0.00029227286
0	0.6366979	0.63669705	-1.1326298e-10	0.047376156	0.047376156	0	92659.18	92659.07	-1.697531e-05	638207.3	253169.25	-2.2268408e-05	253169.64	638206.6	-0.00015587886
0	0.6363625	0.63636166	-6.229464e-10	0.04702269	0.04702269	0	92610.38	92610.266	-9.1820984e-05	638445	252462.12	-0.0005195962	252462.52	638444.25	-0.00040454275
0	0.6360259	0.6360251	-2.7607852e-10	0.04666901	0.04666901	0	92561.4	92561.28	-4.0123457e-05	638681.94	251753.86	-0.00022268409	251754.25	638681.2	-0.00016144596
0	0.6356885	0.63568765	-4.6013088e-10	0.046315566	0.046315566	0	92512.305	92512.19	-6.867284e-05	638917.7	251045.89	-0.00043794536	251046.28	638916.9	-0.0002449525
0	0.63534564	0.6353448	-1.2742085e-10	0.045961883	0.045961883	0	92462.4	92462.27	-1.4660493e-05	639157.7	250325.8	-0.000111342044	250326.17	639156.9	-2.597981e-05
0	0.63500386	0.635003	-2.123681e-11	0.045608424	0.045608424	0	92412.664	92412.54	-7.7160496e-07	639394.7	249610.39	-0.000118764845	249610.83	639393.8	8.9073634e-05
0	0.6346581	0.63465726	-5.3092025e-10	0.04525481	0.04525481	0	92362.336	92362.21	-8.0246915e-05	639633.6	248887.22	-0.0005344418	248887.62	639632.9	-0.0002523753
0	0.6343115	0.6343106	-1.6989447e-10	0.044901337	0.044901337	0	92311.91	92311.78	-1.8518518e-05	639871.8	248163.89	-7.422803e-05	248164.31	639870.94	-0.00016701306
0	0.63396275	0.63396186	-2.7607852e-10	0.04454767	0.04454767	0	92261.16	92261.02	-4.0123457e-05	640110.06	247437.36	-0.00018557007	247437.81	640109.25	-0.00019763212
0	0.63361	0.6336091	-4.247362e-10	0.044194214	0.04419421	0	92209.81	92209.68	-5.7098765e-05	640349.2	246704.45	-0.000489905	246704.86	640348.3	-0.00017072447
0	0.6332559	0.63325495	-2.8315747e-10	0.043840546	0.043840546	0	92158.27	92158.14	-4.0895062e-05	640590.9	245966.92	-0.00017745138	245967.39	640590.06	-0.00020227137
0	0.6329012	0.63290024	-7.7160406e-10	0.04348707	0.04348707	0	92106.65	92106.52	-0.00011496914	640829	245232.14	-0.00061609264	245232.58	640828.2	-0.0005604216
0	0.63254225	0.63254136	-6.3710426e-11	0.043133598	0.043133598	0	92054.43	92054.3	-1.2345679e-05	641070	244488.75	-0.00017072447	244489.25	641069.1	4.0825416e-05
0	0.6321798	0.6321789	2.4776278e-10	0.04277993	0.042779926	0	92001.67	92001.54	3.395062e-05	641313.25	243738.05	0.00013361045	243738.53	641312.4	0.00018928148
0	0.63181853	0.63181776	-2.336049e-10	0.042426456	0.042426456	0	91949.12	91948.98	-3.6265432e-05	641552.25	242993.34	-0.0002894893	242993.8	641551.4	-0.000111342044
0	0.6314506	0.63144964	-4.5305193e-10	0.042072803	0.042072803	0	91895.55	91895.41	-6.867284e-05	641794.9	242235.53	-0.00039340855	242236.02	641793.94	-0.0002560867
0	0.6310839	0.631083	-5.096834e-10	0.04171932	0.04171932	0	91842.195	91842.05	-7.0987655e-05	642036.5	241480.56	-0.00038598574	241481.03	642035.6	-0.00034423248
0	0.6307139	0.6307128	-2.4068383e-10	0.04136573	0.04136573	0	91788.33	91788.17	-3.5493827e-05	642280.44	240718.31	-0.00022268409	240718.8	642279.6	-0.00010206354
0	0.63034326	0.6303422	-3.5394682e-10	0.041012246	0.041012246	0	91734.4	91734.26	-4.9382717e-05	642521	239959.06	-0.0002672209	239959.56	642520.1	-0.00022639548
0	0.6299669	0.62996584	-2.8315747e-10	0.040658593	0.040658593	0	91679.62	91679.48	-3.4722223e-05	642766.1	239186.94	-0.00023057082	239187.48	642765.2	-0.00015587886
0	0.6295911	0.62959015	-7.78683e-11	0.040305126	0.040305126	0	91624.94	91624.79	-9.259259e-06	643007.5	238419.6	-8.9073634e-05	238420.11	643006.6	-8.350653e-06
0	0.6292093	0.6292083	-4.9552557e-11	0.03995147	0.03995147	0	91569.38	91569.23	-1.0127314e-05	643253.9	237638.72	-3.7114016e-05	237639.27	643252.9	-2.2268408e-05
0	0.62882835	0.6288274	-3.1855213e-10	0.03959798	0.039597984	0	91513.95	91513.79	-4.4753087e-05	643495.44	236863.73	-0.00028485007	236864.3	643494.7	-0.00016701306
0	0.6284443	0.6284432	-5.096834e-10	0.0392445	0.0392445	0	91458.04	91457.89	-7.021605e-05	643739.8	236081.66	-0.00020783849	236082.19	643738.94	-0.0004787708
0	0.6280551	0.628054	-4.247362e-10	0.038890846	0.038890846	0	91401.41	91401.25	-5.7098765e-05	643985.56	235291.02	-0.00039340855	235291.55	643984.7	-0.00021526129
0	0.62766635	0.6276652	-3.0439426e-10	0.03853735	0.038537353	0	91344.82	91344.68	-4.3209875e-05	644232.1	234500.22	-0.00031175773	234500.78	644231.25	-0.000112269896
0	0.6272746	0.62727344	4.247362e-11	0.038183723	0.038183723	0	91287.8	91287.66	4.6296295e-06	644477.5	233706.27	-1.4845606e-05	233706.84	644476.56	6.123813e-05
0	0.62687975	0.62687874	4.247362e-11	0.037830234	0.037830234	0	91230.36	91230.21	3.0864198e-06	644723.44	232907.7	5.195962e-05	232908.3	644722.56	-7.422803e-06
0	0.62648475	0.6264837	-3.114732e-10	0.03747658	0.037476584	0	91172.87	91172.7	-4.3981483e-05	644966.94	232111.12	-0.00037856295	232111.7	644966	-6.494953e-05
0	0.62608415	0.626083	0	0.037123166	0.037123166	0	91114.56	91114.41	7.716049e-06	645213.75	231303.45	2.9691211e-05	231304.03	645212.8	3.7114016e-05
0	0.62567955	0.6256784	-6.5126216e-10	0.036769524	0.036769524	0	91055.69	91055.53	-9.645062e-05	645461.2	230489.61	-0.000564133	230490.25	645460.2	-0.00041938835
0	0.6252768	0.6252756	3.5394684e-11	0.03641604	0.036416043	0	90997.06	90996.9	6.1728397e-06	645707.8	229678.92	-2.2268408e-05	229679.55	645706.94	4.0825416e-05
0	0.6248687	0.62486756	-5.59236e-10	0.0360624	0.0360624	0	90937.68	90937.516	-7.561728e-05	645955.56	228859.95	-0.00038598574	228860.6	645954.5	-0.00039711996
0	0.6244594	0.62445825	-3.9642045e-10	0.0357089	0.0357089	0	90878.12	90877.945	-5.7098765e-05	646202.94	228039.61	-0.0002523753	228040.25	646201.9	-0.0003043349
0	0.6240457	0.62404454	-2.8315747e-10	0.0353554	0.035355404	0	90817.91	90817.75	-3.5493827e-05	646451.44	227211.86	-0.0002449525	227212.52	646450.5	-0.00015216746
0	0.6236278	0.62362653	-4.9552557e-11	0.03500176	0.03500176	0	90757.086	90756.914	-7.716049e-06	646700.6	226377.6	3.7114016e-05	226378.25	646699.7	-8.721794e-05
0	0.62321174	0.62321055	-4.742887e-10	0.03464826	0.03464826	0	90696.55	90696.37	-6.867284e-05	646948.94	225546.84	-0.00040825416	225547.52	646947.9	-0.00029876782
0	0.6227885	0.62278724	-7.0789364e-12	0.034294635	0.03429464	0	90634.945	90634.77	1.5432099e-06	647199.06	224704.14	-2.597981e-05	224704.83	647198.1	4.0825416e-05
0	0.622366	0.62236476	-3.893415e-10	0.03394113	0.03394113	0	90573.46	90573.3	-5.4012347e-05	647447.94	223863.78	-0.00032660333	223864.47	647447	-0.00024309679
0	0.6219371	0.62193584	-4.672098e-10	0.0335875	0.0335875	0	90511.04	90510.85	-6.896219e-05	647698.9	223012.36	-0.00038598574	223013.05	647697.8	-0.0003006235
0	0.62150836	0.6215071	-2.9731534e-10	0.033234075	0.033234075	0	90448.65	90448.47	-3.5493827e-05	647948.9	222162.1	-0.00024263287	222162.81	647947.94	-0.00016144596
0	0.62107676	0.6210756	-2.123681e-11	0.032880455	0.032880455	0	90385.836	90385.664	-1.5432099e-06	648198.7	221308.06	0	221308.78	648197.6	1.8557008e-05
0	0.6206408	0.6206396	-5.026045e-10	0.03252696	0.03252696	0	90322.39	90322.23	-7.0987655e-05	648450.2	220446.2	-0.00037856295	220446.98	648449.2	-0.00036000594
0	0.62020296	0.6202017	-4.6013088e-10	0.032173336	0.032173336	0	90258.664	90258.49	-6.095679e-05	648701.4	219582.03	-0.00035258313	219582.77	648700.3	-0.0002857779
0	0.61976004	0.61975867	-2.902364e-10	0.031819817	0.031819817	0	90194.21	90194.02	-4.6296296e-05	648953.25	218710.02	-0.00042309976	218710.78	648952.2	-5.9382422e-05
0	0.6193154	0.619314	-9.202617e-11	0.031466294	0.031466294	0	90129.5	90129.31	-1.9290124e-05	649205.7	217835.14	-0.00016330167	217835.94	649204.56	7.422803e-06
0	0.6188682	0.6188669	-2.1944703e-10	0.031112673	0.031112673	0	90064.44	90064.24	-2.6234567e-05	649460	216954.73	-0.00033217043	216955.52	649458.94	7.422803e-06
0	0.6184195	0.6184181	-3.7518363e-10	0.03075915	0.03075915	0	89999.12	89998.93	-5.8641974e-05	649710.4	216076.1	-0.00031175773	216076.9	649709.25	-0.00021526129
0	0.6179646	0.61796325	-5.096834e-10	0.03040556	0.03040556	0	89932.914	89932.73	-7.021605e-05	649963.7	215185.97	-0.00049732777	215186.77	649962.56	-0.00022639548
0	0.6175094	0.61750805	-2.548417e-10	0.030052032	0.030052032	0	89866.68	89866.48	-3.4722223e-05	650216.6	214295.7	-0.0002746437	214296.53	650215.6	-7.793943e-05
0	0.6170483	0.6170471	-2.123681e-10	0.029698422	0.029698422	0	89799.586	89799.38	-3.2407406e-05	650470.7	213396.17	-0.00031918052	213396.98	650469.6	1.1134204e-05
0	0.6165874	0.6165861	2.8315746e-11	0.029344985	0.029344983	0	89732.516	89732.305	-3.0864198e-06	650724.25	212497.36	-6.680522e-05	212498.25	650723.1	5.9382422e-05
0	0.61612135	0.61612	-5.6631494e-10	0.028991386	0.028991388	0	89664.68	89664.48	-8.410494e-05	650978.8	211590.27	-0.0002820665	211591.12	650977.7	-0.0005585659
0	0.6156518	0.6156503	-5.096834e-10	0.028637849	0.028637847	0	89596.336	89596.12	-7.561728e-05	651234.06	210677.53	-0.0004676366	210678.38	651232.94	-0.0002839222
0	0.6151791	0.61517763	-6.017096e-11	0.028284276	0.028284276	0	89527.555	89527.34	-7.716049e-06	651489.2	209760.72	-9.6496435e-05	209761.6	651488	2.4124109e-05
0	0.614704	0.61470246	-9.202617e-11	0.027930731	0.027930733	0	89458.4	89458.18	-1.5432099e-05	651745.06	208839.66	-0.00017072447	208840.55	651743.9	2.9691211e-05
0	0.61422336	0.61422193	-7.0789364e-12	0.027577182	0.027577182	0	89388.46	89388.25	-2.3148148e-06	652003.7	207908.14	-0.000111342044	207909.06	652002.44	0.00010948634
0	0.61374336	0.6137418	-2.7607852e-10	0.02722359	0.027223594	0	89318.6	89318.375	-3.9351853e-05	652257.1	206982.66	-0.0002672209	206983.58	652255.9	-0.00012618765
0	0.6132585	0.61325693	-3.0439426e-10	0.026870038	0.026870038	0	89248.05	89247.81	-5.0925926e-05	652513.56	206047.42	-0.0001475282	206048.36	652512.4	-0.00033031474
0	0.61276835	0.6127668	-5.804728e-10	0.02651648	0.02651648	0	89176.71	89176.484	-8.719136e-05	652771.2	205103.61	-0.0005418646	205104.56	652769.94	-0.00035443885
0	0.6122777	0.61227614	0	0.026162917	0.026162917	0	89105.3	89105.07	-3.0864198e-06	653027.94	204159.83	-0.00014103325	204160.81	653026.75	0.000115053444
0	0.6117821	0.6117805	-1.4157873e-10	0.025809348	0.025809344	0	89033.17	89032.945	-2.7006174e-05	653285.7	203208.23	-0.00012618765	203209.23	653284.4	-0.00010948634
0	0.61128324	0.61128163	-6.795779e-10	0.025455888	0.025455892	0	88960.57	88960.35	-9.8765435e-05	653543.4	202252.12	-0.00043052257	202253.14	653542.2	-0.0005307304
0	0.61078006	0.6107784	-1.5219713e-10	0.025102329	0.025102329	0	88887.34	88887.11	-2.3148148e-05	653802.06	201288.98	-0.0002449525	201289.98	653800.8	2.2268408e-05
0	0.61027324	0.6102716	-2.9731534e-10	0.024748757	0.024748757	0	88813.58	88813.34	-4.3209875e-05	654061.25	200320.23	-0.00022268409	200321.25	654060	-0.00021526129
0	0.6097631	0.60976154	-2.7253905e-10	0.024395216	0.024395216	0	88739.36	88739.12	-3.5493827e-05	654320.6	199346.69	-0.00020783849	199347.73	654319.3	-0.00018557007
0	0.6092507	0.60924906	-2.79618e-10	0.024041649	0.024041649	0	88664.79	88664.54	-4.3209875e-05	654579.94	198370.02	-0.0002672209	198371.1	654578.75	-0.00012247625
0	0.6087335	0.60873175	-1.9821023e-10	0.023688078	0.023688078	0	88589.5	88589.26	-2.5462963e-05	654839.75	197386.02	-0.0002894893	197387.08	654838.44	7.422803e-06
0	0.6082134	0.6082118	-2.548417e-10	0.023334505	0.023334505	0	88513.836	88513.586	-3.6265432e-05	655100.3	196397.61	-0.00019299287	196398.69	655098.94	-0.00019670428
0	0.60768926	0.6076876	-2.548417e-10	0.022980941	0.022980941	0	88437.55	88437.29	-3.6410107e-05	655360.7	195403.23	-0.00019670428	195404.34	655359.4	-0.00016330167
0	0.6071608	0.6071591	-3.5394684e-11	0.022627406	0.022627404	0	88360.63	88360.38	-1.0030864e-05	655622.44	194401.58	4.0825416e-05	194402.72	655621.1	-0.00010763064
0	0.6066281	0.6066263	-1.058301e-09	0.022273835	0.022273835	0	88283.1	88282.85	-0.00015123456	655884.25	193393.95	-0.00072372326	193395.1	655882.9	-0.0007942399
0	0.6060937	0.6060919	-2.8315747e-10	0.021920273	0.021920273	0	88205.34	88205.07	-4.1666666e-05	656145.7	192384.28	-0.00015959026	192385.42	656144.44	-0.00023010689
0	0.60555255	0.60555065	-4.0703885e-10	0.021566799	0.021566799	0	88126.57	88126.32	-6.0185186e-05	656409.06	191363.23	-0.00042681117	191364.39	656407.7	-0.00020041567
0	0.6050106	0.6050088	-2.6546013e-10	0.021213228	0.021213228	0	88047.71	88047.445	-3.5493827e-05	656671	190342.58	-0.0002338183	190343.78	656669.75	-0.00012989905
0	0.604461	0.60445917	-2.5838118e-10	0.02085966	0.02085966	0	87967.73	87967.47	-4.0123457e-05	656937.56	189306.61	-0.0002857779	189307.83	656936.2	-8.165083e-05
0	0.60391176	0.60390985	-1.6281554e-10	0.020506123	0.020506125	0	87887.805	87887.53	-2.4691359e-05	657198.06	188277.08	-0.0003006235	188278.3	657196.75	-7.422803e-06
0	0.60335606	0.60335416	-4.45973e-10	0.020152563	0.020152563	0	87806.93	87806.66	-6.404321e-05	657462.75	187234.45	-0.00036742873	187235.7	657461.3	-0.0002950564
0	0.60279655	0.6027947	-5.7693333e-10	0.019798992	0.019798992	0	87725.5	87725.22	-8.0246915e-05	657727.3	186186.64	-0.00044536818	186187.92	657725.9	-0.00038598574
0	0.60223275	0.6022309	-3.3978895e-10	0.019445423	0.019445423	0	87643.445	87643.17	-4.7839505e-05	657992.1	185132.39	-0.00032660333	185133.7	657990.75	-0.00013546615
0	0.6016645	0.6016626	-4.0349937e-10	0.019091861	0.019091861	0	87560.76	87560.47	-5.787037e-05	658257.8	184071.14	-0.00033402612	184072.47	658256.44	-0.00023567399
0	0.6010924	0.60109043	-3.2563108e-10	0.018738292	0.018738292	0	87477.5	87477.21	-4.3981483e-05	658523.56	183004.47	-0.00015587886	183005.83	658522.2	-0.0002857779
0	0.60051614	0.6005141	-2.442233e-10	0.018384764	0.018384762	0	87393.63	87393.34	-3.395062e-05	658790.7	181930.53	-0.000254231	181931.92	658789.25	-0.000100207835
0	0.5999335	0.59993154	-3.0085479e-10	0.0180312	0.0180312	0	87308.84	87308.555	-4.0123457e-05	659060.7	180844.84	-0.0002894893	180846.22	659059.3	-0.000100207835
0	0.5993486	0.5993466	-2.4068383e-10	0.017677702	0.017677702	0	87223.71	87223.414	-2.8549382e-05	659328.06	179758.48	-0.00017443587	179759.88	659326.7	-0.00017072447
0	0.59876066	0.59875864	-4.9198606e-10	0.01732413	0.01732413	0	87138.16	87137.87	-7.021605e-05	659592.7	178670.88	-0.00042681117	178672.3	659591.2	-0.0002746437
0	0.5981666	0.5981645	-3.0439426e-10	0.016970566	0.016970566	0	87051.7	87051.39	-4.6296296e-05	659861.9	177569.88	-0.00037114014	177571.3	659860.44	-0.000100207835
0	0.59756833	0.59756625	-1.8405234e-10	0.016617037	0.016617037	0	86964.63	86964.33	-2.7006174e-05	660130.5	176463.7	-0.00017072447	176465.17	660129	-9.6496435e-05
0	0.5969649	0.5969628	1.0618405e-11	0.01626348	0.01626348	0	86876.82	86876.51	1.5432099e-06	660400.4	175348.97	0	175350.42	660398.9	8.582616e-06
0	0.5963566	0.5963545	-6.017096e-11	0.015909908	0.015909908	0	86788.29	86787.984	-1.3888889e-05	660670.94	174226.75	3.7114014e-06	174228.27	660669.5	-0.00010391924
0	0.5957445	0.59574234	-8.8486704e-11	0.015556336	0.015556336	0	86699.22	86698.9	-9.259259e-06	660941.4	173099.47	-0.00012618765	173101.02	660939.75	2.2268408e-05
0	0.5951254	0.5951231	-1.0618405e-10	0.015202781	0.01520278	0	86609.11	86608.79	-1.6203703e-05	661216.1	171957.8	-0.00022222016	171959.34	661214.6	6.494953e-05
0	0.59450513	0.5945029	-2.336049e-10	0.014849211	0.014849211	0	86518.86	86518.52	-3.0864197e-05	661485	170820.61	-0.00021154988	170822.2	661483.5	-0.00015031175
0	0.5938775	0.5938753	0	0.014495694	0.014495694	0	86427.5	86427.19	3.8580247e-06	661757.6	169669.36	-0.00020041567	169670.97	661756.06	0.00021340558
0	0.59324586	0.59324366	-1.557366e-10	0.014142138	0.014142138	0	86335.59	86335.26	-2.6234567e-05	662031.2	168511.45	-0.00018185868	168513.08	662029.6	-4.8248217e-05
0	0.59260786	0.5926056	-9.0610386e-10	0.013788591	0.013788591	0	86242.75	86242.41	-0.00013425926	662305.44	167344	-0.00073485746	167345.66	662303.9	-0.00060495845
0	0.59196466	0.5919624	-1.8405234e-10	0.013435019	0.013435019	0	86149.125	86148.8	-1.9290124e-05	662583.2	166165.72	-0.0002597981	166167.38	662581.56	4.0825416e-05
0	0.59131753	0.59131515	-7.078937e-11	0.01308146	0.013081458	0	86054.95	86054.62	-1.2345679e-05	662858.4	164984.45	-0.0001742039	164986.14	662856.75	4.4536817e-05
0	0.5906647	0.59066224	-2.123681e-10	0.012727944	0.012727944	0	85959.93	85959.59	-2.7777778e-05	663134.6	163794.1	-0.00031175773	163795.83	663133.06	1.4845606e-05
0	0.5900088	0.5900063	-5.238413e-10	0.012374379	0.012374379	0	85864.48	85864.13	-7.79321e-05	663408	162602.44	-0.00042681117	162604.19	663406.44	-0.00034701603
0	0.58934367	0.5893412	6.3710426e-11	0.0120208245	0.012020824	0	85767.695	85767.336	1.0802469e-05	663689.06	161390.36	2.7603548e-05	161392.12	663687.44	9.394485e-05
0	0.5886766	0.58867407	-3.0793373e-10	0.0116672525	0.0116672525	0	85670.6	85670.25	-4.4753087e-05	663964.56	160180.75	-0.00036000594	160182.58	663962.94	-9.464074e-05
0	0.58800197	0.5879996	-1.1326298e-10	0.011313703	0.011313703	0	85572.44	85572.086	-1.4660493e-05	664243.06	158957.94	-6.680522e-05	158959.78	664241.4	-8.165083e-05
0	0.58732253	0.58732	-3.787231e-10	0.010960137	0.010960137	0	85473.555	85473.195	-5.5555556e-05	664523.25	157726.44	-0.00029320072	157728.28	664521.7	-0.0002560867
0	0.58663666	0.5866341	-2.7607852e-10	0.010606614	0.010606614	0	85373.74	85373.37	-4.1666666e-05	664804.4	156485.08	-0.00031175773	156486.97	664802.7	-0.00013732185
0	0.58594286	0.58594036	-2.548417e-10	0.010253062	0.0102530625	0	85272.78	85272.4	-3.858025e-05	665090	155228.19	-0.00026350952	155230.1	665088.3	-9.6496435e-05
0	0.5852466	0.585244	-1.2742085e-10	0.009899495	0.009899496	0	85171.44	85171.07	-1.8518518e-05	665369.75	153973.53	-0.00010391924	153975.45	665368	-0.00010763064
0	0.584544	0.5845414	-3.9642045e-10	0.009545931	0.009545931	0	85069.195	85068.81	-5.941358e-05	665653.1	152706.5	-0.00034887175	152708.47	665651.44	-0.0002338183
0	0.5838342	0.5838315	-1.1326298e-10	0.009192381	0.009192381	0	84965.89	84965.5	-1.7746914e-05	665937.6	151428.33	-0.00027835512	151430.33	665935.9	0.00012618765
0	0.5831187	0.583116	-2.8315747e-10	0.00883885	0.008838849	0	84861.766	84861.38	-4.70679e-05	666223.25	150140.81	-0.00033031474	150142.86	666221.56	-0.000100207835
0	0.5823966	0.582394	-1.3803926e-10	0.008485283	0.008485283	0	84756.69	84756.305	-2.4691359e-05	666510.1	148843.17	-0.00023010689	148845.23	666508.4	3.7114014e-06
0	0.5816672	0.5816644	-5.698544e-10	0.00813174	0.00813174	0	84650.52	84650.125	-8.256173e-05	666798.9	147533.02	-0.0005158848	147535.12	666797.25	-0.0002894893
0	0.5809323	0.5809296	-1.1326298e-10	0.007778168	0.007778168	0	84543.59	84543.195	-1.9290124e-05	667087.94	146215.23	-0.00029227286	146217.36	667086.2	0.00014103325
0	0.580188	0.5801852	-4.9198606e-10	0.0074246055	0.0074246055	0	84435.25	84434.84	-7.2530864e-05	667382.4	144878.5	-0.00043052257	144880.64	667380.75	-0.0002449525
0	0.5794413	0.5794385	-3.6810469e-10	0.007071069	0.007071069	0	84326.61	84326.195	-5.478395e-05	667670.75	143545	-0.00037856295	143547.2	667668.94	-0.00015587886
0	0.5786831	0.57868034	-2.1590756e-10	0.0067175096	0.0067175096	0	84216.24	84215.836	-3.1635802e-05	667967.6	142186.53	-0.00014103325	142188.75	667965.8	-0.000115053444
0	0.5779223	0.57791936	-3.1501268e-10	0.006363972	0.006363972	0	84105.52	84105.12	-4.4753087e-05	668258.25	140830.66	-0.00034887175	140832.9	668256.5	-9.464074e-05