# t (s)	mx ()	my ()	mz ()	B_extx (T)	B_exty (T)	B_extz (T)	m_fullx (A/m)	m_fully (A/m)	m_fullz (A/m)	m_full.region1x (A/m)	m_full.region1y (A/m)	m_full.region1z (A/m)	m_full.region2x (A/m)	m_full.region2y (A/m)	m_full.region2z (A/m)
0	0.64468235	0.64468384	-1.9191929e-10	0.07071087	0.07071087	0	98107.76	98107.984	-2.65625e-05	635697.2	266859.44	-0.00014086936	266858.12	635697.9	-0.0001322447
0	0.64458853	0.6445884	1.09668157e-10	0.070569105	0.07056911	0	98093.48	98093.47	1.5625e-05	635771.75	266652.25	0	266652.25	635771.5	0.00017321183
0	0.64448905	0.6444887	-2.796538e-10	0.07042788	0.07042789	0	98078.34	98078.29	-3.90625e-05	635851	266433.53	-0.00027598895	266433.66	635850.7	-9.091824e-05
0	0.64439	0.6443897	-3.8383857e-10	0.07028653	0.07028652	0	98063.26	98063.22	-5.5625e-05	635929.6	266216.22	-0.00037948482	266216.3	635929.3	-0.00020699172
0	0.6442902	0.6442899	-1.9191929e-10	0.070144884	0.070144884	0	98048.08	98048.03	-3e-05	636008.5	265997.62	-0.00014374426	265997.78	636008.2	-0.0001724931
0	0.6441894	0.6441891	-3.399713e-10	0.07000352	0.07000352	0	98032.75	98032.7	-5.53125e-05	636087.9	265777.12	-0.00029898804	265777.25	636087.6	-0.00019728899
0	0.64409107	0.6440907	-1.09668157e-10	0.06986229	0.06986229	0	98017.78	98017.734	-1.25e-05	636166.4	265561.03	-4.599816e-05	265561.12	636166.06	-0.0001149954
0	0.6439896	0.6439893	-2.741704e-10	0.069720544	0.069720544	0	98002.35	98002.3	-4e-05	636245.94	265339.44	-0.00023574058	265339.56	636245.6	-0.00013440088
0	0.6438896	0.6438892	-2.9610403e-10	0.06957919	0.06957919	0	97987.11	97987.06	-4.90625e-05	636325.5	265119.78	-0.00019549218	265119.94	636325.1	-0.00025873966
0	0.643789	0.64378864	-2.6320357e-10	0.069437966	0.069437966	0	97971.81	97971.766	-3.8125e-05	636404.6	264899.8	-9.199632e-05	264899.9	636404.44	-0.00027598895
0	0.6436875	0.6436871	-2.906206e-10	0.069296576	0.069296576	0	97956.375	97956.31	-3.875e-05	636483.94	264678.44	-0.00017824287	264678.56	636483.6	-0.00018399264
0	0.643586	0.6435857	-2.741704e-10	0.06915496	0.06915496	0	97940.91	97940.87	-4.28125e-05	636563.44	264456.8	-0.00020699172	264456.94	636563.1	-0.00020124196
0	0.64348525	0.64348495	-8.773453e-11	0.069013596	0.069013596	0	97925.58	97925.54	-1.1875e-05	636642.9	264236.34	-8.624655e-05	264236.47	636642.56	-5.174793e-05
0	0.6433832	0.64338285	-3.1255426e-10	0.068872236	0.068872236	0	97910.05	97910.01	-4.8125e-05	636722.56	264013.75	-0.00025586475	264013.9	636722.2	-0.0002364593
0	0.64328283	0.6432825	-3.6738834e-10	0.06873064	0.06873064	0	97894.78	97894.73	-5.65625e-05	636801.4	263794.47	-0.00025298988	263794.6	636801.06	-0.0002644894
0	0.64317966	0.6431793	-2.2481973e-10	0.06858927	0.06858927	0	97879.08	97879.03	-3.625e-05	636881.44	263569.88	-0.00016099356	263570.03	636881.1	-0.00016674332
0	0.64307773	0.64307743	-1.4256861e-10	0.06844801	0.06844801	0	97863.57	97863.516	-2.125e-05	636961.2	263347.5	-0.0001322447	263347.66	636960.8	-6.252875e-05
0	0.6429748	0.6429745	-4.16739e-10	0.06830665	0.06830665	0	97847.914	97847.86	-6e-05	637040.7	263124.06	-0.0003219871	263124.2	637040.3	-0.00025802094
0	0.6428728	0.6428724	-2.9610403e-10	0.068165034	0.06816504	0	97832.38	97832.336	-4.09375e-05	637120.44	262901.3	-0.000250115	262901.44	637120.1	-0.00016674332
0	0.6427706	0.64277023	-3.8383857e-10	0.068023674	0.068023674	0	97816.83	97816.78	-5.65625e-05	637199.6	262679.12	-0.00035073597	262679.25	637199.3	-0.00023574058
0	0.64266616	0.64266586	-3.6190492e-10	0.06788232	0.06788232	0	97800.94	97800.89	-5.5e-05	637280.06	262452.5	-0.0002874885	262452.62	637279.7	-0.00024688075
0	0.6425642	0.6425638	-1.4805202e-10	0.067740716	0.067740716	0	97785.414	97785.35	-1.875e-05	637359.25	262230.47	-8.049678e-05	262230.62	637358.9	-0.00014374426
0	0.6424595	0.6424593	-2.1933631e-10	0.06759932	0.06759932	0	97769.49	97769.45	-3.3125e-05	637439.3	262003.92	-0.00020124196	262004.06	637438.94	-0.00012936983
0	0.64235646	0.64235616	0	0.06745809	0.06745809	0	97753.805	97753.75	-6.25e-06	637519.4	261779.45	-3.449862e-05	261779.6	637519.06	-8.984016e-06
0	0.64225173	0.6422514	-1.9740269e-10	0.067316726	0.067316726	0	97737.875	97737.83	-3.25e-05	637599.2	261553.12	-0.00016099356	261553.3	637598.9	-0.00016710268
0	0.6421483	0.6421481	-3.399713e-10	0.067174986	0.067174986	0	97722.14	97722.09	-5.0625e-05	637679.1	261328.45	-0.00018399264	261328.6	637678.8	-0.00024975563
0	0.642043	0.6420426	-1.8095246e-10	0.06703377	0.06703377	0	97706.09	97706.05	-3.25e-05	637759.56	261100.4	-0.00021849126	261100.52	637759.2	-7.151277e-05
0	0.6419395	0.64193916	-1.0418475e-10	0.066892385	0.066892385	0	97690.36	97690.3	-1.4375e-05	637839.2	260875.97	-0.00014949402	260876.11	637838.8	-2.8030128e-05
0	0.64183384	0.64183354	-1.9740269e-10	0.06675075	0.06675076	0	97674.28	97674.22	-3.4375e-05	637919.2	260648.06	-0.00018399264	260648.17	637918.9	-9.774609e-05
0	0.6417294	0.64172906	-3.6190492e-10	0.0666094	0.0666094	0	97658.375	97658.32	-5.84375e-05	637999.44	260421.56	-0.0003449862	260421.72	637999.1	-0.00021058532
0	0.64162374	0.6416234	-4.880233e-10	0.066468164	0.06646817	0	97642.305	97642.24	-7.25e-05	638079.56	260193.58	-0.00037948482	260193.72	638079.25	-0.0003449862
0	0.64151776	0.6415174	-2.5223676e-10	0.06632643	0.06632643	0	97626.17	97626.11	-4e-05	638159.6	259965.02	-0.0002098666	259965.16	638159.3	-0.00015416571
0	0.6414117	0.6414113	-4.0028877e-10	0.06618507	0.06618507	0	97610.04	97609.98	-6.125e-05	638240.44	259735.81	-0.0002299908	259736	638240.06	-0.00030617526
0	0.64130706	0.6413067	-3.9480538e-10	0.06604384	0.06604384	0	97594.1	97594.05	-5.9375e-05	638320.4	259509.34	-0.0002846136	259509.45	638320.1	-0.00024149034
0	0.6412008	0.6412004	-2.8513722e-10	0.065902434	0.065902434	0	97577.93	97577.89	-4.1875e-05	638400.7	259280.23	-0.00025298988	259280.38	638400.3	-0.00020591363
0	0.641094	0.6410937	-1.9740269e-10	0.06576085	0.06576085	0	97561.68	97561.62	-3.1875e-05	638481.2	259050.23	-0.00014949402	259050.38	638480.94	-0.00014302554
0	0.64098644	0.6409861	-3.1803765e-10	0.065619476	0.06561948	0	97545.32	97545.28	-4.625e-05	638561.8	258819.03	-0.0001322447	258819.2	638561.5	-0.0003047378
0	0.6408808	0.6408805	-4.16739e-10	0.06547824	0.06547825	0	97529.25	97529.19	-6.625e-05	638642	258591.06	-0.0003219871	258591.2	638641.6	-0.00029323826
0	0.6407733	0.6407729	6.031749e-11	0.065336525	0.065336525	0	97512.875	97512.83	5e-06	638722.06	258360.28	4.599816e-05	258360.45	638721.75	3.952967e-05
0	0.64066565	0.6406653	-3.3448788e-10	0.06519514	0.06519514	0	97496.51	97496.445	-5.125e-05	638802.9	258128.84	-0.00021274149	258128.98	638802.6	-0.00027598895
0	0.640557	0.64055663	-3.5642153e-10	0.06505392	0.065053925	0	97479.97	97479.91	-5e-05	638884.5	257895.17	-0.00026736432	257895.3	638884.1	-0.00023142825
0	0.64045084	0.6404504	-1.4256861e-10	0.064912505	0.064912505	0	97463.805	97463.75	-2.15625e-05	638964.3	257666.69	-0.00011787029	257666.8	638964	-0.000107089465
0	0.6403413	0.6403409	-2.4675337e-10	0.06477093	0.06477093	0	97447.125	97447.08	-3.75e-05	639045.7	257432	-0.00011787029	257432.16	639045.3	-0.00019549218
0	0.6402348	0.6402344	-8.773453e-11	0.06462956	0.06462956	0	97430.93	97430.875	-1.53125e-05	639125.3	257203.27	-6.899724e-05	257203.4	639125	-8.049678e-05
0	0.6401252	0.6401248	-1.2063497e-10	0.06448818	0.06448818	0	97414.25	97414.19	-1.34375e-05	639206.5	256968.56	4.599816e-05	256968.72	639206.1	-0.00018866433
0	0.6400172	0.64001685	-4.16739e-10	0.0643466	0.0643466	0	97397.82	97397.76	-6.5625e-05	639287.1	256736.89	-0.00033348665	256737.05	639286.75	-0.00025298988
0	0.6399076	0.63990724	-3.2352107e-10	0.06420523	0.06420524	0	97381.14	97381.086	-4.9375e-05	639367.5	256503.03	-0.00013799447	256503.17	639367.1	-0.00030545655
0	0.63979876	0.63979834	-3.8383857e-10	0.064063966	0.064063966	0	97364.57	97364.51	-5.75e-05	639448.7	256269.33	-0.00031048758	256269.5	639448.3	-0.00024328714
0	0.6396895	0.6396892	-1.1515157e-10	0.06392258	0.06392258	0	97347.95	97347.89	-2.1875e-05	639529.6	256035.56	-9.774609e-05	256035.7	639529.2	-8.624655e-05
0	0.6395795	0.6395791	-1.09668157e-10	0.063781016	0.063781016	0	97331.21	97331.15	-1.875e-05	639610.9	255800.27	-9.199632e-05	255800.4	639610.44	-0.00010098034
0	0.63946927	0.6394687	-4.880233e-10	0.06363963	0.06363963	0	97314.414	97314.37	-7.34375e-05	639691.94	255564.75	-0.00037948482	255564.89	639691.56	-0.0003112063
0	0.6393601	0.6393596	-4.9350673e-11	0.06349825	0.06349825	0	97297.805	97297.74	-7.5e-06	639772.6	255331.2	-0.00012649494	255331.34	639772.3	1.724931e-05
0	0.63925	0.63924956	-3.1255426e-10	0.06335668	0.06335668	0	97281.055	97281	-4.75e-05	639853.25	255096.48	-0.0003047378	255096.62	639852.9	-0.00014949402
0	0.63913834	0.639138	-2.5772018e-10	0.06321527	0.06321527	0	97264.07	97264.01	-4.125e-05	639934.5	254858.97	-0.00018399264	254859.11	639934.1	-0.00019585153
0	0.6390271	0.6390267	-2.796538e-10	0.06307404	0.06307404	0	97247.14	97247.08	-3.625e-05	640016.4	254621.44	-0.00024149034	254621.58	640015.94	-0.00017824287
0	0.63891697	0.6389166	-6.580089e-11	0.062932655	0.062932655	0	97230.39	97230.31	-1.03125e-05	640097.25	254386.45	2.0124195e-05	254386.61	640096.8	-0.00012649494
0	0.6388049	0.63880455	-3.1255426e-10	0.062790945	0.062790945	0	97213.336	97213.27	-4.875e-05	640178.25	254148.47	-0.00031048758	254148.66	640177.9	-0.00012793238
0	0.6386942	0.63869375	-6.141417e-10	0.062649705	0.062649705	0	97196.484	97196.43	-8.6875e-05	640259.5	253912.2	-0.00039098435	253912.39	640259.1	-0.0004427323
0	0.6385818	0.63858145	-2.5223676e-10	0.06250833	0.06250833	0	97179.38	97179.33	-3.875e-05	640340.44	253674	-0.00016674332	253674.19	640340	-0.00018722689
0	0.63846993	0.6384695	-3.3448788e-10	0.06236674	0.06236674	0	97162.35	97162.28	-4.90625e-05	640422.06	253435.62	-0.0002874885	253435.78	640421.75	-0.00017788351
0	0.6383575	0.63835716	-2.796538e-10	0.062225346	0.062225346	0	97145.24	97145.19	-4.8125e-05	640503.1	253197.19	-0.0001724931	253197.36	640502.8	-0.00031048758
0	0.6382449	0.63824457	2.1933632e-11	0.06208412	0.06208412	0	97128.11	97128.06	2.5e-06	640584.8	252957.86	6.324747e-05	252958.05	640584.56	-4.8154325e-05
0	0.638133	0.6381326	-3.8932196e-10	0.061942413	0.061942417	0	97111.07	97111.01	-6.25e-05	640666	252719.86	-0.00027598895	252720.02	640665.7	-0.00029144148
0	0.63801944	0.638019	-2.5223676e-10	0.06180102	0.06180102	0	97093.8	97093.74	-3.46875e-05	640747.75	252479.31	-0.00016099356	252479.5	640747.4	-0.00017824287
0	0.63790524	0.6379048	-2.4675337e-10	0.06165979	0.06165979	0	97076.42	97076.36	-3.875e-05	640829.44	252237.72	-0.0002299908	252237.89	640829.06	-0.00016243101
0	0.6377931	0.63779277	-1.0418475e-10	0.061518367	0.061518367	0	97059.36	97059.305	-1.5e-05	640910.4	251999.81	3.449862e-05	252000	640910	-0.00015919676
0	0.6376783	0.63767797	-5.4834078e-11	0.061376818	0.06137681	0	97041.89	97041.83	-1.0625e-05	640992.25	251757.2	6.899724e-05	251757.39	640992	-0.00014374426
0	0.6375643	0.63756394	-2.5223676e-10	0.061235435	0.061235435	0	97024.54	97024.47	-3.875e-05	641073.9	251516	-0.0001351196	251516.2	641073.5	-0.00020699172
0	0.63745034	0.63745004	-2.1385291e-10	0.061094042	0.061094042	0	97007.2	97007.13	-3.25e-05	641155.75	251274.64	-0.00020699172	251274.81	641155.3	-9.594929e-05
0	0.637336	0.63733566	-3.0158745e-10	0.0609525	0.060952503	0	96989.8	96989.734	-4.0625e-05	641237.44	251032.8	-0.00011787029	251032.98	641237.06	-0.00024724012
0	0.63722104	0.6372206	1.3160179e-10	0.060811102	0.060811102	0	96972.305	96972.25	2.1875e-05	641319.3	250790.08	0.00012074517	250790.27	641318.9	0.00014194744
0	0.63710654	0.6371061	-3.1255426e-10	0.06066984	0.06066984	0	96954.87	96954.805	-4.875e-05	641400.7	250548.31	-0.0002874885	250548.47	641400.3	-0.00014122872
0	0.6369903	0.6369899	-1.6998565e-10	0.060528446	0.060528446	0	96937.19	96937.125	-2.8125e-05	641482.75	250303.52	-0.00014949402	250303.66	641482.3	-0.00012074517
0	0.6368756	0.6368753	-1.5901883e-10	0.060386896	0.060386896	0	96919.734	96919.69	-2.625e-05	641564.56	250061.16	-3.1623735e-05	250061.34	641564.2	-0.00018399264
0	0.63676035	0.63676	-2.083695e-10	0.060245506	0.060245506	0	96902.2	96902.13	-3.40625e-05	641646	249818.36	-0.00013799447	249818.55	641645.6	-0.00018003967
0	0.63664365	0.63664323	-2.906206e-10	0.060104124	0.060104124	0	96884.44	96884.37	-4.625e-05	641727.56	249573.34	-0.00012649494	249573.53	641727.3	-0.00029898804
0	0.636527	0.63652664	-4.9350674e-10	0.05996258	0.05996258	0	96866.68	96866.625	-7.78125e-05	641809.9	249327.8	-0.00031623736	249327.97	641809.5	-0.00041398345
0	0.6364107	0.63641024	-1.09668157e-10	0.059821147	0.059821147	0	96848.98	96848.914	-1.625e-05	641891.6	249083.16	-7.7621895e-05	249083.34	641891.1	-6.648171e-05
0	0.6362932	0.6362928	-1.0966816e-11	0.059679918	0.059679918	0	96831.1	96831.04	-6.25e-07	641974.9	248835.42	2.874885e-06	248835.61	641974.5	-3.449862e-05
0	0.63617784	0.6361775	-3.1255426e-10	0.05953851	0.05953851	0	96813.55	96813.484	-5.03125e-05	642055.8	248592.95	-0.00032486202	248593.12	642055.5	-0.00017824287
0	0.6360595	0.63605905	-2.4675337e-10	0.059396826	0.059396826	0	96795.54	96795.48	-3.625e-05	642138.06	248344.98	-0.0002874885	248345.17	642137.7	-6.899724e-05
0	0.6359421	0.63594174	-4.9350674e-10	0.059255596	0.059255596	0	96777.664	96777.6	-7.625e-05	642220.2	248098.62	-0.00025298988	248098.83	642219.75	-0.00048873044
0	0.6358239	0.6358235	-3.8932196e-10	0.059114188	0.059114188	0	96759.69	96759.62	-5.625e-05	642302.75	247850.48	-0.00021849126	247850.7	642302.4	-0.00029898804
0	0.63570654	0.6357062	-3.6738834e-10	0.058972627	0.058972627	0	96741.83	96741.74	-5.5625e-05	642384.75	247604.19	-0.00025298988	247604.4	642384.4	-0.0002454433
0	0.6355879	0.63558745	-2.3030314e-10	0.05883124	0.058831234	0	96723.766	96723.695	-3.5625e-05	642467.06	247355.81	-0.00018399264	247356.02	642466.6	-0.00014302554
0	0.63546944	0.6354689	-2.3030314e-10	0.058689985	0.058689985	0	96705.72	96705.67	-3.125e-05	642549.56	247107.38	-9.4871204e-05	247107.56	642549.2	-0.0001944141
0	0.6353506	0.6353501	-3.1255426e-10	0.0585483	0.0585483	0	96687.65	96687.58	-4.96875e-05	642631.6	246858.94	-0.00025298988	246859.16	642631.2	-0.00025298988
0	0.63523084	0.6352305	-1.09668157e-10	0.058406904	0.058406904	0	96669.43	96669.37	-1.875e-05	642714.7	246608.36	-0.00013799447	246608.52	642714.3	-1.5811867e-05
0	0.6351122	0.63511187	-4.057722e-10	0.058265664	0.058265664	0	96651.4	96651.33	-6.125e-05	642795.94	246361.06	-0.00021561637	246361.27	642795.56	-0.00040787432
0	0.63499236	0.63499194	-1.9191929e-10	0.05812423	0.058124237	0	96633.14	96633.07	-3.125e-05	642878.94	246110.25	-0.00025298988	246110.47	642878.5	-3.6295423e-05
0	0.63487226	0.63487184	-4.3867263e-10	0.057982713	0.057982713	0	96614.86	96614.79	-6.625e-05	642961.75	245859.16	-0.00028173873	245859.34	642961.4	-0.00036798528
0	0.6347529	0.6347525	-3.399713e-10	0.057841305	0.057841305	0	96596.7	96596.63	-5.25e-05	643043.8	245610.12	-0.0003076127	245610.31	643043.4	-0.00020303875
0	0.634632	0.6346315	-3.454547e-10	0.057699904	0.057699904	0	96578.3	96578.234	-5.15625e-05	643126.7	245357.86	-0.00016099356	245358.08	643126.3	-0.00033025243
0	0.63451207	0.63451153	-1.09668157e-10	0.057558395	0.057558388	0	96560.05	96559.984	-1.625e-05	643209	245107.83	-4.599816e-05	245108.02	643208.44	-0.00013799447
0	0.63439107	0.63439065	-6.086583e-10	0.057416987	0.057416987	0	96541.63	96541.57	-8.78125e-05	643291.44	244855.92	-0.0004599816	244856.1	643291	-0.0003622355
0	0.6342691	0.6342687	-1.9740269e-10	0.05727571	0.05727571	0	96523.07	96523.01	-3.15625e-05	643373.9	244602.62	-9.199632e-05	244602.84	643373.5	-0.00017393054
0	0.6341479	0.6341474	-3.8383857e-10	0.0571343	0.0571343	0	96504.625	96504.555	-5.3125e-05	643457.25	244349.62	-0.00018686753	244349.83	643456.75	-0.00031623736
0	0.6340267	0.6340263	-1.9191929e-10	0.05699279	0.05699279	0	96486.19	96486.125	-3.21875e-05	643539.4	244097.84	-0.0001724931	244098.03	643539	-9.774609e-05
0	0.6339038	0.63390326	-1.4256861e-10	0.05685139	0.05685139	0	96467.47	96467.4	-2.09375e-05	643622.3	243842.7	-6.899724e-05	243842.89	643621.94	-9.091824e-05
0	0.6337822	0.63378173	-3.1803765e-10	0.05670998	0.056709986	0	96448.98	96448.9	-5e-05	643705.1	243589.75	-0.00024149034	243589.94	643704.75	-0.00020699172
0	0.63365906	0.6336586	-2.8513722e-10	0.05656847	0.05656847	0	96430.24	96430.17	-4.5625e-05	643787.7	243334.9	-0.00025873966	243335.1	643787.2	-0.00019189858
0	0.6335368	0.6335364	-5.483408e-12	0.05642703	0.05642703	0	96411.64	96411.56	-4.375e-06	643870.7	243080.67	-4.599816e-05	243080.88	643870.3	3.1983094e-05
0	0.6334134	0.63341296	-2.3030314e-10	0.05628579	0.056285787	0	96392.84	96392.79	-3.4375e-05	643953.2	242825.39	-0.0002299908	242825.61	643952.7	-9.774609e-05
0	0.6332903	0.63328993	-1.6450225e-10	0.056144364	0.056144364	0	96374.125	96374.055	-2.28125e-05	644036.4	242569.8	-0.00015524379	242570.02	644036.06	-5.74977e-05
0	0.6331672	0.6331668	-5.044735e-10	0.056002706	0.056002706	0	96355.38	96355.305	-7.625e-05	644119.4	242314.6	-0.00029898804	242314.81	644118.9	-0.00040176517
0	0.63304317	0.6330427	-3.8383857e-10	0.055861473	0.05586147	0	96336.51	96336.445	-5.875e-05	644202.25	242057.92	-0.00039673413	242058.12	644201.9	-0.00016674332
0	0.6329195	0.6329191	-2.1933631e-10	0.055720054	0.055720054	0	96317.7	96317.625	-3.21875e-05	644285	241802.2	-0.00022424103	241802.39	644284.56	-0.00012649494
0	0.63279366	0.63279325	-3.3448788e-10	0.05557856	0.05557856	0	96298.52	96298.47	-4.71875e-05	644368.7	241542.19	-0.00024149034	241542.42	644368.25	-0.00022172551
0	0.63266957	0.6326691	-3.2352107e-10	0.055437103	0.055437103	0	96279.66	96279.586	-5.125e-05	644451.7	241285.47	-0.00024724012	241285.67	644451.25	-0.00021849126
0	0.63254416	0.6325437	-1.1515157e-10	0.05529586	0.05529586	0	96260.57	96260.49	-1.125e-05	644534.7	241026.83	-7.7621895e-05	241027.08	644534.25	-3.988903e-05
0	0.6324184	0.6324179	-3.1803765e-10	0.055154454	0.055154454	0	96241.44	96241.36	-4.875e-05	644617.94	240767.53	-0.00027598895	240767.73	644617.6	-0.00018866433
0	0.6322932	0.63229275	-1.5901883e-10	0.05501279	0.05501279	0	96222.38	96222.31	-2.625e-05	644701.3	240508.97	-0.0002846136	240509.22	644700.9	4.6716883e-05
0	0.63216805	0.6321676	-3.1255426e-10	0.054871544	0.054871544	0	96203.33	96203.266	-5.125e-05	644784.2	240250.81	-0.00022136615	240251.03	644783.8	-0.0002263972
0	0.6320422	0.6320418	-2.9610403e-10	0.054730132	0.05473013	0	96184.19	96184.12	-4.328125e-05	644867.1	239991.75	-0.00021849126	239992	644866.75	-0.00021525701
0	0.6319155	0.631915	-2.8513722e-10	0.054588605	0.054588605	0	96164.91	96164.82	-4.375e-05	644950.2	239731.27	-0.0001149954	239731.52	644949.75	-0.00029323826
0	0.63178897	0.63178855	-3.3448788e-10	0.05444718	0.05444719	0	96145.64	96145.57	-5.21875e-05	645034.1	239470.25	-0.00027886385	239470.48	645033.7	-0.00020699172
0	0.63166225	0.6316617	-4.3867263e-10	0.05430595	0.05430595	0	96126.35	96126.29	-6.21875e-05	645117.56	239209.34	-0.0003449862	239209.58	645117.06	-0.00028173873
0	0.63153535	0.6315349	-4.5512286e-10	0.05416429	0.054164287	0	96107.05	96106.98	-6.6875e-05	645200.6	238948.66	-0.00029898804	238948.88	645200.1	-0.0003449862
0	0.631407	0.63140666	-3.7287173e-10	0.05402286	0.05402286	0	96087.53	96087.45	-5.875e-05	645283.6	238686	-0.00020411683	238686.23	645283.2	-0.00033492412
0	0.6312793	0.6312788	-2.5772018e-10	0.053881623	0.053881623	0	96068.08	96068	-3.71875e-05	645367.75	238422.97	-0.00013799447	238423.2	645367.3	-0.00023430312
0	0.63115156	0.6311512	-1.5353542e-10	0.053740162	0.053740162	0	96048.664	96048.58	-2.125e-05	645451.06	238161.05	-0.00014374426	238161.3	645450.56	-7.474701e-05
0	0.63102376	0.6310233	-1.4256861e-10	0.053598683	0.053598683	0	96029.195	96029.11	-2.25e-05	645534.4	237898.66	-0.00020124196	237898.92	645533.9	-1.3655704e-05
0	0.6308952	0.6308948	-2.68687e-10	0.053457264	0.053457264	0	96009.63	96009.56	-4.5e-05	645617.7	237635.36	-0.0001523689	237635.61	645617.4	-0.00027778576
0	0.63076556	0.6307651	-2.796538e-10	0.05331584	0.05331584	0	95989.91	95989.83	-4e-05	645701.9	237369.7	-0.00021849126	237369.9	645701.44	-0.00020124196
0	0.6306363	0.63063574	-3.454547e-10	0.053174376	0.053174376	0	95970.22	95970.164	-5e-05	645784.6	237105.9	-0.00025873966	237106.14	645784.25	-0.00022136615
0	0.6305076	0.6305071	-4.825399e-10	0.053032946	0.053032946	0	95950.64	95950.58	-7.53125e-05	645868.56	236841.94	-0.0004916053	236842.19	645868.06	-0.00022711592
0	0.6303773	0.6303768	-9.8701346e-11	0.052891657	0.052891657	0	95930.82	95930.75	-1.4375e-05	645952.7	236575.28	-6.899724e-05	236575.52	645952.2	-8.049678e-05
0	0.6302475	0.63024694	-1.4256861e-10	0.052750226	0.052750226	0	95911.08	95910.984	-1.9375e-05	646036.1	236310.06	-0.00018974241	236310.28	646035.7	4.3841996e-05
0	0.63011646	0.630116	-2.083695e-10	0.052608766	0.052608766	0	95891.125	95891.05	-2.875e-05	646120.2	236042.67	-0.00010349586	236042.92	646119.7	-0.00013583832
0	0.62998635	0.62998587	-1.8643587e-10	0.052467342	0.052467342	0	95871.31	95871.24	-2.5e-05	646203.6	235776.97	-0.00015524379	235777.17	646203.2	-0.0001149954
0	0.6298559	0.6298554	-9.8701346e-11	0.052325904	0.052325908	0	95851.46	95851.375	-1.5625e-05	646286.94	235511	-0.0002702392	235511.23	646286.5	9.4511845e-05
0	0.6297245	0.629724	-1.7546906e-10	0.05218445	0.05218446	0	95831.47	95831.4	-2.9375e-05	646371	235243.05	-6.899724e-05	235243.28	646370.56	-0.0001861488
0	0.62959266	0.6295921	-1.6450225e-10	0.052042987	0.052042987	0	95811.42	95811.336	-2.71875e-05	646455.2	234974.28	-0.0001149954	234974.53	646454.7	-0.00010924563
0	0.62945956	0.6294591	-6.141417e-10	0.051901724	0.051901728	0	95791.16	95791.07	-9.3125e-05	646539.44	234703.77	-0.0003622355	234703.98	646538.9	-0.000478309
0	0.6293289	0.6293284	-2.1385291e-10	0.051760294	0.051760297	0	95771.28	95771.195	-3.125e-05	646622.5	234437.72	-0.00020411683	234437.95	646622.06	-0.00018974241
0	0.62919605	0.6291956	-3.1255426e-10	0.051618673	0.051618673	0	95751.06	95750.99	-4.875e-05	646706.94	234167.38	-0.00031623736	234167.66	646706.44	-0.00015524379
0	0.6290638	0.62906325	-3.9480538e-10	0.05147742	0.05147742	0	95730.92	95730.85	-5.75e-05	646790.8	233898.16	-0.00020699172	233898.42	646790.3	-0.00035576703
0	0.62892926	0.6289288	-1.2063497e-10	0.051335983	0.051335983	0	95710.45	95710.375	-1.3125e-05	646875.4	233625.3	-6.0372586e-05	233625.55	646874.94	-9.738673e-05
0	0.6287974	0.62879694	-7.676771e-11	0.051194493	0.051194493	0	95690.39	95690.31	-8.125e-06	646958.9	233357.33	-9.199632e-05	233357.6	646958.4	2.874885e-05
0	0.62866366	0.6286631	9.321793e-11	0.051053062	0.051053066	0	95670.02	95669.95	1.625e-05	647042.1	233086.73	-2.874885e-05	233086.98	647041.7	0.00017177437
0	0.6285302	0.62852967	-2.741704e-10	0.050911807	0.05091181	0	95649.734	95649.65	-3.921875e-05	647126.7	232815.33	-0.00021274149	232815.58	647126.2	-0.00013907257
0	0.62839615	0.6283956	-2.4675337e-10	0.050770186	0.050770186	0	95629.336	95629.25	-3.75e-05	647210.7	232543.67	-0.00016386845	232543.92	647210.25	-0.00017824287
0	0.6282611	0.62826055	-4.3318923e-10	0.050628755	0.050628755	0	95608.77	95608.69	-6.625e-05	647295.3	232269.94	-0.0003076127	232270.19	647294.8	-0.00030797205
0	0.6281259	0.62812537	-2.9610403e-10	0.050487496	0.050487496	0	95588.195	95588.12	-4.5625e-05	647378.8	231997.14	-0.00025298988	231997.39	647378.4	-0.0002299908
0	0.6279915	0.62799096	-3.399713e-10	0.050346017	0.050346017	0	95567.75	95567.664	-5.1875e-05	647463.5	231724.3	-0.00015524379	231724.56	647463.1	-0.00031623736
0	0.62785614	0.6278556	-2.028861e-10	0.050204586	0.050204586	0	95547.16	95547.08	-2.625e-05	647547.9	231450.56	-0.00016961822	231450.8	647547.4	-9.774609e-05
0	0.6277186	0.6277181	-1.9191929e-10	0.05006314	0.050063144	0	95526.22	95526.14	-2.625e-05	647632.9	231172.92	-0.00013799447	231173.19	647632.4	-0.00011391732
0	0.6275839	0.62758344	-2.5223676e-10	0.0499217	0.049921695	0	95505.73	95505.66	-3.75e-05	647716.5	230900.89	-0.00021849126	230901.14	647716	-0.00014949402
0	0.62744766	0.6274471	-1.4805202e-10	0.04978028	0.04978028	0	95484.99	95484.91	-2.25e-05	647800.56	230625.88	-9.199632e-05	230626.16	647800.06	-0.000119307726
0	0.6273097	0.62730914	-2.3578656e-10	0.049638826	0.049638826	0	95464	95463.91	-3.5e-05	647885.8	230347.53	-0.00014949402	230347.78	647885.4	-0.00011427668
0	0.62717456	0.627174	-5.37374e-10	0.04949753	0.049497534	0	95443.42	95443.34	-8.1875e-05	647969.4	230074.78	-0.00033348665	230075.06	647968.8	-0.00041649895
0	0.6270373	0.6270367	6.031749e-11	0.049356084	0.049356084	0	95422.52	95422.445	9.375e-06	648053.2	229798.67	2.874885e-05	229798.94	648052.75	2.9467572e-05
0	0.6268996	0.62689894	-2.1933631e-10	0.049214657	0.049214657	0	95401.56	95401.49	-3.125e-05	648138.2	229520.89	-0.00019549218	229521.12	648137.7	-0.00012038581
0	0.6267615	0.6267609	-2.4675337e-10	0.049073208	0.04907321	0	95380.56	95380.49	-3.625e-05	648222.5	229243.3	-0.00015524379	229243.58	648222	-0.00018974241
0	0.62662417	0.6266237	-3.7835515e-10	0.048931766	0.048931766	0	95359.67	95359.58	-6.1875e-05	648306.06	228967.58	-0.00031623736	228967.86	648305.5	-0.00023286568
0	0.626485	0.6264845	-3.399713e-10	0.04879036	0.04879036	0	95338.49	95338.414	-5.15625e-05	648391.8	228686.89	-0.00024149034	228687.17	648391.3	-0.00022567848
0	0.6263467	0.6263462	-3.0707084e-10	0.048648857	0.048648857	0	95317.445	95317.37	-4.6875e-05	648476.2	228408.95	-0.0002846136	228409.25	648475.75	-0.00014949402
0	0.6262075	0.62620693	-1.5353542e-10	0.04850761	0.04850761	0	95296.26	95296.17	-2e-05	648560.9	228129.28	-0.00017824287	228129.53	648560.4	-1.5093146e-05
0	0.62606764	0.6260671	-2.1933631e-10	0.048366148	0.048366144	0	95274.984	95274.91	-3.53125e-05	648645.7	227848.83	-0.00013799447	227849.14	648645.1	-0.00014554105
0	0.6259285	0.625928	-3.399713e-10	0.04822455	0.04822455	0	95253.805	95253.72	-5.125e-05	648729.94	227569.73	-0.00018111775	227570.02	648729.44	-0.00031551864
0	0.62578887	0.6257883	-2.2481973e-10	0.048083294	0.048083294	0	95232.555	95232.47	-3.4375e-05	648814.3	227289.8	-0.0001322447	227290.08	648813.75	-0.00019297666
0	0.62564754	0.62564695	-2.1385291e-10	0.04794183	0.04794183	0	95211.05	95210.95	-3.125e-05	648899.7	227006.62	-0.00014949402	227006.88	648899.1	-0.00011643284
0	0.62550753	0.6255069	-5.483408e-12	0.047800396	0.047800392	0	95189.73	95189.64	-2.5e-06	648983.94	226726.27	-9.774609e-05	226726.55	648983.44	5.74977e-05
0	0.6253666	0.6253661	-1.0966816e-11	0.047658946	0.047658946	0	95168.29	95168.2	-3.125e-06	649068.44	226444.6	-6.324747e-05	226444.88	649067.9	5.1388568e-05
0	0.625225	0.6252244	-1.7546906e-10	0.047517676	0.047517676	0	95146.75	95146.66	-2.5625e-05	649153.6	226161.1	-6.899724e-05	226161.39	649153.1	-0.00015704059
0	0.62508357	0.62508297	-9.8701346e-11	0.047376227	0.04737622	0	95125.22	95125.13	-1.75e-05	649238.3	225878.4	-0.00014661913	225878.72	649237.8	-1.149954e-05
0	0.62494147	0.62494093	-2.1933631e-10	0.047234632	0.047234632	0	95103.59	95103.51	-3.5625e-05	649323.1	225594.6	-0.00018974241	225594.92	649322.7	-0.00014015065
0	0.6247994	0.6247987	-2.3030314e-10	0.047093365	0.047093365	0	95081.96	95081.88	-3.375e-05	649407.56	225311.28	-0.0001724931	225311.56	649407.06	-0.00013296343
0	0.6246562	0.62465566	-5.291489e-10	0.046951856	0.046951856	0	95060.195	95060.1	-8.0625e-05	649492.8	225025.6	-0.0003852346	225025.9	649492.3	-0.00036798528
0	0.6245136	0.62451303	-4.4141435e-10	0.04681048	0.04681048	0	95038.484	95038.39	-6.5e-05	649577.8	224740.97	-0.00040823367	224741.27	649577.25	-0.00021489765
0	0.62437046	0.6243698	-4.825399e-10	0.046669014	0.046669014	0	95016.68	95016.59	-7.4375e-05	649662.7	224455.55	-0.00027598895	224455.86	649662.1	-0.00038595332
0	0.62422734	0.62422675	-2.2756143e-10	0.04652776	0.046527762	0	94994.92	94994.83	-3.3125e-05	649747.3	224170.7	-9.199632e-05	224171	649746.75	-0.00024149034
0	0.6240831	0.62408245	-2.3852825e-10	0.04638618	0.04638618	0	94972.96	94972.87	-3.75e-05	649832.1	223883.84	-0.00017824287	223884.16	649831.6	-0.0002454433
0	0.62393886	0.62393826	-2.769121e-10	0.04624471	0.04624471	0	94951.016	94950.92	-4.34375e-05	649917.44	223596.6	-0.00014949402	223596.9	649917	-0.00022244423
0	0.6237945	0.62379384	-4.9350674e-10	0.046103448	0.04610345	0	94929.05	94928.96	-7.375e-05	650002.5	223309.44	-0.00039673413	223309.73	650002	-0.00033923643
0	0.6236496	0.62364894	-3.5916323e-10	0.045961928	0.045961928	0	94906.99	94906.9	-5.5e-05	650087.6	223021.55	-0.0002644894	223021.86	650087	-0.00026413007
0	0.6235042	0.6235037	-2.3030314e-10	0.04582056	0.04582056	0	94884.88	94884.78	-3.5625e-05	650172.8	222732.81	-0.00010349586	222733.12	650172.25	-0.0002436465
0	0.62335867	0.6233581	-4.4415605e-10	0.045679096	0.0456791	0	94862.73	94862.625	-7e-05	650257.7	222444.05	-0.00041398345	222444.36	650257.25	-0.0002299908
0	0.62321293	0.62321234	-2.9336233e-10	0.04553762	0.04553762	0	94840.55	94840.45	-4.3125e-05	650342.75	222155.02	-0.00026161454	222155.31	650342.25	-0.00016854014
0	0.6230663	0.62306577	-6.305919e-11	0.04539626	0.045396265	0	94818.234	94818.14	-1.0625e-05	650428.06	221864.48	-6.899724e-05	221864.8	650427.56	-4.132647e-05
0	0.6229202	0.6229197	-4.057722e-10	0.04525479	0.04525479	0	94796	94795.9	-6.625e-05	650513.2	221574.72	-0.00031911224	221575.05	650512.7	-0.00025981772
0	0.6227733	0.62277275	-1.6724394e-10	0.04511347	0.04511347	0	94773.65	94773.55	-2.625e-05	650598.2	221284.05	-6.0372586e-05	221284.38	650597.75	-0.00017393054
0	0.6226262	0.6226255	2.741704e-12	0.04497199	0.04497199	0	94751.25	94751.15	1.875e-06	650683.44	220992.86	5.74977e-05	220993.17	650682.9	-3.1983094e-05
0	0.6224785	0.62247777	-3.9206366e-10	0.04483065	0.04483065	0	94728.766	94728.67	-5.5625e-05	650768.75	220700.69	-0.00036798528	220701.02	650768.2	-0.00021417893
0	0.6223307	0.6223302	-2.8513722e-10	0.044689175	0.044689175	0	94706.3	94706.22	-4.25e-05	650853.94	220408.89	-0.00018974241	220409.19	650853.44	-0.00019908579
0	0.6221823	0.6221817	-1.7546906e-10	0.044547684	0.044547684	0	94683.71	94683.61	-2.84375e-05	650939.5	220115.34	-0.00014949402	220115.66	650939.06	-0.0001333228
0	0.6220337	0.6220331	-3.8932196e-10	0.04440635	0.04440635	0	94661.086	94661	-6.5e-05	651024.9	219822	-0.0003421113	219822.33	651024.3	-0.00028173873