# t (s)	mx ()	my ()	mz ()	B_extx (T)	B_exty (T)	B_extz (T)	m_fullx (A/m)	m_fully (A/m)	m_fullz (A/m)	m_full.region1x (A/m)	m_full.region1y (A/m)	m_full.region1z (A/m)	m_full.region2x (A/m)	m_full.region2y (A/m)	m_full.region2z (A/m)
0	0.64543	0.64419127	-2.194346e-10	0.07071092	0.07071092	0	72083.03	71944.67	-1.980437e-05	636293.7	265793.25	-0.00019408054	267910.7	635470.1	-7.556523e-05
0	0.64518225	0.64394474	-6.1210703e-10	0.07035718	0.07035718	0	72055.35	71917.14	-6.665861e-05	636489.44	265249	-0.00037603106	267369.25	635668.06	-0.0005939427
0	0.64493	0.64369255	-4.388692e-10	0.07000352	0.07000352	0	72027.17	71888.97	-5.1201547e-05	636693.06	264689.4	-0.0003275109	266813.62	635873.3	-0.00040276267
0	0.6446744	0.6434369	-4.6196758e-10	0.06964995	0.06964995	0	71998.64	71860.43	-4.637121e-05	636897.9	264123.97	-0.00026079573	266252.34	636079.6	-0.00042618788
0	0.6444216	0.64318395	-1.3859028e-10	0.069296554	0.069296554	0	71970.4	71832.17	-1.545707e-05	637099.44	263565.6	-0.00013343037	265698	636282.7	-0.00011485915
0	0.6441651	0.6429275	-2.223219e-10	0.06894301	0.06894301	0	71941.76	71803.54	-2.7049873e-05	637303.44	262999.75	-0.00013343037	265136.22	636488.1	-0.00020856003
0	0.6439068	0.64266926	-4.2732e-10	0.06858933	0.06858932	0	71912.914	71774.69	-4.8303344e-05	637507.8	262430.84	-0.00035177098	264571.4	636694.25	-0.00028563658
0	0.643647	0.6424092	-2.4253297e-10	0.06823561	0.06823561	0	71883.89	71745.66	-3.1397176e-05	637711.94	261860.03	-0.00021834062	264004.78	636899.75	-0.00016019828
0	0.6433874	0.64214975	-4.792914e-10	0.06788237	0.06788237	0	71854.89	71716.67	-5.2167612e-05	637916	261289.77	-0.0003153809	263438.53	637105.44	-0.00040805223
0	0.64312536	0.641888	3.464757e-11	0.06752866	0.06752866	0	71825.63	71687.44	3.3812341e-06	638121.2	260715.12	-3.63901e-05	262867.8	637312.44	7.254262e-05
0	0.6428595	0.6416224	-3.8689785e-10	0.06717498	0.06717498	0	71795.945	71657.78	-4.3956043e-05	638328.56	260132.8	-0.00021834062	262289.5	637521.56	-0.0004148531
0	0.6425967	0.64135987	-2.6563135e-10	0.06682182	0.06682182	0	71766.586	71628.47	-2.7532908e-05	638532.2	259558.56	-0.00021834062	261719.22	637726.94	-0.00017266655
0	0.6423287	0.6410922	-1.2704109e-10	0.066468135	0.066468135	0	71736.66	71598.56	-1.1592802e-05	638739.44	258973.38	-9.704027e-05	261138	637936.06	-7.556523e-05
0	0.6420625	0.64082617	-1.2704109e-10	0.06611443	0.06611443	0	71706.914	71568.86	-1.1592802e-05	638944.1	258393.33	-7.27802e-05	260561.9	638142.44	-4.7228266e-05
0	0.6417934	0.6405575	-3.6957407e-10	0.06576083	0.06576083	0	71676.875	71538.85	-4.492211e-05	639150.06	257808.02	-0.00023047064	259980.53	638350.44	-0.0003959618
0	0.64152235	0.64028686	4.6196758e-11	0.06540751	0.06540751	0	71646.6	71508.625	2.8982006e-06	639357	257219.11	6.671518e-05	259395.53	638559.1	-7.556523e-05
0	0.6412487	0.6400137	-1.7323784e-10	0.065053925	0.065053925	0	71616.04	71478.12	-2.2702572e-05	639564.94	256625.28	-0.00012130034	258805.6	638769.1	-0.00018135655
0	0.64097613	0.6397416	-3.6957407e-10	0.064700186	0.064700186	0	71585.59	71447.73	-3.960874e-05	639770.6	256035.42	-0.00024260068	258219.67	638976.7	-0.00025994438
0	0.6406991	0.6394649	-2.5408217e-10	0.064346544	0.064346544	0	71554.66	71416.83	-2.6083806e-05	639978.56	255436.97	-0.00018801553	257625.28	639186.56	-0.00025692178
0	0.64042133	0.63918793	-3.9267245e-10	0.063993275	0.06399328	0	71523.625	71385.9	-4.1782394e-05	640188	254836.23	-0.00030325085	257028.2	639398.25	-0.00025692178
0	0.6401457	0.6389131	-1.039427e-10	0.06363964	0.06363964	0	71492.85	71355.195	-1.0626736e-05	640393.44	254242.48	-6.065017e-05	256438.2	639605.8	-9.370088e-05
0	0.6398652	0.63863343	-3.4647568e-10	0.06328589	0.06328589	0	71461.54	71323.97	-3.6710542e-05	640602.3	253638.55	-0.00018801553	255838.02	639816.9	-0.00034155484
0	0.63958377	0.6383525	-2.6274405e-10	0.06293274	0.06293274	0	71430.1	71292.58	-2.8498973e-05	640809.8	253034.34	-0.00012130034	255237.84	640026.4	-0.00025767743
0	0.63929886	0.6380687	-4.157708e-10	0.062579095	0.062579095	0	71398.27	71260.88	-5.1201547e-05	641020.94	252422.11	-0.00025473072	254629.17	640239.94	-0.00044734616
0	0.63901556	0.63778627	-2.7718056e-10	0.062225346	0.062225346	0	71366.64	71229.35	-3.3812343e-05	641228.8	251815.22	-0.00027899077	254025.94	640450.2	-0.00014810785
0	0.6387301	0.6375018	-3.8112324e-10	0.061871726	0.061871726	0	71334.76	71197.58	-4.2989977e-05	641437.1	251205.02	-0.00025473072	253419.44	640660.75	-0.0003407992
0	0.638442	0.6372146	-8.0844324e-11	0.061518434	0.061518434	0	71302.586	71165.5	-1.25588695e-05	641646.6	250589.69	-0.00010917031	252807.83	640872.7	-3.627131e-05
0	0.6381506	0.6369241	-1.4436487e-10	0.061164834	0.061164834	0	71270.04	71133.05	-1.8355271e-05	641857.2	249968.69	-9.704027e-05	252190.69	641085.56	-0.00018740176
0	0.63786006	0.636635	-4.6196758e-10	0.060811095	0.060811095	0	71237.6	71100.77	-4.782031e-05	642068	249349.19	-0.00043668124	251574.48	641299.06	-0.00029886048
0	0.6375677	0.63634384	-5.1971355e-10	0.060457468	0.060457468	0	71204.93	71068.26	-5.989615e-05	642278.1	248727.48	-0.00035177098	250956.34	641511.75	-0.0004292105
0	0.6372743	0.63605165	-3.5802486e-10	0.06010418	0.06010418	0	71172.17	71035.62	-3.7676607e-05	642487.44	248105.27	-0.00027292577	250337.73	641723.5	-0.00028110264
0	0.6369766	0.6357553	-3.7534867e-10	0.059750553	0.059750553	0	71138.93	71002.53	-4.419756e-05	642699.94	247473.8	-0.00019408054	249709.77	641938.8	-0.0004133418
0	0.6366803	0.6354603	-2.194346e-10	0.059396803	0.059396803	0	71105.83	70969.586	-2.6083806e-05	642909.56	246847.2	-0.00016982047	249086.67	642151	-0.00019042437
0	0.6363798	0.6351614	-3.1471542e-10	0.059043635	0.059043635	0	71072.266	70936.195	-3.091414e-05	643122.2	246211.94	-0.00030325085	248454.73	642366.4	-0.0001329948
0	0.6360799	0.63486284	-4.215454e-10	0.058690008	0.058690008	0	71038.77	70902.86	-4.878638e-05	643332.3	245579.81	-0.00025473072	247826.17	642579.1	-0.00043185527
0	0.6357745	0.63455915	-6.352054e-11	0.058336258	0.058336254	0	71004.66	70868.945	-2.8982006e-06	643546.4	244936.23	-3.63901e-05	247185.92	642796.2	-6.347479e-05
0	0.63547236	0.6342586	-3.002789e-10	0.05798265	0.057982653	0	70970.93	70835.375	-3.2846274e-05	643756.4	244301.23	-0.00016982047	246554.31	643008.94	-0.0002901705
0	0.6351662	0.63395417	-1.8478703e-10	0.05762934	0.05762934	0	70936.734	70801.375	-1.8113755e-05	643968.56	243658.55	-0.00014859291	245914.94	643224.06	-9.181175e-05
0	0.63485587	0.6336455	-4.330946e-11	0.057275724	0.057275727	0	70902.08	70766.9	-4.8303345e-06	644182.1	243008.48	-2.4260067e-05	245268.36	643440.5	-3.32487e-05
0	0.6345481	0.6333398	-3.7823594e-10	0.05692201	0.05692201	0	70867.7	70732.766	-4.3956043e-05	644394.1	242363.95	-0.00035177098	244626.88	643655.75	-0.00031132874
0	0.634237	0.63303065	-3.7823594e-10	0.0565684	0.0565684	0	70832.95	70698.234	-3.960874e-05	644606.9	241713.94	-0.00024260068	243979.97	643871.56	-0.00028714788
0	0.6339236	0.63271934	-1.5591406e-10	0.056215074	0.056215074	0	70797.96	70663.47	-1.7872238e-05	644820.4	241059.94	-0.00012130034	243329.12	644088.2	-7.254262e-05
0	0.6336059	0.63240385	-2.7718056e-10	0.05586147	0.05586147	0	70762.48	70628.23	-3.091414e-05	645036.1	240397.69	-0.00012433284	242669.95	644307.3	-0.00028110264
0	0.63328904	0.63208926	-1.6746325e-10	0.055507727	0.055507727	0	70727.09	70593.09	-1.6423137e-05	645250	239738.62	-0.00020621058	242013.9	644524.56	-1.964696e-05
0	0.6329725	0.6317749	-4.6196758e-10	0.05515453	0.05515453	0	70691.74	70557.984	-4.9269413e-05	645462.2	239081.73	-0.00030325085	241360	644739.94	-0.0003627131
0	0.6326508	0.6314557	-4.475311e-10	0.05480092	0.05480092	0	70655.82	70522.336	-5.4099746e-05	645677.7	238414.48	-0.00025473072	240695.6	644958.9	-0.0004987305
0	0.6323292	0.63113624	-2.4253297e-10	0.05444718	0.05444718	0	70619.89	70486.66	-2.221954e-05	645890.6	237749.47	-0.00013343037	240033.83	645175.06	-0.00018589046
0	0.6320036	0.63081354	-1.8478703e-10	0.054093584	0.054093584	0	70583.53	70450.625	-1.9321338e-05	646107.3	237075.88	-0.00019408054	239362.77	645395.56	-2.7203481e-05
0	0.6316796	0.63049185	-4.5908027e-10	0.05374024	0.05374024	0	70547.336	70414.695	-4.9269413e-05	646320.06	236407.9	-0.0003214459	238697.83	645611.7	-0.00031737395
0	0.63135135	0.63016635	-2.8295513e-10	0.05338664	0.05338664	0	70510.68	70378.336	-3.091414e-05	646535.44	235731.62	-0.00020621058	238024.3	645830.8	-0.00022065047
0	0.6310217	0.6298394	-3.6957407e-10	0.053032927	0.053032927	0	70473.87	70341.836	-4.2506945e-05	646750.6	235053.61	-0.00025473072	237348.97	646049.7	-0.0002644783
0	0.6306876	0.62950814	-2.6563135e-10	0.052679334	0.052679338	0	70436.56	70304.83	-2.7049873e-05	646967.25	234367.98	-0.00012736536	236666.27	646269.94	-0.00024483135
0	0.630354	0.6291779	-2.078854e-10	0.05232597	0.05232597	0	70399.29	70267.95	-2.0287405e-05	647184.5	233682.9	-0.00015769045	235983.33	646491.3	-0.0001662435
0	0.63001823	0.6288454	-4.388692e-10	0.051972393	0.051972385	0	70361.81	70230.82	-4.5405144e-05	647400.7	232995.8	-0.00035177098	235298.64	646711.5	-0.00032039656
0	0.62968194	0.6285121	-2.078854e-10	0.051618647	0.051618647	0	70324.234	70193.586	-2.7049873e-05	647615.7	232308.78	-0.00023047064	234614.28	646930.25	-6.952001e-05
0	0.62934065	0.6281743	-4.3309462e-10	0.051265426	0.051265426	0	70286.125	70155.86	-4.782031e-05	647833.9	231611.95	-0.00035177098	233919.75	647152.6	-0.00033324264
0	0.6289994	0.62783647	-2.252092e-10	0.050911825	0.050911825	0	70248.01	70118.14	-2.7049873e-05	648050.5	230916.84	-0.00023047064	233226.86	647373.44	-6.952001e-05
0	0.62865454	0.62749505	5.197135e-11	0.050558098	0.0505581	0	70209.51	70079.99	6.7624683e-06	648268.2	230215.45	0	232527.92	647595.2	0.00012694958
0	0.6283096	0.62715375	-1.097173e-10	0.05020452	0.05020452	0	70170.97	70041.9	-1.0626736e-05	648485.1	229514.97	-0.00016982047	231829.56	647816.44	7.858784e-05
0	0.62796235	0.6268104	-4.504184e-10	0.049851127	0.049851127	0	70132.2	70003.55	-4.9269413e-05	648702.3	228811.16	-0.00026686073	231127.81	648038	-0.00041107484
0	0.62761253	0.62646437	-1.6168865e-10	0.049497552	0.049497552	0	70093.125	69964.9	-1.545707e-05	648920.25	228102.78	-0.00012736536	230421.52	648260.4	-0.000108813925
0	0.62726074	0.6261166	-3.1182812e-10	0.049143855	0.049143855	0	70053.836	69926.05	-3.188021e-05	649138.2	227391.92	-0.00026686073	229712.58	648482.8	-0.00012392698
0	0.62690616	0.625766	-2.5408217e-10	0.048790272	0.048790272	0	70014.24	69886.89	-2.8982007e-05	649356.6	226676.53	-0.00022440562	228999.23	648705.8	-0.00018740176
0	0.6265508	0.62541485	-9.816811e-11	0.048436873	0.048436873	0	69974.55	69847.68	-1.25588695e-05	649574.75	225960.58	-6.065017e-05	228285.08	648928.6	-0.00011183654
0	0.62619245	0.6250608	-1.039427e-10	0.0480833	0.0480833	0	69934.52	69808.15	-1.4249486e-05	649793.56	225239.95	-7.27802e-05	227566.17	649152.1	-0.0001314835
0	0.62583447	0.6247069	-2.1654731e-10	0.047729574	0.047729574	0	69894.555	69768.625	-2.5117739e-05	650010.06	224521.9	-0.000178918	226850.11	649373.1	-0.00015717567
0	0.62547076	0.62434745	-2.8872973e-10	0.047376312	0.047376312	0	69853.94	69728.48	-3.6710542e-05	650229.44	223793.02	-0.00015769045	226123.05	649597.3	-0.00034155484
0	0.6251074	0.62398887	-3.8112324e-10	0.047022738	0.047022738	0	69813.34	69688.42	-4.5888177e-05	650448.2	223065.69	-0.00038816108	225397.19	649821	-0.00015868698
0	0.62473917	0.623626	-2.5119487e-10	0.046669014	0.046669014	0	69772.23	69647.91	-2.946504e-05	650669.8	222329.06	-0.00018195051	224661.48	650048	-0.00023576351
0	0.62437195	0.6232633	-6.929514e-11	0.046315458	0.046315458	0	69731.21	69607.38	-7.728535e-06	650887.3	221597.33	-0.00013343037	223931.48	650270.44	6.045218e-06
0	0.62400097	0.6228974	-3.9267245e-10	0.045962017	0.045962017	0	69689.78	69566.53	-4.7578797e-05	651107.3	220858.36	-0.00036390102	223193.72	650495.7	-0.00032644178
0	0.62362504	0.62252706	-2.8295513e-10	0.045608457	0.045608457	0	69647.805	69525.17	-3.091414e-05	651329.7	220110.36	-0.0001455604	222446.62	650723.6	-0.00027505742
0	0.6232506	0.62215805	-2.3098379e-10	0.04525477	0.04525477	0	69605.98	69483.95	-2.8982007e-05	651549.5	219366.89	-0.00022137312	221704.03	650948.8	-0.0001590648
0	0.6228746	0.62178713	-2.1366e-10	0.04490121	0.04490121	0	69563.98	69442.52	-2.7049873e-05	651768	218622.27	-0.00020621058	220960.75	651172.56	-0.00014055132
0	0.62249243	0.62141097	-2.5408217e-10	0.044547763	0.044547763	0	69521.305	69400.51	-2.8982007e-05	651990.75	217865.47	-0.00019408054	220204.55	651401.06	-0.0001964696
0	0.6221102	0.62103456	-1.9633623e-10	0.044194214	0.044194214	0	69478.625	69358.484	-2.4151672e-05	652211.56	217110.5	-0.00024260068	219450.27	651627.56	-5.1384355e-05
0	0.6217257	0.6206561	-8.3731626e-11	0.043840494	0.043840494	0	69435.67	69316.22	-1.110977e-05	652432.56	216352.14	-0.00010917031	218692.5	651854.4	3.022609e-06
0	0.6213387	0.62027514	-3.1760272e-10	0.043486938	0.043486938	0	69392.445	69273.67	-3.4778408e-05	652653.75	215590.11	-0.0003153809	217931.05	652081.44	-0.00018437915
0	0.62095106	0.6198932	-2.3098379e-10	0.04313365	0.04313365	0	69349.16	69231.016	-2.9948074e-05	652873.2	214828.81	-0.00019408054	217170.58	652306.4	-0.00018740176
0	0.62055784	0.61950624	-3.349265e-10	0.042779926	0.042779926	0	69305.25	69187.8	-3.6710542e-05	653095.5	214057.23	-0.0002516982	216399.56	652534.56	-0.00019042437
0	0.62016475	0.6191198	-3.2049e-10	0.04242638	0.04242638	0	69261.34	69144.63	-2.801594e-05	653316.94	213286.9	-0.00016982047	215629.27	652762.25	-0.00023878612
0	0.6197664	0.61872876	-3.233773e-10	0.04207291	0.04207291	0	69216.85	69100.97	-3.2846274e-05	653541.1	212507.12	-0.00016375545	214849.1	652993	-0.00030226092
0	0.6193682	0.6183376	-3.233773e-10	0.041719366	0.041719366	0	69172.38	69057.28	-3.188021e-05	653763.06	211729.48	-0.00020621058	214071.27	653221.3	-0.00022065047
0	0.61896694	0.61794347	-3.5802486e-10	0.041365694	0.041365694	0	69127.56	69013.266	-4.443908e-05	653985.3	210947.28	-0.00038816108	213288.84	653450.1	-0.00021082698
0	0.61856276	0.61754644	-1.8478703e-10	0.04101216	0.04101216	0	69082.43	68968.93	-2.0287405e-05	654208.1	210160.52	-0.00016375545	212501.88	653679.44	-9.370088e-05
0	0.6181566	0.61714774	-3.1182812e-10	0.040658653	0.040658657	0	69037.07	68924.4	-3.0431107e-05	654430.8	209371.31	-0.00021834062	211712.17	653908.8	-0.00021573872
0	0.61774796	0.6167468	-3.7246137e-10	0.04030513	0.04030513	0	68991.42	68879.62	-4.1540876e-05	654653.7	208578.61	-0.00021834062	210918.88	654138.5	-0.00032039656
0	0.6173379	0.6163438	-4.446438e-10	0.039951418	0.03995142	0	68945.63	68834.6	-5.1201547e-05	654874.9	207785.16	-0.00026686073	210125.34	654366.06	-0.00040200702
0	0.61692274	0.6159374	-5.0238974e-10	0.03959789	0.03959789	0	68899.266	68789.23	-5.458278e-05	655100.2	206981.78	-0.00037603106	209320.38	654598.8	-0.0003702696
0	0.6165077	0.6155299	-2.078854e-10	0.03924456	0.03924456	0	68852.92	68743.71	-2.1736505e-05	655321.7	206181.42	-0.00023047064	208519.62	654827	-1.5113045e-05
0	0.6160867	0.6151179	1.15491896e-11	0.03889085	0.03889085	0	68805.89	68697.69	-2.8982006e-06	655547.7	205369.28	-4.5487628e-05	207705.81	655060.5	0.00012392698
0	0.6156668	0.6147059	-3.349265e-10	0.038537323	0.038537327	0	68759.01	68651.69	-3.2846274e-05	655769.1	204562.52	-0.00016982047	206898.38	655288.9	-0.00024785395
0	0.61524296	0.614291	-2.5408217e-10	0.03818379	0.03818379	0	68711.67	68605.35	-3.1397176e-05	655993.2	203748.28	-0.00019408054	206082.5	655520.44	-0.00025087656
0	0.6148151	0.61387193	-2.8872973e-10	0.03783028	0.03783028	0	68663.875	68558.55	-3.188021e-05	656217.9	202927.75	-0.0002911208	205260.48	655752.7	-0.00011485915
0	0.6143844	0.6134513	-3.1182812e-10	0.037476566	0.03747657	0	68615.77	68511.58	-2.8982007e-05	656444.2	202102.83	-0.00016982047	204433.02	655987.06	-0.00027845785
0	0.61395234	0.61302894	5.7745947e-11	0.03712311	0.037123106	0	68567.53	68464.39	1.0626736e-05	656668.56	201277.27	4.8520134e-05	203605.39	656219.44	0.000110325236
0	0.6135173	0.61260355	-5.254881e-10	0.03676954	0.03676954	0	68518.93	68416.875	-6.0862214e-05	656893.56	200447.12	-0.00040029112	202772.98	656452.3	-0.0004594366
0	0.61307937	0.6121757	-1.7035054e-10	0.036416043	0.036416043	0	68470.05	68369.1	-2.0770438e-05	657118.44	199613.44	-0.00010917031	201936.95	656685.3	-0.00015075263
0	0.61264104	0.61174643	-2.367584e-10	0.036062337	0.036062337	0	68421.07	68321.164	-3.091414e-05	657341	198780.53	-0.00030325085	201102.28	656915.5	-9.370088e-05
0	0.6121972	0.611313	-4.215454e-10	0.035708852	0.03570885	0	68371.5	68272.76	-4.5405144e-05	657566.6	197937.95	-0.00037603106	200257.02	657149.56	-0.00023878612
0	0.61174893	0.61087614	-4.5619297e-10	0.03535546	0.03535546	0	68321.44	68223.98	-5.071851e-05	657794.56	197087.83	-0.00040029112	199403.3	657386.2	-0.00031737395
0	0.6113001	0.6104383	-4.735168e-10	0.03500176	0.03500176	0	68271.31	68175.06	-5.168458e-05	658020	196238.95	-0.00036390102	198551.23	657620.4	-0.00033626525
0	0.61084825	0.60999763	-2.7718056e-10	0.034648277	0.034648277	0	68220.84	68125.85	-3.188021e-05	658245.8	195385.69	-0.00015769045	197694.61	657855	-0.00024180872
0	0.61039346	0.6095543	-1.8478703e-10	0.034294665	0.034294665	0	68170.06	68076.34	-1.8838304e-05	658471.8	194528.4	-0.00016982047	196833.77	658089.75	-8.085479e-05
0	0.60993564	0.60910827	-3.6957407e-10	0.033941183	0.033941183	0	68118.93	68026.52	-3.6710542e-05	658698.06	193666.75	-0.00036390102	195968.28	658325.1	-0.00010579132
0	0.6094745	0.6086589	-1.7323785e-11	0.03358749	0.03358749	0	68067.43	67976.34	-2.8982006e-06	658924.56	192800.28	-6.065017e-05	195097.94	658560.8	1.5113045e-05
0	0.6090113	0.60820806	-3.5802486e-10	0.033234067	0.033234067	0	68015.7	67925.984	-4.347301e-05	659150.8	191931.7	-0.00026686073	194225.06	658796.4	-0.0003166183
0	0.6085443	0.6077536	-5.312627e-10	0.032880414	0.032880414	0	67963.55	67875.23	-5.893008e-05	659377.7	191057.2	-0.00040029112	193346.14	659032.7	-0.00040805223
0	0.60807663	0.60729784	-7.506973e-11	0.032526962	0.032526962	0	67911.31	67824.336	-1.25588695e-05	659602.4	190183.67	-6.974769e-05	192468.62	659266.5	-9.370088e-05
0	0.60760164	0.6068368	-2.194346e-10	0.032173272	0.032173272	0	67858.266	67772.85	-2.584229e-05	659831.8	189296.72	-0.00013343037	191576.1	659506	-0.00016322089
0	0.60712594	0.60637456	-3.1182812e-10	0.03181982	0.03181982	0	67805.13	67721.22	-3.4778408e-05	660058.8	188410.64	-0.00026686073	190684.73	659743.2	-0.00017531133
0	0.6066469	0.6059094	-2.078854e-10	0.03146637	0.03146637	0	67751.64	67669.27	-2.1253472e-05	660286.25	187520.08	-0.0002516982	189788.64	659980.7	-5.289566e-06
0	0.6061663	0.6054418	-2.5408217e-10	0.031112673	0.031112673	0	67697.97	67617.05	-2.8740491e-05	660511.75	186628.39	-0.00024260068	188892.17	660215.9	-0.0001345061
0	0.6056791	0.6049698	-4.2732e-10	0.030759217	0.030759217	0	67643.56	67564.336	-4.637121e-05	660741.8	185724.81	-0.00035177098	187981.84	660456.75	-0.0003600683
0	0.6051927	0.6044973	-4.417565e-10	0.030405547	0.030405547	0	67589.23	67511.57	-5.4099746e-05	660967.2	184825.86	-0.000357836	187077.34	660692.4	-0.00034457745
0	0.6046984	0.60401887	-6.9006406e-10	0.03005209	0.03005209	0	67534.02	67458.14	-7.680232e-05	661197.9	183912.33	-0.00052159146	186156.45	660934.3	-0.0005750514
0	0.60420364	0.6035397	-2.9161704e-10	0.029698402	0.029698402	0	67478.77	67404.625	-3.3087792e-05	661426	183000.45	-0.00020621058	185237.6	661173.3	-0.00025389917
0	0.6037051	0.60305697	-2.8872973e-10	0.029345004	0.029345004	0	67423.1	67350.7	-3.091414e-05	661654.56	182083.02	-0.00018195051	184312.94	661413.06	-0.00032644178
0	0.6032031	0.6025709	-2.367584e-10	0.028991325	0.028991327	0	67367.02	67296.43	-2.656684e-05	661883.3	181160.73	-0.00012130034	183383.31	661653	-0.00026221134
0	0.6027002	0.6020835	-4.157708e-10	0.028637864	0.028637864	0	67310.86	67241.99	-4.6854246e-05	662109.75	180239.05	-0.00038816108	182454.61	661890.44	-0.000262967
0	0.602191	0.60159105	-3.349265e-10	0.0282842	0.0282842	0	67253.99	67186.99	-3.960874e-05	662339.25	179306.58	-0.00027899077	181514.14	662131.5	-0.00025352134
0	0.6016771	0.6010957	-2.6563135e-10	0.027930735	0.027930735	0	67196.6	67131.664	-3.2846274e-05	662570.56	178367.33	-0.00024260068	180565.39	662375.4	-0.00017531133
0	0.60116184	0.60059816	-4.6196758e-11	0.027577262	0.027577264	0	67139.05	67076.09	-4.8303345e-06	662799.8	177427.5	-3.63901e-05	179616.62	662616.7	-2.0402611e-05
0	0.6006426	0.600097	-3.6379946e-10	0.02722359	0.02722359	0	67081.06	67020.13	-3.960874e-05	663029.5	176482.11	-0.00030325085	178662.02	662858.56	-0.00022065047
0	0.60011995	0.59959286	-2.252092e-10	0.02687012	0.02687012	0	67022.69	66963.82	-2.6083806e-05	663259.44	175531.98	-0.00016982047	177702.28	663100.94	-0.00015717567
0	0.5995935	0.5990854	-2.6563135e-10	0.026516464	0.026516464	0	66963.91	66907.15	-2.801594e-05	663489.5	174576.77	-0.00019408054	176737.08	663343.75	-0.00017531133
0	0.5990635	0.59857476	-1.9633623e-10	0.026162986	0.026162986	0	66904.71	66850.125	-1.9321338e-05	663719.8	173616.84	-0.00016375545	175766.84	663586.8	-0.000117881755
0	0.5985299	0.5980611	-2.1366e-10	0.025809323	0.025809323	0	66845.125	66792.76	-2.366864e-05	663950.25	172652.16	-0.00026686073	174791.34	663830.3	-0.00011523697
0	0.5979925	0.597544	-1.2704109e-10	0.025455913	0.025455913	0	66785.1	66735.01	-1.5940104e-05	664180.94	171682.31	-0.00025473072	173810.3	664074.3	5.856305e-05
0	0.59745127	0.5970234	-4.157708e-10	0.02510226	0.02510226	0	66724.664	66676.87	-4.637121e-05	664411.8	170707.23	-0.0003153809	172823.75	664318.6	-0.00031132874
0	0.5969064	0.59650004	-2.9161704e-10	0.024748776	0.024748776	0	66663.805	66618.414	-2.8982007e-05	664642.9	169727.53	-0.00021834062	171831.83	664563.56	-0.0001821122
0	0.59635764	0.59597296	-4.6196758e-10	0.024395136	0.024395136	0	66602.516	66559.555	-4.9269413e-05	664874.2	168742.48	-0.00038512857	170834.3	664808.7	-0.00022367308
0	0.59580487	0.5954424	-1.6168865e-10	0.02404165	0.02404165	0	66540.78	66500.3	-1.9321338e-05	665105.7	167751.83	-8.4910236e-05	169830.72	665054.44	-0.0001258161
0	0.5952483	0.5949087	-3.291519e-10	0.023688156	0.023688156	0	66478.61	66440.69	-3.622751e-05	665337.44	166756.45	-0.00026686073	168821.83	665300.6	-0.00019269132
0	0.5946875	0.5943713	-3.2049e-10	0.023334507	0.023334507	0	66415.984	66380.67	-3.5744477e-05	665569.6	165755.25	-0.0001455604	167806.62	665547.44	-0.00033853223
0	0.59412503	0.59383136	-1.4147757e-10	0.022981009	0.022981007	0	66353.17	66320.375	-1.6423137e-05	665799.4	164753.28	-0.00013343037	166791.44	665791.5	-5.7429574e-05
0	0.593556	0.5932866	-4.2732e-10	0.022627385	0.022627385	0	66289.625	66259.53	-5.168458e-05	666031.94	163740.92	-0.0004609413	165764.38	666039.06	-0.00018437915
0	0.59298307	0.5927387	-2.9161704e-10	0.022273881	0.022273881	0	66225.63	66198.336	-3.188021e-05	666265	162723.34	-0.00035177098	164731.28	666287.5	-6.4986096e-05
0	0.5924037	0.5921867	-1.2704109e-10	0.021920247	0.021920247	0	66160.93	66136.695	-1.4491004e-05	666500.25	161696.7	-0.00020621058	163687	666539.3	3.32487e-05
0	0.59182227	0.5916317	-2.6563135e-10	0.021566825	0.021566825	0	66095.984	66074.71	-3.0431107e-05	666733.44	160668.4	-0.00024260068	162641.89	666788.56	-0.00014810785
0	0.5912365	0.5910728	-2.7718056e-10	0.02121319	0.02121319	0	66030.57	66012.29	-2.7532908e-05	666967.2	159633.88	-0.00026686073	161590.16	667038.5	-0.00010730262
0	0.59064645	0.59051037	1.15491894e-10	0.020859683	0.020859683	0	65964.67	65949.48	1.6423137e-05	667200.8	158594.16	2.4260067e-05	160532.47	667288.75	0.00020553742
0	0.5900518	0.58994406	-2.4253297e-10	0.02050608	0.02050608	0	65898.26	65886.23	-2.7532908e-05	667435.1	157548.03	-0.00019408054	159467.77	667539.8	-0.00015793132
0	0.5894527	0.589374	-2.8872973e-10	0.020152565	0.020152565	0	65831.35	65822.57	-3.622751e-05	667669.7	156496.23	-0.00040029112	158396.69	667791.44	-1.5113045e-05
0	0.5888491	0.5888002	-2.4253297e-10	0.019798946	0.019798946	0	65763.95	65758.48	-2.4634706e-05	667904.3	155438.66	-0.00027899077	157319.2	668043.56	-6.80087e-05
0	0.5882409	0.5882225	-2.078854e-10	0.019445425	0.019445425	0	65696.016	65693.95	-2.946504e-05	668139.5	154374.75	-0.0002911208	156234.67	668296.44	-4.4583485e-05
0	0.58762807	0.58764076	2.3098379e-11	0.019091895	0.019091895	0	65627.57	65628.99	3.8642675e-06	668374.9	153304.78	3.63901e-05	155143.39	668549.9	-3.022609e-06
0	0.5870104	0.58705515	-2.3098379e-11	0.018738285	0.018738283	0	65558.586	65563.586	-1.9321337e-06	668610.6	152228.58	-2.4260067e-05	154045.1	668804.06	-3.1737396e-05
0	0.5863879	0.5864655	-3.6957407e-10	0.01838477	0.018384768	0	65489.066	65497.727	-4.1540876e-05	668846.94	151145.95	-0.00035177098	152939.56	669058.9	-0.00022140612
0	0.5857606	0.58587176	-2.3098379e-10	0.018031169	0.018031169	0	65419.008	65431.426	-2.0287405e-05	669083.4	150057.16	-0.00021834062	151827.03	669314.44	-8.7655666e-05
0	0.5851282	0.585274	-2.194346e-10	0.01767773	0.01767773	0	65348.383	65364.668	-2.7049873e-05	669320.3	148961.77	-0.0002911208	150707.1	669570.7	-6.196349e-05
0	0.5844908	0.584672	-1.7323784e-10	0.017324138	0.017324138	0	65277.195	65297.438	-1.8838304e-05	669557.5	147859.72	-9.704027e-05	149579.69	669827.75	-0.00015642002
0	0.5838483	0.5840658	-1.6457595e-10	0.016970592	0.016970592	0	65205.438	65229.73	-1.7872238e-05	669795.25	146751.03	-0.00010917031	148444.69	670085.5	-0.00012997219
0	0.5832006	0.5834555	5.7745948e-12	0.016617034	0.016617034	0	65133.105	65161.562	9.660669e-07	670033.4	145635.69	-0.00010310529	147302.05	670344.06	0.00013904001
0	0.5825475	0.5828406	-3.002789e-10	0.016263481	0.01626348	0	65060.168	65092.902	-3.526144e-05	670272.06	144513.12	-0.00019408054	146151.28	670603.7	-0.00027808003
0	0.5818891	0.58222157	-4.735168e-10	0.01590991	0.01590991	0	64986.633	65023.773	-5.313368e-05	670511.1	143383.92	-0.00036390102	144992.78	670864	-0.0002690122
0	0.58122534	0.581598	-3.9267245e-10	0.015556336	0.015556336	0	64912.504	64954.12	-4.1540876e-05	670750.6	142247.45	-0.00029718582	143826.28	671125.06	-0.00024180872
0	0.58055586	0.58097005	-1.7323785e-11	0.015202774	0.015202774	0	64837.73	64883.99	-1.9321337e-06	670990.75	141103.83	-0.00016982047	142651.14	671387.3	0.00015717567
0	0.5798807	0.5803375	-9.2393516e-11	0.014849201	0.014849202	0	64762.332	64813.344	-8.694602e-06	671231.4	139952.9	-4.8520134e-05	141467.77	671650.3	-7.556523e-05
0	0.5791998	0.5797004	-3.9844703e-10	0.014495662	0.014495662	0	64686.29	64742.203	-4.443908e-05	671472.3	138794.73	-0.00030931586	140275.78	671914.4	-0.00032644178
0	0.578513	0.5790584	-1.8478703e-10	0.0141421	0.0141421	0	64609.586	64670.504	-2.0287405e-05	671714.25	137628.42	-0.00019408054	139074.77	672179.5	-9.899045e-05
0	0.5778202	0.5784122	-5.197135e-11	0.013788632	0.013788632	0	64532.21	64598.33	-5.796401e-06	671956.4	136455.23	-0.00016982047	137865.12	672445.56	0.00012543828
0	0.57712126	0.57776093	-6.005578e-10	0.01343506	0.01343506	0	64454.152	64525.59	-6.859075e-05	672199.3	135273.75	-0.00048520137	136646.08	672712.94	-0.00047001572
0	0.57641625	0.5771047	-8.9506215e-11	0.013081493	0.013081493	0	64375.418	64452.31	-9.177636e-06	672442.75	134084.4	-7.27802e-05	135417.89	672981.2	-1.2090436e-05
0	0.57570463	0.5764436	-5.7745947e-10	0.012727956	0.012727956	0	64295.945	64378.473	-6.569255e-05	672687.1	132886.69	-0.00048520137	134179.75	673250.94	-0.00043298875
0	0.5749869	0.57577735	-5.0238974e-10	0.012374388	0.012374388	0	64215.77	64304.066	-6.0862214e-05	672932.06	131680.89	-0.00056404655	132932.33	673521.6	-0.00020251481
0	0.5742621	0.5751064	-3.1760272e-10	0.012020825	0.0120208245	0	64134.836	64229.12	-3.7676607e-05	673177.7	130466.89	-0.00037603106	131674.56	673793.75	-3.929392e-05
0	0.5735307	0.5744298	-1.5591406e-10	0.011667253	0.011667253	0	64053.15	64153.562	-1.7389204e-05	673424.3	129243.72	-0.0001455604	130406.42	674067.3	-1.2090436e-05
0	0.57279223	0.57374835	-2.1366e-10	0.011313693	0.011313693	0	63970.67	64077.46	-2.221954e-05	673671.44	128012.36	-0.00015162543	129127.9	674342.1	-0.00014055132
0	0.57204664	0.57306135	0	0.0109601235	0.0109601235	0	63887.402	64000.734	-1.9321337e-06	673919.7	126771.72	-4.8520134e-05	127838.43	674618.7	7.254262e-05
0	0.57129407	0.57236856	-3.464757e-11	0.010606595	0.010606595	0	63803.35	63923.367	-1.9321337e-06	674168.94	125521.46	-0.00010917031	126538.02	674896.4	8.916697e-05
0	0.57053363	0.57167107	5.7745947e-11	0.01025304	0.01025304	0	63718.42	63845.465	2.8982006e-06	674418.7	124262.8	-0.00010917031	125226.17	675176.06	0.0001964696
0	0.5697657	0.57096756	0	0.009899473	0.009899473	0	63632.668	63766.89	-1.4491003e-06	674669.7	122994.15	-0.00013343037	123902.7	675457.25	0.00019873655
0	0.5689898	0.5702582	-1.9056162e-10	0.009545947	0.009545947	0	63546.004	63687.668	-2.0287405e-05	674921.9	121715.43	-0.00015769045	122566.78	675740.3	-7.4053925e-05
0	0.5682058	0.56954306	-1.2126648e-10	0.009192384	0.009192385	0	63458.45	63607.812	-1.3524937e-05	675175	120426.92	-0.00019408054	121218.76	676025.2	7.858784e-05
0	0.5674135	0.56882215	-3.5802486e-10	0.008838865	0.008838865	0	63369.97	63527.29	-3.8642676e-05	675429.3	119128.14	-0.00040029112	119857.92	676311.9	-0.00012392698
0	0.5666127	0.5680949	-2.5696947e-10	0.008485296	0.008485296	0	63280.535	63446.07	-3.188021e-05	675684.9	117818.58	-0.00017588549	118483.836	676600.75	-0.00021007133
0	0.5658032	0.5673614	-4.792914e-10	0.00813174	0.008131741	0	63190.113	63364.152	-5.2167612e-05	675941.94	116498.04	-0.0003214459	117096.06	676891.75	-0.00038538265
0	0.5649841	0.566622	1.15491896e-11	0.007778168	0.007778168	0	63098.65	63281.566	-9.660669e-07	676200	115166.875	-9.704027e-05	115694.07	677185.06	0.0001473522
0	0.564156	0.56587595	-4.157708e-10	0.0074246004	0.007424601	0	63006.17	63198.25	-4.637121e-05	676459.56	113824.336	-0.00036390102	114277.98	677480.5	-0.00025541047
0	0.56331795	0.5651233	-2.7718056e-10	0.00707105	0.00707105	0	62912.57	63114.19	-3.091414e-05	676720.75	112469.7	-0.00029718582	112846.234	677778.7	-0.00012997219
0	0.56246984	0.5643638	-3.7534867e-10	0.00671753	0.00671753	0	62817.85	63029.367	-4.057481e-05	676983.75	111102.72	-0.00035177098	111398.734	678079.56	-0.00019118002