# t (s)	mx ()	my ()	mz ()	B_extx (T)	B_exty (T)	B_extz (T)	m_fullx (A/m)	m_fully (A/m)	m_fullz (A/m)	m_full.region1x (A/m)	m_full.region1y (A/m)	m_full.region1z (A/m)	m_full.region2x (A/m)	m_full.region2y (A/m)	m_full.region2z (A/m)
0	0.64748085	0.6474797	-2.1457672e-10	0.07071087	0.07071087	0	90647.33	90647.164	-3.75e-05	626153.75	280318.38	-0.000125	280319.5	626153.2	-0.0002765625
0	0.64724076	0.6472403	-2.7418137e-10	0.070357256	0.070357256	0	90613.71	90613.64	-3.75e-05	626347.44	279789.12	-0.00028125	279789.72	626347.3	-0.0001171875
0	0.64699465	0.6469942	-5.722046e-10	0.07000352	0.07000352	0	90579.25	90579.2	-8.25e-05	626549.4	279242.56	-0.000421875	279243.12	626549.25	-0.0004296875
0	0.6467502	0.64674973	-2.2649765e-10	0.06964992	0.06964992	0	90545.03	90544.97	-3.6875e-05	626748.8	278700.97	-0.00018125	278701.5	626748.7	-0.00014921874
0	0.64650315	0.64650273	-2.6226044e-10	0.069296576	0.069296576	0	90510.445	90510.375	-3.5625e-05	626949.25	278154.7	-0.00018125	278155.2	626949.1	-0.00021328125
0	0.6462543	0.6462539	-3.33786e-10	0.06894301	0.068943	0	90475.6	90475.54	-4.875e-05	627150.3	277605.22	-0.00016875	277605.75	627150.2	-0.0003
0	0.6460059	0.64600545	-9.089708e-11	0.06858927	0.06858927	0	90440.83	90440.77	-1.78125e-05	627349.94	277057.88	-7.1875e-05	277058.34	627349.8	-9.21875e-05
0	0.6457548	0.64575434	-3.9339065e-10	0.068235666	0.068235666	0	90405.664	90405.61	-5.3125e-05	627551	276505.12	-0.000171875	276505.66	627550.94	-0.00037265624
0	0.64550215	0.64550173	-3.2484532e-10	0.067882314	0.06788232	0	90370.305	90370.25	-4.375e-05	627752.94	275949.66	-0.0001875	275950.2	627752.9	-0.00028359375
0	0.6452474	0.6452469	-3.695488e-10	0.06752872	0.06752871	0	90334.64	90334.58	-5.1875e-05	627956.4	275389.44	-0.00029375	275389.94	627956.4	-0.00023671876
0	0.6449917	0.6449913	5.960465e-11	0.067174986	0.067174986	0	90298.836	90298.79	7.5e-06	628158.9	274828.97	-3.75e-05	274829.5	628158.75	8.671875e-05
0	0.64473635	0.6447359	-1.5497208e-10	0.06682176	0.06682176	0	90263.08	90263.03	-2.875e-05	628360.06	274270.28	-0.000225	274270.78	628360	-5.390625e-05
0	0.64447784	0.64447737	-3.3080577e-10	0.06646816	0.06646817	0	90226.88	90226.83	-4.1875e-05	628563.4	273705.06	-0.00020625	273705.56	628563.2	-0.00020625
0	0.6442176	0.64421713	-4.529953e-10	0.066114426	0.066114426	0	90190.47	90190.41	-6.875e-05	628766.4	273137.78	-0.0003	273138.28	628766.2	-0.0003234375
0	0.6439575	0.6439571	-2.2649765e-10	0.06576085	0.06576085	0	90154.05	90153.99	-3.25e-05	628969.5	272570.47	-0.0001125	272570.97	628969.5	-0.0001984375
0	0.6436947	0.6436943	-1.6391277e-10	0.06540747	0.06540747	0	90117.266	90117.2	-2.8125e-05	629173.6	271998.5	-0.000115625	271999	629173.56	-0.000203125
0	0.6434307	0.6434303	-3.784895e-10	0.065053925	0.065053925	0	90080.3	90080.24	-5.375e-05	629377.9	271424.6	-0.00023125	271425.06	629377.8	-0.0002828125
0	0.6431653	0.6431649	-1.7881394e-10	0.064700186	0.064700186	0	90043.13	90043.086	-2.6875e-05	629582.6	270848.25	-6.25e-05	270848.75	629582.56	-0.000215625
0	0.6428968	0.6428963	-4.2021275e-10	0.0643466	0.0643466	0	90005.555	90005.49	-5.875e-05	629789.06	270265.84	-0.000234375	270266.34	629789.06	-0.000346875
0	0.64263004	0.6426296	-2.6673078e-10	0.063993216	0.063993216	0	89968.2	89968.15	-3.25e-05	629992.4	269689.16	-0.00019375	269689.66	629992.4	-0.0001828125
0	0.64235824	0.6423579	-2.9802322e-10	0.06363963	0.06363963	0	89930.16	89930.09	-3.75e-05	630199.75	269101.28	-0.0002625	269101.78	630199.7	-0.000134375
0	0.6420883	0.642088	-4.1723253e-10	0.0632859	0.0632859	0	89892.36	89892.31	-6.28125e-05	630404	268519.22	-0.0003125	268519.72	630403.8	-0.00031328126
0	0.64181584	0.6418154	-3.0994415e-10	0.062932655	0.062932655	0	89854.21	89854.16	-4.90625e-05	630609.44	267932.28	-0.00023125	267932.78	630609.3	-0.000265625
0	0.64154094	0.64154047	-3.576279e-11	0.06257908	0.06257908	0	89815.73	89815.67	-5.625e-06	630816.1	267340.7	-7.5e-05	267341.16	630816.1	2.421875e-05
0	0.6412649	0.6412645	-2.384186e-10	0.062225346	0.062225346	0	89777.08	89777.03	-3.0625e-05	631022.4	266747.97	-0.000209375	266748.44	631022.3	-0.000128125
0	0.6409865	0.64098614	-1.9073486e-10	0.061871782	0.06187178	0	89738.11	89738.06	-3.09375e-05	631230.7	266150	-0.0001625	266150.47	631230.56	-0.00015703125
0	0.6407083	0.64070797	-2.9802322e-10	0.061518367	0.061518367	0	89699.164	89699.125	-4.46875e-05	631436.4	265554.88	-0.000203125	265555.3	631436.3	-0.00023828125
0	0.64042634	0.6404259	-4.6491622e-10	0.061164834	0.061164834	0	89659.69	89659.64	-6.8125e-05	631645.7	264950.72	-0.000359375	264951.22	631645.7	-0.0003453125
0	0.64014524	0.6401449	-3.0994415e-10	0.060811102	0.060811102	0	89620.336	89620.27	-4.5e-05	631851.6	264351.16	-0.0002875	264351.62	631851.6	-0.00017421875
0	0.6398609	0.63986063	-2.503395e-10	0.06045754	0.06045754	0	89580.53	89580.484	-3.375e-05	632060	263744.84	-0.0002125	263745.34	632060	-0.00013671875
0	0.63957506	0.6395747	-3.1292438e-10	0.060104124	0.060104124	0	89540.51	89540.45	-4.5625e-05	632268.2	263136.38	-0.000209375	263136.8	632268.25	-0.0002578125
0	0.6392882	0.63928777	-2.9802322e-10	0.059750553	0.059750557	0	89500.34	89500.28	-3.6875e-05	632477.4	262525.66	-0.0001125	262526.1	632477.3	-0.000209375
0	0.63899964	0.63899934	-2.1159649e-10	0.059396826	0.059396826	0	89459.94	89459.9	-3.1875e-05	632685.9	261913.1	-7.5e-05	261913.55	632685.94	-0.000234375
0	0.6387092	0.63870883	-3.9339065e-10	0.05904356	0.05904356	0	89419.28	89419.23	-6.25e-05	632895.06	261297.23	-0.0003	261297.72	632895.1	-0.0003484375
0	0.6384165	0.63841623	-1.2516975e-10	0.058689985	0.05868999	0	89378.31	89378.27	-1.75e-05	633104.3	260678.34	-1.25e-05	260678.81	633104.3	-0.0001265625
0	0.63812256	0.63812214	-3.4719705e-10	0.058336265	0.058336265	0	89337.15	89337.11	-5.125e-05	633314.4	260056.7	-0.0003125	260057.17	633314.3	-0.00019921875
0	0.63782644	0.63782614	-4.3213366e-10	0.057982713	0.057982713	0	89295.71	89295.664	-5.59375e-05	633524.6	259432.02	-0.00020625	259432.45	633524.6	-0.00037109375
0	0.6375283	0.637528	-4.053116e-10	0.05762927	0.057629272	0	89253.97	89253.92	-5.75e-05	633736.8	258802.4	-0.0002	258802.84	633736.7	-0.00039296874
0	0.63723195	0.6372316	-3.2633543e-10	0.05727571	0.05727571	0	89212.47	89212.414	-4.75e-05	633945.2	258179	-0.000246875	258179.44	633945.25	-0.00020546875
0	0.63693017	0.63692987	-2.503395e-10	0.056922026	0.056922022	0	89170.22	89170.164	-3.75e-05	634157.8	257543.98	-0.000259375	257544.42	634157.75	-0.000115625
0	0.6366296	0.6366292	-2.026558e-10	0.05656847	0.05656847	0	89128.14	89128.1	-2.1875e-05	634366.75	256914.28	-8.75e-05	256914.69	634366.75	-0.000203125
0	0.63632387	0.6363236	-1.579523e-10	0.056215018	0.056215018	0	89085.36	89085.305	-1.5e-05	634580.25	256272.8	-0.000121875	256273.2	634580.4	-8.984375e-05
0	0.63601923	0.6360189	-3.7252904e-10	0.05586147	0.055861466	0	89042.69	89042.64	-4.875e-05	634790.5	255635.92	-0.00033125	255636.36	634790.56	-0.00017734375
0	0.6357107	0.6357105	-3.1739472e-10	0.05550775	0.05550775	0	88999.51	88999.48	-4.34375e-05	635003.9	254990.75	-0.00015	254991.19	635003.9	-0.000309375
0	0.63540286	0.6354026	-2.7567149e-10	0.055154454	0.055154454	0	88956.41	88956.37	-3.53125e-05	635214.4	254349.28	-0.00019375	254349.7	635214.3	-0.00015703125
0	0.63509005	0.63508976	-4.3660403e-10	0.054800894	0.054800894	0	88912.6	88912.57	-6.5e-05	635428.7	253697.05	-0.00035625	253697.44	635428.6	-0.00033828124
0	0.6347791	0.6347788	-5.9604643e-12	0.05444719	0.05444719	0	88869.07	88869.03	-1.875e-06	635639.6	253050.66	-3.75e-05	253051.08	635639.6	-2.65625e-05
0	0.6344622	0.63446194	-7.152558e-11	0.05409365	0.05409365	0	88824.695	88824.67	-1.1875e-05	635854.56	252391.94	-5.3125e-05	252392.34	635854.75	-8.125e-05
0	0.63414663	0.6341463	-4.529953e-10	0.053740162	0.053740162	0	88780.52	88780.484	-6.125e-05	636067.56	251737.19	-0.000325	251737.6	636067.6	-0.00035234375
0	0.63382983	0.6338296	-4.634261e-10	0.05338662	0.05338662	0	88736.17	88736.14	-6.40625e-05	636279.3	251082.14	-0.0004125	251082.52	636279.25	-0.0002546875
0	0.63350844	0.6335082	-3.9190054e-10	0.053032946	0.053032946	0	88691.18	88691.15	-5.65625e-05	636494.7	250416.84	-0.0003375	250417.2	636494.6	-0.0002640625
0	0.6331865	0.63318634	-2.861023e-10	0.05267941	0.05267941	0	88646.11	88646.086	-4e-05	636708.6	249752.06	-0.000215625	249752.47	636708.7	-0.00021796874
0	0.6328637	0.6328634	-3.1143427e-10	0.052325904	0.052325904	0	88600.91	88600.86	-4.4375e-05	636921.5	249087.23	-0.000134375	249087.61	636921.5	-0.00031875
0	0.63253677	0.6325364	-2.2053719e-10	0.051972378	0.051972378	0	88555.14	88555.11	-3.5e-05	637137.44	248413.6	-0.0002125	248414	637137.44	-0.0001234375
0	0.63221085	0.6322106	-8.34465e-11	0.051618665	0.051618665	0	88509.51	88509.49	-7.1875e-06	637350.2	247744.56	-0.0001	247744.95	637350.3	-2.34375e-05
0	0.6318799	0.6318797	-2.503395e-10	0.051265337	0.051265337	0	88463.19	88463.16	-3.96875e-05	637567.06	247064.39	-0.00025	247064.78	637567.1	-0.0001359375
0	0.63154936	0.6315491	-2.026558e-10	0.05091181	0.050911807	0	88416.92	88416.88	-2.8125e-05	637780.8	246387.92	-0.000121875	246388.28	637780.9	-0.0001375
0	0.63121396	0.6312137	-3.784895e-10	0.0505581	0.050558094	0	88369.95	88369.93	-4.9375e-05	637998.25	245700.92	-0.00031875	245701.28	637998.3	-0.00019765625
0	0.630881	0.63088083	-3.695488e-10	0.05020459	0.05020459	0	88323.336	88323.32	-5.125e-05	638211.8	245021.2	-0.00020625	245021.55	638211.94	-0.00029375
0	0.6305414	0.6305412	-2.9802322e-12	0.04985105	0.04985105	0	88275.8	88275.766	-6.25e-06	638430	244327.66	-7.8125e-05	244328.02	638430	3.359375e-05
0	0.6302033	0.6302031	-2.861023e-10	0.049497534	0.04949753	0	88228.48	88228.445	-3.65625e-05	638644.44	243639.86	-0.00025625	243640.22	638644.5	-0.0001390625
0	0.62986183	0.62986153	-1.66893e-10	0.049143866	0.049143866	0	88180.66	88180.625	-2.09375e-05	638860.6	242945.53	-0.000134375	242945.88	638860.7	-6.484375e-05
0	0.6295179	0.62951773	-1.5497208e-10	0.04879036	0.04879036	0	88132.51	88132.484	-2.03125e-05	639079.06	242245.7	-0.0001	242246.06	639079.1	-7.578125e-05
0	0.62917495	0.6291748	-2.861023e-10	0.0484368	0.0484368	0	88084.49	88084.47	-3.6875e-05	639293.7	241550.9	-0.000215625	241551.23	639293.75	-0.000203125
0	0.62882704	0.62882686	-1.3113022e-10	0.048083294	0.048083294	0	88035.79	88035.76	-2.0625e-05	639511.06	240846.6	-0.000103125	240846.92	639511.06	-7.8125e-05
0	0.62847835	0.6284782	-4.887581e-10	0.047729596	0.047729596	0	87986.96	87986.95	-7e-05	639728	240141.52	-0.000478125	240141.83	639728	-0.0003328125
0	0.6281264	0.6281262	-3.7699938e-10	0.04737622	0.047376227	0	87937.69	87937.67	-5.375e-05	639945.75	239430.9	-0.0002375	239431.22	639945.75	-0.0003265625
0	0.62777233	0.6277722	-2.9802322e-10	0.04702272	0.04702272	0	87888.125	87888.11	-3.96875e-05	640164.1	238716.95	-0.00034375	238717.27	640164.1	-0.00012578125
0	0.6274178	0.6274176	-2.2649765e-10	0.046669014	0.046669014	0	87838.49	87838.46	-2.75e-05	640381.3	238003.33	-0.000125	238003.61	640381.4	-0.00023359375
0	0.6270587	0.62705857	-2.384186e-10	0.046315532	0.04631553	0	87788.22	87788.195	-3.375e-05	640601.44	237280.39	-0.000159375	237280.69	640601.56	-0.0001890625
0	0.62669885	0.62669873	-7.003546e-11	0.045961935	0.045961928	0	87737.836	87737.81	-1.03125e-05	640819.9	236558.23	-5e-05	236558.56	640819.94	-5.078125e-05
0	0.62633675	0.6263367	-4.887581e-10	0.04560844	0.04560844	0	87687.15	87687.125	-6.796875e-05	641038.75	235832.53	-0.000403125	235832.78	641038.9	-0.00032421874
0	0.6259731	0.6259729	-2.9206276e-10	0.04525479	0.04525479	0	87636.234	87636.21	-3.53125e-05	641257.06	235104.95	-0.000175	235105.23	641257.2	-0.0002390625
0	0.6256067	0.62560666	-2.7418137e-10	0.0449013	0.0449013	0	87584.945	87584.92	-3.84375e-05	641476.25	234372.86	-0.000275	234373.12	641476.4	-0.00014921874
0	0.62523866	0.6252386	-3.9339065e-10	0.044547684	0.044547684	0	87533.414	87533.41	-5.6875e-05	641693.9	233639.94	-0.00036875	233640.19	641694.1	-0.0002015625
0	0.624867	0.6248669	-1.192093e-10	0.04419421	0.04419421	0	87481.4	87481.37	-1.09375e-05	641915.3	232898.28	-0.00013125	232898.52	641915.44	-4.296875e-05
0	0.62449485	0.6244948	-2.5629998e-10	0.043840516	0.043840516	0	87429.28	87429.266	-3.8125e-05	642134.44	232158.11	-0.000134375	232158.34	642134.5	-0.00023671876
0	0.62412107	0.62412107	-2.2947788e-10	0.043487042	0.043487042	0	87376.96	87376.94	-2.609375e-05	642352.56	231416.78	-0.00013125	231417.03	642352.56	-0.0001421875
0	0.62374365	0.62374353	-1.0430813e-10	0.043133624	0.043133624	0	87324.1	87324.1	-1.890625e-05	642572.4	230668.42	-7.5e-05	230668.67	642572.5	-9.0625e-05
0	0.62336385	0.6233638	-3.4570694e-10	0.04277993	0.04277993	0	87270.945	87270.945	-4.5e-05	642792.94	229916.23	-0.0002375	229916.44	642793.2	-0.00026171876
0	0.62298054	0.62298054	-2.6226044e-10	0.042426456	0.04242646	0	87217.266	87217.266	-3.515625e-05	643015.1	229157.4	-0.000175	229157.61	643015.25	-0.00020859374
0	0.62259793	0.62259793	-2.2351741e-10	0.042072807	0.042072814	0	87163.71	87163.695	-2.78125e-05	643233.7	228403.25	-9.0625e-05	228403.48	643233.8	-0.0002359375
0	0.6222098	0.6222098	-4.7683715e-11	0.041719347	0.041719347	0	87109.375	87109.375	-9.375e-06	643456.56	227636.98	-7.8125e-05	227637.2	643456.7	-7.8125e-06
0	0.6218228	0.6218228	-1.8626452e-10	0.041365713	0.041365713	0	87055.19	87055.19	-2.75e-05	643675.3	226876.34	-0.00025625	226876.55	643675.56	-9.21875e-05
0	0.6214298	0.6214298	-5.960465e-11	0.041012257	0.041012257	0	87000.18	87000.164	-1.5625e-05	643898.75	226102.83	-0.0002125	226103.02	643898.8	3.203125e-05
0	0.62103796	0.62103796	-3.0994415e-10	0.04065857	0.04065857	0	86945.3	86945.31	-4.015625e-05	644117.8	225335.17	-0.00030625	225335.33	644117.94	-0.0001171875
0	0.6206415	0.6206415	-2.8908254e-10	0.04030513	0.04030513	0	86889.82	86889.82	-4.140625e-05	644339.8	224558.2	-0.00020625	224558.39	644339.94	-0.0002046875
0	0.62024343	0.6202434	-3.5762787e-10	0.039951444	0.039951444	0	86834.07	86834.086	-4.578125e-05	644561	223779.58	-0.000353125	223779.73	644561.1	-0.00015859376
0	0.6198419	0.61984193	-4.2021275e-10	0.039597984	0.039597984	0	86777.86	86777.87	-6.3125e-05	644783.06	222995.4	-0.0004	222995.58	644783.25	-0.00023359375
0	0.6194373	0.61943734	-3.4570694e-10	0.039244533	0.039244533	0	86721.23	86721.22	-4.96875e-05	645007.06	222205.06	-0.000278125	222205.19	645007.25	-0.00023515624
0	0.61903167	0.6190317	-4.2766332e-10	0.038890842	0.038890842	0	86664.44	86664.44	-5.96875e-05	645227.9	221416.45	-0.000325	221416.58	645228.06	-0.00029765625
0	0.61862487	0.6186249	-2.771616e-10	0.038537383	0.03853738	0	86607.484	86607.484	-3.9375e-05	645449.5	220625.16	-0.000271875	220625.31	645449.75	-0.0001390625
0	0.6182138	0.6182139	-3.9190054e-10	0.038183715	0.038183715	0	86549.92	86549.94	-5.53125e-05	645671.8	219827.36	-0.000384375	219827.45	645672.06	-0.0001359375
0	0.61780006	0.6178001	-1.9967555e-10	0.037830256	0.037830256	0	86492.01	86492.016	-3.09375e-05	645896.44	219023.47	-0.000190625	219023.6	645896.7	-0.00013203124
0	0.6173851	0.6173852	-2.682209e-10	0.037476573	0.037476573	0	86433.91	86433.94	-4.15625e-05	646118.8	218220.19	-0.0001375	218220.28	646119	-0.00028125
0	0.6169678	0.6169679	-2.7418137e-10	0.03712317	0.03712317	0	86375.49	86375.51	-4e-05	646340.4	217414.5	-0.00025625	217414.61	646340.6	-0.0001578125
0	0.61654574	0.6165459	-3.5762787e-10	0.0367695	0.036769494	0	86316.414	86316.42	-5.03125e-05	646564.9	216599.1	-0.000275	216599.14	646565.06	-0.00024609375
0	0.61612254	0.61612266	-9.536743e-11	0.036416046	0.03641604	0	86257.15	86257.17	-1.125e-05	646788.2	215783.25	-0.0001125	215783.33	646788.44	2.890625e-05
0	0.6156963	0.6156965	-1.6987324e-10	0.03606237	0.036062367	0	86197.484	86197.51	-1.5625e-05	647011.56	214963.3	-0.00019375	214963.38	647011.8	-1.25e-05
0	0.6152696	0.6152698	-1.66893e-10	0.0357089	0.0357089	0	86137.74	86137.766	-1.96875e-05	647232.7	214144.75	-0.000278125	214144.77	647232.94	1.71875e-05
0	0.6148367	0.6148368	-6.243587e-10	0.035355434	0.035355434	0	86077.125	86077.16	-8.9375e-05	647456.75	213314.5	-0.000409375	213314.53	647457.06	-0.00045390625
0	0.61440384	0.614404	-1.579523e-10	0.03500176	0.03500176	0	86016.54	86016.57	-2.09375e-05	647680.1	212485.17	-0.0002375	212485.2	647680.5	3.984375e-05
0	0.6139658	0.613966	-4.529953e-10	0.034648284	0.034648288	0	85955.2	85955.234	-6.40625e-05	647904.8	211647.31	-0.000403125	211647.31	647905.06	-0.0002640625
0	0.61352724	0.6135274	-3.218651e-10	0.034294635	0.034294635	0	85893.81	85893.84	-4.296875e-05	648128.44	210809.73	-0.000328125	210809.73	648128.6	-0.00015859376
0	0.613084	0.6130842	-1.0728836e-10	0.03394116	0.03394116	0	85831.766	85831.79	-1.6875e-05	648354.56	209963.03	-7.1875e-05	209963.03	648354.94	-8.28125e-05
0	0.6126393	0.6126396	-1.7881394e-10	0.033587493	0.03358749	0	85769.51	85769.55	-2.46875e-05	648578.75	209116.36	-0.000175	209116.36	648579.06	-5.9375e-05
0	0.61219275	0.612193	-2.8014183e-10	0.03323408	0.03323408	0	85706.984	85707.03	-3.546875e-05	648801.56	208268.39	-0.000190625	208268.36	648801.9	-0.00015703125
0	0.6117424	0.6117427	-4.7385695e-10	0.032880425	0.032880425	0	85643.94	85643.97	-6.21875e-05	649025.94	207413.4	-0.00041875	207413.36	649026.3	-0.0002546875
0	0.61128783	0.61128813	-3.1888486e-10	0.032526962	0.032526962	0	85580.3	85580.33	-4.578125e-05	649252.1	206550.9	-0.000190625	206550.88	649252.4	-0.000284375
0	0.61083287	0.6108332	-2.9802322e-10	0.0321733	0.0321733	0	85516.6	85516.65	-3.15625e-05	649475.4	205690.73	-0.00025	205690.66	649475.7	-0.00011640625
0	0.61037415	0.61037445	-1.2665988e-10	0.031819817	0.031819817	0	85452.375	85452.42	-1.765625e-05	649699.7	204824.25	-0.000196875	204824.14	649700	-1.40625e-05
0	0.60991204	0.6099123	-3.5762787e-10	0.031466328	0.031466328	0	85387.68	85387.72	-4.84375e-05	649924.6	203952.19	-0.0004125	203952.1	649925	-0.0001
0	0.6094475	0.6094478	-8.34465e-11	0.031112673	0.031112673	0	85322.65	85322.695	-8.125e-06	650149.56	203076.94	-6.25e-05	203076.83	650149.94	-5.625e-05
0	0.60897946	0.60897976	-2.6226044e-10	0.030759184	0.030759184	0	85257.13	85257.17	-3.25e-05	650374.94	202196.44	-0.00018125	202196.31	650375.3	-0.0001671875
0	0.60850716	0.6085076	-4.1127204e-10	0.030405551	0.030405551	0	85191	85191.05	-6.109375e-05	650602	201308.11	-0.000340625	201307.98	650602.4	-0.0002515625
0	0.6080351	0.6080354	-3.233552e-10	0.030052062	0.030052062	0	85124.91	85124.95	-4.84375e-05	650825.2	200423.97	-0.000325	200423.81	650825.56	-0.0001703125
0	0.60755724	0.60755754	-2.3394822e-10	0.029698413	0.029698413	0	85058	85058.055	-2.78125e-05	651051.2	199529	-0.00028125	199528.83	651051.5	-9.375e-05
0	0.6070777	0.6070782	-2.1457672e-10	0.029344993	0.029344993	0	84990.875	84990.94	-2.9375e-05	651276.1	198632.88	-0.0001875	198632.69	651276.56	-9.21875e-05
0	0.60659534	0.6065958	-1.3262033e-10	0.028991356	0.028991356	0	84923.36	84923.42	-1.3125e-05	651501.8	197731.95	-8.125e-05	197731.77	651502.2	-7.8125e-05
0	0.6061089	0.60610926	1.7881394e-10	0.028637854	0.028637854	0	84855.24	84855.305	2.171875e-05	651727.5	196825.17	1.5625e-05	196824.97	651727.9	0.000240625
0	0.60561985	0.60562027	-1.5497208e-10	0.028284235	0.028284235	0	84786.77	84786.84	-2.171875e-05	651953.5	195914.47	-0.00015	195914.23	651953.94	-7.96875e-05
0	0.605126	0.60512644	-2.6226044e-10	0.027930735	0.027930735	0	84717.65	84717.7	-3.625e-05	652181.5	194995.19	-0.000246875	194994.95	652181.94	-0.00015
0	0.6046312	0.60463166	-3.5762787e-10	0.027577227	0.027577227	0	84648.36	84648.43	-5.125e-05	652407.2	194076.73	-0.00031875	194076.47	652407.6	-0.00021875
0	0.604133	0.6041335	-1.1920929e-11	0.027223594	0.02722359	0	84578.625	84578.69	-9.375e-07	652631.56	193154.94	2.5e-05	193154.64	652631.94	-2.65625e-05
0	0.6036306	0.60363114	4.4107437e-10	0.026870081	0.026870081	0	84508.29	84508.37	6.515625e-05	652857.6	192225.48	0.000275	192225.2	652858.1	0.0004015625
0	0.60312676	0.60312724	-2.6077032e-10	0.026516473	0.026516473	0	84437.74	84437.83	-3.546875e-05	653083.56	191294.2	-0.0002875	191293.9	653084.06	-8.75e-05
0	0.60261786	0.60261846	-3.4570694e-10	0.026162952	0.026162954	0	84366.49	84366.57	-4.40625e-05	653310	190355.28	-0.000246875	190354.97	653310.44	-0.000234375
0	0.6021062	0.60210675	-2.4586916e-11	0.025809333	0.025809333	0	84294.87	84294.945	-8.75e-06	653536.1	189412.9	-2.8125e-05	189412.56	653536.56	-3.28125e-05
0	0.6015899	0.60159063	-1.9073486e-10	0.025455903	0.025455903	0	84222.59	84222.69	-2.578125e-05	653764.3	188462.03	-0.00018125	188461.67	653764.8	-7.8125e-05
0	0.6010732	0.6010738	-1.4901161e-10	0.025102295	0.025102295	0	84150.25	84150.336	-1.953125e-05	653988.75	187514.19	-0.000215625	187513.81	653989.2	-7.8125e-06
0	0.6005501	0.6005507	-6.2137845e-10	0.024748765	0.024748767	0	84077.016	84077.09	-8.90625e-05	654216.94	186553.61	-0.0004125	186553.2	654217.4	-0.0005171875
0	0.6000243	0.6000249	-2.2873282e-10	0.02439518	0.02439518	0	84003.4	84003.484	-3e-05	654443.6	185590.77	-0.00023125	185590.34	654444.1	-9.53125e-05
0	0.599496	0.5994966	-6.273389e-10	0.024041647	0.024041647	0	83929.44	83929.54	-8.34375e-05	654670	184624.81	-0.000484375	184624.38	654670.5	-0.000390625
0	0.598965	0.59896564	-2.6524066e-10	0.023688115	0.02368811	0	83855.1	83855.195	-3.421875e-05	654894.9	183656.53	-0.0003375	183656.08	654895.4	-1.09375e-05
0	0.5984286	0.59842926	-2.861023e-10	0.023334507	0.023334507	0	83780	83780.1	-3.84375e-05	655121.56	182678.95	-0.00024375	182678.48	655122	-0.0001765625
0	0.5978897	0.59789056	-2.1457672e-10	0.022980964	0.022980964	0	83704.57	83704.67	-3.046875e-05	655347.9	181698.38	-0.000253125	181697.88	655348.3	-8.125e-05
0	0.59734654	0.59734726	-4.8205256e-10	0.022627395	0.022627395	0	83628.51	83628.61	-6.96875e-05	655575.2	180710.42	-0.000421875	180709.9	655575.7	-0.0002796875
0	0.59679866	0.5967995	-7.152558e-11	0.022273842	0.022273842	0	83551.81	83551.93	-1e-05	655803.9	179714.92	-0.000103125	179714.36	655804.44	-1.09375e-05
0	0.59625024	0.5962511	-1.4305115e-10	0.021920258	0.021920262	0	83475.02	83475.14	-2.15625e-05	656028.44	178722.44	-0.000178125	178721.88	656029	-4.375e-05
0	0.5956941	0.59569496	-5.841255e-10	0.021566812	0.021566812	0	83397.18	83397.3	-8.09375e-05	656257.56	177714.89	-0.000528125	177714.3	656258.06	-0.0003015625
0	0.59513617	0.595137	-6.318092e-10	0.021213228	0.021213228	0	83319.06	83319.18	-9e-05	656484.6	176706.66	-0.00065	176706.05	656485.2	-0.000265625
0	0.59457695	0.5945779	-5.438924e-11	0.020859674	0.02085967	0	83240.78	83240.91	-7.265625e-06	656709.5	175698.94	-0.000171875	175698.31	656710.06	0.0001203125
0	0.59401196	0.5940129	-3.4570694e-10	0.020506129	0.020506129	0	83161.68	83161.81	-4.8984373e-05	656936.06	174681.4	-0.00030625	174680.75	656936.6	-0.000184375
0	0.5934422	0.59344316	-2.2500754e-10	0.020152565	0.020152565	0	83081.91	83082.04	-3.25e-05	657163.5	173656.3	-0.00028125	173655.61	657164.06	-5.46875e-05
0	0.59286934	0.59287035	-1.5497208e-10	0.019798992	0.019798992	0	83001.72	83001.84	-1.9140625e-05	657390.25	172627.61	-0.00019375	172626.89	657390.9	-3.59375e-05
0	0.59229296	0.592294	-3.218651e-10	0.019445421	0.019445421	0	82921.02	82921.164	-4.234375e-05	657617.4	171593.67	-0.000375	171592.97	657617.94	-7.34375e-05
0	0.59171176	0.5917128	-4.1723253e-10	0.019091858	0.019091858	0	82839.66	82839.8	-5.875e-05	657844.5	170552.8	-0.000475	170552.03	657845.1	-0.0001546875
0	0.59112716	0.5911281	-3.0994415e-10	0.018738285	0.018738287	0	82757.79	82757.94	-3.984375e-05	658071.94	169506.69	-0.000196875	169505.89	658072.7	-0.00020625
0	0.5905381	0.59053916	-2.861023e-10	0.01838475	0.01838475	0	82675.336	82675.484	-3.78125e-05	658299.3	168454.89	-0.000265625	168454.06	658299.9	-0.0001171875
0	0.5899453	0.5899464	-1.8328428e-10	0.018031184	0.018031184	0	82592.34	82592.5	-2.484375e-05	658526.3	167397.88	-0.0001171875	167397.06	658527	-0.0001484375
0	0.58934784	0.589349	-1.66893e-10	0.017677717	0.017677717	0	82508.7	82508.86	-2.15625e-05	658753.56	166334.23	-0.0001625	166333.39	658754.4	-7.03125e-05
0	0.58874625	0.58874744	-3.33786e-10	0.017324144	0.017324144	0	82424.48	82424.64	-4.59375e-05	658981.56	165264.08	-0.000246875	165263.19	658982.25	-0.00023125
0	0.58813983	0.58814096	-4.015863e-10	0.01697058	0.01697058	0	82339.57	82339.75	-5.9296875e-05	659210.6	164186.1	-0.0003671875	164185.16	659211.4	-0.000228125
0	0.5875315	0.58753276	-2.6226044e-10	0.016617043	0.016617043	0	82254.414	82254.57	-3.875e-05	659436.3	163108.72	-0.00035	163107.78	659437.1	-6.5625e-05
0	0.5869177	0.5869188	-3.218651e-10	0.016263481	0.016263481	0	82168.47	82168.64	-4.71875e-05	659663.44	162022.2	-0.00023125	162021.23	659664.25	-0.00025625
0	0.58629763	0.5862989	-1.7881394e-10	0.015909908	0.015909908	0	82081.67	82081.85	-2.6953125e-05	659893.06	160924.67	-0.000225	160923.66	659893.75	-6.875e-05
0	0.5856761	0.58567744	-3.695488e-10	0.015556336	0.015556336	0	81994.65	81994.836	-5.5e-05	660118.8	159828.77	-0.000303125	159827.7	660119.6	-0.00024375
0	0.5850476	0.58504903	-2.861023e-10	0.015202776	0.015202776	0	81906.664	81906.85	-4.015625e-05	660348.3	158719.42	-0.000296875	158718.34	660349.1	-0.000153125
0	0.5844177	0.5844191	-3.8146972e-10	0.014849206	0.014849206	0	81818.484	81818.67	-4.953125e-05	660573.75	157612.2	-0.0003921875	157611.11	660574.5	-0.000165625
0	0.58377963	0.58378106	-2.9802322e-10	0.014495678	0.014495678	0	81729.15	81729.35	-4.09375e-05	660803.8	156488.86	-0.000346875	156487.72	660804.7	-6.5625e-05
0	0.5831405	0.5831419	-2.63378e-10	0.014142117	0.014142117	0	81639.67	81639.875	-3.421875e-05	661029.25	155368.55	-0.000203125	155367.38	661030.2	-0.00016875
0	0.5824951	0.5824965	7.0780517e-12	0.0137886135	0.0137886135	0	81549.31	81549.516	3.125e-06	661256.9	154237.47	7.8125e-06	154236.23	661257.75	2.65625e-05
0	0.581845	0.5818465	-4.10527e-10	0.013435041	0.013435041	0	81458.3	81458.51	-5.9140624e-05	661484.9	153099.42	-0.0003359375	153098.16	661485.6	-0.000271875
0	0.5811888	0.5811904	-2.1457672e-10	0.013081476	0.013081476	0	81366.42	81366.65	-3.6875e-05	661713.3	151952.34	-0.000209375	151951.08	661714.2	-0.000121875
0	0.5805283	0.58052987	-2.384186e-10	0.012727952	0.012727952	0	81273.96	81274.19	-3.234375e-05	661943.25	150797.7	-0.00025625	150796.38	661944.2	-7.5e-05
0	0.5798653	0.5798669	-2.3692848e-10	0.0123743825	0.0123743825	0	81181.13	81181.36	-3.0234374e-05	662169.2	149643.55	-0.00018125	149642.19	662170.1	-0.000159375
0	0.57919574	0.5791974	-5.2824617e-10	0.012020824	0.012020824	0	81087.414	81087.64	-7.453125e-05	662397.25	148478.25	-0.0004015625	148476.86	662398.2	-0.00035625
0	0.5785213	0.57852304	-3.159046e-10	0.011667253	0.011667253	0	80992.99	80993.23	-4.7734375e-05	662625.25	147306.02	-0.000246875	147304.6	662626.25	-0.0002421875
0	0.5778418	0.5778435	-2.4214387e-11	0.011313697	0.011313697	0	80897.85	80898.09	-5e-06	662853.75	146126.28	-0.00010625	146124.78	662854.6	6.25e-05
0	0.57715714	0.57715887	-4.1127204e-10	0.010960129	0.010960129	0	80802	80802.234	-5.546875e-05	663082	144939.42	-0.0004375	144937.9	663083	-0.000134375
0	0.5764672	0.57646906	-3.822148e-10	0.010606614	0.010606615	0	80705.414	80705.67	-5.2382813e-05	663310.56	143745.16	-0.000359375	143743.58	663311.6	-0.00017734375
0	0.57577217	0.575774	-3.4421682e-10	0.010253064	0.010253064	0	80608.09	80608.37	-4.828125e-05	663539.1	142543.45	-0.0003	142541.84	663540.1	-0.000178125
0	0.5750696	0.5750715	-1.590699e-10	0.009899496	0.009899496	0	80509.74	80510.016	-2.046875e-05	663770.75	141328.36	-9.84375e-05	141326.69	663771.75	-0.000128125
0	0.57436335	0.57436544	-4.529953e-10	0.009545929	0.009545929	0	80410.88	80411.16	-6.421875e-05	664000	140110.55	-0.0004203125	140108.83	664001	-0.000234375
0	0.57365376	0.5736558	-4.990026e-10	0.009192375	0.009192375	0	80311.52	80311.805	-6.855469e-05	664226.8	138890.22	-0.00050625	138888.45	664227.94	-0.0002
0	0.57293713	0.5729393	-3.7960707e-10	0.008838858	0.008838858	0	80211.21	80211.5	-5.1796877e-05	664455.6	137658.23	-0.0003875	137656.44	664456.7	-0.0001453125
0	0.5722126	0.5722147	-4.6622006e-10	0.00848529	0.00848529	0	80109.75	80110.055	-6.7851564e-05	664687.8	136411.55	-0.000375	136409.67	664688.94	-0.0003125
0	0.57148635	0.57148856	-4.3511392e-10	0.008131741	0.008131741	0	80008.086	80008.4	-5.654297e-05	664914.9	135167.92	-0.0003375	135166.03	664915.94	-0.0002515625
0	0.57075214	0.5707544	-2.8423966e-10	0.007778168	0.007778168	0	79905.3	79905.62	-3.6796875e-05	665144.9	133910.14	-0.0003171875	133908.16	665145.94	-4.0625e-05
0	0.57000995	0.5700123	-2.8070063e-10	0.007424603	0.007424603	0	79801.39	79801.71	-3.925781e-05	665377.56	132638.33	-0.000240625	132636.3	665378.8	-0.0001375
0	0.56926584	0.56926817	-2.9206276e-10	0.0070710587	0.0070710587	0	79697.23	79697.54	-3.984375e-05	665605.5	131368.8	-0.0002546875	131366.7	665606.6	-0.0001546875
0	0.56851375	0.56851614	-1.9073486e-10	0.0067175203	0.0067175203	0	79591.93	79592.266	-3.0507812e-05	665836.25	130085.25	-0.0001578125	130083.11	665837.44	-0.0001625
0	0.5677538	0.5677563	-4.2058526e-10	0.006363976	0.006363976	0	79485.54	79485.88	-6.0644532e-05	666069.44	128788.13	-0.0004265625	128785.92	666070.7	-0.00019375
0	0.56699145	0.56699395	-3.6600978e-10	0.006010412	0.006010412	0	79378.805	79379.16	-5.1191408e-05	666298	127492.31	-0.00034375	127490.06	666299.25	-0.00015625
0	0.5662183	0.5662209	-1.9073486e-10	0.0056568487	0.0056568487	0	79270.56	79270.93	-2.6347656e-05	666532.4	126175.6	-0.000215625	126173.29	666533.6	-9.53125e-05
0	0.56544316	0.5654458	-3.4086406e-10	0.0053033074	0.005303307	0	79162.05	79162.414	-5e-05	666761.44	124861.336	-0.000321875	124858.945	666762.8	-0.00018125
0	0.5646594	0.5646621	-3.695488e-10	0.004949748	0.004949748	0	79052.32	79052.695	-4.7539063e-05	666993.6	123532.016	-0.000440625	123529.55	666994.9	-9.21875e-05
0	0.56386834	0.56387115	-1.7285347e-10	0.0045961873	0.0045961873	0	78941.58	78941.96	-2.4140625e-05	667226.5	122191.78	-0.00020625	122189.26	667227.9	-6.71875e-05
0	0.56306857	0.5630713	-3.6600978e-10	0.004242645	0.004242645	0	78829.6	78830	-4.8007812e-05	667462.4	120836.15	-0.00035	120833.55	667463.8	-0.000165625
0	0.56226414	0.56226707	-1.3113022e-10	0.003889084	0.003889084	0	78716.98	78717.39	-1.9785157e-05	667696.1	119476.305	-0.00025625	119473.64	667697.6	2.5e-05