//mumax 3.10 [windows_amd64 go1.11.6(gc) CUDA-11.0]
//GPU info: NVIDIA GeForce RTX 3090(24575MB), CUDA Driver 12.1, cc=8.6, using cc=80 PTX
//(c) Arne Vansteenkiste, Dynamat LAB, Ghent University, Belgium
//This is free software without any warranty. See license.txt
//********************************************************************//
//  If you use mumax in any work or publication,                      //
//  we kindly ask you to cite the references in references.bib        //
//********************************************************************//
//output directory: r1;p0.5;a4.0000000000000003e-07;l2.3000000000000002e-07;s5.out/
randSeed(5)
ThermSeed(5)
resolution := 2e-09
zResolution := 5e-09
a := 4.0000000000000003e-07
gridSize := 400
gridDepth := 5
SetCellsize(resolution, resolution, zResolution)
SetGridsize(gridSize, gridSize, gridDepth)
SetPBC(16, 16, 0)
//resizing...
Msat = 700e3
Aex = 13e-12
alpha = 0.2
Bmax := 0.1
Bstep := Bmax / 500.0
TableAdd(B_ext)
TableAdd(m_full)
islandWidth := 8e-08
islandLength := 2.3000000000000002e-07
ellipseConstant := 5.7500000000000005e-08
hIsland := Universe().Inverse()
vIsland := Universe().Inverse()
vIslands := Universe().Inverse()
hIslands := Universe().Inverse()
hIsland = rect(islandLength-2*ellipseConstant, islandWidth)
hIsland = hIsland.add(ellipse(ellipseConstant*2, islandWidth).transl(islandLength/2-ellipseConstant, 0, 0))
hIsland = hIsland.add(ellipse(ellipseConstant*2, islandWidth).transl(-islandLength/2+ellipseConstant, 0, 0))
hIsland = hIsland.sub(rect(9.216705414111022e-09, -3.628674461974099e-10).transl(6.128384250720284e-08, -3.991329755497077e-08, 0))
hIsland = hIsland.sub(rect(3.752510070719716e-09, -4.89921885473118e-10).transl(8.522217887822939e-08, -3.504410087779847e-08, 0))
hIsland = hIsland.add(rect(4.7468731914075625e-09, 1.0352831368590082e-09).transl(3.8728449399205796e-08, -4e-08, 0))
hIsland = hIsland.sub(rect(4.710844835135396e-09, -1.2717902159277445e-10).transl(1.837127641525292e-08, -4e-08, 0))
hIsland = hIsland.sub(rect(5.079755596320263e-09, -3.0115189408282876e-09).transl(2.3026567730179593e-08, -4e-08, 0))
hIsland = hIsland.sub(rect(6.558777269004704e-09, -1.726073575428114e-09).transl(-1.1421231710574426e-07, -6.5981825210450845e-09, 0))
hIsland = hIsland.sub(rect(3.6536111513019274e-09, -1.6921696011057124e-10).transl(-1.0064516664136483e-07, -2.6441597249668973e-08, 0))
hIsland = hIsland.sub(rect(4.379722813066417e-09, -3.52391071260267e-10).transl(3.6454618103311955e-08, -4e-08, 0))
hIsland = hIsland.add(rect(6.933021227450047e-09, 1.431979976471625e-11).transl(-1.0522544549227855e-07, -2.2310074451568616e-08, 0))
hIsland = hIsland.sub(rect(4.5409538199485475e-09, -3.806736879097557e-09).transl(5.5985393405888213e-08, -4e-08, 0))
hIsland = hIsland.add(rect(9.694485325632357e-09, 3.607611260362914e-09).transl(3.5996561150013e-08, -4e-08, 0))
hIsland = hIsland.sub(rect(4.203286109287962e-09, -1.105744959144342e-09).transl(1.3089626595717014e-09, -4e-08, 0))
hIsland = hIsland.sub(rect(3.82348414033714e-09, -6.29896951262605e-09).transl(3.9533289550024554e-08, -4e-08, 0))
hIsland = hIsland.sub(rect(2.151094656173199e-09, -7.976321051278005e-11).transl(3.1034462809660365e-08, -4e-08, 0))
hIsland = hIsland.add(rect(3.3955685872268656e-09, 3.586435296173218e-10).transl(4.2842461046529835e-08, -4e-08, 0))
hIsland = hIsland.add(rect(6.955410668775706e-09, 2.489459014355284e-09).transl(-1.8289209465275227e-08, -4e-08, 0))
hIsland = hIsland.sub(rect(9.967048725796484e-09, -3.770672041429055e-09).transl(-6.330329313632246e-08, -3.9795754015567124e-08, 0))
hIsland = hIsland.add(rect(9.823568762896283e-09, 3.966132762644316e-11).transl(-6.712724581253278e-08, -3.943535619506774e-08, 0))
hIsland = hIsland.add(rect(7.57926342343088e-09, 2.417368856575644e-10).transl(-5.816886308537854e-08, -3.999729365316e-08, 0))
hIsland = hIsland.sub(rect(4.608090902646087e-09, -3.2547646309577264e-09).transl(2.727046005717706e-08, -4e-08, 0))
hIsland = hIsland.sub(rect(9.251171979021914e-09, -4.615204717322859e-10).transl(-4.367294962781015e-09, -4e-08, 0))
hIsland = hIsland.add(rect(3.763592352958361e-09, 3.265828819061481e-10).transl(5.633733197943494e-08, -4e-08, 0))
hIsland = hIsland.add(rect(3.3647733615478748e-09, 3.915099854437929e-09).transl(3.55747104145149e-08, -4e-08, 0))
hIsland = hIsland.sub(rect(6.067659097630641e-09, -1.3800983645260717e-09).transl(8.366029130546188e-08, -3.562044252428839e-08, 0))
hIsland = hIsland.add(rect(8.556856027669632e-09, 5.253902829237462e-10).transl(3.088889462185521e-08, -4e-08, 0))
hIsland = hIsland.add(rect(5.769621575719457e-09, 5.44594673888336e-10).transl(8.307913979985583e-08, -3.5824112108335295e-08, 0))
hIsland = hIsland.sub(rect(5.2538647605167505e-09, -5.713760942285797e-10).transl(3.265308927659085e-08, -4e-08, 0))
hIsland = hIsland.sub(rect(9.741400950589049e-09, -3.3647512018630127e-10).transl(5.731769019849208e-09, -4e-08, 0))
hIsland = hIsland.add(rect(5.321874238143363e-09, 1.3068954760466748e-09).transl(-3.6303826267747177e-09, -4e-08, 0))
hIsland = hIsland.sub(rect(6.298594157682231e-09, -2.790543952765281e-09).transl(6.671214832654883e-08, -3.948330983663019e-08, 0))
hIsland = hIsland.sub(rect(5.636452368442944e-09, -1.2129832246759426e-09).transl(2.4902510688201767e-08, -4e-08, 0))
hIsland = hIsland.sub(rect(4.739960606508738e-09, -1.7704095599625188e-09).transl(5.4689150709422925e-08, -4e-08, 0))
hIsland = hIsland.sub(rect(2.2847811754527954e-09, -9.294712301946888e-10).transl(1.0332935319080737e-07, -2.415747090369005e-08, 0))
hIsland = hIsland.sub(rect(8.319989630723276e-09, -1.8984665567239726e-09).transl(-1.8605850555401846e-08, -4e-08, 0))
hIsland = hIsland.sub(rect(3.385942848637343e-09, -1.5560022252480329e-09).transl(8.799904819946105e-08, -3.390944415362408e-08, 0))
hIsland = hIsland.sub(rect(3.3458480576564443e-09, -2.7317547679049705e-09).transl(1.0485488447647199e-07, -2.2688980301702332e-08, 0))
hIsland = hIsland.add(rect(8.828516618165949e-09, 1.5310990855059851e-09).transl(-1.0205095936369856e-07, -2.528829152410757e-08, 0))
hIsland = hIsland.sub(rect(2.1839774401128232e-09, -9.09395695834735e-10).transl(9.852280126725264e-08, -2.802865205328975e-08, 0))
hIsland = hIsland.sub(rect(3.095599473527992e-09, -3.2874740519891755e-09).transl(-6.020295366306426e-08, -3.99557807241408e-08, 0))
hIsland = hIsland.sub(rect(7.055338001427962e-09, -6.776968226444905e-10).transl(-5.515716400373839e-08, -4e-08, 0))
hIsland = hIsland.sub(rect(4.056785134932496e-09, -6.945885759374252e-10).transl(-3.827552014887107e-08, -4e-08, 0))
hIsland = hIsland.add(rect(8.280789234012756e-09, 1.3393830622821795e-09).transl(8.97491068140924e-08, -3.311658811640469e-08, 0))
hIsland = hIsland.add(rect(5.266841179674406e-09, 4.449106163082366e-10).transl(-6.240383669137457e-08, -3.985426691323664e-08, 0))
hIsland = hIsland.sub(rect(9.351014572355493e-09, -2.0736996892074548e-10).transl(-2.9758516452094875e-08, -4e-08, 0))
hIsland = hIsland.sub(rect(8.408260028919071e-09, -1.4901498951361172e-09).transl(9.41301549365001e-08, -3.0833025766792114e-08, 0))
hIsland = hIsland.add(rect(4.402608012543078e-09, 2.0638775075104123e-10).transl(7.180077266388927e-09, -4e-08, 0))
hIsland = hIsland.sub(rect(6.593988905544165e-09, -9.520251034094933e-10).transl(-5.155330553854885e-08, -4e-08, 0))
hIsland = hIsland.add(rect(8.823163161876999e-09, 1.7508454173927983e-09).transl(-1.3370234759990156e-08, -4e-08, 0))
hIsland = hIsland.add(rect(7.767409637843656e-09, 1.3089969106111949e-09).transl(-2.374004330875502e-08, -4e-08, 0))
hIsland = hIsland.add(rect(4.5244748820323456e-09, 1.6734872899833457e-09).transl(9.399717044898845e-08, -3.0909248118986194e-08, 0))
hIsland = hIsland.add(rect(9.34757592087319e-09, 2.330607287972594e-09).transl(-1.1096499605661174e-07, -1.471997693211791e-08, 0))
hIsland = hIsland.add(rect(6.058175542454341e-09, 1.1382879712202116e-09).transl(-6.393372724868708e-08, -3.974881984776647e-08, 0))
hIsland = hIsland.sub(rect(7.222773745336186e-09, -2.573484053220289e-09).transl(4.884590144168657e-08, -4e-08, 0))
hIsland = hIsland.sub(rect(5.293687568973424e-09, -6.180283993037157e-11).transl(6.576976433731796e-08, -3.958414299956122e-08, 0))
hIsland = hIsland.add(rect(5.659608338048961e-09, 3.2047702880568687e-10).transl(-8.790981560997412e-08, -3.39482046633729e-08, 0))
hIsland = hIsland.sub(rect(4.656476725194992e-09, -2.565129099160877e-09).transl(5.590609856832084e-08, -4e-08, 0))
hIsland = hIsland.sub(rect(6.50733003452437e-09, -2.296469865231687e-10).transl(-8.544959138208748e-08, -3.495657601777723e-08, 0))
hIsland = hIsland.add(rect(9.006630593390847e-09, 1.6994484904945376e-09).transl(-8.479665302078632e-08, -3.520538012750695e-08, 0))
hIsland = hIsland.sub(rect(9.742436088049745e-09, -1.2292874074763216e-09).transl(2.621794554909222e-08, -4e-08, 0))
hIsland = hIsland.sub(rect(9.575823605747353e-09, -9.283513594735219e-10).transl(-8.617758640867708e-08, -3.467005118659885e-08, 0))
hIsland = hIsland.sub(rect(6.672735710492056e-09, -1.210828192927499e-09).transl(6.14543400185136e-08, -3.990529852687609e-08, 0))
hIsland = hIsland.sub(rect(7.295518970443505e-09, -1.4919781923606482e-09).transl(-4.907726625524072e-08, -4e-08, 0))
hIsland = hIsland.sub(rect(6.743368291949532e-09, -1.5267070083055173e-09).transl(-9.101991139119138e-08, -3.250017822616915e-08, 0))
hIsland = hIsland.sub(rect(2.8594756263842102e-09, -2.647702083488912e-09).transl(-4.663894402697839e-08, -4e-08, 0))
hIsland = hIsland.sub(rect(4.520480753040356e-09, -6.61403253623476e-10).transl(-9.598080355066668e-08, -2.9722163545202893e-08, 0))
hIsland = hIsland.add(rect(4.6409472649975825e-09, 7.805238257418844e-10).transl(-4.382632753906911e-09, -4e-08, 0))
hIsland = hIsland.sub(rect(5.518870019824794e-09, -5.680958279754941e-10).transl(3.008157472731427e-08, -4e-08, 0))
hIsland = hIsland.add(rect(5.861759831352633e-09, 2.9631628726805053e-09).transl(-2.6532555417648405e-08, -4e-08, 0))
hIsland = hIsland.add(rect(6.314346680574323e-09, 2.9020668108769517e-10).transl(-6.531152122582754e-08, -3.962916272735945e-08, 0))
hIsland = hIsland.sub(rect(9.03127206087169e-09, -2.8825834846413445e-10).transl(-2.9481433541326084e-08, -4e-08, 0))
hIsland = hIsland.add(rect(9.897544868614064e-09, 1.7056928321990619e-09).transl(7.408238401590363e-10, -4e-08, 0))
hIsland = hIsland.add(rect(7.202913170450463e-09, 1.126158988407553e-09).transl(8.137118918503884e-08, -3.6390098668001286e-08, 0))
hIsland = hIsland.add(rect(9.925203243515456e-09, 7.934895040493632e-10).transl(7.395723897860731e-08, -3.832664250285314e-08, 0))
hIsland = hIsland.sub(rect(3.735278383853397e-09, -2.709549716592654e-10).transl(-1.5169856223380128e-08, -4e-08, 0))
hIsland = hIsland.sub(rect(9.586256948053866e-09, -2.1268315291516913e-09).transl(-2.3420033704840714e-08, -4e-08, 0))
hIsland = hIsland.add(rect(2.45571591009551e-09, 1.945869808168533e-09).transl(-4.9780209823614e-08, -4e-08, 0))
hIsland = hIsland.add(rect(3.4385281009690768e-09, 2.295820909973649e-10).transl(1.3126624705797822e-08, -4e-08, 0))
hIsland = hIsland.sub(rect(4.852107577179639e-09, -5.986121428969108e-10).transl(8.70236251162383e-08, -3.4324676385890205e-08, 0))
hIsland = hIsland.add(rect(3.3483705358379043e-09, 9.534556313644126e-10).transl(5.644362545956052e-08, -4e-08, 0))
hIsland = hIsland.add(rect(3.86115607816352e-09, 3.627413434213151e-09).transl(-1.1187906694614176e-07, -1.2998965495057761e-08, 0))
hIsland = hIsland.add(rect(7.524713030181732e-09, 1.3512073352735577e-09).transl(1.610950363198981e-08, -4e-08, 0))
hIsland = hIsland.sub(rect(2.5835640762639127e-09, -1.2222165024067478e-09).transl(6.02361136994792e-08, -3.995468847918191e-08, 0))
hIsland = hIsland.add(rect(3.131649284056062e-09, 4.113864904898044e-09).transl(4.406823499658683e-08, -4e-08, 0))
hIsland = hIsland.sub(rect(4.778786180904073e-09, -5.793160299862397e-10).transl(-1.0751297572147915e-07, -1.9736821279776328e-08, 0))
hIsland = hIsland.add(rect(3.887314554250309e-09, 1.2960056651985103e-09).transl(-6.069850423845985e-08, -3.993806665824958e-08, 0))
hIsland = hIsland.add(rect(8.038303068935129e-09, 2.0445864552541706e-09).transl(6.383633409323383e-08, -3.975639009607432e-08, 0))
hIsland = hIsland.sub(rect(7.4475545183918036e-09, -1.5255893912737716e-09).transl(-5.6895609725779724e-08, -4e-08, 0))
hIsland = hIsland.sub(rect(5.497575724740514e-09, -2.379372688919352e-09).transl(-3.824526014038299e-08, -4e-08, 0))
hIsland = hIsland.add(rect(7.009571439490625e-09, 1.3291702150135894e-09).transl(-1.0178380192439045e-07, -2.5514364207504156e-08, 0))
hIsland = hIsland.add(rect(7.587616621393946e-09, 6.81919291812109e-10).transl(-8.9378038730337e-08, -3.32899959301634e-08, 0))
hIsland = hIsland.add(rect(6.8484817826834736e-09, 3.0590698637282205e-09).transl(-8.168597013963844e-08, -3.6289373250968694e-08, 0))
hIsland = hIsland.sub(rect(7.4218925546997316e-09, -1.0306021200761325e-09).transl(6.901939799609563e-08, -3.9189078960528546e-08, 0))
hIsland = hIsland.sub(rect(6.9209856779762186e-09, -7.295221968588282e-10).transl(1.3334762343011197e-08, -4e-08, 0))
hIsland = hIsland.add(rect(6.9723961255080465e-09, 3.5992289432323117e-09).transl(-7.063390115654067e-08, -3.894254805537767e-08, 0))
hIsland = hIsland.add(rect(6.1461322912800085e-09, 3.5335661090070702e-09).transl(1.019260226502306e-08, -4e-08, 0))
hIsland = hIsland.add(rect(9.552104980344834e-09, 7.353912699216145e-10).transl(5.536260098228372e-08, -4e-08, 0))
hIsland = hIsland.sub(rect(6.225535390040586e-09, -2.9917798640150563e-12).transl(-1.0054716510805991e-07, -2.6518782568520617e-08, 0))
hIsland = hIsland.sub(rect(8.679756856833316e-09, -1.559269265540531e-09).transl(-1.6549138886261673e-08, -4e-08, 0))
hIsland = hIsland.sub(rect(6.247321979197025e-09, -2.3853180496742385e-09).transl(-7.232172401780297e-08, -3.864826172962834e-08, 0))
hIsland = hIsland.sub(rect(8.811173169877225e-09, -7.531969758908942e-10).transl(-6.045306383055065e-08, -3.994721304225831e-08, 0))
hIsland = hIsland.add(rect(4.071241248643846e-09, 6.606377467816059e-10).transl(-4.741390502474362e-08, -4e-08, 0))
hIsland = hIsland.add(rect(9.541711237845675e-09, 1.7025437483186396e-09).transl(2.4345979751037726e-08, -4e-08, 0))
hIsland = hIsland.add(rect(9.287213841146279e-09, 2.604780309797651e-09).transl(8.251254035992102e-08, -3.60172045408603e-08, 0))
hIsland = hIsland.sub(rect(6.328294299456689e-09, -4.959984768082588e-09).transl(-7.638826493956022e-09, -4e-08, 0))
hIsland = hIsland.add(rect(6.40206973026351e-09, 1.5366239649270102e-09).transl(3.458179520129776e-08, -4e-08, 0))
hIsland = hIsland.add(rect(5.9838080066416036e-09, 1.3967018524092642e-09).transl(1.0853636189124865e-07, -1.8425458050689292e-08, 0))
hIsland = hIsland.add(rect(7.96379605031126e-09, 5.961729911501559e-09).transl(-4.1182711478414124e-08, -4e-08, 0))
hIsland = hIsland.sub(rect(8.867484647884916e-09, -2.48147546290681e-09).transl(-2.9522552338584634e-08, -4e-08, 0))
hIsland = hIsland.sub(rect(3.489947880258265e-09, -2.2549862136958957e-09).transl(1.0660921231359349e-07, -2.0806109510629295e-08, 0))
hIsland = hIsland.sub(rect(8.800748832643025e-09, -1.216468434311696e-09).transl(4.16365865449189e-08, -4e-08, 0))
hIsland = hIsland.sub(rect(2.8161818950157027e-09, -4.035163540480137e-09).transl(1.1349081461504117e-07, -9.104242115420514e-09, 0))
hIsland = hIsland.sub(rect(2.9172010121182838e-09, -1.0370661477475403e-09).transl(-4.947321735479614e-08, -4e-08, 0))
hIsland = hIsland.sub(rect(8.078855393603417e-09, -1.6190841402616196e-09).transl(2.8658381783275662e-08, -4e-08, 0))
hIsland = hIsland.sub(rect(8.89776757894467e-09, -1.0143675397459487e-09).transl(7.543028517409254e-09, -4e-08, 0))
hIsland = hIsland.add(rect(2.6970644776885797e-09, 2.9243233134717975e-09).transl(-7.241198043457978e-08, -3.8631456445025145e-08, 0))
hIsland = hIsland.add(rect(4.367448617679801e-09, 4.974172902081381e-11).transl(4.9654536544565596e-08, -4e-08, 0))
hIsland = hIsland.add(rect(6.930052459769676e-09, 6.986164006417106e-10).transl(-7.189201706514602e-08, -3.8726774984440585e-08, 0))
hIsland = hIsland.sub(rect(6.9883797184043e-09, -3.5849772990799303e-10).transl(-1.1882165714002323e-08, -4e-08, 0))
hIsland = hIsland.add(rect(6.79661349236892e-09, 4.727142359311328e-10).transl(3.373630990221427e-08, -4e-08, 0))
hIsland = hIsland.add(rect(3.7179242917203212e-09, 3.1300272200093193e-10).transl(-2.25510558823547e-08, -4e-08, 0))
hIsland = hIsland.sub(rect(6.500430962316602e-09, -1.2945270610345827e-09).transl(9.251137089337046e-08, -3.173008210781147e-08, 0))
hIsland = hIsland.sub(rect(5.279693176214917e-09, -2.618631295223652e-09).transl(6.588638173403615e-08, -3.9572267932741545e-08, 0))
hIsland = hIsland.sub(rect(3.4009118503728212e-09, -9.01575913391175e-10).transl(-1.1023693991550627e-07, -1.5940382970850852e-08, 0))
hIsland = hIsland.sub(rect(4.075729747927862e-09, -1.1240569373732573e-09).transl(-7.2809364920947395e-09, -4e-08, 0))
hIsland = hIsland.add(rect(8.056680113385436e-09, 1.2280672534480236e-09).transl(-3.400149244579082e-08, -4e-08, 0))
hIsland = hIsland.sub(rect(7.934723758633008e-09, -9.948832140297156e-10).transl(-7.326348914351585e-08, -3.8467504685895e-08, 0))
hIsland = hIsland.add(rect(9.342979808679674e-09, 3.318957490400093e-09).transl(-6.259198426422306e-08, -3.984284710564052e-08, 0))
hIsland = hIsland.sub(rect(5.401581943862921e-09, -1.874915377827973e-09).transl(-8.43064366079175e-08, -3.538719741245967e-08, 0))
hIsland = hIsland.add(rect(6.698220391680356e-09, 3.3858353735536215e-09).transl(-9.746335542303128e-09, -4e-08, 0))
hIsland = hIsland.add(rect(4.7248684816492094e-09, 8.202941869147712e-10).transl(3.777798225143757e-08, -4e-08, 0))
hIsland = hIsland.add(rect(2.969086451180979e-09, 2.135992748700373e-09).transl(-1.047234835899544e-07, -2.2821130103327744e-08, 0))
hIsland = hIsland.sub(rect(2.8908475014878434e-09, -1.438061771681443e-09).transl(-1.2651294982272841e-08, -4e-08, 0))
hIsland = hIsland.sub(rect(5.1199423388425755e-09, -8.830658263303023e-10).transl(9.781040118613909e-08, -2.8524466942409116e-08, 0))
hIsland = hIsland.sub(rect(9.133622598587491e-09, -9.759693196054789e-10).transl(6.750782730055199e-08, -3.938947851937362e-08, 0))
hIsland = hIsland.add(rect(5.674804414005666e-09, 1.1628744505757617e-09).transl(-8.796591344926636e-08, -3.392385552651502e-08, 0))
hIsland = hIsland.sub(rect(6.362913045146635e-09, -5.346372886321478e-10).transl(4.836246325732957e-08, -4e-08, 0))
hIsland = hIsland.add(rect(8.73877033058167e-09, 1.3645699009875375e-10).transl(4.473011116010988e-08, -4e-08, 0))
hIsland = hIsland.sub(rect(9.161601962541788e-09, -1.2126651708861347e-09).transl(3.4998791950904774e-09, -4e-08, 0))
hIsland = hIsland.add(rect(2.3915058655293706e-09, 3.703847491276553e-09).transl(1.0255074151637994e-09, -4e-08, 0))
hIsland = hIsland.sub(rect(2.4428419478924815e-09, -6.406872974436231e-10).transl(-6.847155167411476e-08, -3.9265082680889765e-08, 0))
hIsland = hIsland.sub(rect(3.5809691893840807e-09, -9.229454340993614e-10).transl(2.7085731635758008e-09, -4e-08, 0))
hIsland = hIsland.sub(rect(4.57988081293978e-09, -4.75631882348395e-10).transl(-3.6969043089253095e-08, -4e-08, 0))
hIsland = hIsland.add(rect(6.1562335293487096e-09, 1.7986725284585405e-09).transl(-6.634669460893598e-08, -3.9523733976321933e-08, 0))
hIsland = hIsland.add(rect(4.661504205446585e-09, 2.096407904018642e-09).transl(9.448314309794412e-08, -3.062842942208384e-08, 0))
hIsland = hIsland.add(rect(6.047801186090081e-09, 3.588583704394831e-09).transl(-1.3397082735050934e-08, -4e-08, 0))
hIsland = hIsland.sub(rect(5.951856958416363e-09, -5.446790908340551e-10).transl(2.8633330726371564e-08, -4e-08, 0))
hIsland = hIsland.add(rect(8.168818489175518e-09, 1.1303485772494024e-10).transl(4.693806360637663e-08, -4e-08, 0))
hIsland = hIsland.add(rect(2.3100885877760827e-09, 3.4374236529469233e-10).transl(-9.182995813838126e-08, -3.2088376821386355e-08, 0))
hIsland = hIsland.add(rect(6.466965475186127e-09, 1.0550515758671393e-09).transl(1.3737738123703381e-08, -4e-08, 0))
hIsland = hIsland.add(rect(3.1136609359911054e-09, 2.0608516271422833e-09).transl(3.26922309004595e-08, -4e-08, 0))
hIsland = hIsland.add(rect(6.554413475778749e-09, 5.007141919991628e-09).transl(-2.581594858685809e-08, -4e-08, 0))
hIsland = hIsland.sub(rect(6.776608661454253e-09, -1.883054001606318e-09).transl(8.813617182298603e-08, -3.384957254058282e-08, 0))
hIsland = hIsland.add(rect(9.871086509380224e-09, 2.1225631616705725e-09).transl(-2.2634156749074407e-08, -4e-08, 0))
hIsland = hIsland.sub(rect(2.1661672650089045e-09, -1.130253419854052e-09).transl(6.747063949319073e-08, -3.9394042162098107e-08, 0))
hIsland = hIsland.add(rect(8.507449935264077e-09, 4.426159098168471e-09).transl(8.451226967959429e-08, -3.5311370724965e-08, 0))
hIsland = hIsland.sub(rect(6.719188525066997e-09, -5.44846011101777e-09).transl(-6.770350467072993e-08, -3.936517643084289e-08, 0))
hIsland = hIsland.add(rect(2.3079635255101147e-09, 3.152925969203215e-10).transl(-3.14151298074872e-08, -4e-08, 0))
hIsland = hIsland.sub(rect(9.040736735412077e-09, -2.281023432563495e-09).transl(2.288352084394346e-08, -4e-08, 0))
hIsland = hIsland.sub(rect(9.44584441096875e-09, -2.726689404051734e-10).transl(7.196756341376197e-08, -3.8713150412720164e-08, 0))
hIsland = hIsland.sub(rect(5.719182456952741e-09, -2.4289424546408224e-09).transl(-2.8265410762570343e-08, -4e-08, 0))
hIsland = hIsland.add(rect(6.039799229256659e-09, 1.3303213277418434e-09).transl(-1.0409160863090751e-07, -2.3441228174143798e-08, 0))
hIsland = hIsland.sub(rect(4.3878087902698674e-09, -2.0566614726498106e-09).transl(6.466039571138099e-09, -4e-08, 0))
hIsland = hIsland.add(rect(5.458159383447234e-09, 1.651601236885776e-09).transl(-3.072686551132287e-08, -4e-08, 0))
hIsland = hIsland.sub(rect(6.207399342477697e-09, -9.93538697116498e-10).transl(3.4559545759217604e-08, -4e-08, 0))
hIsland = hIsland.sub(rect(2.006569146011862e-09, -3.495159673913353e-10).transl(-1.6897773762116327e-08, -4e-08, 0))
hIsland = hIsland.add(rect(3.805804514099203e-09, 8.586034077597895e-10).transl(1.0666312931370476e-07, -2.0744398169640534e-08, 0))
hIsland = hIsland.add(rect(7.71073228843317e-09, 2.6170670066983707e-09).transl(1.0820667583010446e-08, -4e-08, 0))
hIsland = hIsland.sub(rect(4.451744006230028e-09, -3.5537145550224406e-10).transl(-6.537877635176164e-08, -3.9622719087183556e-08, 0))
hIsland = hIsland.sub(rect(5.273991884111521e-09, -8.980911322025741e-10).transl(-2.769575944995188e-08, -4e-08, 0))
hIsland = hIsland.add(rect(8.172010843207532e-09, 2.1421915334379814e-10).transl(-6.024544655603986e-08, -3.995437866091799e-08, 0))
hIsland = hIsland.sub(rect(4.466798386045583e-09, -2.1690251959505746e-09).transl(1.0659970146654915e-07, -2.081696926987263e-08, 0))
hIsland = hIsland.add(rect(8.79694702849732e-09, 2.84896894393509e-10).transl(-9.433860759416512e-08, -3.071260615591447e-08, 0))
hIsland = hIsland.add(rect(2.9481843173276217e-09, 2.119368959873944e-09).transl(-6.543704718455838e-08, -3.961709070078784e-08, 0))
hIsland = hIsland.sub(rect(2.5785732833230528e-09, -1.63588805003519e-09).transl(-2.7474519426292202e-08, -4e-08, 0))
hIsland = hIsland.sub(rect(4.957204759800489e-09, -7.209879034057763e-11).transl(-6.374476007164236e-08, -3.9763401415616994e-08, 0))
hIsland = hIsland.sub(rect(6.624282495596123e-09, -6.857365263345099e-11).transl(-5.889131263301733e-08, -3.998828863962054e-08, 0))
hIsland = hIsland.add(rect(6.941409971453713e-09, 1.8664336861600645e-09).transl(-1.1625209101648947e-08, -4e-08, 0))
hIsland = hIsland.sub(rect(9.85905258016364e-09, -1.749738088741627e-09).transl(-9.967918252020051e-08, -2.718537635961181e-08, 0))
hIsland = hIsland.sub(rect(6.476669446432087e-09, -1.961251986520991e-10).transl(1.0929390089850492e-08, -4e-08, 0))
hIsland = hIsland.add(rect(2.6219510314256882e-09, 8.464495769657981e-10).transl(1.0150966714350075e-07, -2.57428829031367e-08, 0))
hIsland = hIsland.add(rect(5.147356373246798e-09, 7.287020522650093e-10).transl(3.613276156114485e-08, -4e-08, 0))
hIsland = hIsland.add(rect(7.403409468415107e-09, 1.8277929451119526e-09).transl(1.0372161677202547e-07, -2.379305503835902e-08, 0))
hIsland = hIsland.sub(rect(3.264047121656688e-09, -3.246500686338324e-10).transl(-3.5649518954385615e-08, -4e-08, 0))
hIsland = hIsland.sub(rect(4.803944024047873e-09, -1.747759800578388e-09).transl(-4.898467323810287e-08, -4e-08, 0))
hIsland = hIsland.sub(rect(8.165468150762007e-09, -3.8225781374279953e-10).transl(-2.7963923941151844e-08, -4e-08, 0))
hIsland = hIsland.sub(rect(9.776917943509261e-09, -1.4729041641882393e-09).transl(3.579546777442177e-08, -4e-08, 0))
hIsland = hIsland.sub(rect(8.829923828798347e-09, -8.925147585687344e-11).transl(-3.1748538159678344e-08, -4e-08, 0))
hIsland = hIsland.add(rect(8.461813971795909e-09, 4.445421110335228e-10).transl(-1.8717350595414274e-08, -4e-08, 0))
hIsland = hIsland.add(rect(6.974999059834185e-09, 1.8435240098458887e-09).transl(-6.01667183008442e-08, -3.9956959004491275e-08, 0))
hIsland = hIsland.add(rect(4.5263314728057385e-09, 2.8852232633302508e-09).transl(-4.063781153867846e-08, -4e-08, 0))
hIsland = hIsland.add(rect(2.2304210808508306e-09, 4.764229840991648e-10).transl(8.977923597879097e-08, -3.3102379902452704e-08, 0))
hIsland = hIsland.add(rect(5.57847698934889e-09, 1.160400071275734e-09).transl(7.902603701081085e-08, -3.7091243216147217e-08, 0))
hIsland = hIsland.add(rect(6.986092068609637e-09, 2.595426696093024e-09).transl(2.3835406743463018e-08, -4e-08, 0))
hIsland = hIsland.sub(rect(6.192699570645875e-09, -2.661845190181134e-10).transl(1.0761039184756185e-08, -4e-08, 0))
hIsland = hIsland.sub(rect(2.828733675336615e-09, -9.869237635874407e-10).transl(6.699916834363479e-08, -3.945038387999315e-08, 0))
hIsland = hIsland.sub(rect(7.200316111807393e-09, -1.2009181447773678e-09).transl(-1.0936375667208617e-07, -1.7271248135293296e-08, 0))
hIsland = hIsland.add(rect(2.4884931994870832e-09, 2.677392819272893e-10).transl(2.5821097631371276e-09, -4e-08, 0))
hIsland = hIsland.add(rect(4.112172422116034e-09, 1.1165347409230133e-09).transl(8.590634238056163e-08, -3.477794551390441e-08, 0))
hIsland = hIsland.add(rect(4.082559909986581e-09, 6.555087836950018e-10).transl(-5.6571127393248137e-08, -4e-08, 0))
hIsland = hIsland.sub(rect(2.695436294429123e-09, -8.176495196206026e-10).transl(-9.157945769031909e-08, -3.221733803506247e-08, 0))
hIsland = hIsland.sub(rect(9.73357000200676e-09, -1.7348031177465314e-09).transl(-1.8828704882432533e-08, 4e-08, 0))
hIsland = hIsland.add(rect(2.596846970088725e-09, 1.0555645030931557e-09).transl(-4.33381654026112e-08, 4e-08, 0))
hIsland = hIsland.add(rect(7.528620430110563e-09, 1.7057607083072201e-09).transl(-1.0348836205534165e-07, 2.4010790823950408e-08, 0))
hIsland = hIsland.sub(rect(5.5996562117777236e-09, -1.0041225999792814e-09).transl(2.0074559035943593e-08, 4e-08, 0))
hIsland = hIsland.sub(rect(7.886815391151017e-09, -1.6751644487920657e-10).transl(-4.898385548951474e-08, 4e-08, 0))
hIsland = hIsland.sub(rect(7.649711320589754e-09, -7.039866773625738e-10).transl(-5.796926157912913e-09, 4e-08, 0))
hIsland = hIsland.add(rect(3.496950393807625e-09, 2.8455610390401875e-09).transl(-2.905666745612616e-09, 4e-08, 0))
hIsland = hIsland.add(rect(7.616429097864446e-09, 8.163483245406872e-10).transl(7.025710054598885e-08, 3.9003117386165645e-08, 0))
hIsland = hIsland.add(rect(9.942946280072974e-09, 4.329965704504969e-10).transl(-4.705565585543598e-08, 4e-08, 0))
hIsland = hIsland.add(rect(4.927858271460255e-09, 3.6131980408983234e-09).transl(5.8783253200216535e-08, 3.999003739055366e-08, 0))
hIsland = hIsland.add(rect(7.956360874336708e-09, 3.3705979415116273e-09).transl(1.0896803608415415e-07, 1.7834916317090056e-08, 0))
hIsland = hIsland.add(rect(2.0629024549339147e-09, 2.0452779938241512e-09).transl(1.0613024062242989e-07, 2.134359837855658e-08, 0))
hIsland = hIsland.add(rect(2.5607665242583703e-09, 5.164620934663625e-11).transl(-7.222299834325763e-08, 3.866651882938769e-08, 0))
hIsland = hIsland.sub(rect(7.382031618034149e-09, -1.726181506392691e-09).transl(-4.4411517844610746e-08, 4e-08, 0))
hIsland = hIsland.add(rect(2.0064828887847072e-09, 1.1952527665334092e-09).transl(6.577174443171622e-08, 3.958394278522865e-08, 0))
hIsland = hIsland.add(rect(2.7134339765181157e-09, 2.298827217493748e-09).transl(3.893377704515393e-08, 4e-08, 0))
hIsland = hIsland.add(rect(9.035249184472157e-09, 1.7490568879345906e-09).transl(7.881911836826188e-08, 3.714903233345289e-08, 0))
hIsland = hIsland.sub(rect(8.5909648251934e-09, -3.1111403628233717e-10).transl(8.556616456216433e-08, 3.491134719288697e-08, 0))
hIsland = hIsland.add(rect(4.779036985580059e-09, 1.0598092389016607e-09).transl(1.1240542150791806e-07, 1.1880075008967517e-08, 0))
hIsland = hIsland.sub(rect(6.121509934994601e-09, -1.4697675848564789e-09).transl(2.4104721290459546e-08, 4e-08, 0))
hIsland = hIsland.add(rect(9.725275533705432e-09, 1.0272144426375513e-09).transl(5.825643446845139e-08, 3.999653856868826e-08, 0))
hIsland = hIsland.add(rect(6.274985296841574e-09, 7.266476445543104e-10).transl(-1.5230420496933557e-08, 4e-08, 0))
hIsland = hIsland.add(rect(5.293444448025821e-09, 5.393239644436576e-10).transl(-6.803534120363488e-08, 3.9322852654874715e-08, 0))
hIsland = hIsland.sub(rect(6.851306467629463e-09, -2.1725278081585865e-09).transl(-1.1166319925209378e-07, 1.3428030438800046e-08, 0))
hIsland = hIsland.add(rect(4.364902934138165e-09, 1.588009472412639e-09).transl(-6.381394217096989e-08, 3.975811406457317e-08, 0))
hIsland = hIsland.add(rect(8.028540326075899e-09, 1.964788876456577e-09).transl(-8.377189146395379e-08, 3.558067209762494e-08, 0))
hIsland = hIsland.add(rect(4.390116547920348e-09, 2.0359749095618483e-09).transl(-9.486037609903834e-08, 3.0406066832604206e-08, 0))
hIsland = hIsland.sub(rect(6.078800932558628e-09, -1.1339509991243244e-09).transl(1.0379209241022941e-07, 2.372665694562734e-08, 0))
hIsland = hIsland.sub(rect(5.985680173596747e-09, -3.5003490637810605e-09).transl(9.025710652297241e-08, 3.2874419497030806e-08, 0))
hIsland = hIsland.sub(rect(7.123699410179679e-09, -1.3750608188142709e-09).transl(3.618512275841993e-08, 4e-08, 0))
hIsland = hIsland.sub(rect(6.560718346689904e-09, -2.1197072113247852e-10).transl(9.126960182565387e-08, 3.2374847937820696e-08, 0))
hIsland = hIsland.add(rect(7.565117315401656e-09, 5.139095800434014e-10).transl(-4.118746706745135e-08, 4e-08, 0))
hIsland = hIsland.add(rect(8.89425692800657e-09, 2.8383239173917493e-09).transl(7.434673297160484e-08, 3.8244661156127353e-08, 0))
hIsland = hIsland.add(rect(3.350230244848497e-09, 1.7186813449472908e-09).transl(1.13984414909591e-07, 7.48467663542662e-09, 0))
hIsland = hIsland.add(rect(9.028236042442017e-09, 3.4811071933699304e-09).transl(-8.77568013062652e-08, 3.4014303938945965e-08, 0))
hIsland = hIsland.add(rect(5.832771153494667e-09, 2.477544591241752e-09).transl(-7.1034552691456755e-09, 4e-08, 0))
hIsland = hIsland.sub(rect(2.9925372617710775e-09, -9.714135505019226e-10).transl(6.425716113231996e-08, 3.972284030108087e-08, 0))
hIsland = hIsland.sub(rect(2.3504341565098157e-09, -3.854923049834427e-09).transl(-6.382377036473694e-08, 3.975735814631801e-08, 0))
hIsland = hIsland.add(rect(7.353968874037952e-09, 7.730218098230881e-10).transl(-3.715986954786517e-09, 4e-08, 0))
hIsland = hIsland.sub(rect(8.587299765124314e-09, -1.1946661658371045e-09).transl(4.642474154930897e-08, 4e-08, 0))
hIsland = hIsland.add(rect(4.243641778473449e-09, 1.6450998765181955e-09).transl(-4.0701106211190145e-09, 4e-08, 0))
hIsland = hIsland.sub(rect(5.0901773171693296e-09, -2.1377632869965666e-09).transl(4.0927296378277445e-08, 4e-08, 0))
hIsland = hIsland.sub(rect(5.7207030269504245e-09, -1.9302983748034517e-09).transl(-9.194540065168253e-08, 3.202845142701621e-08, 0))
hIsland = hIsland.sub(rect(8.938813519075002e-09, -8.224819059451402e-10).transl(5.727919330308732e-08, 4e-08, 0))
hIsland = hIsland.sub(rect(5.180041235621545e-09, -2.3137133185689393e-09).transl(-1.791880092737371e-09, 4e-08, 0))
hIsland = hIsland.add(rect(6.8410491242859084e-09, 3.4193761254335364e-09).transl(-5.3818167418001796e-08, 4e-08, 0))
hIsland = hIsland.add(rect(9.026442229987653e-09, 6.154290886983955e-10).transl(-7.885966289438e-08, 3.7137759919584447e-08, 0))
hIsland = hIsland.add(rect(9.466723938897115e-09, 2.001084453059915e-09).transl(7.96411411789499e-09, 4e-08, 0))
hIsland = hIsland.add(rect(2.0384087590473022e-09, 1.5946061633841552e-10).transl(-4.6229925108501205e-08, 4e-08, 0))
hIsland = hIsland.sub(rect(6.375139627178996e-09, -2.593374578880871e-09).transl(-1.7740358542157083e-08, 4e-08, 0))
hIsland = hIsland.sub(rect(4.199322709306837e-09, -3.729884584316052e-10).transl(-3.92916597677214e-08, 4e-08, 0))
hIsland = hIsland.add(rect(8.496163673108576e-09, 1.1401318367156939e-09).transl(-7.431401480951212e-08, 3.825162832893905e-08, 0))
hIsland = hIsland.sub(rect(7.78803899043115e-09, -2.011126735247341e-09).transl(-8.799054105719345e-08, 3.3913146263671934e-08, 0))
hIsland = hIsland.sub(rect(2.5724305275052812e-09, -5.449084576968922e-10).transl(5.0996593423063836e-08, 4e-08, 0))
hIsland = hIsland.sub(rect(6.414509091763838e-09, -1.5583803354915948e-09).transl(7.878117924779799e-08, 3.715955789228295e-08, 0))
hIsland = hIsland.sub(rect(8.937299525051657e-09, -1.1014909798718514e-09).transl(5.233771144729217e-08, 4e-08, 0))
hIsland = hIsland.add(rect(7.920236454529493e-09, 5.413381377994497e-10).transl(1.0657788346286225e-07, 2.0841852380324025e-08, 0))
hIsland = hIsland.sub(rect(5.6710574892045974e-09, -2.7790909037114147e-09).transl(1.0475524283772548e-07, 2.2789293668792503e-08, 0))
hIsland = hIsland.add(rect(4.243403234598232e-09, 4.175688501633453e-09).transl(-1.2970429426252004e-08, 4e-08, 0))
hIsland = hIsland.add(rect(9.549701068846047e-09, 3.291623121786497e-09).transl(7.903598613023428e-08, 3.70884482384637e-08, 0))
hIsland = hIsland.add(rect(8.114840432838113e-09, 1.001531768844955e-09).transl(-1.076991307835952e-07, 1.9506777492850712e-08, 0))
hIsland = hIsland.sub(rect(2.725402384558936e-09, -3.6637395838729103e-09).transl(-3.740120766282693e-09, 4e-08, 0))
hIsland = hIsland.sub(rect(3.3362337307362735e-09, -1.5576435063464668e-09).transl(7.144457172131748e-08, 3.880591333815186e-08, 0))
hIsland = hIsland.add(rect(6.153909057954398e-09, 3.890987108561171e-09).transl(-3.6380294019961026e-08, 4e-08, 0))
hIsland = hIsland.add(rect(4.902485386491985e-09, 1.901353780425443e-09).transl(1.0086887663497529e-07, 2.6263891925545617e-08, 0))
hIsland = hIsland.sub(rect(4.2031311024883215e-09, -1.2121341645969526e-09).transl(-6.144792938455631e-08, 3.99056056941004e-08, 0))
hIsland = hIsland.add(rect(5.916827271362661e-09, 3.073831141257171e-09).transl(2.0098419195853827e-08, 4e-08, 0))
hIsland = hIsland.add(rect(3.747116740578705e-09, 2.3867813400983283e-09).transl(-3.536669297572263e-08, 4e-08, 0))
hIsland = hIsland.add(rect(5.912531781921878e-09, 2.2376364065443745e-09).transl(3.029916564244679e-08, 4e-08, 0))
hIsland = hIsland.add(rect(3.5069661822760932e-09, 2.8510974920667554e-09).transl(-8.019269412472073e-08, 3.675316578164186e-08, 0))
hIsland = hIsland.sub(rect(8.197262731293311e-09, -1.411100590153233e-09).transl(6.983525478455067e-08, 3.9068729640240236e-08, 0))
hIsland = hIsland.add(rect(7.374494130134139e-09, 2.8377192606749926e-09).transl(-2.0059593598587518e-08, 4e-08, 0))
hIsland = hIsland.add(rect(6.269508639697176e-09, 8.631719673466093e-10).transl(9.067759749994217e-09, 4e-08, 0))
hIsland = hIsland.add(rect(9.071199538163701e-09, 2.11958439049051e-09).transl(-9.21754006470047e-08, 3.190812208920234e-08, 0))
hIsland = hIsland.add(rect(2.9037383368059457e-09, 4.226208113732387e-10).transl(1.0379446400910436e-07, 2.3724417567617393e-08, 0))
hIsland = hIsland.add(rect(9.902441064299656e-09, 4.03907706654176e-10).transl(5.254215923599888e-08, 4e-08, 0))
hIsland = hIsland.sub(rect(6.52099519843844e-09, -3.6517275315433243e-09).transl(1.0269718627890772e-07, 2.4727126079351298e-08, 0))
hIsland = hIsland.add(rect(5.7593897163613296e-09, 3.4367374525699447e-10).transl(-1.0093747081881882e-07, 2.6208977270826618e-08, 0))
hIsland = hIsland.add(rect(9.542550751209775e-09, 1.542512930907442e-09).transl(-5.461272381922373e-08, 4e-08, 0))
hIsland = hIsland.add(rect(2.397731048615761e-09, 1.6090592726740089e-09).transl(-6.447317219472063e-09, 4e-08, 0))
hIsland = hIsland.sub(rect(4.019812811603301e-09, -1.1144505027305974e-09).transl(5.865015871700188e-08, 3.9991996991009156e-08, 0))
hIsland = hIsland.add(rect(8.298616151026744e-09, 3.890093321000839e-10).transl(8.316315268959076e-08, 3.5795023047821715e-08, 0))
hIsland = hIsland.add(rect(5.858119979331484e-09, 7.26628835591556e-10).transl(7.31971613013665e-08, 3.8480628188837425e-08, 0))
hIsland = hIsland.add(rect(4.998085822013622e-09, 1.2279002490498873e-09).transl(-8.883852133572339e-09, 4e-08, 0))
hIsland = hIsland.add(rect(5.676797979771814e-09, 4.6304733007890845e-10).transl(-7.73207416213555e-08, 3.7548390444344635e-08, 0))
hIsland = hIsland.sub(rect(7.602450647506333e-09, -2.7597794852173726e-09).transl(-8.461648539097496e-08, 3.527269496475386e-08, 0))
hIsland = hIsland.sub(rect(4.528603338060016e-09, -3.8406729696050534e-09).transl(-1.518474898734459e-08, 4e-08, 0))
hIsland = hIsland.add(rect(8.840531641295484e-09, 1.4662955815306276e-09).transl(2.243397865413271e-09, 4e-08, 0))
hIsland = hIsland.sub(rect(2.45452504570088e-09, -1.883886269986945e-09).transl(5.2897581574897584e-08, 4e-08, 0))
hIsland = hIsland.add(rect(7.751226071603077e-09, 1.1582581421367588e-09).transl(1.1549981627539399e-08, 4e-08, 0))
hIsland = hIsland.sub(rect(9.53549851949525e-09, -1.317899232285894e-10).transl(-1.652926263264953e-08, 4e-08, 0))
hIsland = hIsland.sub(rect(9.198964545228236e-09, -4.1230037027194825e-10).transl(-1.1106643920445217e-07, 1.4540405035966394e-08, 0))
hIsland = hIsland.add(rect(3.34348497933191e-09, 1.4603460064431701e-10).transl(1.514823437733785e-08, 4e-08, 0))
hIsland = hIsland.sub(rect(4.509713130915109e-09, -5.034997667468567e-09).transl(3.6956949634678007e-09, 4e-08, 0))
hIsland = hIsland.add(rect(5.4887536813139515e-09, 1.899830998470104e-09).transl(1.6596409485201277e-09, 4e-08, 0))
hIsland = hIsland.sub(rect(7.596132175280761e-09, -1.915299306485221e-09).transl(-2.612297032751643e-08, 4e-08, 0))
hIsland = hIsland.sub(rect(9.39648643615853e-09, -1.8433430613613676e-09).transl(7.106981952144756e-09, 4e-08, 0))
hIsland = hIsland.add(rect(9.528896633039093e-09, 5.278244574871553e-10).transl(2.826623390010911e-08, 4e-08, 0))
hIsland = hIsland.sub(rect(5.236410643111625e-09, -9.092488375163139e-10).transl(-4.1122658291248435e-09, 4e-08, 0))
hIsland = hIsland.sub(rect(4.495278776359163e-09, -1.1906789408758221e-10).transl(1.8039251997555365e-08, 4e-08, 0))
hIsland = hIsland.sub(rect(9.848798103689288e-09, -1.11329142272363e-09).transl(-1.4175039745858437e-08, 4e-08, 0))
hIsland = hIsland.add(rect(6.680148696033164e-09, 3.514788395786309e-10).transl(9.11451581326943e-08, 3.243748833456903e-08, 0))
hIsland = hIsland.sub(rect(9.252918896569506e-09, -6.500819282374078e-10).transl(8.595533010870883e-08, 3.475855995349487e-08, 0))
hIsland = hIsland.sub(rect(7.1015653725664434e-09, -1.2238609745808792e-09).transl(1.6857159299037833e-09, 4e-08, 0))
hIsland = hIsland.sub(rect(9.24741036468721e-09, -3.3975192441381906e-09).transl(-9.718042552007085e-09, 4e-08, 0))
hIsland = hIsland.sub(rect(7.63613148474033e-09, -6.017459359522454e-09).transl(2.5907178936516028e-08, 4e-08, 0))
hIsland = hIsland.sub(rect(7.639591065904262e-09, -1.986108377845564e-09).transl(-4.335026205435487e-08, 4e-08, 0))
hIsland = hIsland.sub(rect(7.416273692022293e-09, -4.129359839800792e-09).transl(-3.9371523126458955e-09, 4e-08, 0))
hIsland = hIsland.sub(rect(2.9792910845627037e-09, -1.877814467114174e-09).transl(1.0070668349574593e-07, 2.639294172746023e-08, 0))
hIsland = hIsland.add(rect(8.027047750080666e-09, 1.943895569781245e-09).transl(-1.9324822248379467e-08, 4e-08, 0))
hIsland = hIsland.add(rect(6.523172631246603e-09, 4.2486515093720096e-09).transl(-4.09220227884193e-08, 4e-08, 0))
hIsland = hIsland.sub(rect(9.72669543944043e-09, -1.5957318633666102e-09).transl(1.0513410065828866e-07, 2.2404346912556714e-08, 0))
hIsland = hIsland.sub(rect(6.0229613803007835e-09, -1.4610800270628097e-09).transl(4.35848966673646e-08, 4e-08, 0))
hIsland = hIsland.sub(rect(7.38979025518052e-09, -6.515359762077359e-11).transl(7.117789251152027e-08, 3.885181740644219e-08, 0))
hIsland = hIsland.add(rect(8.1250891246615e-09, 1.158037435271961e-09).transl(1.1215126104862496e-07, 1.2434277463404282e-08, 0))
hIsland = hIsland.add(rect(3.4620488305063078e-09, 6.616117421380075e-11).transl(4.1438761876151225e-08, 4e-08, 0))
hIsland = hIsland.sub(rect(2.583463475764906e-09, -1.117235478233844e-09).transl(-9.079017908172663e-08, 3.2614248166017256e-08, 0))
hIsland = hIsland.sub(rect(4.633185620527568e-09, -1.2725858116718325e-09).transl(2.964634329925388e-08, 4e-08, 0))
hIsland = hIsland.sub(rect(6.963258742979553e-09, -1.4066203525860066e-09).transl(-1.0488235344400773e-07, 2.2661210791060392e-08, 0))
hIsland = hIsland.add(rect(2.9345339858085232e-09, 1.2402452791795547e-09).transl(1.810661034138679e-08, 4e-08, 0))
hIsland = hIsland.add(rect(5.795619861619452e-09, 1.6639637190511359e-09).transl(3.749023812500003e-08, 4e-08, 0))
hIsland = hIsland.sub(rect(3.962233697808798e-09, -2.004956884246796e-10).transl(-8.076727191918584e-08, 3.6578897267945886e-08, 0))
hIsland = hIsland.sub(rect(3.357648802368486e-09, -1.8476574478015473e-09).transl(-4.4069054497537776e-08, 4e-08, 0))
hIsland = hIsland.add(rect(8.258573375991267e-09, 4.00910356167587e-09).transl(9.145327668569182e-09, 4e-08, 0))
hIsland = hIsland.sub(rect(4.276165240955713e-09, -1.9713855681571848e-09).transl(9.572333663783764e-08, 2.98825044211915e-08, 0))
hIsland = hIsland.add(rect(7.055721371072023e-09, 1.7005956372121105e-09).transl(-8.507428736441575e-10, 4e-08, 0))
hIsland = hIsland.sub(rect(4.402349962780766e-09, -2.8475739470231324e-09).transl(-9.266663490419006e-08, 3.164688184725245e-08, 0))
hIsland = hIsland.add(rect(7.070114039572808e-09, 6.429611905550128e-10).transl(-5.839965382662643e-08, 3.999510365793192e-08, 0))
hIsland = hIsland.sub(rect(6.231412990366847e-09, -3.392892028076817e-10).transl(-1.0528372821637906e-08, 4e-08, 0))
hIsland = hIsland.sub(rect(5.190922154856911e-09, -1.6621860083854057e-09).transl(-5.4586956092590955e-08, 4e-08, 0))
hIsland = hIsland.sub(rect(2.1616534234261132e-09, -2.1732265647522355e-10).transl(1.2919862462783083e-08, 4e-08, 0))
hIsland = hIsland.add(rect(9.264865609399947e-09, 1.7854609382072422e-09).transl(-9.869883829241459e-08, 2.7903420567295866e-08, 0))
hIsland = hIsland.add(rect(2.332305919550428e-09, 4.0181298031921346e-10).transl(-1.967333523645555e-08, 4e-08, 0))
hIsland = hIsland.add(rect(8.725547577029429e-09, 9.110716685021635e-10).transl(2.124005738288403e-08, 4e-08, 0))
hIsland = hIsland.sub(rect(3.1141349257956235e-09, -1.1598994070042731e-09).transl(6.354408600734486e-08, 3.97784048676976e-08, 0))
hIsland = hIsland.add(rect(5.745458694037891e-09, 2.1916694527144502e-09).transl(8.414550366438283e-08, 3.544596746455693e-08, 0))
hIsland = hIsland.add(rect(9.848303893432296e-09, 4.34985560995998e-09).transl(-2.5394572880254088e-08, 4e-08, 0))
hIsland = hIsland.sub(rect(4.935550310511721e-09, -2.8460498986567005e-09).transl(1.122714861361448e-07, 1.2175588584085373e-08, 0))
hIsland = hIsland.add(rect(8.32477075491537e-09, 1.6625788456846336e-09).transl(-1.9281810915398154e-08, 4e-08, 0))
hIsland = hIsland.add(rect(5.292197087388916e-09, 5.00915275722726e-09).transl(6.067542289435231e-08, 3.9938957971994805e-08, 0))
hIsland = hIsland.sub(rect(3.3415765522704107e-09, -4.579275133882628e-10).transl(-7.764535834641826e-08, 3.746469343590122e-08, 0))
hIsland = hIsland.sub(rect(3.6469020183674703e-09, -1.6219312728558703e-09).transl(7.491321742510246e-08, 3.812167476291683e-08, 0))
hIsland = hIsland.add(rect(7.98848950365842e-09, 5.639450353385882e-10).transl(2.6293833166483492e-08, 4e-08, 0))
hIsland = hIsland.sub(rect(3.131569570560432e-09, -4.897705274355976e-11).transl(-1.0154479958281657e-07, 2.5713788979416355e-08, 0))
hIsland = hIsland.add(rect(6.417441195367322e-09, 1.4622771385829388e-09).transl(2.4872704198540313e-08, 4e-08, 0))
hIsland = hIsland.sub(rect(3.6087597267198497e-09, -1.1640489955382755e-09).transl(3.0099219913494975e-08, 4e-08, 0))
hIsland = hIsland.add(rect(2.0801705440234084e-09, 2.1978942659287166e-09).transl(-1.9325220670407612e-08, 4e-08, 0))
hIsland = hIsland.sub(rect(4.527981142265523e-09, -4.3298037044079543e-10).transl(2.1320683633791236e-09, 4e-08, 0))
hIsland = hIsland.add(rect(9.398752655906927e-09, 2.562272851479158e-10).transl(-3.7161571822750886e-08, 4e-08, 0))
hIsland = hIsland.add(rect(3.209759264555462e-09, 2.4133940244311344e-10).transl(-1.037545442265319e-07, 2.376206836664494e-08, 0))
hIsland = hIsland.sub(rect(4.5812136688873525e-09, -1.3799976852963434e-09).transl(-9.943344902378731e-08, 2.7368727008616304e-08, 0))
hIsland = hIsland.add(rect(6.798876217705522e-09, 2.6698021184572068e-09).transl(-2.7109288886830175e-08, 4e-08, 0))
hIsland = hIsland.sub(rect(5.327359429343153e-09, -1.7068231243419494e-09).transl(-4.594086830250924e-08, 4e-08, 0))
hIsland = hIsland.sub(rect(7.22742737550937e-09, -2.2314398252336486e-09).transl(1.1111911695760587e-07, 1.4446139845320556e-08, 0))
hIsland = hIsland.add(rect(5.557041910284495e-09, 9.595211734225219e-10).transl(8.400983076918767e-08, 3.549516305030125e-08, 0))
hIsland = hIsland.sub(rect(6.181703701001171e-09, -8.345927413467289e-10).transl(1.1441292140149757e-08, 4e-08, 0))
hIsland = hIsland.sub(rect(5.840040401931605e-09, -1.4723300542168777e-09).transl(-6.706294806846424e-08, 3.944292630080703e-08, 0))
hIsland = hIsland.sub(rect(5.773076414742125e-09, -3.7385632786672504e-09).transl(-2.1641413471524082e-08, 4e-08, 0))
hIsland = hIsland.sub(rect(4.888393855859094e-09, -2.773041002997579e-09).transl(1.2713087877091487e-08, 4e-08, 0))
hIsland = hIsland.sub(rect(5.577790841506951e-09, -3.3153268771890258e-09).transl(-5.252215149467692e-08, 4e-08, 0))
hIsland = hIsland.add(rect(2.085849501653393e-09, 1.4491998261203763e-09).transl(-1.2346238538234685e-08, 4e-08, 0))
hIsland = hIsland.add(rect(4.462584428398946e-09, 4.704421217653832e-09).transl(8.432908080353123e-08, 3.5378891861069465e-08, 0))
hIsland = hIsland.add(rect(5.077385275804934e-09, 3.1374157017696416e-09).transl(7.753413299048437e-08, 3.7493545252216265e-08, 0))
hIsland = hIsland.sub(rect(6.675622900195765e-09, -3.231800661122358e-09).transl(-9.554276287586019e-09, 4e-08, 0))
hIsland = hIsland.add(rect(7.608442731706192e-09, 3.0772082297598857e-09).transl(6.4988357510307834e-09, 4e-08, 0))
hIsland = hIsland.add(rect(4.216612029850333e-09, 3.2615285669053763e-09).transl(-3.80548695502748e-08, 4e-08, 0))
hIsland = hIsland.add(rect(8.680442671584277e-09, 2.751589970651032e-10).transl(1.1222661897836274e-07, 1.2272833882732894e-08, 0))
hIsland = hIsland.sub(rect(5.072601238814134e-09, -6.743699635368035e-10).transl(1.0704231172659723e-07, 2.030314647264667e-08, 0))
hIsland = hIsland.sub(rect(4.798520312925771e-09, -1.538427686323114e-10).transl(6.229071176990559e-08, 3.9860924687647986e-08, 0))
hIsland = hIsland.add(rect(7.579642831948712e-09, 1.4023746144298273e-09).transl(6.649718064334946e-08, 3.950729131720158e-08, 0))
hIsland = hIsland.sub(rect(7.20855323548718e-09, -3.2258365595944462e-09).transl(1.1094409657950426e-08, 4e-08, 0))
hIsland = hIsland.sub(rect(5.525443466050763e-09, -1.8773738742247357e-10).transl(-9.705040547764818e-08, 2.9034753610078563e-08, 0))
hIsland = hIsland.sub(rect(9.505159428954489e-09, -2.5904648058228525e-10).transl(5.888432875688237e-08, 3.998840593495166e-08, 0))
hIsland = hIsland.add(rect(5.857754397651774e-09, 1.0154151117766507e-09).transl(4.711000812219036e-08, 4e-08, 0))
hIsland = hIsland.add(rect(3.357734540779903e-09, 2.0627964525570573e-09).transl(-2.5319151727436628e-08, 4e-08, 0))
hIsland = hIsland.sub(rect(8.714246114895945e-09, -1.0343967488456079e-09).transl(5.473130422209358e-08, 4e-08, 0))
hIsland = hIsland.sub(rect(3.3535220348957176e-09, -2.0344216446453524e-09).transl(5.895017838708489e-10, 4e-08, 0))
hIsland = hIsland.sub(rect(9.305494971233744e-09, -1.1412194030891719e-10).transl(5.077722248787027e-08, 4e-08, 0))
hIsland = hIsland.add(rect(4.775309833425239e-09, 2.8869810820082065e-09).transl(-7.995594684513915e-08, 3.682346881329702e-08, 0))
hIsland = hIsland.add(rect(8.082142544149327e-09, 1.183616361668004e-10).transl(4.645778699674504e-08, 4e-08, 0))
hIsland = hIsland.sub(rect(6.281312553990223e-09, -8.727351369373945e-11).transl(7.881923866415412e-08, 3.7148998924855194e-08, 0))
hIsland = hIsland.sub(rect(9.801110044159675e-09, -5.588738300424512e-11).transl(6.409694340372441e-08, 3.973587101223418e-08, 0))
hIsland = hIsland.add(rect(9.532528050845856e-09, 4.212586519768374e-10).transl(-3.7969284936659196e-08, 4e-08, 0))
hIsland = hIsland.sub(rect(8.576650221432015e-09, -2.609945844033639e-09).transl(8.188577368553462e-08, 3.6224606898787476e-08, 0))
hIsland = hIsland.add(rect(6.780813609032347e-09, 1.3529019760450639e-09).transl(-2.212296303867046e-08, 4e-08, 0))
hIsland = hIsland.add(rect(9.513810186915018e-09, 8.643342525288473e-10).transl(-1.0997537081594848e-08, 4e-08, 0))
hIsland = hIsland.add(rect(7.833652754285616e-09, 5.69455101559187e-10).transl(-3.854286818692183e-08, 4e-08, 0))
hIsland = hIsland.add(rect(3.940434010360031e-09, 1.0505534715118494e-09).transl(-6.143773328920245e-08, 3.990609321116437e-08, 0))
hIsland = hIsland.add(rect(6.4958870842951715e-09, 2.3700433812684814e-09).transl(-6.263180178655736e-08, 3.984037479298347e-08, 0))
hIsland = hIsland.add(rect(4.523660906783983e-09, 3.5335631754875495e-09).transl(-4.7803833628639186e-09, 4e-08, 0))
hIsland = hIsland.sub(rect(4.975111285416693e-09, -2.914638041778961e-09).transl(-5.3295126300348694e-08, 4e-08, 0))
hIsland = hIsland.sub(rect(4.0515839430124706e-09, -1.855151099878732e-10).transl(8.81903605774654e-08, 3.382580899941795e-08, 0))
hIsland = hIsland.sub(rect(3.118765288912335e-09, -1.977825044837734e-09).transl(1.2199057539983673e-08, 4e-08, 0))
hIsland = hIsland.sub(rect(4.326353088480361e-09, -8.666292527289568e-10).transl(-2.690049535141898e-08, 4e-08, 0))
hIsland = hIsland.add(rect(5.420291472769217e-09, 2.0678614390450855e-09).transl(1.2229421484333057e-08, 4e-08, 0))
hIsland = hIsland.sub(rect(6.729280791170174e-09, -1.8401138548906526e-09).transl(-9.426308691703593e-08, 3.075636663076887e-08, 0))
hIsland = hIsland.sub(rect(3.955563319507237e-09, -2.3248944224451724e-09).transl(3.684148355819713e-08, 4e-08, 0))
hIsland = hIsland.sub(rect(4.562588836757512e-09, -3.045274669857915e-09).transl(3.4331899990271165e-08, 4e-08, 0))
hIsland = hIsland.add(rect(3.0717508821440803e-09, 1.0206478758827029e-10).transl(1.7850402883746472e-08, 4e-08, 0))
hIsland = hIsland.sub(rect(5.047198241541355e-09, -7.96498335042209e-12).transl(2.532112764279483e-08, 4e-08, 0))
vIsland = hIsland.rotz(pi / 2)
hIslands = hIslands.add(hIsland.transl(-a/2, a, 0))
hIsland = rect(islandLength-2*ellipseConstant, islandWidth)
hIsland = hIsland.add(ellipse(ellipseConstant*2, islandWidth).transl(islandLength/2-ellipseConstant, 0, 0))
hIsland = hIsland.add(ellipse(ellipseConstant*2, islandWidth).transl(-islandLength/2+ellipseConstant, 0, 0))
hIsland = hIsland.add(rect(8.866266620304325e-09, 7.451381927107742e-10).transl(7.945237663134382e-08, -3.697012151354801e-08, 0))
hIsland = hIsland.sub(rect(8.599999773368426e-09, -3.1200714394081595e-09).transl(7.983345372380858e-08, -3.6859502119835575e-08, 0))
hIsland = hIsland.sub(rect(6.692546082774246e-09, -2.759109874760408e-09).transl(3.175789667487028e-08, -4e-08, 0))
hIsland = hIsland.add(rect(5.792243598001916e-09, 1.4028452005875167e-09).transl(-7.733417942255132e-09, -4e-08, 0))
hIsland = hIsland.sub(rect(8.020834080800325e-09, -3.092229691977588e-09).transl(7.44190481653787e-08, -3.822920940953897e-08, 0))
hIsland = hIsland.add(rect(6.3247496579861046e-09, 2.4597189840677507e-09).transl(-5.271450953788617e-08, -4e-08, 0))
hIsland = hIsland.add(rect(6.336882881823004e-09, 1.244717672492326e-09).transl(4.2322779880283246e-08, -4e-08, 0))
hIsland = hIsland.add(rect(8.340908371481597e-09, 9.243824764578075e-11).transl(-6.81563651030671e-08, -3.930706805694152e-08, 0))
hIsland = hIsland.sub(rect(7.844075578672195e-09, -2.7837914565240975e-10).transl(-1.0632879097272855e-07, -2.1123088187368633e-08, 0))
hIsland = hIsland.add(rect(9.282089629247322e-09, 2.7653107933235255e-09).transl(8.125765489513059e-08, -3.6426036655862e-08, 0))
hIsland = hIsland.sub(rect(5.831205346676102e-09, -1.67519766803245e-09).transl(-8.351335397503283e-08, -3.5672480596316433e-08, 0))
hIsland = hIsland.add(rect(7.153024465616368e-09, 4.907700660248424e-09).transl(7.191815113763858e-08, -3.872207038956731e-08, 0))
hIsland = hIsland.add(rect(6.030866804295302e-09, 3.0365090953712086e-09).transl(3.1322800216378945e-09, -4e-08, 0))
hIsland = hIsland.add(rect(9.821514295411066e-09, 6.081668034334521e-10).transl(6.933344764135046e-08, -3.9143770585799075e-08, 0))
hIsland = hIsland.add(rect(6.142855287319158e-09, 3.123305336439163e-10).transl(-1.850380226966898e-08, -4e-08, 0))
hIsland = hIsland.add(rect(7.643079066262874e-09, 1.8590114974306297e-10).transl(1.0472886101586189e-07, -2.281574423688855e-08, 0))
hIsland = hIsland.sub(rect(8.227718142130301e-09, -2.014127009340376e-09).transl(6.827934336121934e-08, -3.9290837272854924e-08, 0))
hIsland = hIsland.sub(rect(8.511541408323053e-09, -2.5943984439397133e-09).transl(1.0824993018373017e-07, -1.8804426443902387e-08, 0))
hIsland = hIsland.add(rect(3.2281383406356954e-09, 3.200490395709757e-09).transl(-4.084462486689201e-08, -4e-08, 0))
hIsland = hIsland.sub(rect(6.639010131878726e-09, -2.0375324259237664e-09).transl(-1.0551605930738007e-07, -2.2006239896965585e-08, 0))
hIsland = hIsland.add(rect(9.846658643493953e-09, 4.471566052384745e-11).transl(-8.687424019868148e-08, -3.4386643647915106e-08, 0))
hIsland = hIsland.add(rect(8.571061663531648e-09, 2.6252275427645983e-09).transl(3.459410850872221e-08, -4e-08, 0))
hIsland = hIsland.sub(rect(6.545146186220321e-09, -1.4526898296725107e-09).transl(-2.7513617749527866e-08, -4e-08, 0))
hIsland = hIsland.add(rect(6.21057899899383e-09, 6.371101114838054e-11).transl(-5.740277119314594e-08, -4e-08, 0))
hIsland = hIsland.add(rect(2.8358894362754264e-09, 9.078606959092079e-10).transl(8.375976694876052e-08, -3.5585003207607e-08, 0))
hIsland = hIsland.add(rect(3.787318688816562e-09, 4.593611552143192e-09).transl(2.9212133094572515e-08, -4e-08, 0))
hIsland = hIsland.sub(rect(3.3274008660042257e-09, -1.854353568047203e-09).transl(-6.5186833718912e-08, -3.964096004592236e-08, 0))
hIsland = hIsland.add(rect(3.843113598759137e-09, 4.1921109676570285e-10).transl(1.76714262075576e-08, -4e-08, 0))
hIsland = hIsland.add(rect(2.3878484038242968e-09, 9.429517168825076e-10).transl(3.340613230812272e-08, -4e-08, 0))
hIsland = hIsland.sub(rect(8.686069220987041e-09, -1.7379508412309833e-09).transl(1.2772145236010405e-09, -4e-08, 0))
hIsland = hIsland.sub(rect(7.775507524766601e-09, -1.8485205576420248e-09).transl(-8.840810242340516e-08, -3.3729728530148926e-08, 0))
hIsland = hIsland.add(rect(4.728156867673197e-09, 1.6831254285532192e-09).transl(-2.339621757106453e-08, -4e-08, 0))
hIsland = hIsland.add(rect(8.37484394439086e-09, 5.3093598348202e-10).transl(1.0180861284857307e-07, -2.5493510343016807e-08, 0))
hIsland = hIsland.sub(rect(9.853514210578185e-09, -5.638059197427078e-10).transl(9.651550272081483e-08, -2.9382889847245774e-08, 0))
hIsland = hIsland.sub(rect(3.536073378496269e-09, -2.688160778978474e-09).transl(3.7432215135523974e-08, -4e-08, 0))
hIsland = hIsland.add(rect(4.162227049134054e-09, 8.645395168601129e-10).transl(4.3511329062278575e-09, -4e-08, 0))
hIsland = hIsland.add(rect(2.089782593980977e-09, 2.7472174000307417e-09).transl(-8.992667652207654e-08, -3.303257046313219e-08, 0))
hIsland = hIsland.sub(rect(4.759855148567234e-09, -1.1261543271823066e-09).transl(8.124614904540202e-08, -3.642966716739481e-08, 0))
hIsland = hIsland.sub(rect(6.502751764350647e-09, -2.565116243239442e-09).transl(-4.654619699765582e-08, -4e-08, 0))
hIsland = hIsland.add(rect(7.659928215275585e-09, 9.344455124440193e-10).transl(-3.0303079984546733e-08, -4e-08, 0))
hIsland = hIsland.add(rect(2.2145136766643453e-09, 1.1723587835205855e-09).transl(1.3537720648337403e-08, -4e-08, 0))
hIsland = hIsland.sub(rect(9.096938413982422e-09, -8.558884830826963e-11).transl(9.855162123334301e-08, -2.8008224720107863e-08, 0))
hIsland = hIsland.add(rect(4.315283566991119e-09, 2.7542038984779743e-09).transl(-5.349253781997595e-08, -4e-08, 0))
hIsland = hIsland.add(rect(2.364650862225668e-09, 4.251817872482262e-09).transl(-2.5521754281231207e-08, -4e-08, 0))
hIsland = hIsland.sub(rect(2.5036299583861824e-09, -4.144787221045195e-09).transl(1.067208347606201e-07, -2.0678071310414822e-08, 0))
hIsland = hIsland.add(rect(5.010982562225536e-09, 3.435661726986438e-09).transl(-2.3939026137185167e-08, -4e-08, 0))
hIsland = hIsland.sub(rect(7.815992032145428e-09, -2.5163378469951715e-09).transl(-3.000833851029883e-08, -4e-08, 0))
hIsland = hIsland.sub(rect(4.362285882183588e-09, -9.349390295893165e-10).transl(1.0373140711372093e-07, -2.378384827264229e-08, 0))
hIsland = hIsland.sub(rect(3.4249822900115714e-09, -4.900229404466177e-10).transl(6.01936349748037e-08, -3.995608526608754e-08, 0))
hIsland = hIsland.add(rect(2.1031697701819577e-09, 2.9747221269650284e-10).transl(4.118840252434626e-09, -4e-08, 0))
hIsland = hIsland.sub(rect(6.042117228372512e-09, -4.17318735554363e-09).transl(-2.994594342040712e-08, -4e-08, 0))
hIsland = hIsland.add(rect(5.02911789777204e-09, 2.198044245945299e-09).transl(6.482233638606036e-08, -3.967433943312124e-08, 0))
hIsland = hIsland.sub(rect(6.835556406697817e-09, -4.511617074571874e-09).transl(-3.9728067181208433e-08, -4e-08, 0))
hIsland = hIsland.add(rect(4.5960040452796185e-09, 4.6430136395339724e-10).transl(-1.0917931513750842e-07, -1.753676058287509e-08, 0))
hIsland = hIsland.sub(rect(8.732569984070662e-09, -7.600247581124678e-10).transl(-7.566599982784309e-08, -3.795129430772836e-08, 0))
hIsland = hIsland.sub(rect(7.492212598759864e-09, -7.560119615846214e-10).transl(5.142156208699049e-08, -4e-08, 0))
hIsland = hIsland.add(rect(3.0200399101524056e-09, 1.30446654265918e-09).transl(-3.027758696203193e-08, -4e-08, 0))
hIsland = hIsland.sub(rect(4.6930325403834305e-09, -4.866927414858463e-10).transl(-4.194912586051414e-08, -4e-08, 0))
hIsland = hIsland.add(rect(2.0804922037745385e-09, 1.6549339690583762e-09).transl(-8.665219325207115e-08, -3.447796767571039e-08, 0))
hIsland = hIsland.sub(rect(7.97378221870117e-09, -5.094659660181077e-10).transl(4.40355474758358e-08, -4e-08, 0))
hIsland = hIsland.sub(rect(2.958946569796692e-09, -3.6698107473857027e-09).transl(-8.603821251947847e-09, -4e-08, 0))
hIsland = hIsland.sub(rect(9.950517110967185e-09, -1.2385463149097216e-09).transl(4.9706195298312326e-08, -4e-08, 0))
hIsland = hIsland.sub(rect(9.050943877240226e-09, -2.40560379559147e-09).transl(-1.0012452570244282e-07, -2.6847125532570955e-08, 0))
hIsland = hIsland.sub(rect(4.184967459954589e-09, -3.278340993140665e-10).transl(-8.90019983832538e-08, -3.346277928464419e-08, 0))
hIsland = hIsland.sub(rect(7.037835665257514e-09, -1.6445296756773416e-09).transl(7.048531282795862e-08, -3.896665489800983e-08, 0))
hIsland = hIsland.sub(rect(2.3045617589411266e-09, -4.614758731896941e-09).transl(-4.9242065589797044e-08, -4e-08, 0))
hIsland = hIsland.sub(rect(3.6402348923345614e-09, -2.777252557468735e-09).transl(7.709536502960617e-08, -3.76055929193919e-08, 0))
hIsland = hIsland.add(rect(7.945252650256477e-09, 2.0650582442335454e-09).transl(-6.714274484745116e-08, -3.943352360730719e-08, 0))
hIsland = hIsland.sub(rect(9.321194943295845e-09, -1.2139892413954692e-09).transl(-6.756728769772483e-08, -3.9382145204326586e-08, 0))
hIsland = hIsland.sub(rect(3.623529572987609e-09, -1.2968495794799314e-09).transl(-7.982538694845126e-08, -3.686186694103062e-08, 0))
hIsland = hIsland.sub(rect(2.5562703267959712e-09, -4.680567790925636e-09).transl(-7.092058742255066e-08, -3.889521780946581e-08, 0))
hIsland = hIsland.add(rect(5.033364874618007e-09, 1.9464775554324517e-09).transl(9.265403614341687e-08, -3.165365495113031e-08, 0))
hIsland = hIsland.sub(rect(2.2982190819660602e-09, -2.200812152204172e-09).transl(1.5645724555117638e-08, -4e-08, 0))
hIsland = hIsland.add(rect(2.2152823664269957e-09, 7.693065332300048e-10).transl(-6.047399451267696e-08, -3.9946461601961226e-08, 0))
hIsland = hIsland.sub(rect(7.726695410149406e-09, -5.610028726501719e-10).transl(-9.100186902271041e-08, -3.2509179789156567e-08, 0))
hIsland = hIsland.sub(rect(7.680899989752594e-09, -1.781165723654737e-09).transl(-1.011891948015005e-07, -2.600571007331333e-08, 0))
hIsland = hIsland.add(rect(6.255401706666556e-09, 1.5990613997747212e-09).transl(3.4229195774998646e-08, -4e-08, 0))
hIsland = hIsland.add(rect(3.24744897179449e-09, 1.6925383157487511e-09).transl(-1.080218116651315e-07, -1.9099377744725018e-08, 0))
hIsland = hIsland.sub(rect(4.683363804303395e-09, -2.130495787462086e-09).transl(6.830113074024334e-08, -3.928794163005162e-08, 0))
hIsland = hIsland.add(rect(8.145667385473314e-09, 2.489652029119961e-10).transl(-2.906350969698259e-08, -4e-08, 0))
hIsland = hIsland.sub(rect(7.399612874347409e-09, -3.429088044117039e-09).transl(-9.243095350910635e-08, -3.177294484192245e-08, 0))
hIsland = hIsland.add(rect(5.951947075321192e-09, 3.0819807882595013e-09).transl(-1.139135907857592e-07, -7.73885372150248e-09, 0))
hIsland = hIsland.add(rect(3.3689437835940493e-09, 2.1389071092865578e-10).transl(-8.366707573606599e-08, -3.56180308870767e-08, 0))
hIsland = hIsland.sub(rect(6.582401138259028e-09, -2.149101517778226e-09).transl(5.33292789125089e-08, -4e-08, 0))
hIsland = hIsland.add(rect(2.4729015683555684e-09, 1.039300316802854e-09).transl(7.478964923880243e-08, -3.814888293684237e-08, 0))
hIsland = hIsland.add(rect(2.2533903238578666e-09, 4.406489038980072e-10).transl(6.369310202520996e-08, -3.9767311022908686e-08, 0))
hIsland = hIsland.sub(rect(8.278042649551548e-09, -2.583950236468255e-09).transl(-1.0017124180674658e-08, -4e-08, 0))
hIsland = hIsland.sub(rect(8.438615886210924e-09, -8.131515062035028e-12).transl(1.1398983856692249e-07, -7.464841790310268e-09, 0))
hIsland = hIsland.add(rect(4.633581112561503e-09, 8.211789012288289e-10).transl(-7.746125490010077e-08, -3.751235122419108e-08, 0))
hIsland = hIsland.add(rect(6.2362052176766235e-09, 3.83334794869015e-09).transl(9.500391098299784e-08, -3.032043441821851e-08, 0))
hIsland = hIsland.add(rect(2.9193739890202023e-09, 2.458296518404049e-09).transl(-8.418023566634214e-08, -3.5433322091689166e-08, 0))
hIsland = hIsland.sub(rect(7.60558252178576e-09, -8.636886476449253e-10).transl(8.539896568111943e-08, -3.4976141335098195e-08, 0))
hIsland = hIsland.sub(rect(5.433632384901486e-09, -3.897850067392351e-10).transl(9.781487336196076e-08, -2.8521408149163904e-08, 0))
hIsland = hIsland.add(rect(3.7238249046518615e-09, 1.2118160961243187e-09).transl(-1.1604296054087042e-08, -4e-08, 0))
hIsland = hIsland.sub(rect(7.68389897365143e-09, -1.2687674595416367e-10).transl(7.84666302973922e-08, -3.7245989265994254e-08, 0))
hIsland = hIsland.sub(rect(6.881774486838878e-09, -2.6886564643430262e-09).transl(9.698626197300153e-08, -2.90769720155348e-08, 0))
hIsland = hIsland.add(rect(5.189757741000844e-09, 8.340510576485642e-10).transl(-4.547098534976949e-08, -4e-08, 0))
hIsland = hIsland.sub(rect(9.456748188225763e-09, -3.290313071594305e-10).transl(-2.518117955034026e-09, -4e-08, 0))
hIsland = hIsland.add(rect(4.929256235547136e-09, 3.717810402915078e-09).transl(2.2802273792445438e-08, -4e-08, 0))
hIsland = hIsland.add(rect(8.780556347939893e-09, 2.454945684499195e-09).transl(-5.367012849079022e-08, -4e-08, 0))
hIsland = hIsland.add(rect(9.38837220085596e-09, 6.138885220780481e-09).transl(5.1173969149385535e-08, -4e-08, 0))
hIsland = hIsland.sub(rect(5.733824515216338e-09, -5.379692422774111e-10).transl(6.54054199576648e-08, -3.962015082372718e-08, 0))
hIsland = hIsland.sub(rect(5.805535596384829e-09, -3.852308357743971e-09).transl(1.0104208551616912e-07, -2.6124835468917586e-08, 0))
hIsland = hIsland.sub(rect(3.543161403587682e-09, -5.175704891942988e-11).transl(-1.0448785697600616e-08, -4e-08, 0))
hIsland = hIsland.sub(rect(9.492165577925846e-09, -2.144064622436285e-09).transl(-1.1307385222223702e-07, -1.026639672343889e-08, 0))
hIsland = hIsland.add(rect(5.648481713250199e-09, 2.1219794092801065e-10).transl(2.390213615469658e-08, -4e-08, 0))
hIsland = hIsland.sub(rect(9.343555350626457e-09, -7.356841483736178e-10).transl(-1.0148601362541887e-07, -2.5762439319928775e-08, 0))
hIsland = hIsland.sub(rect(3.965501752429011e-09, -1.0498908100899177e-10).transl(4.62985619710656e-08, -4e-08, 0))
hIsland = hIsland.add(rect(9.16328421283566e-09, 1.8250168183895834e-09).transl(-6.153703653937923e-08, -3.9901291203643686e-08, 0))
hIsland = hIsland.sub(rect(9.877455890554053e-09, -8.104991127238158e-10).transl(9.72890187991691e-08, -2.887655427605443e-08, 0))
hIsland = hIsland.sub(rect(2.655608923132818e-09, -1.2687945592364711e-09).transl(-5.8058040662800465e-09, -4e-08, 0))
hIsland = hIsland.sub(rect(5.569899236832098e-09, -4.36820138181404e-10).transl(-7.729893155718626e-08, -3.755395843637872e-08, 0))
hIsland = hIsland.add(rect(4.28925747352188e-09, 1.1662725382455667e-10).transl(5.621786618764493e-08, -4e-08, 0))
hIsland = hIsland.sub(rect(3.0994999929254244e-09, -1.4641499650011058e-09).transl(-3.359546309084218e-08, -4e-08, 0))
hIsland = hIsland.add(rect(7.469961803201428e-09, 3.6826165576811e-09).transl(9.558896795840032e-08, -2.996541841403377e-08, 0))
hIsland = hIsland.add(rect(2.352651474917741e-09, 2.4812912322696208e-09).transl(1.3068469155146051e-08, -4e-08, 0))
hIsland = hIsland.add(rect(7.147455100103653e-09, 3.319813417849974e-10).transl(-4.862628686147467e-08, -4e-08, 0))
hIsland = hIsland.add(rect(7.756246389183185e-09, 1.871530082527986e-09).transl(-1.1164709293111626e-07, -1.3459428339590849e-08, 0))
hIsland = hIsland.sub(rect(6.501000863490798e-09, -9.883177838020143e-10).transl(-3.823594732253754e-08, -4e-08, 0))
hIsland = hIsland.sub(rect(2.1747884766127028e-09, -3.3380435640944943e-09).transl(-9.189618248683416e-09, -4e-08, 0))
hIsland = hIsland.add(rect(7.429490702930424e-09, 8.83386848637787e-10).transl(1.8374056923602602e-08, -4e-08, 0))
hIsland = hIsland.sub(rect(9.012702723848903e-09, -4.50622645535629e-10).transl(6.011568666395774e-08, -3.99585913954841e-08, 0))
hIsland = hIsland.sub(rect(9.042034996428804e-09, -1.564370066036025e-09).transl(7.125901082630719e-08, -3.883795385611157e-08, 0))
hIsland = hIsland.sub(rect(8.319388571218738e-09, -8.339064344814801e-10).transl(-6.7520945167686105e-09, -4e-08, 0))
hIsland = hIsland.add(rect(7.877411737200526e-09, 7.295899706549657e-10).transl(-4.6196700417149245e-08, -4e-08, 0))
hIsland = hIsland.add(rect(4.955368092945133e-09, 1.0097831900833078e-09).transl(6.243086646336342e-08, -3.9852652956442196e-08, 0))
hIsland = hIsland.add(rect(4.118870660050738e-09, 7.713805155015886e-10).transl(4.0554144087860636e-08, -4e-08, 0))
hIsland = hIsland.sub(rect(7.104734936220526e-09, -2.4095769651155413e-09).transl(-5.934602013746041e-08, -3.9979380452699993e-08, 0))
hIsland = hIsland.add(rect(8.72403259011595e-09, 2.750603883949954e-09).transl(3.5501490432092046e-08, -4e-08, 0))
hIsland = hIsland.add(rect(5.316860902755659e-09, 1.504685483658803e-09).transl(-6.397114818624366e-08, -3.974588006932918e-08, 0))
hIsland = hIsland.sub(rect(2.5358126916040504e-09, -4.842230370313603e-10).transl(-1.09894088463095e-07, -1.647843469537046e-08, 0))
hIsland = hIsland.add(rect(2.8936189741947135e-09, 3.425188595835716e-09).transl(5.2285711091484594e-08, -4e-08, 0))
hIsland = hIsland.add(rect(9.272892719874062e-09, 1.1741208635374079e-09).transl(-2.2369811892101476e-08, -4e-08, 0))
hIsland = hIsland.sub(rect(3.907410934517264e-09, -3.0747528955445965e-10).transl(-5.360444247896936e-09, -4e-08, 0))
hIsland = hIsland.sub(rect(8.231152267472424e-09, -1.499243837726275e-09).transl(-8.161506217479453e-09, -4e-08, 0))
hIsland = hIsland.sub(rect(3.6413486579789123e-09, -6.142724441166185e-10).transl(1.6310212468599372e-08, -4e-08, 0))
hIsland = hIsland.sub(rect(9.991394110507834e-09, -1.1907873662683511e-09).transl(1.399092257791506e-08, -4e-08, 0))
hIsland = hIsland.sub(rect(4.299272146508216e-09, -3.735562888938931e-11).transl(2.8156649604292895e-08, -4e-08, 0))
hIsland = hIsland.add(rect(6.70197990304463e-09, 2.414885476038378e-09).transl(-6.511465676892042e-08, -3.964770075328442e-08, 0))
hIsland = hIsland.add(rect(6.121295962668263e-09, 2.8071595035725314e-10).transl(1.4503596555036337e-08, -4e-08, 0))
hIsland = hIsland.add(rect(4.843436002352491e-09, 5.208297404779406e-10).transl(-5.623448649140634e-08, -4e-08, 0))
hIsland = hIsland.sub(rect(6.575784793076392e-09, -9.19921197212427e-10).transl(-9.622449246822032e-08, -2.956860283903948e-08, 0))
hIsland = hIsland.sub(rect(2.0190306173350363e-09, -1.8473219326468623e-09).transl(-7.077384733620558e-08, -3.891957861288861e-08, 0))
hIsland = hIsland.add(rect(8.860144878165247e-09, 2.3560075923504666e-09).transl(6.172366580066833e-08, -3.9891941131851334e-08, 0))
hIsland = hIsland.sub(rect(3.8712142167032275e-09, -1.5108042851286485e-09).transl(-8.30853174189813e-08, -3.582197718982183e-08, 0))
hIsland = hIsland.add(rect(7.827258195326857e-09, 3.108799469147235e-11).transl(5.777949866180485e-10, -4e-08, 0))
hIsland = hIsland.sub(rect(5.839786838481107e-09, -1.1160418552150997e-09).transl(1.0502102014547806e-07, -2.2520256663869343e-08, 0))
hIsland = hIsland.add(rect(7.4154359661455396e-09, 2.1071846442464365e-09).transl(1.0787932054677483e-07, -1.928066308888441e-08, 0))
hIsland = hIsland.sub(rect(3.191016440370402e-09, -4.480067912182519e-09).transl(2.410833154575757e-08, -4e-08, 0))
hIsland = hIsland.add(rect(4.036757890288849e-09, 2.369715614051148e-09).transl(1.137553118476032e-07, -8.27767302052862e-09, 0))
hIsland = hIsland.sub(rect(9.255413586915027e-09, -7.470005677560388e-10).transl(1.0126693841187103e-07, -2.5942371283980214e-08, 0))
hIsland = hIsland.sub(rect(8.591491503055579e-09, -2.8956481884738046e-09).transl(2.4411953373325545e-08, -4e-08, 0))
hIsland = hIsland.sub(rect(2.123072449469242e-09, -5.150048524575763e-10).transl(9.421805801118568e-08, -3.078238636824417e-08, 0))
hIsland = hIsland.add(rect(2.0898618803510933e-09, 4.338646914719618e-09).transl(6.442349342376726e-08, -3.970897678970713e-08, 0))
hIsland = hIsland.add(rect(4.515627667537709e-09, 2.6083645199279097e-09).transl(2.2736161848990494e-08, -4e-08, 0))
hIsland = hIsland.add(rect(7.241895539915494e-09, 2.143995781793695e-09).transl(8.986480275399277e-08, -3.3061922853620385e-08, 0))
hIsland = hIsland.sub(rect(8.341340696334325e-09, -2.7826851637036056e-10).transl(8.26484258861831e-08, -3.597138405090572e-08, 0))
hIsland = hIsland.add(rect(3.81932602686277e-09, 1.7044094045992176e-09).transl(1.9155992501145945e-08, -4e-08, 0))
hIsland = hIsland.add(rect(8.709733918739154e-09, 1.7664327852772901e-09).transl(8.616632553755251e-08, -3.4674557598610954e-08, 0))
hIsland = hIsland.add(rect(3.944926677229393e-09, 5.0105824831725385e-09).transl(-4.950762701002738e-08, -4e-08, 0))
hIsland = hIsland.sub(rect(2.522165877609206e-09, -2.3839137675029944e-09).transl(-1.543548989582642e-08, -4e-08, 0))
hIsland = hIsland.add(rect(2.9142348435594788e-09, 4.12185970384958e-09).transl(3.3674030344830915e-08, -4e-08, 0))
hIsland = hIsland.add(rect(8.575652388415083e-09, 3.1087458146696254e-09).transl(-9.437869239445093e-09, -4e-08, 0))
hIsland = hIsland.add(rect(6.0214445035553505e-09, 2.3332527234630013e-09).transl(-7.874703705696884e-08, -3.7169011489026115e-08, 0))
hIsland = hIsland.add(rect(8.334991454511319e-09, 1.2107094308648382e-09).transl(1.5365917601722647e-08, -4e-08, 0))
hIsland = hIsland.add(rect(9.656669164757568e-09, 4.039075931547048e-09).transl(8.934541257712235e-08, -3.330510393723863e-08, 0))
hIsland = hIsland.add(rect(3.9763612315078055e-09, 1.9956890078446565e-09).transl(6.698382011560006e-08, -3.945217084502831e-08, 0))
hIsland = hIsland.add(rect(4.340559336948496e-09, 1.3805802157092725e-09).transl(7.686903112781196e-08, -3.766229410363048e-08, 0))
hIsland = hIsland.sub(rect(5.785478724123403e-09, -2.193104760135371e-09).transl(9.694991087145452e-09, -4e-08, 0))
hIsland = hIsland.sub(rect(9.761854681023946e-09, -1.5694724410452724e-10).transl(1.0063251849426715e-07, -2.6451581374872913e-08, 0))
hIsland = hIsland.add(rect(6.8685489933077295e-09, 2.2995128687592053e-09).transl(-5.7963274122448144e-08, -3.999870169288065e-08, 0))
hIsland = hIsland.sub(rect(6.7739064939341985e-09, -1.870882372614882e-09).transl(-2.8303245114232187e-08, -4e-08, 0))
hIsland = hIsland.sub(rect(7.56886005476306e-09, -7.163332406550177e-10).transl(-9.288773625743155e-08, -3.152738418355678e-08, 0))
hIsland = hIsland.sub(rect(2.0256727726869567e-09, -6.185227032215591e-11).transl(-7.697921672581203e-08, -3.763478335288174e-08, 0))
hIsland = hIsland.add(rect(8.19519683136662e-09, 3.052874283308606e-10).transl(8.326478714003296e-08, -3.5759673308099786e-08, 0))
hIsland = hIsland.sub(rect(9.554734142763509e-09, -1.5456274037651326e-09).transl(-4.5762480285380995e-08, -4e-08, 0))
hIsland = hIsland.sub(rect(6.105536526104635e-09, -6.393652145435143e-10).transl(1.6425710893640192e-08, -4e-08, 0))
hIsland = hIsland.add(rect(5.979811234470322e-09, 2.0928143589524878e-09).transl(5.922656656351934e-08, -3.998196322508951e-08, 0))
hIsland = hIsland.add(rect(8.067259827966603e-09, 2.5706271080564426e-10).transl(-7.422054884520731e-08, -3.827144989719807e-08, 0))
hIsland = hIsland.sub(rect(4.404368845505908e-09, -3.3888050071184124e-09).transl(-2.8439410691043743e-08, -4e-08, 0))
hIsland = hIsland.sub(rect(4.0777418874609145e-09, -2.808695496341763e-10).transl(-7.582638769259407e-09, -4e-08, 0))
hIsland = hIsland.add(rect(2.820948074736633e-09, 7.035085867465913e-10).transl(1.0594591355431532e-07, -2.1545499652076213e-08, 0))
hIsland = hIsland.sub(rect(6.301119008965753e-09, -3.4199426545504025e-09).transl(6.856812136745634e-09, -4e-08, 0))
hIsland = hIsland.sub(rect(9.831903644118314e-09, -5.365303039101984e-10).transl(8.613186361950637e-08, -3.468833405257707e-08, 0))
hIsland = hIsland.add(rect(3.626861099635934e-09, 4.3905322143459125e-09).transl(-8.767290986681394e-08, -3.4050347760557824e-08, 0))
hIsland = hIsland.sub(rect(7.54745326382232e-09, -7.994862734071352e-10).transl(6.992410110857007e-08, -3.90551032897048e-08, 0))
hIsland = hIsland.add(rect(4.07981438017209e-09, 8.52998087352947e-10).transl(-1.4011063788773183e-08, -4e-08, 0))
hIsland = hIsland.add(rect(5.624361207550176e-09, 1.2085956778834195e-09).transl(-1.826173945808295e-08, -4e-08, 0))
hIsland = hIsland.add(rect(6.584234241755039e-09, 4.710818132779057e-09).transl(-3.5402298607722076e-08, -4e-08, 0))
hIsland = hIsland.sub(rect(5.967875421024574e-09, -6.983209464980988e-10).transl(-1.054841582217057e-07, -2.203988750863743e-08, 0))
hIsland = hIsland.add(rect(6.731935952383784e-09, 1.5863350675823447e-09).transl(-8.569173196938281e-08, -3.486235205760927e-08, 0))
hIsland = hIsland.sub(rect(9.105013896792604e-09, -1.5365227210680594e-09).transl(-6.91707545395864e-08, -3.916740121165733e-08, 0))
hIsland = hIsland.add(rect(6.178075133335432e-09, 1.3261115266119957e-11).transl(-5.490802897534719e-08, -4e-08, 0))
hIsland = hIsland.add(rect(5.671763386804155e-09, 1.3325351250421795e-09).transl(-2.798652290518762e-08, -4e-08, 0))
hIsland = hIsland.sub(rect(9.651356422533933e-09, -1.1399984061585523e-10).transl(9.222581175169528e-08, -3.188158049603978e-08, 0))
hIsland = hIsland.sub(rect(4.947711832980878e-09, -1.5970365666620834e-10).transl(1.0441678679834072e-07, -2.312523110103192e-08, 0))
hIsland = hIsland.add(rect(9.801524608372652e-09, 4.333251156682629e-10).transl(-7.235715429718962e-08, -3.864167782720537e-08, 0))
hIsland = hIsland.add(rect(9.750439113832287e-09, 2.2723340786328575e-09).transl(-9.572443360327265e-08, -2.9881825373924226e-08, 0))
hIsland = hIsland.sub(rect(5.588295376868051e-09, -2.19056356573338e-09).transl(-7.024634017380279e-08, -3.900481982520041e-08, 0))
hIsland = hIsland.add(rect(9.215841273500909e-09, 2.927613323854818e-10).transl(8.077442619401699e-08, -3.6576694622430705e-08, 0))
hIsland = hIsland.add(rect(9.838019127050596e-09, 6.305909049135648e-11).transl(5.439842631806814e-08, 4e-08, 0))
hIsland = hIsland.sub(rect(4.384534429525305e-09, -2.822402317139516e-09).transl(3.9978624810764296e-08, 4e-08, 0))
hIsland = hIsland.sub(rect(9.70107527682437e-09, -4.7448892014057636e-09).transl(-9.536980407828264e-08, 3.009954349686037e-08, 0))
hIsland = hIsland.add(rect(6.663798937519772e-09, 1.4670736842347603e-09).transl(1.589672174645106e-08, 4e-08, 0))
hIsland = hIsland.sub(rect(5.277035079342973e-09, -3.168393914262914e-10).transl(-7.524791594475341e-08, 3.8046905157014315e-08, 0))
hIsland = hIsland.sub(rect(8.510243227961614e-09, -1.8427485520187531e-09).transl(5.1997282446663796e-08, 4e-08, 0))
hIsland = hIsland.add(rect(6.182335757628483e-09, 1.7152692262906247e-09).transl(1.1052561696026768e-07, 1.5469995971936218e-08, 0))
hIsland = hIsland.add(rect(7.94163562676645e-09, 1.2451742460116003e-09).transl(2.3944013708093273e-08, 4e-08, 0))
hIsland = hIsland.add(rect(2.7202247741713964e-09, 3.045593615461022e-09).transl(5.0391632280757045e-08, 4e-08, 0))
hIsland = hIsland.add(rect(7.455798867660392e-09, 4.035289361178819e-10).transl(6.496911250762842e-08, 3.966109652988802e-08, 0))
hIsland = hIsland.sub(rect(2.6442511113361552e-09, -3.3982211401593737e-09).transl(-1.0578089801678807e-07, 2.172401435299724e-08, 0))
hIsland = hIsland.add(rect(2.4443710225867186e-09, 1.4542056319096824e-09).transl(-3.5663667418955615e-08, 4e-08, 0))
hIsland = hIsland.add(rect(9.339961628051035e-09, 1.9233879371753302e-09).transl(-4.134716698661236e-09, 4e-08, 0))
hIsland = hIsland.add(rect(2.218148654538807e-09, 9.448421875811506e-10).transl(-1.1245978024178363e-07, 1.1757809155645031e-08, 0))
hIsland = hIsland.add(rect(3.4416686066461114e-09, 2.578090320998132e-09).transl(-1.026787338262563e-07, 2.4743439470499306e-08, 0))
hIsland = hIsland.sub(rect(5.598576320337158e-09, -2.2678718321487511e-10).transl(8.270890925637593e-08, 3.59508903873314e-08, 0))
hIsland = hIsland.sub(rect(6.88298751170899e-09, -1.113879966166347e-09).transl(8.692897152973811e-08, 3.436398966088453e-08, 0))
hIsland = hIsland.add(rect(6.741334655184838e-09, 8.599504941234676e-10).transl(-3.897949373450475e-08, 4e-08, 0))
hIsland = hIsland.sub(rect(8.043308743752718e-09, -2.7565196515990566e-09).transl(-4.839114933770702e-08, 4e-08, 0))
hIsland = hIsland.sub(rect(2.7890627635389874e-09, -4.0515951403706785e-09).transl(-1.4110800359919058e-08, 4e-08, 0))
hIsland = hIsland.sub(rect(2.4910766162116272e-09, -1.8164590792747731e-09).transl(-1.1109038494617597e-07, 1.4497642346498332e-08, 0))
hIsland = hIsland.add(rect(5.689198361309931e-09, 1.5599867209781659e-09).transl(8.871378656556554e-08, 3.359322663379763e-08, 0))
hIsland = hIsland.sub(rect(4.1214489288711934e-09, -1.3953270746880808e-09).transl(5.403182962131024e-08, 4e-08, 0))
hIsland = hIsland.sub(rect(8.976897838366427e-09, -1.0673001527359878e-09).transl(7.56037357786085e-08, 3.796568981909783e-08, 0))
hIsland = hIsland.add(rect(4.728531896397637e-09, 2.7011805320743908e-09).transl(7.498836216675583e-08, 3.8105024509138505e-08, 0))
hIsland = hIsland.add(rect(9.270014531433797e-09, 3.2646684323247025e-10).transl(-2.6308831741329942e-08, 4e-08, 0))
hIsland = hIsland.sub(rect(5.061710362805872e-09, -2.858989345940844e-10).transl(4.756358502705457e-08, 4e-08, 0))
hIsland = hIsland.add(rect(4.334957372009146e-09, 2.8507716233035834e-09).transl(8.069571284474023e-08, 3.6600884218761036e-08, 0))
[...]
hIsland = hIsland.add(rect(4.847450400790427e-09, 4.755965131547478e-09).transl(9.008409822026606e-08, 3.295751963190528e-08, 0))
hIsland = hIsland.sub(rect(3.0724695600129375e-09, -2.2309804697765867e-09).transl(6.683268388737571e-08, 3.946960877545154e-08, 0))
hIsland = hIsland.sub(rect(6.38309918450364e-09, -1.2651444892054334e-09).transl(-8.680457703896467e-08, 3.441539561104515e-08, 0))
hIsland = hIsland.add(rect(5.107085245704745e-09, 2.327112517786297e-09).transl(-8.926682772713806e-08, 3.3341402248907556e-08, 0))
hIsland = hIsland.add(rect(6.37500923367152e-09, 1.9133380806676304e-09).transl(1.5914257163450094e-08, 4e-08, 0))
hIsland = hIsland.add(rect(9.42051936034071e-09, 4.60908900534804e-09).transl(2.7924662804114527e-08, 4e-08, 0))
hIsland = hIsland.sub(rect(9.682074715293614e-09, -3.73926934932111e-09).transl(1.8917967424282824e-08, 4e-08, 0))
hIsland = hIsland.add(rect(5.022032737056903e-09, 1.8954588332237494e-09).transl(-4.523982485477334e-08, 4e-08, 0))
hIsland = hIsland.sub(rect(8.061536424139998e-09, -1.2516349764052555e-09).transl(-2.1630217122585714e-09, 4e-08, 0))
hIsland = hIsland.sub(rect(5.570498847770137e-09, -1.0188763915230428e-10).transl(-2.9273573989222437e-08, 4e-08, 0))
hIsland = hIsland.sub(rect(3.696171067262437e-09, -3.853829651882333e-10).transl(-1.0883275763674023e-07, 1.8022601139103692e-08, 0))
hIsland = hIsland.add(rect(9.718640751111611e-09, 1.3743131117630178e-09).transl(-5.114890415753575e-08, 4e-08, 0))
hIsland = hIsland.add(rect(7.855797657044313e-09, 4.283163694352021e-10).transl(5.250499402219995e-08, 4e-08, 0))
hIsland = hIsland.add(rect(9.562919513184927e-09, 2.0386188030784107e-09).transl(-7.164642630825407e-08, 3.877054129407247e-08, 0))
hIsland = hIsland.add(rect(2.301862725817343e-09, 3.022984274948646e-09).transl(1.5839240472983976e-09, 4e-08, 0))
hIsland = hIsland.sub(rect(2.5809399777432225e-09, -1.6790025322979022e-09).transl(-1.4589449724476041e-08, 4e-08, 0))
hIsland = hIsland.sub(rect(9.82771737800617e-09, -1.6469794491573516e-09).transl(6.582994983962488e-08, 3.957803556172345e-08, 0))
hIsland = hIsland.sub(rect(8.661304907332607e-09, -8.762860645604388e-10).transl(6.66361759347054e-08, 3.94918515693402e-08, 0))
hIsland = hIsland.add(rect(5.359961529262399e-09, 2.4852240822670294e-10).transl(7.976066861256598e-08, 3.688080309732691e-08, 0))
hIsland = hIsland.sub(rect(2.528723134382511e-09, -8.850363116709316e-10).transl(-8.844452111206111e-08, 3.3713565307698764e-08, 0))
hIsland = hIsland.sub(rect(9.960209748956084e-09, -1.8359757238022315e-09).transl(-8.463157422688297e-08, 3.5267079442261593e-08, 0))
hIsland = hIsland.sub(rect(3.3397890656460777e-09, -7.189461761433949e-10).transl(1.651421783388176e-08, 4e-08, 0))
hIsland = hIsland.add(rect(3.0038739082988465e-09, 3.760543902022164e-09).transl(2.98710060891583e-08, 4e-08, 0))
hIsland = hIsland.sub(rect(9.257850931156676e-09, -2.3518839907353964e-09).transl(-7.406761927368587e-08, 3.830362191115342e-08, 0))
hIsland = hIsland.sub(rect(7.282935833720208e-09, -8.156674189353867e-10).transl(2.8987656478724616e-08, 4e-08, 0))
hIsland = hIsland.add(rect(7.678680016800273e-09, 1.4335924501007615e-10).transl(9.253768600584765e-08, 3.171602205808782e-08, 0))
hIsland = hIsland.add(rect(5.317608806146957e-09, 2.6805537669768714e-09).transl(-1.1423553876410265e-07, 6.500855277980232e-09, 0))
hIsland = hIsland.add(rect(7.711448530087781e-09, 3.717298855301097e-10).transl(6.28109300537885e-08, 3.982901236699089e-08, 0))
hIsland = hIsland.add(rect(2.5796649269685485e-09, 1.028547317679885e-09).transl(7.026961326145422e-08, 3.900113580215952e-08, 0))
hIsland = hIsland.sub(rect(6.521411576935449e-09, -5.631195974543897e-09).transl(-6.294976038363155e-08, 3.98199356510874e-08, 0))
hIsland = hIsland.sub(rect(2.4253807708333986e-09, -9.020861495062486e-10).transl(1.4155501260800201e-09, 4e-08, 0))
hIsland = hIsland.add(rect(3.922796251004618e-09, 5.644695881965472e-10).transl(1.4219962146244393e-08, 4e-08, 0))
hIsland = hIsland.sub(rect(5.784874871589915e-09, -2.9409277356247944e-09).transl(9.942621216598276e-08, 2.7374091891912293e-08, 0))
hIsland = hIsland.sub(rect(6.4305644899426385e-09, -1.6325429357180864e-09).transl(9.097896149452386e-08, 3.252059807157552e-08, 0))
hIsland = hIsland.sub(rect(6.191970784706e-09, -1.135099708417152e-09).transl(-4.2272723160205865e-08, 4e-08, 0))
hIsland = hIsland.add(rect(6.731480929878026e-09, 2.2155593819415e-09).transl(3.150571506197967e-08, 4e-08, 0))
hIsland = hIsland.add(rect(8.605609286922196e-09, 1.065517019283484e-09).transl(-6.017833015627682e-08, 3.995658315221988e-08, 0))
hIsland = hIsland.add(rect(5.559076886651249e-09, 3.6946298340173097e-10).transl(-7.653792324911155e-08, 3.774390659169065e-08, 0))
hIsland = hIsland.add(rect(7.76175787354907e-09, 2.054095626730137e-09).transl(1.0714698811954931e-07, 2.0179028684616786e-08, 0))
hIsland = hIsland.sub(rect(7.692548678055553e-09, -4.6553731959851334e-10).transl(-1.1481689280816114e-07, 3.18968460771416e-09, 0))
hIsland = hIsland.sub(rect(5.293977034082229e-09, -2.105025481449105e-09).transl(5.5691911747701143e-08, 4e-08, 0))
hIsland = hIsland.sub(rect(5.1042255784955645e-09, -1.369566187431769e-10).transl(9.798573271359857e-08, 2.8404045158431827e-08, 0))
hIsland = hIsland.sub(rect(8.984363554885374e-09, -3.1371522775076873e-09).transl(-3.9147915723730596e-08, 4e-08, 0))
hIsland = hIsland.add(rect(2.88744298697309e-09, 7.947932340394422e-10).transl(-1.1367337547881745e-08, 4e-08, 0))
hIsland = hIsland.add(rect(9.23138509807981e-09, 2.84114701962118e-09).transl(6.58418797937141e-08, 3.95768195751745e-08, 0))
hIsland = hIsland.add(rect(3.2629964791046986e-09, 3.0425507476153196e-09).transl(-5.599620250740704e-08, 4e-08, 0))
hIsland = hIsland.add(rect(8.09512532357459e-09, 2.2191451377318203e-10).transl(1.9817415315617838e-10, 4e-08, 0))
hIsland = hIsland.sub(rect(4.9618535913387925e-09, -3.08524868156324e-11).transl(-2.8493103518066955e-08, 4e-08, 0))
hIsland = hIsland.sub(rect(4.150792617317328e-09, -7.785264796963289e-11).transl(-5.5130843244421474e-08, 4e-08, 0))
hIsland = hIsland.sub(rect(2.7267412217653243e-09, -4.593819409604658e-10).transl(-6.298671141294884e-08, 3.98174799759493e-08, 0))
hIsland = hIsland.sub(rect(8.93165298481977e-09, -2.6441406464315546e-09).transl(9.066095793054253e-08, 3.2677892450458363e-08, 0))
hIsland = hIsland.add(rect(9.317023741557543e-09, 5.0727863192544514e-11).transl(1.1520773143421483e-08, 4e-08, 0))
hIsland = hIsland.add(rect(8.181068901616777e-09, 7.601484087642346e-10).transl(-9.250356576621267e-08, 3.173424912477447e-08, 0))
hIsland = hIsland.add(rect(6.929948360171837e-09, 3.459864638790683e-09).transl(3.072879233159913e-08, 4e-08, 0))
hIsland = hIsland.add(rect(5.3678074682634385e-09, 2.4743907625825843e-09).transl(2.865401895634628e-08, 4e-08, 0))
hIsland = hIsland.add(rect(9.494531807727303e-09, 1.0052952489169534e-09).transl(-9.881374803342785e-08, 2.782107975322891e-08, 0))
hIsland = hIsland.sub(rect(3.2679858771102295e-09, -5.827858223646464e-11).transl(1.969792753078107e-08, 4e-08, 0))
hIsland = hIsland.sub(rect(7.784522494457941e-09, -9.926263277355971e-10).transl(2.4774149171406638e-08, 4e-08, 0))
hIsland = hIsland.sub(rect(4.328465366718609e-09, -3.243382189109923e-09).transl(-3.971988153265591e-08, 4e-08, 0))
hIsland = hIsland.sub(rect(2.719934624422634e-09, -8.157837178468056e-10).transl(-3.668124860743844e-08, 4e-08, 0))
hIsland = hIsland.add(rect(7.2108250271255135e-09, 1.1023734275919238e-09).transl(2.9382496179789616e-08, 4e-08, 0))
hIsland = hIsland.sub(rect(3.219709629950276e-09, -1.0678838700357362e-09).transl(-9.173163619606844e-08, 3.213916870571798e-08, 0))
hIsland = hIsland.add(rect(7.245486107704185e-09, 2.6439656874342528e-09).transl(-2.2301851839776415e-08, 4e-08, 0))
hIsland = hIsland.sub(rect(6.046269511427948e-09, -3.576578348771648e-09).transl(-8.654063711429237e-08, 3.452349676214951e-08, 0))
hIsland = hIsland.add(rect(9.986349507695423e-09, 2.697707011007586e-09).transl(1.4031465399954447e-08, 4e-08, 0))
hIsland = hIsland.add(rect(4.800444008143853e-09, 5.251240223341959e-10).transl(-3.783777039000103e-08, 4e-08, 0))
hIsland = hIsland.sub(rect(6.6438564512308005e-09, -1.320462166506858e-09).transl(-2.135729436135645e-08, 4e-08, 0))
hIsland = hIsland.add(rect(9.496904983533501e-09, 1.0154833869189798e-09).transl(-7.844312317136021e-08, 3.725238885549477e-08, 0))
hIsland = hIsland.add(rect(9.746408224009497e-09, 1.5909484539498642e-09).transl(-3.949574130439258e-08, 4e-08, 0))
hIsland = hIsland.sub(rect(8.488467205099828e-09, -1.2572999123207284e-09).transl(2.6738846153554483e-08, 4e-08, 0))
hIsland = hIsland.sub(rect(8.143104233345903e-09, -5.914793923195834e-10).transl(1.0311758978506878e-07, 2.4350663210614917e-08, 0))
hIsland = hIsland.add(rect(2.367223293974795e-09, 2.711184707790217e-10).transl(-8.285003185482443e-08, 3.5902836388986e-08, 0))
hIsland = hIsland.sub(rect(7.385015747784597e-09, -1.5399815160217437e-09).transl(6.53068761426478e-08, 3.962960568983442e-08, 0))
hIsland = hIsland.sub(rect(9.54945413166746e-09, -1.2696479134630485e-10).transl(-3.70896088508347e-08, 4e-08, 0))
hIsland = hIsland.sub(rect(7.363819882878389e-09, -2.801228368306551e-10).transl(-9.67704533386674e-08, 2.921806619987025e-08, 0))
hIsland = hIsland.sub(rect(6.053144583817309e-09, -1.068900502492073e-09).transl(5.979357986329298e-08, 3.9968165730188326e-08, 0))
hIsland = hIsland.sub(rect(8.625083527199713e-09, -2.2176472490554432e-10).transl(4.654646813442053e-08, 4e-08, 0))
hIsland = hIsland.add(rect(4.526453741173621e-09, 1.524722315873143e-09).transl(-8.704888372501552e-08, 3.4314156543214546e-08, 0))
hIsland = hIsland.sub(rect(9.390494181273814e-09, -3.97983641845543e-11).transl(-3.1673291251758844e-08, 4e-08, 0))
hIsland = hIsland.sub(rect(7.172709553561531e-09, -7.216548535773544e-10).transl(2.287058944426821e-08, 4e-08, 0))
hIsland = hIsland.sub(rect(8.174034076099822e-09, -3.0949451120049463e-09).transl(4.951658290705301e-08, 4e-08, 0))
hIsland = hIsland.sub(rect(5.4897745524374514e-09, -6.797283346632184e-10).transl(-9.209339223464133e-08, 3.195117040989171e-08, 0))
hIsland = hIsland.add(rect(2.0990603184202783e-09, 4.4224230080624904e-10).transl(7.793295078630788e-08, 3.738924659843539e-08, 0))
hIsland = hIsland.sub(rect(9.515097505865279e-09, -3.880346823248002e-09).transl(-1.1174675489234129e-07, 1.3263801059758882e-08, 0))
hIsland = hIsland.add(rect(6.7736105921828445e-09, 1.966733742438908e-09).transl(8.369773991050911e-08, 3.5607120962071543e-08, 0))
hIsland = hIsland.sub(rect(2.94977058054539e-09, -1.371906343689647e-09).transl(-1.5308699958578466e-08, 4e-08, 0))
hIsland = hIsland.add(rect(9.1244465740258e-09, 4.284022544504588e-10).transl(-9.01603910601815e-08, 3.29209543960018e-08, 0))
hIsland = hIsland.sub(rect(3.5886644676414303e-09, -9.826477064135379e-10).transl(-7.35124646452271e-08, 3.8417708430901476e-08, 0))
hIsland = hIsland.sub(rect(8.716547819289443e-09, -7.115395817871699e-10).transl(-8.738639750837459e-08, 3.4172409261545104e-08, 0))
hIsland = hIsland.sub(rect(5.540365556525981e-09, -2.8962962166238244e-09).transl(-6.3840152505781415e-09, 4e-08, 0))
hIsland = hIsland.sub(rect(2.966595621982437e-09, -2.1412803878427673e-09).transl(2.283037353645024e-08, 4e-08, 0))
hIsland = hIsland.sub(rect(6.416465365381935e-09, -8.345827611928603e-10).transl(-6.530875132122249e-08, 3.9629426902150685e-08, 0))
hIsland = hIsland.sub(rect(4.557446061436039e-09, -2.6093649386026674e-10).transl(-4.7271550182112583e-08, 4e-08, 0))
hIsland = hIsland.sub(rect(3.2210583040660153e-09, -9.82551675342543e-10).transl(-3.3897865389276533e-08, 4e-08, 0))
hIsland = hIsland.add(rect(8.513657046809167e-09, 2.4834970542720167e-09).transl(1.1480581324949208e-07, 3.2846105501136638e-09, 0))
hIsland = hIsland.sub(rect(9.986793731571119e-09, -3.304364199160768e-09).transl(-8.424596427058595e-08, 3.540933386449039e-08, 0))
hIsland = hIsland.sub(rect(9.986607791145107e-09, -3.4208348474116873e-09).transl(-4.630966983475739e-08, 4e-08, 0))
hIsland = hIsland.add(rect(7.461347179474633e-09, 2.0060578426476807e-10).transl(6.900019539431397e-08, 3.919180813840892e-08, 0))
hIsland = hIsland.sub(rect(4.6360276999644145e-09, -6.667314789329124e-10).transl(1.0000593930317048e-07, 2.6937958255174435e-08, 0))
hIsland = hIsland.add(rect(3.880919767507304e-09, 1.4339693651237505e-09).transl(-1.16994340908551e-08, 4e-08, 0))
hIsland = hIsland.sub(rect(7.380089879550427e-09, -5.427360934696194e-09).transl(4.134536725018001e-08, 4e-08, 0))
hIsland = hIsland.sub(rect(7.5675157156195e-09, -1.4897921886006368e-09).transl(1.905101524991771e-08, 4e-08, 0))
hIsland = hIsland.sub(rect(8.142952613112854e-09, -2.248942519328757e-09).transl(1.6336004675167192e-08, 4e-08, 0))
hIsland = hIsland.sub(rect(7.067025740686804e-09, -1.081624683307888e-09).transl(-6.640630809398253e-08, 3.9517254375347587e-08, 0))
hIsland = hIsland.add(rect(9.58836158170817e-09, 1.038269395887958e-09).transl(4.12011300263046e-09, 4e-08, 0))
hIsland = hIsland.sub(rect(9.363450713134024e-09, -5.681434929227435e-10).transl(3.503950420728969e-08, 4e-08, 0))
hIsland = hIsland.add(rect(2.308012319808019e-09, 3.846154306976115e-09).transl(-4.663151831219013e-08, 4e-08, 0))
hIsland = hIsland.sub(rect(6.448025268863515e-09, -8.850810077544171e-10).transl(1.1049245633691023e-07, 1.5524886434869503e-08, 0))
hIsland = hIsland.add(rect(5.216858480983173e-09, 2.1569381261567463e-09).transl(6.194591318337164e-08, 3.988025239929562e-08, 0))
hIsland = hIsland.sub(rect(4.452813618620433e-09, -2.1881144934113273e-09).transl(-1.7920947964742864e-08, 4e-08, 0))
hIsland = hIsland.sub(rect(7.799291556858802e-09, -2.7692651519759298e-09).transl(8.084532179830969e-08, 3.6554823607658616e-08, 0))
hIsland = hIsland.sub(rect(3.2085653920948636e-09, -1.5504901453929193e-09).transl(7.716486878356039e-08, 3.758803130572108e-08, 0))
hIsland = hIsland.add(rect(8.767429486650276e-09, 2.064534368112347e-09).transl(7.60973278613667e-08, 3.785005950712908e-08, 0))
hIsland = hIsland.sub(rect(8.555118841756485e-09, -1.0636319670872252e-09).transl(-2.4907654552815103e-08, 4e-08, 0))
hIsland = hIsland.sub(rect(2.6212723398288303e-09, -1.3865146547567549e-09).transl(-1.7946426967100705e-08, 4e-08, 0))
hIsland = hIsland.sub(rect(8.403829800946156e-09, -1.6945748755328706e-09).transl(9.775727313337421e-08, 2.8560753463841552e-08, 0))
hIsland = hIsland.sub(rect(2.4130306449732926e-09, -2.161320713030346e-09).transl(-1.0342862864900296e-07, 2.4066057250496478e-08, 0))
hIsland = hIsland.sub(rect(7.609375319613469e-09, -5.050374257185875e-10).transl(4.511708754647259e-08, 4e-08, 0))
hIsland = hIsland.add(rect(3.8137198827417164e-09, 6.262897701077013e-11).transl(-4.108228915335128e-08, 4e-08, 0))
hIsland = hIsland.sub(rect(2.388625289211308e-09, -2.9090027280778607e-10).transl(1.1366423780526066e-07, 8.571733152757057e-09, 0))
hIsland = hIsland.sub(rect(3.841632019290037e-09, -2.2506060484036662e-09).transl(-5.243748537457852e-08, 4e-08, 0))
hIsland = hIsland.sub(rect(4.3391760330114794e-09, -4.1066927691573444e-10).transl(8.400324145291142e-08, 3.5497544239378835e-08, 0))
hIsland = hIsland.add(rect(9.29994811627824e-09, 9.221259452299725e-10).transl(-6.075363432537488e-08, 3.993591153882854e-08, 0))
hIsland = hIsland.sub(rect(3.598790831092349e-09, -4.528235913417812e-11).transl(4.1404411988543857e-08, 4e-08, 0))
hIsland = hIsland.add(rect(5.458907846623769e-09, 4.4129200453292e-11).transl(-7.271569249601346e-08, 3.857410249291626e-08, 0))
hIsland = hIsland.add(rect(7.014015148841347e-09, 1.6874964953375693e-09).transl(-8.882245346990648e-08, 3.3544243295064034e-08, 0))
hIsland = hIsland.sub(rect(9.358332518139873e-09, -1.9794839859436627e-09).transl(7.176203528933584e-08, 3.8750038805953357e-08, 0))
hIsland = hIsland.sub(rect(9.759206431720475e-09, -3.66842238356581e-10).transl(5.668684415382108e-08, 4e-08, 0))
hIsland = hIsland.add(rect(5.188131919985608e-09, 3.276321580521587e-10).transl(8.877925118509151e-08, 3.356374636325952e-08, 0))
hIsland = hIsland.sub(rect(8.308538209811115e-09, -1.981468343822501e-09).transl(3.3254851327412146e-08, 4e-08, 0))
hIsland = hIsland.add(rect(2.7534150742991827e-09, 5.042370277179195e-10).transl(5.187270594178644e-08, 4e-08, 0))
hIsland = hIsland.add(rect(4.646972436704957e-09, 2.4352119923816675e-09).transl(-2.2250094204206952e-08, 4e-08, 0))
hIsland = hIsland.sub(rect(3.3579275539961656e-09, -1.1024954547456548e-09).transl(-2.634365941490606e-08, 4e-08, 0))
hIsland = hIsland.sub(rect(4.773882197926043e-09, -5.547682881169018e-09).transl(-1.3857713734314377e-08, 4e-08, 0))
hIsland = hIsland.sub(rect(2.123283410025253e-09, -1.0746258490601646e-09).transl(-6.454399702540371e-08, 3.9698719323192664e-08, 0))
hIsland = hIsland.add(rect(3.9627136267919435e-09, 1.5338456958347141e-09).transl(4.9019509718224426e-08, 4e-08, 0))
hIsland = hIsland.add(rect(3.612890545290511e-09, 2.2861249541095916e-09).transl(-8.869788513108876e-08, 3.360037420511682e-08, 0))
hIsland = hIsland.sub(rect(6.446421438282074e-09, -1.1517460996265315e-09).transl(1.1489647486215939e-08, 4e-08, 0))
hIsland = hIsland.sub(rect(8.072542417648716e-09, -4.675478789994506e-10).transl(-3.3953759288980166e-08, 4e-08, 0))
hIsland = hIsland.sub(rect(8.294880115494227e-09, -3.4863109710408547e-09).transl(-9.429583457922754e-08, 3.073740966680549e-08, 0))
hIsland = hIsland.sub(rect(9.64802846079816e-09, -3.4155736394250794e-09).transl(9.897198955635886e-08, 2.770691072279657e-08, 0))
hIsland = hIsland.sub(rect(2.512907906026552e-09, -1.0105594924286274e-10).transl(-3.6687439262866915e-08, 4e-08, 0))
hIsland = hIsland.sub(rect(3.6568222541164243e-09, -8.396674854832556e-10).transl(-4.5224191086565774e-08, 4e-08, 0))
hIsland = hIsland.add(rect(3.252797999769623e-09, 1.9838509894621126e-09).transl(-6.156886973878729e-08, 3.989972640762802e-08, 0))
hIsland = hIsland.add(rect(7.168461788713142e-09, 6.885302178696392e-10).transl(3.471358906953526e-08, 4e-08, 0))
hIsland = hIsland.add(rect(4.1271624269368744e-09, 2.5882996045049353e-09).transl(7.662086967742827e-08, 3.772361030677295e-08, 0))
hIsland = hIsland.sub(rect(4.53777056962893e-09, -1.7261448235968106e-09).transl(-5.640644809809275e-08, 4e-08, 0))
hIsland = hIsland.sub(rect(7.674880833922364e-09, -2.2491256412413703e-09).transl(-2.8894235586463007e-08, 4e-08, 0))
hIsland = hIsland.sub(rect(2.5246350791619884e-09, -3.3528674435452308e-09).transl(-1.0080122046380363e-07, 2.6317858636709272e-08, 0))
hIsland = hIsland.sub(rect(7.777016210182814e-09, -7.903603880467577e-10).transl(-5.4736539743265645e-08, 4e-08, 0))
hIsland = hIsland.sub(rect(3.6584675452132346e-09, -1.3571568565121402e-09).transl(6.862693598938808e-08, 3.924391688607713e-08, 0))
hIsland = hIsland.sub(rect(7.863048347090287e-09, -1.4025207172655559e-09).transl(-2.4500500653088755e-08, 4e-08, 0))
hIsland = hIsland.sub(rect(7.363957060445212e-09, -3.2729814757942704e-10).transl(-2.2307389095462397e-08, 4e-08, 0))
hIsland = hIsland.sub(rect(8.244749996192602e-09, -7.586817621197098e-10).transl(4.556223453527233e-08, 4e-08, 0))
hIsland = hIsland.add(rect(9.442838469804457e-09, 1.1206956987099483e-09).transl(2.819622809740739e-08, 4e-08, 0))
vIsland = hIsland.rotz(pi / 2)
vIslands = vIslands.add(vIsland.transl(0, -a/2, 0))
DefRegion(1, hIslands)
DefRegion(2, vIslands)
TableAdd(m_full.Region(1))
TableAdd(m_full.Region(2))
setgeom(hIslands.add(vIslands))
save(geom)
r2o2 := sqrt(2) / 2
m = RandomMagSeed(4)
B_ext = vector(Bmax*r2o2, Bmax*r2o2, 0)
relax()
minimize()
for B := Bmax; B >= -Bmax; B -= Bstep {
	B_ext = vector(B*r2o2, B*r2o2, 0)
	minimize()
	tablesave()
}
//********************************************************************//
//Please cite the following references, relevant for your simulation. //
//See bibtex file in output folder for justification.                 //
//********************************************************************//
//   * Vansteenkiste et al., AIP Adv. 4, 107133 (2014).
//   * Exl et al., J. Appl. Phys. 115, 17D118 (2014).
