//mumax 3.10 [windows_amd64 go1.11.6(gc) CUDA-11.0]
//GPU info: NVIDIA GeForce RTX 3090(24575MB), CUDA Driver 12.1, cc=8.6, using cc=80 PTX
//(c) Arne Vansteenkiste, Dynamat LAB, Ghent University, Belgium
//This is free software without any warranty. See license.txt
//********************************************************************//
//  If you use mumax in any work or publication,                      //
//  we kindly ask you to cite the references in references.bib        //
//********************************************************************//
//output directory: r1;p0.1;a3.4000000000000003e-07;l2.3000000000000002e-07;s5.out/
randSeed(5)
ThermSeed(5)
resolution := 2e-09
zResolution := 5e-09
a := 3.4000000000000003e-07
gridSize := 340
gridDepth := 5
SetCellsize(resolution, resolution, zResolution)
SetGridsize(gridSize, gridSize, gridDepth)
SetPBC(16, 16, 0)
//resizing...
Msat = 700e3
Aex = 13e-12
alpha = 0.2
Bmax := 0.1
Bstep := Bmax / 500.0
TableAdd(B_ext)
TableAdd(m_full)
islandWidth := 8e-08
islandLength := 2.3000000000000002e-07
ellipseConstant := 1.1500000000000002e-08
hIsland := Universe().Inverse()
vIsland := Universe().Inverse()
vIslands := Universe().Inverse()
hIslands := Universe().Inverse()
hIsland = rect(islandLength-2*ellipseConstant, islandWidth)
hIsland = hIsland.add(ellipse(ellipseConstant*2, islandWidth).transl(islandLength/2-ellipseConstant, 0, 0))
hIsland = hIsland.add(ellipse(ellipseConstant*2, islandWidth).transl(-islandLength/2+ellipseConstant, 0, 0))
hIsland = hIsland.add(rect(5.9813283858156015e-09, 2.0204349987461135e-09).transl(-1.0378365827239009e-07, -3.99878299799377e-08, 0))
hIsland = hIsland.sub(rect(4.375841066984167e-09, -5.141368086177664e-11).transl(8.532683138501745e-08, -4e-08, 0))
hIsland = hIsland.add(rect(9.376910301858372e-09, 4.186966327724059e-09).transl(5.50809621119658e-08, -4e-08, 0))
hIsland = hIsland.add(rect(5.721495024658981e-09, 2.5267409681269143e-09).transl(1.411764548917945e-08, -4e-08, 0))
hIsland = hIsland.sub(rect(9.943736919781376e-09, -3.228320175230851e-11).transl(6.614113425017602e-08, -4e-08, 0))
hIsland = hIsland.sub(rect(9.477400629907775e-09, -7.006050713956832e-10).transl(-8.410605443303737e-08, -4e-08, 0))
hIsland = hIsland.add(rect(8.48692512390175e-09, 4.51472956743809e-09).transl(5.4357807364964214e-08, -4e-08, 0))
hIsland = hIsland.add(rect(4.163260635025184e-09, 2.689345981804767e-09).transl(-1.0621491554231767e-07, -3.886934867724249e-08, 0))
hIsland = hIsland.sub(rect(9.110478233390638e-09, -8.776446537403333e-10).transl(-5.6140121774346854e-08, -4e-08, 0))
hIsland = hIsland.sub(rect(8.045747330097314e-09, -1.0581703360527637e-09).transl(-2.692118404623152e-09, -4e-08, 0))
hIsland = hIsland.sub(rect(2.385916665657753e-09, -2.132055048638174e-09).transl(-1.0593183907476709e-07, -3.9095429167619576e-08, 0))
hIsland = hIsland.sub(rect(4.362339513671598e-09, -3.645190553088289e-10).transl(4.528860953220553e-08, -4e-08, 0))
hIsland = hIsland.sub(rect(9.338509251988665e-09, -1.590596396321763e-09).transl(-8.763646676602354e-08, -4e-08, 0))
hIsland = hIsland.add(rect(8.78034639154566e-09, 1.7032596259578611e-09).transl(-2.3820767451433635e-08, -4e-08, 0))
hIsland = hIsland.add(rect(4.131744356596408e-09, 1.6842296287645107e-09).transl(-6.960977827483163e-08, -4e-08, 0))
hIsland = hIsland.sub(rect(8.426826405093824e-09, -2.645709766900831e-09).transl(-6.065289880513992e-08, -4e-08, 0))
hIsland = hIsland.add(rect(5.719653557051414e-09, 4.506570154222915e-10).transl(-1.3581904861061803e-08, -4e-08, 0))
hIsland = hIsland.add(rect(3.561048255437557e-09, 1.3678956019487222e-09).transl(-3.411022535738389e-08, -4e-08, 0))
hIsland = hIsland.add(rect(6.68245702460821e-09, 1.2249153777867627e-09).transl(-3.049925816934183e-08, -4e-08, 0))
hIsland = hIsland.add(rect(7.53700671593869e-09, 3.955120688901021e-11).transl(8.481501478173188e-08, -4e-08, 0))
hIsland = hIsland.sub(rect(4.4630568708471186e-09, -7.748259238452334e-10).transl(-5.876864183525321e-08, -4e-08, 0))
hIsland = hIsland.add(rect(5.164445340164959e-09, 1.224708895219192e-09).transl(-1.1256203880840927e-07, -2.4626836794008976e-08, 0))
hIsland = hIsland.sub(rect(9.173693049022189e-09, -1.3311745663356848e-09).transl(-3.845005201374048e-08, -4e-08, 0))
hIsland = hIsland.sub(rect(5.577650829613595e-09, -7.080232257120251e-10).transl(-1.1384235570919261e-07, -1.7490388484543835e-08, 0))
hIsland = hIsland.sub(rect(2.321463843273059e-09, -6.2915913741196145e-09).transl(3.523446290176344e-08, -4e-08, 0))
hIsland = hIsland.add(rect(6.119144880310913e-09, 1.6329604066494364e-09).transl(-3.9052685820120085e-09, -4e-08, 0))
hIsland = hIsland.sub(rect(6.946711520885089e-09, -3.0208146156884915e-10).transl(1.9586342909330577e-08, -4e-08, 0))
hIsland = hIsland.sub(rect(5.307511637595641e-09, -3.529952932738763e-09).transl(-8.266071218489606e-08, -4e-08, 0))
hIsland = hIsland.add(rect(6.320817505485956e-09, 4.330997296679544e-09).transl(3.337320869923984e-08, -4e-08, 0))
hIsland = hIsland.sub(rect(5.2492209533706655e-09, -1.99684192980091e-09).transl(-1.5764435710657424e-08, -4e-08, 0))
hIsland = hIsland.sub(rect(6.551713581989384e-09, -1.4602780589544748e-09).transl(-1.0198479494531479e-07, -4e-08, 0))
hIsland = hIsland.sub(rect(2.035736441183891e-09, -1.1753370296788544e-09).transl(7.006866104081537e-08, -4e-08, 0))
hIsland = hIsland.sub(rect(7.598154592059739e-09, -1.6450905673708304e-09).transl(-8.317808574198659e-08, -4e-08, 0))
hIsland = hIsland.sub(rect(6.532636085107817e-09, -1.8484655399683344e-09).transl(1.0987315964243308e-07, -3.329566669413878e-08, 0))
hIsland = hIsland.add(rect(7.886792167584171e-09, 2.926597187399415e-09).transl(-1.0449798078275982e-07, -3.984909672981479e-08, 0))
hIsland = hIsland.add(rect(7.4284410685707536e-09, 2.95185516458038e-10).transl(7.282689902183082e-08, -4e-08, 0))
hIsland = hIsland.add(rect(5.688661742126246e-09, 3.542613774589571e-09).transl(-9.597345166746917e-08, -4e-08, 0))
hIsland = hIsland.sub(rect(9.484751587651471e-09, -1.3223833642595544e-09).transl(-5.832279399179513e-08, -4e-08, 0))
hIsland = hIsland.add(rect(2.1003357948347494e-09, 1.019090325769089e-09).transl(-4.4131328243965075e-08, -4e-08, 0))
hIsland = hIsland.sub(rect(3.4903550862263696e-09, -7.347290889687969e-10).transl(1.3786939414984953e-08, -4e-08, 0))
hIsland = hIsland.sub(rect(3.081219119350782e-09, -4.777295260657933e-10).transl(1.1195205827826284e-07, -2.712434956523937e-08, 0))
hIsland = hIsland.sub(rect(3.617148105084052e-09, -3.9883753556046015e-09).transl(1.0675574023539315e-07, -3.836352324213128e-08, 0))
hIsland = hIsland.sub(rect(7.111248689519114e-09, -1.0656902770043219e-09).transl(1.0111161120124683e-08, -4e-08, 0))
hIsland = hIsland.add(rect(4.956335652569726e-09, 1.4132820449930296e-09).transl(-2.7587122449384767e-08, -4e-08, 0))
hIsland = hIsland.add(rect(9.927118805543285e-09, 2.0641058907732925e-10).transl(-1.7449375159306565e-09, -4e-08, 0))
hIsland = hIsland.sub(rect(8.921095228173841e-09, -2.728682608198787e-10).transl(-4.5063927658963825e-09, -4e-08, 0))
hIsland = hIsland.add(rect(8.906460015190801e-09, 1.632186113119887e-09).transl(4.241110365524446e-08, -4e-08, 0))
hIsland = hIsland.sub(rect(9.439509707749562e-09, -2.1625323881562792e-10).transl(-9.386752713699908e-08, -4e-08, 0))
hIsland = hIsland.sub(rect(4.9214082712537765e-09, -1.602664441021595e-09).transl(5.217573970878667e-08, -4e-08, 0))
hIsland = hIsland.sub(rect(7.534507301645756e-09, -1.5064980882480508e-09).transl(1.5080776683231793e-08, -4e-08, 0))
hIsland = hIsland.sub(rect(8.670453975908153e-09, -2.1258249691015028e-09).transl(6.514692737270373e-08, -4e-08, 0))
hIsland = hIsland.add(rect(2.767602975453941e-09, 1.183646654526821e-09).transl(-8.627939083364459e-08, -4e-08, 0))
hIsland = hIsland.sub(rect(7.9019108628969e-09, -1.927883373014578e-09).transl(1.1341316230246074e-07, -2.027537101194311e-08, 0))
hIsland = hIsland.add(rect(8.008507968362459e-09, 1.0583962862378537e-09).transl(-6.036040006658321e-08, -4e-08, 0))
hIsland = hIsland.add(rect(7.989823123622024e-09, 1.6215284948733642e-10).transl(-6.313477832098183e-08, -4e-08, 0))
hIsland = hIsland.add(rect(5.7561015073530695e-09, 6.733684359963666e-10).transl(-5.305949941005837e-08, -4e-08, 0))
hIsland = hIsland.sub(rect(4.132622411083296e-09, -1.2218608376730043e-10).transl(7.618579254453094e-08, -4e-08, 0))
hIsland = hIsland.sub(rect(2.5350901462831043e-09, -1.363403873747205e-09).transl(-8.297109761314602e-08, -4e-08, 0))
hIsland = hIsland.add(rect(5.399959004346285e-09, 1.6637987705860234e-09).transl(-8.160134682292202e-08, -4e-08, 0))
hIsland = hIsland.sub(rect(6.448078250993218e-09, -1.3040296484973931e-09).transl(5.6123247182577953e-08, -4e-08, 0))
hIsland = hIsland.sub(rect(3.3488580383124084e-09, -2.436888131432889e-09).transl(4.1059351329359974e-08, -4e-08, 0))
hIsland = hIsland.sub(rect(4.358273166714278e-09, -5.980449109925472e-11).transl(-5.968363475931108e-09, -4e-08, 0))
hIsland = hIsland.sub(rect(3.4854704559998314e-09, -8.240109450114421e-10).transl(-1.0174923615235292e-07, -4e-08, 0))
hIsland = hIsland.add(rect(4.685582914205757e-09, 3.914041763403581e-09).transl(-9.571423430097331e-08, -4e-08, 0))
hIsland = hIsland.add(rect(9.152004071817829e-09, 2.6027012027268965e-09).transl(7.229887957492601e-08, -4e-08, 0))
hIsland = hIsland.add(rect(7.155207864487921e-09, 2.643436636035844e-10).transl(-3.878912900403218e-08, -4e-08, 0))
hIsland = hIsland.add(rect(2.0414750281422142e-09, 1.6836246386304855e-09).transl(2.5343427645185636e-08, -4e-08, 0))
hIsland = hIsland.sub(rect(4.472187961785341e-09, -4.392208934967214e-10).transl(3.7977327824451464e-08, -4e-08, 0))
hIsland = hIsland.sub(rect(7.237620507990218e-09, -1.126601908293426e-09).transl(8.429143733836832e-08, -4e-08, 0))
hIsland = hIsland.add(rect(4.86120295901216e-09, 1.3189859534017054e-09).transl(-1.4570573056527662e-08, -4e-08, 0))
hIsland = hIsland.add(rect(5.4706562488909736e-09, 2.942228616927018e-09).transl(-1.0015254424255057e-07, -4e-08, 0))
hIsland = hIsland.add(rect(6.193997494226369e-09, 1.3183236470272762e-09).transl(-7.725221438209512e-08, -4e-08, 0))
hIsland = hIsland.sub(rect(9.926172652950201e-09, -3.1908541632676025e-10).transl(1.1235837445789231e-08, -4e-08, 0))
hIsland = hIsland.add(rect(3.2620140345367138e-09, 2.004064830508703e-09).transl(-1.941198198769869e-08, -4e-08, 0))
hIsland = hIsland.add(rect(3.095772446647434e-09, 4.208708594874818e-10).transl(3.6283801308597742e-09, -4e-08, 0))
hIsland = hIsland.sub(rect(4.8344024064007655e-09, -8.631637637504192e-10).transl(-1.0973726175032474e-07, -3.360557445124384e-08, 0))
hIsland = hIsland.sub(rect(8.44438936674461e-09, -5.005320363379362e-10).transl(4.471528816762438e-08, -4e-08, 0))
hIsland = hIsland.add(rect(2.2260142280709287e-09, 7.607496583892349e-10).transl(-1.6111541710758483e-08, -4e-08, 0))
hIsland = hIsland.add(rect(8.079232500947193e-09, 5.213808404433354e-10).transl(8.847785735334736e-08, -4e-08, 0))
hIsland = hIsland.add(rect(6.862322876797917e-09, 1.0650383692511865e-09).transl(-2.8797960998099915e-08, -4e-08, 0))
hIsland = hIsland.add(rect(9.954966828255143e-09, 5.129376839049863e-10).transl(-7.682204406462634e-08, -4e-08, 0))
hIsland = hIsland.sub(rect(2.4310130718083675e-09, -8.806778363675439e-10).transl(-6.829122643522947e-08, -4e-08, 0))
hIsland = hIsland.sub(rect(4.088400657887809e-09, -2.1535671661825317e-09).transl(-8.45050897013822e-08, -4e-08, 0))
hIsland = hIsland.sub(rect(6.197167521264146e-09, -1.6859647276770035e-09).transl(-1.0071166889924053e-07, -4e-08, 0))
hIsland = hIsland.add(rect(7.054814640290569e-09, 2.5191940411982076e-09).transl(3.1727669352724817e-09, -4e-08, 0))
hIsland = hIsland.add(rect(5.840219471814331e-09, 3.1210222475984835e-10).transl(-4.646638112620772e-09, -4e-08, 0))
hIsland = hIsland.sub(rect(6.691507943985905e-09, -1.190910858775728e-09).transl(-1.0426835435829155e-07, -3.991061947059531e-08, 0))
hIsland = hIsland.sub(rect(2.8898001415343364e-09, -1.0621692249515525e-09).transl(-4.88382478000842e-08, -4e-08, 0))
hIsland = hIsland.add(rect(6.7698030377825734e-09, 1.2721435029300435e-09).transl(4.821276957795643e-08, -4e-08, 0))
hIsland = hIsland.sub(rect(7.077350831046378e-09, -1.3608968514460436e-09).transl(-7.141746131600253e-08, -4e-08, 0))
hIsland = hIsland.add(rect(9.120437579271948e-09, 2.0020232904518466e-09).transl(-4.9180919405524904e-08, -4e-08, 0))
hIsland = hIsland.sub(rect(8.26066199089165e-09, -2.51556946916491e-09).transl(7.460269351059768e-08, -4e-08, 0))
hIsland = hIsland.sub(rect(4.984893933834764e-09, -1.4398948394100557e-09).transl(-8.774808517027209e-08, -4e-08, 0))
hIsland = hIsland.add(rect(2.0356100592459426e-09, 4.872345729844207e-10).transl(2.2018168930909068e-08, -4e-08, 0))
hIsland = hIsland.sub(rect(6.525956453333662e-09, -8.020702832643578e-10).transl(-4.629291417019013e-08, -4e-08, 0))
hIsland = hIsland.sub(rect(4.859413504139384e-09, -1.1230599888643755e-09).transl(-1.2657175410456964e-08, -4e-08, 0))
hIsland = hIsland.add(rect(3.13253922744578e-09, 1.5841572269423443e-09).transl(2.0333537565986002e-08, -4e-08, 0))
hIsland = hIsland.add(rect(5.767838383326565e-09, 2.8182166027533277e-10).transl(-1.5630412204134835e-08, -4e-08, 0))
hIsland = hIsland.sub(rect(5.5553012346376555e-09, -3.926400502932091e-09).transl(-4.670824896608439e-08, -4e-08, 0))
hIsland = hIsland.sub(rect(4.961694376179849e-09, -8.043228028004017e-10).transl(-2.0519892449519425e-08, -4e-08, 0))
hIsland = hIsland.sub(rect(3.993107040095694e-09, -3.732463926880812e-10).transl(7.271260907379431e-08, -4e-08, 0))
hIsland = hIsland.add(rect(2.8549735731740046e-09, 1.0253852318734923e-09).transl(-2.1704393424174304e-08, -4e-08, 0))
hIsland = hIsland.add(rect(5.357524735455937e-09, 1.9264904559961696e-09).transl(5.0134799566717535e-08, -4e-08, 0))
hIsland = hIsland.sub(rect(3.2438135336883446e-09, -5.7028556641110785e-09).transl(-2.9333189778748472e-08, -4e-08, 0))
hIsland = hIsland.sub(rect(3.1598913678192794e-09, -9.20236818764955e-10).transl(-7.286370193893086e-08, -4e-08, 0))
hIsland = hIsland.add(rect(9.464328781497646e-09, 1.7222079400735894e-09).transl(1.0717042925687676e-07, -3.790792930329584e-08, 0))
hIsland = hIsland.add(rect(5.203823352024409e-09, 6.873643092703414e-10).transl(-1.0745772736625449e-07, -3.7556584208353836e-08, 0))
hIsland = hIsland.sub(rect(9.537443264054005e-09, -1.2381398359788893e-09).transl(-8.295289978829618e-08, -4e-08, 0))
hIsland = hIsland.sub(rect(9.840891815925304e-09, -3.242080030091e-09).transl(1.2550786753271147e-08, -4e-08, 0))
hIsland = hIsland.sub(rect(5.650167905805083e-09, -3.0946283563441015e-10).transl(-1.0333381907704355e-07, -4e-08, 0))
hIsland = hIsland.sub(rect(9.848500117467736e-09, -9.986896135224764e-11).transl(-1.6385838548175497e-08, -4e-08, 0))
hIsland = hIsland.add(rect(2.3575932615090222e-09, 6.529532535097512e-10).transl(1.7659256122278353e-08, -4e-08, 0))
hIsland = hIsland.add(rect(7.468391479272613e-09, 8.61862011979252e-10).transl(6.40293568197768e-08, -4e-08, 0))
hIsland = hIsland.sub(rect(2.3063341623831886e-09, -1.8548875521708154e-09).transl(-7.329513622518744e-08, -4e-08, 0))
hIsland = hIsland.sub(rect(4.544058456127332e-09, -2.452097735303054e-09).transl(1.0339025338573734e-07, -4e-08, 0))
hIsland = hIsland.add(rect(8.060345948924236e-09, 1.187209620759604e-09).transl(-6.403545018198442e-08, -4e-08, 0))
hIsland = hIsland.sub(rect(8.008565351854152e-09, -4.401639937816729e-10).transl(-1.7992151487005893e-08, -4e-08, 0))
hIsland = hIsland.add(rect(8.917632086708448e-09, 8.56346720654761e-10).transl(-3.374510263394327e-08, -4e-08, 0))
hIsland = hIsland.add(rect(5.090332532604723e-09, 1.504083652501844e-09).transl(9.52160393152274e-08, -4e-08, 0))
hIsland = hIsland.sub(rect(3.085250084046544e-09, -1.2428791558452715e-09).transl(-8.726006379087976e-08, -4e-08, 0))
hIsland = hIsland.add(rect(6.634835727038746e-09, 1.891548222133072e-09).transl(1.5904036162651217e-08, -4e-08, 0))
hIsland = hIsland.sub(rect(9.91712526588917e-09, -5.440342868485501e-09).transl(-5.0950355613027026e-08, -4e-08, 0))
hIsland = hIsland.add(rect(2.3276097633123734e-09, 7.132500579903262e-10).transl(2.4347866109932294e-08, -4e-08, 0))
hIsland = hIsland.add(rect(3.047619808496194e-09, 2.655952974236639e-09).transl(-5.512845659496304e-10, -4e-08, 0))
hIsland = hIsland.sub(rect(2.290671543475244e-09, -8.830946291724884e-10).transl(-1.046576898308426e-07, -3.97968002065941e-08, 0))
hIsland = hIsland.sub(rect(2.987486628502567e-09, -1.682394012370666e-09).transl(-2.8731458302656507e-09, -4e-08, 0))
hIsland = hIsland.sub(rect(8.564425992732237e-09, -9.358655377154578e-10).transl(3.889344938794672e-08, -4e-08, 0))
hIsland = hIsland.sub(rect(8.672150884358547e-09, -1.4181322255441155e-09).transl(-4.873616206853083e-08, -4e-08, 0))
hIsland = hIsland.add(rect(3.5436260440832793e-09, 1.9546411964911028e-10).transl(7.160238451242896e-08, -4e-08, 0))
hIsland = hIsland.sub(rect(4.0262612893017825e-09, -4.014681556583785e-09).transl(-4.985782432769004e-08, -4e-08, 0))
hIsland = hIsland.sub(rect(4.260755588609123e-09, -1.361782595069376e-10).transl(-6.892414696981256e-08, -4e-08, 0))
hIsland = hIsland.add(rect(9.469717982730147e-09, 1.9009706283134276e-09).transl(-3.5359705927370114e-08, -4e-08, 0))
hIsland = hIsland.sub(rect(8.015071783639475e-09, -2.96019740074728e-09).transl(-7.51824041774286e-08, -4e-08, 0))
hIsland = hIsland.add(rect(5.6483194069117066e-09, 3.0226381950977146e-09).transl(-3.614296509254527e-08, -4e-08, 0))
hIsland = hIsland.add(rect(8.173095233112275e-09, 1.2405484766487792e-10).transl(-6.442789018537033e-08, -4e-08, 0))
hIsland = hIsland.add(rect(3.365726754693527e-09, 1.02867723161286e-09).transl(-4.468205090995135e-08, -4e-08, 0))
hIsland = hIsland.sub(rect(8.802890014957282e-09, -1.0102337345216052e-09).transl(1.944085046506244e-08, -4e-08, 0))
hIsland = hIsland.add(rect(3.3236995081203145e-09, 3.858550524156898e-09).transl(-1.1432281746980775e-07, -1.3523513157596988e-08, 0))
hIsland = hIsland.add(rect(7.674634803190343e-09, 1.2602260985853509e-09).transl(1.1009348592840003e-07, -3.277251710654167e-08, 0))
hIsland = hIsland.add(rect(7.751196760524341e-09, 6.069093628660271e-10).transl(-5.940450507921144e-08, -4e-08, 0))
hIsland = hIsland.sub(rect(5.376137706868723e-09, -4.729106744003351e-10).transl(-3.152559544818685e-08, -4e-08, 0))
hIsland = hIsland.sub(rect(6.9684701943242565e-09, -1.014366518919591e-09).transl(9.32570042593749e-08, -4e-08, 0))
hIsland = hIsland.sub(rect(5.6356126521013404e-09, -3.9709353162167806e-10).transl(-1.2265298172713558e-08, -4e-08, 0))
hIsland = hIsland.sub(rect(9.487130712413345e-09, -2.9192083606110967e-09).transl(6.904337413879619e-09, -4e-08, 0))
hIsland = hIsland.sub(rect(3.863269104354798e-09, -1.5485257490613092e-09).transl(-6.517313573747068e-08, -4e-08, 0))
hIsland = hIsland.add(rect(7.1837675880119456e-09, 2.633477142274805e-09).transl(-2.0030776334507787e-08, -4e-08, 0))
hIsland = hIsland.sub(rect(7.2691487863935885e-09, -4.747231043223363e-10).transl(-2.8488932876070033e-09, -4e-08, 0))
hIsland = hIsland.add(rect(4.30461309144185e-09, 1.0396519510174423e-10).transl(-5.654058253670525e-08, -4e-08, 0))
hIsland = hIsland.sub(rect(5.6501775801938175e-09, -1.893919395542739e-09).transl(-6.970815660537451e-08, -4e-08, 0))
hIsland = hIsland.sub(rect(3.9361235443390755e-09, -1.0138266994320098e-09).transl(1.0821985530809156e-07, -3.647582469898885e-08, 0))
hIsland = hIsland.add(rect(5.28239986469277e-09, 2.828763008995856e-10).transl(7.736512792909336e-08, -4e-08, 0))
hIsland = hIsland.add(rect(6.5618426592027646e-09, 7.717030131465161e-10).transl(3.665479729703231e-09, -4e-08, 0))
hIsland = hIsland.add(rect(6.215117629621653e-09, 1.0293154122829498e-09).transl(-5.971242148815163e-08, -4e-08, 0))
hIsland = hIsland.add(rect(5.455608658588741e-09, 1.3821574499320965e-09).transl(-1.1118599272366657e-09, -4e-08, 0))
hIsland = hIsland.sub(rect(3.0301541695166247e-09, -6.894430344839601e-10).transl(-9.003528068057801e-09, -4e-08, 0))
hIsland = hIsland.sub(rect(3.97660476409278e-09, -1.0239019533707293e-09).transl(-9.92790739197625e-09, -4e-08, 0))
hIsland = hIsland.sub(rect(8.541084165616857e-09, -2.037844660207335e-09).transl(5.491206272958727e-08, -4e-08, 0))
hIsland = hIsland.add(rect(4.179198405794087e-09, 1.4562705537876864e-10).transl(-2.5177739057886306e-08, -4e-08, 0))
hIsland = hIsland.add(rect(3.09157919223603e-09, 5.734972394198576e-10).transl(5.662961882065654e-09, -4e-08, 0))
hIsland = hIsland.sub(rect(5.75398780702126e-09, -1.3765026805832526e-09).transl(-2.6122159289914677e-11, -4e-08, 0))
hIsland = hIsland.sub(rect(6.052847944968228e-09, -2.9606910682172898e-09).transl(4.155828447465588e-09, -4e-08, 0))
hIsland = hIsland.add(rect(4.1612823692229006e-09, 8.796372897210148e-10).transl(1.0179394608382898e-07, -4e-08, 0))
hIsland = hIsland.sub(rect(3.7797732133959024e-09, -3.677885086839178e-09).transl(1.1348539912110901e-07, -1.9841886730263993e-08, 0))
hIsland = hIsland.add(rect(3.395118508693573e-09, 1.215471435462164e-10).transl(8.809059922401845e-08, -4e-08, 0))
hIsland = hIsland.add(rect(2.010187920523116e-09, 1.0941683188994515e-10).transl(4.588880934799964e-09, -4e-08, 0))
hIsland = hIsland.sub(rect(8.955301538087951e-09, -3.490428324154221e-09).transl(4.017229638676735e-08, -4e-08, 0))
hIsland = hIsland.add(rect(4.934515643970341e-09, 4.026663540006866e-09).transl(-5.374356320740499e-08, -4e-08, 0))
hIsland = hIsland.add(rect(6.242843814525429e-09, 1.6227707517709598e-09).transl(2.2788696931033644e-08, -4e-08, 0))
hIsland = hIsland.add(rect(7.697563060319891e-09, 3.396118189147152e-09).transl(-5.716377919835435e-08, -4e-08, 0))
hIsland = hIsland.sub(rect(5.34024332866956e-09, -2.990381192281607e-09).transl(-5.0836228404616786e-09, -4e-08, 0))
hIsland = hIsland.add(rect(4.160698402386412e-09, 1.5146866643447404e-09).transl(3.561336851594749e-08, -4e-08, 0))
hIsland = hIsland.add(rect(8.262249649450702e-09, 4.195295703266271e-09).transl(6.107079669371525e-08, -4e-08, 0))
hIsland = hIsland.add(rect(8.096092278377116e-09, 8.289482713371527e-10).transl(-6.550767818233732e-08, -4e-08, 0))
hIsland = hIsland.add(rect(5.515134130903129e-09, 1.294399293427012e-09).transl(-3.956114240699251e-09, -4e-08, 0))
hIsland = hIsland.add(rect(3.3538697053978023e-09, 1.236517426589867e-09).transl(-1.1318774733495573e-07, -2.155330711048345e-08, 0))
hIsland = hIsland.add(rect(8.910676398263509e-09, 1.1482277731184395e-09).transl(4.5814549514427457e-08, -4e-08, 0))
hIsland = hIsland.add(rect(6.467610498435054e-09, 3.499106714344478e-11).transl(-5.088422031083319e-08, -4e-08, 0))
hIsland = hIsland.sub(rect(3.622391774932095e-09, -1.3955984620157163e-09).transl(-1.0026079467272474e-07, -4e-08, 0))
hIsland = hIsland.sub(rect(2.03741273645754e-09, -8.924329925807039e-10).transl(3.23624907176027e-08, -4e-08, 0))
hIsland = hIsland.add(rect(8.076118997016686e-09, 1.1522248446680733e-09).transl(-8.355662810144383e-08, -4e-08, 0))
hIsland = hIsland.sub(rect(2.0047460149711362e-09, -2.4564754870545717e-09).transl(-6.172272752602238e-08, -4e-08, 0))
hIsland = hIsland.sub(rect(4.485832594463925e-09, -1.9267598556667816e-09).transl(-1.0172330656511558e-07, -4e-08, 0))
hIsland = hIsland.sub(rect(6.516761639549676e-09, -6.87471682722768e-10).transl(-3.2190268467393315e-08, -4e-08, 0))
hIsland = hIsland.sub(rect(5.579958418191398e-09, -6.58218075193631e-10).transl(-5.2927502465235284e-08, -4e-08, 0))
hIsland = hIsland.add(rect(8.26604128269624e-09, 1.611836077047033e-09).transl(4.63594642659425e-08, -4e-08, 0))
hIsland = hIsland.sub(rect(5.486648199325226e-09, -3.463840305335116e-10).transl(3.246429602352815e-08, -4e-08, 0))
hIsland = hIsland.add(rect(5.045524869490514e-09, 2.1376657057723385e-09).transl(7.207491014934248e-08, -4e-08, 0))
hIsland = hIsland.add(rect(7.476064552951753e-09, 1.3966171967368252e-09).transl(-1.9878650504121204e-08, -4e-08, 0))
hIsland = hIsland.sub(rect(4.646163116548285e-09, -1.2256628236330288e-09).transl(2.572421959069968e-08, -4e-08, 0))
hIsland = hIsland.sub(rect(8.4219302904012e-09, -2.6209642219892517e-09).transl(-8.38631876914549e-08, -4e-08, 0))
hIsland = hIsland.add(rect(9.53598547210604e-09, 2.023684857919005e-09).transl(-8.491870283364932e-08, -4e-08, 0))
hIsland = hIsland.sub(rect(3.6537973551889734e-09, -4.323252414614885e-10).transl(3.426090985484686e-08, -4e-08, 0))
hIsland = hIsland.sub(rect(2.397956118861216e-09, -2.399363348888795e-09).transl(-1.1462548760142525e-07, -1.0124981181378843e-08, 0))
hIsland = hIsland.add(rect(9.9883001936542e-09, 2.9890590809141757e-09).transl(2.2698898760819562e-08, -4e-08, 0))
hIsland = hIsland.sub(rect(3.7405828257555815e-09, -5.460553802733535e-10).transl(9.956801610226061e-08, -4e-08, 0))
hIsland = hIsland.sub(rect(5.158863009113604e-09, -7.178673985975805e-10).transl(-7.718894128796872e-08, -4e-08, 0))
hIsland = hIsland.add(rect(7.100997240105473e-09, 2.7321673026354967e-09).transl(4.578070476552407e-08, -4e-08, 0))
hIsland = hIsland.add(rect(5.013521819452844e-09, 1.9198772330050575e-09).transl(3.288523235266369e-08, -4e-08, 0))
hIsland = hIsland.sub(rect(7.147026764176828e-09, -1.5454372531103723e-09).transl(-4.648901257129408e-08, -4e-08, 0))
hIsland = hIsland.add(rect(9.678500367337403e-09, 2.1331606628085997e-09).transl(-5.498767882909538e-08, -4e-08, 0))
hIsland = hIsland.add(rect(9.807507656476272e-09, 5.268809528592493e-10).transl(1.1316020739046527e-07, 2.170233914149881e-08, 0))
hIsland = hIsland.add(rect(5.926223836758827e-09, 1.6730098707475993e-09).transl(1.005210238499509e-07, 4e-08, 0))
hIsland = hIsland.sub(rect(3.454457468080449e-09, -2.8896566951000107e-09).transl(6.054833749452631e-08, 4e-08, 0))
hIsland = hIsland.sub(rect(6.3894813277092425e-09, -1.7554740369781549e-09).transl(-9.012748614927262e-08, 4e-08, 0))
hIsland = hIsland.add(rect(7.045882026486647e-09, 1.9260311425686555e-09).transl(-9.274350302818219e-08, 4e-08, 0))
hIsland = hIsland.sub(rect(5.037851676221738e-09, -3.898916142001104e-09).transl(8.853721254941743e-08, 4e-08, 0))
hIsland = hIsland.sub(rect(8.05636990590325e-09, -3.7411591353749975e-10).transl(1.301017459786524e-08, 4e-08, 0))
hIsland = hIsland.add(rect(5.698944605700156e-09, 1.920391500410912e-09).transl(-7.405769061987192e-08, 4e-08, 0))
hIsland = hIsland.sub(rect(3.0499804573577186e-09, -7.790351730454206e-10).transl(-8.860379914014467e-08, 4e-08, 0))
hIsland = hIsland.add(rect(9.632933817202508e-09, 4.578945406336832e-09).transl(-2.0374710529441003e-08, 4e-08, 0))
hIsland = hIsland.sub(rect(4.581026035598294e-09, -3.513886722545566e-09).transl(-6.322259532403576e-08, 4e-08, 0))
hIsland = hIsland.sub(rect(7.691245426811943e-09, -1.3274842419420388e-09).transl(9.415435031800143e-08, 4e-08, 0))
hIsland = hIsland.sub(rect(8.71323887652006e-09, -9.227319632754057e-10).transl(1.604507639745779e-11, 4e-08, 0))
hIsland = hIsland.add(rect(3.596789183597892e-09, 2.778724048724527e-09).transl(9.98510592128262e-08, 4e-08, 0))
hIsland = hIsland.sub(rect(7.146385111898391e-09, -9.325792192835145e-10).transl(5.552639650208113e-08, 4e-08, 0))
hIsland = hIsland.sub(rect(7.665169742078766e-09, -6.327038710413857e-09).transl(-4.8736535353270935e-08, 4e-08, 0))
hIsland = hIsland.sub(rect(4.3174261522205565e-09, -2.3226368397413222e-10).transl(9.847035780801401e-08, 4e-08, 0))
hIsland = hIsland.sub(rect(5.5968554365039915e-09, -8.958693224908782e-10).transl(7.329045332800027e-08, 4e-08, 0))
hIsland = hIsland.sub(rect(8.255573508167683e-09, -5.700477905463028e-09).transl(-6.264341619170872e-08, 4e-08, 0))
hIsland = hIsland.add(rect(8.358684963111548e-09, 3.58044815425839e-09).transl(-2.233372610290048e-09, 4e-08, 0))
hIsland = hIsland.add(rect(3.940345324523509e-09, 3.6887301974783104e-10).transl(7.937148542296195e-08, 4e-08, 0))
hIsland = hIsland.add(rect(6.06507223819669e-09, 7.092863835976383e-10).transl(-3.654121537358594e-08, 4e-08, 0))
hIsland = hIsland.sub(rect(6.2993287353377435e-09, -2.2540438511931193e-09).transl(9.776491686054467e-08, 4e-08, 0))
hIsland = hIsland.add(rect(2.382984447584109e-09, 2.7284068735921286e-09).transl(-1.0851745615908628e-07, 3.5992040067969664e-08, 0))
hIsland = hIsland.add(rect(2.723648069570177e-09, 1.6063555400683863e-09).transl(-1.004409367081479e-07, 4e-08, 0))
hIsland = hIsland.sub(rect(9.613330143513076e-09, -2.823975846153124e-09).transl(-1.102387139054692e-07, 3.2413161675972396e-08, 0))
hIsland = hIsland.sub(rect(8.251152239208147e-09, -2.798009572782094e-09).transl(5.421242774141905e-08, 4e-08, 0))
hIsland = hIsland.sub(rect(2.9075998511538153e-09, -1.4305423057300662e-09).transl(5.842655181000962e-09, 4e-08, 0))
hIsland = hIsland.sub(rect(5.949322839379471e-09, -9.350088346644136e-10).transl(1.8093931563935125e-08, 4e-08, 0))
hIsland = hIsland.sub(rect(7.508920208994604e-09, -2.5608004605279456e-09).transl(7.563028386013789e-08, 4e-08, 0))
hIsland = hIsland.sub(rect(5.0088585288136835e-09, -2.8932645643126245e-09).transl(-9.153231246632783e-08, 4e-08, 0))
hIsland = hIsland.add(rect(5.168243841841714e-09, 9.863696283350136e-10).transl(-5.229585740400497e-08, 4e-08, 0))
hIsland = hIsland.add(rect(5.730597673187041e-09, 8.791557668640864e-10).transl(1.0123068179625334e-07, 4e-08, 0))
hIsland = hIsland.add(rect(2.4194071616811633e-09, 1.6251631124370788e-09).transl(-6.928111212363548e-08, 4e-08, 0))
hIsland = hIsland.sub(rect(9.49422210277365e-09, -2.6159213347275785e-10).transl(-5.771987824035292e-08, 4e-08, 0))
hIsland = hIsland.sub(rect(9.777197864831692e-09, -9.484564807583225e-10).transl(-4.595434500301537e-08, 4e-08, 0))
hIsland = hIsland.sub(rect(9.612807617945221e-09, -2.1106937899333524e-10).transl(2.8074495443591405e-08, 4e-08, 0))
hIsland = hIsland.add(rect(3.291683037469026e-09, 2.467214767864024e-10).transl(-3.6094330692704694e-08, 4e-08, 0))
hIsland = hIsland.sub(rect(6.580148613356991e-09, -3.858394779461433e-09).transl(-2.1781696533061006e-08, 4e-08, 0))
hIsland = hIsland.sub(rect(4.05213772730013e-09, -1.3299160951000894e-09).transl(-7.072095852376985e-08, 4e-08, 0))
hIsland = hIsland.add(rect(3.218271836908943e-09, 6.448429763937472e-10).transl(6.647915955740124e-08, 4e-08, 0))
hIsland = hIsland.sub(rect(7.719471691918398e-09, -9.008381915871305e-10).transl(8.224249278064736e-08, 4e-08, 0))
hIsland = hIsland.add(rect(3.860936631144562e-09, 2.712750509507082e-10).transl(-1.1323956466252821e-08, 4e-08, 0))
hIsland = hIsland.sub(rect(5.118628040435045e-09, -4.5493949805416057e-10).transl(-1.110407687420089e-07, 3.020020040836204e-08, 0))
hIsland = hIsland.sub(rect(9.266349526957044e-09, -3.774206124668725e-10).transl(3.4016701027616245e-08, 4e-08, 0))
hIsland = hIsland.sub(rect(9.079726920511258e-09, -1.1714074398784753e-09).transl(4.848959354750504e-09, 4e-08, 0))
hIsland = hIsland.sub(rect(9.889754966474943e-09, -2.5596553487777757e-09).transl(5.964358770385591e-08, 4e-08, 0))
hIsland = hIsland.add(rect(9.438546840942079e-09, 7.894047530156225e-10).transl(-8.435072421847279e-08, 4e-08, 0))
hIsland = hIsland.sub(rect(6.8680947110617915e-09, -1.2038851564788776e-09).transl(-1.1236359961029912e-07, 2.5485614477785524e-08, 0))
hIsland = hIsland.add(rect(3.4605368960955387e-09, 2.952077662423446e-10).transl(1.122184101704484e-07, 2.6084480833210244e-08, 0))
hIsland = hIsland.add(rect(4.310311361024712e-09, 1.642539222108156e-09).transl(-5.722809279050553e-08, 4e-08, 0))
hIsland = hIsland.add(rect(2.882760780118768e-09, 1.2855168973920217e-09).transl(-9.641572661235725e-09, 4e-08, 0))
hIsland = hIsland.add(rect(8.981363984754737e-09, 1.4790554810251237e-09).transl(-1.9501676674679293e-09, 4e-08, 0))
hIsland = hIsland.sub(rect(3.4245562603679427e-09, -1.152873907388101e-09).transl(1.0206753023194494e-07, 4e-08, 0))
hIsland = hIsland.sub(rect(6.164375846504169e-09, -9.901755978495627e-10).transl(-3.4748079729550546e-08, 4e-08, 0))
hIsland = hIsland.sub(rect(4.048555021926413e-09, -2.494058117175552e-09).transl(8.293706743081049e-08, 4e-08, 0))
hIsland = hIsland.add(rect(9.065092365115544e-09, 2.6178121880111622e-09).transl(-5.3401294437907865e-08, 4e-08, 0))
hIsland = hIsland.sub(rect(3.4106307201883674e-09, -2.2410745953106283e-10).transl(4.564283499212372e-08, 4e-08, 0))
hIsland = hIsland.sub(rect(4.039279214683043e-09, -1.353221835950066e-09).transl(-2.4087532164333544e-08, 4e-08, 0))
hIsland = hIsland.sub(rect(2.024209351421272e-09, -1.8807172232360295e-09).transl(-7.586085035638033e-08, 4e-08, 0))
hIsland = hIsland.add(rect(2.048622857616083e-09, 9.706684926460023e-10).transl(-1.1485761861504857e-07, 6.274863004500347e-09, 0))
hIsland = hIsland.add(rect(4.286424240228477e-09, 1.2921281638168376e-09).transl(-2.779026278923794e-08, 4e-08, 0))
hIsland = hIsland.sub(rect(7.44427384736001e-09, -3.3176772037403937e-09).transl(-2.304522836482106e-08, 4e-08, 0))
hIsland = hIsland.sub(rect(7.2124124856777584e-09, -7.150691549073503e-10).transl(7.982935107370451e-08, 4e-08, 0))
hIsland = hIsland.add(rect(4.838726540294883e-09, 2.2805489705163382e-09).transl(-9.845396908762724e-08, 4e-08, 0))
hIsland = hIsland.sub(rect(7.568963824648683e-09, -1.245886006232617e-10).transl(9.31834856057022e-08, 4e-08, 0))
hIsland = hIsland.sub(rect(8.165481113361717e-09, -4.875298706265849e-09).transl(8.028543362421293e-09, 4e-08, 0))
hIsland = hIsland.add(rect(5.881410222255939e-09, 7.803716151696113e-10).transl(-6.522238329920147e-08, 4e-08, 0))
hIsland = hIsland.add(rect(2.9241960867602583e-09, 1.7307188623929893e-09).transl(8.165656175431434e-08, 4e-08, 0))
hIsland = hIsland.add(rect(4.575353645812744e-09, 3.84875969004441e-10).transl(-3.616676029745318e-08, 4e-08, 0))
hIsland = hIsland.add(rect(9.232930557249116e-09, 2.1458769440624458e-09).transl(3.892110271599802e-08, 4e-08, 0))
hIsland = hIsland.sub(rect(9.781568882640734e-09, -1.6814320492660694e-09).transl(-1.7627823148542206e-09, 4e-08, 0))
hIsland = hIsland.add(rect(7.164893439094654e-09, 1.6380323674931603e-09).transl(8.912168792290928e-08, 4e-08, 0))
hIsland = hIsland.add(rect(7.356346151084965e-09, 2.708937508409589e-10).transl(4.451509070187059e-08, 4e-08, 0))
hIsland = hIsland.sub(rect(3.4422208716993707e-09, -1.8540891945429153e-09).transl(-5.3203174579307855e-08, 4e-08, 0))
hIsland = hIsland.sub(rect(9.333944977241973e-09, -9.463109744188313e-10).transl(-2.0616466531458025e-08, 4e-08, 0))
hIsland = hIsland.sub(rect(4.724727150922412e-09, -4.739490936245103e-10).transl(-1.3010011565537861e-08, 4e-08, 0))
hIsland = hIsland.add(rect(6.715976749344658e-09, 2.0120540863362443e-09).transl(8.041976711119179e-08, 4e-08, 0))
hIsland = hIsland.sub(rect(8.797789665670884e-09, -1.3920653037264769e-09).transl(-5.341214280167645e-08, 4e-08, 0))
hIsland = hIsland.add(rect(5.667698511519849e-09, 3.6481400456190192e-09).transl(8.700220196330941e-08, 4e-08, 0))
hIsland = hIsland.sub(rect(9.064400857551994e-09, -2.2254785279815864e-10).transl(7.325542314829385e-08, 4e-08, 0))
hIsland = hIsland.sub(rect(3.0201290110084377e-09, -1.500946329296079e-09).transl(7.486039630339823e-08, 4e-08, 0))
hIsland = hIsland.sub(rect(4.9662068109002314e-09, -2.009561417183235e-09).transl(7.35171077754786e-08, 4e-08, 0))
hIsland = hIsland.sub(rect(6.715464055871352e-09, -3.5148333334234595e-09).transl(3.292721377008831e-08, 4e-08, 0))
hIsland = hIsland.sub(rect(5.339169249604331e-09, -3.3515745455719843e-09).transl(-7.578436571233532e-08, 4e-08, 0))
hIsland = hIsland.sub(rect(3.876830177534116e-09, -1.1889584239007286e-09).transl(-8.174317028471083e-08, 4e-08, 0))
hIsland = hIsland.add(rect(6.208093539202392e-09, 4.02368414217995e-09).transl(-5.2455499156735174e-09, 4e-08, 0))
hIsland = hIsland.add(rect(5.622439827185587e-09, 4.2841816726746227e-10).transl(7.617424545645551e-08, 4e-08, 0))
hIsland = hIsland.sub(rect(7.335019643925637e-09, -3.3463913615265258e-09).transl(7.915461721674312e-08, 4e-08, 0))
hIsland = hIsland.sub(rect(5.698841925038801e-09, -6.177311687620438e-10).transl(-7.037753015126838e-08, 4e-08, 0))
hIsland = hIsland.sub(rect(4.658659853889723e-09, -3.7525472239684103e-10).transl(7.993651482448339e-08, 4e-08, 0))
hIsland = hIsland.add(rect(2.825382856972474e-09, 3.487603212606407e-09).transl(-4.922916169229812e-08, 4e-08, 0))
hIsland = hIsland.sub(rect(5.741568175877576e-09, -1.0487279377707417e-09).transl(1.0583638231173264e-07, 3.916579159258175e-08, 0))
hIsland = hIsland.sub(rect(7.312025116872124e-09, -2.492590227885916e-10).transl(6.17012947467729e-08, 4e-08, 0))
hIsland = hIsland.sub(rect(5.552478966180294e-09, -2.4143932920448963e-09).transl(-3.8992054840415906e-08, 4e-08, 0))
hIsland = hIsland.add(rect(5.938905433390668e-09, 4.843988705716142e-10).transl(1.1392175553534125e-07, 1.691057733188921e-08, 0))
hIsland = hIsland.add(rect(7.212882380447575e-09, 1.864654302357261e-09).transl(-8.813134105213373e-08, 4e-08, 0))
hIsland = hIsland.add(rect(6.565812742466019e-09, 4.783999428518376e-11).transl(1.017032813712307e-07, 4e-08, 0))
hIsland = hIsland.add(rect(3.3572937458362475e-09, 8.915635916297313e-10).transl(5.360056730118019e-08, 4e-08, 0))
hIsland = hIsland.add(rect(8.906177555435291e-09, 1.950313713097324e-10).transl(6.226531775495511e-08, 4e-08, 0))
hIsland = hIsland.add(rect(5.0573034634978945e-09, 1.3576698328019914e-09).transl(8.120253622133013e-08, 4e-08, 0))
hIsland = hIsland.add(rect(4.960703137164832e-09, 7.245434711408839e-10).transl(-4.158805590484288e-08, 4e-08, 0))
hIsland = hIsland.sub(rect(7.137928713193814e-09, -1.1912869893633827e-09).transl(1.494840327867981e-08, 4e-08, 0))
hIsland = hIsland.add(rect(5.983899406328257e-09, 1.2114807011996903e-09).transl(-7.779699743120166e-08, 4e-08, 0))
hIsland = hIsland.add(rect(9.392028139892432e-09, 6.08996074839035e-10).transl(1.663283898977127e-08, 4e-08, 0))
hIsland = hIsland.add(rect(3.048544885277796e-09, 1.7887571699136487e-09).transl(-7.658399718423304e-08, 4e-08, 0))
hIsland = hIsland.add(rect(9.569393753308855e-09, 2.5836046819841885e-09).transl(-2.2110917706391288e-08, 4e-08, 0))
hIsland = hIsland.add(rect(8.754613254920503e-09, 9.652571907349596e-10).transl(-6.071626273055975e-08, 4e-08, 0))
hIsland = hIsland.add(rect(9.022225771124781e-09, 8.163075939361227e-10).transl(5.3312891990364604e-08, 4e-08, 0))
hIsland = hIsland.sub(rect(8.301338719731669e-09, -3.5651287174866764e-09).transl(-2.830651638632251e-08, 4e-08, 0))
hIsland = hIsland.sub(rect(5.6650004808978486e-09, -2.8863675053579092e-09).transl(2.6116748324962397e-08, 4e-08, 0))
hIsland = hIsland.add(rect(9.320896039034183e-09, 7.224927858818832e-10).transl(-1.1003044041514164e-07, 3.292488521393075e-08, 0))
hIsland = hIsland.sub(rect(6.582447348942298e-09, -1.7081329988560296e-09).transl(7.364013976756735e-08, 4e-08, 0))
hIsland = hIsland.sub(rect(9.455048615659636e-09, -9.925617549594791e-10).transl(3.642169361055202e-08, 4e-08, 0))
hIsland = hIsland.add(rect(3.3490282176176643e-09, 1.7863916987902872e-09).transl(1.0755477165110621e-07, 3.7431133788926466e-08, 0))
hIsland = hIsland.add(rect(7.437468069171403e-09, 7.275954922503395e-10).transl(3.771560883511718e-08, 4e-08, 0))
hIsland = hIsland.add(rect(4.322598126871309e-09, 2.537457839492738e-09).transl(3.802838162131527e-08, 4e-08, 0))
hIsland = hIsland.add(rect(2.673745323969004e-09, 3.116458562013663e-10).transl(-1.1008957317890116e-07, 3.278203672801124e-08, 0))
hIsland = hIsland.add(rect(5.462886428391708e-09, 1.9314668363015735e-09).transl(1.0276862365960541e-08, 4e-08, 0))
hIsland = hIsland.sub(rect(5.5629937330660085e-09, -1.992905627753619e-09).transl(-5.089199793863148e-09, 4e-08, 0))
hIsland = hIsland.add(rect(5.385859011743896e-09, 1.970584127532875e-09).transl(-1.1408989956876643e-07, 1.5595657239912728e-08, 0))
hIsland = hIsland.add(rect(5.384903937745073e-09, 1.753533970054745e-10).transl(-2.3362360227164565e-08, 4e-08, 0))
hIsland = hIsland.add(rect(7.401527125753393e-09, 3.625263447627354e-09).transl(-8.941955588245134e-08, 4e-08, 0))
hIsland = hIsland.add(rect(8.581778766423934e-09, 1.958772738544155e-09).transl(6.915425515609407e-08, 4e-08, 0))
hIsland = hIsland.sub(rect(7.682318534513968e-09, -2.19733916688095e-09).transl(-1.1078608913534513e-07, 3.094731765697527e-08, 0))
hIsland = hIsland.sub(rect(3.846966840390211e-09, -3.3774514872631267e-10).transl(-5.479565199832915e-08, 4e-08, 0))
hIsland = hIsland.sub(rect(8.703090599619321e-09, -3.1463221002047436e-12).transl(5.349563255262889e-09, 4e-08, 0))
hIsland = hIsland.sub(rect(6.429318469792492e-09, -1.8558133746796144e-09).transl(-6.876467488388305e-08, 4e-08, 0))
hIsland = hIsland.add(rect(4.661253973858258e-09, 6.41567961556858e-10).transl(-5.0974265323152306e-08, 4e-08, 0))
hIsland = hIsland.add(rect(6.006619152268592e-09, 2.228162733975035e-09).transl(-1.0117762644083847e-07, 4e-08, 0))
hIsland = hIsland.sub(rect(8.297726401726173e-09, -1.3178905125826575e-09).transl(-5.212363146261973e-08, 4e-08, 0))
hIsland = hIsland.sub(rect(5.907919418481388e-09, -2.286345626666175e-09).transl(-8.635482852761629e-08, 4e-08, 0))
hIsland = hIsland.add(rect(4.03562895626521e-09, 5.661758763844003e-09).transl(1.824838286178387e-08, 4e-08, 0))
hIsland = hIsland.sub(rect(3.1063120391775548e-09, -1.5209605463162205e-09).transl(-1.5952872672757807e-08, 4e-08, 0))
hIsland = hIsland.add(rect(9.299663711201342e-09, 9.91047203843981e-10).transl(4.1667925265648186e-08, 4e-08, 0))
hIsland = hIsland.sub(rect(4.509582231149681e-09, -2.3961579882115657e-09).transl(1.1130122295452117e-07, 2.938892100732468e-08, 0))
hIsland = hIsland.add(rect(9.54764579550256e-09, 1.435193687512074e-09).transl(1.87197887323666e-08, 4e-08, 0))
hIsland = hIsland.sub(rect(4.1625928230968645e-09, -1.1993372960662296e-09).transl(8.579447214739654e-09, 4e-08, 0))
hIsland = hIsland.add(rect(8.15205862870585e-09, 3.503369112903492e-10).transl(8.394304064957137e-08, 4e-08, 0))
hIsland = hIsland.sub(rect(2.9149697626592915e-09, -1.3664622619438004e-09).transl(-6.499767644745691e-08, 4e-08, 0))
hIsland = hIsland.add(rect(3.525731015710351e-09, 5.062671025556087e-09).transl(-1.1120442748223228e-07, 2.969624106280167e-08, 0))
hIsland = hIsland.add(rect(4.219434922924897e-09, 1.7968331645328655e-09).transl(-6.774006908424723e-08, 4e-08, 0))
hIsland = hIsland.sub(rect(9.442916588919737e-09, -1.330507092552792e-09).transl(9.17876207249647e-08, 4e-08, 0))
hIsland = hIsland.sub(rect(8.431253372444904e-09, -1.863348634489033e-09).transl(-8.887202660332274e-08, 4e-08, 0))
hIsland = hIsland.add(rect(8.537747470924384e-09, 1.5553677507063108e-09).transl(-4.7586283660375044e-08, 4e-08, 0))
hIsland = hIsland.add(rect(8.515624823262254e-09, 3.745855525017673e-10).transl(1.747995585360385e-08, 4e-08, 0))
hIsland = hIsland.sub(rect(3.793580035902751e-09, -1.256228603376238e-09).transl(3.816362869495959e-08, 4e-08, 0))
hIsland = hIsland.sub(rect(2.8943643875605524e-09, -1.53251511389491e-09).transl(-7.3010568074356e-08, 4e-08, 0))
hIsland = hIsland.add(rect(5.7535129761022765e-09, 1.1973169773528915e-09).transl(5.484075555351808e-08, 4e-08, 0))
hIsland = hIsland.add(rect(3.2350576282069936e-09, 1.3679528828775467e-09).transl(4.3062012486460586e-08, 4e-08, 0))
hIsland = hIsland.add(rect(9.431100903612965e-09, 1.974329755818843e-09).transl(9.624030013875011e-08, 4e-08, 0))
hIsland = hIsland.sub(rect(5.140731180001472e-09, -2.533698262352432e-09).transl(6.685659531803765e-08, 4e-08, 0))
hIsland = hIsland.add(rect(9.172904908891469e-09, 1.4472433186634322e-09).transl(-8.137758271979646e-08, 4e-08, 0))
hIsland = hIsland.add(rect(5.473998397562508e-09, 1.1213571767988462e-09).transl(-5.130275455926527e-08, 4e-08, 0))
hIsland = hIsland.sub(rect(2.41981389134361e-09, -8.736301974824969e-10).transl(6.538772612396307e-08, 4e-08, 0))
hIsland = hIsland.sub(rect(5.449832335755122e-09, -2.303245584377851e-09).transl(4.3257839804018206e-08, 4e-08, 0))
hIsland = hIsland.add(rect(3.5385388650680334e-09, 1.0833949760985468e-09).transl(9.275307175848251e-08, 4e-08, 0))
hIsland = hIsland.add(rect(2.85922602942666e-09, 2.430492521418891e-09).transl(-4.974148449288985e-08, 4e-08, 0))
hIsland = hIsland.add(rect(8.035426226900665e-09, 3.571025479169883e-09).transl(-9.096774042518621e-08, 4e-08, 0))
hIsland = hIsland.add(rect(8.581151135405773e-09, 1.361084248712253e-09).transl(3.326143176267926e-08, 4e-08, 0))
hIsland = hIsland.add(rect(5.156516211045205e-09, 2.629637159401175e-09).transl(1.1400716150624576e-07, 1.6258612103395604e-08, 0))
hIsland = hIsland.sub(rect(2.917805912949553e-09, -2.4847983105901814e-09).transl(1.6982647454695284e-08, 4e-08, 0))
hIsland = hIsland.add(rect(4.192243317818214e-09, 1.1004995541185432e-09).transl(8.358938492868839e-08, 4e-08, 0))
hIsland = hIsland.sub(rect(6.674988497430316e-09, -9.115088406985346e-10).transl(3.3990040290126454e-08, 4e-08, 0))
hIsland = hIsland.add(rect(9.954376273287008e-09, 5.374217726267426e-10).transl(-8.431975270823587e-08, 4e-08, 0))
hIsland = hIsland.sub(rect(4.846882053969516e-09, -4.0994392056831927e-10).transl(1.8784268664892446e-08, 4e-08, 0))
hIsland = hIsland.sub(rect(3.504026631580455e-09, -3.326345665429597e-10).transl(3.9902835566436337e-08, 4e-08, 0))
hIsland = hIsland.add(rect(4.735811714903446e-09, 7.940573481432652e-10).transl(4.9821305275591806e-08, 4e-08, 0))
hIsland = hIsland.sub(rect(2.721542406022917e-09, -1.7868211147393164e-10).transl(-1.4564263042499797e-09, 4e-08, 0))
hIsland = hIsland.add(rect(8.892425466064761e-09, 1.2699064611816974e-09).transl(-8.483588646142896e-08, 4e-08, 0))
hIsland = hIsland.sub(rect(5.087708958465456e-09, -4.84137817122922e-10).transl(-1.7683594307177978e-08, 4e-08, 0))
hIsland = hIsland.add(rect(8.57862308006805e-09, 9.32551096077134e-10).transl(1.096545869602922e-08, 4e-08, 0))
hIsland = hIsland.add(rect(9.344296116261204e-09, 4.383267945799476e-09).transl(7.620905711614202e-08, 4e-08, 0))
hIsland = hIsland.sub(rect(6.67857841816469e-09, -3.3011032062803004e-09).transl(4.663124599092066e-08, 4e-08, 0))
hIsland = hIsland.sub(rect(2.6215570109259815e-09, -3.00448489586773e-10).transl(-3.2570310810795296e-08, 4e-08, 0))
hIsland = hIsland.add(rect(9.102696660698116e-09, 8.021384575809845e-10).transl(-1.733393825929619e-08, 4e-08, 0))
hIsland = hIsland.sub(rect(9.354633903215196e-09, -1.0429252958034592e-09).transl(-4.022873397214521e-08, 4e-08, 0))
hIsland = hIsland.sub(rect(6.295170909427245e-09, -9.45104792557241e-10).transl(4.9888612137118275e-08, 4e-08, 0))
hIsland = hIsland.add(rect(4.292376585643845e-09, 8.643220539518373e-10).transl(-9.732568306100019e-09, 4e-08, 0))
hIsland = hIsland.add(rect(7.484870394013271e-09, 7.372915140817634e-10).transl(-3.8691167207662775e-08, 4e-08, 0))
hIsland = hIsland.sub(rect(7.585907601664747e-09, -9.943499137939877e-10).transl(6.889784872895088e-08, 4e-08, 0))
hIsland = hIsland.add(rect(9.543599709824589e-09, 1.0403345235492276e-09).transl(-3.056416798023316e-08, 4e-08, 0))
hIsland = hIsland.add(rect(5.617315679147024e-09, 6.920972909668121e-10).transl(4.7683695944725146e-08, 4e-08, 0))
hIsland = hIsland.sub(rect(8.899471532768684e-09, -7.48808825940839e-10).transl(3.391668313800627e-08, 4e-08, 0))
hIsland = hIsland.add(rect(8.215591081665232e-09, 3.243520081092929e-09).transl(3.113120732295153e-08, 4e-08, 0))
hIsland = hIsland.sub(rect(9.729894722956968e-09, -1.038738628318264e-09).transl(-4.667706727757438e-09, 4e-08, 0))
hIsland = hIsland.sub(rect(9.704039848419889e-09, -2.9895783766970386e-09).transl(4.1479997365203854e-08, 4e-08, 0))
hIsland = hIsland.sub(rect(3.3579682434044175e-09, -4.063808246969074e-09).transl(7.926175083848295e-08, 4e-08, 0))
hIsland = hIsland.add(rect(8.7509961794682e-09, 2.0790856364563737e-09).transl(-7.371366810388323e-08, 4e-08, 0))
hIsland = hIsland.sub(rect(6.782220487367341e-09, -2.2969238984375145e-09).transl(3.1853817145640896e-08, 4e-08, 0))
hIsland = hIsland.add(rect(7.632069931758083e-09, 3.734159875188181e-09).transl(2.0670935593219117e-08, 4e-08, 0))
hIsland = hIsland.sub(rect(8.682453922223943e-09, -1.8647803035421594e-09).transl(-4.5893490897466206e-08, 4e-08, 0))
hIsland = hIsland.add(rect(5.559561197286984e-09, 1.1182531661535301e-09).transl(-9.524693895558175e-08, 4e-08, 0))
hIsland = hIsland.add(rect(3.974879232018319e-09, 1.6567147176890905e-09).transl(-2.7811724043626157e-08, 4e-08, 0))
hIsland = hIsland.sub(rect(6.929385490273415e-09, -7.562684026693765e-10).transl(-1.1409089940354719e-07, 1.5587440952586266e-08, 0))
hIsland = hIsland.add(rect(2.727540408654613e-09, 3.5326507816465232e-09).transl(6.41280695334218e-08, 4e-08, 0))
hIsland = hIsland.add(rect(7.961447864559212e-09, 1.080310507428099e-09).transl(6.310843950159487e-08, 4e-08, 0))
hIsland = hIsland.add(rect(2.605524041888763e-09, 2.7752395166498726e-09).transl(-2.1236709799454786e-08, 4e-08, 0))
hIsland = hIsland.sub(rect(3.6345146529632376e-09, -4.036302717002255e-09).transl(8.84931156377366e-08, 4e-08, 0))
hIsland = hIsland.sub(rect(2.3592896508174264e-09, -9.432889270862546e-10).transl(-1.1000418252313147e-07, 3.298770757241125e-08, 0))
vIsland = hIsland.rotz(pi / 2)
hIslands = hIslands.add(hIsland.transl(-a/2, a, 0))
hIsland = rect(islandLength-2*ellipseConstant, islandWidth)
hIsland = hIsland.add(ellipse(ellipseConstant*2, islandWidth).transl(islandLength/2-ellipseConstant, 0, 0))
hIsland = hIsland.add(ellipse(ellipseConstant*2, islandWidth).transl(-islandLength/2+ellipseConstant, 0, 0))
hIsland = hIsland.add(rect(9.478429673364581e-09, 1.3867005937521274e-09).transl(3.305376039933956e-08, -4e-08, 0))
hIsland = hIsland.sub(rect(6.6387199923417104e-09, -2.1693259573330053e-09).transl(2.905753645940884e-08, -4e-08, 0))
hIsland = hIsland.sub(rect(5.390124897801138e-09, -3.5210033049583406e-10).transl(-6.286784520646354e-08, -4e-08, 0))
hIsland = hIsland.add(rect(9.712238003072181e-09, 2.343554694193905e-09).transl(5.576882692691724e-08, -4e-08, 0))
hIsland = hIsland.add(rect(6.975244606622427e-09, 2.637133394653117e-09).transl(-7.107439600841693e-08, -4e-08, 0))
hIsland = hIsland.sub(rect(4.344340655977703e-09, -8.269832184367767e-10).transl(-8.958860377097672e-08, -4e-08, 0))
hIsland = hIsland.add(rect(9.139454878746633e-09, 3.213696363379917e-09).transl(-4.8813459105824206e-08, -4e-08, 0))
hIsland = hIsland.sub(rect(3.185421395065398e-09, -9.98100001544753e-10).transl(-3.2045103743848608e-09, -4e-08, 0))
hIsland = hIsland.add(rect(9.808105473230804e-09, 1.4320054116242592e-09).transl(8.670121780509012e-08, -4e-08, 0))
hIsland = hIsland.add(rect(3.8576122010967614e-09, 2.942699666354085e-09).transl(6.805255477864396e-08, -4e-08, 0))
hIsland = hIsland.sub(rect(6.510306920909797e-09, -5.875206068651148e-09).transl(4.007115703774223e-09, -4e-08, 0))
hIsland = hIsland.sub(rect(3.6595274449607298e-09, -2.9007960633016685e-10).transl(1.1197361531067167e-07, -2.7042856096128713e-08, 0))
hIsland = hIsland.add(rect(8.409638908781986e-09, 1.1561178701134457e-10).transl(7.471552762112738e-08, -4e-08, 0))
hIsland = hIsland.add(rect(9.849572177595778e-09, 3.0992871267619715e-09).transl(-9.945515372913479e-08, -4e-08, 0))
hIsland = hIsland.add(rect(4.759467483573747e-09, 1.3920815310945986e-09).transl(-8.523660015867658e-08, -4e-08, 0))
hIsland = hIsland.add(rect(9.181849562003575e-09, 6.833918838880077e-10).transl(-5.564676284558336e-09, -4e-08, 0))
hIsland = hIsland.sub(rect(7.741147594488426e-09, -1.2451685123470453e-09).transl(-4.0327030766719894e-08, -4e-08, 0))
hIsland = hIsland.add(rect(8.731779081151392e-09, 1.0215575670253587e-09).transl(6.109544437192245e-08, -4e-08, 0))
hIsland = hIsland.sub(rect(2.745189837598419e-09, -3.8098518926279635e-09).transl(-5.27965110145139e-08, -4e-08, 0))
hIsland = hIsland.add(rect(4.510848184781118e-09, 1.7497926846436244e-09).transl(1.2853372084895269e-08, -4e-08, 0))
hIsland = hIsland.add(rect(6.510851967667689e-09, 7.609615245933486e-10).transl(-1.281521717709338e-08, -4e-08, 0))
hIsland = hIsland.add(rect(6.121393894978721e-09, 2.2038521169232214e-09).transl(9.868287857298716e-08, -4e-08, 0))
hIsland = hIsland.sub(rect(8.758775618008182e-09, -1.0324945663122164e-09).transl(1.9828249529777538e-08, -4e-08, 0))
hIsland = hIsland.sub(rect(2.6499083813380182e-09, -1.1859029553951182e-09).transl(-7.923551299041917e-08, -4e-08, 0))
hIsland = hIsland.add(rect(4.666072102292591e-09, 1.8182824940281526e-09).transl(8.092578931479616e-08, -4e-08, 0))
hIsland = hIsland.sub(rect(4.618869838852264e-09, -3.164361413665638e-09).transl(-2.2586084385094015e-08, -4e-08, 0))
hIsland = hIsland.add(rect(9.829356798283535e-09, 4.6987718834245575e-09).transl(2.122367334689211e-08, -4e-08, 0))
hIsland = hIsland.add(rect(8.596268942299627e-09, 1.1528138914722452e-09).transl(-6.131819913776554e-08, -4e-08, 0))
hIsland = hIsland.add(rect(6.1940350981657315e-09, 2.2519661134130115e-10).transl(1.0976147811357398e-07, -3.355104757597825e-08, 0))
hIsland = hIsland.sub(rect(3.0964137512213946e-09, -2.0113501796881604e-09).transl(8.936785639555593e-08, -4e-08, 0))
hIsland = hIsland.sub(rect(7.481760863114913e-09, -7.239786324406705e-10).transl(-6.721265876977148e-08, -4e-08, 0))
hIsland = hIsland.add(rect(6.1232423695758785e-09, 1.7868882180303576e-09).transl(-1.4737768702176405e-08, -4e-08, 0))
hIsland = hIsland.sub(rect(2.3509910110697725e-09, -6.009954474633481e-10).transl(3.0768896862641034e-08, -4e-08, 0))
hIsland = hIsland.add(rect(6.1506136093365266e-09, 3.610427012111549e-09).transl(-1.0393033276728787e-07, -3.997198470110613e-08, 0))
hIsland = hIsland.add(rect(5.6603203514383706e-09, 4.024099914490496e-09).transl(-8.127414336077938e-08, -4e-08, 0))
hIsland = hIsland.add(rect(8.66185226310709e-09, 1.6721621013945322e-09).transl(8.271057646248116e-08, -4e-08, 0))
hIsland = hIsland.add(rect(2.7951263665069732e-09, 2.1206851002202462e-10).transl(6.785119020687336e-08, -4e-08, 0))
hIsland = hIsland.add(rect(2.1349431162272883e-09, 3.184236477367558e-09).transl(-3.4461590392958016e-10, -4e-08, 0))
hIsland = hIsland.sub(rect(7.657861495174738e-09, -2.338686091557886e-09).transl(-5.0084606048211436e-08, -4e-08, 0))
hIsland = hIsland.add(rect(7.388794865698426e-09, 7.708759296872152e-10).transl(4.3464250331271044e-08, -4e-08, 0))
hIsland = hIsland.add(rect(3.3458564747964784e-09, 1.0203155749845328e-10).transl(5.427903277915214e-08, -4e-08, 0))
hIsland = hIsland.add(rect(9.494157563699848e-09, 2.6233291766870535e-09).transl(-8.13504604888004e-08, -4e-08, 0))
hIsland = hIsland.sub(rect(9.578116323501227e-09, -2.786263056300866e-09).transl(1.1039872011315762e-07, -3.200333835144511e-08, 0))
hIsland = hIsland.sub(rect(7.361011187669406e-09, -4.382669541776444e-09).transl(-5.100346763467742e-08, -4e-08, 0))
hIsland = hIsland.sub(rect(4.887716752171355e-09, -2.5214489714264605e-10).transl(-1.0391521702452079e-07, -3.997391888056223e-08, 0))
hIsland = hIsland.add(rect(3.632560512003121e-09, 2.1281671773149283e-09).transl(-7.50503315796983e-08, -4e-08, 0))
hIsland = hIsland.sub(rect(6.785157529658162e-09, -1.1872545040876708e-09).transl(5.5103200858104487e-08, -4e-08, 0))
hIsland = hIsland.add(rect(9.153745585884888e-09, 2.1379915056988576e-10).transl(7.443028964236544e-08, -4e-08, 0))
hIsland = hIsland.sub(rect(7.392897541476024e-09, -3.6089884808534087e-11).transl(1.1407572442993434e-07, -1.571159841562503e-08, 0))
hIsland = hIsland.sub(rect(4.1307812604335075e-09, -3.682852072812111e-09).transl(1.0694914823714429e-07, -3.815849964168605e-08, 0))
hIsland = hIsland.sub(rect(6.641593491177898e-09, -1.5876761132767952e-10).transl(4.400674806982364e-08, -4e-08, 0))
hIsland = hIsland.add(rect(9.804324968752287e-09, 3.409139343627444e-10).transl(1.108198486749358e-07, -3.085078480791064e-08, 0))
hIsland = hIsland.sub(rect(6.297266821212767e-09, -2.5723870921465475e-09).transl(8.641827756805034e-08, -4e-08, 0))
hIsland = hIsland.add(rect(4.366804806127227e-09, 8.653836034097408e-10).transl(-8.436161043888595e-08, -4e-08, 0))
hIsland = hIsland.add(rect(5.881840463217388e-09, 1.2559294830279223e-09).transl(1.1441514672372984e-07, -1.2593788849019405e-08, 0))
hIsland = hIsland.add(rect(6.5172964862753034e-09, 1.4662684473793986e-09).transl(-1.1248795070390735e-09, -4e-08, 0))
hIsland = hIsland.sub(rect(7.269841759739162e-09, -1.7717256385401131e-09).transl(1.9396766088822757e-08, -4e-08, 0))
hIsland = hIsland.add(rect(6.2728548169869366e-09, 1.0473605034965048e-09).transl(9.79488771476271e-08, -4e-08, 0))
hIsland = hIsland.sub(rect(9.303113090340407e-09, -3.716673596513802e-10).transl(-6.913320305795448e-08, -4e-08, 0))
hIsland = hIsland.add(rect(7.325959046155378e-09, 4.783976003146971e-09).transl(-6.742061626726555e-08, -4e-08, 0))
hIsland = hIsland.add(rect(8.291389155392629e-09, 1.4397101168327338e-09).transl(-9.27956188680388e-08, -4e-08, 0))
hIsland = hIsland.sub(rect(8.618063827104216e-09, -1.3340662409873982e-09).transl(-1.0714226830249107e-07, -3.794077671146127e-08, 0))
hIsland = hIsland.add(rect(2.929675873177726e-09, 3.057661073412119e-09).transl(2.1777479522899128e-08, -4e-08, 0))
hIsland = hIsland.sub(rect(6.7979726120739164e-09, -6.503024054387582e-10).transl(-5.310547633122006e-08, -4e-08, 0))
hIsland = hIsland.sub(rect(9.169674601060273e-09, -2.136172722447018e-09).transl(-3.798288265707014e-10, -4e-08, 0))
hIsland = hIsland.sub(rect(7.476944272746429e-09, -2.200197704227468e-09).transl(8.80050042076801e-08, -4e-08, 0))
hIsland = hIsland.add(rect(3.710383038225227e-09, 1.4805560827340141e-09).transl(-3.31961107338334e-08, -4e-08, 0))
hIsland = hIsland.sub(rect(6.867638518183141e-09, -8.32747543369275e-10).transl(1.1254073469217027e-08, -4e-08, 0))
hIsland = hIsland.add(rect(4.525487932689377e-09, 2.1996531985160633e-09).transl(5.378187500631317e-08, -4e-08, 0))
hIsland = hIsland.add(rect(9.741974347114332e-09, 1.1650052362011637e-09).transl(2.5949177359072774e-08, -4e-08, 0))
hIsland = hIsland.add(rect(2.88004844421046e-09, 2.332427128892099e-09).transl(-4.6164180607160635e-09, -4e-08, 0))
hIsland = hIsland.add(rect(6.926880838707442e-09, 9.776730735159877e-10).transl(-1.0424616887736234e-07, -3.9915711875406263e-08, 0))
hIsland = hIsland.sub(rect(9.851682221847619e-09, -1.4459592634829404e-09).transl(1.9058624194545758e-08, -4e-08, 0))
hIsland = hIsland.add(rect(9.436628824644117e-09, 2.893650423989005e-10).transl(5.124447043944738e-08, -4e-08, 0))
hIsland = hIsland.sub(rect(3.85359917537473e-09, -2.00578431885116e-10).transl(-1.0199707175359188e-08, -4e-08, 0))
hIsland = hIsland.sub(rect(5.26685973626257e-09, -1.1373494736399757e-09).transl(-9.96236453311145e-08, -4e-08, 0))
hIsland = hIsland.sub(rect(6.225063032529975e-09, -9.231282227110084e-10).transl(7.741924641582505e-08, -4e-08, 0))
hIsland = hIsland.add(rect(4.352874681702614e-09, 2.59807204151992e-09).transl(-7.735351710556827e-09, -4e-08, 0))
hIsland = hIsland.sub(rect(8.336855249120308e-09, -2.2060995255968335e-09).transl(-1.4574369836276447e-08, -4e-08, 0))
hIsland = hIsland.add(rect(9.711489778935191e-09, 1.2343049768324543e-09).transl(1.0804203576111776e-07, -3.6747939034741125e-08, 0))
hIsland = hIsland.add(rect(5.371795935846079e-09, 5.502509625785796e-10).transl(-7.638441079075855e-08, -4e-08, 0))
hIsland = hIsland.sub(rect(4.30799161624032e-09, -1.8048616074527052e-10).transl(-3.733706973220982e-09, -4e-08, 0))
hIsland = hIsland.sub(rect(5.7445218599301975e-09, -9.238540726486167e-10).transl(9.323970482312123e-08, -4e-08, 0))
hIsland = hIsland.sub(rect(9.564886298291644e-09, -7.567982760656881e-10).transl(-4.845294929513981e-09, -4e-08, 0))
hIsland = hIsland.add(rect(3.1157609510259896e-09, 1.480801019547705e-09).transl(-2.4770412344144128e-08, -4e-08, 0))
hIsland = hIsland.sub(rect(5.765645607253657e-09, -1.7002802877174318e-10).transl(-6.584669804949702e-08, -4e-08, 0))
hIsland = hIsland.sub(rect(7.1624181130893176e-09, -1.1279319641879349e-09).transl(-6.90686551887407e-08, -4e-08, 0))
hIsland = hIsland.add(rect(5.7660447811476724e-09, 2.229035333911151e-09).transl(6.63755734225107e-08, -4e-08, 0))
hIsland = hIsland.add(rect(2.540031721000422e-09, 6.098229018719667e-10).transl(1.120115048105536e-07, -2.689851506092856e-08, 0))
hIsland = hIsland.sub(rect(3.4830714440433087e-09, -8.840194847875154e-13).transl(6.358284406041837e-08, -4e-08, 0))
hIsland = hIsland.add(rect(5.473174716831505e-09, 1.2498569642495388e-09).transl(6.328716352237841e-08, -4e-08, 0))
hIsland = hIsland.add(rect(4.61221604145756e-09, 7.83327721609521e-10).transl(4.2280358191993445e-08, -4e-08, 0))
hIsland = hIsland.sub(rect(9.18903465521272e-09, -3.5610366730903983e-09).transl(-1.6637708410723873e-08, -4e-08, 0))
hIsland = hIsland.sub(rect(7.841890967358538e-09, -1.8714319258705735e-09).transl(1.8297706080986132e-08, -4e-08, 0))
hIsland = hIsland.add(rect(9.484573892383761e-09, 9.294870030634257e-10).transl(5.10675857007773e-08, -4e-08, 0))
hIsland = hIsland.sub(rect(7.482018992363535e-09, -3.329467595233513e-09).transl(1.12615890691615e-07, -2.4385197877420072e-08, 0))
hIsland = hIsland.sub(rect(6.296255401198598e-09, -5.887631540042623e-10).transl(-3.689381017681843e-08, -4e-08, 0))
hIsland = hIsland.sub(rect(8.44554039916985e-09, -1.38072536297745e-09).transl(-3.5673318143865813e-10, -4e-08, 0))
hIsland = hIsland.sub(rect(6.787112407654363e-09, -3.8562353590753773e-10).transl(7.551372050115526e-08, -4e-08, 0))
hIsland = hIsland.add(rect(7.509179710337886e-09, 2.5146945210169507e-09).transl(-1.3095585396445966e-08, -4e-08, 0))
hIsland = hIsland.add(rect(4.686835173039155e-09, 3.292151580789968e-11).transl(-1.85222485379279e-08, -4e-08, 0))
hIsland = hIsland.sub(rect(6.4811605522676835e-09, -6.88273838234102e-10).transl(5.4653951879632455e-08, -4e-08, 0))
hIsland = hIsland.sub(rect(9.423246263837935e-09, -1.485081700231174e-09).transl(1.012000336647137e-07, -4e-08, 0))
hIsland = hIsland.sub(rect(8.262991828177772e-09, -1.2771729941042598e-09).transl(1.0885794629240842e-07, -3.5393318866313316e-08, 0))
hIsland = hIsland.sub(rect(9.794521597990668e-09, -8.017494242593515e-11).transl(8.195831071853833e-08, -4e-08, 0))
hIsland = hIsland.add(rect(5.819018326514502e-09, 1.0391086123892032e-09).transl(3.314331078381047e-08, -4e-08, 0))
hIsland = hIsland.add(rect(7.841014680462492e-09, 3.9475653999034146e-10).transl(3.73685739944236e-08, -4e-08, 0))
hIsland = hIsland.add(rect(4.163392018713125e-09, 5.09237921614643e-10).transl(5.658954341272886e-08, -4e-08, 0))
hIsland = hIsland.add(rect(5.110628628548598e-09, 3.5029241513741196e-10).transl(8.058801244167347e-08, -4e-08, 0))
hIsland = hIsland.add(rect(5.430626248054249e-09, 6.583918554729871e-10).transl(6.455151684528414e-08, -4e-08, 0))
hIsland = hIsland.sub(rect(3.5770360359714327e-09, -6.954092995383895e-10).transl(1.7240635670234157e-08, -4e-08, 0))
hIsland = hIsland.add(rect(8.263984079841475e-09, 1.8310653756546083e-09).transl(-2.012150299021993e-08, -4e-08, 0))
hIsland = hIsland.add(rect(5.896683591215178e-09, 9.655190746904287e-11).transl(-7.549986605761638e-08, -4e-08, 0))
hIsland = hIsland.add(rect(9.533381016511173e-09, 1.278097085289218e-09).transl(-7.255822036700644e-08, -4e-08, 0))
hIsland = hIsland.add(rect(2.6651938337483572e-09, 1.8799535857066096e-10).transl(-1.0771079195287203e-07, -3.722214209899595e-08, 0))
hIsland = hIsland.add(rect(6.4391250744384e-09, 1.954222572457921e-09).transl(-2.7464545771390885e-08, -4e-08, 0))
hIsland = hIsland.add(rect(2.4871662267828185e-09, 3.868337800700635e-11).transl(-6.057604173549442e-08, -4e-08, 0))
hIsland = hIsland.add(rect(5.855188140493195e-09, 4.0807229053205305e-10).transl(-1.0557289552441815e-07, -3.934482012363863e-08, 0))
hIsland = hIsland.add(rect(7.646463010374026e-09, 5.069905617327589e-11).transl(-4.1851982670534175e-08, -4e-08, 0))
hIsland = hIsland.sub(rect(3.790488875656162e-09, -2.243300970548167e-09).transl(9.846344699542328e-09, -4e-08, 0))
hIsland = hIsland.sub(rect(9.439604893239097e-09, -1.6398342935175518e-09).transl(1.0868197317047753e-07, -3.5708909945595124e-08, 0))
hIsland = hIsland.add(rect(3.4490556711767468e-09, 2.4289178456238465e-09).transl(-1.1233891969870256e-07, -2.558910414625916e-08, 0))
hIsland = hIsland.add(rect(7.459032278119196e-09, 3.116014021037225e-09).transl(-9.51978194179284e-08, -4e-08, 0))
hIsland = hIsland.sub(rect(3.4570387417331833e-09, -8.375834606261952e-10).transl(-1.768393909841225e-08, -4e-08, 0))
hIsland = hIsland.sub(rect(3.6812458294468934e-09, -4.951764415019837e-11).transl(1.0982444394395566e-07, -3.340785980888872e-08, 0))
hIsland = hIsland.add(rect(6.603743718211744e-09, 1.0340350758545706e-09).transl(4.830405204627101e-08, -4e-08, 0))
hIsland = hIsland.sub(rect(8.603432620919897e-09, -2.872072430979362e-09).transl(-7.622490604543407e-09, -4e-08, 0))
hIsland = hIsland.sub(rect(4.407878122007376e-09, -8.636720935573783e-11).transl(1.915004912019874e-08, -4e-08, 0))
hIsland = hIsland.add(rect(6.5777489715351315e-09, 4.734391168390605e-10).transl(2.1409968426681777e-08, -4e-08, 0))
hIsland = hIsland.sub(rect(2.1677188610425668e-09, -3.4977389702404566e-09).transl(-5.628667716244162e-08, -4e-08, 0))
hIsland = hIsland.sub(rect(2.292225464431055e-09, -1.3781087069458949e-09).transl(-3.265581741430582e-08, -4e-08, 0))
hIsland = hIsland.add(rect(6.698232142010531e-09, 6.792967248122191e-11).transl(6.637043059252433e-08, -4e-08, 0))
hIsland = hIsland.sub(rect(6.10691241291332e-09, -7.286246058565499e-10).transl(1.0468038934451619e-07, -3.9788732205610505e-08, 0))
hIsland = hIsland.sub(rect(5.7581244820541e-09, -3.320307249637042e-10).transl(-4.54662269751499e-08, -4e-08, 0))
hIsland = hIsland.add(rect(5.005468878478969e-09, 1.8302130394180666e-09).transl(-1.0802332940279884e-07, -3.677584332705625e-08, 0))
hIsland = hIsland.add(rect(7.275277611800366e-09, 3.238611367652752e-09).transl(2.3753053506880657e-09, -4e-08, 0))
hIsland = hIsland.add(rect(4.843985801248083e-09, 3.1706700553482237e-09).transl(5.245989767094634e-08, -4e-08, 0))
hIsland = hIsland.sub(rect(3.1840972963534394e-09, -2.1042757152657786e-09).transl(6.010169507541539e-08, -4e-08, 0))
hIsland = hIsland.sub(rect(5.558990536817635e-09, -3.821877591043665e-10).transl(-4.612414500724063e-08, -4e-08, 0))
hIsland = hIsland.add(rect(7.66378526278242e-09, 1.2369024453935748e-09).transl(5.080986368026539e-08, -4e-08, 0))
hIsland = hIsland.add(rect(9.468657033459204e-09, 1.2946156113900298e-09).transl(2.936102440907938e-08, -4e-08, 0))
hIsland = hIsland.add(rect(5.9310137682478216e-09, 2.28478979827629e-10).transl(-1.2780738684789083e-08, -4e-08, 0))
hIsland = hIsland.add(rect(7.474548774434947e-09, 6.854022248565999e-10).transl(6.993618015585413e-09, -4e-08, 0))
hIsland = hIsland.sub(rect(9.113669911847372e-09, -1.5085016485556027e-09).transl(1.4391697664070363e-08, -4e-08, 0))
hIsland = hIsland.add(rect(7.879895741483893e-09, 9.634724662376668e-10).transl(-1.9280182610351874e-08, -4e-08, 0))
hIsland = hIsland.add(rect(3.733187351909023e-09, 9.365959583351407e-10).transl(-6.102699435078108e-08, -4e-08, 0))
hIsland = hIsland.sub(rect(8.188049930600226e-09, -1.4725181886548085e-09).transl(5.85208681142654e-08, -4e-08, 0))
hIsland = hIsland.add(rect(4.823345206521216e-09, 3.3042630249923784e-09).transl(-8.179183785928558e-08, -4e-08, 0))
hIsland = hIsland.add(rect(9.043033061269955e-09, 1.1270398984973212e-09).transl(8.811589925612113e-08, -4e-08, 0))
hIsland = hIsland.sub(rect(8.5044688940648e-09, -2.465813721049446e-09).transl(-8.557420636849134e-08, -4e-08, 0))
hIsland = hIsland.sub(rect(3.3359540497619787e-09, -2.652224584135538e-10).transl(-1.4458203605985295e-09, -4e-08, 0))
hIsland = hIsland.sub(rect(2.9644183326927316e-09, -2.3100381272481226e-10).transl(4.07625736547203e-08, -4e-08, 0))
hIsland = hIsland.add(rect(4.977124034404832e-09, 1.526930980425004e-09).transl(-1.1390144181463036e-10, -4e-08, 0))
hIsland = hIsland.add(rect(9.896306619748864e-09, 7.21338162767123e-11).transl(-7.885807103887952e-09, -4e-08, 0))
hIsland = hIsland.add(rect(4.0367059750885854e-09, 1.6329148537893318e-09).transl(4.2579321750794705e-08, -4e-08, 0))
hIsland = hIsland.sub(rect(2.259876264665615e-09, -5.715913668807494e-10).transl(-7.740481802272086e-09, -4e-08, 0))
hIsland = hIsland.add(rect(7.0209095223866976e-09, 1.2629257842223833e-09).transl(1.558788927019405e-08, -4e-08, 0))
hIsland = hIsland.add(rect(6.363202417060453e-09, 4.0342265737268695e-09).transl(7.024064601468545e-08, -4e-08, 0))
hIsland = hIsland.add(rect(5.912346060509263e-09, 6.341347870297737e-09).transl(-1.1285518435468244e-07, -2.326291597724686e-08, 0))
hIsland = hIsland.sub(rect(8.511278381670181e-09, -3.0872619801224422e-09).transl(8.601127858492505e-08, -4e-08, 0))
hIsland = hIsland.sub(rect(2.92167345839027e-09, -1.5264308469711375e-09).transl(8.650687233624821e-08, -4e-08, 0))
hIsland = hIsland.sub(rect(3.80779276276575e-09, -8.616065347009644e-10).transl(-1.1423679532085263e-07, -1.4329095014669118e-08, 0))
hIsland = hIsland.add(rect(2.799755624817917e-09, 2.2781801180852223e-09).transl(-3.8937875754959325e-08, -4e-08, 0))
hIsland = hIsland.add(rect(4.492998367227165e-09, 2.852621009598357e-09).transl(-1.1157438473077954e-07, -2.8482329341109087e-08, 0))
hIsland = hIsland.add(rect(2.0105401379501544e-09, 1.397795249199571e-09).transl(3.8709994337182705e-08, -4e-08, 0))
hIsland = hIsland.add(rect(2.5227788490283766e-09, 5.459658280678269e-10).transl(7.66068396072896e-08, -4e-08, 0))
hIsland = hIsland.sub(rect(6.111319082187221e-09, -6.922010475354654e-10).transl(-9.136822894377441e-08, -4e-08, 0))
hIsland = hIsland.sub(rect(4.538814594536998e-09, -5.970980551656523e-10).transl(4.135359606183709e-08, -4e-08, 0))
hIsland = hIsland.add(rect(4.672200285364646e-09, 2.3641293750525367e-09).transl(-3.2123659501970886e-08, -4e-08, 0))
hIsland = hIsland.sub(rect(6.946100917164838e-09, -1.6374484813291333e-09).transl(2.270808758400102e-08, -4e-08, 0))
hIsland = hIsland.sub(rect(6.436538741458083e-09, -1.636213187927328e-11).transl(-5.352323374745011e-08, -4e-08, 0))
hIsland = hIsland.sub(rect(3.6500858038821895e-09, -1.276578718681194e-09).transl(5.1401882260858614e-08, -4e-08, 0))
hIsland = hIsland.sub(rect(9.775521395766464e-09, -5.278483656685177e-10).transl(4.285937124135412e-08, -4e-08, 0))
hIsland = hIsland.sub(rect(5.410882506468953e-09, -1.037039692642687e-09).transl(-2.097262170330231e-08, -4e-08, 0))
hIsland = hIsland.sub(rect(2.0517199698767394e-09, -1.189551964518395e-09).transl(6.009930603683385e-08, -4e-08, 0))
hIsland = hIsland.sub(rect(3.1639993134791534e-09, -2.057353292605718e-09).transl(2.686744731204239e-08, -4e-08, 0))
hIsland = hIsland.add(rect(8.8154008760948e-09, 9.63687582087331e-10).transl(1.0823955037082841e-07, -3.644491502275134e-08, 0))
hIsland = hIsland.sub(rect(2.4272748062579447e-09, -4.892948102286923e-10).transl(1.1987916766067716e-08, -4e-08, 0))
hIsland = hIsland.add(rect(4.1970415831491955e-09, 4.1862725955473234e-09).transl(-3.070034725169292e-08, -4e-08, 0))
hIsland = hIsland.sub(rect(6.722465999737158e-09, -1.517363987429388e-09).transl(1.577602351296625e-08, -4e-08, 0))
hIsland = hIsland.add(rect(9.592128725764192e-09, 1.828960580904529e-09).transl(1.109209282615166e-07, -3.0557234158119904e-08, 0))
hIsland = hIsland.add(rect(5.369884832429744e-09, 2.0224588428279682e-09).transl(2.9257891511969277e-09, -4e-08, 0))
hIsland = hIsland.add(rect(8.317274118849877e-09, 5.600491121971497e-10).transl(8.97695720115449e-08, -4e-08, 0))
hIsland = hIsland.sub(rect(4.995416188885072e-09, -2.298176410226464e-09).transl(4.208146556533111e-08, -4e-08, 0))
hIsland = hIsland.sub(rect(2.8189838904847236e-09, -4.897021535468675e-09).transl(-1.080353981211248e-07, -3.6757856016415404e-08, 0))
hIsland = hIsland.sub(rect(9.157838661508857e-09, -9.585592279712702e-10).transl(2.4503114915928444e-08, -4e-08, 0))
hIsland = hIsland.sub(rect(2.1781379599944402e-09, -1.3865312236615897e-09).transl(3.7150337160884396e-08, -4e-08, 0))
hIsland = hIsland.sub(rect(9.344481606747046e-09, -2.207034125313978e-09).transl(-2.69842100104478e-08, -4e-08, 0))
hIsland = hIsland.add(rect(8.21825953454758e-09, 1.7832123921177478e-09).transl(6.967372324403535e-08, -4e-08, 0))
hIsland = hIsland.add(rect(4.653619691597995e-09, 3.5827605665010037e-09).transl(-3.554998221412021e-08, -4e-08, 0))
hIsland = hIsland.add(rect(4.409806246529698e-09, 1.8923799669123847e-09).transl(5.4944386961939944e-08, -4e-08, 0))
hIsland = hIsland.sub(rect(6.932762335954898e-09, -8.895672025945158e-10).transl(-9.619091665773109e-08, -4e-08, 0))
hIsland = hIsland.add(rect(6.740573606759498e-09, 1.1160083626037961e-09).transl(-5.3179269361234974e-08, -4e-08, 0))
hIsland = hIsland.sub(rect(7.409604579839114e-09, -1.1689516847271575e-09).transl(-1.4995656983077933e-08, -4e-08, 0))
hIsland = hIsland.add(rect(7.763387537065294e-09, 1.482822952478272e-09).transl(-3.813991832473858e-09, -4e-08, 0))
hIsland = hIsland.add(rect(2.053617752918875e-09, 1.2289794209613927e-10).transl(-9.270478473819103e-08, -4e-08, 0))
hIsland = hIsland.sub(rect(3.7963815846249125e-09, -6.139076411712977e-10).transl(1.8492875480609223e-08, -4e-08, 0))
hIsland = hIsland.sub(rect(2.0051883671382704e-09, -2.1691975531704517e-09).transl(-2.11922872442984e-08, -4e-08, 0))
hIsland = hIsland.add(rect(6.1809406551027806e-09, 1.0549748495125224e-09).transl(-2.7825139843860836e-08, -4e-08, 0))
hIsland = hIsland.add(rect(5.708626267559111e-09, 1.3585687522165663e-09).transl(8.037437716980371e-08, -4e-08, 0))
hIsland = hIsland.sub(rect(7.687852813927442e-09, -4.5808508776422e-10).transl(-4.407390430955253e-08, 4e-08, 0))
hIsland = hIsland.sub(rect(2.199559570827556e-09, -5.336362348617485e-11).transl(-3.833337282502081e-09, 4e-08, 0))
hIsland = hIsland.add(rect(3.583338940697802e-09, 2.41857064954389e-09).transl(6.264518026768936e-08, 4e-08, 0))
hIsland = hIsland.add(rect(3.6112302069178643e-09, 2.327033158370667e-09).transl(-5.39532457708083e-08, 4e-08, 0))
hIsland = hIsland.add(rect(6.982452547997217e-09, 1.9834693580628663e-09).transl(-9.802047865066912e-08, 4e-08, 0))
hIsland = hIsland.sub(rect(4.935047449476032e-09, -5.938533324368993e-10).transl(8.368422401862106e-08, 4e-08, 0))
hIsland = hIsland.add(rect(2.3882626106936158e-09, 3.5255689229337425e-10).transl(-1.0585158304602816e-07, 3.9154783872084664e-08, 0))
hIsland = hIsland.add(rect(8.280576963710591e-09, 1.0319643777851018e-09).transl(3.548571163340683e-08, 4e-08, 0))
hIsland = hIsland.add(rect(9.96798303906163e-09, 1.3420448843482214e-09).transl(5.41845290037425e-08, 4e-08, 0))
hIsland = hIsland.add(rect(9.064403249805228e-09, 1.500643595913434e-09).transl(5.4905313989324025e-08, 4e-08, 0))
hIsland = hIsland.sub(rect(5.080441832860871e-09, -1.0211125492429854e-09).transl(-6.804362595397635e-08, 4e-08, 0))
hIsland = hIsland.add(rect(6.976934223878846e-09, 2.771354965200817e-09).transl(1.293872534761474e-08, 4e-08, 0))
hIsland = hIsland.add(rect(2.8075110472325745e-09, 1.927679220413494e-09).transl(-6.014679255168603e-08, 4e-08, 0))
hIsland = hIsland.sub(rect(6.341104455895746e-09, -5.449147368876636e-10).transl(7.431154872220556e-08, 4e-08, 0))
hIsland = hIsland.add(rect(9.53936291921686e-09, 2.0824548488273047e-09).transl(-9.779860326113313e-08, 4e-08, 0))
hIsland = hIsland.add(rect(3.891887977300741e-09, 1.492819465205322e-09).transl(6.134853310087819e-08, 4e-08, 0))
hIsland = hIsland.add(rect(6.171697842321157e-09, 3.0274378703527647e-09).transl(-5.879106378291277e-09, 4e-08, 0))
hIsland = hIsland.sub(rect(2.2284844711260964e-09, -2.6484706918692888e-11).transl(-6.501016682360688e-08, 4e-08, 0))
hIsland = hIsland.sub(rect(4.544255995166093e-09, -5.732795967952562e-10).transl(-9.324764749793476e-08, 4e-08, 0))
hIsland = hIsland.add(rect(9.248272545319856e-09, 2.0460527459813337e-09).transl(9.113837181622787e-08, 4e-08, 0))
hIsland = hIsland.sub(rect(5.746554736706215e-09, -9.164173963813746e-13).transl(-2.8934443791873174e-08, 4e-08, 0))
hIsland = hIsland.add(rect(3.5278335524932863e-09, 2.648856125511897e-10).transl(-2.3221001571898207e-08, 4e-08, 0))
hIsland = hIsland.add(rect(9.372224938343418e-09, 1.0407874219627608e-09).transl(-1.0512186993173006e-07, 3.960020055698387e-08, 0))
hIsland = hIsland.add(rect(3.486244077447199e-09, 1.0709320291250597e-09).transl(5.186711450568861e-08, 4e-08, 0))
hIsland = hIsland.sub(rect(4.851773440976007e-09, -8.2772331735579e-10).transl(-1.088523355430833e-07, 3.540358795214171e-08, 0))
hIsland = hIsland.sub(rect(9.065062714105554e-09, -3.270050957498687e-09).transl(-4.695838091991859e-08, 4e-08, 0))
hIsland = hIsland.add(rect(5.50814990777631e-09, 2.0569620808240213e-09).transl(7.975343095351122e-08, 4e-08, 0))
hIsland = hIsland.sub(rect(5.320527636891986e-09, -2.4014451892342968e-09).transl(6.032689821050847e-08, 4e-08, 0))
hIsland = hIsland.sub(rect(7.63138894185093e-09, -1.036262972136628e-09).transl(3.2428844484155505e-08, 4e-08, 0))
hIsland = hIsland.add(rect(6.973194744038426e-09, 2.460841135805988e-09).transl(9.203529133120578e-08, 4e-08, 0))
hIsland = hIsland.add(rect(3.190007284642895e-09, 1.3326661892804355e-09).transl(-5.451144022724286e-09, 4e-08, 0))
hIsland = hIsland.sub(rect(6.465808427293636e-09, -2.5621327803851974e-09).transl(1.654092911561973e-08, 4e-08, 0))
hIsland = hIsland.sub(rect(2.244208786134867e-09, -2.242883798242808e-09).transl(-6.742942916543023e-08, 4e-08, 0))
hIsland = hIsland.add(rect(6.083137377209266e-09, 2.0049364232088996e-09).transl(-8.935632606266495e-08, 4e-08, 0))
hIsland = hIsland.sub(rect(7.2855044889755294e-09, -2.7258662026848933e-09).transl(-8.106989308412128e-08, 4e-08, 0))
hIsland = hIsland.sub(rect(6.467746012596303e-09, -1.1927004062563044e-09).transl(8.237583707367626e-08, 4e-08, 0))
hIsland = hIsland.sub(rect(2.9846965592275298e-09, -2.238389680311079e-09).transl(-4.4732139822344314e-08, 4e-08, 0))
hIsland = hIsland.sub(rect(3.776688583362141e-09, -1.5876617157359818e-09).transl(9.743246857320657e-08, 4e-08, 0))
hIsland = hIsland.sub(rect(6.1228553675487085e-09, -2.254996049987748e-09).transl(1.143190504388713e-07, 1.3559931010596265e-08, 0))
hIsland = hIsland.add(rect(2.558048027974513e-09, 1.3817748366729586e-10).transl(7.392503178529425e-08, 4e-08, 0))
hIsland = hIsland.sub(rect(6.33189670169659e-09, -2.7076414399616827e-09).transl(-4.8829765126602695e-09, 4e-08, 0))
hIsland = hIsland.sub(rect(8.941474842700135e-09, -4.847314185546252e-10).transl(-2.7146780948476797e-08, 4e-08, 0))
hIsland = hIsland.sub(rect(8.259699693825908e-09, -2.613596336619373e-10).transl(4.928165650741154e-09, 4e-08, 0))
hIsland = hIsland.sub(rect(6.850015182363958e-09, -3.5093897886123682e-09).transl(-2.6562753246496343e-08, 4e-08, 0))
hIsland = hIsland.sub(rect(7.373881298562462e-09, -2.314979412837721e-09).transl(-5.930884068710405e-08, 4e-08, 0))
hIsland = hIsland.add(rect(7.09892526322129e-09, 1.1636410214905566e-09).transl(9.540294762994599e-09, 4e-08, 0))
hIsland = hIsland.sub(rect(8.047177566390331e-09, -1.9705460728917312e-09).transl(-9.946375398064846e-08, 4e-08, 0))
hIsland = hIsland.add(rect(8.758140856018263e-09, 1.2422710295107786e-09).transl(1.1495482804520517e-07, 3.541878142480841e-09, 0))
hIsland = hIsland.add(rect(6.798019516774814e-09, 1.3130485755605777e-09).transl(9.377546111717852e-08, 4e-08, 0))
hIsland = hIsland.sub(rect(3.4170168599081986e-09, -1.7883820246389166e-10).transl(-4.2971777811678885e-08, 4e-08, 0))
hIsland = hIsland.sub(rect(2.3801629804224707e-09, -3.4708549108185043e-09).transl(1.0357523447435431e-07, 3.999914400201191e-08, 0))
hIsland = hIsland.add(rect(3.5984925248109587e-09, 2.9131458925327403e-09).transl(3.252985087803562e-08, 4e-08, 0))
hIsland = hIsland.add(rect(7.692909134446908e-09, 9.305681656609825e-10).transl(3.793306945376289e-09, 4e-08, 0))
hIsland = hIsland.sub(rect(2.4267855905124298e-09, -3.5510480877945595e-09).transl(-5.5703902064688133e-08, 4e-08, 0))
hIsland = hIsland.add(rect(7.350751919333131e-09, 5.117247231066091e-10).transl(7.786068228623911e-08, 4e-08, 0))
hIsland = hIsland.sub(rect(8.778680112455515e-09, -1.8052129731306576e-09).transl(6.69811744646805e-08, 4e-08, 0))
hIsland = hIsland.add(rect(3.38076589562174e-09, 1.5231192335697284e-09).transl(-2.3353743380204826e-09, 4e-08, 0))
hIsland = hIsland.sub(rect(4.034096977597461e-09, -1.062547035546318e-09).transl(7.203827171407684e-08, 4e-08, 0))
hIsland = hIsland.sub(rect(6.16936953542136e-09, -6.66313440748055e-10).transl(-2.082931837934967e-08, 4e-08, 0))
hIsland = hIsland.sub(rect(6.772177704708385e-09, -1.4574093130084597e-09).transl(5.9563362037724205e-08, 4e-08, 0))
[...]
hIsland = hIsland.sub(rect(5.452758479470327e-09, -4.494103934405055e-10).transl(-6.426798455520881e-08, 4e-08, 0))
hIsland = hIsland.add(rect(5.82290203413461e-09, 1.1489197951655265e-09).transl(7.538945706776068e-08, 4e-08, 0))
hIsland = hIsland.sub(rect(4.675634720052539e-09, -2.9926552185883465e-09).transl(-4.78569438933671e-08, 4e-08, 0))
hIsland = hIsland.sub(rect(4.446750236899139e-09, -1.855834485304022e-11).transl(3.2084957259999055e-08, 4e-08, 0))
hIsland = hIsland.add(rect(3.137879686653322e-09, 2.600910080328817e-09).transl(-7.584397576478747e-08, 4e-08, 0))
hIsland = hIsland.add(rect(6.882853018904483e-09, 1.5903878042353596e-09).transl(7.96940900132571e-08, 4e-08, 0))
hIsland = hIsland.add(rect(4.645323335189936e-09, 1.4637592504800293e-09).transl(-4.350065510831711e-08, 4e-08, 0))
hIsland = hIsland.add(rect(5.225724030092e-09, 6.036313173548562e-10).transl(7.144704948923928e-08, 4e-08, 0))
hIsland = hIsland.add(rect(7.232442964211629e-09, 3.406342705078699e-09).transl(-1.1104158874907043e-07, 3.019772304838315e-08, 0))
hIsland = hIsland.sub(rect(9.006610687213304e-09, -1.337817884462355e-09).transl(-7.43485427237239e-08, 4e-08, 0))
hIsland = hIsland.sub(rect(3.5369639397786303e-09, -9.584217100189659e-10).transl(5.827111942118339e-08, 4e-08, 0))
hIsland = hIsland.add(rect(3.4804061120203277e-09, 7.97407259776445e-10).transl(2.3978299625305878e-08, 4e-08, 0))
hIsland = hIsland.sub(rect(3.981013284580553e-09, -1.3636214905320127e-09).transl(-2.289250640006573e-08, 4e-08, 0))
hIsland = hIsland.add(rect(6.353928734706563e-09, 2.2150815073829536e-09).transl(4.968188871246943e-08, 4e-08, 0))
hIsland = hIsland.add(rect(2.4766935383389416e-09, 1.403763518334394e-09).transl(8.602781115744634e-08, 4e-08, 0))
hIsland = hIsland.add(rect(2.977851346679074e-09, 1.2352319447160437e-09).transl(-4.0159407444932514e-08, 4e-08, 0))
hIsland = hIsland.add(rect(3.4700210396400276e-09, 1.4474717952979895e-09).transl(8.404558735871734e-08, 4e-08, 0))
hIsland = hIsland.sub(rect(5.738360504258436e-09, -5.239216019539698e-10).transl(-2.7044393405804284e-08, 4e-08, 0))
hIsland = hIsland.sub(rect(9.53575368247757e-09, -1.416508549539002e-09).transl(7.580431822104934e-08, 4e-08, 0))
hIsland = hIsland.sub(rect(5.736012408464938e-09, -1.8396088758523446e-09).transl(-4.238228215445297e-08, 4e-08, 0))
hIsland = hIsland.add(rect(7.785646423726074e-09, 1.612950943452589e-09).transl(-1.0193506026414736e-08, 4e-08, 0))
hIsland = hIsland.add(rect(3.699691631330482e-09, 1.0997247264105275e-09).transl(-6.317749763751722e-08, 4e-08, 0))
hIsland = hIsland.add(rect(8.818275995657502e-09, 4.464605051178779e-09).transl(-6.25526158467425e-08, 4e-08, 0))
hIsland = hIsland.add(rect(9.9267105246235e-09, 8.768421203585492e-10).transl(-7.372079330389219e-08, 4e-08, 0))
hIsland = hIsland.add(rect(2.973415389360051e-09, 2.6244939094540105e-09).transl(3.405071670082002e-08, 4e-08, 0))
hIsland = hIsland.sub(rect(8.048358730769051e-09, -3.882846149674294e-11).transl(-3.3273350052362103e-09, 4e-08, 0))
hIsland = hIsland.sub(rect(5.845407635502828e-09, -1.8876508445870666e-09).transl(-2.1487047634725156e-08, 4e-08, 0))
hIsland = hIsland.add(rect(7.775404939074954e-09, 1.9710050282859806e-09).transl(6.413145679153677e-08, 4e-08, 0))
hIsland = hIsland.sub(rect(9.172624842253865e-09, -2.560187693081308e-10).transl(5.445314641587292e-08, 4e-08, 0))
hIsland = hIsland.sub(rect(2.467281801761279e-09, -1.8367303925565694e-09).transl(5.653617649541393e-08, 4e-08, 0))
hIsland = hIsland.sub(rect(3.416148596119133e-09, -1.1660921789704332e-09).transl(-7.898049667183192e-08, 4e-08, 0))
hIsland = hIsland.add(rect(2.9688001735876226e-09, 8.93397158072915e-11).transl(7.662435437333483e-08, 4e-08, 0))
hIsland = hIsland.sub(rect(3.095774220248295e-09, -9.021184090349912e-10).transl(-3.02341017112906e-08, 4e-08, 0))
hIsland = hIsland.sub(rect(3.7792786622323285e-09, -3.3502909309803515e-09).transl(6.648525281922098e-09, 4e-08, 0))
hIsland = hIsland.add(rect(2.3459889451027415e-09, 1.164962664860106e-10).transl(-1.424545587840026e-08, 4e-08, 0))
hIsland = hIsland.sub(rect(6.272574823710783e-09, -1.5753641668993337e-09).transl(1.009837315234832e-07, 4e-08, 0))
hIsland = hIsland.add(rect(6.0979352944415765e-09, 1.264845290384715e-09).transl(9.064935380375096e-08, 4e-08, 0))
hIsland = hIsland.sub(rect(9.233451441432212e-09, -2.8186401117063127e-09).transl(-2.398313104084104e-08, 4e-08, 0))
hIsland = hIsland.sub(rect(6.002220050613186e-09, -3.234343298302733e-09).transl(6.159279979080836e-08, 4e-08, 0))
hIsland = hIsland.sub(rect(7.839937041899485e-09, -2.6577112391333004e-10).transl(-2.0832199661773625e-09, 4e-08, 0))
hIsland = hIsland.add(rect(9.451878697409979e-09, 1.3596350112656029e-09).transl(7.020889751171909e-08, 4e-08, 0))
hIsland = hIsland.add(rect(5.448615364536335e-09, 1.002355270620018e-09).transl(-7.264997851635534e-09, 4e-08, 0))
hIsland = hIsland.add(rect(2.9595987106148523e-09, 3.213449985034425e-09).transl(6.377469617745879e-08, 4e-08, 0))
hIsland = hIsland.sub(rect(4.4186787159052884e-09, -2.8694647349242543e-10).transl(-5.719342182861853e-08, 4e-08, 0))
hIsland = hIsland.sub(rect(2.348540903491795e-09, -2.191814640815376e-09).transl(3.465079852793572e-08, 4e-08, 0))
hIsland = hIsland.sub(rect(6.377895600520937e-09, -2.5168033735392305e-09).transl(5.08079605037662e-08, 4e-08, 0))
hIsland = hIsland.add(rect(6.642697655783252e-09, 1.275280086954364e-09).transl(-9.286784964210652e-08, 4e-08, 0))
hIsland = hIsland.sub(rect(7.177578689199941e-09, -5.283090403623496e-10).transl(2.94008572908421e-08, 4e-08, 0))
hIsland = hIsland.sub(rect(5.757822552871978e-09, -2.8734035787527786e-09).transl(2.5254635193006962e-08, 4e-08, 0))
hIsland = hIsland.sub(rect(5.460738176673007e-09, -4.047842223405017e-09).transl(-4.735408159215366e-08, 4e-08, 0))
hIsland = hIsland.add(rect(9.321895811959561e-09, 2.217174895592874e-09).transl(-2.08097891265688e-08, 4e-08, 0))
hIsland = hIsland.add(rect(8.342478800042416e-09, 2.4237174903474193e-09).transl(7.317663895693214e-08, 4e-08, 0))
hIsland = hIsland.sub(rect(6.509749129448172e-09, -3.4365226054712733e-09).transl(1.1389356544001605e-07, 1.7119192053477036e-08, 0))
hIsland = hIsland.add(rect(4.880678201714702e-09, 8.149757461504413e-10).transl(-4.049451200889956e-08, 4e-08, 0))
hIsland = hIsland.sub(rect(5.106071344325983e-09, -2.9387588856690268e-09).transl(-1.334099139086757e-08, 4e-08, 0))
hIsland = hIsland.add(rect(6.568936122097431e-09, 3.814908172184551e-10).transl(-2.4387661793688752e-08, 4e-08, 0))
hIsland = hIsland.add(rect(3.5500121810847506e-09, 2.9761960458659818e-09).transl(3.4959251579964067e-09, 4e-08, 0))
hIsland = hIsland.add(rect(3.670151344889764e-09, 3.6043314136414567e-09).transl(1.0136465612383934e-08, 4e-08, 0))
hIsland = hIsland.sub(rect(5.7642405405629695e-09, -1.8436404911999338e-10).transl(1.4433341643686674e-08, 4e-08, 0))
hIsland = hIsland.sub(rect(6.055248174583177e-09, -1.8065215847027735e-09).transl(4.884820164973928e-08, 4e-08, 0))
hIsland = hIsland.add(rect(9.027218369866069e-09, 2.16703086084033e-09).transl(5.9591058473953176e-08, 4e-08, 0))
hIsland = hIsland.add(rect(5.050757947834659e-09, 1.4380657148391388e-09).transl(3.143125744000637e-08, 4e-08, 0))
hIsland = hIsland.add(rect(6.617928305539895e-09, 1.96000717602406e-09).transl(9.966041102583134e-08, 4e-08, 0))
hIsland = hIsland.add(rect(8.672863884741352e-09, 7.331082622642529e-10).transl(-3.6094235281098575e-08, 4e-08, 0))
hIsland = hIsland.add(rect(3.952975841343054e-09, 1.6751837805435477e-09).transl(-9.706927211447669e-08, 4e-08, 0))
hIsland = hIsland.add(rect(4.734744064455661e-09, 9.563211422961057e-10).transl(3.9055702790397314e-08, 4e-08, 0))
hIsland = hIsland.sub(rect(9.806342887493569e-09, -1.0171288100692251e-10).transl(1.4442419691972848e-08, 4e-08, 0))
hIsland = hIsland.add(rect(8.788852846626885e-09, 3.2938159576842883e-09).transl(-7.058205788666494e-08, 4e-08, 0))
hIsland = hIsland.add(rect(7.71949092294415e-09, 6.72407871933022e-10).transl(-7.314075903304898e-08, 4e-08, 0))
hIsland = hIsland.sub(rect(3.458327271939661e-09, -1.7654889108476275e-09).transl(-1.0962469800698946e-07, 3.3855125449802e-08, 0))
hIsland = hIsland.add(rect(8.150367938998317e-09, 3.582629386689845e-10).transl(9.871458856588356e-08, 4e-08, 0))
hIsland = hIsland.add(rect(5.045735965283586e-09, 7.849848947781671e-10).transl(1.0487638625994299e-07, 3.971247297135973e-08, 0))
hIsland = hIsland.sub(rect(6.8078111518383144e-09, -3.8696071188266785e-09).transl(9.965431399469056e-08, 4e-08, 0))
hIsland = hIsland.add(rect(8.154622645685701e-09, 1.618821557223812e-09).transl(5.3116872059204106e-08, 4e-08, 0))
hIsland = hIsland.sub(rect(3.6286932690979104e-09, -2.1713058444362382e-10).transl(-8.752495602383904e-08, 4e-08, 0))
hIsland = hIsland.sub(rect(3.7234654653606426e-09, -1.1489522675601324e-09).transl(-8.805489902761945e-08, 4e-08, 0))
hIsland = hIsland.sub(rect(6.287385748686454e-09, -9.865372362708304e-10).transl(-3.6382200193735055e-08, 4e-08, 0))
hIsland = hIsland.add(rect(2.491985812792628e-09, 3.2306468443709016e-10).transl(1.1150349635503562e-07, 2.872336919012886e-08, 0))
hIsland = hIsland.sub(rect(5.648289980051957e-09, -5.177619605133671e-10).transl(9.808842911066127e-08, 4e-08, 0))
hIsland = hIsland.add(rect(6.272527541700381e-09, 1.1729124525417248e-09).transl(4.501906097780789e-08, 4e-08, 0))
hIsland = hIsland.sub(rect(6.610053441964496e-09, -3.5903574632241505e-09).transl(-8.958977381334712e-08, 4e-08, 0))
hIsland = hIsland.sub(rect(9.460584821489948e-09, -1.114668191452519e-09).transl(9.518147197490133e-08, 4e-08, 0))
hIsland = hIsland.sub(rect(6.009977499187098e-09, -1.882591622299117e-09).transl(-3.7633191170696854e-08, 4e-08, 0))
hIsland = hIsland.sub(rect(2.885289301892454e-09, -1.3485370800293794e-09).transl(-5.968436620204012e-08, 4e-08, 0))
hIsland = hIsland.add(rect(9.759083664893308e-09, 4.103126992057592e-09).transl(-2.7985096614757944e-08, 4e-08, 0))
hIsland = hIsland.add(rect(6.423519084657498e-09, 4.561227309116472e-09).transl(-4.0409877551285325e-08, 4e-08, 0))
hIsland = hIsland.sub(rect(5.3349182973125314e-09, -1.445440874384199e-09).transl(5.696415198657477e-08, 4e-08, 0))
hIsland = hIsland.sub(rect(4.390055273027289e-09, -1.2358640781165936e-09).transl(-6.727307051649172e-08, 4e-08, 0))
hIsland = hIsland.sub(rect(3.516314512658653e-09, -1.1293629945029243e-09).transl(-1.0232897750647412e-07, 4e-08, 0))
hIsland = hIsland.sub(rect(5.809244574723717e-09, -3.1202000047854484e-10).transl(1.1446810207845287e-07, 1.2024291379242989e-08, 0))
hIsland = hIsland.sub(rect(7.508931525749247e-09, -3.0835394641666353e-09).transl(-5.2320030473277433e-08, 4e-08, 0))
hIsland = hIsland.sub(rect(8.05643799564884e-09, -1.0945263889877067e-09).transl(2.818311199643033e-08, 4e-08, 0))
hIsland = hIsland.sub(rect(7.442308840541389e-09, -2.276005631071996e-09).transl(-8.48667698902835e-09, 4e-08, 0))
hIsland = hIsland.add(rect(8.155125733835096e-09, 1.019450609236795e-09).transl(-2.683354862774099e-08, 4e-08, 0))
hIsland = hIsland.sub(rect(4.67456217774179e-09, -3.3573891387912604e-09).transl(-1.0692665665569471e-07, 3.818300759867803e-08, 0))
hIsland = hIsland.sub(rect(9.396493693610154e-09, -5.812891388805874e-09).transl(1.0475925705234976e-07, 3.975946912519542e-08, 0))
hIsland = hIsland.sub(rect(6.1617820930480905e-09, -1.2373738972313992e-09).transl(1.1158764028108068e-07, 2.843679284134015e-08, 0))
hIsland = hIsland.sub(rect(5.7375339317046146e-09, -2.4641053710109528e-09).transl(-8.38176109219399e-08, 4e-08, 0))
hIsland = hIsland.add(rect(9.215902591302512e-09, 1.4470706023754566e-09).transl(4.480664928582061e-08, 4e-08, 0))
hIsland = hIsland.add(rect(6.044643985823591e-09, 3.2514623264530025e-09).transl(-3.0573972638946344e-08, 4e-08, 0))
hIsland = hIsland.sub(rect(3.366183789243265e-09, -2.022864643644843e-09).transl(6.352668726333356e-08, 4e-08, 0))
hIsland = hIsland.sub(rect(9.891671983977275e-09, -1.4506529428169884e-09).transl(-7.017799004988412e-08, 4e-08, 0))
hIsland = hIsland.sub(rect(2.1583187754873815e-09, -2.5583420465671023e-09).transl(9.405438856529166e-08, 4e-08, 0))
hIsland = hIsland.add(rect(6.03305775776112e-09, 2.420239890334524e-09).transl(9.336814787705137e-08, 4e-08, 0))
hIsland = hIsland.sub(rect(8.430290926667646e-09, -8.844701422228222e-10).transl(-4.671689723879114e-08, 4e-08, 0))
hIsland = hIsland.add(rect(8.271945287381415e-09, 2.8894048539756888e-09).transl(-6.802751168519338e-08, 4e-08, 0))
hIsland = hIsland.add(rect(7.766459892074982e-09, 1.4182406752249738e-09).transl(-4.0031694301604424e-08, 4e-08, 0))
hIsland = hIsland.add(rect(4.545377745872282e-09, 2.5339336541481198e-09).transl(-3.429819421897519e-08, 4e-08, 0))
hIsland = hIsland.add(rect(7.730668520721705e-09, 1.139904983188289e-09).transl(8.600850069574272e-08, 4e-08, 0))
hIsland = hIsland.add(rect(5.389017148273138e-09, 2.46016745750847e-09).transl(-4.631617173911936e-08, 4e-08, 0))
hIsland = hIsland.add(rect(4.872735374147267e-09, 7.571888406657601e-10).transl(-3.086325910994513e-08, 4e-08, 0))
hIsland = hIsland.add(rect(3.4387532231719115e-09, 1.477342454231851e-10).transl(-1.0493282065734887e-07, 3.96883168556824e-08, 0))
hIsland = hIsland.add(rect(3.4181205463034497e-09, 9.75047289320157e-10).transl(-1.0046022953570452e-07, 4e-08, 0))
hIsland = hIsland.sub(rect(3.7876578460572865e-09, -5.130630857051994e-10).transl(-8.639389148124414e-08, 4e-08, 0))
hIsland = hIsland.add(rect(7.12734784851116e-09, 1.1471677510212926e-10).transl(5.7540613667764166e-08, 4e-08, 0))
hIsland = hIsland.add(rect(4.41045354963231e-09, 5.641604243141805e-10).transl(-3.2213200234134157e-09, 4e-08, 0))
hIsland = hIsland.sub(rect(6.029203010341284e-09, -1.1863798336943957e-09).transl(3.332387523380919e-08, 4e-08, 0))
hIsland = hIsland.sub(rect(5.76499194866215e-09, -1.3952357495848183e-09).transl(4.2636943733402675e-08, 4e-08, 0))
hIsland = hIsland.add(rect(3.111857128640921e-09, 1.5519204391223542e-09).transl(4.0355685995921874e-08, 4e-08, 0))
hIsland = hIsland.sub(rect(7.631142625310567e-09, -6.035663820318902e-12).transl(3.2517536849549255e-08, 4e-08, 0))
hIsland = hIsland.add(rect(6.346776573529094e-09, 9.027864624385598e-10).transl(-6.352180091967724e-08, 4e-08, 0))
hIsland = hIsland.sub(rect(7.150480332592447e-09, -3.280280396882516e-09).transl(-7.76130102991303e-08, 4e-08, 0))
hIsland = hIsland.add(rect(9.819389602557884e-09, 6.932739906785777e-11).transl(-3.864440415442293e-08, 4e-08, 0))
hIsland = hIsland.sub(rect(5.4442976104997645e-09, -3.5833676203859005e-10).transl(6.903108904642377e-08, 4e-08, 0))
hIsland = hIsland.add(rect(9.796869634528347e-09, 1.9491507232507544e-09).transl(-9.809012984751374e-08, 4e-08, 0))
hIsland = hIsland.add(rect(4.767001207811177e-09, 1.518664031895071e-09).transl(5.8314735680771095e-08, 4e-08, 0))
hIsland = hIsland.sub(rect(6.356333318655617e-09, -1.2023370435314072e-09).transl(-2.7074827341885583e-09, 4e-08, 0))
hIsland = hIsland.add(rect(2.8003455650776596e-09, 1.191324707283644e-09).transl(-3.8568246265457675e-08, 4e-08, 0))
hIsland = hIsland.sub(rect(4.057725837868457e-09, -9.207323495816117e-10).transl(-8.82427509676669e-09, 4e-08, 0))
hIsland = hIsland.add(rect(5.406578808266669e-09, 2.8163388446130783e-09).transl(1.4661692085563507e-08, 4e-08, 0))
hIsland = hIsland.sub(rect(5.841537037737482e-09, -1.947326628513497e-11).transl(-8.480316403336556e-08, 4e-08, 0))
hIsland = hIsland.sub(rect(4.889766422598313e-09, -1.191881004207625e-09).transl(6.51418908115584e-09, 4e-08, 0))
hIsland = hIsland.sub(rect(8.025891699584079e-09, -7.375139011877221e-10).transl(-1.0671060458555642e-08, 4e-08, 0))
hIsland = hIsland.sub(rect(9.473346362719684e-09, -1.6946456478465542e-09).transl(6.449401471770184e-08, 4e-08, 0))
hIsland = hIsland.sub(rect(8.486170408397488e-09, -5.767992064650389e-10).transl(-6.719585890427448e-08, 4e-08, 0))
hIsland = hIsland.add(rect(8.101803672400327e-09, 8.938017428704597e-10).transl(-4.776939949719855e-08, 4e-08, 0))
hIsland = hIsland.sub(rect(3.7189760668458213e-09, -1.3063963839821775e-09).transl(-4.3491392331896144e-08, 4e-08, 0))
hIsland = hIsland.add(rect(8.573769657686458e-09, 6.100091095317687e-10).transl(-5.722292958124726e-08, 4e-08, 0))
hIsland = hIsland.add(rect(6.992746875821035e-09, 1.3426458270982857e-09).transl(-3.766988084543459e-08, 4e-08, 0))
hIsland = hIsland.sub(rect(9.397662795389716e-09, -1.4478904693633343e-09).transl(1.0820104182435345e-07, 3.650520632263988e-08, 0))
hIsland = hIsland.sub(rect(4.673977910672968e-09, -1.6055813433788817e-11).transl(5.769948877296663e-08, 4e-08, 0))
hIsland = hIsland.add(rect(2.381656015247085e-09, 1.1668848762965317e-09).transl(6.273216226424565e-08, 4e-08, 0))
hIsland = hIsland.add(rect(2.558231146860136e-09, 6.289289705843672e-11).transl(-3.4121244615016346e-08, 4e-08, 0))
hIsland = hIsland.sub(rect(2.6584275587985993e-09, -1.6228845493284272e-09).transl(1.4608421944810129e-09, 4e-08, 0))
hIsland = hIsland.sub(rect(4.126155148168099e-09, -3.193807360650786e-09).transl(-5.50753758079476e-08, 4e-08, 0))
hIsland = hIsland.sub(rect(7.480698830318907e-09, -3.236921595226627e-09).transl(-8.619716368136447e-08, 4e-08, 0))
hIsland = hIsland.sub(rect(8.14113079530868e-09, -5.185555086113835e-10).transl(-2.7563406160609157e-08, 4e-08, 0))
hIsland = hIsland.sub(rect(3.5656435439088777e-09, -3.4944041721079362e-09).transl(-8.029889243590915e-08, 4e-08, 0))
hIsland = hIsland.add(rect(5.806584821899824e-09, 7.93558234215971e-10).transl(-1.0256037574759088e-07, 4e-08, 0))
hIsland = hIsland.add(rect(7.1181802347645425e-09, 3.271157038716547e-09).transl(-1.1489345814504459e-07, 5.432227848499864e-09, 0))
hIsland = hIsland.sub(rect(4.184354509426228e-09, -3.124935620838488e-09).transl(2.5243987151194577e-08, 4e-08, 0))
hIsland = hIsland.sub(rect(2.998944931725686e-09, -9.1119140691538e-10).transl(6.430401048004602e-08, 4e-08, 0))
hIsland = hIsland.add(rect(6.321433224683943e-09, 1.4143734657161045e-09).transl(-6.498683349010105e-08, 4e-08, 0))
hIsland = hIsland.sub(rect(2.2470300727852014e-09, -4.5608179195461456e-10).transl(-7.290599387558258e-08, 4e-08, 0))
hIsland = hIsland.add(rect(3.3460408273594243e-09, 3.964366320517538e-10).transl(1.1327840682096893e-07, 2.1052175003107855e-08, 0))
hIsland = hIsland.sub(rect(7.906192835314422e-09, -6.131463401710671e-10).transl(-8.635852346426938e-08, 4e-08, 0))
hIsland = hIsland.add(rect(9.994630684300981e-09, 2.7262251637546733e-09).transl(5.292037576095067e-08, 4e-08, 0))
hIsland = hIsland.add(rect(7.015376162228232e-09, 1.6781604135800258e-09).transl(4.303063982751633e-09, 4e-08, 0))
hIsland = hIsland.sub(rect(7.764306321957408e-09, -9.096512048943958e-10).transl(1.0311409989866508e-07, 4e-08, 0))
hIsland = hIsland.sub(rect(4.2432203257367704e-09, -6.318412004327875e-10).transl(-1.0832602800202495e-08, 4e-08, 0))
hIsland = hIsland.sub(rect(3.225795708082763e-09, -3.0820659311455924e-09).transl(-9.722945692076117e-08, 4e-08, 0))
hIsland = hIsland.sub(rect(2.615770611791329e-09, -6.198612445322019e-11).transl(7.381222448727213e-08, 4e-08, 0))
hIsland = hIsland.add(rect(7.752706582215905e-09, 1.1170550259207595e-09).transl(-8.549691242971703e-08, 4e-08, 0))
vIsland = hIsland.rotz(pi / 2)
vIslands = vIslands.add(vIsland.transl(0, -a/2, 0))
DefRegion(1, hIslands)
DefRegion(2, vIslands)
TableAdd(m_full.Region(1))
TableAdd(m_full.Region(2))
setgeom(hIslands.add(vIslands))
save(geom)
r2o2 := sqrt(2) / 2
m = RandomMagSeed(4)
B_ext = vector(Bmax*r2o2, Bmax*r2o2, 0)
relax()
minimize()
for B := Bmax; B >= -Bmax; B -= Bstep {
	B_ext = vector(B*r2o2, B*r2o2, 0)
	minimize()
	tablesave()
}
//********************************************************************//
//Please cite the following references, relevant for your simulation. //
//See bibtex file in output folder for justification.                 //
//********************************************************************//
//   * Vansteenkiste et al., AIP Adv. 4, 107133 (2014).
//   * Exl et al., J. Appl. Phys. 115, 17D118 (2014).
