//mumax 3.10 [windows_amd64 go1.11.6(gc) CUDA-11.0]
//GPU info: NVIDIA GeForce RTX 3090(24575MB), CUDA Driver 12.0, cc=8.6, using cc=80 PTX
//(c) Arne Vansteenkiste, Dynamat LAB, Ghent University, Belgium
//This is free software without any warranty. See license.txt
//********************************************************************//
//  If you use mumax in any work or publication,                      //
//  we kindly ask you to cite the references in references.bib        //
//********************************************************************//
//output directory: r1;p0.5;a5.12e-07;l1.8000000000000002e-07;s0.out/
randSeed(0)
ThermSeed(0)
resolution := 2e-09
zResolution := 5e-09
a := 5.12e-07
gridSize := 512
gridDepth := 5
SetCellsize(resolution, resolution, zResolution)
SetGridsize(gridSize, gridSize, gridDepth)
SetPBC(16, 16, 0)
//resizing...
Msat = 700e3
Aex = 13e-12
alpha = 0.2
Bmax := 0.1
Bstep := Bmax / 500.0
TableAdd(B_ext)
TableAdd(m_full)
islandWidth := 8e-08
islandLength := 1.8000000000000002e-07
ellipseConstant := 4.5000000000000006e-08
hIsland := rect(islandLength-2*ellipseConstant, islandWidth)
hIsland = hIsland.add(ellipse(ellipseConstant*2, islandWidth).transl(islandLength/2-ellipseConstant, 0, 0))
hIsland = hIsland.add(ellipse(ellipseConstant*2, islandWidth).transl(-islandLength/2+ellipseConstant, 0, 0))
hIsland = hIsland.add(rect(1e-08, 7.979215154257283e-09).transl(-6.891156613212874e-08, -3.388564070534772e-08, 0))
hIsland = hIsland.sub(rect(1e-08, -6.376493389335836e-09).transl(1.8486020611013745e-09, -4e-08, 0))
hIsland = hIsland.add(rect(1e-08, 2.647927656890839e-09).transl(-6.609895501966237e-09, -4e-08, 0))
hIsland = hIsland.add(rect(1e-08, 2.068095343842416e-09).transl(1.7673606049803622e-08, -4e-08, 0))
hIsland = hIsland.sub(rect(1e-08, -2.1900557669597987e-09).transl(5.8014446906953576e-08, -3.829062790098542e-08, 0))
hIsland = hIsland.add(rect(1e-08, 3.4211476419889646e-09).transl(1.3036803085187268e-08, -4e-08, 0))
hIsland = hIsland.sub(rect(1e-08, -4.064749310916725e-09).transl(7.308272665399711e-09, -4e-08, 0))
hIsland = hIsland.sub(rect(1e-08, -3.1240276624517e-09).transl(-6.587022696426018e-08, -3.5437956928655585e-08, 0))
hIsland = hIsland.add(rect(1e-08, 7.61980570128381e-09).transl(-3.554099815658073e-08, -4e-08, 0))
hIsland = hIsland.sub(rect(1e-08, -6.502175658068516e-09).transl(5.164326248420483e-08, -3.956171800751877e-08, 0))
hIsland = hIsland.sub(rect(1e-08, -5.462943896544817e-09).transl(-5.982844369006172e-08, -3.776593024922946e-08, 0))
hIsland = hIsland.sub(rect(1e-08, -1.4535644585623867e-09).transl(5.260394572802283e-08, -3.9424802715145266e-08, 0))
hIsland = hIsland.sub(rect(1e-08, -5.782331455366617e-10).transl(1.7613804642232747e-08, -4e-08, 0))
hIsland = hIsland.add(rect(1e-08, 1.2347459356735245e-09).transl(-2.193575908718778e-08, -4e-08, 0))
hIsland = hIsland.sub(rect(1e-08, -1.077178669252976e-09).transl(-3.884723579738766e-08, -4e-08, 0))
hIsland = hIsland.add(rect(1e-08, 3.3916906071217352e-09).transl(2.3673154512430706e-08, -4e-08, 0))
hIsland = hIsland.add(rect(1e-08, 1.553585162172689e-09).transl(8.431017311740905e-08, -1.9468701861736967e-08, 0))
hIsland = hIsland.sub(rect(1e-08, -9.884121832927553e-10).transl(-5.491947855520666e-08, -3.90160860292421e-08, 0))
hIsland = hIsland.add(rect(1e-08, 4.39690837238389e-09).transl(-7.473871746530304e-08, -3.002035435944702e-08, 0))
hIsland = hIsland.sub(rect(1e-08, -5.963928125773354e-09).transl(-3.42150916401041e-08, -4e-08, 0))
hIsland = hIsland.sub(rect(1e-08, -7.757929929110593e-09).transl(2.46145398916317e-08, -4e-08, 0))
hIsland = hIsland.sub(rect(1e-08, -1.6779161959627585e-09).transl(-4.8718004355119305e-08, -3.9863237247421325e-08, 0))
hIsland = hIsland.add(rect(1e-08, 1.8293505103030381e-09).transl(-5.5486452845747955e-08, -3.8898759958287465e-08, 0))
hIsland = hIsland.sub(rect(1e-08, -5.992557212940199e-09).transl(5.258357566626403e-08, -3.942790268596047e-08, 0))
hIsland = hIsland.sub(rect(1e-08, -4.153379349188524e-10).transl(-8.760001998541093e-08, -1.288853017868931e-08, 0))
hIsland = hIsland.add(rect(1e-08, 6.225594548270365e-09).transl(8.61805413892056e-08, -1.6126977894614138e-08, 0))
hIsland = hIsland.add(rect(1e-08, 2.1170918036523952e-09).transl(-2.808326964897806e-09, -4e-08, 0))
hIsland = hIsland.add(rect(1e-08, 3.764771253721792e-10).transl(8.660736050315902e-08, -1.5236798911022754e-08, 0))
hIsland = hIsland.sub(rect(1e-08, -1.0328681199727279e-08).transl(-5.025013620307545e-08, -3.9726830885769055e-08, 0))
hIsland = hIsland.add(rect(1e-08, 3.637243451025213e-11).transl(4.920024836982397e-08, -3.9825376002415356e-08, 0))
hIsland = hIsland.sub(rect(1e-08, -1.072572037466921e-10).transl(-4.686629866021783e-09, -4e-08, 0))
hIsland = hIsland.add(rect(1e-08, 5.311805271121748e-09).transl(6.197184272928568e-08, -3.704605400086462e-08, 0))
hIsland = hIsland.add(rect(1e-08, 2.1653313875630095e-09).transl(-4.125679388578457e-08, -4e-08, 0))
hIsland = hIsland.add(rect(1e-08, 7.341709398303313e-09).transl(4.5556696606961415e-08, -3.999693903239008e-08, 0))
hIsland = hIsland.sub(rect(1e-08, -6.44303344970948e-09).transl(4.178728211380067e-08, -4e-08, 0))
hIsland = hIsland.sub(rect(1e-08, -3.2572049603229074e-09).transl(3.331383495856848e-08, -4e-08, 0))
hIsland = hIsland.sub(rect(1e-08, -4.891771224683768e-09).transl(4.9720669117295074e-08, -3.977929514757073e-08, 0))
hIsland = hIsland.sub(rect(1e-08, -4.9728476218447865e-09).transl(-7.560734498809571e-08, -2.9322428043970566e-08, 0))
hIsland = hIsland.add(rect(1e-08, 9.830675103508287e-10).transl(2.4568312643593175e-08, -4e-08, 0))
hIsland = hIsland.add(rect(1e-08, 2.2025651694260317e-09).transl(1.1286529085934364e-08, -4e-08, 0))
hIsland = hIsland.sub(rect(1e-08, -3.0697062835717027e-09).transl(6.020274759803936e-08, -3.7648158971613056e-08, 0))
hIsland = hIsland.add(rect(1e-08, 1.4694073945614012e-09).transl(5.7663171078834246e-08, -3.838357774589739e-08, 0))
hIsland = hIsland.add(rect(1e-08, 6.224302243047692e-09).transl(2.029416704444667e-08, -4e-08, 0))
hIsland = hIsland.add(rect(1e-08, 3.752692378768114e-09).transl(4.934289366400845e-08, -3.981328545181428e-08, 0))
hIsland = hIsland.add(rect(1e-08, 1.128228289510132e-09).transl(2.223089856654353e-08, -4e-08, 0))
hIsland = hIsland.sub(rect(1e-08, -1.524533208347504e-09).transl(-5.055085470287823e-08, -3.9694517575909964e-08, 0))
hIsland = hIsland.sub(rect(1e-08, -2.81262622329077e-09).transl(-5.55368434891383e-08, -3.8887999271454115e-08, 0))
hIsland = hIsland.add(rect(1e-08, 3.833855147996375e-09).transl(-5.85156841105084e-08, -3.8153180880222466e-08, 0))
hIsland = hIsland.sub(rect(1e-08, -6.449135452731367e-10).transl(-7.659519701286878e-08, -2.8482523479797073e-08, 0))
hIsland = hIsland.sub(rect(1e-08, -2.327544029942917e-09).transl(8.175610211515382e-08, -2.3076708707711157e-08, 0))
hIsland = hIsland.sub(rect(1e-08, -3.9229039958959754e-09).transl(-1.532848101418628e-08, -4e-08, 0))
hIsland = hIsland.sub(rect(1e-08, -1.8797181618563325e-09).transl(7.231358325527762e-08, -3.178903508150182e-08, 0))
hIsland = hIsland.sub(rect(1e-08, -7.343134394773896e-09).transl(2.1909177253705818e-08, -4e-08, 0))
hIsland = hIsland.add(rect(1e-08, 5.1864170273904406e-09).transl(5.0902234175916954e-08, -3.965444449595251e-08, 0))
hIsland = hIsland.add(rect(1e-08, 1.4991517509300398e-09).transl(7.336597657616297e-08, -3.1052279267520896e-08, 0))
hIsland = hIsland.sub(rect(1e-08, -2.5506796332038024e-09).transl(8.656073123773235e-08, -1.5337020335718905e-08, 0))
hIsland = hIsland.add(rect(1e-08, 6.41619430168943e-09).transl(1.4820360353462857e-09, -4e-08, 0))
hIsland = hIsland.add(rect(1e-08, 6.09135672947093e-09).transl(-4.98084660802361e-08, -3.977098543080693e-08, 0))
hIsland = hIsland.add(rect(1e-08, 6.329920936162682e-09).transl(-3.4988445541075655e-08, -4e-08, 0))
hIsland = hIsland.sub(rect(1e-08, -2.968631868421864e-09).transl(1.019523880500559e-08, -4e-08, 0))
hIsland = hIsland.add(rect(1e-08, 1.4765796016246507e-09).transl(-1.959951671424172e-08, -4e-08, 0))
hIsland = hIsland.add(rect(1e-08, 2.649839466861491e-09).transl(2.1002967086141324e-09, -4e-08, 0))
hIsland = hIsland.sub(rect(1e-08, -1.7169144568177558e-09).transl(4.218413830554429e-08, -4e-08, 0))
hIsland = hIsland.add(rect(1e-08, 3.926666352503594e-09).transl(8.995190331888649e-08, -1.8488863268107584e-09, 0))
hIsland = hIsland.sub(rect(1e-08, -3.1695596744724766e-09).transl(3.37732053923027e-08, -4e-08, 0))
hIsland = hIsland.add(rect(1e-08, 1.940238651491097e-09).transl(2.8622785847789604e-08, -4e-08, 0))
hIsland = hIsland.add(rect(1e-08, 4.632741857612174e-09).transl(-2.69632102992705e-08, -4e-08, 0))
hIsland = hIsland.sub(rect(1e-08, -1.0251152189906665e-08).transl(-7.923008369895356e-08, -2.5965620118122057e-08, 0))
hIsland = hIsland.add(rect(1e-08, 1.8378611837439187e-09).transl(-1.860034078862899e-08, -4e-08, 0))
hIsland = hIsland.sub(rect(1e-08, -3.488289905366449e-09).transl(-7.010262990578824e-08, -3.319804214739431e-08, 0))
hIsland = hIsland.add(rect(1e-08, 1.186475006230436e-09).transl(7.412035560137862e-08, -3.0495559874653056e-08, 0))
hIsland = hIsland.sub(rect(1e-08, -8.74399265612867e-09).transl(4.164432369801966e-08, -4e-08, 0))
hIsland = hIsland.add(rect(1e-08, 1.83793068750112e-10).transl(1.8286234009261826e-08, -4e-08, 0))
hIsland = hIsland.sub(rect(1e-08, -8.690887135609097e-10).transl(-8.263435178619703e-09, -4e-08, 0))
hIsland = hIsland.sub(rect(1e-08, -1.7329563367203604e-09).transl(6.019386452367738e-08, -3.765099227677917e-08, 0))
hIsland = hIsland.add(rect(1e-08, 2.5068967750193175e-09).transl(-7.481991386362845e-08, -2.995664669513941e-08, 0))
hIsland = hIsland.sub(rect(1e-08, -6.079003828184677e-10).transl(-8.691490238997796e-10, -4e-08, 0))
hIsland = hIsland.sub(rect(1e-08, -3.390951907253038e-09).transl(5.432115224728446e-08, -3.913248023079657e-08, 0))
hIsland = hIsland.sub(rect(1e-08, -5.6348131484138e-09).transl(8.135577485077422e-08, -2.357244903653627e-08, 0))
hIsland = hIsland.sub(rect(1e-08, -1.7436156787202062e-09).transl(-3.100420687436154e-08, -4e-08, 0))
hIsland = hIsland.add(rect(1e-08, 4.1259962426794e-09).transl(2.028836386677241e-08, -4e-08, 0))
hIsland = hIsland.sub(rect(1e-08, -2.2707856809665886e-09).transl(7.64133860831847e-08, -2.8640976254673353e-08, 0))
hIsland = hIsland.add(rect(1e-08, 1.8256344893629642e-09).transl(1.0032237851606084e-08, -4e-08, 0))
hIsland = hIsland.add(rect(1e-08, 4.5765156639842e-09).transl(-2.054175042928509e-08, -4e-08, 0))
hIsland = hIsland.add(rect(1e-08, 5.071511674887304e-09).transl(5.884681934590899e-09, -4e-08, 0))
hIsland = hIsland.sub(rect(1e-08, -6.664922421387647e-11).transl(6.057191515790336e-08, -3.75287526532088e-08, 0))
hIsland = hIsland.sub(rect(1e-08, -4.455762587868264e-09).transl(2.5184093038552998e-08, -4e-08, 0))
hIsland = hIsland.add(rect(1e-08, 4.49459808995302e-09).transl(-2.316133361885276e-08, -4e-08, 0))
hIsland = hIsland.add(rect(1e-08, 4.450813846562243e-10).transl(4.869187563702015e-08, -3.986515596573612e-08, 0))
hIsland = hIsland.sub(rect(1e-08, -3.784670715449241e-09).transl(-2.0639000980064213e-08, -4e-08, 0))
hIsland = hIsland.sub(rect(1e-08, -2.675145534388681e-10).transl(1.7729381374549e-08, -4e-08, 0))
hIsland = hIsland.sub(rect(1e-08, -3.873630066434478e-09).transl(-5.020714236483688e-08, -3.9731301647209934e-08, 0))
hIsland = hIsland.add(rect(1e-08, 3.78578108828994e-09).transl(-3.611559959994732e-08, -4e-08, 0))
hIsland = hIsland.sub(rect(1e-08, -3.470448024799608e-10).transl(-4.360167034029395e-08, -4e-08, 0))
hIsland = hIsland.add(rect(1e-08, 6.673545645882162e-10).transl(-7.660219723826894e-08, -2.847638664432124e-08, 0))
hIsland = hIsland.sub(rect(1e-08, -9.58890175051401e-10).transl(-7.913165842665984e-08, -2.606779223555774e-08, 0))
hIsland = hIsland.sub(rect(1e-08, -4.509745791455135e-09).transl(-8.48158604346298e-08, -1.8639075012286553e-08, 0))
hIsland = hIsland.add(rect(1e-08, 1.0337069182227117e-09).transl(7.569533223355515e-08, -2.9249666255474246e-08, 0))
hIsland = hIsland.sub(rect(1e-08, -1.6666765489863727e-09).transl(-3.5606646177895086e-08, -4e-08, 0))
hIsland = hIsland.add(rect(1e-08, 8.300153646397987e-09).transl(-8.538353453984535e-08, -1.7647749773118728e-08, 0))
hIsland = hIsland.add(rect(1e-08, 9.871854414994436e-09).transl(-6.76562638483965e-08, 3.4560449339006693e-08, 0))
hIsland = hIsland.add(rect(1e-08, 7.131032876783797e-09).transl(3.665352019091732e-08, 4e-08, 0))
hIsland = hIsland.add(rect(1e-08, 4.020403376772062e-09).transl(-4.2662561928740616e-08, 4e-08, 0))
hIsland = hIsland.sub(rect(1e-08, -6.499980338288755e-10).transl(-3.101129422653728e-08, 4e-08, 0))
hIsland = hIsland.sub(rect(1e-08, -1.3113253253392967e-09).transl(-4.7427785563477664e-08, 3.9941743822243094e-08, 0))
hIsland = hIsland.sub(rect(1e-08, -1.8900671566709012e-09).transl(-9.418572631088643e-09, 4e-08, 0))
hIsland = hIsland.add(rect(1e-08, 3.2909258918980367e-09).transl(-5.337114996752341e-08, 3.9301796253072346e-08, 0))
hIsland = hIsland.add(rect(1e-08, 7.016391414433376e-09).transl(3.3321136163755134e-08, 4e-08, 0))
hIsland = hIsland.sub(rect(1e-08, -4.319428018780317e-09).transl(2.8917352969137193e-08, 4e-08, 0))
hIsland = hIsland.add(rect(1e-08, 5.1720401791885106e-12).transl(3.848401855639162e-08, 4e-08, 0))
hIsland = hIsland.sub(rect(1e-08, -5.98101467175115e-09).transl(2.810540498093993e-08, 4e-08, 0))
hIsland = hIsland.sub(rect(1e-08, -8.018588185925739e-09).transl(-1.9907100430051293e-08, 4e-08, 0))
hIsland = hIsland.sub(rect(1e-08, -3.742477491755164e-09).transl(8.824629909720683e-09, 4e-08, 0))
hIsland = hIsland.add(rect(1e-08, 8.31485850470202e-09).transl(-6.86347619592156e-08, 3.4038734968079136e-08, 0))
hIsland = hIsland.sub(rect(1e-08, -8.766664424560974e-11).transl(2.079531128066357e-08, 4e-08, 0))
hIsland = hIsland.sub(rect(1e-08, -2.886054653231781e-09).transl(-4.232472971058046e-08, 4e-08, 0))
hIsland = hIsland.add(rect(1e-08, 4.314240633311174e-10).transl(-5.203492757679895e-08, 3.950818430843774e-08, 0))
hIsland = hIsland.sub(rect(1e-08, -4.608066012934558e-09).transl(-8.890375590969286e-08, 8.775283674789426e-09, 0))
hIsland = hIsland.add(rect(1e-08, 2.377036889200226e-09).transl(-1.3132020689971381e-08, 4e-08, 0))
hIsland = hIsland.add(rect(1e-08, 1.6353789383001617e-09).transl(1.4693643909399786e-09, 4e-08, 0))
hIsland = hIsland.add(rect(1e-08, 1.9313714067571687e-09).transl(-6.491385768137186e-08, 3.58701446447655e-08, 0))
hIsland = hIsland.sub(rect(1e-08, -6.540217883957561e-10).transl(-2.6490360411293897e-09, 4e-08, 0))
hIsland = hIsland.sub(rect(1e-08, -4.039923849462617e-09).transl(3.162506232214818e-08, 4e-08, 0))
hIsland = hIsland.sub(rect(1e-08, -1.6726420547937842e-09).transl(-1.3209652111530554e-08, 4e-08, 0))
hIsland = hIsland.add(rect(1e-08, 1.912064194460847e-10).transl(-6.836054934328553e-08, 3.4187974024576595e-08, 0))
hIsland = hIsland.sub(rect(1e-08, -6.79454268352773e-10).transl(6.057492872904507e-09, 4e-08, 0))
hIsland = hIsland.add(rect(1e-08, 5.70837374660992e-10).transl(1.6827218600503167e-08, 4e-08, 0))
hIsland = hIsland.sub(rect(1e-08, -9.94843944126044e-09).transl(-8.711392991983682e-08, 1.409433912685775e-08, 0))
hIsland = hIsland.add(rect(1e-08, 2.9936850956629534e-09).transl(-8.148828083932363e-09, 4e-08, 0))
hIsland = hIsland.sub(rect(1e-08, -4.325467958349138e-09).transl(7.933380302254496e-08, 2.5857195211482386e-08, 0))
hIsland = hIsland.add(rect(1e-08, 1.605277083740208e-09).transl(8.183305224929058e-08, 2.297956171026498e-08, 0))
hIsland = hIsland.sub(rect(1e-08, -8.079953706123319e-09).transl(8.036620865336708e-08, 2.4733343883180413e-08, 0))
hIsland = hIsland.add(rect(1e-08, 2.36952714397661e-09).transl(-8.450558680186129e-08, 1.915361911203396e-08, 0))
hIsland = hIsland.sub(rect(1e-08, -2.9381830958206857e-09).transl(-6.230682831587765e-08, 3.692339691067171e-08, 0))
hIsland = hIsland.add(rect(1e-08, 9.090178871344961e-10).transl(-4.389215887040052e-08, 4e-08, 0))
hIsland = hIsland.add(rect(1e-08, 1.8863995862069125e-09).transl(-5.496176547046965e-08, 3.9007572331904074e-08, 0))
hIsland = hIsland.add(rect(1e-08, 3.409599117384105e-09).transl(7.180479718009753e-08, 3.212940314841918e-08, 0))
hIsland = hIsland.add(rect(1e-08, 6.926890721225421e-09).transl(-7.781510780530117e-08, 2.7370976063123314e-08, 0))
hIsland = hIsland.sub(rect(1e-08, -4.228450195852142e-09).transl(-1.0076650085443395e-08, 4e-08, 0))
hIsland = hIsland.add(rect(1e-08, 3.084295983188328e-09).transl(-4.048571863218728e-08, 4e-08, 0))
hIsland = hIsland.sub(rect(1e-08, -1.481993318327517e-09).transl(-2.5203898474510417e-08, 4e-08, 0))
hIsland = hIsland.sub(rect(1e-08, -3.1516930338031915e-09).transl(-5.055824846543287e-08, 3.96937000841143e-08, 0))
hIsland = hIsland.add(rect(1e-08, 9.429656998589574e-10).transl(-7.165824293908802e-08, 3.222560084540487e-08, 0))
hIsland = hIsland.add(rect(1e-08, 2.910770899478406e-09).transl(7.920657302129855e-08, 2.5990089083699268e-08, 0))
hIsland = hIsland.sub(rect(1e-08, -9.833681099707127e-09).transl(4.0200329739118096e-08, 4e-08, 0))
hIsland = hIsland.add(rect(1e-08, 3.892445422597997e-09).transl(-7.057126788821603e-08, 3.291422757952575e-08, 0))
hIsland = hIsland.add(rect(1e-08, 5.453265436466418e-09).transl(-1.4245258625882732e-08, 4e-08, 0))
hIsland = hIsland.add(rect(1e-08, 3.0932643415113607e-09).transl(5.981962347530769e-08, 3.776866567283334e-08, 0))
hIsland = hIsland.sub(rect(1e-08, -5.541400063582881e-09).transl(6.228220874695695e-08, 3.693250712622187e-08, 0))
hIsland = hIsland.sub(rect(1e-08, -4.844398889575634e-10).transl(6.523595523329763e-08, 3.572743031171289e-08, 0))
hIsland = hIsland.sub(rect(1e-08, -6.5920700198533384e-09).transl(-1.439551875831922e-08, 4e-08, 0))
hIsland = hIsland.sub(rect(1e-08, -6.314632635580994e-10).transl(-6.961000210668678e-08, 3.348820668843004e-08, 0))
hIsland = hIsland.add(rect(1e-08, 1.944933652208228e-09).transl(3.193619658374522e-08, 4e-08, 0))
hIsland = hIsland.sub(rect(1e-08, -1.463705817690147e-10).transl(-3.874798443312533e-08, 4e-08, 0))
hIsland = hIsland.sub(rect(1e-08, -1.5901416868577641e-09).transl(7.105165248526195e-08, 3.2615214539937334e-08, 0))
hIsland = hIsland.add(rect(1e-08, 1.190916076480012e-09).transl(5.6237835717859775e-08, 3.8732623678113225e-08, 0))
hIsland = hIsland.sub(rect(1e-08, -3.4017504237948263e-09).transl(5.788068297888273e-08, 3.832634918402507e-08, 0))
hIsland = hIsland.sub(rect(1e-08, -1.9609049938497637e-09).transl(-4.769182323205132e-08, 3.992837130056724e-08, 0))
hIsland = hIsland.sub(rect(1e-08, -5.26819086969356e-10).transl(6.740376703778433e-08, 3.4690262311957886e-08, 0))
hIsland = hIsland.add(rect(1e-08, 6.381612243934468e-10).transl(6.752321264888843e-08, 3.462909521822582e-08, 0))
hIsland = hIsland.sub(rect(1e-08, -1.226606312841447e-09).transl(-7.730395970592517e-08, 2.78472615379827e-08, 0))
hIsland = hIsland.sub(rect(1e-08, -1.2349593601551674e-09).transl(8.803992795689173e-08, 1.1676786348545844e-08, 0))
hIsland = hIsland.add(rect(1e-08, 3.858650118013185e-09).transl(2.0531653722153424e-09, 4e-08, 0))
hIsland = hIsland.add(rect(1e-08, 2.100866493207369e-09).transl(-6.976241480113932e-08, 3.3399316183922585e-08, 0))
hIsland = hIsland.add(rect(1e-08, 1.5180310251833842e-09).transl(5.697367565118316e-08, 3.8558019429697746e-08, 0))
hIsland = hIsland.add(rect(1e-08, 2.0570952942472116e-09).transl(6.771613648459886e-08, 3.4529382221707956e-08, 0))
hIsland = hIsland.sub(rect(1e-08, -1.6359955937423544e-09).transl(8.753577351552166e-08, 1.305511118483456e-08, 0))
hIsland = hIsland.sub(rect(1e-08, -7.359576148833502e-09).transl(8.146466045112409e-08, 2.3439184887596777e-08, 0))
hIsland = hIsland.add(rect(1e-08, 4.31908392877185e-09).transl(-6.416766461404603e-08, 3.618990387270752e-08, 0))
hIsland = hIsland.sub(rect(1e-08, -2.5728317480284107e-09).transl(-3.568098995443712e-08, 4e-08, 0))
hIsland = hIsland.sub(rect(1e-08, -1.7817443761167427e-09).transl(-2.5540025163308495e-08, 4e-08, 0))
hIsland = hIsland.add(rect(1e-08, 2.1706058954216508e-10).transl(2.2098328305412343e-08, 4e-08, 0))
hIsland = hIsland.sub(rect(1e-08, -1.3640165586763055e-09).transl(-7.533415902751166e-08, 2.954588040261011e-08, 0))
hIsland = hIsland.add(rect(1e-08, 6.413151143970263e-10).transl(5.2361812149886115e-09, 4e-08, 0))
hIsland = hIsland.add(rect(1e-08, 1.939996948932755e-09).transl(3.811872225532762e-08, 4e-08, 0))
hIsland = hIsland.add(rect(1e-08, 4.4100056644195295e-09).transl(5.265891390758598e-08, 3.9416394786689917e-08, 0))
hIsland = hIsland.add(rect(1e-08, 1.0258835337681075e-09).transl(-1.4248086764572586e-08, 4e-08, 0))
hIsland = hIsland.add(rect(1e-08, 1.5902291676556573e-09).transl(-7.708457566067527e-08, 2.8046944839045623e-08, 0))
hIsland = hIsland.sub(rect(1e-08, -1.1929636658227157e-08).transl(5.772312103446549e-08, 3.8367910369054195e-08, 0))
hIsland = hIsland.sub(rect(1e-08, -1.565140002657974e-09).transl(4.063637093658311e-08, 4e-08, 0))
hIsland = hIsland.add(rect(1e-08, 3.0530228043822276e-10).transl(-3.8704979213244096e-08, 4e-08, 0))
hIsland = hIsland.sub(rect(1e-08, -2.340535246703541e-09).transl(3.004167868661327e-08, 4e-08, 0))
hIsland = hIsland.sub(rect(1e-08, -7.048197291956439e-09).transl(-8.54669692700852e-08, 1.7496088267577097e-08, 0))
hIsland = hIsland.add(rect(1e-08, 5.562431819261719e-10).transl(-3.037727954270476e-08, 4e-08, 0))
hIsland = hIsland.add(rect(1e-08, 7.929968172931102e-10).transl(-7.693617831679005e-08, 2.818044872750446e-08, 0))
hIsland = hIsland.sub(rect(1e-08, -2.3584063096626685e-09).transl(1.4519944972520967e-08, 4e-08, 0))
hIsland = hIsland.sub(rect(1e-08, -1.0756633124355966e-09).transl(-5.6408210597923865e-08, 3.869324992668773e-08, 0))
hIsland = hIsland.add(rect(1e-08, 4.318568007988309e-09).transl(5.929350144184004e-08, 3.7928544294787704e-08, 0))
hIsland = hIsland.add(rect(1e-08, 1.4127973882364245e-09).transl(2.7324845048748832e-08, 4e-08, 0))
hIsland = hIsland.sub(rect(1e-08, -4.5956060620444615e-09).transl(-3.783949084582544e-08, 4e-08, 0))
hIsland = hIsland.add(rect(1e-08, 2.5296147006154176e-09).transl(5.9577940195173993e-08, 3.784291022834871e-08, 0))
hIsland = hIsland.add(rect(1e-08, 3.245618591486953e-10).transl(-2.691248756704351e-08, 4e-08, 0))
hIsland = hIsland.sub(rect(1e-08, -2.2432675274024405e-09).transl(1.5328296963261252e-09, 4e-08, 0))
hIsland = hIsland.sub(rect(1e-08, -2.008875898822573e-09).transl(6.708515751769019e-08, 3.485131244580484e-08, 0))
hIsland = hIsland.add(rect(1e-08, 4.307726606412941e-09).transl(5.290598982172344e-09, 4e-08, 0))
hIsland = hIsland.sub(rect(1e-08, -8.75914387438434e-10).transl(2.5642978725651326e-08, 4e-08, 0))
hIsland = hIsland.add(rect(1e-08, 1.6153116201886353e-09).transl(-3.676323487173547e-09, 4e-08, 0))
hIsland = hIsland.sub(rect(1e-08, -3.0289198687544086e-09).transl(8.442511849040645e-09, 4e-08, 0))
hIsland = hIsland.sub(rect(1e-08, -1.5714649952401885e-09).transl(2.6024876313063745e-08, 4e-08, 0))
hIsland = hIsland.sub(rect(1e-08, -1.900215847066728e-09).transl(8.444716105748796e-08, 1.924852888664315e-08, 0))
vIsland := hIsland.rotz(pi / 2)
vIslands := Universe().Inverse()
hIslands := Universe().Inverse()
hIslands = hIslands.add(hIsland.transl(-a/2, a, 0))
hIslands = hIslands.add(hIsland.transl(-a/2, -a, 0))
hIslands = hIslands.add(hIsland.transl(a/2, a, 0))
hIslands = hIslands.add(hIsland.transl(a/2, -a, 0))
hIslands = hIslands.add(hIsland.transl(-a/2, 0, 0))
hIslands = hIslands.add(hIsland.transl(a/2, 0, 0))
vIslands = vIslands.add(vIsland.transl(-a, a/2, 0))
vIslands = vIslands.add(vIsland.transl(a, a/2, 0))
vIslands = vIslands.add(vIsland.transl(-a, -a/2, 0))
vIslands = vIslands.add(vIsland.transl(a, -a/2, 0))
vIslands = vIslands.add(vIsland.transl(0, a/2, 0))
vIslands = vIslands.add(vIsland.transl(0, -a/2, 0))
DefRegion(1, hIslands)
DefRegion(2, vIslands)
TableAdd(m_full.Region(1))
TableAdd(m_full.Region(2))
setgeom(hIslands.add(vIslands))
save(m)
r2o2 := sqrt(2) / 2
m = RandomMagSeed(4)
B_ext = vector(Bmax*r2o2, Bmax*r2o2, 0)
relax()
minimize()
for B := Bmax; B >= -Bmax; B -= Bstep {
	B_ext = vector(B*r2o2, B*r2o2, 0)
	minimize()
	tablesave()
}
//********************************************************************//
//Please cite the following references, relevant for your simulation. //
//See bibtex file in output folder for justification.                 //
//********************************************************************//
//   * Vansteenkiste et al., AIP Adv. 4, 107133 (2014).
//   * Exl et al., J. Appl. Phys. 115, 17D118 (2014).
