# t (s)	mx ()	my ()	mz ()	B_extx (T)	B_exty (T)	B_extz (T)	m_fullx (A/m)	m_fully (A/m)	m_fullz (A/m)	m_full.region1x (A/m)	m_full.region1y (A/m)	m_full.region1z (A/m)	m_full.region2x (A/m)	m_full.region2y (A/m)	m_full.region2z (A/m)
0	0.65619606	0.6549352	-2.4806554e-10	0.07071097	0.07071097	0	48053.227	47960.89	-1.8616347e-05	633625.06	284441.22	-0.00024013764	285049.4	632468.06	-0.00011576694
0	0.6560994	0.6548343	-4.6689774e-10	0.070569366	0.070569366	0	48046.145	47953.508	-3.6715268e-05	633728.7	284199.5	-0.00040056	284810.5	632568.56	-0.00030135707
0	0.65600127	0.65473044	-1.9049207e-10	0.07042761	0.07042761	0	48038.953	47945.902	-1.712561e-05	633835.94	283950.78	-0.00018616275	284565.8	632672	-0.00014124217
0	0.65590346	0.6546273	-6.002027e-10	0.07028633	0.07028633	0	48031.8	47938.35	-4.3132244e-05	633941.94	283704.1	-0.00044945494	284323	632774.25	-0.00037514098
0	0.655805	0.65452313	-1.8590011e-10	0.07014479	0.07014479	0	48024.586	47930.71	-1.0122116e-05	634049.1	283454.78	-7.675935e-05	284077.84	632877.6	-0.00011675377
0	0.65570337	0.65441555	-1.5189079e-10	0.07000352	0.07000352	0	48017.145	47922.836	-1.2735036e-05	634159.8	283197.53	-0.00013638262	283825	632984.2	-0.000107083935
0	0.65560555	0.654312	-4.0042727e-10	0.06986232	0.06986232	0	48009.98	47915.258	-2.8539333e-05	634265.6	282950.7	-0.00025961746	283582.2	633086.2	-0.00028599324
0	0.65550613	0.6542067	-1.972774e-10	0.0697207	0.0697207	0	48002.7	47907.543	-1.8333805e-05	634373.5	282699.25	-0.00024121745	283335.03	633190.1	-0.00010928551
0	0.65540653	0.6541012	-5.498792e-10	0.06957944	0.06957944	0	47995.414	47899.82	-3.585159e-05	634481.3	282447.62	-0.0003569671	283087.8	633294.06	-0.0003284383
0	0.6553058	0.6539944	-2.6021324e-10	0.0694377	0.0694377	0	47988.03	47891.992	-1.8421815e-05	634590.3	282193.2	-0.00017888969	282837.78	633398.9	-0.00017329586
0	0.6552052	0.6538879	-3.7675227e-10	0.069296405	0.069296405	0	47980.664	47884.203	-2.7717924e-05	634698.6	281939.8	-0.00029341175	282588.72	633503.3	-0.00023649543
0	0.65510446	0.6537813	-7.8565474e-11	0.06915487	0.06915487	0	47973.29	47876.395	-8.39462e-06	634806.75	281686.34	-0.00011483983	282339.5	633607.5	-4.564728e-05
0	0.6550031	0.653674	-3.6833475e-10	0.0690136	0.0690136	0	47965.863	47868.535	-2.5626267e-05	634915.7	281431.16	-0.00033796404	282088.62	633712.4	-0.00015195514
0	0.65490174	0.6535664	-1.4609083e-10	0.06887232	0.06887232	0	47958.445	47860.664	-1.1164686e-05	635024.6	281175.84	-0.00023338475	281837.88	633817.3	1.9939916e-05
0	0.6548003	0.6534589	-2.9344485e-10	0.06873079	0.06873079	0	47951.008	47852.785	-1.470804e-05	635133.44	280920.47	-0.00014019758	281586.94	633921.94	-0.00014098856
0	0.6546974	0.65334946	-2.7244076e-10	0.0685895	0.0685895	0	47943.48	47844.77	-1.6768317e-05	635244.4	280660.66	-0.00018264844	281332.12	634028.6	-0.00013792579
0	0.6545965	0.6532429	-4.2759862e-10	0.068447776	0.068447776	0	47936.094	47836.965	-3.5426987e-05	635351.2	280408.4	-0.00033324663	281083.94	634131.6	-0.0003440413
0	0.65449345	0.6531336	-5.922653e-11	0.0683065	0.0683065	0	47928.54	47828.96	-4.427103e-06	635461.25	280149.5	-6.5954286e-05	280829.6	634237.5	-1.8682418e-05
0	0.65439045	0.65302455	-4.7835164e-10	0.06816496	0.06816496	0	47920.996	47820.977	-3.312915e-05	635570.56	279891.47	-0.00031826893	280576.03	634342.9	-0.0003150893
0	0.654287	0.6529141	-2.4544147e-10	0.068023674	0.068023674	0	47913.418	47812.895	-1.8251774e-05	635681.75	279630.22	-0.00020923043	280319.94	634449.6	-0.00013970432
0	0.6541849	0.6528061	-5.893142e-11	0.067882404	0.067882404	0	47905.94	47804.984	-1.6109473e-06	635789.5	279375.22	-6.600012e-05	280069.25	634553.4	3.5202265e-05
0	0.6540813	0.65269613	-3.031628e-10	0.067740865	0.067740865	0	47898.36	47796.92	-2.2943928e-05	635899.5	279115.44	-0.00015028928	279814.28	634659.2	-0.00028834937
0	0.65397644	0.6525846	-6.617132e-10	0.06759956	0.06759956	0	47890.684	47788.758	-4.5448152e-05	636011.1	278852.06	-0.00044813022	279555.94	634766.3	-0.00042074086
0	0.6538737	0.65247595	-1.923123e-10	0.06745787	0.06745787	0	47883.15	47780.8	-1.7058712e-05	636118.7	278596.22	-0.00021913392	279304.34	634870.06	-0.00010699202
0	0.6537674	0.65236276	-4.55114e-10	0.067316584	0.067316584	0	47875.375	47772.52	-3.237771e-05	636231.5	278329.62	-0.00034937554	279042.9	634978.3	-0.00026961675
0	0.65366405	0.6522534	-1.4121447e-10	0.067174956	0.067174956	0	47867.805	47764.504	-2.1563223e-05	636339.75	278072.16	-0.00026345844	278790	635082.56	-0.0001487841
0	0.65355927	0.65214205	-5.179573e-10	0.06703376	0.06703376	0	47860.133	47756.35	-4.066465e-05	636450	277810.4	-0.00042258168	278533.03	635188.5	-0.00035483905
0	0.6534541	0.6520302	-1.925062e-10	0.06689248	0.06689248	0	47852.434	47748.164	-1.4285147e-05	636560.6	277547.5	-0.00010904185	278275.12	635294.9	-0.00016405947
0	0.65334874	0.6519183	-4.3814216e-11	0.06675091	0.06675091	0	47844.715	47739.96	-1.7289873e-06	636671	277284.72	-1.1701456e-05	278017.2	635400.94	-2.1353067e-05
0	0.65324163	0.6518042	-1.9806706e-10	0.06660963	0.06660963	0	47836.867	47731.6	-1.1292915e-05	636783.9	277016.56	-0.00017632893	277754.38	635509.2	-3.9567356e-05
0	0.6531355	0.65169144	-5.393823e-10	0.066467956	0.066467956	0	47829.098	47723.35	-4.1952295e-05	636894.6	276752.2	-0.00039686132	277494.94	635615.8	-0.00040517648
0	0.65303034	0.65158004	-3.2838682e-10	0.06632633	0.06632633	0	47821.4	47715.195	-2.2216487e-05	637003.5	276491.62	-0.00021998156	277239	635720.5	-0.00020474999
0	0.6529241	0.65146697	-4.3712528e-10	0.06618504	0.06618504	0	47813.617	47706.914	-2.4909561e-05	637114.5	276226.7	-0.0002336304	276979.22	635827.06	-0.00024258693
0	0.6528172	0.6513532	-4.3709011e-10	0.06604385	0.06604385	0	47805.79	47698.582	-3.1739677e-05	637225.9	275960.4	-0.00034194812	276718.06	635934.1	-0.00026484637
0	0.6527076	0.6512367	-4.2901532e-10	0.06590254	0.06590254	0	47797.77	47690.05	-2.698917e-05	637339.75	275687.97	-0.000335911	276450.9	636043.44	-0.00018006394
0	0.6526007	0.6511229	-3.2211084e-10	0.065760985	0.065760985	0	47789.938	47681.72	-2.4134832e-05	637450.7	275422.12	-0.00021577571	276190.28	636149.9	-0.00024563045
0	0.6524944	0.65101016	-5.349714e-10	0.0656197	0.0656197	0	47782.15	47673.46	-3.7851532e-05	637560	275159.16	-0.0003703074	275932.1	636255.06	-0.00035333267
0	0.6523852	0.65089345	-3.8308529e-10	0.06547804	0.06547804	0	47774.15	47664.914	-2.4776178e-05	637673.75	274886.78	-0.00026518502	275665.38	636364.1	-0.00020848234
0	0.65227675	0.65077806	-3.5088732e-10	0.06533641	0.06533641	0	47766.215	47656.47	-2.1638483e-05	637785.7	274617.94	-0.00020313144	275401.78	636471.44	-0.00021054993
0	0.65216786	0.6506622	-2.473258e-10	0.06519513	0.06519513	0	47758.242	47647.98	-2.0110647e-05	637897.9	274347.94	-0.00019729004	275137.12	636579.1	-0.00018718235
0	0.6520602	0.6505481	-2.9069033e-10	0.06505393	0.06505393	0	47750.355	47639.633	-1.6713593e-05	638007.5	274082.88	-0.000109878136	274876.94	636684.56	-0.00020964988
0	0.65195006	0.6504302	-2.714528e-10	0.06491261	0.06491261	0	47742.29	47630.992	-2.1657954e-05	638121.8	273808.3	-0.00027448905	274608.25	636794.06	-0.00013956451
0	0.6518403	0.6503135	-2.2479063e-10	0.064771056	0.064771056	0	47734.25	47622.445	-1.1085906e-05	638234.1	273537.03	-0.00014715742	274342.25	636901.8	-6.478131e-05
0	0.6517305	0.6501965	-2.0706085e-10	0.06462978	0.06462978	0	47726.21	47613.883	-1.7552738e-05	638346.5	273265.56	-0.00013282552	274076.22	637009.6	-0.00020274516
0	0.65162027	0.6500791	1.0098193e-10	0.06448806	0.06448806	0	47718.145	47605.28	5.6328645e-06	638459.06	272993.2	5.2842097e-05	273809.3	637117.6	5.4846176e-05
0	0.65151113	0.64996326	-3.8648343e-10	0.0643465	0.0643465	0	47710.15	47596.793	-3.0530744e-05	638569.6	272724.84	-0.00029419886	273546.03	637223.75	-0.00028948343
0	0.6513994	0.64984363	-3.8506284e-10	0.064205214	0.064205214	0	47701.96	47588.04	-2.6590913e-05	638684.3	272447.5	-0.00031041354	273274.75	637333.6	-0.00019794762
0	0.6512896	0.6497272	-1.9587232e-10	0.06406398	0.06406398	0	47693.93	47579.508	-2.0035466e-05	638794.9	272178.28	-0.00014797453	273010.6	637439.8	-0.00023506058
0	0.6511779	0.64960814	-3.9309087e-10	0.063922696	0.063922696	0	47685.746	47570.79	-2.7116295e-05	638908.5	271902.56	-0.00021089088	272740.56	637548.8	-0.00030751445
0	0.6510653	0.6494875	-4.505241e-10	0.06378113	0.06378113	0	47677.492	47561.957	-3.250948e-05	639023.56	271623.72	-0.00027273592	272467.8	637658.75	-0.0003487755
0	0.65095454	0.6493699	-4.6189738e-10	0.06363943	0.06363943	0	47669.383	47553.35	-3.243779e-05	639134.6	271352.47	-0.0002887875	272201.75	637765.44	-0.00033135343
0	0.6508409	0.6492483	-4.591104e-10	0.06349815	0.06349815	0	47661.07	47544.445	-2.7736392e-05	639250.2	271071.62	-0.00030241738	271927.1	637876	-0.00022784292
0	0.6507286	0.64912844	-1.823415e-10	0.063356586	0.063356586	0	47652.836	47535.664	-1.4933814e-05	639363.5	270795.22	-0.00017672483	271656.47	637984.6	-0.000108777625
0	0.65061706	0.64901	-3.437179e-11	0.06321526	0.06321526	0	47644.676	47526.99	-3.3028234e-06	639474.9	270522.44	-9.4650866e-05	271389	638091.5	3.1507974e-05
0	0.6505024	0.6488872	-2.67152e-10	0.06307407	0.06307407	0	47636.277	47518	-1.947967e-05	639591	270239.5	-0.00026114786	271112.44	638202.56	-0.00011126163
0	0.6503891	0.6487662	-3.0653818e-10	0.062932774	0.062932774	0	47627.98	47509.133	-2.3498056e-05	639704.75	269961.2	-0.00024100822	270840.06	638311.5	-0.00020822416
0	0.6502753	0.6486448	-1.707143e-10	0.06279112	0.06279112	0	47619.65	47500.24	-1.7032553e-05	639818.75	269681.94	-0.00019558071	270566.66	638420.75	-0.00013004513
0	0.65016127	0.648523	-3.095902e-10	0.06264953	0.06264953	0	47611.29	47491.32	-2.4113133e-05	639932.8	269402.1	-0.00025820802	270292.8	638529.94	-0.00020278333
0	0.6500466	0.64840066	-3.7149836e-10	0.06250824	0.06250824	0	47602.906	47482.367	-2.8205865e-05	640047.1	269121.47	-0.0003254574	270018.2	638639.44	-0.00021377817
0	0.6499321	0.6482783	-4.2104484e-10	0.062366635	0.062366635	0	47594.508	47473.402	-2.7416603e-05	640161.3	268840.78	-0.0002947987	269743.53	638748.75	-0.00022934788
0	0.64981717	0.64815545	-1.9051541e-10	0.06222535	0.06222535	0	47586.098	47464.406	-1.4100757e-05	640275.75	268559.3	-0.00022495976	269468.2	638858.3	-4.4616405e-05
0	0.6497015	0.64803195	-3.3322703e-10	0.06208415	0.06208415	0	47577.63	47455.367	-2.5434527e-05	640390.6	268276.53	-0.00034227455	269191.47	638968.2	-0.000143979
0	0.649587	0.64791006	-2.2828527e-10	0.061942477	0.061942477	0	47569.24	47446.445	-1.883139e-05	640503.25	267997.94	-0.00019513279	268918.53	639076.2	-0.00016488295
0	0.6494713	0.6477864	-2.858534e-10	0.061801177	0.061801177	0	47560.77	47437.383	-2.1387747e-05	640617.94	267714.94	-0.00030606726	268641.84	639185.94	-0.00010282056
0	0.649354	0.6476605	-4.91993e-10	0.061659623	0.061659623	0	47552.18	47428.164	-3.336686e-05	640734.8	267427.03	-0.00040916968	268360.72	639297.56	-0.00022873306
0	0.64923745	0.64753574	-2.3943236e-10	0.06151831	0.06151831	0	47543.645	47419.027	-1.869948e-05	640849.94	267142.4	-0.00023091296	268082.44	639407.56	-0.00012658096
0	0.6491217	0.6474125	-4.4587287e-10	0.06137672	0.06137672	0	47535.176	47410.008	-3.1457213e-05	640963.06	266861.47	-0.00037119573	267807.4	639515.94	-0.00023019864
0	0.6490025	0.64728475	-3.2031316e-10	0.061235435	0.061235435	0	47526.44	47400.65	-2.2564094e-05	641080.94	266570.1	-0.00024087388	267522.62	639628.56	-0.00019050318
0	0.6488869	0.64716154	-8.941789e-11	0.061094135	0.061094135	0	47517.977	47391.62	-1.0858717e-05	641193.56	266289.56	-2.7591512e-05	267248.1	639736.56	-0.00018000386
0	0.6487686	0.647035	-4.013816e-10	0.06095255	0.06095255	0	47509.312	47382.355	-2.917356e-05	641309.44	266001.7	-0.00033384716	266966.66	639847.3	-0.00022388868
0	0.6486496	0.6469068	-3.3416087e-10	0.06081125	0.06081125	0	47500.594	47372.977	-2.3224904e-05	641427.3	265709.84	-0.0002591871	266682.1	639959.75	-0.00018482319
0	0.64853245	0.6467819	-7.421483e-10	0.06066969	0.06066969	0	47492.02	47363.824	-5.322561e-05	641540.9	265426.28	-0.00056137796	266404.6	640068.4	-0.00045618147
0	0.6484131	0.64665425	-5.7286775e-10	0.060528405	0.060528405	0	47483.273	47354.49	-4.7028683e-05	641656.94	265136.62	-0.00053465297	266121.38	640179.44	-0.00036443447
0	0.6482947	0.6465275	-4.2853815e-10	0.060386807	0.060386807	0	47474.61	47345.195	-2.4460605e-05	641772.4	264848.75	-0.00025997584	265840.12	640289.7	-0.0002076584
0	0.64817417	0.64639854	-2.6245778e-10	0.060245506	0.060245506	0	47465.773	47335.758	-2.3102197e-05	641889.25	264556.7	-0.0001974815	265554.62	640401.4	-0.0002441829
0	0.6480542	0.6462704	-4.5374987e-10	0.06010422	0.06010422	0	47456.996	47326.367	-3.6636113e-05	642005.2	264266.28	-0.00038958876	265270.78	640512.25	-0.00031081503
0	0.6479334	0.64614	2.891965e-11	0.05996261	0.05996261	0	47448.15	47316.82	2.7781994e-06	642123.9	263970.7	7.278972e-06	264982.94	640625.2	4.5834233e-05
0	0.64781374	0.6460125	-4.8314047e-10	0.059821296	0.059821296	0	47439.39	47307.48	-3.715355e-05	642238.25	263682.66	-0.00041106268	264701	640734.8	-0.0002992334
0	0.6476915	0.64588094	-3.6152317e-10	0.059679788	0.059679788	0	47430.434	47297.848	-2.6920461e-05	642357.4	263385.03	-0.00025060514	264410.8	640848.2	-0.0002640563
0	0.6475708	0.64575124	-4.1358456e-10	0.05953849	0.05953849	0	47421.594	47288.344	-3.3865646e-05	642474	263092.12	-0.0003401737	264124.97	640959.6	-0.00030726474
0	0.64745086	0.64562315	4.6256138e-11	0.059396796	0.059396796	0	47412.816	47278.96	1.7473503e-06	642588.6	262803.22	1.7551223e-05	263842.62	641069.2	1.5854363e-05
0	0.6473273	0.6454903	-9.4166105e-11	0.059255593	0.059255593	0	47403.766	47269.242	-9.374414e-06	642707.94	262503.53	-7.929852e-05	263550.3	641182.8	-9.9920144e-05
0	0.6472071	0.6453616	-4.320517e-10	0.05911429	0.05911429	0	47394.96	47259.816	-2.864876e-05	642822.5	262213.9	-0.00032720482	263267.34	641292.3	-0.00022049795
0	0.64708215	0.64522743	-4.3067697e-10	0.058972668	0.058972668	0	47385.816	47249.992	-3.5284116e-05	642942.6	261911.53	-0.00033206216	262972.47	641406.75	-0.00034249437
0	0.64696145	0.64509815	-2.1395664e-10	0.058831364	0.058831364	0	47376.977	47240.527	-1.5122787e-05	643057.3	261621	-0.00014054812	262688.72	641516.4	-0.0001485671
0	0.6468364	0.64496344	-3.7680087e-10	0.05868988	0.05868988	0	47367.82	47230.664	-3.0058163e-05	643177.5	261318.11	-0.0003472555	262393.56	641630.8	-0.00022739201
0	0.64671326	0.6448311	-4.4587325e-10	0.05854817	0.05854817	0	47358.8	47220.973	-3.387777e-05	643294.9	261020.83	-0.00038809417	262103.64	641742.75	-0.00025957613
0	0.6465908	0.64470017	-1.1998533e-10	0.05840688	0.05840688	0	47349.836	47211.383	-3.533384e-06	643410.44	260727.12	-0.00010852021	261816.75	641853.1	4.096949e-05
0	0.6464649	0.6445645	-2.5827696e-10	0.05826568	0.05826568	0	47340.61	47201.445	-1.6848582e-05	643530.75	260422.61	-0.0001848496	261520.08	641967.6	-0.00013725914
0	0.6463405	0.64443076	-4.203655e-10	0.058124352	0.058124352	0	47331.504	47191.656	-2.877892e-05	643648.7	260123.03	-0.00025956403	261227.95	642080.1	-0.00029062718
0	0.646217	0.64429855	-2.3094747e-10	0.057982735	0.057982735	0	47322.46	47181.977	-1.5560445e-05	643764.7	259827.22	1.8814982e-05	260939.12	642190.8	-0.00031629726
0	0.64608973	0.6441616	-5.6673255e-10	0.05784144	0.05784144	0	47313.137	47171.938	-4.393055e-05	643885.4	259520.44	-0.00043504857	260640.17	642305.8	-0.0004048092
0	0.6459645	0.64402694	-5.228195e-10	0.057699878	0.057699878	0	47303.977	47162.082	-3.6884852e-05	644003.5	259219.45	-0.0004223503	260346.89	642418.3	-0.0002828089
0	0.6458402	0.6438937	-3.3595393e-10	0.057558257	0.057558257	0	47294.867	47152.32	-2.4058518e-05	644119.7	258922.05	-0.000251536	260056.6	642529.1	-0.00020841122
0	0.6457121	0.6437555	-2.0727293e-10	0.057416957	0.057416957	0	47285.48	47142.207	-1.9014846e-05	644240.8	258613.44	-0.00029191832	259756.12	642644.4	-7.160469e-05
0	0.64558715	0.64362156	-8.1146985e-11	0.05727573	0.05727573	0	47276.33	47132.39	-7.6193974e-06	644357.2	258314.75	-0.00011364109	259464.69	642755.44	-3.202543e-05
0	0.6454582	0.64348257	-2.2439232e-10	0.05713443	0.05713443	0	47266.9	47122.215	-2.0625881e-05	644478.56	258004.86	-0.00022569137	259163.05	642870.75	-0.0001686312
0	0.6453311	0.64334553	-3.7780198e-10	0.05699281	0.05699281	0	47257.58	47112.184	-2.8767925e-05	644597.5	257699.9	-0.00032621645	258866	642984	-0.0002237645
0	0.6452051	0.64321053	-2.566593e-10	0.056851286	0.056851286	0	47248.355	47102.3	-2.5124391e-05	644714	257399.75	-0.00029141543	258573.17	643095.1	-0.00018890898
0	0.6450748	0.64307	-4.318508e-10	0.056709964	0.056709964	0	47238.82	47092	-3.0247034e-05	644836.1	257086.84	-0.00026989108	258268.69	643211.06	-0.0003083673
0	0.64494663	0.6429318	-4.918077e-10	0.056568343	0.056568343	0	47229.43	47081.883	-3.8317452e-05	644955.44	256779.92	-0.00036835068	257969.97	643324.6	-0.00036419675
0	0.64481795	0.6427932	-2.8253494e-10	0.05642702	0.05642702	0	47220.004	47071.727	-2.3635705e-05	645074.9	256472.1	-0.00027298843	257670.19	643438.4	-0.00017887547
0	0.6446887	0.6426541	-1.793202e-10	0.05628581	0.05628581	0	47210.547	47061.543	-1.2434255e-05	645194.5	256163.58	-0.00015602431	257369.8	643552.1	-8.169194e-05
0	0.6445592	0.6425145	-3.7012093e-10	0.056144506	0.056144506	0	47201.062	47051.324	-2.5552212e-05	645314.25	255854.31	-0.00033025982	257068.69	643665.94	-0.00015824361
0	0.64442915	0.6423744	-1.9224167e-10	0.056002766	0.056002766	0	47191.54	47041.066	-1.8479823e-05	645434.25	255543.95	-0.00022673294	256766.56	643780.2	-0.0001265616
0	0.644299	0.64223415	-5.6935767e-10	0.055861373	0.055861373	0	47182.004	47030.793	-4.533683e-05	645554.1	255233.64	-0.0003960119	256464.47	643894.2	-0.00047073097
0	0.64416945	0.6420951	-3.5250625e-10	0.05572006	0.05572006	0	47172.516	47020.613	-2.4296929e-05	645672.25	254926.5	-0.000305617	256165.08	644006.7	-0.00015888816
0	0.6440366	0.6419516	-4.9096016e-10	0.05557843	0.05557843	0	47162.79	47010.1	-4.0143972e-05	645794.75	254609.14	-0.00037355121	255856.47	644123.1	-0.00039391534
0	0.64390725	0.64181256	-1.3914457e-10	0.055437095	0.055437095	0	47153.316	46999.92	-7.882836e-06	645912.5	254302.36	-0.00012732776	255557.66	644235.2	-2.3375147e-05
0	0.6437731	0.6416674	-3.1873462e-10	0.055295892	0.055295892	0	47143.492	46989.293	-2.0159936e-05	646036.06	253981.97	-0.0002704712	255246.31	644352.5	-0.00011494346
0	0.6436419	0.6415256	-2.440934e-10	0.055154584	0.055154584	0	47133.883	46978.91	-1.3766924e-05	646156.1	253669.44	-0.00021897203	254942.55	644466.44	-4.4222e-05
0	0.64350927	0.64138246	-3.304674e-10	0.05501284	0.05501284	0	47124.176	46968.426	-2.5402134e-05	646277.06	253354.17	-0.00033784658	254636	644581.3	-0.0001477877
0	0.643378	0.6412415	-5.603348e-10	0.054871462	0.054871462	0	47114.555	46958.098	-4.3927153e-05	646395.3	253044.02	-0.00047467515	254333.81	644694	-0.0003651177
0	0.64324266	0.6410949	-3.2317443e-10	0.05473016	0.05473016	0	47104.65	46947.367	-3.0457484e-05	646519.1	252721.5	-0.00024565004	254020.56	644811.3	-0.00033663167
0	0.643111	0.64095306	-1.5609672e-10	0.054588504	0.054588504	0	47095	46936.98	-1.3449977e-05	646637.7	252410.14	-0.00015648121	253717.56	644924.2	-0.00010065348
0	0.642977	0.6408086	-3.858022e-10	0.05444718	0.05444718	0	47085.195	46926.4	-2.715452e-05	646758.8	252092.84	-0.00030444388	253409.05	645039.2	-0.00021469223
0	0.6428408	0.6406608	-2.5397348e-10	0.054305978	0.054305978	0	47075.22	46915.58	-2.5456893e-05	646882.9	251768.38	-0.00027877314	253094.2	645156.7	-0.00020790801
0	0.6427076	0.6405176	-5.403357e-10	0.054164223	0.054164223	0	47065.465	46905.086	-4.487006e-05	647001.8	251454.7	-0.00047694304	252788.83	645269.9	-0.00038087615
0	0.6425708	0.6403691	-5.4679694e-10	0.0540229	0.0540229	0	47055.44	46894.22	-4.30118e-05	647125.94	251129.25	-0.0004666299	252473.06	645387.5	-0.0003556634
0	0.6424354	0.64022267	-2.5762206e-10	0.053881556	0.053881556	0	47045.54	46883.5	-1.4834967e-05	647247.56	250808.97	-0.0001929617	252162	645502.9	-9.0651025e-05
0	0.6422993	0.6400756	-3.419119e-10	0.053740222	0.053740222	0	47035.57	46872.723	-3.0082772e-05	647369.6	250487.16	-0.00028596207	251849.39	645618.7	-0.00028915596
0	0.642163	0.6399281	-2.81831e-10	0.053598575	0.053598575	0	47025.586	46861.93	-2.4737179e-05	647491.8	250165	-0.00027495966	251536.52	645734.4	-0.00019796209
0	0.64202636	0.63978046	-7.3738585e-12	0.053457268	0.053457268	0	47015.586	46851.11	-2.075202e-06	647613.7	249842.45	-3.320645e-05	251223.28	645850.2	-6.466958e-06
0	0.64188904	0.6396318	-1.9947471e-10	0.053315945	0.053315945	0	47005.523	46840.227	-1.6722563e-05	647736.2	249518.31	-0.00018016927	250908.53	645966.25	-0.00013953022
0	0.64175177	0.6394832	-4.696767e-10	0.0531743	0.0531743	0	46995.465	46829.34	-3.4560606e-05	647858.5	249194.25	-0.0003541026	250593.92	646082.25	-0.00030662198
0	0.64161384	0.6393339	-3.9784093e-10	0.053032976	0.053032976	0	46985.363	46818.414	-2.9792229e-05	647980.94	248869.25	-0.00033384367	250278.39	646198.3	-0.00023571981
0	0.64147675	0.63918626	-3.8427317e-10	0.052891634	0.052891634	0	46975.332	46807.6	-3.1918076e-05	648101.25	248548.12	-0.00031081808	249966.12	646312.6	-0.00029938697
0	0.64133835	0.6390364	-3.153747e-10	0.05275032	0.05275032	0	46965.19	46796.617	-1.9129326e-05	648224	248222.02	-0.00020119	249649.7	646428.94	-0.00016452161
0	0.64119744	0.6388832	-4.2038623e-10	0.05260866	0.05260866	0	46954.88	46785.402	-3.397727e-05	648349.5	247888.9	-0.00038509018	249327.02	646547.6	-0.00026448225
0	0.641058	0.6387321	-4.5149037e-10	0.05246734	0.05246734	0	46944.67	46774.344	-3.324898e-05	648472.4	247560.94	-0.0003310711	249008.88	646664	-0.000304578
0	0.6409182	0.63858056	-1.1558279e-10	0.052326016	0.052326016	0	46934.426	46763.242	-1.3698041e-05	648595.56	247232.11	-0.00016940165	248689.88	646780.7	-9.247547e-05
0	0.6407777	0.6384283	-5.6108107e-10	0.052184362	0.052184362	0	46924.137	46752.09	-3.9444247e-05	648719.06	246901.97	-0.00042479325	248369.73	646897.7	-0.00032929608
0	0.6406371	0.6382759	-4.4006418e-10	0.052043013	0.052043013	0	46913.84	46740.93	-3.328389e-05	648842.25	246571.92	-0.00039664985	248049.64	647014.3	-0.0002396667
0	0.64049596	0.63812286	-1.7450821e-10	0.051901728	0.051901728	0	46903.508	46729.727	-1.2271577e-05	648965.94	246240.69	-0.00011980987	247728.45	647131.3	-0.00011479635
0	0.6403544	0.63796926	-4.967901e-10	0.051760413	0.051760413	0	46893.137	46718.477	-3.4549856e-05	649089.7	245908.48	-0.000376404	247406.47	647248.44	-0.00028411506
0	0.6402124	0.6378154	-4.8338267e-10	0.05161863	0.05161863	0	46882.75	46707.21	-2.8754197e-05	649213.3	245575.98	-0.0003084584	247084.11	647365.56	-0.00024126013
0	0.6400701	0.63766086	-4.1808013e-10	0.051477425	0.051477425	0	46872.32	46695.887	-3.2733205e-05	649337.25	245242.3	-0.00034196518	246760.73	647482.94	-0.0002838234
0	0.6399273	0.637506	1.4813913e-10	0.0513361	0.0513361	0	46861.867	46684.55	9.424964e-06	649461.3	244908.22	0.00010382403	246437.03	647600.2	7.6361044e-05
0	0.63978416	0.6373505	-1.3657729e-10	0.0511944	0.0511944	0	46851.383	46673.17	-1.0646525e-05	649585.44	244573.14	-0.00015471959	246112.34	647717.7	-4.881911e-05
0	0.63964057	0.63719463	-3.2094943e-10	0.051053077	0.051053077	0	46840.867	46661.742	-2.2217942e-05	649709.9	244237.11	-0.00027502893	245786.89	647835.3	-0.00014973043
0	0.63949656	0.6370382	-4.0069079e-10	0.050911825	0.050911825	0	46830.32	46650.297	-3.1825675e-05	649834.3	243900.47	-0.000374753	245460.83	647953	-0.0002336856
0	0.63935345	0.6368835	-6.613003e-10	0.050770037	0.050770037	0	46819.844	46638.973	-4.982076e-05	649956.44	243568.25	-0.0005068243	245138.39	648068.75	-0.00044564166
0	0.6392069	0.63672364	-6.212594e-11	0.050628714	0.050628714	0	46809.105	46627.26	-5.909175e-06	650083.6	243224.34	-8.352768e-05	244805.9	648188.75	-2.9443054e-05
0	0.639062	0.6365661	-2.111931e-10	0.0504875	0.0504875	0	46798.5	46615.72	-1.631274e-05	650208.2	242886.02	-0.00010839833	244478.56	648306.44	-0.00020346625
0	0.63891625	0.6364077	-1.7709711e-10	0.050346155	0.050346155	0	46787.824	46604.12	-1.8151526e-05	650333.25	242546.08	-0.00017257126	244149.48	648424.56	-0.00017444695
0	0.6387702	0.6362488	-3.4833833e-10	0.050204474	0.050204474	0	46777.133	46592.49	-2.0067842e-05	650458.25	242205.69	-0.00023453722	243820.03	648542.7	-0.00014911682
0	0.6386233	0.63608915	-4.2815493e-10	0.05006314	0.05006314	0	46766.375	46580.793	-2.3588558e-05	650583.75	241863.56	-0.0002904404	243488.92	648661.3	-0.00016052219
0	0.63847667	0.6359295	-3.371794e-10	0.049921803	0.049921803	0	46755.633	46569.105	-2.741053e-05	650708.94	241521.86	-0.00029184937	243158.47	648779.4	-0.00023218108
0	0.6383292	0.635769	-3.764219e-10	0.049780127	0.049780127	0	46744.84	46557.355	-2.8385932e-05	650834.4	241178.8	-0.00031813307	242826.64	648897.9	-0.00022454502
0	0.63818127	0.63560814	-3.4770797e-10	0.049638797	0.049638797	0	46734.008	46545.57	-2.603138e-05	650960	240834.83	-0.000276121	242493.86	649016.5	-0.0002215431
0	0.6380324	0.63544613	-4.1600215e-10	0.04949756	0.04949756	0	46723.098	46533.707	-3.3086675e-05	651085.94	240489	-0.00036889676	242159.25	649135.56	-0.00026364945
0	0.6378844	0.6352848	-3.5814804e-10	0.04935623	0.04935623	0	46712.26	46521.895	-2.9431603e-05	651211.44	240144.84	-0.00028430656	241826.67	649254	-0.0002783625
0	0.6377349	0.6351221	-2.7935484e-10	0.04921455	0.04921455	0	46701.316	46509.977	-1.8884897e-05	651337.56	239798.06	-0.00027186802	241491.38	649372.9	-8.9170666e-05
0	0.6375872	0.6349618	-4.5592788e-10	0.049073216	0.049073216	0	46690.5	46498.24	-3.107614e-05	651461.1	239456.75	-0.0003451166	241160.97	649489.75	-0.00024899247
0	0.63743526	0.63479567	-4.986489e-10	0.04893189	0.04893189	0	46679.375	46486.074	-3.0253761e-05	651589.8	239102.97	-0.0003564871	240819.6	649610.94	-0.00022189987
0	0.63728666	0.63463414	-3.161714e-10	0.048790213	0.048790213	0	46668.484	46474.25	-2.486264e-05	651713.9	238759.77	-0.00031462312	240487.45	649728.06	-0.00016069715
0	0.637133	0.63446635	4.340683e-11	0.048648853	0.048648853	0	46657.234	46461.96	5.8153805e-06	651843.2	238402.94	6.506674e-05	240142.98	649849.94	4.611085e-05
0	0.63698447	0.6343049	-4.5420537e-10	0.04850764	0.04850764	0	46646.36	46450.133	-2.9662182e-05	651966.5	238060.34	-0.00036453304	239811.66	649966.5	-0.00020254418
0	0.63683176	0.63413876	-5.003906e-10	0.048366304	0.048366304	0	46635.176	46437.97	-3.5105102e-05	652093.44	237708.03	-0.00033182642	239471	650086.2	-0.00033930776
0	0.63667816	0.63397014	-1.32422484e-11	0.048224516	0.048224516	0	46623.93	46425.62	-2.2953668e-06	652223	237350.22	-2.7512224e-05	239126.45	650207.94	-1.6370259e-05
0	0.63652617	0.63380396	-5.232565e-10	0.0480833	0.0480833	0	46612.793	46413.453	-3.6886657e-05	652349.6	236998.34	-0.0004220123	238786.95	650327.3	-0.0002831814
0	0.63637286	0.63363665	-2.9194294e-10	0.047941964	0.047941964	0	46601.57	46401.2	-2.3747658e-05	652476.94	236644.22	-0.0002749418	238445.12	650447.06	-0.00017906242
0	0.63621926	0.63346905	-3.910213e-10	0.04780026	0.04780026	0	46590.32	46388.926	-2.7830165e-05	652604.1	236289.62	-0.00032709114	238102.88	650566.94	-0.00020496186
0	0.6360653	0.6333008	-3.732259e-10	0.04765894	0.04765894	0	46579.043	46376.6	-3.0195879e-05	652731.3	235934.31	-0.00033409722	237760.02	650686.8	-0.00024318317
0	0.6359104	0.6331318	-2.8728053e-10	0.047517724	0.047517724	0	46567.707	46364.23	-2.4775547e-05	652858.94	235577.48	-0.00023109214	237415.66	650807	-0.00024256311
0	0.63575566	0.6329626	-3.5598213e-10	0.047376387	0.047376387	0	46556.37	46351.832	-2.3276942e-05	652986.56	235220.4	-0.0003281619	237071.31	650927.1	-0.00011684324
0	0.6356003	0.63279265	-2.6771507e-10	0.047234587	0.047234587	0	46544.992	46339.39	-2.1775757e-05	653114.25	234862.31	-0.00023438694	236726.02	651047.3	-0.00018191877
0	0.6354443	0.6326221	-2.844776e-10	0.047093373	0.047093373	0	46533.57	46326.91	-2.4464887e-05	653242.1	234503.4	-0.0002227253	236379.88	651167.7	-0.0002449908
0	0.63528794	0.63245124	-4.286649e-10	0.04695201	0.04695201	0	46522.125	46314.39	-3.1702406e-05	653370.06	234143.6	-0.00035789338	236033.02	651288.1	-0.00024818856
0	0.635131	0.63227963	-4.5221907e-10	0.046810348	0.046810348	0	46510.633	46301.836	-3.1107003e-05	653498.2	233782.94	-0.00033574927	235685.3	651408.6	-0.00025894985
0	0.6349737	0.63210744	-1.13117425e-10	0.04666901	0.04666901	0	46499.11	46289.215	-1.0695299e-05	653626.56	233421.03	-0.0001491545	235336.64	651529.4	-5.5316672e-05
0	0.634816	0.6319348	-2.8669803e-10	0.046527795	0.046527795	0	46487.555	46276.574	-2.0279369e-05	653754.8	233058.72	-0.0002142717	234987.48	651650.06	-0.00017342629
0	0.6346591	0.6317641	-2.8892783e-10	0.046386022	0.046386022	0	46476.082	46264.07	-1.8111328e-05	653880.9	232700.83	-0.0002867894	234641.97	651768.94	-5.9460315e-05
0	0.63449806	0.63158715	-5.730044e-10	0.046244673	0.046244673	0	46464.277	46251.113	-3.9089286e-05	654012.5	232329.58	-0.00042728172	234284.84	651892.4	-0.0003200215
0	0.6343412	0.63141596	-2.1648275e-10	0.046103455	0.046103455	0	46452.79	46238.574	-2.149545e-05	654138.4	231971.38	-0.00029531636	233939.33	652010.94	-0.00011563051
0	0.6341796	0.6312383	-1.7137044e-11	0.045962088	0.045962088	0	46440.96	46225.562	-2.2429977e-06	654269.8	231599.23	-0.000105707404	233581.62	652134.3	6.2826104e-05
0	0.63401955	0.6310628	-2.5294045e-10	0.045820434	0.045820434	0	46429.24	46212.71	-1.5082461e-05	654398.9	231232.31	-0.00021898864	233228.5	652255.5	-6.93556e-05
0	0.63385904	0.63088673	-2.0511326e-10	0.045679096	0.045679096	0	46417.48	46199.824	-1.703756e-05	654527.9	230864.75	-0.00022715291	232874.77	652376.75	-9.856864e-05
0	0.63369787	0.63071007	-3.0126487e-10	0.04553775	0.04553775	0	46405.68	46186.883	-2.1409465e-05	654657.2	230495.95	-0.00025499798	232519.88	652498.2	-0.00015430499
0	0.6335362	0.6305328	-2.62574e-10	0.045396097	0.045396097	0	46393.844	46173.902	-1.8182265e-05	654786.56	230126.23	-0.00025713214	232164.16	652619.75	-9.047376e-05
0	0.63337386	0.6303548	-4.9496623e-10	0.04525476	0.04525476	0	46381.957	46160.867	-2.9825163e-05	654916.25	229755.27	-0.0004111725	231807.27	652741.44	-0.00015902058
0	0.6332113	0.6301765	-3.9174916e-10	0.04511351	0.04511351	0	46370.055	46147.812	-3.0334963e-05	655045.75	229383.9	-0.00018569555	231450.05	652863.1	-0.00039424383