# t (s)	mx ()	my ()	mz ()	B_extx (T)	B_exty (T)	B_extz (T)	m_fullx (A/m)	m_fully (A/m)	m_fullz (A/m)	m_full.region1x (A/m)	m_full.region1y (A/m)	m_full.region1z (A/m)	m_full.region2x (A/m)	m_full.region2y (A/m)	m_full.region2z (A/m)
0	0.65282696	0.6528237	-2.919134e-10	0.07071087	0.07071087	0	80245.49	80245.086	-4e-05	619100.56	294854.47	-0.00020643508	294857.25	619098.7	-0.00024558656
0	0.6527387	0.65273744	0	0.070569105	0.070569105	0	80234.65	80234.484	-6.25e-06	619172.94	294660.25	2.8473803e-05	294661.34	619172.1	-9.253986e-05
0	0.6526464	0.65264523	-8.146421e-11	0.07042788	0.07042789	0	80223.29	80223.15	-1.5e-05	619252.4	294451.6	-4.9829156e-05	294452.5	619251.75	-4.2710708e-05
0	0.65255386	0.65255266	-2.5796998e-10	0.07028653	0.07028653	0	80211.914	80211.78	-2.5e-05	619332.6	294241.78	-0.00022779043	294242.66	619332	-0.000113895214
0	0.65246207	0.65246093	-2.7154737e-10	0.070144884	0.070144884	0	80200.64	80200.49	-2.5e-05	619412.1	294033.8	-0.00021355353	294034.72	619411.44	-0.00018507973
0	0.65236914	0.652368	-2.919134e-10	0.07000352	0.07000352	0	80189.22	80189.08	-3.125e-05	619492.06	293823.84	-0.0001530467	293824.75	619491.44	-0.00022067198
0	0.6522761	0.652275	-3.9374368e-10	0.06986229	0.06986229	0	80177.79	80177.64	-4.5e-05	619571.9	293613.75	-0.00028473805	293614.62	619571.2	-0.0003345672
0	0.65218323	0.6521821	-2.1723788e-10	0.069720544	0.069720544	0	80166.37	80166.23	-2.75e-05	619651.56	293404.1	-0.00021355353	293405	619650.9	-0.000113895214
0	0.6520896	0.6520884	4.0732105e-11	0.069579184	0.06957919	0	80154.85	80154.71	5e-06	619731.44	293192.97	3.5592257e-05	293193.84	619730.8	1.0677677e-05
0	0.65199625	0.6519952	-2.7154737e-10	0.069437966	0.069437966	0	80143.38	80143.24	-3.5e-05	619811.25	292982.62	-0.00015660592	292983.53	619810.5	-0.0002669419
0	0.65190226	0.6519011	-1.35773675e-11	0.069296576	0.069296576	0	80131.83	80131.68	0	619891.44	292770.78	7.118451e-06	292771.7	619890.75	-6.406606e-05
0	0.65180856	0.65180755	-1.2219631e-10	0.06915496	0.06915496	0	80120.32	80120.18	-1.0625e-05	619971.4	292559.88	-0.00013525056	292560.75	619970.6	2.4914578e-05
0	0.65171415	0.6517131	-1.5613973e-10	0.069013596	0.069013596	0	80108.7	80108.56	-2.375e-05	620051.56	292347.44	-9.965831e-05	292348.3	620050.8	-0.00013525056
0	0.65161985	0.6516187	-3.9374368e-10	0.068872236	0.068872236	0	80097.12	80096.98	-5e-05	620131.6	292135.28	-0.00028117883	292136.2	620130.94	-0.0002918565
0	0.6515251	0.6515239	-3.4622288e-10	0.06873064	0.06873064	0	80085.46	80085.32	-4.4375e-05	620211.7	291922.53	-0.00031321184	291923.44	620210.94	-0.00020643508
0	0.65143037	0.6514293	-1.3577368e-10	0.06858927	0.06858927	0	80073.83	80073.69	-1.75e-05	620291.75	291709.97	-2.8473803e-05	291710.88	620291.06	-9.965831e-05
0	0.6513349	0.65133375	-1.4935105e-10	0.06844801	0.068448015	0	80062.08	80061.94	-1.5e-05	620372	291495.88	-8.5421416e-05	291496.78	620371.3	-0.00012813212
0	0.6512397	0.6512385	-2.5796998e-10	0.06830665	0.06830665	0	80050.38	80050.234	-2.75e-05	620452.4	291282.2	-0.00015660592	291283.12	620451.75	-0.00019219817
0	0.6511435	0.65114254	-1.7650578e-10	0.068165034	0.068165034	0	80038.57	80038.42	-1.75e-05	620533.5	291066.62	-0.00027050113	291067.5	620532.8	-1.4236902e-05
0	0.6510489	0.65104777	-4.616305e-10	0.068023674	0.068023674	0	80026.93	80026.79	-5e-05	620613.75	290853.78	-0.00034168566	290854.72	620613.06	-0.0003345672
0	0.6509524	0.65095115	-4.208984e-10	0.06788232	0.06788232	0	80015.07	80014.92	-4.125e-05	620694.06	290638.3	-0.00026338268	290639.2	620693.3	-0.00024202734
0	0.65085655	0.6508553	-3.5980025e-10	0.067740716	0.067740716	0	80003.29	80003.15	-4.75e-05	620774.56	290423.66	-0.00027050113	290424.62	620773.9	-0.0002918565
0	0.65075946	0.6507582	-2.6475866e-10	0.06759932	0.06759932	0	79991.36	79991.21	-2.75e-05	620855.9	290206.44	-0.00022779043	290207.38	620855.2	-0.00012101367
0	0.65066355	0.65066236	-1.3577368e-10	0.06745809	0.06745809	0	79979.57	79979.42	-1.5625e-05	620936.3	289991.72	-0.00024202734	289992.62	620935.7	-4.9829156e-05
0	0.6505673	0.6505662	-3.394342e-10	0.067316726	0.067316726	0	79967.74	79967.59	-3.75e-05	621016.56	289776.84	-0.00017084283	289777.8	621015.8	-0.00028473805
0	0.65046984	0.65046865	-2.3081526e-10	0.067174986	0.067174986	0	79955.76	79955.6	-2.25e-05	621097.5	289559.28	-0.00012101367	289560.22	621096.9	-0.00016372437
0	0.6503727	0.65037143	-2.7154737e-10	0.06703377	0.06703377	0	79943.79	79943.66	-3.1875e-05	621178.1	289342.6	-0.00019219817	289343.5	621177.4	-0.00021355353
0	0.6502743	0.65027314	-2.0366052e-10	0.066892385	0.066892385	0	79931.71	79931.58	-2.0625e-05	621259.4	289123.66	-0.00017084283	289124.62	621258.6	-9.965831e-05
0	0.6501773	0.65017605	-1.7650578e-10	0.06675076	0.066750765	0	79919.79	79919.65	-2.375e-05	621340.44	288906.8	-7.830296e-05	288907.7	621339.6	-0.0002242312
0	0.6500794	0.65007824	-3.4622288e-10	0.0666094	0.0666094	0	79907.766	79907.62	-4.5e-05	621421	288689.22	-0.0003381264	288690.16	621420.4	-0.00020643508
0	0.6499812	0.64998	-3.0549077e-10	0.06646816	0.06646817	0	79895.69	79895.54	-4.125e-05	621501.94	288470.78	-0.00027050113	288471.72	621501.2	-0.00019219817
0	0.6498825	0.64988124	-2.4439262e-10	0.06632643	0.06632643	0	79883.555	79883.41	-2.9375e-05	621582.94	288251.62	-0.00029541572	288252.6	621582.2	-6.406606e-05
0	0.649784	0.64978284	-1.3577368e-10	0.06618507	0.06618507	0	79871.45	79871.305	-1.75e-05	621664.2	288032.47	-0.00012101367	288033.44	621663.44	-1.4236902e-05
0	0.64968544	0.6496843	-8.146421e-11	0.06604384	0.06604384	0	79859.336	79859.19	-1.0625e-05	621745.4	287813.34	4.2710708e-05	287814.28	621744.6	-0.00013880979
0	0.6495861	0.6495849	-4.0732104e-10	0.065902434	0.065902434	0	79847.125	79846.98	-4.875e-05	621826.5	287593.06	-0.00039863324	287594	621825.75	-0.00022779043
0	0.64948714	0.6494859	-2.1723788e-10	0.06576085	0.06576085	0	79834.95	79834.805	-2.75e-05	621907.75	287373.28	-0.00014592825	287374.22	621907	-0.00019931662
0	0.64938736	0.6493861	-3.5301156e-10	0.065619476	0.06561948	0	79822.68	79822.53	-4e-05	621989.3	287151.94	-0.00021355353	287152.84	621988.6	-0.00034168566
0	0.64928806	0.6492868	-4.616305e-10	0.06547825	0.06547824	0	79810.484	79810.336	-5.5e-05	622070.7	286931.66	-0.0003772779	286932.62	622070	-0.00025626423
0	0.64918685	0.6491856	-3.5301156e-10	0.06533652	0.065336525	0	79798.05	79797.89	-4e-05	622152.7	286708	-0.00027761958	286708.97	622151.8	-0.00019931662
0	0.64908797	0.6490868	-9.504157e-11	0.06519514	0.06519514	0	79785.89	79785.74	-1.1875e-05	622233.5	286488.72	-0.00014236903	286489.72	622232.75	2.8473803e-05
0	0.64898676	0.6489855	-4.208984e-10	0.06505392	0.065053925	0	79773.45	79773.3	-4e-05	622315.4	286265.12	-0.00020999431	286266.1	622314.7	-0.000252705
0	0.6488866	0.6488854	-1.2219631e-10	0.064912505	0.06491251	0	79761.14	79760.99	-1.75e-05	622396.8	286043.47	2.4914578e-05	286044.44	622396.1	-0.00022779043
0	0.64878505	0.64878386	-4.0732104e-10	0.06477093	0.06477093	0	79748.664	79748.51	-5.375e-05	622478.75	285819.4	-0.00027050113	285820.34	622478	-0.00033100796
0	0.6486846	0.64868337	-3.5301156e-10	0.06462956	0.06462956	0	79736.31	79736.164	-5.125e-05	622560.25	285597.25	-0.00024202734	285598.22	622559.44	-0.0003772779
0	0.64858294	0.6485816	-1.7650578e-10	0.06448818	0.06448818	0	79723.81	79723.664	-2.5e-05	622641.56	285373.6	-0.0002242312	285374.56	622640.8	-5.6947607e-05
0	0.6484817	0.64848053	-3.9374368e-10	0.0643466	0.0643466	0	79711.38	79711.23	-5e-05	622723.1	285150.34	-0.00027050113	285151.28	622722.4	-0.00031321184
0	0.6483796	0.6483784	-1.7650578e-10	0.06420522	0.06420524	0	79698.82	79698.67	-2.25e-05	622805.3	284925.16	-0.00015660592	284926.12	622804.6	-0.00012813212
0	0.6482772	0.64827603	-1.0861894e-10	0.064063966	0.064063966	0	79686.234	79686.086	-8.125e-06	622887.9	284699.3	-0.00014592825	284700.3	622887.06	3.5592254e-06
0	0.6481755	0.6481741	-3.2585684e-10	0.06392258	0.06392258	0	79673.73	79673.58	-3.25e-05	622969.3	284475.3	-0.00028473805	284476.3	622968.6	-0.00015660592
0	0.6480729	0.64807165	-2.2402658e-10	0.063781016	0.06378101	0	79661.11	79660.96	-2.5e-05	623051.4	284249.6	-0.00012101367	284250.6	623050.56	-0.00021355353
0	0.6479698	0.64796853	-3.0549077e-10	0.06363963	0.06363963	0	79648.45	79648.29	-3e-05	623133.6	284023.06	-0.00032744874	284024.06	623132.9	-0.00013525056
0	0.64786744	0.64786613	-2.5796998e-10	0.06349824	0.06349824	0	79635.86	79635.71	-3.4375e-05	623215.2	283798.25	-0.00021355353	283799.25	623214.44	-0.00023490889
0	0.6477628	0.6477616	-3.1227945e-10	0.06335668	0.06335668	0	79623.01	79622.85	-4.25e-05	623298.1	283568.8	-0.00028473805	283569.8	623297.4	-0.00022779043
0	0.64766	0.64765877	-2.7154737e-10	0.063215286	0.063215286	0	79610.375	79610.21	-4e-05	623379.9	283343.12	-0.000113895214	283344.16	623379.1	-0.0002918565
0	0.64755726	0.647556	-5.634608e-10	0.06307404	0.06307404	0	79597.734	79597.59	-7.125e-05	623461.25	283118	-0.00029897495	283119.03	623460.5	-0.0005160877
0	0.64745224	0.64745104	-3.5301156e-10	0.062932655	0.062932655	0	79584.836	79584.68	-4e-05	623544.5	282887.66	-0.00033100796	282888.7	623543.75	-0.000106776766
0	0.64734846	0.6473473	-4.4805315e-10	0.062790945	0.062790945	0	79572.08	79571.914	-5.25e-05	623626.56	282660.34	-0.00027406035	282661.38	623625.8	-0.00042710706
0	0.64724356	0.64724225	-3.801663e-10	0.062649705	0.062649705	0	79559.18	79559.02	-4.0625e-05	623708.8	282431.22	-0.00027050113	282432.22	623708	-0.00022067198
0	0.64713955	0.64713824	-5.7024946e-10	0.06250833	0.06250833	0	79546.39	79546.234	-6.6875e-05	623790.7	282203.6	-0.00048405468	282204.6	623789.94	-0.0003488041
0	0.6470332	0.64703196	-1.0861894e-10	0.06236674	0.06236674	0	79533.33	79533.164	-1.0625e-05	623873.94	281971.6	-6.762528e-05	281972.6	623873.2	-5.6947607e-05
0	0.64692944	0.64692813	-6.788684e-11	0.062225346	0.062225346	0	79520.56	79520.41	-1.25e-05	623955.75	281744.38	-0.00022779043	281745.38	623955	4.2710708e-05
0	0.64682305	0.6468219	-3.1227945e-10	0.06208412	0.06208412	0	79507.5	79507.336	-4e-05	624038.3	281513	-0.0003772779	281514.03	624037.56	-0.00012813212
0	0.64671755	0.6467163	-1.7650578e-10	0.061942417	0.061942413	0	79494.516	79494.36	-2.5e-05	624121	281282.53	-0.00011033599	281283.53	624120.3	-0.00020643508
0	0.64661187	0.6466105	-3.2585684e-10	0.061801024	0.061801024	0	79481.53	79481.375	-4e-05	624203.9	281051.66	-0.00028473805	281052.72	624203.06	-0.00022779043
0	0.64650583	0.64650464	-3.9374368e-10	0.06165979	0.06165979	0	79468.5	79468.34	-5.125e-05	624286.5	280820.72	-0.0003488041	280821.75	624285.75	-0.00026338268
0	0.64639956	0.64639825	1.35773675e-11	0.061518367	0.061518367	0	79455.43	79455.28	0	624369.2	280589.12	-2.1355354e-05	280590.16	624368.44	3.203303e-05
0	0.6462922	0.64629084	-7.467552e-11	0.061376818	0.06137681	0	79442.234	79442.08	-2e-05	624452.3	280355.72	-0.00014236903	280356.78	624451.56	-5.3388383e-05
0	0.6461859	0.6461847	-4.4805315e-10	0.061235435	0.061235435	0	79429.17	79429.016	-5.8125e-05	624535	280124.3	-0.0004484624	280125.34	624534.1	-0.00030253417
0	0.64607894	0.64607763	-2.4439262e-10	0.061094042	0.061094042	0	79416.02	79415.85	-2.75e-05	624617.7	279891.75	-0.00015660592	279892.75	624616.94	-0.00019219817
0	0.6459705	0.6459693	-2.987021e-10	0.0609525	0.060952503	0	79402.7	79402.54	-3.75e-05	624700.75	279656.97	-0.00025626423	279658	624699.94	-0.00018507973
0	0.64586395	0.64586264	-2.5796998e-10	0.060811114	0.060811102	0	79389.59	79389.44	-3.5e-05	624783.56	279424.94	-0.00017796128	279425.97	624782.75	-0.0001530467
0	0.6457553	0.645754	-2.1723788e-10	0.06066984	0.06066984	0	79376.234	79376.08	-3e-05	624866.44	279190	-0.00020999431	279191	624865.6	-0.000106776766
0	0.6456469	0.6456456	-2.7154737e-10	0.060528453	0.060528446	0	79362.92	79362.75	-3e-05	624949.75	278954.88	-0.00014236903	278955.88	624948.94	-0.00024202734
0	0.64553875	0.64553744	-4.2768708e-10	0.060386896	0.060386896	0	79349.625	79349.46	-4.5e-05	625033.1	278720.03	-0.00031321184	278721.1	625032.3	-0.0003060934
0	0.6454308	0.6454295	-3.2585684e-10	0.060245506	0.060245506	0	79336.35	79336.195	-4.0625e-05	625115.9	278486.2	-0.000363041	278487.25	625115.06	-0.000117454445
0	0.6453212	0.6453199	-3.1227945e-10	0.060104124	0.060104124	0	79322.88	79322.72	-4e-05	625198.9	278249.72	-0.00029897495	278250.78	625198.06	-0.00012813212
0	0.6452126	0.6452112	-4.0732104e-10	0.05996258	0.05996258	0	79309.52	79309.37	-5.25e-05	625282.25	278014.2	-0.00020287586	278015.25	625281.56	-0.0003488041
0	0.6451033	0.64510196	-3.801663e-10	0.059821147	0.059821147	0	79296.1	79295.94	-5e-05	625365.4	277778.25	-0.00041998862	277779.3	625364.56	-0.00014058941
0	0.6449931	0.64499176	-1.2219631e-10	0.059679918	0.059679918	0	79282.555	79282.39	-1.25e-05	625449.4	277540.03	-8.5421416e-05	277541.06	625448.5	-6.406606e-05
0	0.64488363	0.6448822	-2.987021e-10	0.05953851	0.05953851	0	79269.09	79268.93	-3.75e-05	625532.6	277303.4	-0.00022779043	277304.4	625531.75	-0.00027050113
0	0.6447736	0.6447723	-2.1723788e-10	0.059396826	0.059396826	0	79255.56	79255.4	-3e-05	625615.6	277066.38	-0.00027050113	277067.4	625614.8	-8.5421416e-05
0	0.64466256	0.6446612	1.3577368e-10	0.059255596	0.059255596	0	79241.914	79241.75	1.25e-05	625699.06	276827.44	5.6947607e-05	276828.5	625698.3	4.9829156e-05
0	0.6445525	0.64455116	-1.4935105e-10	0.059114188	0.059114188	0	79228.4	79228.23	-2.25e-05	625782.5	276589.97	7.118451e-06	276591.03	625781.7	-0.0002242312
0	0.6444415	0.64444005	-4.0732104e-10	0.058972627	0.058972627	0	79214.74	79214.57	-5e-05	625866.3	276350.66	-0.00026338268	276351.75	625865.5	-0.00038439635
0	0.6443294	0.6443281	8.146421e-11	0.058831234	0.058831234	0	79200.98	79200.81	1.5e-05	625949.7	276110.47	0	276111.53	625948.9	0.00017084283
0	0.6442182	0.64421695	-2.1723788e-10	0.05868999	0.05868999	0	79187.31	79187.14	-2.25e-05	626033.75	275870.8	-0.00024914579	275871.88	626032.94	-8.5421416e-05
0	0.6441069	0.64410555	-6.788684e-11	0.0585483	0.0585483	0	79173.62	79173.445	-1e-05	626117.56	275631.03	-7.474374e-05	275632.06	626116.7	-3.5592257e-05
0	0.64399517	0.64399385	-1.2219631e-10	0.058406904	0.058406904	0	79159.88	79159.72	-1.3125e-05	626200.75	275391.38	-0.000113895214	275392.5	626199.94	-6.762528e-05
0	0.6438824	0.643881	-4.2768708e-10	0.058265664	0.058265664	0	79146.02	79145.86	-5.5e-05	626284.9	275149.38	-0.00035592256	275150.47	626284	-0.00028473805
0	0.6437699	0.64376867	2.0366053e-11	0.05812423	0.05812423	0	79132.2	79132.04	-3.125e-06	626368.9	274907.97	-8.5421416e-05	274909.03	626368.06	-1.4236902e-05
0	0.64365715	0.6436557	-2.7154737e-10	0.057982713	0.057982713	0	79118.33	79118.16	-3.6875e-05	626452.8	274666.1	-0.00028473805	274667.2	626451.94	-0.00016016515
0	0.64354414	0.64354277	-3.801663e-10	0.05784131	0.057841305	0	79104.45	79104.27	-4.75e-05	626536.7	274424.06	-0.00028473805	274425.12	626535.9	-0.00024914579
0	0.6434309	0.6434296	0	0.057699904	0.057699904	0	79090.52	79090.36	6.25e-06	626620.6	274181.53	-1.4236902e-05	274182.62	626619.8	2.8473803e-05
0	0.64331734	0.643316	-2.1723788e-10	0.057558395	0.057558388	0	79076.56	79076.39	-3.5e-05	626704.3	273938.84	-0.00015660592	273939.9	626703.5	-0.00020643508
0	0.643204	0.6432026	-2.3081526e-10	0.057416987	0.057416987	0	79062.63	79062.47	-3e-05	626787.7	273696.72	-0.00029897495	273697.88	626786.9	-8.5421416e-05
0	0.64308894	0.64308757	-5.1593996e-10	0.05727571	0.05727571	0	79048.5	79048.33	-6.1875e-05	626873	273450.44	-0.00035948178	273451.56	626872.2	-0.00041998862
0	0.6429746	0.6429732	-2.6475866e-10	0.0571343	0.0571343	0	79034.44	79034.266	-3.0625e-05	626956.7	273206.66	-0.00015660592	273207.78	626955.8	-0.00022779043
0	0.6428605	0.64285916	-8.825289e-11	0.05699279	0.05699279	0	79020.42	79020.234	-1.25e-05	627041	272962.62	-7.118451e-05	272963.7	627040.2	-8.5421416e-05
0	0.6427452	0.64274377	-3.9374368e-10	0.056851387	0.056851387	0	79006.24	79006.06	-4.4375e-05	627124.7	272717.5	-0.00027050113	272718.6	627123.8	-0.00027050113
0	0.6426296	0.6426282	-5.430947e-11	0.056709986	0.05670998	0	78992.02	78991.86	-1.4375e-05	627209.5	272470.88	-9.965831e-05	272471.97	627208.6	-4.2710708e-05
0	0.6425152	0.64251375	-4.0732104e-10	0.05656847	0.05656847	0	78977.97	78977.79	-4.25e-05	627293.56	272226.62	-0.00024202734	272227.72	627292.7	-0.00029541572
0	0.6423986	0.64239717	-2.6475866e-10	0.05642703	0.05642703	0	78963.64	78963.47	-2.9375e-05	627378.06	271978.8	-0.00020643508	271979.94	627377.3	-0.00015660592
0	0.642283	0.64228165	5.430947e-11	0.056285787	0.056285787	0	78949.43	78949.266	1e-05	627461.8	271733.34	5.6947607e-05	271734.47	627460.94	0
0	0.64216673	0.64216536	-5.4309474e-10	0.05614437	0.056144364	0	78935.14	78934.97	-6.25e-05	627546.8	271485.6	-0.00049829157	271486.72	627546	-0.00029897495
0	0.6420499	0.6420486	-2.987021e-10	0.0560027	0.056002706	0	78920.78	78920.61	-3.5e-05	627631.06	271237.78	-0.00025626423	271238.88	627630.2	-0.00017084283
0	0.64193326	0.6419318	-3.1227945e-10	0.05586147	0.05586147	0	78906.43	78906.26	-4.5625e-05	627715.5	270989.78	-0.00031321184	270990.9	627714.75	-0.00017084283
0	0.6418162	0.6418148	-2.8512473e-10	0.055720054	0.055720054	0	78892.04	78891.875	-3.75e-05	627800	270741.56	-0.0001957574	270742.66	627799.1	-0.00020643508
0	0.64169836	0.641697	-2.5796998e-10	0.05557856	0.05557856	0	78877.56	78877.39	-3e-05	627884.94	270491.62	-0.00023134965	270492.75	627884.2	-0.00014948747
0	0.6415815	0.64158016	-1.6292842e-10	0.0554371	0.05543711	0	78863.2	78863.03	-2e-05	627969.3	270243.8	-0.000113895214	270244.88	627968.44	-0.00016372437
0	0.64146245	0.6414611	-5.023626e-10	0.05529586	0.05529586	0	78848.56	78848.39	-5.875e-05	628054.56	269991.84	-0.0003203303	269992.94	628053.6	-0.00039507402
0	0.64134455	0.64134306	-3.2585684e-10	0.055154454	0.055154454	0	78834.07	78833.89	-3.8125e-05	628139.25	269742	-0.00019931662	269743.16	628138.3	-0.00027050113
0	0.64122635	0.6412249	0	0.05501279	0.05501279	0	78819.55	78819.375	-5.625e-06	628223.44	269492.3	-0.00017084283	269493.44	628222.6	0.00012101367
0	0.6411074	0.6411059	-2.7154737e-10	0.054871544	0.054871544	0	78804.91	78804.74	-3.8125e-05	628308.9	269240.28	-0.0002669419	269241.4	628308	-0.00017440206
0	0.6409882	0.64098674	-2.0366052e-10	0.05473013	0.054730132	0	78790.266	78790.09	-2.25e-05	628393.4	268988.9	-8.898064e-05	268990.03	628392.5	-0.00018507973
0	0.6408693	0.6408679	-2.3081526e-10	0.054588605	0.054588605	0	78775.664	78775.484	-2.875e-05	628478.2	268737.8	-0.00024202734	268738.97	628477.3	-7.118451e-05
0	0.6407497	0.64074814	-9.504157e-11	0.05444718	0.05444719	0	78760.95	78760.766	-7.5e-06	628562.94	268485.34	-7.118451e-05	268486.53	628562.2	-7.830296e-05
0	0.6406301	0.64062864	-1.7650578e-10	0.05430595	0.05430595	0	78746.26	78746.08	-3.375e-05	628647.7	268233.3	-0.00030965262	268234.44	628646.8	-5.6947607e-05
0	0.64050984	0.6405084	-2.3760394e-10	0.054164287	0.054164287	0	78731.48	78731.3	-2.3125e-05	628733.2	267979.5	-0.00024202734	267980.66	628732.3	-9.253986e-05
0	0.6403893	0.6403879	-3.2585684e-10	0.05402286	0.05402286	0	78716.66	78716.47	-4.125e-05	628817.9	267726.03	-0.00014592825	267727.2	628817	-0.00037015945
0	0.6402674	0.6402658	-2.2402658e-10	0.053881623	0.053881623	0	78701.664	78701.484	-2.625e-05	628903.94	267469.22	-0.00029541572	267470.34	628903.1	-5.6947607e-05
0	0.6401474	0.6401459	-4.752079e-10	0.053740162	0.053740162	0	78686.914	78686.734	-5.625e-05	628988.25	267216.88	-0.00042710706	267218.03	628987.44	-0.00024914579
0	0.6400261	0.6400247	-2.5796998e-10	0.053598687	0.053598683	0	78672.01	78671.83	-3.4375e-05	629073.44	266962.03	-0.00032744874	266963.22	629072.56	-0.00011033599
0	0.63990426	0.6399028	-2.7154737e-10	0.053457264	0.053457264	0	78657.02	78656.84	-3.375e-05	629159	266705.78	-0.0002242312	266706.94	629158.06	-0.00021355353
0	0.639783	0.6397816	-7.467552e-10	0.05331584	0.05331584	0	78642.13	78641.945	-9.0625e-05	629243.75	266451.25	-0.00051252847	266452.4	629242.94	-0.00056235766
0	0.63966054	0.6396591	-1.2898499e-10	0.05317437	0.053174376	0	78627.07	78626.9	-1.5e-05	629329.3	266194.3	-3.5592254e-06	266195.47	629328.44	-0.00013525056
0	0.6395377	0.63953614	-1.9687184e-10	0.053032946	0.053032946	0	78611.98	78611.78	-1.9375e-05	629414.8	265936.78	-0.00021355353	265937.97	629413.9	-6.406606e-05
0	0.6394156	0.6394141	-2.7154737e-10	0.05289166	0.05289166	0	78596.97	78596.77	-2.5625e-05	629499.5	265681.12	-0.00032744874	265682.28	629498.6	-2.1355354e-05
0	0.6392915	0.63929003	-1.35773675e-11	0.052750226	0.052750226	0	78581.72	78581.53	1.25e-06	629585.6	265421.28	-0.00012101367	265422.47	629584.75	0.00012813212
0	0.6391689	0.6391674	-1.6292842e-10	0.05260877	0.052608766	0	78566.65	78566.47	-2.5e-05	629670.75	265164.6	-0.00022067198	265165.78	629669.9	-4.9829156e-05
0	0.63904494	0.63904345	-2.8512473e-10	0.052467342	0.052467342	0	78551.41	78551.22	-3.375e-05	629756.2	264905.53	-0.00022779043	264906.7	629755.25	-0.00024202734
0	0.638921	0.63891953	-1.9008314e-10	0.052325908	0.052325904	0	78536.17	78536	-2e-05	629841.94	264646.34	-0.00014236903	264647.53	629841	-5.6947607e-05
0	0.63879746	0.63879603	-4.2768708e-10	0.05218445	0.05218445	0	78520.984	78520.8	-5.75e-05	629926.75	264388.5	-0.00035236333	264389.66	629925.9	-0.00027050113
0	0.6386722	0.6386706	-1.2898499e-10	0.052042987	0.052042987	0	78505.58	78505.39	-2.25e-05	630012.5	264127.3	-0.00019931662	264128.5	630011.56	-2.1355354e-05
0	0.63854706	0.6385455	-6.788684e-11	0.051901724	0.051901728	0	78490.2	78490.02	-5e-06	630098.6	263866.1	-0.00014236903	263867.28	630097.7	7.118451e-06
0	0.6384222	0.6384207	-5.4309474e-10	0.051760294	0.051760297	0	78474.87	78474.67	-6.625e-05	630184.25	263605.62	-0.00056235766	263606.78	630183.4	-0.00023490889
0	0.63829714	0.6382957	4.7520786e-11	0.051618665	0.051618665	0	78459.49	78459.31	1.1875e-05	630269.7	263345.28	8.5421416e-05	263346.47	630268.7	7.118451e-05
0	0.63817126	0.63816977	-5.023626e-10	0.05147742	0.05147743	0	78444.01	78443.82	-6.25e-05	630355.1	263083.53	-0.00035948178	263084.75	630354.2	-0.00038795557
0	0.6380446	0.6380431	-2.5796998e-10	0.051335983	0.051335983	0	78428.445	78428.266	-3.25e-05	630441.75	262819.56	-0.00030253417	262820.78	630440.75	-7.830296e-05
0	0.637919	0.63791746	-4.616305e-10	0.051194493	0.051194496	0	78413	78412.81	-5.3125e-05	630527.06	262558.3	-0.00028473805	262559.53	630526.06	-0.00028473805
0	0.6377923	0.63779074	-3.2585684e-10	0.051053066	0.051053066	0	78397.42	78397.234	-3.875e-05	630613.06	262294.84	-0.0001815205	262296.1	630612.1	-0.00030253417
0	0.6376652	0.6376638	-1.1540763e-10	0.050911807	0.050911807	0	78381.81	78381.625	-8.75e-06	630698.94	262031.22	-0.00014236903	262032.44	630698.06	2.1355354e-05
0	0.63753814	0.6375367	-1.3577368e-10	0.050770186	0.050770186	0	78366.195	78366	-1.9375e-05	630784.8	261767.44	-0.00017084283	261768.69	630783.9	-2.8473803e-05
0	0.63741106	0.63740957	-5.566721e-10	0.050628755	0.050628755	0	78350.57	78350.375	-6.9375e-05	630870.4	261503.94	-0.00048405468	261505.2	630869.4	-0.0003772779
0	0.6372827	0.6372812	-2.919134e-10	0.050487496	0.050487496	0	78334.79	78334.59	-3.1875e-05	630956.94	261237.53	-0.00024202734	261238.75	630956	-0.00017796128
0	0.6371543	0.63715273	-4.5484183e-10	0.050346017	0.050346017	0	78319.01	78318.82	-5.625e-05	631042.5	260972.23	-0.00029897495	260973.45	631041.6	-0.0003915148
0	0.6370263	0.63702476	-3.9374368e-10	0.05020459	0.05020459	0	78303.266	78303.07	-4.125e-05	631128.75	260706.75	-0.00028117883	260707.98	631127.75	-0.00025982346
0	0.6368978	0.6368962	-3.394342e-10	0.050063144	0.050063144	0	78287.48	78287.29	-4.375e-05	631214.5	260441.22	-0.00020643508	260442.47	631213.56	-0.00028473805
0	0.63676834	0.6367668	-3.801663e-10	0.049921695	0.049921695	0	78271.57	78271.37	-4.375e-05	631300.44	260174.03	-0.00034168566	260175.25	631299.5	-0.00018507973
0	0.6366388	0.63663733	-3.801663e-10	0.04978028	0.04978028	0	78255.65	78255.45	-5.5e-05	631386.8	259906.22	-0.00031677107	259907.47	631385.94	-0.0003060934
0	0.63650924	0.6365078	-4.208984e-10	0.049638826	0.049638826	0	78239.73	78239.53	-5.625e-05	631473.4	259638.4	-0.00029541572	259639.66	631472.44	-0.00032744874
0	0.63637966	0.63637805	2.1723788e-10	0.04949753	0.04949753	0	78223.78	78223.61	2.625e-05	631559.25	259371.06	0.00022779043	259372.3	631558.4	0.00012101367
0	0.63624835	0.6362468	-4.5484183e-10	0.04935608	0.049356084	0	78207.65	78207.45	-5.625e-05	631646.2	259100.34	-0.00037015945	259101.6	631645.2	-0.00025626423
0	0.6361186	0.6361169	-3.1227945e-10	0.049214657	0.049214657	0	78191.68	78191.5	-4e-05	631731.56	258833.03	-0.00043778474	258834.28	631730.75	-6.0506834e-05
0	0.6359873	0.6359857	-3.1227945e-10	0.049073208	0.049073208	0	78175.555	78175.35	-4e-05	631818.4	258562.42	-0.00019931662	258563.7	631817.56	-0.00024914579
0	0.6358566	0.635855	-2.8512473e-10	0.048931766	0.048931766	0	78159.49	78159.3	-3e-05	631904.44	258293.56	-0.00028117883	258294.81	631903.5	-0.00013880979
0	0.6357248	0.6357232	-4.2768708e-10	0.04879036	0.04879036	0	78143.29	78143.09	-5.625e-05	631991	258022.4	-0.00039863324	258023.69	631990.06	-0.00025626423
0	0.6355931	0.6355915	-2.104492e-10	0.048648857	0.048648857	0	78127.1	78126.91	-2.4375e-05	632077.4	257751.73	-0.00015660592	257752.98	632076.44	-9.965831e-05
0	0.6354603	0.6354587	-3.1227945e-10	0.04850761	0.04850761	0	78110.78	78110.586	-3.375e-05	632163.94	257479.23	-0.00019931662	257480.52	632162.94	-0.00025626423
0	0.6353282	0.63532656	-2.5796998e-10	0.048366144	0.048366144	0	78094.54	78094.34	-3.375e-05	632250.1	257208.1	-0.00038083713	257209.33	632249.1	-2.1355354e-05
0	0.63519555	0.63519394	-6.1098154e-10	0.04822455	0.04822455	0	78078.24	78078.05	-7.5e-05	632336.56	256936	-0.00052676536	256937.28	632335.56	-0.00035592256
0	0.6350609	0.63505936	-1.5613973e-10	0.048083294	0.048083294	0	78061.69	78061.5	-2.5e-05	632424.3	256659.8	-0.00013525056	256661.08	632423.3	-0.00014236903
0	0.6349295	0.63492787	-2.4439262e-10	0.04794183	0.04794183	0	78045.53	78045.33	-3.125e-05	632509.6	256390.36	-0.00027406035	256391.64	632508.6	-0.000106776766
0	0.63479483	0.63479316	-5.3630606e-10	0.047800392	0.047800392	0	78028.98	78028.78	-6.3125e-05	632596.7	256114.7	-0.00045558086	256115.98	632595.7	-0.0003203303
0	0.6346614	0.6346597	-5.566721e-10	0.047658946	0.047658946	0	78012.57	78012.37	-6.25e-05	632682.94	255841.56	-0.0003915148	255842.84	632682	-0.0003772779
0	0.6345267	0.6345251	-3.5301156e-10	0.047517676	0.047517676	0	77996.02	77995.82	-3.625e-05	632769.8	255566.23	-0.0003345672	255567.55	632768.9	-0.00014948747
0	0.6343916	0.63438994	-2.0366053e-11	0.04737623	0.04737622	0	77979.414	77979.22	-2.5e-06	632856.94	255290.05	-9.965831e-05	255291.33	632855.94	7.118451e-05
0	0.6342565	0.634255	-3.1227945e-10	0.047234632	0.047234632	0	77962.81	77962.62	-3e-05	632943.44	255014.42	-0.00039507402	255015.73	632942.44	2.8473803e-05
0	0.634121	0.6341193	-4.4805315e-10	0.047093365	0.047093365	0	77946.16	77945.945	-5.625e-05	633030.56	254737.53	-0.00042710706	254738.86	633029.56	-0.00027761958
0	0.63398516	0.6339836	-2.7154737e-10	0.046951856	0.046951856	0	77929.46	77929.266	-2.75e-05	633117.5	254460.44	-0.00017084283	254461.72	633116.5	-0.00016372437
0	0.63384944	0.63384783	4.0732105e-11	0.04681048	0.04681048	0	77912.78	77912.586	0	633203.75	254184.23	-9.253986e-05	254185.55	633202.75	1.4236902e-05
0	0.6337129	0.63371134	-3.5301156e-10	0.046669014	0.046669014	0	77895.984	77895.79	-3.625e-05	633290.75	253905.95	-0.00019219817	253907.27	633289.75	-0.00025982346
0	0.63357645	0.6335748	-1.9008314e-10	0.046527762	0.046527762	0	77879.22	77879.016	-2.3125e-05	633377.7	253628.12	-0.00018507973	253629.44	633376.6	-8.5421416e-05
0	0.63343966	0.633438	-8.825289e-11	0.04638618	0.04638618	0	77862.4	77862.195	-3.75e-06	633464.4	253349.78	-7.830296e-05	253351.12	633463.4	3.5592257e-05
0	0.63330215	0.6333004	-2.987021e-10	0.046244707	0.04624471	0	77845.5	77845.3	-3.125e-05	633550.94	253070.69	-0.000117454445	253072	633550	-0.00020643508
0	0.63316417	0.63316256	-2.1723788e-10	0.046103448	0.04610345	0	77828.55	77828.34	-3.3125e-05	633638.5	252790.11	-0.00028473805	252791.45	633637.56	-0.000113895214
0	0.6330265	0.6330248	-3.394342e-10	0.045961928	0.045961928	0	77811.62	77811.414	-4.0625e-05	633725.1	252510.61	-0.00020643508	252511.95	633724.2	-0.00024202734
0	0.632888	0.63288635	-4.616305e-10	0.04582056	0.04582056	0	77794.6	77794.4	-5.625e-05	633811.94	252230.03	-0.00039863324	252231.4	633810.94	-0.00024202734
0	0.6327491	0.6327474	-5.4309474e-10	0.0456791	0.0456791	0	77777.52	77777.31	-7.3125e-05	633899.4	251948.03	-0.00034168566	251949.38	633898.4	-0.00048405468
0	0.6326097	0.63260794	-3.5301156e-10	0.04553762	0.04553762	0	77760.38	77760.17	-4.75e-05	633987.06	251665.11	-0.00037015945	251666.45	633986.1	-0.00017796128
0	0.63247097	0.63246936	-3.0549077e-10	0.045396265	0.045396265	0	77743.336	77743.125	-4.6875e-05	634073.56	251384.42	-0.0002242312	251385.77	634072.6	-0.00027761958
0	0.63233083	0.6323291	-2.104492e-10	0.04525479	0.04525479	0	77726.11	77725.91	-2.75e-05	634160.7	251101.12	-0.00015660592	251102.5	634159.7	-0.00021355353
0	0.63219094	0.6321893	-3.2585684e-10	0.045113478	0.04511347	0	77708.914	77708.7	-3.75e-05	634248.1	250817.84	-0.00018507973	250819.2	634247.1	-0.00022779043
0	0.63205045	0.63204885	-1.6292842e-10	0.04497199	0.044972	0	77691.65	77691.44	-3e-05	634335.4	250533.97	-0.00013525056	250535.36	634334.3	-0.00014236903
0	0.63190955	0.63190776	-5.4309474e-10	0.04483065	0.04483065	0	77674.31	77674.1	-6.75e-05	634422.9	250249.03	-0.00051252847	250250.38	634421.9	-0.00028473805
0	0.63176906	0.6317674	-2.7154737e-10	0.044689175	0.044689175	0	77657.055	77656.84	-3.75e-05	634509.7	249965.58	-0.00038083713	249967	634508.6	-9.965831e-05
0	0.6316274	0.63162565	-5.430947e-11	0.044547684	0.044547684	0	77639.64	77639.42	-6.875e-06	634596.8	249680.06	-9.965831e-05	249681.47	634595.9	0
0	0.6314855	0.6314838	-2.6475866e-10	0.04440636	0.04440635	0	77622.2	77621.984	-3.375e-05	634684.3	249394.03	-0.00037015945	249395.4	634683.3	-7.118451e-06
0	0.63134325	0.6313415	-2.8512473e-10	0.044264823	0.044264823	0	77604.72	77604.51	-4e-05	634771.5	249107.77	-0.00014948747	249109.17	634770.44	-0.00032744874
0	0.63120073	0.631199	-5.023626e-10	0.04412355	0.04412355	0	77587.19	77586.98	-6.375e-05	634859.5	248820.22	-0.00032388952	248821.6	634858.44	-0.00045558086