//mumax 3.10 [windows_amd64 go1.11.6(gc) CUDA-11.0]
//GPU info: NVIDIA GeForce RTX 3090(24575MB), CUDA Driver 12.1, cc=8.6, using cc=80 PTX
//(c) Arne Vansteenkiste, Dynamat LAB, Ghent University, Belgium
//This is free software without any warranty. See license.txt
//********************************************************************//
//  If you use mumax in any work or publication,                      //
//  we kindly ask you to cite the references in references.bib        //
//********************************************************************//
//output directory: r1;p0.1;a4.4e-07;l3.0000000000000004e-07;s3.out/
randSeed(3)
ThermSeed(3)
resolution := 2e-09
zResolution := 5e-09
a := 4.4e-07
gridSize := 440
gridDepth := 5
SetCellsize(resolution, resolution, zResolution)
SetGridsize(gridSize, gridSize, gridDepth)
SetPBC(16, 16, 0)
//resizing...
Msat = 700e3
Aex = 13e-12
alpha = 0.2
Bmax := 0.1
Bstep := Bmax / 500.0
TableAdd(B_ext)
TableAdd(m_full)
islandWidth := 8e-08
islandLength := 3.0000000000000004e-07
ellipseConstant := 1.5000000000000002e-08
hIsland := Universe().Inverse()
vIsland := Universe().Inverse()
vIslands := Universe().Inverse()
hIslands := Universe().Inverse()
hIsland = rect(islandLength-2*ellipseConstant, islandWidth)
hIsland = hIsland.add(ellipse(ellipseConstant*2, islandWidth).transl(islandLength/2-ellipseConstant, 0, 0))
hIsland = hIsland.add(ellipse(ellipseConstant*2, islandWidth).transl(-islandLength/2+ellipseConstant, 0, 0))
hIsland = hIsland.add(rect(9.244014409255702e-09, 2.2892740487227777e-09).transl(-4.490400098719484e-08, -4e-08, 0))
hIsland = hIsland.add(rect(9.42045027970017e-09, 4.136009901200265e-09).transl(-9.379089123831912e-08, -4e-08, 0))
hIsland = hIsland.add(rect(6.524460561158375e-09, 1.7442681999637565e-09).transl(-9.537329638481552e-08, -4e-08, 0))
hIsland = hIsland.add(rect(6.219229288135282e-09, 3.902303931152091e-10).transl(-1.225745596812754e-07, -4e-08, 0))
hIsland = hIsland.add(rect(4.241512230709734e-09, 1.7646675569852552e-09).transl(-2.5154374313641605e-08, -4e-08, 0))
hIsland = hIsland.add(rect(2.5836139485223075e-09, 8.778542950297972e-10).transl(1.3069931915850026e-07, -4e-08, 0))
hIsland = hIsland.sub(rect(9.458634081052701e-09, -8.818412705189171e-10).transl(9.928941662551574e-08, -4e-08, 0))
hIsland = hIsland.add(rect(5.6824710117800764e-09, 1.0466369888903703e-09).transl(1.5446841857302744e-08, -4e-08, 0))
hIsland = hIsland.sub(rect(3.991640092114469e-09, -8.194160632439268e-10).transl(-1.4788816457195804e-07, -2.046485793807976e-08, 0))
hIsland = hIsland.sub(rect(8.368644905143614e-09, -1.5342628961198752e-09).transl(-4.8126589854329656e-08, -4e-08, 0))
hIsland = hIsland.sub(rect(4.313931590825999e-09, -2.94298855431035e-09).transl(1.1414113465546369e-07, -4e-08, 0))
hIsland = hIsland.sub(rect(9.468014180573012e-09, -2.2020386332102287e-09).transl(1.0005255753548267e-07, -4e-08, 0))
hIsland = hIsland.sub(rect(5.75602387987764e-09, -2.3347668432633384e-10).transl(2.613865358714715e-08, -4e-08, 0))
hIsland = hIsland.add(rect(4.5978773428206354e-09, 2.8528388165225195e-10).transl(8.429437944737564e-08, -4e-08, 0))
hIsland = hIsland.sub(rect(2.8401742222549927e-09, -4.360622468999601e-10).transl(-7.46152175265772e-08, -4e-08, 0))
hIsland = hIsland.sub(rect(5.270668501919622e-09, -3.760962893055885e-09).transl(7.088626944694026e-08, -4e-08, 0))
hIsland = hIsland.add(rect(6.7143907487029935e-09, 3.5454307359760213e-09).transl(1.0485616465963213e-07, -4e-08, 0))
hIsland = hIsland.sub(rect(9.882495536141583e-09, -2.911665910607209e-09).transl(-2.2474866023755633e-08, -4e-08, 0))
hIsland = hIsland.add(rect(2.720105617908697e-09, 3.035623523738898e-09).transl(-1.43705071295287e-07, -3.2575026152652775e-08, 0))
hIsland = hIsland.add(rect(2.9717116094315675e-09, 1.7414683166710502e-09).transl(5.777964962554156e-08, -4e-08, 0))
hIsland = hIsland.sub(rect(8.010942222086218e-09, -2.415994898633853e-09).transl(3.193442544879483e-08, -4e-08, 0))
hIsland = hIsland.sub(rect(8.097581476162173e-09, -6.791794679111082e-09).transl(-1.224621890517921e-07, -4e-08, 0))
hIsland = hIsland.add(rect(8.076788095559764e-09, 3.412432596684782e-09).transl(-1.3373959671926504e-07, -4e-08, 0))
hIsland = hIsland.add(rect(5.1722559008823705e-09, 8.522006731202087e-10).transl(3.022901343591719e-08, -4e-08, 0))
hIsland = hIsland.add(rect(7.157737017846206e-09, 1.462495452895955e-10).transl(1.2242345129246783e-07, -4e-08, 0))
hIsland = hIsland.sub(rect(7.850352116301654e-09, -1.3048409637015569e-09).transl(-1.3541167662780032e-07, -3.9984932482490436e-08, 0))
hIsland = hIsland.add(rect(4.80481645318938e-09, 2.322807886239613e-09).transl(-1.4879861474123e-07, -1.5685402974595683e-08, 0))
hIsland = hIsland.add(rect(9.449054530957885e-09, 5.564635035580519e-10).transl(-1.125234113744147e-07, -4e-08, 0))
hIsland = hIsland.add(rect(2.721097810431096e-09, 1.0911044096660557e-09).transl(4.309166009942627e-08, -4e-08, 0))
hIsland = hIsland.sub(rect(2.8915081763040605e-09, -4.863971954252538e-11).transl(-1.3884031733254262e-07, -3.866684715225674e-08, 0))
hIsland = hIsland.sub(rect(3.566694309454314e-09, -1.8520910238951196e-09).transl(-6.743989372869515e-08, -4e-08, 0))
hIsland = hIsland.sub(rect(7.261935946416338e-09, -3.436195476597519e-10).transl(-5.541560486579255e-08, -4e-08, 0))
hIsland = hIsland.sub(rect(5.340281614637752e-09, -7.750277526753803e-10).transl(1.4438372733953445e-07, -3.12063425139925e-08, 0))
hIsland = hIsland.add(rect(5.8042111096661445e-09, 1.8910603697883204e-09).transl(-1.039233249376406e-07, -4e-08, 0))
hIsland = hIsland.sub(rect(2.9495832598765583e-09, -5.999705456175952e-10).transl(1.700986509457732e-08, -4e-08, 0))
hIsland = hIsland.add(rect(6.478080827025091e-09, 2.909719448233786e-09).transl(1.070165227694878e-07, -4e-08, 0))
hIsland = hIsland.add(rect(4.751265795443615e-09, 2.887862683596047e-10).transl(-1.3600810522458752e-09, -4e-08, 0))
hIsland = hIsland.sub(rect(3.696287480225059e-09, -2.2117796662255542e-10).transl(3.6804410043341586e-08, -4e-08, 0))
hIsland = hIsland.sub(rect(7.070219533208332e-09, -6.433327824660908e-11).transl(-8.82921072185087e-08, -4e-08, 0))
hIsland = hIsland.sub(rect(3.216767245083242e-09, -5.744366789038059e-10).transl(4.4395551956520805e-08, -4e-08, 0))
hIsland = hIsland.add(rect(2.012924212124025e-09, 4.0309001533740595e-10).transl(-2.5113605418952017e-09, -4e-08, 0))
hIsland = hIsland.add(rect(5.634537315319654e-09, 1.2994438234387086e-09).transl(-9.094423704004175e-08, -4e-08, 0))
hIsland = hIsland.sub(rect(7.352537216699475e-09, -1.5589482493991974e-09).transl(-1.3921079184659656e-07, -3.8391594637913344e-08, 0))
hIsland = hIsland.add(rect(2.9139219081813783e-09, 4.564234234482873e-09).transl(9.213340639211316e-08, -4e-08, 0))
hIsland = hIsland.add(rect(9.732342665229462e-09, 1.9895228818184743e-09).transl(4.2887985246945446e-08, -4e-08, 0))
hIsland = hIsland.sub(rect(3.7191382116643057e-09, -1.6669093831930858e-09).transl(-5.3805167965617594e-08, -4e-08, 0))
hIsland = hIsland.add(rect(8.495966241182465e-09, 4.104592401901827e-09).transl(8.209180442523007e-08, -4e-08, 0))
hIsland = hIsland.add(rect(2.2603889332421678e-09, 3.0953369348995297e-09).transl(1.3019877681370693e-07, -4e-08, 0))
hIsland = hIsland.add(rect(9.590580148751105e-09, 1.2719027493464762e-09).transl(-9.410329793531972e-08, -4e-08, 0))
hIsland = hIsland.sub(rect(4.3012899538790764e-09, -1.8034772589348243e-09).transl(4.857309477213151e-08, -4e-08, 0))
hIsland = hIsland.sub(rect(5.661541739421439e-09, -1.388093027931948e-09).transl(5.7453452093835e-08, -4e-08, 0))
hIsland = hIsland.add(rect(4.6758393515891406e-09, 2.9624090095902646e-10).transl(1.342256116519349e-07, -4e-08, 0))
hIsland = hIsland.add(rect(2.640059764632767e-09, 5.180389807450562e-10).transl(-1.2519692644219188e-07, -4e-08, 0))
hIsland = hIsland.add(rect(5.523733979456343e-09, 2.442230970082587e-10).transl(7.993630000715469e-08, -4e-08, 0))
hIsland = hIsland.add(rect(2.3741948643193177e-09, 1.8409087904378298e-10).transl(4.986951603409302e-09, -4e-08, 0))
hIsland = hIsland.sub(rect(4.1042326485883224e-09, -3.4625899648408805e-09).transl(-1.215036970943167e-07, -4e-08, 0))
hIsland = hIsland.add(rect(5.2944195606470195e-09, 1.083918577020074e-09).transl(2.19237627770565e-08, -4e-08, 0))
hIsland = hIsland.sub(rect(2.715390062642899e-09, -6.402917574561276e-10).transl(1.3691786029791692e-07, -3.967170270576461e-08, 0))
hIsland = hIsland.sub(rect(2.563504820525025e-09, -3.960262151374063e-10).transl(-1.0571538085586421e-08, -4e-08, 0))
hIsland = hIsland.sub(rect(2.287097713045128e-09, -2.5663092806922705e-09).transl(1.2906825193266106e-07, -4e-08, 0))
hIsland = hIsland.sub(rect(7.369390070842905e-09, -3.280309288184109e-09).transl(-1.208063360659934e-07, -4e-08, 0))
hIsland = hIsland.sub(rect(7.0922848642957305e-09, -1.0028838015238509e-09).transl(1.1251542030959646e-07, -4e-08, 0))
hIsland = hIsland.sub(rect(8.069581245607171e-09, -3.777580608211004e-09).transl(-1.757395688871165e-08, -4e-08, 0))
hIsland = hIsland.sub(rect(7.296028934421112e-09, -1.723046155446484e-09).transl(1.2457302072020388e-07, -4e-08, 0))
hIsland = hIsland.add(rect(8.163808658847225e-09, 1.0359884614160737e-09).transl(8.978930031606768e-08, -4e-08, 0))
hIsland = hIsland.add(rect(6.9451033687856516e-09, 3.0912090370637177e-09).transl(6.256740644345306e-09, -4e-08, 0))
hIsland = hIsland.add(rect(7.94455352703211e-09, 1.3307615773680363e-09).transl(6.223160424127579e-08, -4e-08, 0))
hIsland = hIsland.sub(rect(6.096697642461626e-09, -8.581466064770687e-10).transl(-3.454093467457323e-08, -4e-08, 0))
hIsland = hIsland.add(rect(4.254376902357886e-09, 9.742402937032772e-10).transl(1.461817981284491e-07, -2.6662318394099892e-08, 0))
hIsland = hIsland.sub(rect(6.580474555004513e-09, -5.138734326471679e-10).transl(-9.685692817778815e-08, -4e-08, 0))
hIsland = hIsland.add(rect(5.8208994740934666e-09, 3.8322358723107195e-09).transl(-6.504483955763032e-08, -4e-08, 0))
hIsland = hIsland.add(rect(4.635403558974062e-09, 2.3143533932879945e-09).transl(-6.25190110973343e-08, -4e-08, 0))
hIsland = hIsland.add(rect(8.82576800731404e-09, 1.696267382217022e-09).transl(-1.451547741020169e-07, -2.9439874750579877e-08, 0))
hIsland = hIsland.sub(rect(3.0319584367046642e-09, -6.967415924148843e-10).transl(7.281020219851479e-08, -4e-08, 0))
hIsland = hIsland.sub(rect(4.596242744682651e-09, -2.677775978768904e-09).transl(-1.4327923956790477e-08, -4e-08, 0))
hIsland = hIsland.add(rect(8.071322428493363e-09, 1.9086715592050394e-09).transl(7.359317226070798e-08, -4e-08, 0))
hIsland = hIsland.sub(rect(8.99928707360351e-09, -9.503183640567764e-10).transl(1.4009040383468552e-07, -3.7626259274885884e-08, 0))
hIsland = hIsland.sub(rect(3.947147582212345e-09, -4.761074989888426e-09).transl(-1.2906516919374677e-07, -4e-08, 0))
hIsland = hIsland.add(rect(4.245041284102737e-09, 3.172161963134904e-09).transl(1.1397260824427866e-07, -4e-08, 0))
hIsland = hIsland.add(rect(4.233289437634683e-09, 2.0452664507487453e-09).transl(-4.831805234944834e-08, -4e-08, 0))
hIsland = hIsland.add(rect(7.869446068407523e-09, 1.3786170557280998e-09).transl(8.396805561077107e-08, -4e-08, 0))
hIsland = hIsland.sub(rect(9.754988286755229e-09, -4.070826142342145e-10).transl(6.98680393969894e-08, -4e-08, 0))
hIsland = hIsland.add(rect(5.118176502207225e-09, 1.0182501346733058e-09).transl(-5.1711974146917314e-08, -4e-08, 0))
hIsland = hIsland.add(rect(6.092123398858622e-09, 3.338504773619256e-09).transl(-2.295416966121074e-08, -4e-08, 0))
hIsland = hIsland.add(rect(5.034215110060236e-09, 7.84102528911619e-10).transl(2.9053883676892287e-08, -4e-08, 0))
hIsland = hIsland.sub(rect(9.86580855142034e-09, -1.6394421148326217e-09).transl(-6.111385786189828e-08, -4e-08, 0))
hIsland = hIsland.add(rect(9.530993596900115e-09, 2.8186974317810494e-09).transl(-8.716409255548238e-08, -4e-08, 0))
hIsland = hIsland.sub(rect(8.708202600718255e-09, -9.413348612759819e-11).transl(1.3163261300095206e-07, -4e-08, 0))
hIsland = hIsland.add(rect(9.2715453270391e-09, 1.5521617890331382e-09).transl(-2.2069017820512206e-08, -4e-08, 0))
hIsland = hIsland.add(rect(8.216148756176221e-09, 1.1907259838807484e-09).transl(-3.977518625596417e-08, -4e-08, 0))
hIsland = hIsland.add(rect(3.699970508269384e-09, 9.51596481085605e-10).transl(-1.388580397308623e-07, -3.865429957951442e-08, 0))
hIsland = hIsland.sub(rect(2.713949541956316e-09, -1.1442966770954466e-09).transl(-6.895323725676056e-08, -4e-08, 0))
hIsland = hIsland.sub(rect(2.3112219373358727e-09, -3.629025601282725e-09).transl(1.482750681747992e-07, -1.8623295319702778e-08, 0))
hIsland = hIsland.sub(rect(9.662484701443511e-09, -4.525144417414741e-11).transl(1.4397947741311055e-07, -3.2040972146432243e-08, 0))
hIsland = hIsland.add(rect(9.708043252802857e-09, 3.0736620542820627e-09).transl(-3.812791874225828e-08, -4e-08, 0))
hIsland = hIsland.sub(rect(2.4687794347581633e-09, -8.406800448242512e-10).transl(1.4758589328539755e-07, -2.176158330981319e-08, 0))
hIsland = hIsland.sub(rect(9.626355575229675e-09, -5.95949628031174e-10).transl(9.956039361836316e-08, -4e-08, 0))
hIsland = hIsland.sub(rect(5.209445763236891e-09, -1.359439175503673e-09).transl(7.193434389361099e-08, -4e-08, 0))
hIsland = hIsland.sub(rect(8.241675430501566e-09, -1.0027840889349152e-09).transl(1.0501695220210604e-07, -4e-08, 0))
hIsland = hIsland.sub(rect(5.915045058947863e-09, -1.6687662091550907e-09).transl(9.4305471255476e-08, -4e-08, 0))
hIsland = hIsland.sub(rect(7.92233817010482e-09, -1.228620795281017e-09).transl(-1.151919475618682e-07, -4e-08, 0))
hIsland = hIsland.sub(rect(3.0836169936743245e-09, -2.1379121325782263e-09).transl(-1.6323711592320947e-08, -4e-08, 0))
hIsland = hIsland.add(rect(7.99244035338875e-09, 7.769814856335656e-10).transl(1.1742548024799891e-07, -4e-08, 0))
hIsland = hIsland.sub(rect(9.893893424017553e-09, -1.4768532991648567e-09).transl(4.305804958395188e-08, -4e-08, 0))
hIsland = hIsland.sub(rect(8.116080497352176e-09, -1.3659189686769922e-09).transl(-6.589721303084635e-08, -4e-08, 0))
hIsland = hIsland.sub(rect(2.520170967593421e-09, -1.3687600422136254e-09).transl(7.489254338746685e-08, -4e-08, 0))
hIsland = hIsland.add(rect(2.2880856977529035e-09, 3.503171493725226e-09).transl(-1.005365366260537e-07, -4e-08, 0))
hIsland = hIsland.add(rect(9.079376223772415e-09, 4.1004495076162416e-10).transl(-3.420986117063469e-08, -4e-08, 0))
hIsland = hIsland.sub(rect(6.264805719468987e-09, -2.2721670022832033e-09).transl(1.678142508068754e-08, -4e-08, 0))
hIsland = hIsland.add(rect(9.138070591097321e-09, 1.1964265051305506e-09).transl(-1.32708531811046e-08, -4e-08, 0))
hIsland = hIsland.sub(rect(9.926615746923432e-09, -1.3222120581891813e-09).transl(1.3155589531618756e-07, -4e-08, 0))
hIsland = hIsland.sub(rect(8.146139305373602e-09, -1.320290158718089e-09).transl(6.549197955613716e-08, -4e-08, 0))
hIsland = hIsland.add(rect(3.6520619065402004e-09, 8.998239694802053e-10).transl(-1.1588105948880783e-07, -4e-08, 0))
hIsland = hIsland.add(rect(3.3979224554938484e-09, 2.091582133580821e-09).transl(-2.7676277603946603e-08, -4e-08, 0))
hIsland = hIsland.sub(rect(9.305388111836414e-09, -1.879861342549452e-09).transl(-1.1566846007219079e-07, -4e-08, 0))
hIsland = hIsland.add(rect(2.3995339801718263e-09, 2.2960029782353255e-09).transl(-7.190666771443734e-09, -4e-08, 0))
hIsland = hIsland.sub(rect(3.1923377812495835e-09, -1.9716106500069298e-10).transl(-1.1533565604633632e-07, -4e-08, 0))
hIsland = hIsland.add(rect(4.833815728628396e-09, 3.771005370631616e-09).transl(2.6848179953134747e-09, -4e-08, 0))
hIsland = hIsland.sub(rect(6.327544842830252e-09, -1.5388527497607415e-09).transl(1.045815997547646e-07, -4e-08, 0))
hIsland = hIsland.sub(rect(4.234952261878422e-09, -5.484499388614707e-10).transl(-1.2939833182424926e-07, -4e-08, 0))
hIsland = hIsland.sub(rect(4.760922378521007e-09, -1.2545491636101561e-09).transl(1.4537479915786566e-07, -2.8889188127073155e-08, 0))
hIsland = hIsland.add(rect(4.913737711180779e-09, 2.088796207352564e-09).transl(-9.772170784173846e-08, -4e-08, 0))
hIsland = hIsland.add(rect(2.7748159268646087e-09, 1.2995277494656995e-09).transl(-6.390401041798783e-08, -4e-08, 0))
hIsland = hIsland.sub(rect(7.458154747153657e-09, -5.4352462636837654e-09).transl(-7.813318244160064e-08, -4e-08, 0))
hIsland = hIsland.sub(rect(3.713482041398689e-09, -5.0506814698711095e-09).transl(-3.666785379536145e-08, -4e-08, 0))
hIsland = hIsland.add(rect(4.9543317398012195e-09, 2.1115175257104053e-09).transl(1.1954020049116426e-07, -4e-08, 0))
hIsland = hIsland.add(rect(3.690463564599628e-09, 1.0816538176286802e-10).transl(7.194936329245117e-08, -4e-08, 0))
hIsland = hIsland.add(rect(2.848505154683367e-09, 9.597397232897058e-10).transl(-7.85067960759755e-08, -4e-08, 0))
hIsland = hIsland.add(rect(4.4357037004005695e-09, 9.109585630281966e-10).transl(-8.34646081589206e-08, -4e-08, 0))
hIsland = hIsland.sub(rect(2.0499482147758245e-09, -1.0717274400975738e-09).transl(1.2174486363729972e-07, -4e-08, 0))
hIsland = hIsland.sub(rect(6.23994195338351e-09, -3.662714651939448e-10).transl(-7.72705608770174e-08, -4e-08, 0))
hIsland = hIsland.sub(rect(5.941650074252671e-09, -2.6452138246827256e-09).transl(-5.6159343432633176e-08, -4e-08, 0))
hIsland = hIsland.add(rect(5.255692791442746e-09, 5.578782827608542e-10).transl(9.959084060134578e-09, -4e-08, 0))
hIsland = hIsland.add(rect(6.050197148274617e-09, 3.2233624213555935e-09).transl(-2.5006534640435984e-08, -4e-08, 0))
hIsland = hIsland.sub(rect(5.773628921265907e-09, -3.336209760722824e-10).transl(-7.182430443289577e-08, -4e-08, 0))
hIsland = hIsland.sub(rect(2.0347391409972e-09, -7.528613712698045e-09).transl(-3.290599821809723e-08, -4e-08, 0))
hIsland = hIsland.add(rect(4.259760133177393e-09, 1.2012349479836002e-10).transl(8.533338552671842e-08, -4e-08, 0))
hIsland = hIsland.add(rect(9.078468091764893e-09, 4.870273852629429e-10).transl(-1.3582104058601413e-07, -3.994003437208715e-08, 0))
hIsland = hIsland.sub(rect(3.945409094837437e-09, -5.636255293745115e-09).transl(1.1188887519051957e-07, -4e-08, 0))
hIsland = hIsland.add(rect(6.8041490423846895e-09, 2.30172978121559e-09).transl(-1.2788333267299523e-07, -4e-08, 0))
hIsland = hIsland.sub(rect(5.344740561773345e-09, -1.067756111413549e-09).transl(1.3721834280212083e-07, -3.9560155506920855e-08, 0))
hIsland = hIsland.sub(rect(2.339839230484681e-09, -4.532419434381586e-10).transl(-1.2121603567019985e-07, -4e-08, 0))
hIsland = hIsland.sub(rect(7.757000317063182e-09, -1.6234746500003627e-11).transl(8.840496306839095e-08, -4e-08, 0))
hIsland = hIsland.sub(rect(8.578255396759215e-09, -4.1652623293607945e-09).transl(1.277505497999471e-07, -4e-08, 0))
hIsland = hIsland.add(rect(2.1444372431396614e-09, 4.20957609817122e-09).transl(5.865860180475505e-08, -4e-08, 0))
hIsland = hIsland.sub(rect(9.631173009656928e-09, -2.6723663566768836e-09).transl(-2.1400527769113618e-08, -4e-08, 0))
hIsland = hIsland.sub(rect(9.949717097608213e-09, -2.355266502623606e-09).transl(7.301715575309975e-08, -4e-08, 0))
hIsland = hIsland.sub(rect(5.8482324160233265e-09, -2.5451586317981486e-09).transl(-1.1297246687266727e-07, -4e-08, 0))
hIsland = hIsland.sub(rect(6.077316270954714e-09, -6.168725903978599e-11).transl(3.2531038104922045e-08, -4e-08, 0))
hIsland = hIsland.add(rect(6.169586907531021e-09, 7.138774418179995e-10).transl(-1.203016672571292e-07, -4e-08, 0))
hIsland = hIsland.sub(rect(7.645201925784469e-09, -1.4508915618062019e-09).transl(-8.012568000004648e-08, -4e-08, 0))
hIsland = hIsland.add(rect(3.1103493714648947e-09, 7.183266809714582e-10).transl(7.561817527786766e-08, -4e-08, 0))
hIsland = hIsland.sub(rect(2.527673347474361e-09, -1.0841476361554885e-09).transl(-8.018941352337325e-08, -4e-08, 0))
hIsland = hIsland.add(rect(6.276044326975943e-09, 1.7531787171342456e-09).transl(6.179396360781658e-08, -4e-08, 0))
hIsland = hIsland.sub(rect(8.801359334967873e-09, -1.4373912340593922e-09).transl(3.305326451597364e-08, -4e-08, 0))
hIsland = hIsland.add(rect(2.1233933013446394e-09, 8.014782689161677e-10).transl(-1.3579784460652228e-07, -3.994337716619194e-08, 0))
hIsland = hIsland.add(rect(3.18427732296978e-09, 1.4884560045636965e-09).transl(-1.3749129533508918e-07, -3.9444448480553326e-08, 0))
hIsland = hIsland.sub(rect(4.987107466518547e-09, -9.336656552354875e-10).transl(-8.949596979720965e-08, -4e-08, 0))
hIsland = hIsland.add(rect(8.542465662775275e-09, 2.180971724253562e-09).transl(-7.107469091156293e-08, -4e-08, 0))
hIsland = hIsland.sub(rect(8.146416385365002e-09, -3.6738403515105074e-10).transl(1.0423828674251124e-07, -4e-08, 0))
hIsland = hIsland.sub(rect(4.999086280768146e-09, -1.6925114803236675e-09).transl(-1.3414847891315155e-07, -4e-08, 0))
hIsland = hIsland.sub(rect(7.918489934287223e-09, -1.0381994505696406e-09).transl(-2.0092717286521017e-08, -4e-08, 0))
hIsland = hIsland.sub(rect(6.821501867577801e-09, -3.415649748853841e-09).transl(-9.336340700136259e-08, -4e-08, 0))
hIsland = hIsland.sub(rect(6.546810970818456e-09, -4.094982439580517e-09).transl(8.817170208336758e-08, -4e-08, 0))
hIsland = hIsland.add(rect(8.417258941237816e-09, 3.6441568092984566e-09).transl(-7.278520571377886e-08, -4e-08, 0))
hIsland = hIsland.sub(rect(6.837076774687657e-09, -1.2201648564211363e-09).transl(-1.1417658761122246e-07, -4e-08, 0))
hIsland = hIsland.add(rect(9.285588884341927e-09, 3.3398974489731976e-09).transl(1.6197974222565407e-08, -4e-08, 0))
hIsland = hIsland.sub(rect(2.3715081444846836e-09, -4.0648199239245e-09).transl(-1.1123941415624762e-07, -4e-08, 0))
hIsland = hIsland.sub(rect(2.650347948612551e-09, -2.6257073917836605e-09).transl(-1.0233060382923192e-07, -4e-08, 0))
hIsland = hIsland.sub(rect(3.6189508845363234e-09, -6.317426128063114e-10).transl(1.2790194782313822e-07, -4e-08, 0))
hIsland = hIsland.add(rect(2.093701551234739e-09, 2.635200565677538e-09).transl(3.51854647439331e-09, -4e-08, 0))
hIsland = hIsland.sub(rect(8.549569421751466e-09, -3.6363702792499783e-09).transl(4.0665992333645086e-08, -4e-08, 0))
hIsland = hIsland.add(rect(6.931786031484185e-09, 8.937460523307863e-10).transl(1.0604330972442623e-07, -4e-08, 0))
hIsland = hIsland.sub(rect(8.522659323116368e-09, -4.2296457892397465e-12).transl(-4.981743589230518e-08, -4e-08, 0))
hIsland = hIsland.sub(rect(9.083247228600792e-09, -6.389540250003377e-10).transl(-3.3589838394281416e-10, -4e-08, 0))
hIsland = hIsland.add(rect(5.822160742639095e-09, 2.519091731314259e-09).transl(-9.943312625938835e-08, -4e-08, 0))
hIsland = hIsland.add(rect(5.403188319244855e-09, 1.260191262700043e-09).transl(5.930721508616144e-08, -4e-08, 0))
hIsland = hIsland.sub(rect(6.5590537095890374e-09, -9.23467840753026e-10).transl(-1.296880736923906e-07, -4e-08, 0))
hIsland = hIsland.sub(rect(5.05026716564122e-09, -1.646249391771578e-09).transl(-4.1321787358358966e-08, -4e-08, 0))
hIsland = hIsland.sub(rect(7.243255373446469e-09, -9.304919478508087e-11).transl(-1.2451890496961714e-07, -4e-08, 0))
hIsland = hIsland.add(rect(9.901176921218848e-09, 1.8575318054895124e-09).transl(1.4210233097055628e-07, -3.5231995033270146e-08, 0))
hIsland = hIsland.add(rect(4.447441050498419e-09, 1.9741853022729653e-09).transl(1.3170408923529078e-08, -4e-08, 0))
hIsland = hIsland.add(rect(7.504175617900826e-09, 1.0242589511519214e-09).transl(-1.1911431453709765e-07, -4e-08, 0))
hIsland = hIsland.sub(rect(6.8439124395305745e-09, -2.609001650894652e-09).transl(7.966386560857314e-08, -4e-08, 0))
hIsland = hIsland.add(rect(7.619168467686844e-09, 2.41888240136435e-10).transl(-4.657919960356261e-08, -4e-08, 0))
hIsland = hIsland.sub(rect(7.99989287228086e-09, -9.447129210170317e-10).transl(1.0821449971604923e-07, -4e-08, 0))
hIsland = hIsland.add(rect(2.2611043760020256e-09, 5.054968243778028e-10).transl(7.202198520697568e-08, -4e-08, 0))
hIsland = hIsland.add(rect(3.0776800518931076e-09, 2.2594878944733716e-09).transl(9.176388983413589e-08, -4e-08, 0))
hIsland = hIsland.sub(rect(9.777232337115083e-09, -2.5168492762925663e-09).transl(1.3002422278378604e-07, -4e-08, 0))
hIsland = hIsland.sub(rect(2.4934864658000447e-09, -4.9870752129023965e-09).transl(8.525882794157966e-08, -4e-08, 0))
hIsland = hIsland.sub(rect(6.324400028088017e-09, -2.9627044030755753e-09).transl(8.285072605708673e-08, -4e-08, 0))
hIsland = hIsland.sub(rect(8.791457483527305e-09, -1.5567344771398931e-09).transl(7.870092593837852e-09, -4e-08, 0))
hIsland = hIsland.sub(rect(9.524539446822424e-09, -4.516271720100487e-09).transl(-7.58607232519114e-08, -4e-08, 0))
hIsland = hIsland.sub(rect(7.3785659449344725e-09, -6.445871470778932e-10).transl(7.99461054879129e-08, -4e-08, 0))
hIsland = hIsland.add(rect(4.677299181868978e-09, 1.2005227454865632e-09).transl(6.896765583552609e-09, -4e-08, 0))
hIsland = hIsland.add(rect(4.9766554816304534e-09, 3.2460642747492944e-09).transl(-6.36813385446258e-08, -4e-08, 0))
hIsland = hIsland.sub(rect(2.2725612417681432e-09, -1.9404501148798157e-09).transl(1.2275574861840952e-07, -4e-08, 0))
hIsland = hIsland.sub(rect(7.460837701469755e-09, -5.1225809138025774e-09).transl(1.320862267707677e-07, -4e-08, 0))
hIsland = hIsland.sub(rect(5.9954259795548574e-09, -2.415491727795287e-09).transl(-1.3085795754514294e-07, -4e-08, 0))
hIsland = hIsland.add(rect(2.742552420691017e-09, 4.660730399218933e-09).transl(-1.1506160790462644e-07, -4e-08, 0))
hIsland = hIsland.sub(rect(6.891248411828157e-09, -1.2563994886254129e-09).transl(7.52140694788347e-08, 4e-08, 0))
hIsland = hIsland.sub(rect(3.6770308431238688e-09, -2.2495079509959522e-10).transl(-2.217840996729318e-08, 4e-08, 0))
hIsland = hIsland.sub(rect(7.665782894374374e-09, -1.3673890163602127e-09).transl(-2.197228652310506e-08, 4e-08, 0))
hIsland = hIsland.add(rect(8.804350606256701e-09, 9.457211516419695e-10).transl(-9.968466352988537e-09, 4e-08, 0))
hIsland = hIsland.sub(rect(3.518184297260544e-09, -2.5669563980816934e-09).transl(-1.0888092566275362e-07, 4e-08, 0))
hIsland = hIsland.add(rect(2.5774002210222637e-09, 1.691752247243128e-10).transl(-7.350919108533512e-08, 4e-08, 0))
hIsland = hIsland.add(rect(7.023129109901315e-09, 2.704248130044338e-09).transl(8.506717446537311e-08, 4e-08, 0))
hIsland = hIsland.add(rect(5.811131753896447e-09, 1.631264958857665e-09).transl(-2.6864407952182045e-08, 4e-08, 0))
hIsland = hIsland.add(rect(3.6247631450459665e-09, 1.2673857291219957e-09).transl(-4.5931888149040656e-08, 4e-08, 0))
hIsland = hIsland.add(rect(5.581719186316706e-09, 2.242626852500303e-09).transl(-9.658127422098806e-08, 4e-08, 0))
hIsland = hIsland.sub(rect(7.325423170829618e-09, -1.9660008184255924e-09).transl(-1.2118805721465277e-07, 4e-08, 0))
hIsland = hIsland.add(rect(2.4855966754234445e-09, 3.89657731241912e-10).transl(-5.1039571788524005e-08, 4e-08, 0))
hIsland = hIsland.add(rect(6.197583649269872e-09, 4.0106330926978353e-10).transl(-8.64222414417816e-08, 4e-08, 0))
hIsland = hIsland.add(rect(7.0875506824869554e-09, 1.4306724266144565e-09).transl(-1.349331585149291e-07, 4e-08, 0))
hIsland = hIsland.sub(rect(7.655770474807727e-09, -1.0235119065068144e-09).transl(-8.427651080184618e-09, 4e-08, 0))
hIsland = hIsland.add(rect(9.463113045576042e-09, 1.4558539502018696e-09).transl(1.0027450988266144e-07, 4e-08, 0))
hIsland = hIsland.add(rect(6.558847502796286e-09, 2.877130297543374e-09).transl(1.4579324428359338e-07, 2.777764125139232e-08, 0))
hIsland = hIsland.sub(rect(8.623212419799644e-09, -2.607629702270907e-09).transl(1.9942962874613693e-08, 4e-08, 0))
hIsland = hIsland.add(rect(9.890826865777073e-09, 6.23624021110606e-10).transl(7.128714713177027e-08, 4e-08, 0))
hIsland = hIsland.add(rect(5.7121486503278956e-09, 1.0331047717174985e-10).transl(9.721092563702315e-08, 4e-08, 0))
hIsland = hIsland.sub(rect(9.367444432170262e-09, -7.929674756031653e-10).transl(6.598394226314719e-08, 4e-08, 0))
hIsland = hIsland.add(rect(5.566157138097782e-09, 4.576683510382976e-10).transl(-1.2620605397687512e-07, 4e-08, 0))
hIsland = hIsland.add(rect(9.20346770574652e-09, 1.745259739239714e-09).transl(1.1869294713382844e-07, 4e-08, 0))
hIsland = hIsland.add(rect(6.042159084624283e-09, 3.612655432777501e-09).transl(-1.4988875091461365e-07, 4.862625684932392e-09, 0))
hIsland = hIsland.sub(rect(3.0268207376650516e-09, -3.5486791309184387e-09).transl(1.3975877459739762e-07, 3.7933655706296325e-08, 0))
hIsland = hIsland.add(rect(7.647104802222313e-09, 1.4883667285067713e-10).transl(1.1041613669920986e-07, 4e-08, 0))
hIsland = hIsland.add(rect(9.394320196172131e-09, 1.2511230973002432e-09).transl(1.720657565108598e-08, 4e-08, 0))
hIsland = hIsland.add(rect(8.818431818281261e-09, 2.4419916890797595e-09).transl(5.881824245920501e-09, 4e-08, 0))
hIsland = hIsland.sub(rect(8.450181570551182e-09, -1.6271038381474513e-09).transl(8.012268345980355e-08, 4e-08, 0))
hIsland = hIsland.add(rect(5.34034315270096e-09, 2.432671869019693e-09).transl(-1.2380583931998918e-07, 4e-08, 0))
hIsland = hIsland.add(rect(9.737937290405544e-09, 9.256620989711263e-10).transl(1.0171111918849467e-07, 4e-08, 0))
hIsland = hIsland.sub(rect(7.73963074778829e-09, -2.6043814339466214e-09).transl(-2.5020372945703704e-08, 4e-08, 0))
hIsland = hIsland.sub(rect(3.778763123018065e-09, -7.360852028898504e-10).transl(4.7421620927523375e-08, 4e-08, 0))
hIsland = hIsland.add(rect(6.945869605717215e-09, 1.8186782455940508e-09).transl(7.118843603296103e-08, 4e-08, 0))
hIsland = hIsland.sub(rect(5.438818457636623e-09, -9.86772310088859e-10).transl(1.4594402995229254e-07, 2.7354880405134185e-08, 0))
hIsland = hIsland.add(rect(3.999137602829292e-09, 4.011857268880331e-09).transl(-1.2008395848923962e-07, 4e-08, 0))
hIsland = hIsland.add(rect(7.065561700368025e-09, 3.6267126962926466e-09).transl(2.3195646356419742e-08, 4e-08, 0))
hIsland = hIsland.add(rect(7.653961094313632e-09, 2.523594481516792e-09).transl(1.8093039285237668e-08, 4e-08, 0))
hIsland = hIsland.sub(rect(8.453270543943735e-09, -2.82783594718287e-10).transl(1.065458744557474e-07, 4e-08, 0))
hIsland = hIsland.add(rect(4.750677922370092e-09, 8.416827078626908e-10).transl(4.876779656035015e-08, 4e-08, 0))
hIsland = hIsland.add(rect(8.670580917112912e-09, 2.1493025016406242e-09).transl(-8.073027691537174e-08, 4e-08, 0))
hIsland = hIsland.add(rect(3.333474302727928e-09, 3.3525523354258484e-09).transl(6.474604182910097e-08, 4e-08, 0))
hIsland = hIsland.add(rect(8.579168363148377e-09, 1.21927010192373e-09).transl(5.866757984386011e-08, 4e-08, 0))
hIsland = hIsland.sub(rect(3.3164149727724395e-09, -7.603364334003716e-10).transl(-1.2105378906373359e-07, 4e-08, 0))
hIsland = hIsland.add(rect(5.832370849429377e-09, 1.3517108279880098e-09).transl(1.2042297561978548e-07, 4e-08, 0))
hIsland = hIsland.sub(rect(3.2041059904690475e-09, -5.744025014918049e-10).transl(-1.253650158537363e-07, 4e-08, 0))
hIsland = hIsland.add(rect(8.935972269992487e-09, 3.646444311670332e-10).transl(-1.4492331619715898e-07, 2.999588660999477e-08, 0))
hIsland = hIsland.add(rect(4.784775394968077e-09, 1.1386178591341075e-09).transl(1.5304488158368333e-08, 4e-08, 0))
hIsland = hIsland.add(rect(2.2026331123050602e-09, 1.2572004752102616e-09).transl(9.577627253660731e-08, 4e-08, 0))
hIsland = hIsland.sub(rect(9.315576875769454e-09, -3.0675588843547466e-09).transl(5.378482420616006e-09, 4e-08, 0))
hIsland = hIsland.add(rect(6.088134554305968e-09, 4.674499890586751e-09).transl(-8.481634012964625e-08, 4e-08, 0))
hIsland = hIsland.add(rect(2.842096818759643e-09, 1.995233290183922e-09).transl(-1.280685435099562e-07, 4e-08, 0))
hIsland = hIsland.add(rect(7.781324007774051e-09, 2.1219418021920447e-09).transl(-1.3062825287913823e-07, 4e-08, 0))
hIsland = hIsland.sub(rect(4.157517000801338e-09, -3.931934272268951e-09).transl(8.527182661004835e-08, 4e-08, 0))
hIsland = hIsland.add(rect(9.563511297584452e-09, 1.659346262726568e-09).transl(-4.033131494849052e-08, 4e-08, 0))
hIsland = hIsland.sub(rect(6.032063919515661e-09, -1.4788106006588894e-09).transl(-8.1081758515871e-08, 4e-08, 0))
hIsland = hIsland.add(rect(5.2159692438580494e-09, 1.3566575155514628e-09).transl(-8.527363526108663e-08, 4e-08, 0))
hIsland = hIsland.sub(rect(6.657425418435241e-09, -3.3322957650518984e-09).transl(1.1703228367691907e-07, 4e-08, 0))
hIsland = hIsland.add(rect(6.6428705075075256e-09, 1.1197494887067585e-09).transl(9.265096847478925e-08, 4e-08, 0))
hIsland = hIsland.add(rect(9.451684245520084e-09, 1.887797763488387e-09).transl(7.116506533313394e-08, 4e-08, 0))
hIsland = hIsland.add(rect(4.3439054841806e-09, 1.7776351078762944e-09).transl(1.1150443744240784e-07, 4e-08, 0))
hIsland = hIsland.sub(rect(5.147059392359184e-09, -1.955319326137636e-09).transl(1.1051118234188518e-07, 4e-08, 0))
hIsland = hIsland.add(rect(3.621065190388267e-09, 1.1570645254818351e-09).transl(-2.044753652049101e-08, 4e-08, 0))
hIsland = hIsland.add(rect(2.3687337481198796e-09, 2.50600485036249e-09).transl(-1.0176384956266251e-08, 4e-08, 0))
hIsland = hIsland.add(rect(8.726305352657712e-09, 8.588662960165022e-10).transl(1.083497622197699e-07, 4e-08, 0))
hIsland = hIsland.sub(rect(3.778226419149619e-09, -1.7125798104993574e-09).transl(1.0056490245754143e-07, 4e-08, 0))
hIsland = hIsland.add(rect(7.313293643329248e-09, 3.2019917446571074e-09).transl(5.568520392840286e-08, 4e-08, 0))
hIsland = hIsland.add(rect(3.767538595275632e-09, 1.903364652763114e-09).transl(-9.86176493430023e-08, 4e-08, 0))
hIsland = hIsland.add(rect(8.41896714792722e-09, 4.301389686746952e-10).transl(2.159333201668352e-08, 4e-08, 0))
hIsland = hIsland.add(rect(3.717475523620876e-09, 1.7550145298758127e-09).transl(-1.1372909064728815e-07, 4e-08, 0))
hIsland = hIsland.add(rect(7.1572373764715535e-09, 1.1601048442453242e-09).transl(-1.0896916482401144e-07, 4e-08, 0))
hIsland = hIsland.add(rect(8.88702365503339e-09, 4.521056691384801e-09).transl(3.1843174393183375e-08, 4e-08, 0))
hIsland = hIsland.sub(rect(6.277335954769583e-09, -8.015644783203053e-10).transl(-1.0927446490464784e-07, 4e-08, 0))
hIsland = hIsland.add(rect(9.793437887586389e-09, 6.131947647381003e-10).transl(-1.4711090644338162e-08, 4e-08, 0))
hIsland = hIsland.sub(rect(5.483266800087778e-09, -2.359087515459524e-09).transl(-6.300681264557943e-08, 4e-08, 0))
hIsland = hIsland.add(rect(4.482517516938302e-09, 1.576888049413206e-09).transl(1.3852372107748644e-07, 3.888063920536085e-08, 0))
hIsland = hIsland.add(rect(2.5374738874391494e-09, 1.4391801617497144e-10).transl(-2.8055769689149003e-08, 4e-08, 0))
hIsland = hIsland.add(rect(3.759382096349642e-09, 2.1419678698274745e-09).transl(-1.0430408632720859e-07, 4e-08, 0))
hIsland = hIsland.sub(rect(2.7501742577464843e-09, -2.6209804853023694e-09).transl(-8.495917074562094e-08, 4e-08, 0))
hIsland = hIsland.sub(rect(7.768782451201295e-09, -1.6574816366195056e-09).transl(-6.892559497083041e-08, 4e-08, 0))
hIsland = hIsland.sub(rect(6.440372133110146e-09, -1.7327693873530729e-09).transl(1.1876989737451707e-07, 4e-08, 0))
hIsland = hIsland.sub(rect(2.1142350802452276e-09, -2.036535180976405e-10).transl(4.7175623357211615e-08, 4e-08, 0))
hIsland = hIsland.add(rect(5.340360171667298e-09, 1.2053207676303706e-09).transl(-1.2352895344506055e-07, 4e-08, 0))
hIsland = hIsland.sub(rect(6.256375809749611e-09, -8.68670505931111e-10).transl(-4.563256330454777e-08, 4e-08, 0))
hIsland = hIsland.sub(rect(2.1281329860859613e-09, -4.8604889412220575e-09).transl(-6.631275888970246e-08, 4e-08, 0))
hIsland = hIsland.add(rect(8.844585746183033e-09, 3.900244624912098e-09).transl(-1.3486047303944463e-07, 4e-08, 0))
hIsland = hIsland.sub(rect(6.535338951009836e-09, -1.1027286526345365e-09).transl(8.941760269846705e-08, 4e-08, 0))
hIsland = hIsland.add(rect(3.71744440310464e-09, 6.146599992154209e-10).transl(1.0265818066745284e-07, 4e-08, 0))
hIsland = hIsland.add(rect(5.7206435845380225e-09, 2.3331300109815363e-09).transl(1.0472828752946912e-11, 4e-08, 0))
hIsland = hIsland.sub(rect(7.757805128871081e-09, -1.7770565531111289e-09).transl(-4.4291352689117236e-08, 4e-08, 0))
hIsland = hIsland.add(rect(8.891301074311421e-09, 2.7826443217462437e-09).transl(-2.7890586658170807e-08, 4e-08, 0))
hIsland = hIsland.sub(rect(8.696444000434159e-09, -9.898214292563846e-10).transl(-5.772763439979912e-08, 4e-08, 0))
hIsland = hIsland.add(rect(5.89059636239072e-09, 5.600141150896717e-10).transl(1.3809451772193705e-08, 4e-08, 0))
hIsland = hIsland.sub(rect(4.417714128719748e-09, -6.416980620138232e-10).transl(-2.2912171906656442e-08, 4e-08, 0))
hIsland = hIsland.sub(rect(2.057338804306885e-09, -2.3897951656581583e-09).transl(-1.123438186328806e-07, 4e-08, 0))
hIsland = hIsland.sub(rect(9.38969508745625e-09, -2.607764398111755e-10).transl(1.4124315232603432e-08, 4e-08, 0))
hIsland = hIsland.sub(rect(9.396525663339844e-09, -3.1211585530451563e-10).transl(1.0306436060916914e-07, 4e-08, 0))
hIsland = hIsland.sub(rect(9.070873577005585e-09, -4.528719279513448e-12).transl(-1.4313780489485955e-07, 3.3601706992957e-08, 0))
hIsland = hIsland.add(rect(6.863475579088486e-09, 1.0917889868230917e-09).transl(5.515161027275917e-08, 4e-08, 0))
hIsland = hIsland.add(rect(5.378468123528475e-09, 1.0534624303623463e-10).transl(1.4217590620017227e-07, 3.5125817812867884e-08, 0))
hIsland = hIsland.sub(rect(3.2556005167913028e-09, -1.3347894760850806e-09).transl(-6.513867363225253e-08, 4e-08, 0))
hIsland = hIsland.add(rect(3.611388346452035e-09, 1.990737564520799e-09).transl(7.352915955153102e-08, 4e-08, 0))
hIsland = hIsland.sub(rect(3.345969390130826e-09, -5.1259698722841996e-09).transl(1.1608190895149872e-07, 4e-08, 0))
hIsland = hIsland.add(rect(7.935849738530097e-09, 1.5154496852073036e-10).transl(1.2638223809028317e-07, 4e-08, 0))
hIsland = hIsland.add(rect(5.719265420408906e-09, 4.3775026923231045e-10).transl(-1.470480477663807e-07, 2.3828206630929815e-08, 0))
hIsland = hIsland.add(rect(9.161559595132429e-09, 7.652335204761818e-10).transl(-9.304178618563219e-08, 4e-08, 0))
hIsland = hIsland.add(rect(5.892408935073329e-09, 5.793566137714572e-11).transl(1.341811586735014e-07, 4e-08, 0))
hIsland = hIsland.sub(rect(3.579046142540287e-09, -4.034091007417434e-10).transl(-9.779546328410242e-08, 4e-08, 0))
hIsland = hIsland.add(rect(7.494257074467906e-09, 3.182692101105998e-09).transl(8.585290522436113e-08, 4e-08, 0))
hIsland = hIsland.sub(rect(5.969561756709445e-09, -1.5801437448288476e-09).transl(-1.0469544053140076e-07, 4e-08, 0))
hIsland = hIsland.add(rect(2.3441837198063054e-09, 1.0890394139496535e-09).transl(-8.867477381957121e-08, 4e-08, 0))
hIsland = hIsland.sub(rect(8.237321686454624e-09, -4.901516756445814e-10).transl(-1.2573670111669084e-07, 4e-08, 0))
hIsland = hIsland.sub(rect(5.4215835906262885e-09, -9.187888356229992e-10).transl(-6.450350165194752e-09, 4e-08, 0))
hIsland = hIsland.add(rect(7.840814139672478e-09, 1.5357669693343933e-09).transl(-5.154869692586972e-08, 4e-08, 0))
hIsland = hIsland.sub(rect(2.0341985814808722e-09, -3.945356398573142e-11).transl(4.054061097901906e-08, 4e-08, 0))
hIsland = hIsland.add(rect(8.247690581122505e-09, 1.407061947718054e-09).transl(-1.318402302391733e-07, 4e-08, 0))
hIsland = hIsland.add(rect(6.642364853823096e-09, 1.9425145253482947e-09).transl(9.936090557963842e-09, 4e-08, 0))
hIsland = hIsland.sub(rect(3.3187195393499414e-09, -6.160004513186238e-10).transl(1.0300026646144772e-07, 4e-08, 0))
hIsland = hIsland.add(rect(4.842205357687255e-09, 1.1068184493591472e-09).transl(1.4228982197031901e-07, 3.495861636123408e-08, 0))
hIsland = hIsland.add(rect(5.835519288599019e-09, 1.4559046625251795e-09).transl(-1.2231944640013702e-07, 4e-08, 0))
hIsland = hIsland.add(rect(7.038582890246473e-09, 3.2068268707168902e-09).transl(-7.560170112877783e-08, 4e-08, 0))
hIsland = hIsland.sub(rect(5.039819391326097e-09, -8.26911007386901e-10).transl(-7.245695865003489e-08, 4e-08, 0))
hIsland = hIsland.sub(rect(2.345496894052933e-09, -1.442271932828614e-09).transl(-1.0225779679777078e-07, 4e-08, 0))
hIsland = hIsland.add(rect(9.010182717326552e-09, 9.384510355338884e-10).transl(-8.138557137547334e-08, 4e-08, 0))
hIsland = hIsland.sub(rect(2.3287135500492104e-09, -1.6428239682817443e-10).transl(-1.318633066315892e-07, 4e-08, 0))
hIsland = hIsland.sub(rect(6.645477634962289e-09, -8.382742132171805e-10).transl(-8.63572859121488e-08, 4e-08, 0))
hIsland = hIsland.sub(rect(3.6899652627501656e-09, -5.252189905514328e-09).transl(1.240028984035797e-07, 4e-08, 0))
hIsland = hIsland.add(rect(9.485397181277908e-09, 4.222620121773028e-10).transl(-4.348217477262899e-08, 4e-08, 0))
hIsland = hIsland.sub(rect(9.050062514418147e-09, -2.891590835900551e-10).transl(1.1627158867145375e-07, 4e-08, 0))
hIsland = hIsland.sub(rect(6.097077761800535e-09, -2.0359087344222703e-09).transl(8.712742197286308e-08, 4e-08, 0))
hIsland = hIsland.add(rect(6.139258311559725e-09, 4.733820898882042e-10).transl(2.0337273975843117e-08, 4e-08, 0))
hIsland = hIsland.sub(rect(3.794541239206231e-09, -6.710609086904363e-10).transl(1.9193716086742244e-08, 4e-08, 0))
hIsland = hIsland.add(rect(7.945645991783431e-09, 8.661522814236121e-10).transl(-7.516029663374293e-08, 4e-08, 0))
hIsland = hIsland.add(rect(4.655452554662023e-09, 1.6486648391436433e-09).transl(2.451566069235257e-08, 4e-08, 0))
hIsland = hIsland.sub(rect(5.2486224389518705e-09, -6.96529742383057e-10).transl(-1.355585208335915e-07, 3.997226189166187e-08, 0))
hIsland = hIsland.sub(rect(5.260308559256909e-09, -8.852021708024858e-10).transl(-1.1957730772756045e-07, 4e-08, 0))
hIsland = hIsland.sub(rect(2.592699403271165e-09, -1.3791203301437684e-09).transl(2.1719208669084584e-08, 4e-08, 0))
hIsland = hIsland.add(rect(8.095532814185031e-09, 1.2756317311957515e-09).transl(-7.25978978723438e-08, 4e-08, 0))
hIsland = hIsland.sub(rect(3.596033353835773e-09, -4.036343260230857e-10).transl(3.997607066572245e-08, 4e-08, 0))
hIsland = hIsland.add(rect(4.4183927876674416e-09, 3.362405207440962e-09).transl(-1.4352284158176196e-08, 4e-08, 0))
hIsland = hIsland.add(rect(6.6233752924757076e-09, 1.2893417448859236e-09).transl(-1.2074139586022068e-07, 4e-08, 0))
hIsland = hIsland.sub(rect(6.668531210643049e-09, -3.848962889679993e-09).transl(-7.338668514392043e-08, 4e-08, 0))
hIsland = hIsland.add(rect(6.585507108066915e-09, 7.06935803821984e-10).transl(-1.2358972254039983e-07, 4e-08, 0))
hIsland = hIsland.add(rect(5.3933250775664764e-09, 3.3203028989737397e-10).transl(-1.7516914799160197e-08, 4e-08, 0))
hIsland = hIsland.sub(rect(2.688456423419729e-09, -8.366521350526481e-10).transl(1.6175863179664825e-08, 4e-08, 0))
hIsland = hIsland.sub(rect(9.148981305684473e-09, -3.07373095330673e-09).transl(4.423598480685687e-08, 4e-08, 0))
hIsland = hIsland.add(rect(7.078249864268469e-09, 1.7506577049535958e-09).transl(-2.1311978514660553e-08, 4e-08, 0))
hIsland = hIsland.add(rect(8.006537018078249e-09, 5.714484437366567e-10).transl(-2.7827808216566652e-08, 4e-08, 0))
hIsland = hIsland.add(rect(4.830677231922905e-09, 3.7895269172211055e-09).transl(4.2691174825813995e-08, 4e-08, 0))
hIsland = hIsland.sub(rect(9.489217462338116e-09, -8.432778077238737e-10).transl(-6.280459974858661e-08, 4e-08, 0))
hIsland = hIsland.sub(rect(4.876853697889087e-09, -4.994258887191083e-10).transl(5.485608877492127e-09, 4e-08, 0))
hIsland = hIsland.add(rect(7.251969886323797e-09, 1.1204703566385048e-09).transl(1.0206131334770896e-07, 4e-08, 0))
hIsland = hIsland.sub(rect(7.120659859874907e-09, -3.1595387306431966e-09).transl(5.433117879765145e-08, 4e-08, 0))
hIsland = hIsland.add(rect(4.2151960353326034e-09, 2.1113872889332623e-09).transl(-8.372179053474926e-08, 4e-08, 0))
hIsland = hIsland.add(rect(5.670248018976089e-09, 1.1819672395969245e-09).transl(-1.1462138348932282e-08, 4e-08, 0))
hIsland = hIsland.sub(rect(8.116378387194036e-09, -1.3487723422124223e-09).transl(-8.622227621553161e-08, 4e-08, 0))
hIsland = hIsland.add(rect(8.52961790366614e-09, 1.1230784770440714e-09).transl(5.025007042648864e-08, 4e-08, 0))
hIsland = hIsland.add(rect(4.961909349827779e-09, 1.0598918175438536e-09).transl(-5.907146918546998e-08, 4e-08, 0))
hIsland = hIsland.sub(rect(8.414512210358986e-09, -4.717774825942163e-09).transl(2.897161807620191e-08, 4e-08, 0))
hIsland = hIsland.sub(rect(5.450561157012855e-09, -7.324448513434182e-10).transl(8.69495271963019e-08, 4e-08, 0))
hIsland = hIsland.sub(rect(7.909118096703064e-09, -1.3925955470539257e-09).transl(3.5080717023741064e-08, 4e-08, 0))
hIsland = hIsland.sub(rect(2.456051897975231e-09, -4.60976358058823e-09).transl(-4.1920236841712723e-08, 4e-08, 0))
hIsland = hIsland.add(rect(2.470329248889247e-09, 1.8700290036279444e-09).transl(-1.3496266626732013e-07, 4e-08, 0))
hIsland = hIsland.sub(rect(4.755294725760617e-09, -3.718166171805427e-10).transl(-6.973756906013902e-08, 4e-08, 0))
hIsland = hIsland.add(rect(3.515600480200667e-09, 2.8724571311004365e-09).transl(-1.1848591770407562e-07, 4e-08, 0))
hIsland = hIsland.sub(rect(9.55318294740086e-09, -2.869846193709291e-09).transl(-3.710872388982695e-08, 4e-08, 0))
hIsland = hIsland.add(rect(7.52843654963726e-09, 4.1592046916902496e-09).transl(3.263415919964484e-08, 4e-08, 0))
hIsland = hIsland.sub(rect(6.8234933903677715e-09, -1.7707885919205068e-09).transl(6.27344599004188e-08, 4e-08, 0))
hIsland = hIsland.sub(rect(2.3462025821374007e-09, -3.2196476884090012e-09).transl(-5.0141300916140197e-08, 4e-08, 0))
hIsland = hIsland.sub(rect(3.873476044672574e-09, -4.0160416013410494e-09).transl(-9.588684705706407e-08, 4e-08, 0))
hIsland = hIsland.add(rect(6.664970122568277e-09, 5.589392137686289e-10).transl(5.064161259201878e-08, 4e-08, 0))
hIsland = hIsland.sub(rect(8.912679206663518e-09, -1.0630730077691375e-10).transl(1.4011260860786378e-07, 3.760484443711863e-08, 0))
hIsland = hIsland.sub(rect(3.6213059281531026e-09, -1.201067186648459e-09).transl(-1.6960633830572802e-08, 4e-08, 0))
hIsland = hIsland.sub(rect(8.210100341898181e-09, -1.332505105205168e-09).transl(-1.422525769118708e-07, 3.501366114468518e-08, 0))
hIsland = hIsland.sub(rect(6.607832275364385e-09, -2.032458105368708e-09).transl(1.3502339634985358e-07, 3.9999951343153834e-08, 0))
hIsland = hIsland.add(rect(2.7790985090042224e-09, 2.4691752238726786e-09).transl(-5.411642841644557e-08, 4e-08, 0))
hIsland = hIsland.sub(rect(5.704586333304913e-09, -3.0095566523297694e-09).transl(-8.75628184177963e-08, 4e-08, 0))
hIsland = hIsland.sub(rect(7.0739392273521785e-09, -1.3405968964478622e-10).transl(-5.520159694827248e-08, 4e-08, 0))
hIsland = hIsland.sub(rect(4.526936577113884e-09, -7.196436704853818e-10).transl(-8.361679314531626e-08, 4e-08, 0))
hIsland = hIsland.add(rect(8.950454326492057e-09, 1.824633084162134e-09).transl(1.046065268943453e-07, 4e-08, 0))
hIsland = hIsland.add(rect(7.958645751100606e-09, 3.802044075107279e-09).transl(3.300520226808081e-08, 4e-08, 0))
hIsland = hIsland.add(rect(4.516768396837474e-09, 6.348055683089492e-10).transl(4.5666159111162885e-08, 4e-08, 0))
hIsland = hIsland.sub(rect(7.564401211862279e-09, -1.1450580177136579e-10).transl(-1.4384054662375902e-07, 3.2314535884990706e-08, 0))
hIsland = hIsland.add(rect(8.796638097219404e-09, 5.260372755964691e-09).transl(-9.141717870085154e-08, 4e-08, 0))
hIsland = hIsland.add(rect(2.477379134076638e-09, 1.2470123018416082e-09).transl(1.2754639477684766e-07, 4e-08, 0))
hIsland = hIsland.sub(rect(8.873699457980633e-09, -3.8552473738864986e-09).transl(1.4689169870568332e-07, 2.438032020837936e-08, 0))
hIsland = hIsland.sub(rect(8.923792274686544e-09, -1.139784020822909e-09).transl(5.119478679238513e-08, 4e-08, 0))
hIsland = hIsland.add(rect(6.9631822665744084e-09, 8.966699350684248e-10).transl(-8.626127432194856e-08, 4e-08, 0))
hIsland = hIsland.add(rect(9.968259821365224e-09, 1.0512156089763887e-09).transl(9.001657204295525e-08, 4e-08, 0))
hIsland = hIsland.add(rect(3.9328880339731765e-09, 1.5836660041122194e-09).transl(1.2475964011180338e-07, 4e-08, 0))
hIsland = hIsland.add(rect(8.08548704898304e-09, 1.5909093050855085e-09).transl(-5.186576975701192e-08, 4e-08, 0))
hIsland = hIsland.sub(rect(7.180516831903096e-09, -3.958982189290762e-09).transl(3.5582181621706515e-08, 4e-08, 0))
hIsland = hIsland.sub(rect(8.932256521795097e-09, -6.794151731090048e-10).transl(9.797906007213765e-08, 4e-08, 0))
hIsland = hIsland.add(rect(6.831853463963861e-09, 5.083292576317811e-10).transl(1.0605710863420052e-07, 4e-08, 0))
hIsland = hIsland.sub(rect(2.932397455004569e-09, -2.9037560109313875e-10).transl(1.2103974604440156e-07, 4e-08, 0))
hIsland = hIsland.add(rect(5.013696394704981e-09, 4.5495349106037615e-09).transl(-7.467286491549575e-08, 4e-08, 0))
hIsland = hIsland.sub(rect(4.751179257828858e-09, -7.030613507117559e-13).transl(1.2321994543678392e-07, 4e-08, 0))
hIsland = hIsland.sub(rect(8.069325844229568e-09, -1.1296868094385062e-09).transl(-1.4848654139558167e-07, 1.7509504961137215e-08, 0))
hIsland = hIsland.sub(rect(6.2811922465578874e-09, -3.036966263685651e-09).transl(-8.894872776155361e-09, 4e-08, 0))
hIsland = hIsland.add(rect(8.147100141804523e-09, 4.232679611982586e-09).transl(3.8091200278844256e-08, 4e-08, 0))
vIsland = hIsland.rotz(pi / 2)
hIslands = hIslands.add(hIsland.transl(-a/2, a, 0))
hIsland = rect(islandLength-2*ellipseConstant, islandWidth)
hIsland = hIsland.add(ellipse(ellipseConstant*2, islandWidth).transl(islandLength/2-ellipseConstant, 0, 0))
hIsland = hIsland.add(ellipse(ellipseConstant*2, islandWidth).transl(-islandLength/2+ellipseConstant, 0, 0))
hIsland = hIsland.add(rect(6.732990060787292e-09, 3.3689381378620836e-09).transl(-1.0378209871114298e-07, -4e-08, 0))
hIsland = hIsland.add(rect(8.45239560015714e-09, 5.995611540718108e-10).transl(3.840896136291873e-08, -4e-08, 0))
hIsland = hIsland.sub(rect(6.884308376264017e-09, -2.338454367419041e-09).transl(5.2365134239901054e-08, -4e-08, 0))
hIsland = hIsland.add(rect(7.480628675468824e-09, 8.824584352519605e-10).transl(-1.1742331740266021e-07, -4e-08, 0))
hIsland = hIsland.add(rect(3.961722335216853e-09, 2.5289786289926193e-09).transl(-1.4119882885816513e-07, -3.642460909632308e-08, 0))
hIsland = hIsland.sub(rect(8.61087337161388e-09, -1.424721597388659e-09).transl(-1.17380835058104e-07, -4e-08, 0))
hIsland = hIsland.add(rect(4.957987269816765e-09, 2.0839047628159506e-09).transl(9.184165176431853e-08, -4e-08, 0))
hIsland = hIsland.add(rect(6.40406907265749e-09, 1.4042725504792911e-09).transl(-4.1211452809644446e-08, -4e-08, 0))
hIsland = hIsland.sub(rect(2.0824983713836016e-09, -4.125212600403889e-09).transl(-2.2017532805714894e-08, -4e-08, 0))
hIsland = hIsland.add(rect(9.602306717973926e-09, 3.468082463814788e-10).transl(-1.2500874595008928e-07, -4e-08, 0))
hIsland = hIsland.add(rect(8.015136436237146e-09, 8.769729832344759e-12).transl(4.535863972556648e-08, -4e-08, 0))
hIsland = hIsland.add(rect(7.431843944406034e-09, 3.4667420718270934e-09).transl(1.490954951075696e-07, -1.3680030584106652e-08, 0))
hIsland = hIsland.sub(rect(6.084453066924676e-09, -5.706447804442172e-11).transl(7.401248675077631e-08, -4e-08, 0))
hIsland = hIsland.sub(rect(2.492820454056193e-09, -2.922496606638068e-09).transl(1.285247614869194e-07, -4e-08, 0))
hIsland = hIsland.add(rect(5.526536038451218e-09, 1.0362176458221579e-10).transl(6.979003431160922e-08, -4e-08, 0))
hIsland = hIsland.sub(rect(7.936481269555313e-09, -7.663942110806429e-10).transl(9.883291663883845e-08, -4e-08, 0))
hIsland = hIsland.add(rect(2.927104956624759e-09, 6.181036098872547e-10).transl(-4.287848587360859e-09, -4e-08, 0))
hIsland = hIsland.add(rect(4.4912554157123485e-09, 1.1623313740800193e-09).transl(-6.221086991987306e-08, -4e-08, 0))
hIsland = hIsland.add(rect(8.855847969946744e-09, 2.5147393832826167e-09).transl(5.545538236954512e-08, -4e-08, 0))
hIsland = hIsland.sub(rect(6.7999874925230944e-09, -3.1256846604457494e-09).transl(-7.612474306378868e-08, -4e-08, 0))
hIsland = hIsland.sub(rect(7.80388216036689e-09, -1.2866079772834577e-09).transl(1.452779727386409e-07, -2.913426712569142e-08, 0))
hIsland = hIsland.sub(rect(4.107914907383328e-09, -5.5031508932313486e-11).transl(-7.472578867696818e-08, -4e-08, 0))
hIsland = hIsland.sub(rect(4.957294830687648e-09, -1.287878847554711e-09).transl(-7.702571798452931e-08, -4e-08, 0))
hIsland = hIsland.sub(rect(5.344058001362067e-09, -8.612299195386804e-10).transl(8.75807861685016e-08, -4e-08, 0))
hIsland = hIsland.add(rect(9.471080335113633e-09, 1.1734995204674138e-09).transl(1.1967314659732447e-07, -4e-08, 0))
hIsland = hIsland.add(rect(6.535252502383274e-09, 4.5477155108394735e-10).transl(9.214131594878914e-08, -4e-08, 0))
hIsland = hIsland.add(rect(4.092798938487763e-09, 3.5293953944975433e-09).transl(-1.3387169781738431e-07, -4e-08, 0))
hIsland = hIsland.sub(rect(2.179028026144195e-09, -2.7469485625554605e-10).transl(9.358884637162073e-08, -4e-08, 0))
hIsland = hIsland.add(rect(7.108746036099352e-09, 2.5327580476052365e-09).transl(1.791883769423316e-08, -4e-08, 0))
hIsland = hIsland.sub(rect(5.135796174618952e-09, -1.3778330880870082e-09).transl(1.1812419203204483e-07, -4e-08, 0))
hIsland = hIsland.sub(rect(2.8370113713850627e-09, -3.249653004426407e-09).transl(9.628091777241086e-08, -4e-08, 0))
hIsland = hIsland.add(rect(8.599439410122313e-09, 6.801246738050301e-10).transl(1.416630740769538e-07, -3.58370081930858e-08, 0))
hIsland = hIsland.sub(rect(8.788434632224561e-09, -1.4924207271428725e-09).transl(1.3008847235268965e-07, -4e-08, 0))
hIsland = hIsland.add(rect(8.594167495730336e-09, 3.4779320133602943e-10).transl(3.645309482207471e-08, -4e-08, 0))
hIsland = hIsland.sub(rect(9.017593398982754e-09, -2.1124758057310228e-10).transl(1.2885095012299244e-07, -4e-08, 0))
hIsland = hIsland.add(rect(7.42330089203946e-09, 2.124088804753053e-09).transl(6.597649571010134e-08, -4e-08, 0))
hIsland = hIsland.add(rect(9.84295746125655e-09, 9.633143309790937e-10).transl(3.662623639004052e-08, -4e-08, 0))
hIsland = hIsland.sub(rect(8.200954331264473e-09, -3.2146093743671292e-09).transl(-1.0426122026080786e-07, -4e-08, 0))
hIsland = hIsland.sub(rect(6.2895425850594185e-09, -1.478088918641597e-09).transl(-1.4155466926144986e-07, -3.597888871094685e-08, 0))
hIsland = hIsland.add(rect(9.761466866628952e-09, 3.5054709689049434e-09).transl(8.425757804037442e-08, -4e-08, 0))
hIsland = hIsland.sub(rect(5.271657967903456e-09, -1.9876294527067508e-09).transl(-4.3713453472141384e-08, -4e-08, 0))
hIsland = hIsland.add(rect(6.269382548005364e-09, 6.142923366671315e-10).transl(1.4481362252656658e-07, -3.025142792954517e-08, 0))
hIsland = hIsland.sub(rect(3.104601085424409e-09, -5.631148636518883e-10).transl(7.118724857877387e-08, -4e-08, 0))
hIsland = hIsland.sub(rect(6.096189787756665e-09, -2.633721070102765e-10).transl(9.388152887694682e-08, -4e-08, 0))
hIsland = hIsland.sub(rect(3.973168765227363e-09, -5.423717900288907e-09).transl(2.395665985416437e-08, -4e-08, 0))
hIsland = hIsland.sub(rect(7.822365356006764e-09, -7.453056524727618e-10).transl(-8.617393937782982e-08, -4e-08, 0))
hIsland = hIsland.add(rect(6.720837366349895e-09, 1.9692277202174513e-09).transl(1.196891532342447e-07, -4e-08, 0))
hIsland = hIsland.add(rect(2.749774322278623e-09, 2.587619278299179e-09).transl(8.905956345021316e-08, -4e-08, 0))
hIsland = hIsland.add(rect(9.21113507087196e-09, 1.5609289252063203e-09).transl(1.0891281579933595e-07, -4e-08, 0))
hIsland = hIsland.add(rect(7.840410839602324e-09, 1.114220256187599e-09).transl(1.1614004151583904e-07, -4e-08, 0))
hIsland = hIsland.sub(rect(2.5529112027134816e-09, -1.3096927899336161e-09).transl(7.783310791469216e-08, -4e-08, 0))
hIsland = hIsland.add(rect(6.7695201333792e-09, 1.8516761043024804e-09).transl(-4.847379745662828e-08, -4e-08, 0))
hIsland = hIsland.sub(rect(2.3385270735302718e-09, -1.8964649748117538e-09).transl(8.322107053372233e-08, -4e-08, 0))
hIsland = hIsland.add(rect(6.291730904587916e-09, 5.581017429590528e-09).transl(-8.103803780956717e-08, -4e-08, 0))
hIsland = hIsland.add(rect(5.7432066185643055e-09, 3.906403708394427e-09).transl(-1.1001687303020103e-07, -4e-08, 0))
hIsland = hIsland.sub(rect(2.12652336940939e-09, -1.2040945720718287e-09).transl(-1.2906013819193202e-07, -4e-08, 0))
hIsland = hIsland.add(rect(4.901521183550087e-09, 1.1319698106975287e-09).transl(1.332377965731169e-07, -4e-08, 0))
hIsland = hIsland.add(rect(8.21236254009866e-09, 3.0741930351650313e-10).transl(-1.4558988435756604e-07, -2.832878072203883e-08, 0))
hIsland = hIsland.add(rect(2.3512689528274973e-09, 2.3378025327424884e-10).transl(-9.082101103094479e-08, -4e-08, 0))
hIsland = hIsland.sub(rect(5.9319720148968445e-09, -1.5855247210322557e-09).transl(-9.477503715385026e-08, -4e-08, 0))
hIsland = hIsland.add(rect(3.315292922772294e-09, 5.1526310077090815e-09).transl(8.519654722063683e-08, -4e-08, 0))
hIsland = hIsland.add(rect(8.243003195515062e-09, 3.71653664761919e-09).transl(2.666161356477452e-08, -4e-08, 0))
hIsland = hIsland.add(rect(2.8354906397259365e-09, 1.10381757357198e-09).transl(6.369906295741726e-08, -4e-08, 0))
hIsland = hIsland.add(rect(4.55841356922727e-09, 9.499702364799242e-10).transl(6.607909571618927e-08, -4e-08, 0))
hIsland = hIsland.sub(rect(8.993882414902178e-09, -2.77159144905544e-09).transl(-1.0084334198062449e-09, -4e-08, 0))
hIsland = hIsland.add(rect(7.063764364301482e-09, 7.841890888345666e-10).transl(7.289667924770401e-08, -4e-08, 0))
hIsland = hIsland.sub(rect(4.698433396641823e-09, -1.4917796938193235e-09).transl(5.961767909338371e-08, -4e-08, 0))
hIsland = hIsland.sub(rect(9.769466889523358e-09, -2.581518608527187e-09).transl(-2.2833760634361537e-08, -4e-08, 0))
hIsland = hIsland.sub(rect(2.0230937925721525e-09, -1.2777588820397589e-09).transl(4.158620376196689e-09, -4e-08, 0))
hIsland = hIsland.sub(rect(9.424702366245141e-09, -3.1508755309696947e-09).transl(5.2909914289174766e-08, -4e-08, 0))
hIsland = hIsland.sub(rect(3.2714676945847494e-09, -3.234632290799509e-10).transl(-8.405306799219098e-08, -4e-08, 0))
hIsland = hIsland.sub(rect(9.39673594678633e-09, -5.114083921917802e-11).transl(8.958529311509129e-08, -4e-08, 0))
hIsland = hIsland.sub(rect(8.424552774504645e-09, -1.5564787348565748e-09).transl(-1.4718504767771947e-07, -2.3327559375766133e-08, 0))
hIsland = hIsland.add(rect(6.692998606383065e-09, 1.7188786678708146e-10).transl(1.3828185845466625e-07, -3.9030873713206245e-08, 0))
hIsland = hIsland.sub(rect(6.776981180362547e-09, -1.1446209749393383e-09).transl(-9.585406936491355e-08, -4e-08, 0))
hIsland = hIsland.sub(rect(5.3350375782821686e-09, -4.683671676823287e-10).transl(1.431363676957242e-07, -3.360418182653672e-08, 0))
hIsland = hIsland.add(rect(3.5243220620644904e-09, 1.0274712492053337e-09).transl(-1.1797594809227108e-08, -4e-08, 0))
hIsland = hIsland.add(rect(7.619693190291976e-09, 1.2338482080111225e-09).transl(6.273771668379468e-09, -4e-08, 0))
hIsland = hIsland.add(rect(9.622591425603133e-09, 2.938316939822119e-09).transl(5.5198726513740334e-08, -4e-08, 0))
hIsland = hIsland.sub(rect(5.948209211941153e-09, -2.7153368694603533e-09).transl(-5.250749420102367e-08, -4e-08, 0))
hIsland = hIsland.sub(rect(6.038760150900052e-09, -2.4147705321652375e-09).transl(-1.3315526669120325e-07, -4e-08, 0))
hIsland = hIsland.sub(rect(9.734787515285122e-09, -1.6569823128692467e-09).transl(-1.0329764387866532e-07, -4e-08, 0))
hIsland = hIsland.add(rect(9.809356041573417e-09, 1.5896983864828346e-10).transl(-1.1205205475319153e-07, -4e-08, 0))
hIsland = hIsland.add(rect(5.489830305290388e-09, 8.31041393305836e-10).transl(1.2947949599189746e-07, -4e-08, 0))
hIsland = hIsland.add(rect(9.27664450018292e-09, 1.4590062425070156e-09).transl(3.921201328147997e-08, -4e-08, 0))
hIsland = hIsland.sub(rect(7.106461425956984e-09, -4.159749695636735e-09).transl(1.1643134057481097e-07, -4e-08, 0))
hIsland = hIsland.add(rect(9.786130005985476e-09, 5.0261936377697e-10).transl(1.70616089577846e-08, -4e-08, 0))
hIsland = hIsland.add(rect(7.551092327732865e-09, 3.736980058168265e-10).transl(-3.96008044683633e-08, -4e-08, 0))
hIsland = hIsland.add(rect(9.67705688606271e-09, 1.2792970537623812e-09).transl(1.1935662833555946e-07, -4e-08, 0))
hIsland = hIsland.add(rect(8.90980438768922e-09, 2.439113641959115e-09).transl(-3.057930346683396e-08, -4e-08, 0))
hIsland = hIsland.add(rect(9.48380470945877e-09, 1.9864949101669862e-09).transl(-1.4074952441284432e-07, -3.694492901253443e-08, 0))
hIsland = hIsland.add(rect(5.450121035342498e-09, 1.1409790856340331e-10).transl(-3.5867912085233576e-08, -4e-08, 0))
hIsland = hIsland.sub(rect(9.14282894082626e-09, -1.2992383456549366e-10).transl(4.932351019690797e-08, -4e-08, 0))
hIsland = hIsland.add(rect(5.711457408482615e-09, 4.098924436281496e-10).transl(1.2785275142958358e-07, -4e-08, 0))
hIsland = hIsland.sub(rect(5.3874532454914656e-09, -3.858285288818859e-09).transl(-9.804289336309535e-08, -4e-08, 0))
hIsland = hIsland.sub(rect(8.716101470136266e-09, -3.0980455766260906e-09).transl(-1.493948892858286e-07, -1.1246621204804298e-08, 0))
hIsland = hIsland.sub(rect(4.144448110872322e-09, -1.887296244062062e-09).transl(1.0051953560039218e-07, -4e-08, 0))
hIsland = hIsland.add(rect(3.620587346303798e-09, 1.0078147547356296e-09).transl(-1.1778567887412259e-08, -4e-08, 0))
hIsland = hIsland.add(rect(2.6189168925027655e-09, 2.5011519002726784e-09).transl(5.611864346610085e-09, -4e-08, 0))
hIsland = hIsland.add(rect(6.16208460117102e-09, 2.3271909710584356e-09).transl(-6.559368027606854e-08, -4e-08, 0))
hIsland = hIsland.add(rect(6.833639859531477e-09, 1.0764532743171278e-09).transl(-3.3520636967492126e-08, -4e-08, 0))
hIsland = hIsland.sub(rect(2.468231451857346e-09, -2.5054315449966047e-09).transl(-6.982629576015102e-09, -4e-08, 0))
hIsland = hIsland.sub(rect(5.175423252383331e-09, -3.986147732597254e-09).transl(-7.937728881244983e-08, -4e-08, 0))
hIsland = hIsland.sub(rect(2.8890717183412903e-09, -1.4132889693630208e-09).transl(-2.1106042340393634e-09, -4e-08, 0))
hIsland = hIsland.add(rect(2.057227645201385e-09, 3.955159599211817e-11).transl(-1.445925155153491e-07, -3.07516094422866e-08, 0))
hIsland = hIsland.add(rect(2.4729686809163233e-09, 1.8023956679040965e-10).transl(8.133831471598756e-09, -4e-08, 0))
hIsland = hIsland.sub(rect(9.255396075327561e-09, -3.4818208114390647e-09).transl(5.982850062114428e-10, -4e-08, 0))
hIsland = hIsland.sub(rect(5.586474847861418e-09, -1.6034895289548536e-09).transl(1.972018781206352e-08, -4e-08, 0))
hIsland = hIsland.add(rect(5.456668116221685e-09, 3.52065712054861e-09).transl(-1.346674797704028e-07, -4e-08, 0))
hIsland = hIsland.add(rect(5.594478667611139e-09, 2.2746132759302503e-09).transl(-8.841534925179724e-08, -4e-08, 0))
hIsland = hIsland.add(rect(2.721964439847997e-09, 1.005488714336428e-09).transl(-1.193153965409942e-07, -4e-08, 0))
hIsland = hIsland.add(rect(4.556243769533531e-09, 2.217258003306903e-09).transl(1.2162826532368357e-07, -4e-08, 0))
hIsland = hIsland.sub(rect(8.629319302124339e-09, -2.3783170221382955e-09).transl(-1.1167295645400709e-07, -4e-08, 0))
hIsland = hIsland.add(rect(7.9208970531665e-09, 1.886148051617819e-09).transl(1.0251715157053861e-08, -4e-08, 0))
hIsland = hIsland.add(rect(2.8727415572611257e-09, 8.669607504942928e-10).transl(-1.4269238493299163e-07, -3.433971089429158e-08, 0))
hIsland = hIsland.add(rect(8.413546239652805e-09, 9.4278148884525e-10).transl(4.328446240036239e-08, -4e-08, 0))
hIsland = hIsland.add(rect(7.195644298069421e-09, 9.328765989535296e-10).transl(-1.3091405403699415e-07, -4e-08, 0))
hIsland = hIsland.sub(rect(5.445305207953112e-09, -2.8842311619762497e-09).transl(1.4144340709545656e-07, -3.612152377760092e-08, 0))
hIsland = hIsland.add(rect(6.4974421130204735e-09, 4.057790100534206e-09).transl(6.877574473294701e-08, -4e-08, 0))
hIsland = hIsland.add(rect(5.460337115473956e-09, 1.4002462085804649e-09).transl(1.2961644629462883e-07, -4e-08, 0))
hIsland = hIsland.add(rect(3.076258028193708e-09, 5.306736697551078e-10).transl(-7.382518174268428e-08, -4e-08, 0))
hIsland = hIsland.sub(rect(9.743699782404353e-09, -2.1140933416686728e-09).transl(-3.793421380434624e-08, -4e-08, 0))
hIsland = hIsland.sub(rect(9.585761601969243e-09, -1.6780057547256983e-09).transl(1.0400855842834009e-07, -4e-08, 0))
hIsland = hIsland.sub(rect(7.425369443693105e-09, -1.8003507089955014e-09).transl(-8.384420528008436e-08, -4e-08, 0))
hIsland = hIsland.sub(rect(3.7751104254044234e-09, -2.357717689728889e-09).transl(-1.1056826628695007e-07, -4e-08, 0))
hIsland = hIsland.add(rect(5.1709352477700605e-09, 1.039677131580059e-09).transl(-5.323804206298039e-08, -4e-08, 0))
hIsland = hIsland.add(rect(8.388505929988395e-09, 8.801775796932919e-10).transl(1.4302869031452754e-07, -3.378784863319679e-08, 0))
hIsland = hIsland.sub(rect(8.548356403616904e-09, -1.4649098379890799e-09).transl(-4.1442767404415534e-08, -4e-08, 0))
hIsland = hIsland.sub(rect(9.99196259263621e-09, -1.9226709826772587e-09).transl(-1.0486929543783577e-07, -4e-08, 0))
hIsland = hIsland.add(rect(3.3356375479597e-09, 8.247023963396411e-10).transl(3.7967049956484775e-08, -4e-08, 0))
hIsland = hIsland.add(rect(5.398016793818875e-09, 4.27015141408286e-10).transl(1.1277790786024284e-07, -4e-08, 0))
hIsland = hIsland.add(rect(6.86345203739666e-09, 2.755836761704426e-09).transl(-2.289512312919843e-08, -4e-08, 0))
hIsland = hIsland.sub(rect(4.868914761371562e-09, -3.3403107443131373e-09).transl(1.2989680796969873e-07, -4e-08, 0))
hIsland = hIsland.sub(rect(4.039960558574041e-09, -3.6741746211599125e-10).transl(-5.0696102947103874e-08, -4e-08, 0))
hIsland = hIsland.sub(rect(8.523791423992981e-09, -9.269285530879149e-10).transl(-1.2873975305838045e-07, -4e-08, 0))
hIsland = hIsland.sub(rect(6.824628949568729e-09, -8.434144564637137e-10).transl(1.0979121655992385e-07, -4e-08, 0))
hIsland = hIsland.add(rect(8.207557172470363e-09, 8.599866162539455e-10).transl(-1.201148619242412e-07, -4e-08, 0))
hIsland = hIsland.add(rect(4.290178059678252e-09, 1.0542848782920094e-09).transl(7.387063825386845e-08, -4e-08, 0))
hIsland = hIsland.sub(rect(4.420528181687693e-09, -8.700289771949278e-11).transl(1.0938009074437613e-07, -4e-08, 0))
hIsland = hIsland.add(rect(8.731851484448102e-09, 1.2394950164549527e-09).transl(1.0139194135150232e-07, -4e-08, 0))
hIsland = hIsland.sub(rect(9.250959451163889e-09, -2.0134826797890202e-10).transl(-9.55414811299592e-08, -4e-08, 0))
hIsland = hIsland.add(rect(7.406349047533666e-09, 1.8638641022561743e-09).transl(1.0467337915587195e-07, -4e-08, 0))
hIsland = hIsland.sub(rect(8.614393945594827e-09, -3.488369487333784e-09).transl(1.283834881786014e-07, -4e-08, 0))
hIsland = hIsland.add(rect(7.313953973370213e-09, 6.737379788743019e-10).transl(-3.6068857311724696e-08, -4e-08, 0))
hIsland = hIsland.add(rect(2.5934327445572577e-09, 1.5299297145827548e-10).transl(1.369715131660975e-07, -3.965299581438103e-08, 0))
hIsland = hIsland.sub(rect(5.4479828575765084e-09, -6.287516373999943e-10).transl(1.3678772741966717e-07, -3.971489779676877e-08, 0))
hIsland = hIsland.sub(rect(5.178604490763207e-09, -3.3287572587251507e-09).transl(1.4788814985670973e-07, -2.046492383823701e-08, 0))
hIsland = hIsland.add(rect(9.085909874976027e-09, 1.7048427108411155e-09).transl(1.2259306499961123e-07, -4e-08, 0))
hIsland = hIsland.add(rect(7.988578021748128e-09, 2.3307750292756146e-10).transl(-2.2165952506387053e-08, -4e-08, 0))
hIsland = hIsland.add(rect(5.102391369046135e-09, 3.2977919950482163e-09).transl(6.412623907349508e-08, -4e-08, 0))
hIsland = hIsland.add(rect(8.833640835256864e-09, 9.520311312742148e-10).transl(1.8852696276834348e-08, -4e-08, 0))
hIsland = hIsland.sub(rect(2.219861709997029e-09, -3.016425986797837e-09).transl(-1.025447498782511e-07, -4e-08, 0))
hIsland = hIsland.add(rect(6.818777640810592e-09, 2.8017018117791794e-09).transl(-3.5177855329969694e-08, -4e-08, 0))
hIsland = hIsland.sub(rect(8.667680620495932e-09, -1.3199000090160486e-09).transl(-3.887199238212081e-08, -4e-08, 0))
hIsland = hIsland.add(rect(9.848251837923585e-09, 6.3921257188993e-10).transl(8.810277527909353e-08, -4e-08, 0))
hIsland = hIsland.sub(rect(5.005052477761297e-09, -2.1639763934130468e-10).transl(1.281821690954045e-08, -4e-08, 0))
hIsland = hIsland.sub(rect(7.299042500644073e-09, -1.3174577015228176e-09).transl(1.3017859114827583e-07, -4e-08, 0))
hIsland = hIsland.sub(rect(8.439956769719928e-09, -1.1185475246602842e-09).transl(1.4434619892360948e-07, -3.128632680321934e-08, 0))
hIsland = hIsland.sub(rect(9.69806926247476e-09, -2.4794538203814615e-10).transl(7.943929212159431e-08, -4e-08, 0))
hIsland = hIsland.add(rect(2.1972447818251165e-09, 3.6801628737114457e-09).transl(5.985393511717065e-08, -4e-08, 0))
hIsland = hIsland.sub(rect(6.711845258663004e-09, -3.0464087871511945e-10).transl(5.310400220858962e-08, -4e-08, 0))
hIsland = hIsland.sub(rect(7.598020862746152e-09, -1.1118003290966921e-09).transl(-1.3295663118324624e-07, -4e-08, 0))
hIsland = hIsland.add(rect(6.688240160833689e-09, 9.249820369053926e-10).transl(4.7917957753935896e-08, -4e-08, 0))
hIsland = hIsland.sub(rect(2.5918144254987425e-09, -1.5609836654829868e-09).transl(7.562529254613838e-08, -4e-08, 0))
hIsland = hIsland.add(rect(7.063707819166033e-09, 1.524351115925676e-09).transl(-1.1396898330528947e-07, -4e-08, 0))
hIsland = hIsland.add(rect(6.667067114258079e-09, 1.6429109020132537e-10).transl(1.3100302448867224e-07, -4e-08, 0))
hIsland = hIsland.add(rect(3.799053373527403e-09, 1.2363712391089737e-09).transl(1.403344291312829e-07, -3.7385094198345533e-08, 0))
hIsland = hIsland.add(rect(2.5379943107291355e-09, 4.3074976639602985e-10).transl(1.0333654223866959e-07, -4e-08, 0))
hIsland = hIsland.sub(rect(8.789016488318026e-09, -1.5489126901454305e-09).transl(-8.710092265169565e-08, -4e-08, 0))
hIsland = hIsland.add(rect(3.6884475176356652e-09, 2.9594279449933237e-09).transl(-3.6544232156181686e-08, -4e-08, 0))
hIsland = hIsland.add(rect(2.148095461210381e-09, 1.4944884127876117e-09).transl(1.0599911095557333e-07, -4e-08, 0))
hIsland = hIsland.add(rect(2.577771553397442e-09, 1.2744286185559926e-09).transl(1.2901129172108477e-07, -4e-08, 0))
hIsland = hIsland.add(rect(6.342541550441298e-09, 6.47268557435031e-10).transl(-3.0717506985946965e-08, -4e-08, 0))
hIsland = hIsland.add(rect(3.4413709130011914e-09, 1.1205422483563541e-09).transl(1.3335234206650464e-07, -4e-08, 0))
hIsland = hIsland.add(rect(7.95414257588504e-09, 7.249499556044184e-10).transl(2.3434959464458163e-08, -4e-08, 0))
hIsland = hIsland.add(rect(6.297217190696268e-09, 7.119846847511243e-10).transl(-4.92342714660248e-08, -4e-08, 0))
hIsland = hIsland.add(rect(7.770443277019955e-09, 4.637722260899572e-09).transl(5.774401162617337e-09, -4e-08, 0))
hIsland = hIsland.sub(rect(8.329135015827432e-09, -2.2258241762175815e-09).transl(-1.5349109534341933e-08, -4e-08, 0))
hIsland = hIsland.sub(rect(5.342214440207235e-09, -2.755724799705337e-09).transl(-1.1289746673500054e-07, -4e-08, 0))
hIsland = hIsland.sub(rect(7.478383800419577e-09, -1.7415809664645534e-09).transl(-5.2704678788657836e-08, -4e-08, 0))
hIsland = hIsland.sub(rect(7.469022918321503e-09, -9.123911073520018e-10).transl(-1.017884518610387e-07, -4e-08, 0))
hIsland = hIsland.sub(rect(3.185418211878621e-09, -1.2509037614191262e-09).transl(-9.49835609110533e-08, -4e-08, 0))
hIsland = hIsland.add(rect(3.3250594009902993e-09, 1.9098521197418964e-10).transl(1.0489641174085485e-07, -4e-08, 0))
hIsland = hIsland.sub(rect(9.272739695401979e-09, -3.0176659775598448e-09).transl(-5.02458613203731e-09, -4e-08, 0))
hIsland = hIsland.sub(rect(6.464542375569002e-09, -2.3956385419294806e-09).transl(1.0968870501052508e-07, -4e-08, 0))
hIsland = hIsland.sub(rect(3.624011392870948e-09, -1.4048964695242342e-09).transl(-1.3730251148811237e-07, -3.952594115010642e-08, 0))
hIsland = hIsland.sub(rect(8.344719888769999e-09, -1.4810215475626397e-09).transl(6.427305481049284e-09, -4e-08, 0))
hIsland = hIsland.add(rect(9.352015070874707e-09, 2.4795580866647014e-11).transl(-1.4417522784138168e-07, -3.164415413760235e-08, 0))
hIsland = hIsland.add(rect(5.085317862919708e-09, 2.2791821419941033e-09).transl(1.3262604721582256e-09, -4e-08, 0))
hIsland = hIsland.add(rect(6.502251941001218e-09, 2.8394431117158773e-09).transl(-1.0393047808645578e-07, -4e-08, 0))
hIsland = hIsland.sub(rect(2.0952065743262217e-09, -1.829514662430799e-09).transl(-7.65525340750627e-08, -4e-08, 0))
hIsland = hIsland.sub(rect(7.525724875549228e-09, -1.8963626269635756e-10).transl(-1.0913535443835516e-07, -4e-08, 0))
hIsland = hIsland.sub(rect(8.371822577974824e-09, -4.635131321255314e-09).transl(9.168074696487309e-08, -4e-08, 0))
hIsland = hIsland.add(rect(6.829902606466863e-09, 6.462952195101518e-10).transl(-7.744178467026748e-08, -4e-08, 0))
hIsland = hIsland.add(rect(2.7568588987359386e-09, 2.6290881062601346e-09).transl(-7.413045260169127e-09, -4e-08, 0))
hIsland = hIsland.sub(rect(4.420562033215307e-09, -6.018590134284043e-10).transl(9.534916422405771e-08, -4e-08, 0))
hIsland = hIsland.add(rect(8.734895990134066e-09, 7.038365450911393e-10).transl(8.082693511045864e-08, -4e-08, 0))
hIsland = hIsland.sub(rect(8.488735869773898e-09, -1.3777031155352781e-09).transl(-3.6919107799634246e-08, -4e-08, 0))
hIsland = hIsland.sub(rect(4.875384188955998e-09, -7.36694958624929e-10).transl(-1.826404895848586e-08, -4e-08, 0))
hIsland = hIsland.add(rect(4.042666122086615e-09, 1.8651256274050715e-09).transl(-7.72793096461122e-08, -4e-08, 0))
hIsland = hIsland.sub(rect(5.424538444219354e-09, -4.6945955342559e-10).transl(-9.995440235212834e-08, 4e-08, 0))
hIsland = hIsland.add(rect(3.0090932857957197e-09, 2.8564927872588258e-09).transl(3.191322234659531e-08, 4e-08, 0))
hIsland = hIsland.sub(rect(5.015107344245577e-09, -9.957023692017552e-10).transl(6.723342853790475e-08, 4e-08, 0))
hIsland = hIsland.add(rect(5.092134648621904e-09, 4.0166781487914184e-10).transl(1.0450229438259488e-07, 4e-08, 0))
hIsland = hIsland.sub(rect(9.575815964395763e-09, -4.665883264404565e-10).transl(1.4817808542364941e-07, 1.9106822900873097e-08, 0))
hIsland = hIsland.add(rect(6.674186680643402e-09, 2.4457956048115055e-09).transl(1.0506374326390848e-07, 4e-08, 0))
hIsland = hIsland.sub(rect(9.437060525244078e-09, -1.6146367103564307e-10).transl(-1.280474357544212e-07, 4e-08, 0))
hIsland = hIsland.add(rect(5.665962464298221e-09, 2.2763438763024484e-09).transl(1.432627106098086e-07, 3.338423988821943e-08, 0))
hIsland = hIsland.sub(rect(5.080970699786259e-09, -1.3905999538378648e-09).transl(4.2713721640770646e-08, 4e-08, 0))
hIsland = hIsland.sub(rect(5.555019341882238e-09, -3.08124308694495e-09).transl(1.3893910801106624e-07, 3.859611292595531e-08, 0))
hIsland = hIsland.add(rect(4.95707147889402e-09, 1.1588694257036782e-09).transl(-7.012258746454667e-08, 4e-08, 0))
hIsland = hIsland.sub(rect(7.451076365456277e-09, -2.6236487850919455e-10).transl(1.1635674643949468e-07, 4e-08, 0))
hIsland = hIsland.sub(rect(6.520792866864492e-09, -1.2233740780063744e-09).transl(6.011348730049989e-08, 4e-08, 0))
hIsland = hIsland.add(rect(3.696817994534576e-09, 1.0166428968028271e-10).transl(1.298881664298598e-07, 4e-08, 0))
hIsland = hIsland.sub(rect(3.174037295355837e-09, -6.879863460766182e-10).transl(-5.9042330004557e-08, 4e-08, 0))
hIsland = hIsland.sub(rect(5.42052360154444e-09, -5.502248088522401e-09).transl(1.9248177589460546e-08, 4e-08, 0))
hIsland = hIsland.add(rect(9.874767587886244e-09, 2.531341971618711e-09).transl(1.0225119943523561e-08, 4e-08, 0))
hIsland = hIsland.sub(rect(8.81589307197982e-09, -1.3962111613291418e-09).transl(3.579102262258209e-08, 4e-08, 0))
hIsland = hIsland.add(rect(9.196462386215088e-09, 3.178707152539852e-10).transl(1.3157858220935609e-07, 4e-08, 0))
hIsland = hIsland.sub(rect(5.264532129364419e-09, -6.766980661092309e-10).transl(6.92230934474649e-08, 4e-08, 0))
hIsland = hIsland.add(rect(6.696967384155115e-09, 1.9710411284801314e-09).transl(-4.439191433582981e-08, 4e-08, 0))
hIsland = hIsland.sub(rect(8.467424751829157e-09, -8.296503049197463e-11).transl(8.335638398031007e-08, 4e-08, 0))
hIsland = hIsland.add(rect(6.074464202240305e-09, 3.258108551841398e-09).transl(1.4833845654236012e-07, 1.8298381629485235e-08, 0))
hIsland = hIsland.add(rect(2.7592792168548226e-09, 2.6646315942514167e-09).transl(-5.241333057421552e-08, 4e-08, 0))
hIsland = hIsland.add(rect(4.866586094532926e-09, 6.86273390789422e-10).transl(-6.025371594744396e-08, 4e-08, 0))
hIsland = hIsland.add(rect(4.711674954580591e-09, 2.6205529617581274e-10).transl(1.4776548903107036e-07, 2.1004514189541525e-08, 0))
hIsland = hIsland.sub(rect(6.10061757496994e-09, -1.0440340875988067e-09).transl(1.4895352533696887e-08, 4e-08, 0))
hIsland = hIsland.sub(rect(5.598651318836692e-09, -4.95734231954727e-09).transl(1.0123137393430179e-07, 4e-08, 0))
hIsland = hIsland.sub(rect(3.39591908080362e-09, -5.669992445161111e-10).transl(1.1035074841292217e-07, 4e-08, 0))
hIsland = hIsland.sub(rect(9.755955470491712e-09, -1.6976182445295546e-09).transl(4.296331317465153e-09, 4e-08, 0))
hIsland = hIsland.sub(rect(7.918369893719994e-09, -1.5121642938584286e-09).transl(-1.0003794376131789e-07, 4e-08, 0))
hIsland = hIsland.sub(rect(3.728329914498042e-09, -1.872676690658902e-09).transl(-5.972447998264148e-08, 4e-08, 0))
hIsland = hIsland.sub(rect(9.735808207328304e-09, -2.4607903331553724e-10).transl(8.219723152204321e-08, 4e-08, 0))
hIsland = hIsland.sub(rect(9.730340034808471e-09, -1.6257001884761605e-09).transl(-1.1763302499210256e-07, 4e-08, 0))
hIsland = hIsland.sub(rect(4.7667412251081725e-09, -2.0606991843451292e-10).transl(-1.2097165694260466e-07, 4e-08, 0))
hIsland = hIsland.add(rect(3.886911073352549e-09, 1.8514666839987798e-09).transl(-2.0180558573450912e-08, 4e-08, 0))
hIsland = hIsland.sub(rect(7.805660881678145e-09, -2.7061890910318045e-11).transl(-5.3802254555172e-08, 4e-08, 0))
hIsland = hIsland.sub(rect(7.592607624182114e-09, -2.9018942857216383e-09).transl(1.891473112855968e-08, 4e-08, 0))
hIsland = hIsland.add(rect(7.341901635955505e-09, 1.9469416237500197e-09).transl(3.6156850814848166e-08, 4e-08, 0))
hIsland = hIsland.add(rect(2.5806434585247544e-09, 2.063661189718811e-09).transl(-5.705724999635445e-08, 4e-08, 0))
hIsland = hIsland.sub(rect(6.038641074023201e-09, -5.665419815400241e-10).transl(1.0789790646089906e-07, 4e-08, 0))
hIsland = hIsland.sub(rect(8.167620243739639e-09, -8.706350690501863e-10).transl(9.913716904896671e-08, 4e-08, 0))
hIsland = hIsland.sub(rect(8.871239009861415e-09, -4.683587466560556e-10).transl(7.510890094085563e-08, 4e-08, 0))
hIsland = hIsland.add(rect(6.245101276448678e-09, 1.0582452221930903e-10).transl(-2.1645736408241508e-08, 4e-08, 0))
hIsland = hIsland.add(rect(7.626869810336074e-09, 1.2618060304314488e-10).transl(1.4791836965953723e-07, 2.032897882807556e-08, 0))
hIsland = hIsland.sub(rect(6.747460079983161e-09, -5.145159622752181e-10).transl(1.209377941962101e-07, 4e-08, 0))
hIsland = hIsland.sub(rect(7.160361317544286e-09, -1.2481970665884748e-09).transl(8.304149950550396e-08, 4e-08, 0))
hIsland = hIsland.add(rect(4.59374217354786e-09, 5.636208107535224e-10).transl(2.704993561772061e-08, 4e-08, 0))
hIsland = hIsland.add(rect(3.2927615297471314e-09, 4.089422565921061e-10).transl(-1.4068718424234597e-07, 3.70134808252212e-08, 0))
hIsland = hIsland.add(rect(2.3918283836309397e-09, 6.161072700209762e-10).transl(5.3238358974571616e-08, 4e-08, 0))
hIsland = hIsland.add(rect(7.103197336095949e-09, 1.889238742167388e-09).transl(7.606029999257818e-08, 4e-08, 0))
hIsland = hIsland.sub(rect(6.653815116370094e-09, -3.813151396826207e-09).transl(-2.8521432338838537e-08, 4e-08, 0))
hIsland = hIsland.add(rect(4.89743784469291e-09, 1.0066023475021742e-09).transl(-1.2476888237217123e-07, 4e-08, 0))
hIsland = hIsland.sub(rect(3.828412419860667e-09, -1.6033944148544296e-10).transl(1.1703843310097935e-07, 4e-08, 0))
hIsland = hIsland.add(rect(2.360253656377183e-09, 1.9072434581386664e-09).transl(-1.0782162379464132e-07, 4e-08, 0))
hIsland = hIsland.add(rect(3.614939402839615e-09, 5.394170262392107e-10).transl(2.7718644970138377e-08, 4e-08, 0))
hIsland = hIsland.sub(rect(4.6960452133450825e-09, -9.46528862354879e-10).transl(1.3177248945684796e-09, 4e-08, 0))
hIsland = hIsland.add(rect(5.160675823868446e-09, 3.5565373637996935e-09).transl(7.79672709635228e-08, 4e-08, 0))
hIsland = hIsland.add(rect(5.456119700108355e-09, 2.1091136660031092e-10).transl(-3.0229203720171255e-08, 4e-08, 0))
hIsland = hIsland.add(rect(3.520596186075831e-09, 5.6622952010487e-10).transl(5.8839674430871524e-08, 4e-08, 0))
hIsland = hIsland.sub(rect(8.657302905668636e-09, -1.6424562439592106e-09).transl(-9.111328177966409e-08, 4e-08, 0))
[...]
hIsland = hIsland.sub(rect(3.7899259441962195e-09, -4.5338266417192393e-10).transl(3.316373250870017e-08, 4e-08, 0))
hIsland = hIsland.add(rect(8.413615053985047e-09, 8.030651933026076e-10).transl(-3.098705870890437e-08, 4e-08, 0))
hIsland = hIsland.add(rect(3.0787678185002962e-09, 6.374587689591493e-10).transl(8.279424934012078e-08, 4e-08, 0))
hIsland = hIsland.sub(rect(6.279491722694106e-09, -1.0376970156941835e-10).transl(3.1621119105957546e-08, 4e-08, 0))
hIsland = hIsland.sub(rect(3.765818567003463e-09, -8.159375112123984e-10).transl(4.2807240122454194e-08, 4e-08, 0))
hIsland = hIsland.add(rect(5.189404254046716e-09, 7.97704306290473e-10).transl(-8.897945167926085e-08, 4e-08, 0))
hIsland = hIsland.sub(rect(5.123102639480095e-09, -1.430834150355026e-10).transl(1.0319798428213899e-07, 4e-08, 0))
hIsland = hIsland.add(rect(9.161025156473167e-09, 8.397234552331529e-10).transl(-1.269100699300692e-07, 4e-08, 0))
hIsland = hIsland.add(rect(3.8817741632141156e-09, 2.0039214431215315e-09).transl(-1.5186953875973976e-08, 4e-08, 0))
hIsland = hIsland.add(rect(7.54179361977801e-09, 2.189950199335505e-09).transl(-1.3155063485878697e-07, 4e-08, 0))
hIsland = hIsland.sub(rect(7.941509690246275e-09, -1.2607943223193246e-09).transl(-6.228902587190306e-08, 4e-08, 0))
hIsland = hIsland.add(rect(2.7350144973320988e-09, 2.334341505399004e-09).transl(-1.3239753494738888e-07, 4e-08, 0))
hIsland = hIsland.add(rect(6.75945080164345e-09, 1.1041971731731967e-09).transl(-2.541898486256636e-08, 4e-08, 0))
hIsland = hIsland.sub(rect(3.6687346276967327e-09, -9.77155331681658e-10).transl(-7.820544397258675e-08, 4e-08, 0))
hIsland = hIsland.add(rect(7.292816946101451e-09, 2.009997360833914e-09).transl(-5.216709639506793e-08, 4e-08, 0))
hIsland = hIsland.sub(rect(5.213567330490125e-09, -2.0161151441293242e-09).transl(1.4840108231455322e-07, 1.7970047731057778e-08, 0))
hIsland = hIsland.sub(rect(8.95967096853778e-09, -1.731283014477005e-09).transl(-1.1421450116415862e-08, 4e-08, 0))
hIsland = hIsland.add(rect(4.184085725517465e-09, 1.2773196168057577e-09).transl(-1.2123078952132274e-07, 4e-08, 0))
hIsland = hIsland.sub(rect(9.655506317991946e-09, -2.3865251374945108e-09).transl(9.8278479470151e-08, 4e-08, 0))
hIsland = hIsland.sub(rect(3.7140744147266e-09, -4.084418613623245e-09).transl(5.326500419401844e-08, 4e-08, 0))
hIsland = hIsland.add(rect(2.5629220806469403e-09, 3.6502960383052164e-10).transl(-1.4517093585635277e-07, 2.9400174004740755e-08, 0))
hIsland = hIsland.add(rect(7.612658478185284e-09, 2.2528076519629206e-09).transl(1.0796744026898218e-07, 4e-08, 0))
hIsland = hIsland.add(rect(5.953734360164079e-09, 3.151602442334908e-10).transl(-9.999457865596517e-08, 4e-08, 0))
hIsland = hIsland.sub(rect(2.568928758433907e-09, -5.036876142834481e-09).transl(-7.481921651264923e-08, 4e-08, 0))
hIsland = hIsland.add(rect(5.1681591508628294e-09, 6.804549725366093e-10).transl(-1.1738463214632549e-07, 4e-08, 0))
hIsland = hIsland.add(rect(3.2111512429538646e-09, 1.8384860632162918e-09).transl(-1.3630654091986913e-07, 3.984797339441951e-08, 0))
hIsland = hIsland.add(rect(7.634797879059275e-09, 9.984638389073331e-10).transl(-9.287613420764957e-08, 4e-08, 0))
hIsland = hIsland.sub(rect(3.2074437748935508e-09, -1.8276099100297868e-09).transl(1.0509626448958413e-07, 4e-08, 0))
hIsland = hIsland.add(rect(7.725429591367172e-09, 1.2360196610137454e-09).transl(3.948337909887832e-08, 4e-08, 0))
hIsland = hIsland.sub(rect(3.040496747235639e-09, -2.872141218379321e-10).transl(-1.8538703443485103e-08, 4e-08, 0))
hIsland = hIsland.sub(rect(5.961231338635052e-09, -1.1270971330626765e-09).transl(1.0449337489733944e-07, 4e-08, 0))
hIsland = hIsland.add(rect(3.501929897635406e-09, 4.0341027283748026e-10).transl(4.29488982552691e-08, 4e-08, 0))
hIsland = hIsland.sub(rect(9.214426040184787e-09, -2.1737806537811246e-09).transl(-9.61650308524545e-08, 4e-08, 0))
hIsland = hIsland.add(rect(2.237373946620048e-09, 1.9784829568237124e-09).transl(-3.7333998509965385e-08, 4e-08, 0))
hIsland = hIsland.add(rect(9.085812219178309e-09, 4.1051062078900755e-10).transl(3.328060413263902e-09, 4e-08, 0))
hIsland = hIsland.sub(rect(2.16497292021076e-09, -9.291059358390532e-10).transl(-1.6429237260945632e-08, 4e-08, 0))
hIsland = hIsland.add(rect(4.097156514779592e-09, 2.04768161426632e-10).transl(6.096134897501195e-09, 4e-08, 0))
hIsland = hIsland.add(rect(7.165986557276727e-09, 2.793617496518867e-09).transl(1.4271553720782793e-07, 3.430275511781634e-08, 0))
hIsland = hIsland.add(rect(6.61424528784371e-09, 9.062213495009173e-10).transl(-1.0825221371328209e-07, 4e-08, 0))
hIsland = hIsland.sub(rect(2.9137712895203115e-09, -1.0229058766442668e-09).transl(1.0089231452154789e-07, 4e-08, 0))
hIsland = hIsland.sub(rect(5.112017052490344e-09, -2.0874828510220776e-09).transl(9.584872529521476e-08, 4e-08, 0))
hIsland = hIsland.sub(rect(6.114816541818051e-09, -3.0339114192489982e-09).transl(5.804580503164163e-08, 4e-08, 0))
hIsland = hIsland.add(rect(5.67140431123673e-09, 3.377797898426326e-09).transl(6.383682939850786e-08, 4e-08, 0))
hIsland = hIsland.add(rect(3.524037294433229e-09, 5.4059798919855187e-11).transl(2.4081657912473062e-08, 4e-08, 0))
hIsland = hIsland.sub(rect(2.7101524363688044e-09, -1.4237886502459736e-09).transl(5.918738545529721e-08, 4e-08, 0))
hIsland = hIsland.add(rect(7.424221865958665e-09, 1.530876822009709e-09).transl(-1.1998780649473494e-08, 4e-08, 0))
hIsland = hIsland.sub(rect(5.042042821788149e-09, -1.1646753103693073e-09).transl(4.988364306781878e-08, 4e-08, 0))
hIsland = hIsland.sub(rect(5.548884927516128e-09, -1.8122766416184395e-09).transl(2.8236995415725807e-08, 4e-08, 0))
hIsland = hIsland.sub(rect(3.1532342271392855e-09, -1.1965754519149924e-09).transl(-7.548409205685909e-08, 4e-08, 0))
hIsland = hIsland.add(rect(9.217299337033333e-09, 1.6379887214807868e-09).transl(-1.1736981444567397e-07, 4e-08, 0))
hIsland = hIsland.sub(rect(3.9342739403654985e-09, -2.2379269236594233e-09).transl(-2.1568089554592152e-08, 4e-08, 0))
hIsland = hIsland.sub(rect(8.735525995708718e-09, -2.550370839995269e-09).transl(1.9132130554677154e-08, 4e-08, 0))
hIsland = hIsland.sub(rect(7.353023117564811e-09, -2.9039081009347095e-10).transl(-3.306680618562589e-08, 4e-08, 0))
hIsland = hIsland.sub(rect(5.151833500929492e-09, -2.8221240364241615e-09).transl(-4.4204564021156525e-09, 4e-08, 0))
hIsland = hIsland.sub(rect(5.159039454989408e-09, -3.1959095945629337e-10).transl(1.3957249367466988e-07, 3.809623385014829e-08, 0))
hIsland = hIsland.add(rect(8.003044690723904e-09, 2.1748392770808876e-10).transl(-1.3860899136790314e-07, 3.882497993647568e-08, 0))
hIsland = hIsland.sub(rect(8.726951313324603e-09, -2.435315486627447e-09).transl(1.4520382597715408e-07, 2.9319018983491826e-08, 0))
hIsland = hIsland.sub(rect(4.213091264235296e-09, -7.732800741564235e-10).transl(-1.449518134827376e-07, 2.992867472639903e-08, 0))
hIsland = hIsland.sub(rect(5.620001297861312e-09, -2.402774825062061e-09).transl(-1.172928044679413e-07, 4e-08, 0))
hIsland = hIsland.sub(rect(9.645537336515922e-09, -8.946333643269357e-10).transl(-5.494096634316125e-08, 4e-08, 0))
hIsland = hIsland.sub(rect(3.7229829699973874e-09, -8.885082775321215e-13).transl(-4.515628393770992e-09, 4e-08, 0))
hIsland = hIsland.sub(rect(5.564680052797744e-09, -3.8604184751978983e-10).transl(5.684643919579861e-08, 4e-08, 0))
hIsland = hIsland.add(rect(9.699179778104869e-09, 1.547247811097418e-09).transl(5.6486915354370055e-08, 4e-08, 0))
hIsland = hIsland.add(rect(5.1716043818569045e-09, 1.799193333146863e-09).transl(5.6750101610786006e-08, 4e-08, 0))
hIsland = hIsland.sub(rect(6.882639334168688e-09, -1.0653031478763313e-10).transl(1.3508431712752868e-07, 3.999936805029736e-08, 0))
hIsland = hIsland.add(rect(2.5256947463469165e-09, 4.781036131006274e-10).transl(6.429906227253536e-08, 4e-08, 0))
hIsland = hIsland.sub(rect(5.930667022458491e-09, -2.071701253893782e-09).transl(-1.439165237716543e-07, 3.216574894215819e-08, 0))
hIsland = hIsland.sub(rect(8.683974067827907e-09, -4.548883961151146e-10).transl(-1.160764362749067e-07, 4e-08, 0))
hIsland = hIsland.sub(rect(5.538951703424193e-09, -2.0370198094643714e-09).transl(-2.9007620834221324e-08, 4e-08, 0))
hIsland = hIsland.sub(rect(9.027276786300838e-09, -2.0702675346848214e-09).transl(1.0987995554443212e-07, 4e-08, 0))
hIsland = hIsland.sub(rect(4.142696509249104e-09, -1.528773654775791e-09).transl(-6.967268043518394e-08, 4e-08, 0))
hIsland = hIsland.sub(rect(4.997843094005718e-09, -8.988726818177947e-10).transl(1.2790782058901376e-09, 4e-08, 0))
hIsland = hIsland.add(rect(8.113782713024037e-09, 9.898113669036616e-10).transl(-3.2609022726271035e-08, 4e-08, 0))
hIsland = hIsland.add(rect(7.364025190515525e-09, 3.4564346819590354e-09).transl(-1.0093746216495549e-08, 4e-08, 0))
hIsland = hIsland.sub(rect(6.435936143531162e-09, -2.936193485437843e-09).transl(-9.450406947620038e-08, 4e-08, 0))
hIsland = hIsland.add(rect(5.9108277181724504e-09, 9.247031927910463e-11).transl(-1.1811976069482643e-07, 4e-08, 0))
hIsland = hIsland.add(rect(3.6522241445303874e-09, 4.979328569376839e-09).transl(2.711862956456294e-08, 4e-08, 0))
hIsland = hIsland.sub(rect(2.7578410081728786e-09, -2.1776572115431988e-09).transl(-2.577165233718347e-08, 4e-08, 0))
hIsland = hIsland.add(rect(6.473183859055205e-09, 1.5798486414913e-09).transl(2.4423401808098792e-08, 4e-08, 0))
hIsland = hIsland.add(rect(5.36122512898477e-09, 5.851582071507191e-10).transl(-3.546721186264443e-08, 4e-08, 0))
hIsland = hIsland.add(rect(6.897088361572689e-09, 8.504843384828463e-10).transl(9.839005142158193e-08, 4e-08, 0))
hIsland = hIsland.sub(rect(2.923437713292166e-09, -1.370306566485574e-09).transl(-5.61001036517194e-08, 4e-08, 0))
hIsland = hIsland.add(rect(6.848824202665343e-09, 1.3085288532824533e-09).transl(-1.4014836783057515e-07, 3.757013553282025e-08, 0))
hIsland = hIsland.add(rect(6.5335810553125456e-09, 2.7099991117652633e-09).transl(-8.274590292166589e-08, 4e-08, 0))
hIsland = hIsland.add(rect(3.131325849069515e-09, 1.0507345384084875e-09).transl(-1.4147916192699865e-07, 3.6076014633177e-08, 0))
hIsland = hIsland.sub(rect(9.562648473557282e-09, -1.6726752487935547e-10).transl(-4.1758449811381393e-08, 4e-08, 0))
hIsland = hIsland.add(rect(8.4336163112932e-09, 3.720392269218588e-10).transl(-1.3714830613910582e-07, 3.958763270249876e-08, 0))
hIsland = hIsland.add(rect(5.3301028245227736e-09, 2.5645027013069177e-09).transl(-4.17117581723416e-09, 4e-08, 0))
hIsland = hIsland.add(rect(2.793787242905528e-09, 2.6283016655297657e-09).transl(1.2292283253376906e-07, 4e-08, 0))
hIsland = hIsland.sub(rect(6.800041354981862e-09, -3.78375548847689e-09).transl(9.148310206862838e-08, 4e-08, 0))
hIsland = hIsland.add(rect(3.3084554176628118e-09, 5.57128698062583e-10).transl(-6.621391261366097e-08, 4e-08, 0))
hIsland = hIsland.add(rect(6.300255926688141e-09, 1.991725495437044e-09).transl(-6.977539912261211e-08, 4e-08, 0))
hIsland = hIsland.sub(rect(3.81876520879991e-09, -1.6873202931173924e-09).transl(-9.618907438872692e-08, 4e-08, 0))
hIsland = hIsland.add(rect(3.2125979676665947e-09, 1.9134987890366244e-09).transl(-5.55972261186048e-08, 4e-08, 0))
hIsland = hIsland.add(rect(8.106572575026195e-09, 1.6661409888021373e-09).transl(-1.340878842025536e-07, 4e-08, 0))
hIsland = hIsland.add(rect(7.723851760352966e-09, 6.322938414519345e-10).transl(-1.131281909229279e-07, 4e-08, 0))
hIsland = hIsland.add(rect(2.2611576135827723e-09, 3.783032157637752e-09).transl(-3.3347860341628647e-10, 4e-08, 0))
hIsland = hIsland.sub(rect(7.719096041312264e-09, -2.825834805133195e-09).transl(7.983573491517986e-09, 4e-08, 0))
hIsland = hIsland.sub(rect(6.195103427972354e-09, -1.1602814288091856e-09).transl(1.106186350495974e-07, 4e-08, 0))
hIsland = hIsland.sub(rect(7.446542387694615e-09, -3.526067127524379e-09).transl(7.019059128231203e-08, 4e-08, 0))
hIsland = hIsland.add(rect(2.2745603336979602e-09, 3.7606285713711736e-09).transl(4.6322317739993785e-08, 4e-08, 0))
hIsland = hIsland.add(rect(6.398661163878209e-09, 1.3128407705629683e-10).transl(-3.29343645643138e-08, 4e-08, 0))
hIsland = hIsland.sub(rect(9.290713742306434e-09, -1.6420975968622595e-09).transl(2.3278611949103777e-08, 4e-08, 0))
hIsland = hIsland.add(rect(7.972740651743505e-09, 1.1061364507997707e-09).transl(1.3585828461035929e-07, 3.9934466096576707e-08, 0))
hIsland = hIsland.add(rect(7.913707623267732e-09, 9.612615720795962e-10).transl(-9.123350824710442e-08, 4e-08, 0))
hIsland = hIsland.add(rect(6.136769462304472e-09, 6.574847108975334e-10).transl(-7.793422450747552e-08, 4e-08, 0))
hIsland = hIsland.add(rect(5.49814812368376e-09, 3.71959450180278e-09).transl(-1.1279951658204745e-07, 4e-08, 0))
hIsland = hIsland.sub(rect(3.068968260941019e-09, -1.0489561322057495e-10).transl(-8.412467888549948e-08, 4e-08, 0))
hIsland = hIsland.sub(rect(5.838838716167521e-09, -1.9651466375664958e-09).transl(1.4161205067028645e-07, 3.590414754708886e-08, 0))
hIsland = hIsland.add(rect(5.903833403623527e-09, 4.767830108428149e-10).transl(1.2924718887429937e-07, 4e-08, 0))
hIsland = hIsland.add(rect(7.779176019845583e-09, 5.496438739679603e-10).transl(-1.502701343661098e-08, 4e-08, 0))
hIsland = hIsland.add(rect(3.0359956588695857e-09, 2.0873314688231972e-09).transl(5.831038650329715e-08, 4e-08, 0))
hIsland = hIsland.add(rect(6.124330173479965e-09, 1.358823073041604e-09).transl(-2.7833177966087255e-08, 4e-08, 0))
hIsland = hIsland.add(rect(2.6749082339761013e-09, 2.062573372656282e-09).transl(1.3130565889669558e-07, 4e-08, 0))
hIsland = hIsland.add(rect(4.583843873699169e-09, 8.042783626266182e-10).transl(5.950913802810575e-08, 4e-08, 0))
hIsland = hIsland.add(rect(7.150667186978013e-09, 2.07898033500205e-09).transl(8.946719469129041e-08, 4e-08, 0))
hIsland = hIsland.add(rect(8.204942830665415e-09, 2.480442380381869e-10).transl(-1.1222921948184637e-07, 4e-08, 0))
hIsland = hIsland.sub(rect(2.801822122994093e-09, -8.81061193697705e-10).transl(1.238147239993901e-07, 4e-08, 0))
hIsland = hIsland.sub(rect(2.5370166598888e-09, -8.554852210139605e-10).transl(-1.877147286360366e-08, 4e-08, 0))
hIsland = hIsland.add(rect(7.395960591343191e-09, 1.9239395606293326e-09).transl(1.9421369281739266e-08, 4e-08, 0))
hIsland = hIsland.sub(rect(6.605941137574453e-09, -1.121115879352595e-09).transl(-1.0004857969492201e-07, 4e-08, 0))
hIsland = hIsland.sub(rect(7.2561886775656636e-09, -2.6586644428946403e-09).transl(-3.9221880628368686e-08, 4e-08, 0))
hIsland = hIsland.add(rect(7.78297189450677e-09, 9.459648488449008e-10).transl(-3.694491262895423e-08, 4e-08, 0))
hIsland = hIsland.add(rect(5.700317326510913e-09, 2.372881604832276e-09).transl(8.812871086558351e-08, 4e-08, 0))
hIsland = hIsland.sub(rect(3.977397840698687e-09, -8.049176860141258e-10).transl(1.279648174178321e-07, 4e-08, 0))
hIsland = hIsland.sub(rect(2.58650658717099e-09, -3.946803762114725e-10).transl(-1.4623452737317976e-07, 2.6504224528850763e-08, 0))
hIsland = hIsland.sub(rect(7.805252061693703e-09, -1.0686423121109987e-09).transl(-1.465480510044272e-07, 2.552802632390417e-08, 0))
hIsland = hIsland.add(rect(7.303377495151925e-09, 1.8098243762360858e-10).transl(-1.1933846855408299e-07, 4e-08, 0))
hIsland = hIsland.add(rect(5.114245635590358e-09, 1.2635208214631513e-09).transl(9.34315773252483e-08, 4e-08, 0))
hIsland = hIsland.sub(rect(6.175891340568304e-09, -1.8347995207831215e-09).transl(1.040723387742925e-07, 4e-08, 0))
hIsland = hIsland.add(rect(8.4227272559768e-09, 1.120006245974279e-10).transl(-6.202855035977981e-08, 4e-08, 0))
hIsland = hIsland.add(rect(6.982928596655149e-09, 9.498330010395752e-11).transl(5.22761810088002e-08, 4e-08, 0))
hIsland = hIsland.sub(rect(3.7696449645244935e-09, -4.111273843132456e-09).transl(1.2797373127161812e-07, 4e-08, 0))
hIsland = hIsland.sub(rect(9.96033104584198e-09, -6.926643426081467e-10).transl(-1.306971166700274e-07, 4e-08, 0))
hIsland = hIsland.add(rect(9.328352735308859e-09, 7.451992486024838e-10).transl(-1.2898989490069212e-07, 4e-08, 0))
hIsland = hIsland.add(rect(7.917513751958942e-09, 2.2820952479311038e-09).transl(1.086715856237326e-07, 4e-08, 0))
hIsland = hIsland.sub(rect(4.927715847385136e-09, -2.489854558645847e-09).transl(-8.852835343097543e-08, 4e-08, 0))
hIsland = hIsland.sub(rect(5.941447818432064e-09, -4.8627424256252985e-09).transl(1.3118370941410461e-08, 4e-08, 0))
hIsland = hIsland.sub(rect(4.872423716226031e-09, -1.0972125916707592e-09).transl(1.0602603505202661e-07, 4e-08, 0))
hIsland = hIsland.add(rect(2.3569193946706424e-09, 3.938445702066678e-10).transl(-7.665836611462799e-08, 4e-08, 0))
hIsland = hIsland.sub(rect(4.183143342296737e-09, -4.842102246029979e-10).transl(6.44375501640468e-08, 4e-08, 0))
hIsland = hIsland.add(rect(8.737282075572653e-09, 1.7745439267078576e-09).transl(1.4750208639084039e-08, 4e-08, 0))
hIsland = hIsland.add(rect(5.469858624201158e-09, 4.416854989477764e-10).transl(6.327465418780254e-08, 4e-08, 0))
hIsland = hIsland.sub(rect(6.565299587737213e-09, -4.24501564989555e-09).transl(-1.2463958274404311e-07, 4e-08, 0))
hIsland = hIsland.sub(rect(7.818632220369249e-09, -4.5323277361262466e-10).transl(8.852938504949598e-08, 4e-08, 0))
hIsland = hIsland.add(rect(2.3329613922131486e-09, 4.007661876254366e-09).transl(9.568123171879937e-08, 4e-08, 0))
hIsland = hIsland.add(rect(8.968519267063438e-09, 1.615070962597477e-10).transl(-5.323284286134724e-08, 4e-08, 0))
hIsland = hIsland.add(rect(5.46584796807584e-09, 8.592374244475328e-10).transl(5.4185008694843554e-08, 4e-08, 0))
hIsland = hIsland.sub(rect(2.5775722499825627e-09, -1.8420267659235288e-09).transl(-9.642388632969278e-08, 4e-08, 0))
hIsland = hIsland.add(rect(2.0554275301452957e-09, 2.068319553485853e-10).transl(-8.82622453161771e-08, 4e-08, 0))
hIsland = hIsland.add(rect(4.961793408667521e-09, 2.5614140434303104e-11).transl(-2.516713983724252e-09, 4e-08, 0))
hIsland = hIsland.add(rect(7.018648447918404e-09, 6.550954775263109e-10).transl(-1.2191262551454168e-07, 4e-08, 0))
hIsland = hIsland.add(rect(2.429076731095627e-09, 2.202467818706393e-10).transl(-5.093633370878603e-08, 4e-08, 0))
hIsland = hIsland.add(rect(2.4411051619329217e-09, 3.274676153279675e-09).transl(-8.559624491063756e-08, 4e-08, 0))
hIsland = hIsland.sub(rect(2.3219803092608693e-09, -2.579086985712233e-09).transl(-1.8991028497649734e-08, 4e-08, 0))
hIsland = hIsland.add(rect(9.593446305195085e-09, 1.9188966828864523e-09).transl(9.015102052855588e-08, 4e-08, 0))
hIsland = hIsland.sub(rect(2.0350305871222574e-09, -3.875959455296617e-09).transl(5.1377432736183283e-08, 4e-08, 0))
hIsland = hIsland.add(rect(2.1116871564868874e-09, 5.789830374373314e-10).transl(4.0450172314149654e-08, 4e-08, 0))
hIsland = hIsland.add(rect(9.080405258918877e-09, 5.549165083494562e-10).transl(6.258048057848943e-08, 4e-08, 0))
hIsland = hIsland.sub(rect(2.8996802870881604e-09, -1.8548516045412303e-10).transl(-1.0880904518564311e-07, 4e-08, 0))
hIsland = hIsland.sub(rect(4.3101614334465794e-09, -1.015317583773243e-09).transl(-1.2773860936798842e-07, 4e-08, 0))
hIsland = hIsland.sub(rect(5.987512631009608e-09, -1.102421497567982e-09).transl(-1.1945271140683327e-07, 4e-08, 0))
hIsland = hIsland.sub(rect(4.203985863234245e-09, -3.642035598936154e-09).transl(4.269038878748163e-08, 4e-08, 0))
vIsland = hIsland.rotz(pi / 2)
vIslands = vIslands.add(vIsland.transl(0, -a/2, 0))
DefRegion(1, hIslands)
DefRegion(2, vIslands)
TableAdd(m_full.Region(1))
TableAdd(m_full.Region(2))
setgeom(hIslands.add(vIslands))
save(geom)
r2o2 := sqrt(2) / 2
m = RandomMagSeed(4)
B_ext = vector(Bmax*r2o2, Bmax*r2o2, 0)
relax()
minimize()
for B := Bmax; B >= -Bmax; B -= Bstep {
	B_ext = vector(B*r2o2, B*r2o2, 0)
	minimize()
	tablesave()
}
//********************************************************************//
//Please cite the following references, relevant for your simulation. //
//See bibtex file in output folder for justification.                 //
//********************************************************************//
//   * Vansteenkiste et al., AIP Adv. 4, 107133 (2014).
//   * Exl et al., J. Appl. Phys. 115, 17D118 (2014).
