# t (s)	mx ()	my ()	mz ()	B_extx (T)	B_exty (T)	B_extz (T)	m_fullx (A/m)	m_fully (A/m)	m_fullz (A/m)	m_full.region1x (A/m)	m_full.region1y (A/m)	m_full.region1z (A/m)	m_full.region2x (A/m)	m_full.region2y (A/m)	m_full.region2z (A/m)
0	0.65672207	0.6567185	-6.8827534e-11	0.07071067	0.07071067	0	162491.78	162490.92	-1.6342474e-05	613223.4	306184.47	-5.051963e-05	306187.47	613221.5	-7.21709e-06
0	0.6566446	0.6566434	-5.334134e-11	0.07056918	0.07056919	0	162472.61	162472.34	-1.5306123e-05	613288.25	306013.25	-6.675808e-05	306014.06	613287.5	-3.2476906e-05
0	0.6565633	0.6565625	3.7855143e-11	0.07042789	0.07042789	0	162452.52	162452.31	1.1399872e-05	613359.94	305828.16	0.0001244948	305828.78	613359.3	-5.773672e-05
0	0.656482	0.65648115	-2.1508605e-10	0.070286386	0.070286386	0	162432.39	162432.19	-5.2216197e-05	613431.44	305642.72	-0.000111864894	305643.3	613430.9	-0.0001768187
0	0.656401	0.6564002	-1.7034815e-10	0.07014501	0.07014502	0	162412.36	162412.16	-3.8265305e-05	613502.9	305457.9	-4.510681e-05	305458.5	613502.4	-0.00015877598
0	0.65631914	0.6563184	-6.366547e-11	0.07000352	0.07000352	0	162392.11	162391.92	-1.9770408e-05	613574.9	305271.3	-2.5259815e-05	305271.9	613574.44	-6.856235e-05
0	0.65623796	0.65623707	-3.0456185e-10	0.069862224	0.069862224	0	162372.02	162371.81	-7.158801e-05	613646.1	305086.3	-0.00011908199	305086.9	613645.7	-0.0003031178
0	0.6561556	0.6561548	-4.3017208e-11	0.069720745	0.069720745	0	162351.64	162351.42	-1.1479592e-05	613717.8	304899.38	4.1498268e-05	304900	613717.25	-7.21709e-05
0	0.656073	0.6560722	-1.9099641e-10	0.06957926	0.06957926	0	162331.2	162331.02	-5.2933672e-05	613790.06	304711.5	-0.00013351617	304712.1	613789.56	-0.00016960161
0	0.65599114	0.6559904	2.2368949e-11	0.06943794	0.06943794	0	162310.97	162310.77	6.8558675e-06	613862.06	304525	3.2476906e-05	304525.62	613861.56	-1.0825635e-05
0	0.655909	0.6559081	-9.6358546e-11	0.0692964	0.0692964	0	162290.61	162290.42	-1.9132653e-05	613933.06	304338.88	-0.00011547344	304339.4	613932.56	-1.443418e-05
0	0.6558258	0.6558249	-2.0390158e-10	0.0691551	0.0691551	0	162270.03	162269.83	-4.9744896e-05	614005.6	304149.88	-0.00016058025	304150.47	614005.1	-0.00019486144
0	0.65574294	0.6557421	-3.3037217e-10	0.0690136	0.069013596	0	162249.53	162249.33	-8.1273916e-05	614078.06	303961.44	-0.00016599307	303962	614077.56	-0.00029590068
0	0.6556601	0.65565926	-1.9271709e-10	0.068872124	0.068872124	0	162229.03	162228.84	-4.703444e-05	614150	303773.5	-0.000108256354	303774.1	614149.44	-0.00013351617
0	0.65557694	0.6555761	-1.32493e-10	0.06873082	0.06873082	0	162208.47	162208.25	-2.4394132e-05	614222.06	303585.1	-1.2629907e-05	303585.72	614221.44	-0.0001840358
0	0.65549403	0.6554931	-3.837135e-10	0.06858932	0.06858932	0	162187.94	162187.73	-9.000319e-05	614293.75	303397.22	-0.00024177252	303397.84	614293.25	-0.0002742494
0	0.65541005	0.6554092	-1.2561024e-10	0.068447955	0.068447955	0	162167.17	162166.97	-3.252551e-05	614366.3	303207.12	4.1498268e-05	303207.72	614365.7	-0.00023094688
0	0.65532637	0.65532553	-5.1620652e-12	0.06830648	0.06830648	0	162146.45	162146.28	-1.2755102e-06	614438.3	303017.97	3.9693994e-05	303018.53	614437.8	-2.165127e-05
0	0.65524274	0.65524185	-2.9079633e-10	0.06816515	0.06816515	0	162125.8	162125.58	-7.461735e-05	614510.2	302829.12	-0.00017321017	302829.72	614509.7	-0.00024538106
0	0.655158	0.65515715	-4.1984796e-10	0.068023674	0.068023674	0	162104.8	162104.6	-0.00010459184	614582.9	302637.66	-0.0003157477	302638.25	614582.3	-0.00028146652
0	0.65507376	0.655073	-1.5658264e-10	0.06788219	0.067882195	0	162083.98	162083.78	-4.185268e-05	614655.44	302447.3	-8.1192265e-05	302447.88	614654.8	-0.00012990762
0	0.6549895	0.6549887	-2.0992398e-10	0.06774088	0.06774088	0	162063.12	162062.94	-5.3571428e-05	614727.7	302257	-0.00014975462	302257.62	614727.2	-0.00013351617
0	0.65490466	0.65490395	-8.2593044e-11	0.067599334	0.067599334	0	162042.16	162041.94	-2.0328443e-05	614800.2	302065.8	-6.495381e-05	302066.4	614799.7	-5.773672e-05
0	0.65481967	0.65481895	-1.1700681e-10	0.06745803	0.06745803	0	162021.08	162020.89	-2.869898e-05	614873	301874.03	-2.5259815e-05	301874.66	614872.4	-0.00011908199
0	0.65473497	0.6547342	-2.0132054e-10	0.06731653	0.06731653	0	162000.14	161999.95	-4.93463e-05	614945.2	301683.28	-9.923499e-05	301683.84	614944.5	-0.00020929561
0	0.65464956	0.6546488	-3.4413767e-11	0.06717506	0.06717506	0	161979.02	161978.81	-6.2978315e-06	615017.4	301491.44	-7.036663e-05	301492.06	615016.8	1.443418e-05
0	0.6545639	0.6545631	-2.2368949e-11	0.06703376	0.06703376	0	161957.81	161957.61	-7.653061e-06	615089.9	301298.97	-9.923499e-05	301299.56	615089.4	5.051963e-05
0	0.65447813	0.6544773	-3.4757905e-10	0.066892266	0.066892266	0	161936.58	161936.39	-8.67347e-05	615162.8	301105.9	-0.0002489896	301106.5	615162.2	-0.00028146652
0	0.6543926	0.65439177	3.4413767e-11	0.066750884	0.066750884	0	161915.42	161915.22	7.971938e-06	615235.6	300913.4	-1.8042725e-06	300914.03	615235.06	3.9693994e-05
0	0.65430677	0.65430593	-4.0608245e-10	0.06660941	0.06660941	0	161894.19	161893.97	-0.000100087695	615308.5	300720.4	-0.00028507505	300720.97	615307.9	-0.0002886836
0	0.6542205	0.6542196	-1.2044818e-11	0.06646809	0.06646809	0	161872.84	161872.62	-8.370535e-06	615381.2	300526.88	-5.5932447e-05	300527.53	615380.6	1.8042725e-05
0	0.6541341	0.65413326	-3.5102043e-10	0.06632662	0.06632662	0	161851.45	161851.25	-8.38648e-05	615453.8	300333.25	-0.00016058025	300333.84	615453.2	-0.0003283776
0	0.65404755	0.6540468	-4.8523413e-10	0.06618514	0.06618514	0	161830.06	161829.86	-0.00011870217	615526.94	300139.12	-0.0003680716	300139.72	615526.4	-0.0002886836
0	0.653961	0.65396017	-2.8563427e-10	0.066043824	0.066043824	0	161808.64	161808.44	-7.2385206e-05	615599.8	299945	-0.00025259814	299945.62	615599.25	-0.00012269053
0	0.6538748	0.653874	-2.839136e-10	0.06590227	0.06590227	0	161787.31	161787.11	-7.142857e-05	615671.9	299752.28	-0.00016960161	299752.88	615671.3	-0.00022733834
0	0.6537866	0.6537858	-1.6002402e-10	0.06576097	0.06576097	0	161765.5	161765.28	-4.0935905e-05	615745.94	299554.75	-0.00014795034	299555.38	615745.4	-9.743072e-05
0	0.6536999	0.6536991	-2.0820329e-10	0.065619476	0.06561947	0	161744.05	161743.83	-5.5006378e-05	615818.44	299360.78	-0.000111864894	299361.4	615817.94	-0.00014073326
0	0.6536115	0.65361065	-5.127651e-10	0.06547816	0.06547816	0	161722.16	161721.95	-0.00012340561	615891.9	299163.6	-0.00033198614	299164.2	615891.4	-0.00038972287
0	0.6535242	0.65352327	-6.8827535e-12	0.0653367	0.0653367	0	161700.55	161700.34	1.9132654e-06	615965.06	298968.1	4.330254e-05	298968.72	615964.56	-3.2476906e-05
0	0.6534365	0.65343565	-3.5962386e-10	0.06519521	0.06519521	0	161678.86	161678.66	-8.868782e-05	616037.44	298772.97	-0.00025259814	298773.56	616036.94	-0.00025259814
0	0.6533479	0.65334696	-2.7014807e-10	0.0650539	0.0650539	0	161656.92	161656.72	-7.079082e-05	616111.56	298574.8	-0.00012810335	298575.47	616110.94	-0.00026342378
0	0.65326005	0.6532593	-2.5810326e-10	0.06491236	0.06491235	0	161635.2	161635	-6.3536354e-05	616184.7	298378.75	-0.00022733834	298379.4	616184.2	-0.00014795034
0	0.6531718	0.65317094	-2.0820329e-10	0.06477103	0.064771034	0	161613.36	161613.14	-4.8549107e-05	616257.6	298182.16	-0.00012990762	298182.78	616257.1	-0.00019846998
0	0.65308267	0.6530818	-2.1336535e-10	0.06462956	0.06462956	0	161591.31	161591.11	-4.9107144e-05	616331.1	297983.94	-0.00011908199	297984.6	616330.56	-0.0001515589
0	0.6529935	0.65299267	-5.8331334e-10	0.06448809	0.06448809	0	161569.27	161569.05	-0.00015114796	616404.3	297786	-0.00037348442	297786.66	616403.7	-0.0004979792
0	0.65290445	0.6529035	-1.7206883e-11	0.06434676	0.06434676	0	161547.2	161547	-6.138393e-06	616477.8	297587.75	-0.00010103926	297588.4	616477.1	4.330254e-05
0	0.6528152	0.6528143	-2.1680674e-10	0.06420529	0.06420529	0	161525.14	161524.9	-4.815051e-05	616551.7	297388.97	-0.00018042725	297389.6	616551.1	-0.00012269053
0	0.6527261	0.6527253	-1.772309e-10	0.06406391	0.06406391	0	161503.1	161502.88	-4.185268e-05	616625.1	297190.84	-3.2476906e-05	297191.47	616624.56	-0.00019846998
0	0.6526372	0.65263635	-1.2388957e-10	0.06392241	0.063922405	0	161481.08	161480.88	-2.7543048e-05	616697.94	296993.53	-0.00011366917	296994.2	616697.3	-6.495381e-05
0	0.6525462	0.65254533	-2.7531014e-10	0.063781105	0.063781105	0	161458.58	161458.36	-6.114477e-05	616772.4	296791.75	-0.00023996824	296792.34	616771.75	-0.00011547344
0	0.6524566	0.6524556	-4.3533416e-10	0.06363964	0.06363964	0	161436.38	161436.16	-0.00010993303	616845.94	296592.47	-0.00030672632	296593.12	616845.4	-0.0002886836
0	0.65236646	0.6523656	-1.8583435e-10	0.06349814	0.06349814	0	161414.11	161413.88	-4.408482e-05	616919.25	296393.2	-0.00014795034	296393.8	616918.6	-8.660508e-05
0	0.65227526	0.65227437	-1.5314126e-10	0.06335683	0.06335683	0	161391.55	161391.31	-3.491709e-05	616993.4	296191.28	-6.1345265e-05	296191.97	616992.75	-0.00012629907
0	0.65218496	0.65218407	-3.5790318e-10	0.06321529	0.06321529	0	161369.2	161368.98	-8.80102e-05	617067.25	295991.06	-0.00022553407	295991.7	617066.7	-0.00029590068
0	0.65209466	0.65209377	-2.684274e-10	0.06307396	0.06307396	0	161346.83	161346.64	-6.8000634e-05	617140.5	295791.3	-0.00017321017	295791.94	617139.94	-0.00022012125
0	0.6520028	0.65200204	-2.7014807e-10	0.0629325	0.06293249	0	161324.14	161323.92	-6.513074e-05	617214.75	295588.56	-0.00019305716	295589.25	617214.1	-0.00018042725
0	0.6519118	0.6519109	1.9443779e-10	0.06279103	0.06279103	0	161301.6	161301.39	4.40051e-05	617288.75	295387.16	0.00018584006	295387.8	617288.2	9.743072e-05
0	0.6518203	0.6518194	-4.026411e-10	0.06264969	0.06264969	0	161278.97	161278.75	-0.00010395408	617362.5	295185.28	-0.0003085306	295185.94	617361.9	-0.00026342378
0	0.6517278	0.6517269	-1.0840337e-10	0.062508225	0.062508225	0	161256.1	161255.86	-3.0293368e-05	617436.5	294981.78	-4.6911086e-05	294982.44	617435.94	-9.743072e-05
0	0.6516373	0.6516364	-1.6518609e-10	0.06236684	0.06236684	0	161233.69	161233.47	-3.9461098e-05	617510	294781.56	-0.00010645208	294782.22	617509.44	-0.00012990762
0	0.651545	0.6515441	-1.4281713e-10	0.062225346	0.062225346	0	161210.84	161210.62	-3.4438777e-05	617584	294578.38	-1.0825635e-05	294579.06	617583.4	-0.0001443418
0	0.65145177	0.65145093	-2.3057224e-10	0.062084038	0.062084038	0	161187.78	161187.56	-5.4209184e-05	617658.75	294373.06	-0.0001443418	294373.75	617658.2	-0.0001768187
0	0.65135986	0.65135896	-2.3229293e-11	0.061942577	0.061942577	0	161165.05	161164.83	-2.7104593e-06	617732.6	294170.56	-1.8042725e-06	294171.22	617732	-3.608545e-05
0	0.65126705	0.65126616	-1.9443779e-10	0.06180108	0.061801083	0	161142.08	161141.84	-4.4642857e-05	617806.56	293966.62	-0.0001641888	293967.28	617806	-5.773672e-05
0	0.6511737	0.65117276	-3.4413766e-10	0.061659772	0.061659772	0	161118.98	161118.75	-8.4980864e-05	617881.2	293761.34	-0.00025079388	293762	617880.6	-0.00022012125
0	0.6510806	0.65107965	-2.0820329e-10	0.06151823	0.061518237	0	161095.92	161095.7	-5.2694515e-05	617955.4	293556.78	-0.00017321017	293557.4	617954.75	-0.0001515589
0	0.6509867	0.65098584	-4.4049622e-10	0.061376892	0.061376892	0	161072.7	161072.48	-0.00010905612	618029.94	293350.72	-0.00029950924	293351.34	618029.4	-0.00031755195
0	0.65089446	0.65089357	-3.561825e-10	0.06123543	0.06123543	0	161049.89	161049.66	-8.80102e-05	618103.8	293147.72	-0.00012810335	293148.4	618103.2	-0.0003608545
0	0.6508001	0.6507992	-3.3037217e-10	0.061093967	0.061093967	0	161026.53	161026.31	-8.2350125e-05	618177.94	292941.47	-0.00018042725	292942.16	618177.3	-0.00026703233
0	0.6507063	0.6507054	-3.9231696e-10	0.060952656	0.060952656	0	161003.33	161003.12	-9.367028e-05	618252.9	292735.34	-0.0002886836	292736	618252.25	-0.00022733834
0	0.6506113	0.65061027	0	0.060811166	0.060811166	0	160979.81	160979.58	2.3915817e-07	618327.5	292527.53	7.758372e-05	292528.25	618326.94	-6.1345265e-05
0	0.6505174	0.6505164	-3.2004804e-10	0.060669772	0.060669776	0	160956.58	160956.34	-7.6092154e-05	618402.4	292321.22	-0.00029229216	292321.9	618401.75	-0.00010103926
0	0.6504228	0.650422	-5.4029614e-10	0.060528316	0.060528316	0	160933.2	160932.97	-0.00013520409	618476.9	292114.44	-0.00038972287	292115.12	618476.2	-0.00040415704
0	0.6503283	0.65032727	-3.7338937e-10	0.060386974	0.060386974	0	160909.78	160909.55	-9.5663265e-05	618551.25	291907.62	-0.00023094688	291908.3	618550.5	-0.0003211605
0	0.650233	0.6502322	-2.529412e-10	0.06024551	0.06024551	0	160886.23	160886.02	-6.361607e-05	618625.8	291699.72	-7.577945e-05	291700.4	618625.25	-0.00026342378
0	0.6501379	0.65013695	-1.4109644e-10	0.060104053	0.06010405	0	160862.69	160862.45	-2.997449e-05	618700.44	291491.88	-0.0001768187	291492.6	618699.9	-2.165127e-05
0	0.6500423	0.65004134	-4.3533416e-10	0.059962712	0.059962712	0	160839.02	160838.8	-0.000108976405	618775.44	291283.1	-0.0003662673	291283.78	618774.8	-0.00023455542
0	0.649947	0.6499461	-2.5638255e-10	0.059821166	0.059821166	0	160815.45	160815.23	-6.281888e-05	618849.8	291075.3	-0.00020929561	291076.03	618849.2	-0.00017321017
0	0.64985096	0.64985013	-1.2388957e-10	0.05967986	0.05967986	0	160791.7	160791.48	-3.2764667e-05	618924.25	290866.56	-5.2323903e-05	290867.16	618923.7	-0.00012990762
0	0.64975435	0.64975345	-9.463786e-11	0.059538368	0.059538364	0	160767.8	160767.56	-2.1285077e-05	618999.25	290656.2	3.4281176e-05	290656.88	618998.7	-0.00016238453
0	0.64965796	0.649657	1.2044818e-11	0.059396908	0.059396908	0	160743.92	160743.7	3.507653e-06	619074.3	290446.1	-6.1345265e-05	290446.75	619073.75	0.00010103926
0	0.64956164	0.64956063	-2.494998e-10	0.059255596	0.059255596	0	160720.1	160719.88	-5.8673468e-05	619148.9	290236.6	-0.0002363597	290237.3	619148.3	-6.856235e-05
0	0.6494648	0.64946383	-7.9151664e-11	0.059114102	0.059114102	0	160696.16	160695.9	-2.1683674e-05	619223.6	290026.47	1.8042725e-05	290027.12	619223	-0.00011908199
0	0.64936805	0.6493671	-2.8735495e-10	0.058972713	0.058972713	0	160672.2	160671.97	-7.142857e-05	619299.25	289815.28	-0.00024718532	289816.03	619298.6	-0.0001768187
0	0.64927083	0.6492699	-2.804722e-10	0.058831252	0.058831252	0	160648.16	160647.94	-7.2146046e-05	619374.25	289604.16	-0.00021651271	289604.88	619373.75	-0.00017321017
0	0.64917344	0.64917254	-1.8239296e-10	0.058689907	0.0586899	0	160624.08	160623.84	-4.2330994e-05	619449.25	289392.94	-0.00010103926	289393.6	619448.6	-9.743072e-05
0	0.6490757	0.6490748	-4.3361348e-10	0.05854845	0.05854845	0	160599.88	160599.64	-0.00010578763	619524.6	289180.72	-0.00025259814	289181.38	619524	-0.0003283776
0	0.64897776	0.6489769	-3.3037217e-10	0.058406986	0.058406986	0	160575.67	160575.42	-8.490115e-05	619599.94	288968.38	-0.0002616195	288969.03	619599.3	-0.00019846998
0	0.64888	0.6488791	-1.462585e-10	0.05826565	0.05826565	0	160551.44	160551.2	-4.2171556e-05	619674.8	288756.47	-0.00011547344	288757.2	619674.2	-0.00011908199
0	0.64878136	0.64878047	-3.0456185e-10	0.058124106	0.058124106	0	160527.06	160526.83	-7.716837e-05	619750.1	288543.16	-9.743072e-05	288543.88	619749.44	-0.0003283776
0	0.6486827	0.64868176	-4.112445e-10	0.05798278	0.05798278	0	160502.62	160502.39	-0.00010291773	619825.6	288329.53	-0.00023455542	288330.2	619824.9	-0.0003680716
0	0.6485843	0.64858335	-1.6518609e-10	0.05784131	0.05784131	0	160478.28	160478.06	-4.3207907e-05	619900.3	288117.03	-0.0001244948	288117.72	619899.75	-0.000111864894
0	0.64848506	0.6484842	-6.8827534e-11	0.057699848	0.057699848	0	160453.75	160453.53	-1.698023e-05	619975.7	287902.8	-0.0001443418	287903.5	619975.06	7.21709e-05
0	0.64838624	0.64838535	-3.252101e-10	0.05755853	0.05755853	0	160429.28	160429.06	-7.174745e-05	620050.94	287689.12	-0.00017321017	287689.84	620050.3	-0.00023816398
0	0.6482863	0.6482854	-4.0952383e-10	0.05741706	0.05741706	0	160404.55	160404.31	-9.9808676e-05	620126.5	287473.6	-0.00023455542	287474.25	620125.9	-0.00034281178
0	0.64818674	0.6481858	-1.7551022e-10	0.057275645	0.057275645	0	160379.92	160379.67	-4.655612e-05	620201.44	287259.3	-9.743072e-05	287260.06	620200.8	-0.00016599307
0	0.64808774	0.6480868	-1.1184474e-10	0.05713419	0.057134192	0	160355.42	160355.19	-2.6785714e-05	620276.7	287045.38	-0.00011366917	287046.06	620276.1	-5.4128177e-05
0	0.64798725	0.6479863	-1.1528612e-10	0.056992844	0.056992844	0	160330.55	160330.31	-2.6945154e-05	620352.9	286828.6	-2.886836e-05	286829.28	620352.2	-9.382217e-05
0	0.647886	0.647885	-5.6782717e-11	0.056851387	0.056851387	0	160305.52	160305.27	-1.426977e-05	620428.44	286611.22	-4.1498268e-05	286611.94	620427.8	-3.2476906e-05
0	0.6477855	0.6477846	-1.2044818e-10	0.056709927	0.05670993	0	160280.64	160280.42	-2.7024873e-05	620504.1	286394.78	-8.2996536e-05	286395.47	620503.56	-9.021362e-05
0	0.6476856	0.6476845	-4.8179273e-11	0.056568585	0.056568585	0	160255.89	160255.67	-1.1798469e-05	620579.75	286179.22	3.0672632e-05	286179.9	620579.1	-5.051963e-05
0	0.64758414	0.6475831	-2.3057224e-10	0.056427047	0.056427047	0	160230.81	160230.56	-5.739796e-05	620655.2	285961.84	-0.000111864894	285962.62	620654.56	-0.00020929561
0	0.64748245	0.64748156	-3.2865147e-10	0.05628571	0.05628571	0	160205.67	160205.45	-8.195153e-05	620731.75	285743.2	-0.00022192553	285743.88	620731.06	-0.0002489896
0	0.6473822	0.6473812	-2.2368948e-10	0.05614424	0.05614424	0	160180.86	160180.61	-5.3571428e-05	620806.6	285527.78	-0.00011908199	285528.5	620806	-0.00020929561
0	0.64727974	0.64727867	-3.1316527e-10	0.056002792	0.056002792	0	160155.48	160155.22	-7.3820156e-05	620882.6	285308.2	-0.00017501443	285308.94	620882	-0.00023816398
0	0.6471776	0.6471766	-9.463786e-11	0.05586147	0.05586147	0	160130.22	160129.97	-2.2321428e-05	620958.06	285089.9	0.00011727771	285090.6	620957.4	-0.00023455542
0	0.64707613	0.6470751	-2.8563427e-10	0.055719994	0.055719994	0	160105.11	160104.86	-6.792092e-05	621034.06	284871.8	-0.00017140589	284872.53	621033.4	-0.00023816398
0	0.6469724	0.6469715	-2.4605842e-10	0.055578664	0.055578664	0	160079.47	160079.25	-5.978954e-05	621110.4	284650.38	-0.00016960161	284651.1	621109.8	-0.00016238453
0	0.6468704	0.64686936	-1.479792e-10	0.055437125	0.055437125	0	160054.22	160053.98	-3.930166e-05	621186.75	284431.06	-2.5259815e-05	284431.8	621186.06	-0.0001768187
0	0.6467678	0.6467667	-2.357343e-10	0.05529578	0.05529578	0	160028.81	160028.58	-5.6441328e-05	621262.3	284211.78	-0.00018042725	284212.56	621261.6	-0.00012269053
0	0.64666516	0.6466642	-7.9151664e-11	0.055154327	0.055154327	0	160003.45	160003.17	-2.2959184e-05	621337.94	283992.6	-6.856235e-05	283993.34	621337.25	-5.051963e-05
0	0.6465607	0.6465596	-8.087235e-11	0.05501287	0.05501287	0	159977.58	159977.33	-2.1364796e-05	621413.94	283770.2	-7.21709e-06	283770.9	621413.4	-0.000108256354
0	0.64645725	0.6464563	-3.716687e-10	0.054871522	0.054871522	0	159952	159951.77	-9.04815e-05	621490.3	283549.16	-0.00021651271	283549.88	621489.7	-0.00029590068
0	0.64635354	0.6463526	-2.2885155e-10	0.05473008	0.05473008	0	159926.33	159926.1	-5.835459e-05	621566.5	283327.8	-0.000108256354	283328.56	621565.8	-0.00022733834
0	0.6462501	0.6462492	4.3017208e-11	0.05458865	0.05458865	0	159900.75	159900.52	1.5385842e-05	621642.56	283106.94	1.0825635e-05	283107.7	621641.9	7.21709e-05
0	0.64614606	0.64614505	-2.5810326e-10	0.054447185	0.054447185	0	159875.02	159874.75	-5.883291e-05	621718.3	282885.47	-0.0001840358	282886.22	621717.56	-0.00013351617
0	0.64604044	0.64603937	-4.6630655e-10	0.054305855	0.054305855	0	159848.84	159848.61	-0.00011639031	621794.94	282660.9	-0.0003013135	282661.62	621794.25	-0.00033920322
0	0.64593667	0.6459358	-6.9859946e-10	0.054164406	0.054164406	0	159823.19	159822.97	-0.00017378827	621871.06	282439.6	-0.00049437064	282440.34	621870.44	-0.0005051963
0	0.64583105	0.64583004	-3.5274111e-10	0.054022938	0.054022938	0	159797.06	159796.83	-9.0561225e-05	621947.3	282215.47	-0.00029590068	282216.22	621946.7	-0.00019486144
0	0.6457256	0.6457246	-2.0132054e-10	0.0538816	0.0538816	0	159770.98	159770.7	-4.9904338e-05	622023.6	281991.56	-0.00012269053	281992.3	622022.94	-0.00018042725
0	0.6456205	0.64561945	-1.9271709e-10	0.05374007	0.05374007	0	159744.95	159744.7	-5.1179846e-05	622099.8	281768.03	-0.00015877598	281768.75	622099.1	-0.0001443418
0	0.64551413	0.6455132	-8.6034416e-11	0.05359871	0.05359871	0	159718.66	159718.4	-1.7299108e-05	622176.75	281542.34	-0.00014795034	281543.12	622176.06	4.6911086e-05
0	0.64540917	0.64540815	-1.8411365e-10	0.05345726	0.053457264	0	159692.67	159692.42	-4.0816325e-05	622253.1	281319	-7.577945e-05	281319.72	622252.44	-0.00016599307
0	0.64530295	0.6453019	-1.9615848e-10	0.05331583	0.05331583	0	159666.39	159666.14	-4.7273596e-05	622329.56	281093.78	-0.0001244948	281094.56	622328.9	-0.00014795034
0	0.64519656	0.6451956	-7.39896e-11	0.053174462	0.053174462	0	159640.08	159639.81	-1.817602e-05	622405.75	280868.72	9.382217e-05	280869.47	622405.1	-0.0001840358
0	0.64508975	0.6450888	-4.9727894e-10	0.053033024	0.053033024	0	159613.66	159613.39	-0.000120216835	622482.06	280642.94	-0.00025981525	280643.7	622481.3	-0.00046550232
0	0.6449827	0.6449816	-4.422169e-10	0.052891586	0.052891586	0	159587.14	159586.88	-0.00010905612	622558.7	280416.28	-0.0002562067	280417.06	622558	-0.0004005485
0	0.6448759	0.6448749	-4.3705484e-10	0.052750118	0.052750126	0	159560.72	159560.47	-0.00010794005	622635.4	280190.16	-0.00035724597	280190.94	622634.6	-0.0002742494
0	0.6447677	0.6447668	-3.6306524e-10	0.052608777	0.052608777	0	159533.97	159533.72	-9.2793365e-05	622712	279962.16	-0.00019486144	279962.94	622711.4	-0.00031755195
0	0.64466023	0.6446592	-2.7014807e-10	0.05246734	0.052467346	0	159507.36	159507.1	-6.7841196e-05	622788.4	279735.2	-0.00026522807	279735.97	622787.75	-0.00012990762
0	0.6445521	0.64455104	-5.8331334e-10	0.052325882	0.052325882	0	159480.6	159480.34	-0.00014540816	622865.25	279506.88	-0.00038250576	279507.62	622864.56	-0.00042219978
0	0.64444435	0.64444333	-1.6002402e-10	0.05218454	0.05218454	0	159453.95	159453.69	-3.786671e-05	622942	279279.38	-0.00012990762	279280.2	622941.25	-5.773672e-05
0	0.6443356	0.64433455	-1.5486196e-10	0.052043002	0.052043002	0	159427.02	159426.77	-3.778699e-05	623018.9	279050.16	-0.00020568707	279050.9	623018.1	-1.443418e-05
0	0.644227	0.64422596	-3.9575832e-11	0.051901635	0.051901635	0	159400.17	159399.92	-1.4748087e-05	623096.2	278820.9	-5.9540995e-05	278821.7	623095.5	-2.165127e-05
0	0.64411867	0.6441177	-1.2216887e-10	0.0517602	0.0517602	0	159373.38	159373.12	-3.0293368e-05	623172.5	278592.97	-3.9693994e-05	278593.75	623171.9	-0.000111864894
0	0.64400905	0.64400804	-4.2328935e-10	0.051618766	0.051618766	0	159346.25	159345.98	-0.00010044643	623249.25	278362.62	-0.0002742494	278363.4	623248.56	-0.00028146652
0	0.64389974	0.6438986	-3.1660666e-10	0.05147742	0.05147742	0	159319.19	159318.94	-7.8443874e-05	623325.8	278132.97	-0.00025259814	278133.75	623325.1	-0.0001768187
0	0.6437897	0.64378864	-1.4969989e-10	0.05133596	0.05133596	0	159291.94	159291.7	-4.288903e-05	623403.2	277901.56	-0.00019846998	277902.34	623402.44	-4.330254e-05
0	0.6436805	0.64367944	-2.3057224e-10	0.051194515	0.051194515	0	159264.95	159264.72	-5.7557398e-05	623479.8	277672.16	-0.00015516744	277672.88	623479.06	-0.00019486144
0	0.6435709	0.6435698	-4.267307e-10	0.05105309	0.05105309	0	159237.81	159237.56	-0.00010786033	623556.25	277442.22	-0.00027064088	277443.03	623555.5	-0.00035002886
0	0.6434593	0.64345837	-3.3037217e-10	0.050911706	0.050911706	0	159210.25	159209.98	-7.940051e-05	623634	277208.38	-0.00021831697	277209.2	623633.25	-0.00020929561
0	0.6433487	0.6433476	-2.2713087e-10	0.05077028	0.05077028	0	159182.86	159182.58	-5.723852e-05	623711.56	276975.8	-0.0001515589	276976.6	623710.9	-0.00016238453
0	0.6432385	0.6432374	-4.0780315e-10	0.050628845	0.050628845	0	159155.6	159155.31	-9.805485e-05	623787.94	276745.16	-0.00032657332	276745.94	623787.2	-0.00023816398
0	0.64312714	0.6431261	-1.9443779e-10	0.050487474	0.050487474	0	159128.03	159127.77	-4.6157526e-05	623865.1	276512	-8.840935e-05	276512.8	623864.44	-0.00018042725
0	0.6430158	0.64301467	-4.1296522e-11	0.050345946	0.050345946	0	159100.45	159100.2	-8.529974e-06	623941.94	276279.22	5.5932447e-05	276280.06	623941.3	-0.00012990762
0	0.6429036	0.64290255	-3.0456185e-10	0.05020459	0.05020459	0	159072.75	159072.48	-7.6211734e-05	624019.1	276045.3	-0.00022012125	276046.1	624018.3	-0.00022372979
0	0.64279133	0.64279026	-1.7551022e-10	0.050063137	0.050063137	0	159044.95	159044.67	-4.9744896e-05	624096.94	275810.2	-0.0001641888	275810.97	624096.2	-9.743072e-05
0	0.64267987	0.6426787	-2.8907565e-10	0.04992171	0.04992171	0	159017.34	159017.08	-6.919643e-05	624173.94	275576.97	-0.00025981525	275577.75	624173.25	-0.0001443418
0	0.6425677	0.6425667	-3.8027212e-10	0.049780354	0.049780354	0	158989.61	158989.34	-0.000100765305	624250.75	275343.25	-0.00027064088	275344.1	624250	-0.00031033487
0	0.64245397	0.64245296	-3.5962386e-10	0.049638905	0.049638905	0	158961.47	158961.2	-8.450255e-05	624328.7	275106.2	-0.00031033487	275106.97	624327.9	-0.00019486144
0	0.6423418	0.6423407	-1.3937576e-10	0.049497455	0.049497455	0	158933.72	158933.44	-3.252551e-05	624405.44	274872.22	-0.00019125288	274873.03	624404.75	7.21709e-06
0	0.64222825	0.6422272	-3.544618e-10	0.04935602	0.04935602	0	158905.61	158905.33	-8.896684e-05	624482.6	274636.03	-0.0003608545	274636.84	624481.94	-0.00018764434
0	0.64211434	0.64211327	-4.938376e-10	0.04921464	0.04921464	0	158877.44	158877.16	-0.00011973852	624560.3	274398.9	-0.00034010538	274399.72	624559.6	-0.00034642033
0	0.64200056	0.64199954	-4.439376e-10	0.04907321	0.04907321	0	158849.28	158849.02	-0.00011383928	624638	274161.97	-0.00029139002	274162.72	624637.3	-0.00031755195
0	0.6418871	0.641886	-1.0840337e-10	0.04893179	0.04893179	0	158821.2	158820.92	-2.614796e-05	624715.1	273925.9	-5.322604e-05	273926.75	624714.44	-7.938799e-05
0	0.64177257	0.64177144	-3.269308e-10	0.048790418	0.048790418	0	158792.89	158792.61	-8.227041e-05	624792.3	273688.6	-0.00020749134	273689.44	624791.5	-0.00021290415
0	0.6416583	0.6416572	-3.1316527e-10	0.048648883	0.048648883	0	158764.58	158764.3	-7.804528e-05	624870.06	273450.72	-0.00019215503	273451.5	624869.25	-0.00023455542
0	0.64154303	0.6415419	-2.9767908e-10	0.04850753	0.04850753	0	158736.08	158735.8	-6.983418e-05	624947.56	273211.9	-0.00014975462	273212.72	624946.8	-0.00023816398
0	0.6414279	0.6414268	-4.1296522e-10	0.048366077	0.048366077	0	158707.58	158707.3	-0.00010267857	625025.2	272973	-0.0002886836	272973.84	625024.44	-0.00026342378
0	0.64131266	0.6413115	-5.4029614e-10	0.048224654	0.04822465	0	158679.08	158678.8	-0.0001324139	625102.94	272734.06	-0.00035002886	272734.9	625102.1	-0.00039693995
0	0.6411974	0.64119637	-3.5962386e-10	0.04808329	0.04808329	0	158650.56	158650.3	-9.215561e-05	625180	272495.62	-0.0002688366	272496.4	625179.25	-0.00024538106
0	0.64108104	0.6410799	-6.9171674e-10	0.04794185	0.04794185	0	158621.77	158621.48	-0.00017665817	625257.44	272255.22	-0.0005737587	272256.03	625256.6	-0.00041498267
0	0.64096487	0.6409638	-1.342137e-10	0.047800384	0.047800384	0	158593.03	158592.75	-3.284439e-05	625335.7	272014.38	-0.00011366917	272015.2	625335.06	-9.382217e-05
0	0.64084864	0.64084756	-3.544618e-10	0.047658965	0.047658965	0	158564.28	158563.98	-8.737245e-05	625413.2	271774.06	-0.00037889724	271774.9	625412.44	-0.0001371247
0	0.6407321	0.640731	-3.9575832e-10	0.04751758	0.04751758	0	158535.44	158535.16	-9.5424104e-05	625490.7	271533.44	-0.00040505917	271534.28	625490	-0.00015877598
0	0.6406143	0.64061314	-2.64986e-10	0.047376156	0.047376156	0	158506.28	158505.98	-6.409439e-05	625568.7	271290.44	-0.00019125288	271291.3	625568	-0.00014795034
0	0.6404977	0.64049655	-2.3401361e-10	0.047234733	0.047234733	0	158477.45	158477.14	-5.699936e-05	625646.4	271049.6	-0.00027785797	271050.44	625645.6	-7.938799e-05
0	0.6403797	0.6403786	-4.577031e-10	0.047093347	0.047093347	0	158448.23	158447.95	-0.000115114795	625724.3	270806.44	-0.0003184541	270807.28	625723.6	-0.00032476906
0	0.6402623	0.6402612	-4.0608245e-10	0.046951823	0.046951823	0	158419.19	158418.9	-9.8533164e-05	625802	270564.34	-0.00032657332	270565.2	625801.3	-0.00024177252
0	0.6401441	0.640143	-4.2156864e-10	0.046810463	0.046810463	0	158389.95	158389.67	-0.00010299745	625879.8	270321.2	-0.0002363597	270322.06	625879.06	-0.00033198614
0	0.64002514	0.64002407	-2.0304122e-10	0.04666902	0.04666902	0	158360.53	158360.23	-5.0382652e-05	625957.56	270076.9	-0.0001768187	270077.75	625956.75	-7.21709e-05
0	0.63990766	0.6399064	-2.0648261e-10	0.046527658	0.046527658	0	158331.4	158331.12	-5.086097e-05	626035.3	269834.53	-0.00016869948	269835.38	626034.44	-0.00010464781
0	0.6397883	0.63978714	-2.2713087e-10	0.046386234	0.046386234	0	158301.89	158301.62	-5.835459e-05	626113.56	269589.16	-0.00022012125	269590	626112.8	-0.000111864894
0	0.6396688	0.63966775	-1.3937576e-10	0.0462448	0.0462448	0	158272.36	158272.08	-3.1887754e-05	626191.6	269344.03	-5.5932447e-05	269344.9	626190.75	-0.000108256354
0	0.63954955	0.6395484	-1.4281713e-10	0.04610342	0.04610342	0	158242.84	158242.55	-4.0816325e-05	626269.5	269099.06	-0.0001344183	269099.94	626268.6	-8.660508e-05
0	0.63942945	0.6394283	-3.5102043e-10	0.045961898	0.045961898	0	158213.12	158212.83	-8.816964e-05	626347.44	268852.97	-0.00023004475	268853.8	626346.7	-0.0003031178
0	0.6393103	0.6393091	-3.1660666e-10	0.045820512	0.045820512	0	158183.64	158183.34	-7.948023e-05	626425.1	268608.47	-0.0003085306	268609.38	626424.4	-0.00012269053
0	0.6391897	0.6391886	-5.1620652e-11	0.0456791	0.045679096	0	158153.8	158153.52	-1.1399872e-05	626503.3	268361.5	-5.4128177e-05	268362.34	626502.5	-7.21709e-06
0	0.63906866	0.63906753	3.9575832e-11	0.045537677	0.045537677	0	158123.83	158123.55	1.0044643e-05	626581.25	268114	3.4281176e-05	268114.88	626580.5	3.608545e-06
0	0.63894814	0.6389469	-5.437375e-10	0.045396283	0.045396283	0	158094.02	158093.75	-0.00013360969	626659.44	267867.1	-0.00049346854	267867.97	626658.7	-0.00026703233
0	0.6388272	0.6388261	-6.5386155e-11	0.04525487	0.04525487	0	158064.11	158063.83	-1.8654337e-05	626737.4	267619.9	-9.382217e-05	267620.75	626736.6	-2.165127e-05
0	0.63870513	0.63870394	-3.1832734e-10	0.045113385	0.045113385	0	158033.9	158033.61	-8.2589286e-05	626815.5	267370.78	-0.00026342378	267371.66	626814.75	-0.00018042725