//mumax 3.10 [windows_amd64 go1.11.6(gc) CUDA-11.0]
//GPU info: NVIDIA GeForce RTX 3090(24575MB), CUDA Driver 12.0, cc=8.6, using cc=80 PTX
//(c) Arne Vansteenkiste, Dynamat LAB, Ghent University, Belgium
//This is free software without any warranty. See license.txt
//********************************************************************//
//  If you use mumax in any work or publication,                      //
//  we kindly ask you to cite the references in references.bib        //
//********************************************************************//
//output directory: r1;p0.1;a5.12e-07;l2.3000000000000002e-07;s2.out/
randSeed(2)
ThermSeed(2)
resolution := 2e-09
zResolution := 5e-09
a := 5.12e-07
gridSize := 512
gridDepth := 5
SetCellsize(resolution, resolution, zResolution)
SetGridsize(gridSize, gridSize, gridDepth)
SetPBC(16, 16, 0)
//resizing...
Msat = 700e3
Aex = 13e-12
alpha = 0.2
Bmax := 0.1
Bstep := Bmax / 500.0
TableAdd(B_ext)
TableAdd(m_full)
islandWidth := 8e-08
islandLength := 2.3000000000000002e-07
ellipseConstant := 1.1500000000000002e-08
hIsland := rect(islandLength-2*ellipseConstant, islandWidth)
hIsland = hIsland.add(ellipse(ellipseConstant*2, islandWidth).transl(islandLength/2-ellipseConstant, 0, 0))
hIsland = hIsland.add(ellipse(ellipseConstant*2, islandWidth).transl(-islandLength/2+ellipseConstant, 0, 0))
hIsland = hIsland.sub(rect(1e-08, -1.2840397004002633e-10).transl(-3.897123498716408e-08, -4e-08, 0))
hIsland = hIsland.sub(rect(1e-08, -3.0058037625497188e-09).transl(-9.823362926901016e-08, -4e-08, 0))
hIsland = hIsland.sub(rect(1e-08, -1.314465812046691e-09).transl(-1.4971325960165086e-08, -4e-08, 0))
hIsland = hIsland.add(rect(1e-08, 2.5184020272662533e-09).transl(1.5109451914054722e-08, -4e-08, 0))
hIsland = hIsland.add(rect(1e-08, 7.317000965393491e-09).transl(-2.4085678500322382e-08, -4e-08, 0))
hIsland = hIsland.sub(rect(1e-08, -5.241767407475452e-09).transl(6.930899812944987e-08, -4e-08, 0))
hIsland = hIsland.add(rect(1e-08, 2.6683944632119354e-10).transl(-7.694666053901111e-08, -4e-08, 0))
hIsland = hIsland.add(rect(1e-08, 3.1548024365083602e-09).transl(-4.607769772516159e-08, -4e-08, 0))
hIsland = hIsland.add(rect(1e-08, 3.879291694951332e-09).transl(1.0217776631320796e-07, -4e-08, 0))
hIsland = hIsland.sub(rect(1e-08, -4.3960526204496364e-10).transl(8.740404425152424e-08, -4e-08, 0))
hIsland = hIsland.add(rect(1e-08, 2.6648592997749535e-09).transl(4.7936247820082936e-08, -4e-08, 0))
hIsland = hIsland.sub(rect(1e-08, -3.0977727222010088e-09).transl(5.6008166254063987e-08, -4e-08, 0))
hIsland = hIsland.sub(rect(1e-08, -1.8670543652601586e-09).transl(-7.509854930932217e-08, -4e-08, 0))
hIsland = hIsland.add(rect(1e-08, 1.9578528149570805e-09).transl(1.1281849475864166e-07, -2.344039598707255e-08, 0))
hIsland = hIsland.add(rect(1e-08, 1.208853135057717e-09).transl(2.4173180974114206e-08, -4e-08, 0))
hIsland = hIsland.add(rect(1e-08, 1.8467928800691699e-09).transl(-2.7120787889363647e-08, -4e-08, 0))
hIsland = hIsland.sub(rect(1e-08, -4.980660428128843e-09).transl(-6.523364864771255e-09, -4e-08, 0))
hIsland = hIsland.add(rect(1e-08, 3.0900595645949106e-09).transl(-8.008337957540461e-08, -4e-08, 0))
hIsland = hIsland.add(rect(1e-08, 4.6335300698464545e-09).transl(-7.860471331298166e-08, -4e-08, 0))
hIsland = hIsland.add(rect(1e-08, 8.298825040930001e-09).transl(7.634478868304921e-08, -4e-08, 0))
hIsland = hIsland.add(rect(1e-08, 6.82914584182704e-09).transl(-4.02315573439202e-08, -4e-08, 0))
hIsland = hIsland.sub(rect(1e-08, -3.872903681677391e-09).transl(1.9250356462907434e-08, -4e-08, 0))
hIsland = hIsland.sub(rect(1e-08, -4.788652017065133e-09).transl(4.54793305366119e-08, -4e-08, 0))
hIsland = hIsland.sub(rect(1e-08, -2.5998826692647084e-09).transl(7.098754518675069e-08, -4e-08, 0))
hIsland = hIsland.sub(rect(1e-08, -3.874762696408123e-09).transl(2.141381033381331e-08, -4e-08, 0))
hIsland = hIsland.add(rect(1e-08, 2.7283054198467457e-09).transl(1.0660463194375152e-07, -3.851477184908503e-08, 0))
hIsland = hIsland.add(rect(1e-08, 1.3282026341958144e-10).transl(4.614383695529144e-08, -4e-08, 0))
hIsland = hIsland.sub(rect(1e-08, -7.444811328390229e-09).transl(7.005870428952898e-09, -4e-08, 0))
hIsland = hIsland.sub(rect(1e-08, -1.9704430441133797e-09).transl(1.087496178322761e-07, -3.5589172349711274e-08, 0))
hIsland = hIsland.add(rect(1e-08, 3.71656230053557e-09).transl(-3.310581617241395e-08, -4e-08, 0))
hIsland = hIsland.sub(rect(1e-08, -4.806008915288484e-09).transl(-3.187440365577156e-08, -4e-08, 0))
hIsland = hIsland.add(rect(1e-08, 1.7690750408476514e-09).transl(1.1352227698088959e-07, -1.9615653366843584e-08, 0))
hIsland = hIsland.add(rect(1e-08, 1.0190561364202623e-10).transl(2.7677151240117517e-08, -4e-08, 0))
hIsland = hIsland.add(rect(1e-08, 7.497752278511056e-09).transl(-7.906576225270607e-08, -4e-08, 0))
hIsland = hIsland.sub(rect(1e-08, -2.732243650496985e-09).transl(1.0565660690706355e-07, -3.929034712522643e-08, 0))
hIsland = hIsland.add(rect(1e-08, 2.7197032588043746e-09).transl(-1.099649977387009e-07, -3.3080766921681824e-08, 0))
hIsland = hIsland.sub(rect(1e-08, -5.022747629745765e-09).transl(-3.6908750229350843e-10, -4e-08, 0))
hIsland = hIsland.sub(rect(1e-08, -9.047629489292425e-10).transl(-5.505537989960002e-08, -4e-08, 0))
hIsland = hIsland.sub(rect(1e-08, -4.272398497572279e-09).transl(1.0564715808836016e-07, -3.929660749387102e-08, 0))
hIsland = hIsland.sub(rect(1e-08, -6.735608894040061e-10).transl(-8.688360921685236e-08, -4e-08, 0))
hIsland = hIsland.add(rect(1e-08, 6.636343226909192e-09).transl(6.524716094356193e-08, -4e-08, 0))
hIsland = hIsland.add(rect(1e-08, 6.83475780574745e-09).transl(1.6067558971747107e-08, -4e-08, 0))
hIsland = hIsland.sub(rect(1e-08, -8.161297921792908e-10).transl(-7.400902887302203e-08, -4e-08, 0))
hIsland = hIsland.add(rect(1e-08, 1.1716359332864861e-09).transl(-8.639880656434269e-08, -4e-08, 0))
hIsland = hIsland.add(rect(1e-08, 2.491000289530929e-09).transl(5.646072213992544e-08, -4e-08, 0))
hIsland = hIsland.sub(rect(1e-08, -1.0074216565950156e-09).transl(7.788204690929947e-08, -4e-08, 0))
hIsland = hIsland.add(rect(1e-08, 4.287105959691807e-09).transl(7.963687123854763e-08, -4e-08, 0))
hIsland = hIsland.add(rect(1e-08, 2.910610607374677e-09).transl(8.730662978246736e-08, -4e-08, 0))
hIsland = hIsland.sub(rect(1e-08, -6.310482088515888e-09).transl(-1.3743570071281868e-09, -4e-08, 0))
hIsland = hIsland.sub(rect(1e-08, -4.162993982988377e-09).transl(1.0401555155112165e-07, -3.9959784184076134e-08, 0))
hIsland = hIsland.sub(rect(1e-08, -6.379167390873227e-09).transl(4.7532117214161116e-08, -4e-08, 0))
hIsland = hIsland.add(rect(1e-08, 1.3178439072453776e-09).transl(4.728609692222803e-08, -4e-08, 0))
hIsland = hIsland.sub(rect(1e-08, -8.690410318350234e-10).transl(3.1413380800985027e-09, -4e-08, 0))
hIsland = hIsland.add(rect(1e-08, 2.0534380822007728e-09).transl(-4.760605826436611e-08, -4e-08, 0))
hIsland = hIsland.sub(rect(1e-08, -5.750408263133389e-10).transl(-1.0577509745563036e-07, -3.9209416957293884e-08, 0))
hIsland = hIsland.sub(rect(1e-08, -1.7558227352227853e-09).transl(7.725307606302277e-08, -4e-08, 0))
hIsland = hIsland.add(rect(1e-08, 2.4882255937491223e-09).transl(1.0717015480342476e-07, -3.790825078903789e-08, 0))
hIsland = hIsland.add(rect(1e-08, 2.0559096691768376e-09).transl(1.1343535566754428e-07, -2.0143517659668002e-08, 0))
hIsland = hIsland.sub(rect(1e-08, -2.1230252853120393e-09).transl(-8.176460158253653e-08, -4e-08, 0))
hIsland = hIsland.add(rect(1e-08, 1.4879356398471442e-09).transl(7.46295322974664e-08, -4e-08, 0))
hIsland = hIsland.sub(rect(1e-08, -2.6132564374344096e-09).transl(-6.492014257828952e-08, -4e-08, 0))
hIsland = hIsland.sub(rect(1e-08, -1.6978517796247143e-09).transl(-1.1199638699006551e-07, -2.6956276714745183e-08, 0))
hIsland = hIsland.add(rect(1e-08, 2.184698095422547e-09).transl(1.2342726710435126e-08, -4e-08, 0))
hIsland = hIsland.sub(rect(1e-08, -4.190545691757315e-09).transl(1.0050590970964037e-07, -4e-08, 0))
hIsland = hIsland.add(rect(1e-08, 3.857597425748179e-09).transl(5.271260533196987e-08, -4e-08, 0))
hIsland = hIsland.sub(rect(1e-08, -3.4381640645925664e-10).transl(-7.949535594017592e-08, -4e-08, 0))
hIsland = hIsland.sub(rect(1e-08, -4.920158615828521e-10).transl(-4.455213059351414e-08, -4e-08, 0))
hIsland = hIsland.sub(rect(1e-08, -7.10243590394634e-10).transl(-5.5766703904155824e-08, -4e-08, 0))
hIsland = hIsland.add(rect(1e-08, 3.693238873781403e-09).transl(4.4811310353454464e-08, -4e-08, 0))
hIsland = hIsland.sub(rect(1e-08, -9.234793144703585e-11).transl(-4.42182769957411e-08, -4e-08, 0))
hIsland = hIsland.sub(rect(1e-08, -9.967157294598874e-09).transl(5.624939173252217e-08, -4e-08, 0))
hIsland = hIsland.sub(rect(1e-08, -1.9388154126028203e-09).transl(-1.1173484305595054e-07, -2.7921003300959382e-08, 0))
hIsland = hIsland.sub(rect(1e-08, -2.824214375040825e-09).transl(-7.864614291049608e-08, -4e-08, 0))
hIsland = hIsland.sub(rect(1e-08, -5.888378291828503e-10).transl(-1.0289122937095354e-07, -4e-08, 0))
hIsland = hIsland.sub(rect(1e-08, -2.1059365012001935e-10).transl(9.112553739166685e-08, -4e-08, 0))
hIsland = hIsland.add(rect(1e-08, 5.189215156480189e-10).transl(-5.853618592701258e-08, -4e-08, 0))
hIsland = hIsland.add(rect(1e-08, 3.882763260683251e-09).transl(-5.6343936359138685e-08, -4e-08, 0))
hIsland = hIsland.add(rect(1e-08, 3.5072791746647007e-09).transl(1.5519807093417633e-08, -4e-08, 0))
hIsland = hIsland.add(rect(1e-08, 1.8589610555012299e-09).transl(-7.239209925003067e-08, -4e-08, 0))
hIsland = hIsland.add(rect(1e-08, 2.160915370745049e-09).transl(3.239340212281204e-08, -4e-08, 0))
hIsland = hIsland.sub(rect(1e-08, -5.317805660421186e-09).transl(-8.967128563871438e-08, -4e-08, 0))
hIsland = hIsland.add(rect(1e-08, 2.3139769623988337e-09).transl(8.151560243343807e-08, -4e-08, 0))
hIsland = hIsland.sub(rect(1e-08, -5.819188174660832e-09).transl(-2.384286539915771e-08, -4e-08, 0))
hIsland = hIsland.add(rect(1e-08, 8.622378639040607e-10).transl(1.3716839495441126e-08, -4e-08, 0))
hIsland = hIsland.add(rect(1e-08, 2.6379604790610552e-09).transl(-9.109193587118764e-08, -4e-08, 0))
hIsland = hIsland.add(rect(1e-08, 6.971972237478787e-09).transl(1.5956628426270485e-08, -4e-08, 0))
hIsland = hIsland.add(rect(1e-08, 2.712837752150646e-09).transl(-2.7161626887217694e-08, -4e-08, 0))
hIsland = hIsland.sub(rect(1e-08, -1.6255539622004728e-09).transl(2.8329722529195097e-08, -4e-08, 0))
hIsland = hIsland.sub(rect(1e-08, -3.8141537149947054e-09).transl(-5.406093928097985e-08, -4e-08, 0))
hIsland = hIsland.sub(rect(1e-08, -2.4250049086673222e-09).transl(-9.769810707970999e-08, -4e-08, 0))
hIsland = hIsland.add(rect(1e-08, 2.9709179870162444e-09).transl(-1.667119996986732e-08, -4e-08, 0))
hIsland = hIsland.add(rect(1e-08, 1.0396354387354963e-09).transl(9.634800148494647e-08, -4e-08, 0))
hIsland = hIsland.sub(rect(1e-08, -4.743682900294016e-09).transl(8.491140087747124e-08, -4e-08, 0))
hIsland = hIsland.add(rect(1e-08, 5.503211634243e-09).transl(7.123386300207059e-08, -4e-08, 0))
hIsland = hIsland.add(rect(1e-08, 2.527315235581321e-10).transl(3.4662736406758105e-08, -4e-08, 0))
hIsland = hIsland.add(rect(1e-08, 1.3787608622585271e-09).transl(9.100267623773277e-08, -4e-08, 0))
hIsland = hIsland.add(rect(1e-08, 1.5664327133603613e-09).transl(-6.460761280046285e-08, -4e-08, 0))
hIsland = hIsland.sub(rect(1e-08, -3.60256276453795e-09).transl(5.3448958649635013e-08, -4e-08, 0))
hIsland = hIsland.add(rect(1e-08, 7.766338845859236e-10).transl(9.375188373658793e-08, -4e-08, 0))
hIsland = hIsland.add(rect(1e-08, 3.893492447640999e-09).transl(-6.244685555823604e-08, -4e-08, 0))
hIsland = hIsland.sub(rect(1e-08, -6.098615446431691e-09).transl(1.1271222273590982e-07, 2.39432100035309e-08, 0))
hIsland = hIsland.sub(rect(1e-08, -4.872702355483139e-09).transl(4.513835871645421e-08, 4e-08, 0))
hIsland = hIsland.add(rect(1e-08, 7.445635295896771e-10).transl(6.015259053674351e-08, 4e-08, 0))
hIsland = hIsland.add(rect(1e-08, 1.676670265094628e-09).transl(4.932186540957959e-08, 4e-08, 0))
hIsland = hIsland.add(rect(1e-08, 4.226905013274782e-09).transl(-1.6293057439207105e-08, 4e-08, 0))
hIsland = hIsland.add(rect(1e-08, 2.5395880708858407e-09).transl(-5.2675879506265755e-08, 4e-08, 0))
hIsland = hIsland.add(rect(1e-08, 5.2254721304596435e-09).transl(-1.0417686285837567e-07, 3.9930655456283355e-08, 0))
hIsland = hIsland.sub(rect(1e-08, -1.0018255724168813e-09).transl(1.095659826345424e-07, 3.398277863469238e-08, 0))
hIsland = hIsland.sub(rect(1e-08, -5.945759480137074e-10).transl(-5.1387617663162645e-08, 4e-08, 0))
hIsland = hIsland.add(rect(1e-08, 7.047252050417056e-09).transl(-4.311013696256693e-08, 4e-08, 0))
hIsland = hIsland.add(rect(1e-08, 9.833289746722663e-10).transl(9.39632753265262e-08, 4e-08, 0))
hIsland = hIsland.sub(rect(1e-08, -3.750292010611936e-09).transl(2.2551496357856015e-08, 4e-08, 0))
hIsland = hIsland.add(rect(1e-08, 1.287975737908755e-10).transl(6.981124626080301e-11, 4e-08, 0))
hIsland = hIsland.add(rect(1e-08, 3.946033121149001e-09).transl(-8.538672326416392e-08, 4e-08, 0))
hIsland = hIsland.sub(rect(1e-08, -1.952946548516204e-09).transl(-7.991242691275442e-08, 4e-08, 0))
hIsland = hIsland.sub(rect(1e-08, -3.038893515752246e-09).transl(-1.0902506495186256e-07, 3.508109445608597e-08, 0))
hIsland = hIsland.sub(rect(1e-08, -3.7235635526292844e-09).transl(-2.0599883079349357e-08, 4e-08, 0))
hIsland = hIsland.add(rect(1e-08, 2.4522638630790957e-09).transl(4.1921459037420055e-08, 4e-08, 0))
hIsland = hIsland.add(rect(1e-08, 4.422837915228122e-09).transl(6.084326029620147e-08, 4e-08, 0))
hIsland = hIsland.add(rect(1e-08, 1.6648046373036657e-09).transl(-1.5480432561236377e-08, 4e-08, 0))
hIsland = hIsland.sub(rect(1e-08, -9.6521955833853e-10).transl(1.1333869079020042e-07, 2.0709579102046042e-08, 0))
hIsland = hIsland.sub(rect(1e-08, -5.429014375969725e-09).transl(-1.5682509409309363e-08, 4e-08, 0))
hIsland = hIsland.add(rect(1e-08, 5.20865310558051e-09).transl(7.864435686695389e-08, 4e-08, 0))
hIsland = hIsland.sub(rect(1e-08, -2.0530686234249954e-09).transl(9.75943679359059e-09, 4e-08, 0))
hIsland = hIsland.add(rect(1e-08, 7.844727179191698e-10).transl(1.1228195206323507e-07, 2.5825312348867534e-08, 0))
hIsland = hIsland.sub(rect(1e-08, -1.1043281950560373e-09).transl(1.1238235868562739e-07, 2.5406476510504847e-08, 0))
hIsland = hIsland.sub(rect(1e-08, -9.154624248534827e-11).transl(1.7729293307253833e-09, 4e-08, 0))
hIsland = hIsland.sub(rect(1e-08, -7.357991043687118e-11).transl(1.2534133159412055e-08, 4e-08, 0))
hIsland = hIsland.sub(rect(1e-08, -1.1819069620504436e-08).transl(-2.671492193217007e-08, 4e-08, 0))
hIsland = hIsland.sub(rect(1e-08, -2.131221520893772e-09).transl(1.0092725031980186e-07, 4e-08, 0))
hIsland = hIsland.add(rect(1e-08, 1.7367208776249276e-09).transl(6.788833295325413e-08, 4e-08, 0))
hIsland = hIsland.add(rect(1e-08, 1.295121421478292e-09).transl(-1.1222168082689502e-07, 2.607124942873497e-08, 0))
hIsland = hIsland.sub(rect(1e-08, -1.995532855792889e-09).transl(-9.595137148808493e-08, 4e-08, 0))
hIsland = hIsland.add(rect(1e-08, 5.376581143994044e-09).transl(-6.330887460215163e-08, 4e-08, 0))
hIsland = hIsland.add(rect(1e-08, 1.687974181302242e-09).transl(2.021493727469049e-08, 4e-08, 0))
hIsland = hIsland.sub(rect(1e-08, -4.3630623336414735e-09).transl(8.930410846168818e-08, 4e-08, 0))
hIsland = hIsland.add(rect(1e-08, 2.3520233223725647e-09).transl(8.330840698126587e-08, 4e-08, 0))
hIsland = hIsland.sub(rect(1e-08, -1.897043779951453e-09).transl(-8.811641794885188e-08, 4e-08, 0))
hIsland = hIsland.sub(rect(1e-08, -2.185045675283223e-09).transl(5.337837580593925e-08, 4e-08, 0))
hIsland = hIsland.sub(rect(1e-08, -4.166133960310956e-09).transl(5.629533994914166e-08, 4e-08, 0))
hIsland = hIsland.sub(rect(1e-08, -1.3726303958371145e-09).transl(1.5264516407029655e-09, 4e-08, 0))
hIsland = hIsland.add(rect(1e-08, 5.212684462952089e-09).transl(9.000323473098138e-08, 4e-08, 0))
hIsland = hIsland.add(rect(1e-08, 6.795304228426949e-09).transl(-1.1408627892805787e-07, 1.5625367753832847e-08, 0))
hIsland = hIsland.sub(rect(1e-08, -4.466093448632797e-09).transl(-4.164840125352067e-08, 4e-08, 0))
hIsland = hIsland.add(rect(1e-08, 1.7456742443737674e-09).transl(9.566330955968852e-08, 4e-08, 0))
hIsland = hIsland.add(rect(1e-08, 1.1465968337340824e-11).transl(5.322478225106835e-08, 4e-08, 0))
hIsland = hIsland.sub(rect(1e-08, -4.101225197502839e-09).transl(4.773805652735188e-08, 4e-08, 0))
hIsland = hIsland.add(rect(1e-08, 1.375760930780143e-10).transl(-1.7666731099672669e-09, 4e-08, 0))
hIsland = hIsland.add(rect(1e-08, 4.396846052470287e-09).transl(1.255104105364271e-08, 4e-08, 0))
hIsland = hIsland.add(rect(1e-08, 5.32455902325414e-09).transl(1.501329577454841e-08, 4e-08, 0))
hIsland = hIsland.sub(rect(1e-08, -5.690059784532595e-09).transl(9.809966448661853e-08, 4e-08, 0))
hIsland = hIsland.add(rect(1e-08, 2.702308548423897e-10).transl(-4.2279979271525724e-08, 4e-08, 0))
hIsland = hIsland.add(rect(1e-08, 8.035429272911607e-09).transl(-1.3889393865872465e-08, 4e-08, 0))
hIsland = hIsland.add(rect(1e-08, 1.900908597761561e-09).transl(-7.461769494708526e-08, 4e-08, 0))
hIsland = hIsland.sub(rect(1e-08, -1.600832214247552e-09).transl(3.993252387541544e-08, 4e-08, 0))
hIsland = hIsland.add(rect(1e-08, 5.636204344531646e-09).transl(3.260016903940357e-08, 4e-08, 0))
hIsland = hIsland.add(rect(1e-08, 4.396989639246475e-09).transl(-3.6483887555712864e-08, 4e-08, 0))
hIsland = hIsland.add(rect(1e-08, 8.920326696991828e-09).transl(2.4989497128564794e-08, 4e-08, 0))
hIsland = hIsland.add(rect(1e-08, 4.4900675525486634e-09).transl(-5.4774768620378794e-08, 4e-08, 0))
hIsland = hIsland.sub(rect(1e-08, -4.6112033401435954e-11).transl(3.577104011292717e-08, 4e-08, 0))
hIsland = hIsland.add(rect(1e-08, 4.769179950039753e-09).transl(5.2285263462415266e-08, 4e-08, 0))
hIsland = hIsland.sub(rect(1e-08, -4.243820959491518e-09).transl(3.3110405459695365e-08, 4e-08, 0))
hIsland = hIsland.sub(rect(1e-08, -4.52531686078149e-09).transl(3.851245730767488e-08, 4e-08, 0))
hIsland = hIsland.sub(rect(1e-08, -4.514328051104786e-09).transl(-8.90280319118407e-08, 4e-08, 0))
hIsland = hIsland.sub(rect(1e-08, -4.047726633032814e-09).transl(-1.007936812719189e-07, 4e-08, 0))
hIsland = hIsland.sub(rect(1e-08, -3.5269615039813457e-09).transl(6.897163976353316e-08, 4e-08, 0))
hIsland = hIsland.sub(rect(1e-08, -3.567634350979203e-09).transl(-7.917783501488428e-08, 4e-08, 0))
hIsland = hIsland.sub(rect(1e-08, -1.951119511153399e-10).transl(-1.523545257163198e-10, 4e-08, 0))
hIsland = hIsland.sub(rect(1e-08, -6.461416704432284e-09).transl(-4.4746259445113255e-08, 4e-08, 0))
hIsland = hIsland.sub(rect(1e-08, -2.2873667677720076e-09).transl(-1.1352025661156884e-07, 1.9628136877648274e-08, 0))
hIsland = hIsland.sub(rect(1e-08, -6.555429171830729e-10).transl(8.74371346961402e-08, 4e-08, 0))
hIsland = hIsland.sub(rect(1e-08, -4.5673387040335445e-09).transl(2.220458856154382e-08, 4e-08, 0))
hIsland = hIsland.add(rect(1e-08, 5.109352909479699e-09).transl(-3.9991876403485897e-08, 4e-08, 0))
hIsland = hIsland.sub(rect(1e-08, -6.921572628421646e-09).transl(1.1228237901219394e-07, 2.5823555756193614e-08, 0))
hIsland = hIsland.sub(rect(1e-08, -3.4151538217492943e-10).transl(9.18116338999127e-09, 4e-08, 0))
hIsland = hIsland.add(rect(1e-08, 4.085801853336451e-09).transl(9.188834521100262e-08, 4e-08, 0))
hIsland = hIsland.add(rect(1e-08, 1.1309716961628553e-09).transl(-7.415926476097652e-08, 4e-08, 0))
hIsland = hIsland.sub(rect(1e-08, -2.142751317531534e-09).transl(-9.456396165052563e-08, 4e-08, 0))
hIsland = hIsland.add(rect(1e-08, 2.6164482060931143e-10).transl(-1.0532300454806482e-07, 3.949421695058284e-08, 0))
hIsland = hIsland.add(rect(1e-08, 1.7550685887789614e-09).transl(-1.640024875057899e-08, 4e-08, 0))
hIsland = hIsland.add(rect(1e-08, 1.5296592635368947e-09).transl(-3.362805588744743e-08, 4e-08, 0))
hIsland = hIsland.sub(rect(1e-08, -2.5440137696277355e-09).transl(-4.7207640960817185e-08, 4e-08, 0))
hIsland = hIsland.add(rect(1e-08, 2.598189756954448e-09).transl(-7.584359456853197e-08, 4e-08, 0))
hIsland = hIsland.sub(rect(1e-08, -3.2665298512024032e-09).transl(-1.4968403769031865e-08, 4e-08, 0))
hIsland = hIsland.sub(rect(1e-08, -1.2026750743188047e-09).transl(2.658041721107478e-08, 4e-08, 0))
hIsland = hIsland.add(rect(1e-08, 5.632228598437403e-09).transl(9.959246838225103e-08, 4e-08, 0))
hIsland = hIsland.add(rect(1e-08, 7.024727191444911e-10).transl(-1.0956398825729635e-07, 3.398708464410614e-08, 0))
hIsland = hIsland.add(rect(1e-08, 2.264283219199642e-09).transl(-7.619249259065678e-08, 4e-08, 0))
hIsland = hIsland.add(rect(1e-08, 1.2026204838970278e-09).transl(5.230463721250423e-08, 4e-08, 0))
hIsland = hIsland.sub(rect(1e-08, -5.426272899204858e-09).transl(-2.5374551290585055e-08, 4e-08, 0))
hIsland = hIsland.sub(rect(1e-08, -5.234661485428856e-09).transl(-4.8389826256150535e-08, 4e-08, 0))
hIsland = hIsland.add(rect(1e-08, 2.764767178545268e-09).transl(-4.143591776701036e-08, 4e-08, 0))
hIsland = hIsland.sub(rect(1e-08, -8.539288562931563e-10).transl(7.589585451701081e-08, 4e-08, 0))
hIsland = hIsland.add(rect(1e-08, 1.0111347009169132e-09).transl(-7.55879879185216e-08, 4e-08, 0))
hIsland = hIsland.add(rect(1e-08, 2.7036509365372262e-09).transl(-4.766734129249536e-08, 4e-08, 0))
hIsland = hIsland.add(rect(1e-08, 1.1537885205518174e-09).transl(-4.373598190867844e-08, 4e-08, 0))
hIsland = hIsland.sub(rect(1e-08, -4.152842571882319e-09).transl(6.772505913439256e-08, 4e-08, 0))
hIsland = hIsland.sub(rect(1e-08, -4.800617751604082e-09).transl(8.804962374799807e-08, 4e-08, 0))
hIsland = hIsland.sub(rect(1e-08, -3.5734940846532646e-09).transl(4.6542872372412336e-08, 4e-08, 0))
hIsland = hIsland.add(rect(1e-08, 3.7408954297710607e-10).transl(3.030872159590695e-08, 4e-08, 0))
vIsland := hIsland.rotz(pi / 2)
vIslands := Universe().Inverse()
hIslands := Universe().Inverse()
hIslands = hIslands.add(hIsland.transl(-a/2, a, 0))
hIslands = hIslands.add(hIsland.transl(-a/2, -a, 0))
hIslands = hIslands.add(hIsland.transl(a/2, a, 0))
hIslands = hIslands.add(hIsland.transl(a/2, -a, 0))
hIslands = hIslands.add(hIsland.transl(-a/2, 0, 0))
hIslands = hIslands.add(hIsland.transl(a/2, 0, 0))
vIslands = vIslands.add(vIsland.transl(-a, a/2, 0))
vIslands = vIslands.add(vIsland.transl(a, a/2, 0))
vIslands = vIslands.add(vIsland.transl(-a, -a/2, 0))
vIslands = vIslands.add(vIsland.transl(a, -a/2, 0))
vIslands = vIslands.add(vIsland.transl(0, a/2, 0))
vIslands = vIslands.add(vIsland.transl(0, -a/2, 0))
DefRegion(1, hIslands)
DefRegion(2, vIslands)
TableAdd(m_full.Region(1))
TableAdd(m_full.Region(2))
setgeom(hIslands.add(vIslands))
save(m)
r2o2 := sqrt(2) / 2
m = RandomMagSeed(4)
B_ext = vector(Bmax*r2o2, Bmax*r2o2, 0)
relax()
minimize()
for B := Bmax; B >= -Bmax; B -= Bstep {
	B_ext = vector(B*r2o2, B*r2o2, 0)
	minimize()
	tablesave()
}
//********************************************************************//
//Please cite the following references, relevant for your simulation. //
//See bibtex file in output folder for justification.                 //
//********************************************************************//
//   * Vansteenkiste et al., AIP Adv. 4, 107133 (2014).
//   * Exl et al., J. Appl. Phys. 115, 17D118 (2014).
