//mumax 3.10 [windows_amd64 go1.11.6(gc) CUDA-11.0]
//GPU info: NVIDIA GeForce RTX 3090(24575MB), CUDA Driver 12.1, cc=8.6, using cc=80 PTX
//(c) Arne Vansteenkiste, Dynamat LAB, Ghent University, Belgium
//This is free software without any warranty. See license.txt
//********************************************************************//
//  If you use mumax in any work or publication,                      //
//  we kindly ask you to cite the references in references.bib        //
//********************************************************************//
//output directory: r1;p0.5;a2.8e-07;l1.8000000000000002e-07;s0.out/
randSeed(0)
ThermSeed(0)
resolution := 2e-09
zResolution := 5e-09
a := 2.8e-07
gridSize := 280
gridDepth := 5
SetCellsize(resolution, resolution, zResolution)
SetGridsize(gridSize, gridSize, gridDepth)
SetPBC(16, 16, 0)
//resizing...
Msat = 700e3
Aex = 13e-12
alpha = 0.2
Bmax := 0.1
Bstep := Bmax / 500.0
TableAdd(B_ext)
TableAdd(m_full)
islandWidth := 8e-08
islandLength := 1.8000000000000002e-07
ellipseConstant := 4.5000000000000006e-08
hIsland := Universe().Inverse()
vIsland := Universe().Inverse()
vIslands := Universe().Inverse()
hIslands := Universe().Inverse()
hIsland = rect(islandLength-2*ellipseConstant, islandWidth)
hIsland = hIsland.add(ellipse(ellipseConstant*2, islandWidth).transl(islandLength/2-ellipseConstant, 0, 0))
hIsland = hIsland.add(ellipse(ellipseConstant*2, islandWidth).transl(-islandLength/2+ellipseConstant, 0, 0))
hIsland = hIsland.sub(rect(8.261361714044109e-09, -1.9275084776733378e-09).transl(9.08138300143719e-09, -4e-08, 0))
hIsland = hIsland.sub(rect(3.380047104239595e-09, -6.115812437548776e-10).transl(3.994677649024455e-08, -4e-08, 0))
hIsland = hIsland.sub(rect(2.800626991677021e-09, -3.4458159551750296e-09).transl(4.154324499956601e-08, -4e-08, 0))
hIsland = hIsland.sub(rect(4.089759564174081e-09, -3.519526877955599e-09).transl(1.5232813492539943e-08, -4e-08, 0))
hIsland = hIsland.sub(rect(4.648962489896223e-09, -1.6501514756016723e-09).transl(1.8581680941524996e-08, -4e-08, 0))
hIsland = hIsland.sub(rect(5.425154629372472e-09, -2.5783826350018684e-09).transl(7.093456626722074e-08, -3.268886045810244e-08, 0))
hIsland = hIsland.sub(rect(8.936167764484938e-09, -3.7074605470601524e-10).transl(-5.588085949023603e-09, -4e-08, 0))
hIsland = hIsland.add(rect(7.165939789089581e-09, 6.187179744198145e-10).transl(-5.637371950321675e-09, -4e-08, 0))
hIsland = hIsland.sub(rect(4.253481634772807e-09, -7.905303232638737e-10).transl(-8.898596561066333e-08, -8.443734674149971e-09, 0))
hIsland = hIsland.sub(rect(8.246990012428477e-09, -2.773402654849382e-09).transl(3.100942028682166e-08, -4e-08, 0))
hIsland = hIsland.add(rect(9.944034183275264e-09, 3.7194448706283906e-09).transl(5.2803854311095376e-08, -3.939392553678783e-08, 0))
hIsland = hIsland.sub(rect(7.416606895301167e-09, -3.5727460157896104e-10).transl(6.9023528035314635e-09, -4e-08, 0))
hIsland = hIsland.add(rect(6.531086950020149e-09, 3.004400153271858e-10).transl(5.352251793163795e-08, -3.9276083263575766e-08, 0))
hIsland = hIsland.sub(rect(7.847161002634141e-09, -1.920494111336423e-09).transl(-2.254996551157008e-09, -4e-08, 0))
hIsland = hIsland.add(rect(5.946346594156569e-09, 4.713531778264416e-09).transl(-1.897222295500419e-09, -4e-08, 0))
hIsland = hIsland.add(rect(2.221854281975352e-09, 7.083968711421027e-10).transl(3.8511842083570974e-08, -4e-08, 0))
hIsland = hIsland.add(rect(2.1420124633382312e-09, 2.2013260566540545e-09).transl(1.7381088606695783e-08, -4e-08, 0))
hIsland = hIsland.sub(rect(4.076635128108038e-09, -1.7696691050058304e-09).transl(-4.337746072506954e-08, -4e-08, 0))
hIsland = hIsland.sub(rect(7.567593713216005e-09, -1.2248429331550808e-09).transl(8.282311325086023e-08, -2.167161614601753e-08, 0))
hIsland = hIsland.add(rect(2.2727969623116294e-09, 4.2211072894907964e-10).transl(1.0566050272380953e-08, -4e-08, 0))
hIsland = hIsland.sub(rect(8.375493868477511e-09, -7.428082363466993e-10).transl(-6.05158353067034e-08, -3.754710074175912e-08, 0))
hIsland = hIsland.sub(rect(3.862241746540036e-09, -4.192084776664777e-09).transl(8.86627408611409e-09, -4e-08, 0))
hIsland = hIsland.add(rect(2.9238921676686145e-09, 6.088588114543035e-10).transl(-4.0075480486971226e-08, -4e-08, 0))
hIsland = hIsland.add(rect(4.59394867455027e-09, 2.1558239628661138e-09).transl(-5.561400646581706e-08, -3.88714156732088e-08, 0))
hIsland = hIsland.sub(rect(8.596532753594237e-09, -5.615631034367169e-10).transl(-1.58781260443771e-08, -4e-08, 0))
hIsland = hIsland.add(rect(9.242624681274705e-09, 3.3402099621133455e-10).transl(-7.741016296429598e-08, -2.774958692700629e-08, 0))
hIsland = hIsland.sub(rect(3.967927424088191e-09, -2.2073991146717544e-09).transl(8.378590968180744e-08, -2.028251252178309e-08, 0))
hIsland = hIsland.sub(rect(5.067184726348236e-09, -4.329615562485192e-09).transl(-4.8787652073794776e-08, -3.9858056216371856e-08, 0))
hIsland = hIsland.add(rect(4.787767745986596e-09, 2.2047168345934336e-09).transl(5.218886368598046e-09, -4e-08, 0))
hIsland = hIsland.add(rect(9.432525931938185e-09, 1.2547648480849993e-09).transl(-2.1189246664868795e-08, -4e-08, 0))
hIsland = hIsland.add(rect(9.183004852588211e-09, 3.0004426703495526e-09).transl(-3.806298054867879e-08, -4e-08, 0))
hIsland = hIsland.sub(rect(5.72174757305397e-09, -4.0321842648215095e-10).transl(7.147485523157391e-08, -3.234483388251774e-08, 0))
hIsland = hIsland.add(rect(2.165033331552593e-09, 3.186726339066112e-09).transl(3.3830457385375847e-09, -4e-08, 0))
hIsland = hIsland.add(rect(4.772192317948235e-09, 1.7277280326681167e-09).transl(8.99791861460108e-08, -1.216451392018885e-09, 0))
hIsland = hIsland.sub(rect(8.548290119706795e-09, -1.648674442895316e-09).transl(-5.640669427198595e-08, -3.869360314157092e-08, 0))
hIsland = hIsland.sub(rect(6.738061774367251e-09, -1.5609188076433652e-09).transl(-2.3414565397545714e-08, -4e-08, 0))
hIsland = hIsland.add(rect(7.913991847023414e-09, 1.6417150613935821e-09).transl(-6.835901885445375e-08, -3.418880028191775e-08, 0))
hIsland = hIsland.sub(rect(4.39898187940022e-09, -6.439900267068895e-10).transl(-6.086156830015812e-08, -3.743278447996478e-08, 0))
hIsland = hIsland.sub(rect(3.3956035900939688e-09, -1.4242163994097503e-09).transl(9.3692433833711e-09, -4e-08, 0))
hIsland = hIsland.sub(rect(6.925935198402136e-09, -1.0118392981657202e-09).transl(-1.054979506001813e-08, -4e-08, 0))
hIsland = hIsland.add(rect(6.301793280571159e-09, 4.1022226005376637e-10).transl(6.612799212649295e-08, -3.5317066261872087e-08, 0))
hIsland = hIsland.sub(rect(3.983287376008126e-09, -1.8311211735193688e-09).transl(3.5184071012780455e-08, -4e-08, 0))
hIsland = hIsland.add(rect(3.491461829428798e-09, 1.0258707897392676e-09).transl(-6.141225711352436e-08, -3.724473949964876e-08, 0))
hIsland = hIsland.sub(rect(7.825864337782058e-09, -9.113409415986609e-10).transl(2.4865710043993077e-08, -4e-08, 0))
hIsland = hIsland.add(rect(3.5324978066868884e-09, 2.199658180732274e-09).transl(6.794630453183334e-08, -3.4408923428696066e-08, 0))
hIsland = hIsland.sub(rect(4.799578066737135e-09, -3.7621987151210587e-10).transl(4.057749112706867e-08, -4e-08, 0))
hIsland = hIsland.sub(rect(7.772552169301978e-09, -1.349570812400965e-09).transl(-2.7781466208059084e-08, -4e-08, 0))
hIsland = hIsland.sub(rect(7.54438190479066e-09, -2.512360230255837e-09).transl(6.602021824787085e-08, -3.536784254476251e-08, 0))
hIsland = hIsland.add(rect(2.0878861453622824e-09, 1.8936529957283745e-09).transl(-2.9678372853366473e-08, -4e-08, 0))
hIsland = hIsland.add(rect(9.798088441950752e-09, 1.3649832889982977e-09).transl(6.482093393583791e-08, -3.5910787434307526e-08, 0))
hIsland = hIsland.sub(rect(4.017621688894195e-09, -2.437471161427489e-09).transl(8.16177362226586e-08, -2.3249863722255325e-08, 0))
hIsland = hIsland.sub(rect(7.90580996190611e-09, -1.0258541728008196e-09).transl(8.269797471120457e-08, -2.184321601923395e-08, 0))
hIsland = hIsland.sub(rect(9.629416663433872e-09, -5.011557338086898e-09).transl(-4.399889309861066e-08, -4e-08, 0))
hIsland = hIsland.add(rect(7.14313251893504e-09, 2.860183717692958e-09).transl(2.7681026355694e-08, -4e-08, 0))
hIsland = hIsland.sub(rect(8.974079428899792e-09, -2.0077303036824974e-09).transl(-3.484790850417851e-08, -4e-08, 0))
hIsland = hIsland.add(rect(2.754066874743182e-09, 1.4304497694536641e-09).transl(-3.497316815375782e-08, -4e-08, 0))
hIsland = hIsland.sub(rect(7.513386029787343e-09, -4.020591510257364e-09).transl(8.389972760556605e-08, -2.0109550676606945e-08, 0))
hIsland = hIsland.add(rect(8.926863100971865e-09, 4.451306414198848e-10).transl(7.355391184898967e-08, -3.0915884198881e-08, 0))
hIsland = hIsland.add(rect(2.9044483947935575e-09, 3.3354142878441087e-10).transl(8.065205293503049e-08, -2.440693884769835e-08, 0))
hIsland = hIsland.add(rect(2.989295188514773e-09, 3.255041920902351e-09).transl(8.059439819066897e-08, -2.4473337549668854e-08, 0))
hIsland = hIsland.sub(rect(9.14524276110278e-09, -1.3130226570716366e-09).transl(1.228967103749489e-08, -4e-08, 0))
hIsland = hIsland.sub(rect(3.5501930216052452e-09, -1.990404962518795e-09).transl(2.4209144428723524e-09, -4e-08, 0))
hIsland = hIsland.sub(rect(9.166793838969444e-09, -2.1776449573556766e-09).transl(6.195180624221578e-08, -3.705330177522012e-08, 0))
hIsland = hIsland.sub(rect(5.5504589007314576e-09, -5.410389742732837e-10).transl(-7.029496577609656e-08, -3.308248971938879e-08, 0))
hIsland = hIsland.sub(rect(9.07354992086536e-09, -2.3033315659082104e-09).transl(4.936336251587706e-08, -3.9811517088438036e-08, 0))
hIsland = hIsland.add(rect(6.373074077017972e-09, 2.647859114633977e-09).transl(8.850926487014132e-08, -1.021038427435689e-08, 0))
hIsland = hIsland.sub(rect(4.502968080543992e-09, -1.486731467967844e-09).transl(-4.790004391123989e-08, -3.9916849330754144e-08, 0))
hIsland = hIsland.sub(rect(2.302441900565737e-09, -6.76983319984905e-11).transl(-6.159998758475891e-08, -3.717894438959533e-08, 0))
hIsland = hIsland.sub(rect(7.79802423202006e-09, -1.187071817188322e-09).transl(-4.730055232689828e-08, -3.994769379079255e-08, 0))
hIsland = hIsland.add(rect(5.128155853654947e-09, 2.1488655541371088e-09).transl(3.6678423401249677e-08, -4e-08, 0))
hIsland = hIsland.add(rect(5.3830633999006065e-09, 1.180469226681885e-09).transl(2.383229844969164e-09, -4e-08, 0))
hIsland = hIsland.sub(rect(3.4706134549338583e-09, -1.6158993397592374e-09).transl(1.8296395120875516e-08, -4e-08, 0))
hIsland = hIsland.sub(rect(7.0801906177922545e-09, -2.35175709899505e-10).transl(3.8083538925932005e-08, -4e-08, 0))
hIsland = hIsland.add(rect(8.86072700543636e-09, 3.238069580737668e-10).transl(-8.808274966125455e-08, -1.1551338773376938e-08, 0))
hIsland = hIsland.sub(rect(2.50551005445504e-09, -2.154259462686311e-09).transl(6.213643310750617e-08, -3.698613858846993e-08, 0))
hIsland = hIsland.sub(rect(4.141364320355063e-09, -1.1183826589461256e-10).transl(6.497748309201554e-08, -3.5842179930487886e-08, 0))
hIsland = hIsland.sub(rect(4.245030312438762e-09, -6.476352171624692e-10).transl(8.929917215177523e-08, -7.031967733595456e-09, 0))
hIsland = hIsland.sub(rect(6.795682486021932e-09, -3.3653136729124693e-10).transl(-5.0851181896184825e-08, -3.9660421996275756e-08, 0))
hIsland = hIsland.sub(rect(6.4160206065287845e-09, -6.541302061260157e-10).transl(7.840222361925076e-08, -2.6803964435571134e-08, 0))
hIsland = hIsland.sub(rect(2.4332192957949837e-09, -1.428704830177513e-09).transl(5.4740840483969826e-08, -3.905163180963432e-08, 0))
hIsland = hIsland.add(rect(4.764375162345654e-09, 2.936957368103597e-09).transl(6.055796407006075e-08, -3.753332416545851e-08, 0))
hIsland = hIsland.sub(rect(6.592880383358596e-09, -1.9071127543521716e-09).transl(7.859009050327408e-08, -2.66178192609366e-08, 0))
hIsland = hIsland.sub(rect(3.435806907405412e-09, -1.2785171537749303e-09).transl(-7.52057213023881e-08, -2.9649666714458795e-08, 0))
hIsland = hIsland.sub(rect(8.544832417135964e-09, -1.4454285470214601e-09).transl(-3.8194759456381085e-08, -4e-08, 0))
hIsland = hIsland.sub(rect(4.871266680468755e-09, -4.030560894702521e-09).transl(3.271488497260234e-08, -4e-08, 0))
hIsland = hIsland.sub(rect(3.4020868504556136e-09, -1.3510282944764701e-09).transl(2.9012436621411708e-08, -4e-08, 0))
hIsland = hIsland.add(rect(9.66267566177379e-09, 1.092733372530838e-09).transl(-1.4460694936170077e-08, -4e-08, 0))
hIsland = hIsland.sub(rect(5.118303562533231e-09, -1.4784275416168372e-09).transl(6.051673376569001e-08, -3.7546807378152744e-08, 0))
hIsland = hIsland.sub(rect(2.3736129302250478e-09, -3.8812408270433464e-10).transl(-5.777424765948586e-08, -3.835448533832386e-08, 0))
hIsland = hIsland.add(rect(9.617646517926346e-09, 1.9161645054334996e-10).transl(8.093368186475839e-08, -2.4078398825275014e-08, 0))
hIsland = hIsland.add(rect(6.135183847284627e-09, 9.309932825342817e-10).transl(2.4768703559150254e-08, -4e-08, 0))
hIsland = hIsland.sub(rect(6.583175203761353e-09, -7.2207602534387e-10).transl(3.9175093225535094e-08, -4e-08, 0))
hIsland = hIsland.add(rect(4.980363763928499e-09, 3.6439609922849676e-10).transl(1.482562694249414e-08, -4e-08, 0))
hIsland = hIsland.sub(rect(9.351610584888193e-09, -1.3915831696669131e-09).transl(2.3820198193284304e-08, -4e-08, 0))
hIsland = hIsland.add(rect(7.258034275777911e-09, 2.4422833272707156e-09).transl(-7.40469826377491e-08, -3.05507994636069e-08, 0))
hIsland = hIsland.sub(rect(2.7240032952864344e-09, -7.567988097577759e-10).transl(-1.8517085003276042e-08, -4e-08, 0))
hIsland = hIsland.add(rect(2.100596835125031e-09, 1.615475561064596e-09).transl(4.723962695017153e-08, -3.995042924597348e-08, 0))
hIsland = hIsland.add(rect(6.28487953417745e-09, 1.0812600954569083e-09).transl(1.799760100725834e-08, -4e-08, 0))
hIsland = hIsland.add(rect(3.235463515321457e-09, 3.474282567943422e-10).transl(-7.785357967845612e-10, -4e-08, 0))
hIsland = hIsland.add(rect(6.654845303266791e-09, 2.0124337508249536e-09).transl(-2.6772237303665768e-08, -4e-08, 0))
hIsland = hIsland.add(rect(5.564073465571003e-09, 2.279617853543866e-09).transl(8.362582144497483e-08, -2.0522477509348555e-08, 0))
hIsland = hIsland.add(rect(8.845651718695827e-09, 5.3734602220999886e-09).transl(8.978247986015716e-08, -3.928194767705956e-09, 0))
hIsland = hIsland.add(rect(6.778477148766809e-09, 4.1224211848717475e-12).transl(-3.43586676683255e-08, -4e-08, 0))
hIsland = hIsland.add(rect(6.3017401583339115e-09, 4.3486582780119176e-10).transl(-6.008156739719764e-08, -3.76866490408202e-08, 0))
hIsland = hIsland.add(rect(7.098857868752371e-09, 6.733001117020624e-10).transl(7.846082944431247e-08, -2.6746146635004107e-08, 0))
hIsland = hIsland.add(rect(3.909559820810842e-09, 5.149596387136324e-10).transl(-1.798779812542509e-08, -4e-08, 0))
hIsland = hIsland.sub(rect(3.2702606108074e-09, -1.728136520898836e-10).transl(-8.386645280227803e-08, -2.01603222895715e-08, 0))
hIsland = hIsland.sub(rect(9.898255808169531e-09, -3.6806028912043525e-10).transl(3.2383290991254785e-08, -4e-08, 0))
hIsland = hIsland.add(rect(3.825691093975903e-09, 2.80446353137774e-09).transl(-6.211892009932232e-08, -3.6992545925240495e-08, 0))
hIsland = hIsland.add(rect(9.415967968291697e-09, 6.733406019726963e-10).transl(-5.3609711407120045e-08, -3.926105469032168e-08, 0))
hIsland = hIsland.sub(rect(6.101522089787558e-09, -1.999519110393829e-09).transl(6.630221346148889e-08, -3.523427850181743e-08, 0))
hIsland = hIsland.sub(rect(9.572473197392533e-09, -1.1445654264092079e-10).transl(-4.413841986349183e-08, -4e-08, 0))
hIsland = hIsland.sub(rect(2.8257967141156747e-09, -1.362957719431736e-10).transl(-2.3309279964517694e-08, -4e-08, 0))
hIsland = hIsland.sub(rect(9.636342828493078e-09, -6.390821006062198e-10).transl(3.5958399844823993e-09, -4e-08, 0))
hIsland = hIsland.sub(rect(8.409738881566957e-09, -1.6333959668349327e-10).transl(1.2896271928574416e-09, -4e-08, 0))
hIsland = hIsland.add(rect(9.098447020502289e-09, 5.011276261068532e-10).transl(4.635787246627288e-08, -3.998178530827269e-08, 0))
hIsland = hIsland.sub(rect(8.419078770693141e-09, -3.202757924114999e-09).transl(-8.183581549435021e-08, -2.2976061777594824e-08, 0))
hIsland = hIsland.add(rect(7.754561946177316e-09, 4.601125905015713e-10).transl(8.136933519475806e-08, -2.355591542687506e-08, 0))
hIsland = hIsland.add(rect(9.165778322847598e-09, 7.665643720397304e-10).transl(-4.3086653504321596e-08, -4e-08, 0))
hIsland = hIsland.sub(rect(6.812798629939047e-09, -1.3730873295156605e-09).transl(8.335533832038405e-08, -2.091946740258948e-08, 0))
hIsland = hIsland.sub(rect(8.350818465509811e-09, -1.4017750367329295e-09).transl(-6.876688608578311e-08, -3.396596845323639e-08, 0))
hIsland = hIsland.sub(rect(3.3336058946650945e-09, -9.446375796198794e-10).transl(7.782462765081289e-08, -2.7361955306428763e-08, 0))
hIsland = hIsland.sub(rect(9.522971033381012e-09, -1.2106404124956151e-09).transl(-6.686375370978061e-08, -3.496143934340252e-08, 0))
hIsland = hIsland.sub(rect(6.749402960997469e-09, -2.212870718758696e-09).transl(-3.363339878273467e-08, -4e-08, 0))
hIsland = hIsland.sub(rect(8.175319240619011e-09, -1.0310382928920863e-09).transl(-5.974611684363381e-08, -3.7791391408882755e-08, 0))
hIsland = hIsland.sub(rect(2.813680143557191e-09, -1.5575068056207677e-09).transl(2.2598150108408243e-08, -4e-08, 0))
hIsland = hIsland.add(rect(3.4171151791128173e-09, 4.0281676429502677e-10).transl(-1.7494833571523466e-08, -4e-08, 0))
hIsland = hIsland.add(rect(2.4967884056321098e-09, 3.5492493091319446e-10).transl(-1.2970838165922848e-08, -4e-08, 0))
hIsland = hIsland.add(rect(9.495668878262241e-09, 5.257849865707218e-10).transl(-4.732007748707657e-08, -3.994680156683903e-08, 0))
hIsland = hIsland.sub(rect(7.2841478409452625e-09, -3.2767664611997308e-09).transl(-5.7224487257645145e-08, -3.849578497407873e-08, 0))
hIsland = hIsland.add(rect(8.716934567033395e-09, 1.6671227825507734e-09).transl(4.821785819428223e-08, -3.9897601164477254e-08, 0))
hIsland = hIsland.sub(rect(7.563557482354529e-09, -2.04899356854741e-09).transl(-8.892240024914401e-08, -8.701253213737448e-09, 0))
hIsland = hIsland.add(rect(7.781549668094587e-09, 2.199820182026978e-09).transl(-4.604500917781918e-08, -3.998921292393946e-08, 0))
hIsland = hIsland.add(rect(9.621039840046662e-09, 9.191870667932624e-10).transl(-4.527032445063046e-08, -3.999927826204563e-08, 0))
hIsland = hIsland.add(rect(2.8891090412120095e-09, 2.0529794309287996e-09).transl(8.213279884954307e-08, -2.2595185757956098e-08, 0))
hIsland = hIsland.add(rect(5.827107880009219e-09, 3.0709751045077528e-09).transl(7.991397023013941e-08, -2.52359090855271e-08, 0))
hIsland = hIsland.add(rect(7.024999340479635e-09, 9.361682739869192e-10).transl(8.266599170608121e-08, -2.1886767072296798e-08, 0))
hIsland = hIsland.sub(rect(8.31269630545025e-09, -3.178849736236948e-10).transl(6.539904000467655e-08, -3.565407646958268e-08, 0))
hIsland = hIsland.add(rect(4.497987807480458e-09, 1.84648600673744e-09).transl(2.870334740460353e-09, -4e-08, 0))
hIsland = hIsland.add(rect(9.116411338838713e-09, 2.1138309663668225e-09).transl(8.552111114647015e-08, -1.7396796673045582e-08, 0))
hIsland = hIsland.add(rect(8.028927265543135e-09, 1.5920435626407745e-09).transl(6.993283251800058e-08, -3.329899105138864e-08, 0))
hIsland = hIsland.sub(rect(9.912670725112042e-09, -3.82984403994463e-10).transl(-4.4650994541362605e-09, -4e-08, 0))
hIsland = hIsland.add(rect(4.264087265642995e-09, 3.1718486024678825e-09).transl(4.2322224666950347e-08, -4e-08, 0))
hIsland = hIsland.sub(rect(2.7378442394085907e-09, -1.2200553144993396e-09).transl(-8.138383880157113e-08, -2.3538212048046372e-08, 0))
hIsland = hIsland.add(rect(8.295281283012259e-09, 4.453235298543855e-09).transl(5.394346137807342e-08, -3.9202060904040185e-08, 0))
hIsland = hIsland.add(rect(2.0346235862560224e-09, 8.191465171976134e-10).transl(-8.522079217158904e-08, -1.7938999563937148e-08, 0))
hIsland = hIsland.add(rect(2.0738231334306045e-09, 2.111317667721761e-09).transl(-1.279938756831094e-10, -4e-08, 0))
hIsland = hIsland.sub(rect(8.623770623624627e-09, -7.786017251905119e-10).transl(-5.817355025185e-08, -3.824761506657733e-08, 0))
hIsland = hIsland.sub(rect(3.2970954769038975e-09, -2.783650408676793e-10).transl(-5.218433476945123e-08, -3.9486935074986024e-08, 0))
hIsland = hIsland.add(rect(9.222554110810777e-09, 6.564655673183303e-10).transl(7.212515367112781e-08, -3.1916261278217084e-08, 0))
hIsland = hIsland.add(rect(3.1031225035653725e-09, 1.249536743995718e-09).transl(8.53457629648261e-08, -1.7715879147093544e-08, 0))
hIsland = hIsland.sub(rect(5.44335664760076e-09, -1.8252125958226289e-09).transl(-7.182431749163606e-08, -3.211652846092736e-08, 0))
hIsland = hIsland.add(rect(6.225786390690323e-09, 1.1956712388892577e-09).transl(8.718375785907573e-08, -1.3928369071683557e-08, 0))
hIsland = hIsland.sub(rect(8.264964437027425e-09, -1.5367555361468372e-09).transl(4.233982488548233e-09, -4e-08, 0))
hIsland = hIsland.sub(rect(2.824372938848608e-09, -2.089460649542411e-09).transl(7.608792102695128e-08, -2.8920204103878793e-08, 0))
hIsland = hIsland.sub(rect(8.866657228712596e-09, -2.9596785240575426e-10).transl(1.7308690790182756e-08, -4e-08, 0))
hIsland = hIsland.sub(rect(6.934588523633808e-09, -1.6935695534598145e-10).transl(-5.0587298560346286e-08, -3.969047745779453e-08, 0))
hIsland = hIsland.sub(rect(4.436528460338757e-09, -1.3432146885023245e-09).transl(-3.7198357405111796e-08, -4e-08, 0))
hIsland = hIsland.add(rect(8.602268510972099e-09, 1.3385463441754273e-09).transl(-9.972481230188684e-09, -4e-08, 0))
hIsland = hIsland.add(rect(3.182357771646304e-09, 6.945529598167212e-10).transl(-6.391326290548417e-08, -3.6295505813206045e-08, 0))
hIsland = hIsland.sub(rect(6.9728305090494704e-09, -7.564876470962272e-10).transl(1.3618991011895047e-08, -4e-08, 0))
hIsland = hIsland.add(rect(9.58730470916437e-09, 9.056119608357844e-10).transl(5.513079317767192e-08, -3.8973161055269683e-08, 0))
hIsland = hIsland.sub(rect(5.549025231721902e-09, -1.0578349783727164e-09).transl(-1.032864058998201e-08, -4e-08, 0))
hIsland = hIsland.add(rect(3.4877577654186347e-09, 1.104265308317561e-09).transl(1.1292605555405463e-08, -4e-08, 0))
hIsland = hIsland.sub(rect(9.283571056001517e-09, -3.201553460318817e-10).transl(5.9062839323564524e-08, -3.799661115659354e-08, 0))
hIsland = hIsland.sub(rect(9.604097807310727e-09, -3.5029691556454854e-09).transl(-1.8003600339054092e-08, -4e-08, 0))
hIsland = hIsland.sub(rect(7.971751294084446e-09, -3.3072331702004393e-09).transl(-8.03676263310203e-08, -2.473174211048849e-08, 0))
hIsland = hIsland.sub(rect(2.36120894572392e-09, -5.512047014609173e-10).transl(-4.904525260143402e-08, -3.983805172875781e-08, 0))
hIsland = hIsland.sub(rect(3.297574986296643e-09, -7.352542944526821e-10).transl(3.957658890915148e-09, -4e-08, 0))
hIsland = hIsland.add(rect(7.484365102920176e-09, 1.5516816927741018e-09).transl(8.295338408704304e-08, -2.1490911293389973e-08, 0))
hIsland = hIsland.sub(rect(9.118740365623268e-09, -6.952078415575901e-10).transl(3.309817444655028e-08, -4e-08, 0))
hIsland = hIsland.add(rect(3.4806990663306404e-09, 9.508972967008646e-10).transl(-2.981757385748107e-08, -4e-08, 0))
hIsland = hIsland.sub(rect(2.475643602912001e-09, -1.3398231649555177e-09).transl(8.888067026597992e-08, -8.866049636379386e-09, 0))
hIsland = hIsland.add(rect(8.76100192942269e-09, 1.5698290363917662e-09).transl(-1.085294883557109e-08, -4e-08, 0))
hIsland = hIsland.sub(rect(9.141646945837767e-09, -2.9841853527071557e-09).transl(4.147444286826717e-09, -4e-08, 0))
hIsland = hIsland.add(rect(9.115244962385462e-09, 3.813600198348317e-09).transl(-3.602851229362011e-08, -4e-08, 0))
hIsland = hIsland.sub(rect(8.08879940853816e-09, -2.8076219170107907e-09).transl(-1.774191180481723e-08, -4e-08, 0))
hIsland = hIsland.sub(rect(4.6101172281881974e-09, -1.3113543115221515e-09).transl(-3.2850682441708536e-10, -4e-08, 0))
hIsland = hIsland.sub(rect(5.473982414179806e-09, -1.7602682664047655e-09).transl(-1.889657031576814e-08, -4e-08, 0))
hIsland = hIsland.add(rect(5.708643654469016e-09, 3.7548095680571055e-09).transl(-3.343570513755071e-08, -4e-08, 0))
hIsland = hIsland.add(rect(9.058553123367272e-09, 4.24697803689226e-10).transl(-7.428222525833077e-08, -3.0372844062269084e-08, 0))
hIsland = hIsland.sub(rect(3.6730244157423616e-09, -1.061643365610404e-09).transl(-5.381032927377859e-08, -3.922587302455295e-08, 0))
hIsland = hIsland.add(rect(4.559338178593156e-09, 3.919178156052649e-09).transl(6.201344141920079e-08, -3.7030974673834364e-08, 0))
hIsland = hIsland.add(rect(8.026637861598089e-09, 2.870181436095207e-10).transl(2.5238430401854614e-08, -4e-08, 0))
hIsland = hIsland.add(rect(5.689008712266701e-09, 1.494116012501162e-09).transl(-2.9594972627137608e-08, -4e-08, 0))
hIsland = hIsland.add(rect(6.911363361086997e-09, 9.371364678858365e-10).transl(2.316093196636146e-08, -4e-08, 0))
hIsland = hIsland.add(rect(5.706133879216899e-09, 1.3277797066324924e-09).transl(-5.3990842902129886e-08, -3.919349650167791e-08, 0))
hIsland = hIsland.sub(rect(6.7292064161853254e-09, -1.6544183249100286e-09).transl(1.4389793011918669e-08, -4e-08, 0))
hIsland = hIsland.sub(rect(7.029022040737613e-09, -1.9981850846302577e-09).transl(1.905902997159781e-08, -4e-08, 0))
hIsland = hIsland.sub(rect(3.184943671329026e-09, -1.5344530638080918e-09).transl(5.077587671329354e-08, -3.9669142761862204e-08, 0))
hIsland = hIsland.sub(rect(5.765698562398215e-09, -2.873977727281581e-11).transl(7.549437025292088e-08, -2.9415284618500252e-08, 0))
hIsland = hIsland.add(rect(6.795043893621811e-09, 4.015449360429458e-09).transl(1.5915277548017882e-08, -4e-08, 0))
hIsland = hIsland.add(rect(2.4173486510906485e-09, 1.222300520537632e-09).transl(6.083323396181946e-08, -3.74422612202068e-08, 0))
hIsland = hIsland.sub(rect(8.985690873397156e-09, -7.993180469938714e-10).transl(2.1389591725448733e-09, -4e-08, 0))
hIsland = hIsland.sub(rect(9.478358405910967e-09, -1.1791623392975098e-09).transl(7.58695464128288e-08, -2.910444170273023e-08, 0))
hIsland = hIsland.sub(rect(7.921059862418688e-09, -3.1924444956715226e-09).transl(-7.529797510605232e-08, -2.9575200882461536e-08, 0))
hIsland = hIsland.sub(rect(3.8009150632866835e-09, -4.813723158874949e-09).transl(-7.427084101420843e-08, -3.038151310947957e-08, 0))
hIsland = hIsland.add(rect(6.185235994504091e-09, 7.338124353047084e-10).transl(7.944383477285151e-08, -2.5741311312006514e-08, 0))
hIsland = hIsland.add(rect(4.733643168148589e-09, 1.815872538135852e-09).transl(-7.0757875132486144e-09, -4e-08, 0))
hIsland = hIsland.add(rect(3.4624130306196e-09, 3.6854410646280207e-09).transl(-4.774363449020181e-08, -3.992558480228912e-08, 0))
hIsland = hIsland.sub(rect(7.742666466064776e-09, -5.060598375671462e-10).transl(5.5150469233470015e-08, 3.8969115716496974e-08, 0))
hIsland = hIsland.sub(rect(6.288404818669896e-09, -4.333786571295627e-10).transl(-7.086012268638971e-08, 3.273542640537355e-08, 0))
hIsland = hIsland.sub(rect(8.45063099515272e-09, -9.922684414414547e-10).transl(4.324936159644786e-08, 4e-08, 0))
hIsland = hIsland.add(rect(9.85975668130987e-09, 2.391255178650926e-09).transl(3.1066179836292976e-08, 4e-08, 0))
hIsland = hIsland.add(rect(7.902339624881839e-09, 3.4194672002045923e-09).transl(-5.979938755106122e-08, 3.777493456609013e-08, 0))
hIsland = hIsland.add(rect(6.560227695141879e-09, 5.27216242514513e-10).transl(5.0829834258880605e-08, 3.966290584115256e-08, 0))
hIsland = hIsland.sub(rect(8.275224806295104e-09, -3.7309744873496405e-09).transl(-2.794655244484051e-08, 4e-08, 0))
hIsland = hIsland.add(rect(7.957905453620286e-09, 1.631576580097334e-09).transl(2.8122880436045555e-08, 4e-08, 0))
hIsland = hIsland.add(rect(5.7213368924362334e-09, 1.87229817774046e-09).transl(-3.8545169994442385e-08, 4e-08, 0))
hIsland = hIsland.add(rect(6.475404481535082e-09, 5.64247203310683e-10).transl(3.535563767833773e-08, 4e-08, 0))
hIsland = hIsland.add(rect(3.447382885896472e-09, 5.000910853097582e-10).transl(2.4282811738644715e-08, 4e-08, 0))
hIsland = hIsland.add(rect(5.108045465585377e-09, 2.1620660119720755e-09).transl(-6.804656942077318e-08, 3.435593661347946e-08, 0))
hIsland = hIsland.sub(rect(9.314726744836624e-09, -4.264887487477202e-09).transl(-4.083954168676992e-08, 4e-08, 0))
hIsland = hIsland.add(rect(6.0274810962362e-09, 1.367521632051781e-09).transl(7.309916211603337e-08, 3.12433644621552e-08, 0))
hIsland = hIsland.add(rect(3.1818950910186024e-09, 5.6382620711287444e-09).transl(6.798351739358935e-09, 4e-08, 0))
hIsland = hIsland.sub(rect(8.954357458976709e-09, -2.637118737352533e-10).transl(6.768102942343654e-08, 3.454761214073602e-08, 0))
hIsland = hIsland.sub(rect(9.618117118223067e-09, -1.899232492531048e-09).transl(-4.233074455019911e-08, 4e-08, 0))
hIsland = hIsland.sub(rect(2.092309734927211e-09, -4.736755981664548e-10).transl(5.288670113286277e-08, 3.938088721348474e-08, 0))
hIsland = hIsland.add(rect(2.067209094534037e-09, 1.3199133869619346e-09).transl(-8.198256444968547e-08, 2.278903659695105e-08, 0))
hIsland = hIsland.add(rect(2.6275160281584936e-09, 1.8287212491121606e-10).transl(-5.6486974403296824e-08, 3.8674833559572627e-08, 0))
hIsland = hIsland.sub(rect(8.805502459039993e-09, -5.587600838142426e-10).transl(-2.550676975910754e-09, 4e-08, 0))
hIsland = hIsland.add(rect(2.3398815939711384e-09, 2.4085534608300195e-09).transl(6.412439247889932e-08, 3.620798752134796e-08, 0))
hIsland = hIsland.add(rect(3.4760108767294036e-09, 9.640000067735723e-10).transl(2.026325462950604e-08, 4e-08, 0))
hIsland = hIsland.add(rect(6.547215090036037e-09, 1.4192838978402315e-10).transl(-2.5225338970767783e-08, 4e-08, 0))
hIsland = hIsland.add(rect(2.272233659348355e-09, 1.0159374916378504e-09).transl(3.6562916318504685e-08, 4e-08, 0))
hIsland = hIsland.sub(rect(2.9142242887010607e-09, -2.993737049709936e-10).transl(-6.704840880155776e-08, 3.486969231904976e-08, 0))
hIsland = hIsland.sub(rect(8.522345119157282e-09, -2.90025522198093e-09).transl(6.638285220052103e-09, 4e-08, 0))
hIsland = hIsland.add(rect(6.112775082156741e-09, 1.553059459825734e-09).transl(1.6673271067591506e-08, 4e-08, 0))
hIsland = hIsland.add(rect(7.394854647693357e-09, 4.0893089702636385e-10).transl(-1.651364969268734e-08, 4e-08, 0))
hIsland = hIsland.add(rect(4.039542586980612e-09, 1.2185614498910773e-09).transl(-8.595211112770798e-08, 1.6580210585479597e-08, 0))
hIsland = hIsland.sub(rect(6.138069120247431e-09, -2.5717110102512707e-09).transl(4.329713497637102e-09, 4e-08, 0))
hIsland = hIsland.add(rect(5.408104657457554e-09, 4.255623749919816e-10).transl(4.902122493702521e-08, 3.9839973722098e-08, 0))
hIsland = hIsland.sub(rect(9.811438597035577e-09, -1.7548186971434965e-09).transl(-7.570833619151197e-08, 2.92388794211864e-08, 0))
hIsland = hIsland.add(rect(4.081420346215688e-09, 2.4247200711660025e-09).transl(3.985308385791374e-08, 4e-08, 0))
hIsland = hIsland.add(rect(8.306074718066153e-09, 3.9873190411003385e-09).transl(-2.971899302260705e-08, 4e-08, 0))
hIsland = hIsland.add(rect(7.700773980204764e-09, 2.847559283486842e-09).transl(2.8656520029907035e-09, 4e-08, 0))
hIsland = hIsland.add(rect(7.446473465617643e-09, 8.618919582370608e-10).transl(-5.049835505799896e-08, 3.970029042808146e-08, 0))
hIsland = hIsland.sub(rect(4.116705465028752e-09, -9.925443974494847e-10).transl(4.302530367901098e-08, 4e-08, 0))
hIsland = hIsland.sub(rect(4.025202668500003e-09, -1.0073065753458465e-09).transl(8.985141098707159e-08, 3.2479046958948484e-09, 0))
hIsland = hIsland.add(rect(3.290433485782824e-09, 1.5486524556800882e-09).transl(-7.946584157274615e-08, 2.5718026761199404e-08, 0))
hIsland = hIsland.sub(rect(9.18190635168798e-09, -1.0263565723781575e-09).transl(5.0282831011227286e-08, 3.972340613254127e-08, 0))
hIsland = hIsland.add(rect(2.2686265490619706e-09, 1.3599859678996571e-09).transl(4.273138248845004e-08, 4e-08, 0))
hIsland = hIsland.sub(rect(3.9743681624917595e-09, -8.954927288916171e-10).transl(3.0849235705213684e-08, 4e-08, 0))
hIsland = hIsland.sub(rect(5.9365564247581184e-09, -1.8731704837917386e-09).transl(6.154803936783597e-08, 3.7197237577831905e-08, 0))
hIsland = hIsland.sub(rect(3.8037042509168955e-09, -8.95196448351943e-11).transl(-5.958775776841003e-08, 3.7839920896638467e-08, 0))
hIsland = hIsland.add(rect(7.135246358829309e-09, 1.2473012976387247e-09).transl(2.306723260689205e-08, 4e-08, 0))
hIsland = hIsland.add(rect(7.305037103666829e-09, 1.6893359754096945e-09).transl(6.344347087533126e-08, 3.6486029197138805e-08, 0))
hIsland = hIsland.sub(rect(5.7922615387359785e-09, -5.513000874516482e-10).transl(4.5224424697490245e-08, 3.999950255053797e-08, 0))
hIsland = hIsland.sub(rect(3.5834723198963446e-09, -3.333063255689733e-10).transl(7.71836839287622e-08, 2.7957081587368743e-08, 0))
hIsland = hIsland.add(rect(9.69472637000045e-09, 2.9392870669816503e-09).transl(3.6899990233948895e-08, 4e-08, 0))
hIsland = hIsland.add(rect(6.8202724034168614e-09, 1.2480628176812106e-09).transl(-8.990279216649223e-08, 2.6277539622587192e-09, 0))
hIsland = hIsland.sub(rect(4.10430236771139e-09, -1.2317914652917473e-10).transl(7.868612198714359e-08, 2.6521757169014525e-08, 0))
hIsland = hIsland.sub(rect(3.199467874182661e-09, -2.090947793043139e-10).transl(-6.420118289908629e-08, 3.617586208715432e-08, 0))
hIsland = hIsland.sub(rect(2.8158949109771013e-09, -4.992522450508404e-10).transl(-5.653805769402593e-08, 3.8662816918437356e-08, 0))
hIsland = hIsland.sub(rect(4.5691359006876614e-09, -1.788471544679498e-09).transl(-7.37914032570345e-08, 3.074135958169419e-08, 0))
hIsland = hIsland.sub(rect(8.618972988416852e-09, -4.532313117344098e-11).transl(-6.703416550920572e-08, 3.4876805271215214e-08, 0))
hIsland = hIsland.add(rect(9.037320306292253e-09, 3.527082493192841e-10).transl(3.137870278763324e-08, 4e-08, 0))
hIsland = hIsland.add(rect(2.950443380447996e-09, 2.0335139991278973e-09).transl(-8.463232767479026e-08, 1.8945611106792546e-08, 0))
hIsland = hIsland.sub(rect(8.511646818278025e-09, -7.449438631068328e-10).transl(1.2610283653301252e-08, 4e-08, 0))
hIsland = hIsland.sub(rect(2.116658000927667e-09, -4.338109221791341e-09).transl(1.2114140462838486e-08, 4e-08, 0))
hIsland = hIsland.sub(rect(3.296646744136647e-09, -2.2915427252016745e-10).transl(2.3141892267595034e-08, 4e-08, 0))
hIsland = hIsland.add(rect(6.128748469753827e-09, 2.3147852722831834e-09).transl(-6.642460849094723e-08, 3.517559368256904e-08, 0))
hIsland = hIsland.add(rect(3.730382543820036e-09, 3.976613057384512e-09).transl(-2.967215738596822e-08, 4e-08, 0))
hIsland = hIsland.add(rect(9.745101204768458e-09, 6.33744902871329e-10).transl(-1.797646713514395e-08, 4e-08, 0))
hIsland = hIsland.sub(rect(7.2272595654673775e-09, -2.931594947511877e-09).transl(-8.354797488840288e-08, 2.0637803156187197e-08, 0))
hIsland = hIsland.sub(rect(4.71183473988918e-09, -1.8277639605215584e-09).transl(-3.689335372276771e-08, 4e-08, 0))
hIsland = hIsland.sub(rect(8.922309089701305e-09, -3.8919674534560427e-10).transl(7.911665353327306e-08, 2.6083307397501923e-08, 0))
hIsland = hIsland.add(rect(5.99297114263658e-09, 2.73645651604147e-09).transl(-8.754603492696174e-08, 1.3028664678458257e-08, 0))
hIsland = hIsland.sub(rect(6.055994640457632e-09, -1.34454585376405e-09).transl(-1.884369375995099e-08, 4e-08, 0))
hIsland = hIsland.add(rect(6.751878673610826e-09, 4.039198234418704e-09).transl(-3.681060698437517e-08, 4e-08, 0))
hIsland = hIsland.add(rect(4.79922439789734e-09, 2.5541084864981874e-10).transl(-1.8223871509235374e-08, 4e-08, 0))
hIsland = hIsland.sub(rect(6.700874469908856e-09, -4.2036613140453865e-09).transl(-7.571770618941287e-08, 2.9231101670275797e-08, 0))
hIsland = hIsland.add(rect(2.0034029160728295e-09, 4.961684195834825e-10).transl(-5.286534909794872e-08, 3.938426115242468e-08, 0))
hIsland = hIsland.add(rect(9.406051934647113e-09, 6.931711521587095e-10).transl(3.557495199002556e-08, 4e-08, 0))
hIsland = hIsland.sub(rect(8.424348112958107e-09, -3.592312454583826e-09).transl(4.5602047911816276e-08, 3.999641997126776e-08, 0))
hIsland = hIsland.sub(rect(7.949889534229688e-09, -1.0895428616190022e-09).transl(-4.780406522709218e-08, 3.992226736629504e-08, 0))
hIsland = hIsland.add(rect(6.866002337023693e-09, 1.390476007598833e-09).transl(-4.9857850733005836e-08, 3.9766243256318034e-08, 0))
hIsland = hIsland.sub(rect(5.6415219443549175e-09, -5.205315180218644e-09).transl(5.9172102003480665e-08, 3.796452170759264e-08, 0))
hIsland = hIsland.add(rect(4.509757407346666e-09, 8.872832296156288e-11).transl(-8.046126283347807e-08, 2.462557278855529e-08, 0))
hIsland = hIsland.sub(rect(9.327812449775998e-09, -2.872619637067723e-09).transl(-2.5849809632940332e-08, 4e-08, 0))
hIsland = hIsland.add(rect(5.541715802257433e-09, 4.599578324326646e-09).transl(5.83265401678393e-08, 3.8205715579442524e-08, 0))
hIsland = hIsland.add(rect(6.715753581607028e-09, 2.194289191675843e-09).transl(6.103452595303093e-08, 3.737451672878704e-08, 0))
hIsland = hIsland.add(rect(6.5095621214785555e-09, 6.270315548513179e-10).transl(-4.963110575096899e-08, 3.978761253491242e-08, 0))
hIsland = hIsland.sub(rect(8.089866246292012e-09, -1.5670742917604675e-09).transl(-7.643673959538034e-08, 2.8620723268027052e-08, 0))
hIsland = hIsland.sub(rect(3.865661113328411e-09, -5.752077483152664e-10).transl(-1.7624066248088447e-08, 4e-08, 0))
hIsland = hIsland.sub(rect(7.173150178968375e-09, -2.2369132797149507e-09).transl(-7.391855519911145e-08, 3.064691364086074e-08, 0))
hIsland = hIsland.sub(rect(3.500895750619672e-09, -4.843258151702565e-10).transl(6.889403826585578e-08, 3.389540845528307e-08, 0))
hIsland = hIsland.add(rect(4.216845729022923e-09, 1.4004905032438437e-09).transl(-6.607877246890389e-08, 3.534029674169357e-08, 0))
hIsland = hIsland.sub(rect(5.309092431180311e-09, -4.927276169901775e-10).transl(-3.160800797033297e-08, 4e-08, 0))
hIsland = hIsland.add(rect(7.963372665148372e-09, 1.2300550166882558e-09).transl(-2.438240481818762e-08, 4e-08, 0))
hIsland = hIsland.sub(rect(9.862812424175009e-09, -1.7102787384978574e-09).transl(1.7816123723847624e-08, 4e-08, 0))
hIsland = hIsland.add(rect(7.819830367680292e-09, 1.895993433397655e-10).transl(-7.733619292945143e-08, 2.7817686912269927e-08, 0))
hIsland = hIsland.add(rect(3.203168816434075e-09, 1.1390661630163926e-09).transl(-2.4651064492933663e-08, 4e-08, 0))
hIsland = hIsland.add(rect(7.213084653257486e-09, 3.3774688176146738e-09).transl(3.536907631540414e-09, 4e-08, 0))
hIsland = hIsland.sub(rect(7.543207377787924e-09, -3.026146949443856e-09).transl(8.98554949497972e-08, 3.20303224344798e-09, 0))
hIsland = hIsland.add(rect(8.677063032876977e-09, 2.8473913546911394e-09).transl(6.331736720361816e-08, 3.653618868244552e-08, 0))
hIsland = hIsland.sub(rect(9.148550524496046e-09, -4.4792364412898863e-10).transl(6.071229473915716e-08, 3.7482493496826467e-08, 0))
hIsland = hIsland.sub(rect(2.5949162713553016e-09, -1.8125864928842857e-10).transl(-5.394394277020205e-08, 3.9201974127397164e-08, 0))
hIsland = hIsland.sub(rect(9.358270441097725e-09, -1.2772974846873526e-09).transl(6.866667912116061e-08, 3.4021208193043154e-08, 0))
hIsland = hIsland.sub(rect(7.1743364491732156e-09, -3.2466286445778972e-09).transl(6.016651532057759e-08, 3.765970372121805e-08, 0))
hIsland = hIsland.sub(rect(3.3654266911875807e-09, -2.383123727041828e-09).transl(-1.1717972022842113e-08, 4e-08, 0))
hIsland = hIsland.sub(rect(6.5776540882420015e-09, -2.3037100991395495e-09).transl(-4.391422790052372e-08, 4e-08, 0))
hIsland = hIsland.sub(rect(7.828392615172737e-09, -1.5498367747994615e-09).transl(2.9275518103103155e-08, 4e-08, 0))
hIsland = hIsland.add(rect(8.778546738877062e-09, 1.0032004159356324e-11).transl(9.583856748319114e-09, 4e-08, 0))
hIsland = hIsland.add(rect(4.688813387447076e-09, 3.972095415274628e-09).transl(-4.238749492732881e-08, 4e-08, 0))
hIsland = hIsland.sub(rect(2.6610132264342186e-09, -2.2599706750418324e-09).transl(-2.138594902182774e-08, 4e-08, 0))
hIsland = hIsland.add(rect(5.4302080043169834e-09, 8.794094797534374e-11).transl(-4.671434403719869e-08, 3.99709625420254e-08, 0))
hIsland = hIsland.add(rect(4.2904208618832014e-09, 5.351567412115765e-09).transl(2.5755201878150062e-08, 4e-08, 0))
hIsland = hIsland.add(rect(7.386882150495743e-09, 3.0948324551694455e-09).transl(-8.05445558708413e-09, 4e-08, 0))
hIsland = hIsland.add(rect(7.342519597006938e-09, 4.1403494805057346e-10).transl(-5.965709826766961e-08, 3.7818743491900603e-08, 0))
hIsland = hIsland.add(rect(2.2092675346740694e-09, 5.040885065899181e-10).transl(7.618174217306162e-08, 2.8840286706716332e-08, 0))
hIsland = hIsland.sub(rect(9.014267963995253e-09, -3.4993853363951127e-09).transl(-8.931187346411131e-08, 6.9684506721964956e-09, 0))
hIsland = hIsland.add(rect(9.259975476398547e-09, 1.92157073941434e-09).transl(8.649190775123425e-08, 1.548355632516391e-08, 0))
hIsland = hIsland.add(rect(7.788090393741373e-09, 1.6099657725377344e-09).transl(-1.0895452493508372e-08, 4e-08, 0))
hIsland = hIsland.sub(rect(4.335279759130295e-09, -1.6388558645291487e-10).transl(6.724564966886366e-08, 3.4770568747297156e-08, 0))
hIsland = hIsland.add(rect(8.90051046699825e-09, 2.472478694428741e-09).transl(4.4927987417234635e-08, 4e-08, 0))
hIsland = hIsland.add(rect(8.973744164884377e-09, 7.619807825447183e-10).transl(4.8104193752514344e-08, 3.990471595531103e-08, 0))
hIsland = hIsland.sub(rect(4.93222296557608e-09, -5.531013092798877e-10).transl(5.7547538151359995e-08, 3.841357050683505e-08, 0))
hIsland = hIsland.add(rect(3.4044845309741767e-09, 1.9607993707802137e-09).transl(4.243251084200622e-08, 4e-08, 0))
hIsland = hIsland.add(rect(2.8525499263475943e-09, 1.1119564890838e-09).transl(1.5440963022054075e-08, 4e-08, 0))
hIsland = hIsland.add(rect(2.522323729353044e-09, 2.710855545049924e-10).transl(-8.944416197168763e-08, 6.2675470861063335e-09, 0))
hIsland = hIsland.sub(rect(6.341268146048085e-09, -1.1794909941544673e-10).transl(3.617806037082163e-08, 4e-08, 0))
hIsland = hIsland.add(rect(5.791813952114901e-09, 2.5520351333453217e-09).transl(-6.245931579070428e-08, 3.68666309516453e-08, 0))
hIsland = hIsland.add(rect(9.658304636741499e-09, 3.714022242300625e-11).transl(1.5433777929413733e-08, 4e-08, 0))
hIsland = hIsland.sub(rect(4.020500260230458e-09, -5.225718453190159e-10).transl(-9.818538304328279e-09, 4e-08, 0))
hIsland = hIsland.sub(rect(5.749747259619248e-09, -5.895377216374616e-10).transl(-2.599784902876864e-08, 4e-08, 0))
hIsland = hIsland.add(rect(3.3134257598598557e-09, 1.9941636344251713e-09).transl(-1.4677838543235345e-08, 4e-08, 0))
hIsland = hIsland.add(rect(6.701850850569162e-09, 2.207047345358528e-11).transl(-5.450721605515031e-08, 3.909709691227036e-08, 0))
hIsland = hIsland.sub(rect(6.833901067028586e-09, -1.8914993348984656e-09).transl(2.644725550210387e-08, 4e-08, 0))
hIsland = hIsland.add(rect(6.2162207317982795e-09, 1.0382839209819818e-09).transl(-5.644288283980015e-08, 3.868515963712459e-08, 0))
hIsland = hIsland.sub(rect(7.466182629875027e-09, -2.9591271590293065e-09).transl(-5.357189572306936e-08, 3.9267592053112195e-08, 0))
hIsland = hIsland.add(rect(6.667947320183488e-09, 1.4330687494746335e-09).transl(-5.1054100173249056e-08, 3.9636350654528025e-08, 0))
hIsland = hIsland.sub(rect(7.937291813934563e-09, -2.6645145110807367e-09).transl(-5.3752228722039495e-08, 3.923614853699924e-08, 0))
hIsland = hIsland.add(rect(7.479050553496523e-09, 7.762995174456032e-10).transl(8.04169806966264e-08, 2.467587381054441e-08, 0))
hIsland = hIsland.sub(rect(6.835979037696268e-09, -2.3924391561028623e-09).transl(4.04418448332599e-08, 4e-08, 0))
hIsland = hIsland.add(rect(6.338456068734107e-09, 5.875549064936809e-10).transl(-2.133822193959341e-08, 4e-08, 0))
hIsland = hIsland.add(rect(7.489204649215381e-09, 2.8934797843001303e-09).transl(-7.667055688569282e-08, 2.84163170173354e-08, 0))
hIsland = hIsland.sub(rect(5.519665444864311e-09, -2.098762557540703e-09).transl(4.504940232504471e-08, 3.999997589540291e-08, 0))
hIsland = hIsland.sub(rect(4.766068088927114e-09, -1.5191560362649086e-09).transl(-8.307636262028593e-08, 2.1318339353173853e-08, 0))
hIsland = hIsland.add(rect(5.726229854448339e-09, 2.555916469227116e-09).transl(2.1827762439459578e-08, 4e-08, 0))
hIsland = hIsland.add(rect(7.1911097437533784e-09, 1.6124375909387738e-09).transl(-4.110612371421655e-08, 4e-08, 0))
hIsland = hIsland.add(rect(9.777122349957432e-09, 4.3083444076485124e-10).transl(3.522989928450829e-08, 4e-08, 0))
hIsland = hIsland.add(rect(4.235752610430136e-09, 1.5540250804773856e-09).transl(2.562672859994068e-08, 4e-08, 0))
hIsland = hIsland.add(rect(2.8187519438273895e-09, 1.4652296828215908e-09).transl(-7.747097474475473e-08, 2.7693358642268093e-08, 0))
hIsland = hIsland.sub(rect(5.346004446079993e-09, -1.942320410416824e-09).transl(-5.7515163952737635e-09, 4e-08, 0))
hIsland = hIsland.add(rect(8.653617105447315e-09, 3.6790162661210086e-09).transl(-7.015423035398344e-08, 3.316716740718578e-08, 0))
hIsland = hIsland.add(rect(8.271303964029081e-09, 1.4373575210866477e-10).transl(-5.062422281952225e-08, 3.9686356695893255e-08, 0))
hIsland = hIsland.add(rect(4.993426532499849e-09, 2.716933728598402e-09).transl(-6.266713384214347e-08, 3.678832216004342e-08, 0))
hIsland = hIsland.sub(rect(3.047081616436044e-09, -2.1484640809413504e-09).transl(-1.2610126461757747e-08, 4e-08, 0))
hIsland = hIsland.sub(rect(8.33815783088273e-09, -3.4621964975088687e-09).transl(-8.025972327234407e-08, 2.4853179378917828e-08, 0))
hIsland = hIsland.add(rect(3.264646778873516e-09, 1.227417831075182e-09).transl(-6.857440218719386e-08, 3.40717912969926e-08, 0))
hIsland = hIsland.add(rect(5.791278103961929e-09, 4.6976250256579594e-09).transl(1.976815139732783e-08, 4e-08, 0))
hIsland = hIsland.add(rect(9.889621201328882e-09, 8.75545127342078e-10).transl(-6.830427400410543e-08, 3.4218306421184626e-08, 0))
hIsland = hIsland.add(rect(2.1051564402545976e-09, 1.0304811422147082e-10).transl(2.8667597076234986e-08, 4e-08, 0))
hIsland = hIsland.add(rect(7.2591449123021185e-09, 2.1368018184062924e-09).transl(-8.415183441886224e-10, 4e-08, 0))
hIsland = hIsland.sub(rect(9.61721420044567e-09, -1.3597186536490183e-09).transl(3.307315668696752e-08, 4e-08, 0))
hIsland = hIsland.add(rect(4.851271738696506e-09, 7.867048346757257e-10).transl(-2.7367873457960804e-09, 4e-08, 0))
hIsland = hIsland.add(rect(6.373795316030478e-09, 5.173410943490333e-10).transl(-5.489022429451341e-08, 3.9021953564291244e-08, 0))
hIsland = hIsland.sub(rect(7.145287716269326e-09, -5.673824365933253e-10).transl(6.088083548200874e-08, 3.7426329301078784e-08, 0))
hIsland = hIsland.sub(rect(5.712091655146522e-09, -9.192591630184955e-10).transl(-3.7248762006094166e-08, 4e-08, 0))
hIsland = hIsland.add(rect(7.63947397896021e-09, 2.4410715931693946e-09).transl(6.860597339133458e-08, 3.405451571656049e-08, 0))
hIsland = hIsland.sub(rect(7.276830795868459e-09, -1.8282233456566507e-09).transl(-3.9581779371261405e-08, 4e-08, 0))
hIsland = hIsland.add(rect(8.50968121996576e-09, 6.042282350200878e-10).transl(5.632595826031369e-08, 3.871233746735243e-08, 0))
hIsland = hIsland.sub(rect(4.76519244751157e-09, -5.356866507670593e-10).transl(-4.2796624038342014e-08, 4e-08, 0))
hIsland = hIsland.sub(rect(5.9299529013123715e-09, -1.0834857579723448e-10).transl(-7.768664091769131e-09, 4e-08, 0))
hIsland = hIsland.sub(rect(6.545352440579226e-09, -9.304165919362933e-12).transl(7.896302472500774e-08, 2.6241242842119207e-08, 0))
hIsland = hIsland.add(rect(2.043833254508588e-09, 1.6337505866728074e-09).transl(-3.227816078045346e-08, 4e-08, 0))
hIsland = hIsland.sub(rect(9.496732344697435e-09, -1.319329786659077e-09).transl(-5.956678688002133e-08, 3.784630354921585e-08, 0))
hIsland = hIsland.sub(rect(4.5038636691263254e-09, -1.2676550994984757e-09).transl(6.143089355736372e-08, 3.7238246494703046e-08, 0))
hIsland = hIsland.sub(rect(9.681050498847149e-09, -6.019653383393757e-11).transl(-7.155125635402698e-08, 3.229531371146088e-08, 0))
hIsland = hIsland.add(rect(8.010325711558684e-09, 1.558420296965058e-10).transl(7.732227316849496e-08, 2.7830466044849734e-08, 0))
hIsland = hIsland.sub(rect(5.907932009313248e-09, -8.759671734432108e-10).transl(9.933776169529022e-09, 4e-08, 0))
hIsland = hIsland.sub(rect(7.196552502762312e-09, -1.403795506756115e-09).transl(-5.003750735754685e-09, 4e-08, 0))
hIsland = hIsland.add(rect(5.543896717643614e-09, 1.2346276035382659e-09).transl(4.0339890669341476e-08, 4e-08, 0))
hIsland = hIsland.add(rect(8.507173758682812e-09, 1.4813114240185955e-09).transl(2.561117789427131e-08, 4e-08, 0))
hIsland = hIsland.add(rect(4.350049323016809e-09, 1.7635315407915093e-09).transl(-9.71174405489279e-09, 4e-08, 0))
hIsland = hIsland.add(rect(9.150381599269993e-09, 2.280644056968132e-09).transl(-6.374820252911897e-08, 3.6363106001356464e-08, 0))
hIsland = hIsland.sub(rect(5.942963356307094e-09, -1.7669724615914764e-09).transl(-7.673384918152623e-08, 2.8360470714708184e-08, 0))
hIsland = hIsland.add(rect(3.272894093469823e-09, 1.1699572403698288e-10).transl(-1.2123917038259393e-08, 4e-08, 0))
hIsland = hIsland.sub(rect(2.7351049009014057e-09, -3.0540550124855016e-11).transl(-7.637416748980698e-08, 2.867492200611058e-08, 0))
hIsland = hIsland.add(rect(5.266089174127838e-09, 4.925579117403219e-10).transl(-7.15223735015333e-08, 3.231406012946223e-08, 0))
hIsland = hIsland.add(rect(5.838286710534288e-09, 2.265269512363119e-09).transl(-3.407322495563894e-09, 4e-08, 0))
hIsland = hIsland.sub(rect(9.125208563030712e-09, -2.0718797618258233e-11).transl(-6.226011622410458e-08, 3.6940669285404823e-08, 0))
hIsland = hIsland.sub(rect(8.616461512448463e-09, -1.4251913370398464e-09).transl(9.063098152482505e-09, 4e-08, 0))
hIsland = hIsland.sub(rect(3.3933157312657346e-09, -1.6678297827883947e-09).transl(-6.475443371083853e-08, 3.593972840793071e-08, 0))
hIsland = hIsland.add(rect(2.10546799699961e-09, 9.954345292930193e-10).transl(6.717335982102609e-08, 3.480703336613101e-08, 0))
hIsland = hIsland.add(rect(4.870240655231393e-09, 8.996513608033314e-10).transl(1.1267092403115917e-08, 4e-08, 0))
hIsland = hIsland.add(rect(4.1973278964809526e-09, 1.2885077135094245e-09).transl(6.27568994284572e-08, 3.675415848681884e-08, 0))
hIsland = hIsland.add(rect(4.0340766694321406e-09, 1.3481004411264629e-09).transl(-6.030918205637866e-08, 3.761406560936878e-08, 0))
hIsland = hIsland.add(rect(4.0865742977760046e-09, 2.478544655878919e-10).transl(4.455939895391224e-09, 4e-08, 0))
hIsland = hIsland.sub(rect(3.7350387688723895e-09, -8.2634509966804e-10).transl(-4.285220583695148e-09, 4e-08, 0))
hIsland = hIsland.sub(rect(7.786327702019147e-09, -1.0529842371344095e-09).transl(-7.748817743299866e-08, 2.7677412668372843e-08, 0))
hIsland = hIsland.add(rect(3.5386711050979386e-09, 2.1607396877535584e-09).transl(-3.47177948970279e-08, 4e-08, 0))
hIsland = hIsland.sub(rect(2.9984240729831113e-09, -1.4834959476287204e-09).transl(-6.571006603429382e-08, 3.551211974487683e-08, 0))
hIsland = hIsland.sub(rect(6.181025431498544e-09, -3.3037820097778834e-09).transl(4.9333582786448204e-08, 3.981408706818464e-08, 0))
hIsland = hIsland.sub(rect(7.724173853351197e-09, -1.5972452701649622e-09).transl(-2.407868531681921e-09, 4e-08, 0))
hIsland = hIsland.add(rect(8.620543278170533e-09, 1.5448171327840328e-09).transl(-7.603520182558112e-08, 2.8964908493995602e-08, 0))
hIsland = hIsland.sub(rect(3.876598610674742e-09, -1.0133484978108783e-09).transl(8.668127623029653e-08, 1.5076331526510633e-08, 0))
hIsland = hIsland.sub(rect(9.499440422426801e-09, -7.674948512526612e-10).transl(6.649116701309392e-09, 4e-08, 0))
hIsland = hIsland.add(rect(6.3738560055918775e-09, 8.975936695854164e-10).transl(-2.9204697375352607e-08, 4e-08, 0))
vIsland = hIsland.rotz(pi / 2)
hIslands = hIslands.add(hIsland.transl(-a/2, a, 0))
hIsland = rect(islandLength-2*ellipseConstant, islandWidth)
hIsland = hIsland.add(ellipse(ellipseConstant*2, islandWidth).transl(islandLength/2-ellipseConstant, 0, 0))
hIsland = hIsland.add(ellipse(ellipseConstant*2, islandWidth).transl(-islandLength/2+ellipseConstant, 0, 0))
hIsland = hIsland.sub(rect(2.1201541250508555e-09, -1.5812407422999505e-09).transl(-2.6492121098021206e-08, -4e-08, 0))
hIsland = hIsland.add(rect(5.92213213329663e-09, 8.857723324238601e-10).transl(2.19918063261111e-08, -4e-08, 0))
hIsland = hIsland.sub(rect(3.64867433187128e-09, -2.024039819617637e-09).transl(-7.33703628879581e-08, -3.1049112950243745e-08, 0))
hIsland = hIsland.add(rect(6.637524380604723e-09, 1.8544921903674286e-10).transl(-3.714998602116639e-08, -4e-08, 0))
hIsland = hIsland.add(rect(7.766213374808805e-09, 8.525147843775473e-10).transl(2.4989977194558237e-08, -4e-08, 0))
hIsland = hIsland.sub(rect(4.6832240210371815e-09, -4.1809380805050285e-09).transl(-4.079155843123572e-09, -4e-08, 0))
hIsland = hIsland.sub(rect(4.482343246912511e-09, -5.394085411896681e-10).transl(-2.552378428865539e-08, -4e-08, 0))
hIsland = hIsland.sub(rect(3.845048841932618e-09, -1.2364861619967168e-09).transl(-7.692628727266802e-08, -2.8189302669173686e-08, 0))
hIsland = hIsland.sub(rect(8.295063947396534e-09, -3.994687381504527e-09).transl(-2.2676618048751712e-08, -4e-08, 0))
hIsland = hIsland.add(rect(2.7317976439747913e-09, 1.1597446489003695e-09).transl(-2.2824025562345774e-08, -4e-08, 0))
hIsland = hIsland.sub(rect(8.726012182804256e-09, -3.284047848745238e-12).transl(-1.2087517455223541e-08, -4e-08, 0))
hIsland = hIsland.sub(rect(7.429666311587164e-09, -7.420918534606373e-10).transl(-9.846146506677554e-10, -4e-08, 0))
hIsland = hIsland.sub(rect(3.844079168123114e-09, -2.065462550036463e-09).transl(-8.492113311237064e-08, -1.846030121123139e-08, 0))
hIsland = hIsland.add(rect(3.21216109190509e-09, 8.807509261730646e-10).transl(-2.3028455953483756e-08, -4e-08, 0))
hIsland = hIsland.sub(rect(2.9852624864944295e-09, -3.1178654977298482e-09).transl(6.90499439560998e-08, -3.38081757453199e-08, 0))
hIsland = hIsland.sub(rect(8.250161509795401e-09, -2.9528917586364586e-09).transl(4.3347933793517744e-08, -4e-08, 0))
hIsland = hIsland.sub(rect(8.367021006240166e-09, -1.163905331861943e-09).transl(-1.7937175362466597e-08, -4e-08, 0))
hIsland = hIsland.add(rect(7.579935990836343e-09, 4.2509682674254704e-09).transl(-8.268582797438407e-08, -2.1859770726280186e-08, 0))
hIsland = hIsland.sub(rect(4.150695667055369e-09, -9.048266482764121e-10).transl(4.1157412966808e-08, -4e-08, 0))
hIsland = hIsland.sub(rect(5.190863466643331e-09, -1.2276548576383208e-10).transl(7.902006850890844e-08, -2.6182794292385494e-08, 0))
hIsland = hIsland.add(rect(2.807128723175119e-09, 1.683962324746551e-09).transl(-8.025581972087973e-08, -2.4857554494637823e-08, 0))
hIsland = hIsland.add(rect(4.365921167307704e-09, 2.9909480242593012e-09).transl(-8.753429482193559e-08, -1.3058917248540505e-08, 0))
hIsland = hIsland.sub(rect(4.855227953404372e-09, -1.6019607487108714e-09).transl(8.745530087401893e-08, -1.3260465409303365e-08, 0))
hIsland = hIsland.add(rect(2.1706775367784045e-09, 1.7263301431236445e-09).transl(2.0081901858945373e-09, -4e-08, 0))
hIsland = hIsland.add(rect(3.6314345879767862e-09, 1.124512227487226e-09).transl(1.786046853025363e-08, -4e-08, 0))
hIsland = hIsland.add(rect(7.802701787542501e-09, 3.062326885605999e-10).transl(2.1287872940855648e-08, -4e-08, 0))
hIsland = hIsland.sub(rect(8.746825238183252e-09, -3.0461873890460364e-10).transl(-3.9478707170358094e-08, -4e-08, 0))
hIsland = hIsland.add(rect(7.706256785120998e-09, 4.4527363833549587e-10).transl(-6.663567884436377e-08, -3.50733681915649e-08, 0))
hIsland = hIsland.add(rect(9.086073198883064e-09, 2.6723896778677995e-10).transl(5.4999981732420694e-08, -3.899984542268831e-08, 0))
hIsland = hIsland.sub(rect(4.5546905785901395e-09, -1.873058926404768e-09).transl(1.688572466928307e-08, -4e-08, 0))
hIsland = hIsland.sub(rect(8.873208159891355e-09, -1.5569008860960037e-09).transl(-6.193461629120101e-08, -3.705951192413551e-08, 0))
hIsland = hIsland.add(rect(4.565075887724808e-09, 8.044587985981252e-10).transl(-4.13846374214212e-08, -4e-08, 0))
hIsland = hIsland.sub(rect(3.01366006933004e-09, -2.794147536818241e-10).transl(-5.523505291361778e-08, -3.895163133539149e-08, 0))
hIsland = hIsland.sub(rect(8.347640198531821e-09, -5.5045881234214045e-09).transl(-6.268753029289501e-08, -3.678057750619506e-08, 0))
hIsland = hIsland.add(rect(6.986936922585011e-09, 2.085030867065681e-09).transl(1.3490498398903817e-08, -4e-08, 0))
hIsland = hIsland.add(rect(7.3978383955773946e-09, 3.1898398570064983e-09).transl(-6.814778148257646e-09, -4e-08, 0))
hIsland = hIsland.add(rect(9.281387485488008e-09, 1.9435871858020886e-09).transl(-8.634688554702598e-09, -4e-08, 0))
hIsland = hIsland.sub(rect(2.6592371098415806e-09, -1.513890113124793e-09).transl(-3.1084361899568936e-08, -4e-08, 0))
hIsland = hIsland.sub(rect(9.78307389826962e-09, -2.714835075871246e-09).transl(3.0644286594434036e-08, -4e-08, 0))
hIsland = hIsland.add(rect(5.951810549428613e-09, 9.676592444079999e-10).transl(4.594674372191435e-08, -3.9991146440675076e-08, 0))
hIsland = hIsland.add(rect(5.0963453595846905e-09, 4.569241688239766e-11).transl(-1.9092555733068805e-08, -4e-08, 0))
hIsland = hIsland.sub(rect(2.6147116762002888e-09, -1.5794582675297845e-09).transl(-5.1370525446799604e-08, -3.959714573109685e-08, 0))
hIsland = hIsland.sub(rect(6.153430363369042e-09, -1.3807165662482173e-09).transl(-4.0120133391977755e-09, -4e-08, 0))
hIsland = hIsland.sub(rect(4.126341469760014e-09, -1.8025509326087746e-09).transl(9.666022429657187e-09, -4e-08, 0))
hIsland = hIsland.sub(rect(5.603990530182585e-09, -4.034674720215433e-09).transl(4.737872508970992e-09, -4e-08, 0))
hIsland = hIsland.add(rect(2.325769429598953e-09, 2.2443477836915876e-09).transl(1.4975479659035034e-08, -4e-08, 0))
hIsland = hIsland.add(rect(8.244925287504e-09, 4.3978405854563667e-10).transl(-2.6652385170344466e-08, -4e-08, 0))
hIsland = hIsland.sub(rect(3.178901586371719e-09, -1.6420136883111632e-09).transl(5.600576762124526e-08, -3.8785239183511455e-08, 0))
hIsland = hIsland.sub(rect(4.269062354434783e-09, -1.764895699516145e-09).transl(4.9556060545770065e-08, -3.979445770508873e-08, 0))
hIsland = hIsland.add(rect(2.203333706652808e-09, 2.4885599230946005e-09).transl(-4.571438556241812e-08, -3.999495922083326e-08, 0))
hIsland = hIsland.sub(rect(4.646063079736745e-09, -4.9168853702338884e-09).transl(-1.9700511781137435e-08, -4e-08, 0))
hIsland = hIsland.add(rect(6.930040306557261e-09, 2.8813900334802326e-09).transl(8.170191660588914e-08, -2.3144750175896896e-08, 0))
hIsland = hIsland.add(rect(8.43715734865923e-09, 1.5142978385813883e-09).transl(8.228738172339425e-08, -2.2393141175917036e-08, 0))
hIsland = hIsland.sub(rect(2.348299160216298e-09, -1.855190895467039e-09).transl(-2.6936024125739028e-08, -4e-08, 0))
hIsland = hIsland.sub(rect(3.95459702803221e-09, -3.813966935686491e-09).transl(-4.853211439622066e-08, -3.987659153448928e-08, 0))
hIsland = hIsland.sub(rect(9.716410785723926e-09, -2.8931331859485693e-09).transl(1.609904787718297e-08, -4e-08, 0))
hIsland = hIsland.add(rect(4.0846120705998085e-09, 6.510131918533057e-11).transl(1.6461252521337535e-08, -4e-08, 0))
hIsland = hIsland.sub(rect(8.977268441531335e-09, -3.591886008346973e-11).transl(-6.341260484262147e-08, -3.649834478002474e-08, 0))
hIsland = hIsland.sub(rect(9.228133048606242e-09, -3.4817815020264548e-09).transl(4.1337406107024133e-08, -4e-08, 0))
hIsland = hIsland.sub(rect(2.2959651475893405e-09, -1.661409918387728e-10).transl(4.40206409385032e-08, -4e-08, 0))
hIsland = hIsland.add(rect(6.727815624883739e-09, 1.064912914883222e-09).transl(-4.692349851858553e-08, -3.996344159921078e-08, 0))
hIsland = hIsland.sub(rect(7.677688696319104e-09, -1.3944829611949495e-09).transl(5.815002046894388e-08, -3.8254012223467114e-08, 0))
hIsland = hIsland.add(rect(6.78630132683458e-09, 4.2902366472622746e-09).transl(-3.3962849678611092e-09, -4e-08, 0))
hIsland = hIsland.sub(rect(7.957282127797489e-09, -1.2804775329884296e-10).transl(-8.957120678638325e-08, -5.5087827056569295e-09, 0))
hIsland = hIsland.add(rect(6.0641700123104346e-09, 3.721901794639971e-10).transl(-2.628963938641408e-08, -4e-08, 0))
hIsland = hIsland.sub(rect(4.194973667727732e-09, -4.4300055404297365e-10).transl(-3.313832107554746e-08, -4e-08, 0))
hIsland = hIsland.add(rect(6.583915573389699e-09, 4.733161603668732e-09).transl(5.353293005951634e-08, -3.927429698459408e-08, 0))
hIsland = hIsland.add(rect(3.959524251608961e-09, 1.0507357486551215e-09).transl(-4.4675506450657226e-08, -4e-08, 0))
hIsland = hIsland.add(rect(3.253146665722642e-09, 3.75056281773772e-09).transl(6.931357851981998e-08, -3.365885380043344e-08, 0))
hIsland = hIsland.sub(rect(3.662488162169183e-09, -1.2779273602141471e-09).transl(5.113992378805005e-08, -3.962591830086359e-08, 0))
hIsland = hIsland.sub(rect(3.2692871241660654e-09, -2.6196255783783924e-09).transl(3.4192865318379496e-08, -4e-08, 0))
hIsland = hIsland.add(rect(9.902706512404144e-09, 3.251503253542505e-11).transl(-2.5783612452911835e-09, -4e-08, 0))
hIsland = hIsland.sub(rect(5.026332875588341e-09, -3.982926074183662e-09).transl(2.745985515868809e-09, -4e-08, 0))
hIsland = hIsland.sub(rect(3.2726056142672672e-09, -5.617407228588623e-10).transl(9.520303748900087e-09, -4e-08, 0))
hIsland = hIsland.sub(rect(8.875547327270814e-09, -1.1693973720682865e-09).transl(3.116216142456367e-08, -4e-08, 0))
hIsland = hIsland.add(rect(4.922099997570793e-09, 2.91304479079737e-09).transl(8.452164694368503e-08, -1.9127422968587008e-08, 0))
hIsland = hIsland.add(rect(3.2039872629362406e-09, 2.879836239036096e-09).transl(-8.520910028794678e-09, -4e-08, 0))
hIsland = hIsland.add(rect(6.941696913382855e-09, 1.9829670238064859e-10).transl(-1.8317540174735755e-08, -4e-08, 0))
hIsland = hIsland.add(rect(4.139445280502891e-09, 4.3257697807281835e-09).transl(-4.4909031672070856e-10, -4e-08, 0))
hIsland = hIsland.add(rect(3.048706699211729e-09, 7.945872432815326e-10).transl(6.394836437029888e-08, -3.628103732373473e-08, 0))
hIsland = hIsland.add(rect(6.288948354489294e-09, 9.703948630265014e-10).transl(7.430499574377596e-08, -3.035548689703995e-08, 0))
hIsland = hIsland.add(rect(2.7747404340174846e-09, 2.1065051543732312e-09).transl(7.3669502210311495e-09, -4e-08, 0))
hIsland = hIsland.sub(rect(5.275971048896272e-09, -1.262954777501328e-09).transl(4.105621316049551e-08, -4e-08, 0))
hIsland = hIsland.sub(rect(4.956815723049073e-09, -2.0011153747394054e-09).transl(7.735401364265603e-08, -2.780130987177283e-08, 0))
hIsland = hIsland.add(rect(9.88654281849093e-09, 3.6142275027385012e-09).transl(-2.5050750181991246e-08, -4e-08, 0))
hIsland = hIsland.sub(rect(5.4646850454988216e-09, -7.735968731075945e-10).transl(-2.1618050371916416e-08, -4e-08, 0))
hIsland = hIsland.add(rect(6.993435475841943e-09, 1.1602873027945012e-09).transl(-5.081940667797559e-10, -4e-08, 0))
hIsland = hIsland.add(rect(8.152538303216332e-09, 2.4697318680404192e-09).transl(8.43713037173073e-08, -1.937085388226434e-08, 0))
hIsland = hIsland.sub(rect(9.85513377170117e-09, -1.4212479456133485e-09).transl(6.533743689742073e-08, -3.5681871848628814e-08, 0))
hIsland = hIsland.add(rect(5.241306600115024e-09, 1.28751802226272e-09).transl(5.855451238990561e-08, -3.814229569761064e-08, 0))
hIsland = hIsland.add(rect(2.0914407054029384e-09, 1.4647417327551024e-09).transl(-1.44356829052348e-08, -4e-08, 0))
hIsland = hIsland.add(rect(7.238274339735362e-09, 3.8193552017202076e-10).transl(-2.6290077740596713e-10, -4e-08, 0))
hIsland = hIsland.sub(rect(9.010920397873381e-09, -1.1326567152716873e-10).transl(6.971574394141413e-08, -3.3426619112938165e-08, 0))
hIsland = hIsland.sub(rect(3.324908757350774e-09, -8.341804843190808e-10).transl(-2.8563148919428784e-08, -4e-08, 0))
hIsland = hIsland.sub(rect(3.893240774054156e-09, -4.465550093147204e-09).transl(5.069773797231531e-08, -3.967807026369771e-08, 0))
hIsland = hIsland.add(rect(2.628160599043535e-09, 1.3227832545861053e-09).transl(5.051976155339459e-08, -3.9697943298591754e-08, 0))
hIsland = hIsland.sub(rect(7.942366239683279e-09, -1.0313612041722802e-09).transl(-4.1560138187604914e-09, -4e-08, 0))
hIsland = hIsland.sub(rect(8.023373381766104e-09, -9.293713208171924e-10).transl(1.2470055666899353e-08, -4e-08, 0))
hIsland = hIsland.sub(rect(7.13251780689577e-09, -2.8051452626363027e-09).transl(-1.5162771807420344e-08, -4e-08, 0))
hIsland = hIsland.add(rect(4.676511811185746e-09, 1.1624633818773738e-09).transl(8.966004986532453e-08, -4.9074352076633894e-09, 0))
hIsland = hIsland.add(rect(3.8403873503994374e-09, 9.006653207085406e-10).transl(-8.608737659183872e-08, -1.6313653687400438e-08, 0))
hIsland = hIsland.add(rect(4.834402154084741e-09, 2.104651273702287e-10).transl(3.254145293412302e-08, -4e-08, 0))
hIsland = hIsland.sub(rect(9.036861083291465e-09, -1.3916829645053116e-09).transl(7.123844941254547e-08, -3.249668576362803e-08, 0))
hIsland = hIsland.sub(rect(3.027596387732806e-09, -2.1692256236670963e-09).transl(6.702361820900704e-08, -3.488206858724903e-08, 0))
hIsland = hIsland.sub(rect(7.036129343438994e-09, -2.2285061951518893e-09).transl(2.2113966057674663e-08, -4e-08, 0))
hIsland = hIsland.sub(rect(4.9291936805097185e-09, -1.1518616397882888e-10).transl(-9.882615502080251e-09, -4e-08, 0))
hIsland = hIsland.sub(rect(4.944893731171887e-09, -2.3525628047326225e-09).transl(5.8766513680621406e-08, -3.808225640250567e-08, 0))
hIsland = hIsland.add(rect(4.141321340218814e-09, 5.92214727335865e-10).transl(8.588279482801197e-08, -1.671482434042908e-08, 0))
hIsland = hIsland.sub(rect(8.294419607394936e-09, -1.0997172851308966e-09).transl(-8.771922136197814e-08, -1.2572928039540199e-08, 0))
hIsland = hIsland.add(rect(5.429987942697295e-09, 8.240270406108192e-10).transl(-1.958550548706494e-08, -4e-08, 0))
hIsland = hIsland.add(rect(5.25521943996766e-09, 1.448966584332364e-09).transl(-2.4178769406593804e-08, -4e-08, 0))
hIsland = hIsland.add(rect(3.646390920915978e-09, 1.5271129379644057e-09).transl(-8.184825622130693e-08, -2.2960294461034577e-08, 0))
hIsland = hIsland.add(rect(2.1993439787718104e-09, 2.250587509320214e-09).transl(-4.513449946531653e-08, -3.9999821331885713e-08, 0))
hIsland = hIsland.sub(rect(6.446621543317439e-09, -2.4261645732507107e-09).transl(-7.19324420997965e-08, -3.2044950682283984e-08, 0))
hIsland = hIsland.add(rect(6.116221066977891e-09, 3.7223006608252395e-09).transl(-2.0296645464086436e-09, -4e-08, 0))
hIsland = hIsland.add(rect(3.819785333603854e-09, 5.973227545230012e-10).transl(-7.252443649697272e-08, -3.1645011175001484e-08, 0))
hIsland = hIsland.sub(rect(9.320157647241535e-09, -2.3028673202198878e-09).transl(7.3531273441160656e-09, -4e-08, 0))
hIsland = hIsland.sub(rect(9.53568663243717e-09, -2.0076572194991697e-10).transl(5.980164365681224e-08, -3.7774236122160574e-08, 0))
hIsland = hIsland.add(rect(5.534319497601599e-09, 3.024799969279415e-10).transl(6.028348219058145e-08, -3.7622322474161164e-08, 0))
hIsland = hIsland.sub(rect(5.404598052881946e-09, -6.060043827384129e-11).transl(1.3169013279546705e-08, -4e-08, 0))
hIsland = hIsland.sub(rect(5.1872921674857115e-09, -1.0716415859184044e-10).transl(-7.118385279816626e-08, -3.253146142330482e-08, 0))
hIsland = hIsland.sub(rect(3.9222872788162115e-09, -3.379638916686984e-09).transl(-6.260402212389766e-08, -3.6812219174375774e-08, 0))
hIsland = hIsland.sub(rect(4.5797853549311385e-09, -5.75514013384831e-10).transl(8.95491631499177e-08, -5.647912330450723e-09, 0))
hIsland = hIsland.sub(rect(5.992457154808573e-09, -3.5100856623368087e-10).transl(2.6074741798668677e-09, -4e-08, 0))
hIsland = hIsland.sub(rect(6.331266656310201e-09, -2.123306435328077e-09).transl(4.616948823532327e-09, -4e-08, 0))
hIsland = hIsland.add(rect(8.860800633941209e-09, 6.451218928766122e-10).transl(-2.0275515432297892e-08, -4e-08, 0))
hIsland = hIsland.sub(rect(7.805425062836071e-09, -1.341179236895089e-09).transl(-2.411126279651607e-08, -4e-08, 0))
hIsland = hIsland.add(rect(4.993992792313824e-09, 8.377833119247892e-10).transl(1.8503278799099558e-08, -4e-08, 0))
hIsland = hIsland.add(rect(5.135190735948016e-09, 3.1970846321649236e-09).transl(8.338424528745171e-08, -2.087753286995362e-08, 0))
hIsland = hIsland.add(rect(8.181280771470295e-09, 2.6273922241746365e-09).transl(2.769142883429869e-08, -4e-08, 0))
hIsland = hIsland.sub(rect(5.30388231033573e-09, -8.561543718414039e-10).transl(1.827620034308152e-08, -4e-08, 0))
hIsland = hIsland.sub(rect(7.909226302624839e-09, -3.064035881704074e-09).transl(-8.286671095075788e-08, -2.1611377008759054e-08, 0))
hIsland = hIsland.add(rect(6.677737753809552e-09, 1.4686214156136043e-09).transl(-3.824573936948533e-08, -4e-08, 0))
hIsland = hIsland.add(rect(6.74543274457409e-09, 1.9963397845997235e-09).transl(7.256119283811974e-08, -3.1619723794047194e-08, 0))
hIsland = hIsland.add(rect(5.1195720315886914e-09, 3.3217613176827697e-09).transl(-4.9501384313105515e-08, -3.9799373795093345e-08, 0))
hIsland = hIsland.add(rect(7.318625369073165e-09, 3.6688151971726796e-09).transl(2.3115146931575007e-08, -4e-08, 0))
hIsland = hIsland.add(rect(4.0035731973236524e-09, 3.922326816257704e-09).transl(3.619630286133809e-08, -4e-08, 0))
hIsland = hIsland.sub(rect(6.284869946717655e-09, -2.5927062098703557e-09).transl(7.145390148852928e-08, -3.235837711793989e-08, 0))
hIsland = hIsland.add(rect(8.770405083296848e-09, 1.4306079996612148e-09).transl(1.2126001768456866e-09, -4e-08, 0))
hIsland = hIsland.sub(rect(4.95665064263199e-09, -1.0596916663248207e-09).transl(6.315781191838427e-08, -3.659906351185716e-08, 0))
hIsland = hIsland.sub(rect(4.80113051379815e-09, -1.2136025940887637e-10).transl(-6.979773631284889e-08, -3.3378603614679706e-08, 0))
hIsland = hIsland.add(rect(3.4976893238937327e-09, 1.7932728267686635e-09).transl(-8.199491728451746e-08, -2.2773189263343614e-08, 0))
hIsland = hIsland.sub(rect(7.724214896834632e-09, -1.986140452378163e-09).transl(-6.352016301822003e-08, -3.6455321539739185e-08, 0))
hIsland = hIsland.sub(rect(6.747863788457721e-09, -2.5182486066522853e-10).transl(-8.533422954336741e-08, -1.773661739889887e-08, 0))
hIsland = hIsland.add(rect(6.4562137989751194e-09, 4.176724202810038e-09).transl(-6.320749382943071e-08, -3.657955625163343e-08, 0))
hIsland = hIsland.add(rect(6.0670645926910864e-09, 1.041632786612429e-09).transl(-7.639521062627533e-08, -2.8656718339002735e-08, 0))
hIsland = hIsland.sub(rect(2.049415993721233e-09, -3.772262824925763e-09).transl(-2.0811249460516517e-08, -4e-08, 0))
hIsland = hIsland.sub(rect(4.2105315827980314e-09, -1.7538665402506642e-09).transl(-9.18019924425291e-09, -4e-08, 0))
hIsland = hIsland.sub(rect(4.116655720418693e-09, -3.7757301271265116e-09).transl(-1.9837233520103276e-08, -4e-08, 0))
hIsland = hIsland.add(rect(5.492704224588257e-09, 5.338614346642873e-10).transl(-7.646349783555763e-08, -2.859748142517447e-08, 0))
hIsland = hIsland.add(rect(6.082309957981944e-09, 3.8237894977470837e-10).transl(2.783184219854888e-08, -4e-08, 0))
hIsland = hIsland.add(rect(8.036558537956424e-09, 5.246482206699961e-10).transl(1.2675476771431874e-08, -4e-08, 0))
hIsland = hIsland.add(rect(3.5297149383367882e-09, 4.042582484062535e-09).transl(-6.518171731829713e-08, -3.575166236476874e-08, 0))
hIsland = hIsland.add(rect(6.484615471175771e-09, 2.5856771194116182e-11).transl(8.243546291918916e-08, -2.219707227543311e-08, 0))
hIsland = hIsland.sub(rect(6.919041642501085e-09, -2.837421287115022e-10).transl(-1.2241778965586379e-08, -4e-08, 0))
hIsland = hIsland.add(rect(4.641551321762965e-09, 6.585315067053885e-10).transl(1.3805850406811379e-08, -4e-08, 0))
hIsland = hIsland.add(rect(8.890734572073807e-09, 7.371017765309021e-10).transl(-7.750466526057475e-08, -2.7662112771819825e-08, 0))
hIsland = hIsland.sub(rect(9.153908069025334e-09, -7.254028858171076e-11).transl(-3.665501262293835e-08, -4e-08, 0))
hIsland = hIsland.sub(rect(9.960968619443197e-09, -2.679695228415729e-09).transl(-2.7982121699388852e-08, -4e-08, 0))
hIsland = hIsland.sub(rect(6.483162666671231e-09, -2.8613352286571285e-09).transl(-7.490741570980887e-08, -2.988764455813018e-08, 0))
hIsland = hIsland.add(rect(3.4853581568347815e-09, 2.0899232293474648e-09).transl(-3.2143370602390063e-08, -4e-08, 0))
hIsland = hIsland.sub(rect(7.313458207365284e-09, -1.046725123689899e-09).transl(-8.966243932409154e-09, -4e-08, 0))
hIsland = hIsland.sub(rect(6.23748031518997e-09, -6.625921701213009e-10).transl(-1.887916175824753e-09, -4e-08, 0))
hIsland = hIsland.sub(rect(6.6389325529883016e-09, -3.587719943125896e-10).transl(7.412197095781009e-08, -3.049434104192462e-08, 0))
hIsland = hIsland.sub(rect(9.793976384780647e-09, -5.519852008966365e-10).transl(7.014489060981745e-08, -3.317276260340669e-08, 0))
hIsland = hIsland.sub(rect(8.961332280697246e-09, -9.289493030651907e-10).transl(2.8704709677280048e-08, -4e-08, 0))
hIsland = hIsland.add(rect(3.2655774996005473e-09, 4.989232933451286e-10).transl(8.745558133588141e-08, -1.3259755905091336e-08, 0))
hIsland = hIsland.sub(rect(3.075877710803017e-09, -5.684778537707753e-10).transl(3.2962781989796805e-09, -4e-08, 0))
hIsland = hIsland.sub(rect(8.60568894298699e-09, -3.575575234252341e-09).transl(4.2475192916727265e-10, -4e-08, 0))
hIsland = hIsland.add(rect(8.271641292117163e-09, 8.079976822063575e-11).transl(-1.3847444629231938e-08, -4e-08, 0))
hIsland = hIsland.add(rect(9.373331672559819e-09, 1.1973315495724931e-09).transl(-7.46644094932232e-08, -3.007838726197237e-08, 0))
hIsland = hIsland.add(rect(8.908085954672693e-09, 3.734205212952027e-10).transl(-1.7944138514591285e-08, -4e-08, 0))
hIsland = hIsland.add(rect(5.756515983962117e-09, 3.4799462509776983e-09).transl(1.3286261858966475e-08, -4e-08, 0))
hIsland = hIsland.add(rect(5.990628864235399e-09, 6.876699885089698e-10).transl(-2.6414297397708008e-08, -4e-08, 0))
hIsland = hIsland.add(rect(9.83312701964382e-09, 3.8595560201242706e-09).transl(8.867063977156888e-09, -4e-08, 0))
hIsland = hIsland.sub(rect(7.726866905275392e-09, -4.3877876252082016e-10).transl(4.5819118473169544e-08, -3.999337273422062e-08, 0))
hIsland = hIsland.add(rect(4.643602578609394e-09, 3.1036415232312177e-09).transl(-1.1397250460095049e-08, -4e-08, 0))
hIsland = hIsland.sub(rect(8.028414746680746e-09, -1.1258839418769965e-09).transl(6.727410815214228e-08, -3.475617056604674e-08, 0))
hIsland = hIsland.add(rect(3.5623139419045197e-09, 1.5695928586056831e-09).transl(-5.8863201077468816e-08, -3.805453299140083e-08, 0))
hIsland = hIsland.add(rect(6.01116895755801e-09, 1.5488683835322832e-10).transl(-1.2791688185861283e-08, -4e-08, 0))
hIsland = hIsland.add(rect(6.525171128457845e-09, 6.573265530640961e-10).transl(6.172104238215048e-08, -3.7136058059798204e-08, 0))
hIsland = hIsland.add(rect(7.6468063183642e-09, 3.6129434300241743e-09).transl(-3.0082613698988785e-08, -4e-08, 0))
hIsland = hIsland.add(rect(6.1224111606139115e-09, 2.0503941383733355e-09).transl(5.5532645706021345e-08, -3.888889777200082e-08, 0))
hIsland = hIsland.sub(rect(3.874238593295756e-09, -2.1006105602625656e-09).transl(4.689965343332913e-08, -3.996434279181656e-08, 0))
hIsland = hIsland.add(rect(2.5807656573440857e-09, 2.490731911597655e-09).transl(-4.147409733819793e-08, -4e-08, 0))
hIsland = hIsland.sub(rect(5.262166639585336e-09, -1.479444585498017e-09).transl(2.74040615283074e-08, -4e-08, 0))
hIsland = hIsland.sub(rect(5.726310333789097e-09, -5.027922042076198e-10).transl(6.673502089014824e-08, -3.502480381804725e-08, 0))
hIsland = hIsland.sub(rect(5.268764457116041e-09, -2.031544355516673e-09).transl(6.210377177001714e-08, -3.6998081938823976e-08, 0))
hIsland = hIsland.sub(rect(4.604986819846643e-09, -3.5829723213700825e-09).transl(6.135709862535648e-08, -3.726390713493787e-08, 0))
hIsland = hIsland.sub(rect(6.60832720835309e-09, -1.1767783719351693e-09).transl(-9.059292214352238e-09, -4e-08, 0))
hIsland = hIsland.sub(rect(6.788704774977714e-09, -1.3011164225923902e-09).transl(-6.450027622618445e-08, -3.604923083280069e-08, 0))
hIsland = hIsland.add(rect(5.161631910277127e-09, 4.3413571372414396e-10).transl(2.566119945948549e-08, -4e-08, 0))
hIsland = hIsland.sub(rect(7.609140507364947e-09, -1.4311388266912357e-11).transl(-4.9391982313589706e-08, -3.980903046736131e-08, 0))
hIsland = hIsland.sub(rect(2.978641211269392e-09, -1.5504562392005484e-09).transl(-1.0288977670832323e-08, -4e-08, 0))
hIsland = hIsland.sub(rect(7.526972910860893e-09, -1.192517713241298e-10).transl(-1.150015334170973e-08, -4e-08, 0))
hIsland = hIsland.sub(rect(8.440198911528076e-09, -2.1884221012710851e-10).transl(-2.95525336503621e-08, -4e-08, 0))
hIsland = hIsland.add(rect(5.254483563673177e-09, 8.977619275009213e-10).transl(7.420330999141554e-08, -3.04328177058462e-08, 0))
hIsland = hIsland.add(rect(8.239989053167649e-09, 1.0545794398443683e-09).transl(-5.287780941016636e-08, -3.938229338440041e-08, 0))
hIsland = hIsland.sub(rect(6.565345091310081e-09, -5.397472876230087e-10).transl(-8.451490572077653e-09, -4e-08, 0))
hIsland = hIsland.sub(rect(5.7338112494289654e-09, -1.09268199243968e-09).transl(4.633198373227961e-08, -3.998247338824269e-08, 0))
hIsland = hIsland.sub(rect(6.219167540952233e-09, -1.6741456036142485e-09).transl(-6.279637534392726e-08, 3.673906952180265e-08, 0))
hIsland = hIsland.add(rect(2.4975336274433957e-09, 1.5982242157972437e-09).transl(5.6307852396666505e-08, 3.871651932294679e-08, 0))
hIsland = hIsland.add(rect(7.664265474638962e-09, 3.231858958176474e-09).transl(-6.247140953065246e-08, 3.6862103785810073e-08, 0))
hIsland = hIsland.add(rect(6.29978745035851e-09, 5.369327257714611e-10).transl(-3.0316069587756483e-09, 4e-08, 0))
hIsland = hIsland.sub(rect(3.0664260761411967e-09, -1.6147639362319414e-09).transl(-4.0744311109785754e-08, 4e-08, 0))
hIsland = hIsland.sub(rect(8.527873868643717e-09, -6.718636839430832e-10).transl(-3.373812698705955e-08, 4e-08, 0))
hIsland = hIsland.add(rect(7.080120646903943e-09, 2.2787698024534263e-09).transl(-6.730378813562311e-08, 3.474112840432672e-08, 0))
hIsland = hIsland.sub(rect(6.411833742697181e-09, -3.188554626932447e-10).transl(6.578185403075473e-08, 3.5478967992500317e-08, 0))
hIsland = hIsland.sub(rect(9.209440254898685e-09, -2.1423804480023813e-10).transl(2.7485491739610844e-09, 4e-08, 0))
hIsland = hIsland.add(rect(4.944866191401114e-09, 1.1316157690148015e-09).transl(-7.544238155870348e-08, 2.945780198529564e-08, 0))
hIsland = hIsland.add(rect(5.787182395039011e-09, 2.0656888802021564e-09).transl(-7.158447074942561e-09, 4e-08, 0))
hIsland = hIsland.add(rect(9.287260465736967e-09, 2.9601919299647787e-09).transl(2.740813120393843e-09, 4e-08, 0))
hIsland = hIsland.add(rect(5.479815406078585e-09, 1.1763968528543362e-09).transl(-7.995292020992661e-08, 2.5193271589288636e-08, 0))
hIsland = hIsland.sub(rect(6.494517077256189e-09, -1.3160629974315596e-09).transl(5.417136889922323e-08, 3.9160433471055665e-08, 0))
hIsland = hIsland.sub(rect(6.259136836009431e-09, -2.7314475355488897e-09).transl(-4.14550235096367e-08, 4e-08, 0))
hIsland = hIsland.add(rect(8.223646865799704e-09, 4.0520582257303935e-09).transl(-1.3825424192845033e-08, 4e-08, 0))
hIsland = hIsland.sub(rect(6.404117622543201e-09, -5.92349121058297e-09).transl(5.991337046145747e-08, 3.773949832091745e-08, 0))
hIsland = hIsland.add(rect(7.230098067900001e-09, 3.8298303346555894e-09).transl(-1.507919312198877e-08, 4e-08, 0))
hIsland = hIsland.sub(rect(3.4074221831229034e-09, -2.0167831274380064e-09).transl(1.8436846324796523e-08, 4e-08, 0))
hIsland = hIsland.sub(rect(6.182399678822935e-09, -1.3689828995842115e-09).transl(8.030769169032748e-08, 2.479931353093377e-08, 0))
hIsland = hIsland.add(rect(7.57072079937076e-09, 6.368963469216964e-09).transl(-1.3728011128003463e-08, 4e-08, 0))
hIsland = hIsland.add(rect(8.73196444819859e-09, 8.533689338061623e-11).transl(3.943756014094282e-08, 4e-08, 0))
hIsland = hIsland.sub(rect(4.750859922219703e-09, -2.9196600614338387e-09).transl(5.67461757109089e-08, 3.86132694512307e-08, 0))
hIsland = hIsland.sub(rect(6.122835505687457e-09, -9.096562463575615e-11).transl(5.785534407125097e-08, 3.8333070569763534e-08, 0))
hIsland = hIsland.add(rect(4.995577512616388e-09, 6.639476178032925e-10).transl(1.3147788926655598e-08, 4e-08, 0))
hIsland = hIsland.sub(rect(3.048934060787728e-09, -3.335547306092034e-09).transl(5.201080778185285e-08, 3.9511571793298946e-08, 0))
hIsland = hIsland.sub(rect(2.0181642167596678e-09, -2.038048691645283e-09).transl(7.2826672565994e-08, 3.14354684499157e-08, 0))
[...]
hIsland = hIsland.sub(rect(4.987979756868332e-09, -3.477427776139081e-09).transl(7.844089922171999e-08, 2.676583426396677e-08, 0))
hIsland = hIsland.sub(rect(6.291285394057121e-09, -6.003107599337774e-10).transl(6.6711332453321e-08, 3.5036410471775814e-08, 0))
hIsland = hIsland.add(rect(3.9313344060693505e-09, 6.80079256166719e-10).transl(1.6673385327345147e-08, 4e-08, 0))
hIsland = hIsland.sub(rect(9.664056559792545e-09, -4.1948482345726573e-10).transl(-5.504830870771492e-08, 3.8990029668141276e-08, 0))
hIsland = hIsland.add(rect(5.411788401904501e-09, 8.762824312998466e-10).transl(-5.100985581958377e-08, 3.964167038653042e-08, 0))
hIsland = hIsland.add(rect(6.392074360181128e-09, 3.302242771670104e-11).transl(-3.364988844848648e-08, 4e-08, 0))
hIsland = hIsland.add(rect(3.047406243559887e-09, 1.8192801564361958e-09).transl(2.8024109474205756e-08, 4e-08, 0))
hIsland = hIsland.sub(rect(6.792438974049852e-09, -4.4561981721354226e-10).transl(7.262778709833942e-08, 3.1573771018598314e-08, 0))
hIsland = hIsland.sub(rect(8.058573941777372e-09, -5.667927407313727e-10).transl(-5.754538801959289e-08, 3.841412537975632e-08, 0))
hIsland = hIsland.sub(rect(4.864762719809623e-09, -6.574931492681662e-10).transl(8.211914991134531e-08, 2.2612898490911255e-08, 0))
hIsland = hIsland.add(rect(9.615035786074277e-09, 4.919088909161658e-10).transl(-6.24303222934542e-08, 3.6877469340842e-08, 0))
hIsland = hIsland.sub(rect(6.734721432459631e-09, -9.118808155776912e-10).transl(3.7240379500779675e-08, 4e-08, 0))
hIsland = hIsland.sub(rect(4.1708358572440975e-09, -3.302876376814128e-09).transl(-1.064170702324926e-08, 4e-08, 0))
hIsland = hIsland.sub(rect(6.3946083648551286e-09, -2.4754516048337533e-10).transl(2.1058938532263252e-08, 4e-08, 0))
hIsland = hIsland.add(rect(3.6548431796917857e-09, 1.7333565769643751e-09).transl(-1.7008206516240517e-08, 4e-08, 0))
hIsland = hIsland.add(rect(3.3477018995722716e-09, 8.726377575860095e-10).transl(6.840032668973172e-08, 3.4166473620427545e-08, 0))
hIsland = hIsland.sub(rect(3.3984722669619486e-09, -2.491623501457255e-09).transl(-4.7385418627554586e-08, 3.9943760740581155e-08, 0))
hIsland = hIsland.add(rect(4.076789318310652e-09, 2.5566193152811853e-09).transl(5.433726680293239e-08, 3.91294446792862e-08, 0))
hIsland = hIsland.add(rect(8.386180324374494e-09, 1.9355869178197958e-09).transl(7.900921322847909e-09, 4e-08, 0))
hIsland = hIsland.add(rect(3.984141429154449e-09, 3.5324996049851614e-10).transl(3.199126690310332e-08, 4e-08, 0))
hIsland = hIsland.sub(rect(4.114646791032994e-09, -2.8416368336673245e-09).transl(-1.0086658265382126e-09, 4e-08, 0))
hIsland = hIsland.add(rect(8.671982728067612e-09, 1.8770122203304093e-09).transl(5.923874334178657e-08, 3.79448143848878e-08, 0))
hIsland = hIsland.sub(rect(8.771877779713954e-09, -1.5507643124879274e-09).transl(-4.3817292991142456e-08, 4e-08, 0))
hIsland = hIsland.add(rect(4.694061731430542e-09, 1.5191523598339365e-09).transl(5.386278066529351e-08, 3.921653588120195e-08, 0))
hIsland = hIsland.sub(rect(6.2772977727242615e-09, -3.611922202621819e-10).transl(1.3566088138925161e-09, 4e-08, 0))
hIsland = hIsland.sub(rect(3.032346685795238e-09, -4.1317889522257047e-10).transl(6.0487790807050436e-09, 4e-08, 0))
hIsland = hIsland.sub(rect(9.520173314534714e-09, -5.921411773679666e-10).transl(-4.9151782302432676e-08, 3.982939125661053e-08, 0))
hIsland = hIsland.add(rect(2.4410346833874634e-09, 2.232066534137476e-09).transl(-2.527735376801865e-08, 4e-08, 0))
hIsland = hIsland.add(rect(4.313155993541234e-09, 1.2045943159021626e-09).transl(4.012569662957654e-08, 4e-08, 0))
hIsland = hIsland.sub(rect(3.934585152722533e-09, -3.6770845944113375e-10).transl(7.134857385527696e-09, 4e-08, 0))
hIsland = hIsland.sub(rect(3.265263368047472e-09, -1.8410041948873888e-09).transl(2.6472406324905405e-08, 4e-08, 0))
hIsland = hIsland.add(rect(8.7343522386592e-09, 1.9315357779432232e-09).transl(-8.770769385915103e-08, 1.2603832777292517e-08, 0))
hIsland = hIsland.sub(rect(4.382519559501304e-09, -8.38532857781966e-10).transl(-7.733587807449356e-08, 2.7817976092761874e-08, 0))
hIsland = hIsland.add(rect(3.995068974290275e-09, 9.733940982179092e-10).transl(-7.878117076906802e-08, 2.6426062727651658e-08, 0))
hIsland = hIsland.sub(rect(7.846014220069743e-09, -1.207172359124066e-09).transl(-5.272380623999928e-08, 3.9406388574412515e-08, 0))
hIsland = hIsland.add(rect(6.145476914680231e-09, 1.8415232812448462e-09).transl(-6.415934189355401e-08, 3.6193385857322226e-08, 0))
hIsland = hIsland.add(rect(6.78325266881356e-09, 6.489431595597066e-10).transl(-1.3701956604067196e-08, 4e-08, 0))
hIsland = hIsland.add(rect(4.154773850904407e-09, 3.8323055944464796e-09).transl(-2.0263908653150758e-08, 4e-08, 0))
hIsland = hIsland.sub(rect(9.697331090284665e-09, -1.6854460847848096e-09).transl(3.837761501420279e-08, 4e-08, 0))
hIsland = hIsland.sub(rect(2.5454109974705893e-09, -1.8171967282799706e-09).transl(5.81642640812295e-08, 3.825014123701475e-08, 0))
hIsland = hIsland.sub(rect(5.206333884543896e-09, -1.638766593982821e-10).transl(3.081233728008831e-08, 4e-08, 0))
hIsland = hIsland.sub(rect(6.74781143002741e-09, -7.497797357766841e-11).transl(5.010815726052256e-08, 3.974145310423321e-08, 0))
hIsland = hIsland.sub(rect(3.0528724527418353e-09, -2.6081012691845647e-09).transl(-8.492244509190469e-08, 1.8458059293866366e-08, 0))
hIsland = hIsland.add(rect(4.984454249814385e-09, 1.0842148895313964e-09).transl(3.7655919632238786e-08, 4e-08, 0))
hIsland = hIsland.add(rect(5.962614002203307e-09, 2.299693978173316e-09).transl(7.754794143284538e-08, 2.7621877298056582e-08, 0))
hIsland = hIsland.sub(rect(4.480471412117845e-09, -4.5871007532889144e-10).transl(7.817648030541784e-08, 2.7024578180107077e-08, 0))
hIsland = hIsland.sub(rect(8.994141419276158e-09, -4.701802450577651e-10).transl(-1.870829480400957e-08, 4e-08, 0))
hIsland = hIsland.add(rect(3.1194819158863753e-09, 2.4187800246318283e-09).transl(-5.079602367471915e-08, 3.966682088547271e-08, 0))
hIsland = hIsland.add(rect(3.8420969668095145e-09, 1.240759712540358e-09).transl(-8.3931905341779e-08, 2.0060289306949856e-08, 0))
hIsland = hIsland.sub(rect(9.174297456698976e-09, -3.984356667231786e-09).transl(-7.882675150745338e-08, 2.6379953218584694e-08, 0))
hIsland = hIsland.sub(rect(6.010780573948339e-09, -7.76481153769837e-09).transl(-8.436616171168615e-08, 1.9379109273100405e-08, 0))
hIsland = hIsland.add(rect(8.569330932973234e-09, 1.9362436761257322e-10).transl(2.143921532852412e-08, 4e-08, 0))
hIsland = hIsland.add(rect(6.35787119739335e-09, 1.2450542782409494e-10).transl(6.533494358663263e-08, 3.568299460752651e-08, 0))
hIsland = hIsland.sub(rect(8.359824157896936e-09, -3.5569574121714363e-09).transl(-7.10375631182949e-08, 3.262410296559548e-08, 0))
hIsland = hIsland.sub(rect(2.5030801848253965e-09, -2.6093642261253183e-09).transl(-7.711786069969687e-08, 2.801682773452534e-08, 0))
hIsland = hIsland.add(rect(3.122833408036968e-09, 3.6493275224870326e-10).transl(3.08817971857912e-08, 4e-08, 0))
hIsland = hIsland.add(rect(3.700284450996676e-09, 2.110924240289199e-09).transl(7.725570359883627e-09, 4e-08, 0))
hIsland = hIsland.sub(rect(7.204139116847294e-09, -5.566288050867419e-10).transl(-8.458127004965091e-08, 1.902976094139659e-08, 0))
hIsland = hIsland.sub(rect(6.4120716059338184e-09, -1.732279583162113e-09).transl(-8.417917165710459e-08, 1.967624391061795e-08, 0))
hIsland = hIsland.add(rect(9.340408930146353e-09, 1.137003276855573e-09).transl(7.36334009041506e-08, 3.0857741004182964e-08, 0))
hIsland = hIsland.add(rect(5.659417797239956e-09, 3.662651282283916e-10).transl(4.084191367738198e-08, 4e-08, 0))
hIsland = hIsland.add(rect(3.464515873151179e-09, 2.967868643642533e-09).transl(1.3143799547324607e-08, 4e-08, 0))
hIsland = hIsland.sub(rect(7.218373875852793e-09, -1.9383331683023156e-10).transl(5.4644652375330495e-08, 3.907049083099721e-08, 0))
hIsland = hIsland.sub(rect(3.335767675633365e-09, -4.4411135911600634e-10).transl(4.8616665027884504e-08, 3.9870602893265315e-08, 0))
hIsland = hIsland.add(rect(5.606586526746728e-09, 1.8222823362401092e-09).transl(-7.778955597075884e-08, 2.7395160704350045e-08, 0))
hIsland = hIsland.add(rect(5.840751439599026e-09, 1.925884767506156e-09).transl(3.8972730903228674e-08, 4e-08, 0))
hIsland = hIsland.add(rect(9.695389998198444e-09, 3.1192854970789863e-09).transl(7.202837469452733e-08, 3.198106799686398e-08, 0))
hIsland = hIsland.sub(rect(3.0532930960395507e-09, -1.7223478238119847e-09).transl(5.4229617121191214e-08, 3.914961910146255e-08, 0))
hIsland = hIsland.sub(rect(7.916050417287291e-09, -2.079008669071552e-09).transl(-7.342053682095359e-08, 3.1012836361851365e-08, 0))
hIsland = hIsland.sub(rect(8.015492286028035e-09, -1.8204215688452587e-09).transl(8.262053393484624e-08, 2.1948454568406387e-08, 0))
hIsland = hIsland.sub(rect(7.249292216954748e-09, -2.030353417773941e-09).transl(-2.8610168413607224e-08, 4e-08, 0))
hIsland = hIsland.add(rect(6.222313892961521e-09, 1.049767582261159e-09).transl(6.656373936254039e-08, 3.5108355950460544e-08, 0))
hIsland = hIsland.add(rect(9.414181770056314e-09, 1.1780954244608727e-09).transl(-1.9114923507156856e-08, 4e-08, 0))
hIsland = hIsland.sub(rect(3.9878960534712476e-09, -1.6130737284769424e-10).transl(-8.135662932929732e-08, 2.3571407727822967e-08, 0))
hIsland = hIsland.add(rect(2.7933216116640235e-09, 2.011458532633811e-09).transl(6.111384531567954e-08, 3.7347552732740364e-08, 0))
hIsland = hIsland.add(rect(7.1340964742831125e-09, 3.0624662625161816e-09).transl(-8.18463155859744e-08, 2.2962755076046376e-08, 0))
hIsland = hIsland.add(rect(4.230909672930291e-09, 7.858023831876048e-10).transl(2.559010073882413e-08, 4e-08, 0))
hIsland = hIsland.sub(rect(2.4419027913706154e-09, -7.944421231815707e-11).transl(6.449084924880958e-08, 3.605325877222379e-08, 0))
hIsland = hIsland.add(rect(4.238455692789658e-09, 1.088351192094357e-10).transl(1.3440525358015884e-08, 4e-08, 0))
hIsland = hIsland.sub(rect(8.71807911673295e-09, -2.4811387542126633e-09).transl(-3.486478606680757e-08, 4e-08, 0))
hIsland = hIsland.add(rect(6.561130332909108e-09, 8.790448814081643e-10).transl(-5.6788375826000136e-08, 3.860310684494133e-08, 0))
hIsland = hIsland.sub(rect(3.953565476879581e-09, -5.222099936052673e-10).transl(6.106599007954848e-08, 3.7363838994487775e-08, 0))
hIsland = hIsland.add(rect(8.118081943853227e-09, 5.070327425662938e-09).transl(-7.600260751305663e-08, 2.8992475173815163e-08, 0))
hIsland = hIsland.sub(rect(7.593067067821998e-09, -1.2264310481606773e-09).transl(-3.968650793018875e-09, 4e-08, 0))
hIsland = hIsland.sub(rect(9.715367915442019e-09, -5.707875147148906e-10).transl(-3.7921609714387473e-08, 4e-08, 0))
hIsland = hIsland.sub(rect(5.180441862342751e-09, -5.823282610824759e-10).transl(8.771542034178891e-09, 4e-08, 0))
hIsland = hIsland.sub(rect(2.328201831288899e-09, -1.813379498830011e-09).transl(-2.871605403605315e-08, 4e-08, 0))
hIsland = hIsland.add(rect(6.850518367680493e-09, 6.383717903561297e-10).transl(-4.269653480382333e-08, 4e-08, 0))
hIsland = hIsland.add(rect(7.743773259706603e-09, 2.001020685508283e-09).transl(5.1028765417373176e-08, 3.963940164780964e-08, 0))
hIsland = hIsland.sub(rect(2.805361205513477e-09, -4.8121437809250575e-11).transl(-5.4647907461503255e-08, 3.906985583356713e-08, 0))
hIsland = hIsland.add(rect(7.3441423124394665e-09, 1.8149060688756181e-09).transl(-4.052987947590473e-08, 4e-08, 0))
hIsland = hIsland.add(rect(4.452148319072348e-09, 7.580090361846376e-10).transl(3.490620360004929e-08, 4e-08, 0))
hIsland = hIsland.add(rect(2.5897487493563597e-09, 2.1999962458495662e-10).transl(1.0160813607315348e-08, 4e-08, 0))
hIsland = hIsland.sub(rect(7.719222869523627e-09, -1.5250851146642821e-09).transl(6.208796320640186e-08, 3.700385312957137e-08, 0))
hIsland = hIsland.add(rect(7.426205073753887e-09, 2.7197581215541198e-09).transl(5.7844219442306575e-08, 3.83360169306613e-08, 0))
hIsland = hIsland.add(rect(7.246546518665791e-09, 8.015385693673402e-10).transl(-6.108415832221112e-08, 3.7357662454337065e-08, 0))
hIsland = hIsland.add(rect(8.406858433331938e-09, 2.129261372009044e-09).transl(6.145978043220215e-08, 3.722816539616747e-08, 0))
hIsland = hIsland.add(rect(3.0911939211546606e-09, 1.6675807258919894e-09).transl(-2.5231266055445514e-09, 4e-08, 0))
hIsland = hIsland.add(rect(9.764596354406601e-09, 9.903851245417248e-10).transl(-9.693787214204497e-09, 4e-08, 0))
hIsland = hIsland.sub(rect(6.409864121439961e-09, -1.9455281195241533e-10).transl(8.54032047366493e-08, 1.7612140526709512e-08, 0))
hIsland = hIsland.add(rect(4.782792730593602e-09, 1.372000101726475e-09).transl(1.863832526884778e-08, 4e-08, 0))
hIsland = hIsland.sub(rect(9.890643731793064e-09, -3.940579206691598e-09).transl(7.025788117027071e-08, 3.310486967320353e-08, 0))
hIsland = hIsland.sub(rect(3.2792625896956578e-09, -2.516396079943936e-10).transl(-5.8391295949772394e-08, 3.818782113696237e-08, 0))
hIsland = hIsland.sub(rect(3.2257185448666253e-09, -1.0425507262659475e-09).transl(3.574505114832479e-08, 4e-08, 0))
hIsland = hIsland.add(rect(5.580841789134476e-09, 9.009157824052834e-10).transl(1.0870663804879969e-08, 4e-08, 0))
hIsland = hIsland.sub(rect(9.631219137078565e-09, -7.072333903501464e-10).transl(-5.015372399949657e-08, 3.973680451093616e-08, 0))
hIsland = hIsland.sub(rect(6.333865725649904e-09, -1.5155565370953464e-09).transl(-8.635240410806548e-08, 1.577567872067242e-08, 0))
hIsland = hIsland.sub(rect(4.9957705047511966e-09, -2.1543311944094915e-09).transl(1.0554015114301423e-08, 4e-08, 0))
hIsland = hIsland.add(rect(9.477776565614579e-09, 5.05054733999681e-10).transl(-8.537732447056247e-08, 1.765897344384728e-08, 0))
hIsland = hIsland.add(rect(2.2154011927740235e-09, 2.540928065533791e-09).transl(-3.0353028087797363e-08, 4e-08, 0))
hIsland = hIsland.sub(rect(5.409249962516991e-09, -3.3459970447411775e-10).transl(-7.89506545680458e-09, 4e-08, 0))
hIsland = hIsland.sub(rect(6.455157872345587e-09, -7.959683859045893e-10).transl(2.8545065655744763e-09, 4e-08, 0))
hIsland = hIsland.sub(rect(7.628445528691147e-09, -1.1390717101302932e-09).transl(-4.999194117084404e-09, 4e-08, 0))
hIsland = hIsland.add(rect(8.507439783674983e-09, 2.650019018135805e-10).transl(6.53657453393844e-08, 3.56691121822329e-08, 0))
hIsland = hIsland.sub(rect(9.96745947540801e-09, -8.445405360088146e-10).transl(-4.1376770444310954e-08, 4e-08, 0))
hIsland = hIsland.add(rect(9.437958823811474e-09, 2.817366146483672e-09).transl(-5.3639448790575434e-08, 3.925589287745148e-08, 0))
hIsland = hIsland.add(rect(3.278639250500847e-09, 2.6468937838202493e-09).transl(-8.732152032691232e-08, 1.3594157560429266e-08, 0))
hIsland = hIsland.sub(rect(5.3039150934553885e-09, -4.432047410499812e-09).transl(-5.8340350454147955e-08, 3.820190726036196e-08, 0))
hIsland = hIsland.sub(rect(3.438296685220273e-09, -3.3450195445781003e-09).transl(-3.6710418151282794e-08, 4e-08, 0))
hIsland = hIsland.add(rect(9.831261955838807e-09, 5.799120047642553e-10).transl(-7.919222399771859e-08, 2.600500340218255e-08, 0))
hIsland = hIsland.sub(rect(9.537079537273819e-09, -1.5062589116424478e-09).transl(7.667850332870344e-08, 2.8409317572253416e-08, 0))
hIsland = hIsland.add(rect(2.436434962732266e-09, 2.5637562367838217e-09).transl(5.4554819337078276e-08, 3.9087926738820434e-08, 0))
hIsland = hIsland.add(rect(8.130568658830435e-09, 7.548914991579223e-10).transl(3.145209378401576e-08, 4e-08, 0))
hIsland = hIsland.sub(rect(9.059446766985156e-09, -1.8108282948000795e-09).transl(8.11073115012884e-08, 2.3872286632326257e-08, 0))
hIsland = hIsland.add(rect(7.27258184445825e-09, 8.042920094540273e-11).transl(2.728895938844355e-08, 4e-08, 0))
hIsland = hIsland.add(rect(5.982765766987617e-09, 2.2332558594846118e-10).transl(5.413056070417818e-08, 3.9167967372972347e-08, 0))
hIsland = hIsland.add(rect(2.387836126300423e-09, 3.00858362054677e-09).transl(3.0724154012666644e-09, 4e-08, 0))
hIsland = hIsland.add(rect(2.601071160899328e-09, 2.5294737899736573e-09).transl(7.576432715199727e-10, 4e-08, 0))
hIsland = hIsland.add(rect(8.07698216755458e-09, 1.7174374427440155e-09).transl(-6.533040809381308e-08, 3.5685036534731916e-08, 0))
hIsland = hIsland.sub(rect(5.02372270138815e-09, -8.694319217393946e-10).transl(-4.341943198763934e-08, 4e-08, 0))
hIsland = hIsland.add(rect(5.726192148276083e-09, 2.3508612433426096e-09).transl(-1.7192610920587477e-08, 4e-08, 0))
hIsland = hIsland.sub(rect(6.411792616686588e-09, -1.1169891791962993e-09).transl(4.235786327820061e-08, 4e-08, 0))
hIsland = hIsland.sub(rect(4.802349997311476e-09, -7.870804909975693e-10).transl(8.698481278751826e-08, 1.4395486129215305e-08, 0))
hIsland = hIsland.sub(rect(9.561321594319384e-09, -3.6040085021272693e-09).transl(-1.7888890233542753e-08, 4e-08, 0))
hIsland = hIsland.sub(rect(6.947352799869457e-09, -8.130919946777916e-10).transl(-1.7016572366754157e-08, 4e-08, 0))
hIsland = hIsland.add(rect(6.2519363638899315e-09, 3.944625359443912e-09).transl(-4.083023423199025e-08, 4e-08, 0))
hIsland = hIsland.sub(rect(8.28544443118859e-09, -1.6660009601180037e-09).transl(-5.074195687679768e-08, 3.967303335124358e-08, 0))
hIsland = hIsland.sub(rect(6.41148622209121e-09, -1.6502168573293715e-09).transl(4.447922618493965e-09, 4e-08, 0))
hIsland = hIsland.add(rect(3.3317708796093496e-09, 2.8451272654020633e-09).transl(6.49477650489259e-08, 3.585525545640733e-08, 0))
hIsland = hIsland.add(rect(3.197863524138465e-09, 3.9105842659412625e-10).transl(-6.505464153285681e-08, 3.5808118017310286e-08, 0))
hIsland = hIsland.sub(rect(8.844243089296226e-09, -1.1781686668678113e-09).transl(-7.267507210587637e-08, 3.154103432935524e-08, 0))
hIsland = hIsland.sub(rect(9.046763203383578e-09, -2.2160261083648936e-09).transl(-1.9150360972029326e-08, 4e-08, 0))
hIsland = hIsland.sub(rect(7.735939214663157e-09, -1.934524041440785e-09).transl(-7.083306296485695e-08, 3.2752303265089385e-08, 0))
hIsland = hIsland.sub(rect(2.1270460090515438e-09, -5.733847965783129e-10).transl(-8.285152081872906e-08, 2.1632392203861452e-08, 0))
hIsland = hIsland.sub(rect(5.833946778519747e-09, -5.101340073706622e-10).transl(-3.556001762820217e-08, 4e-08, 0))
hIsland = hIsland.sub(rect(2.1565764807158694e-09, -6.086526276945105e-10).transl(2.4809726767886977e-08, 4e-08, 0))
hIsland = hIsland.sub(rect(4.026181584530803e-09, -2.8454007842746476e-09).transl(-3.440209814280564e-08, 4e-08, 0))
hIsland = hIsland.sub(rect(9.435444384350357e-09, -3.4150101370177553e-10).transl(1.5674073236968636e-08, 4e-08, 0))
hIsland = hIsland.add(rect(6.992392060239356e-09, 1.0784366161181208e-10).transl(-4.606895546062886e-08, 3.9988712819575384e-08, 0))
hIsland = hIsland.sub(rect(4.157678225179333e-09, -2.6990403816280356e-09).transl(-7.190533825688036e-09, 4e-08, 0))
hIsland = hIsland.sub(rect(9.88454762957803e-09, -3.107797230097934e-10).transl(7.828406768427556e-08, 2.691984757190627e-08, 0))
hIsland = hIsland.add(rect(6.790237614974051e-09, 2.329224697960148e-09).transl(-6.413587032320917e-08, 3.6203195733419104e-08, 0))
hIsland = hIsland.add(rect(6.692557447474309e-09, 2.5361797000422105e-10).transl(-1.551475515029561e-08, 4e-08, 0))
vIsland = hIsland.rotz(pi / 2)
vIslands = vIslands.add(vIsland.transl(0, -a/2, 0))
DefRegion(1, hIslands)
DefRegion(2, vIslands)
TableAdd(m_full.Region(1))
TableAdd(m_full.Region(2))
setgeom(hIslands.add(vIslands))
save(geom)
r2o2 := sqrt(2) / 2
m = RandomMagSeed(4)
B_ext = vector(Bmax*r2o2, Bmax*r2o2, 0)
relax()
minimize()
for B := Bmax; B >= -Bmax; B -= Bstep {
	B_ext = vector(B*r2o2, B*r2o2, 0)
	minimize()
	tablesave()
}
//********************************************************************//
//Please cite the following references, relevant for your simulation. //
//See bibtex file in output folder for justification.                 //
//********************************************************************//
//   * Vansteenkiste et al., AIP Adv. 4, 107133 (2014).
//   * Exl et al., J. Appl. Phys. 115, 17D118 (2014).
