# t (s)	mx ()	my ()	mz ()	B_extx (T)	B_exty (T)	B_extz (T)	m_fullx (A/m)	m_fully (A/m)	m_fullz (A/m)	m_full.region1x (A/m)	m_full.region1y (A/m)	m_full.region1z (A/m)	m_full.region2x (A/m)	m_full.region2y (A/m)	m_full.region2z (A/m)
0	0.6521023	0.6520989	-2.539623e-10	0.07071067	0.07071067	0	181470.75	181469.81	-6.505102e-05	616795.4	296144.97	0.00014117043	296147.94	616793.6	-0.00050051336
0	0.6520224	0.6520215	-2.4478294e-11	0.07056918	0.07056918	0	181448.53	181448.25	1.2755102e-06	616856.06	295974.47	0	295975.3	616855.6	-1.2833676e-05
0	0.6519388	0.651938	-2.050057e-10	0.07042789	0.07042789	0	181425.23	181425.06	-5.8673468e-05	616921.8	295791.75	-0.00017806725	295792.38	616921.5	-8.983573e-05
0	0.65185547	0.65185475	9.17936e-11	0.070286386	0.070286386	0	181402.06	181401.88	2.0408163e-05	616987.9	295609.12	5.775154e-05	295609.72	616987.56	5.1334704e-05
0	0.6517722	0.65177155	-1.7746762e-10	0.07014501	0.07014502	0	181378.9	181378.72	-5.1020408e-05	617054.3	295426.2	-0.00012352412	295426.78	617053.94	-0.00012833676
0	0.65168816	0.6516875	-4.895659e-11	0.07000352	0.07000352	0	181355.52	181355.33	-1.7857143e-05	617120.3	295242.5	4.1709445e-05	295243.1	617120.06	-0.00014117043
0	0.6516045	0.6516038	-1.7746762e-10	0.06986222	0.06986222	0	181332.22	181332.03	-5.6122448e-05	617186.56	295059.1	-9.625257e-05	295059.62	617186.2	-0.00017325462
0	0.65152085	0.65152013	0	0.069720745	0.069720745	0	181308.94	181308.77	5.1020406e-06	617252.9	294875.7	1.7646304e-05	294876.28	617252.56	-1.363578e-05
0	0.6514364	0.6514357	-2.2336442e-10	0.06957926	0.06957926	0	181285.4	181285.23	-5.8673468e-05	617319.6	294690.7	-9.1439935e-05	294691.28	617319.25	-0.000237423
0	0.6513519	0.6513513	-2.1418507e-10	0.06943794	0.06943794	0	181261.95	181261.75	-6.3137755e-05	617385.94	294506.12	-0.00011229466	294506.75	617385.7	-0.00018608829
0	0.65126735	0.65126675	-3.182178e-10	0.0692964	0.0692964	0	181238.39	181238.22	-9.183674e-05	617452.2	294321.53	-0.00023421457	294322.1	617451.9	-0.00017646304
0	0.6511827	0.65118206	-2.050057e-10	0.0691551	0.0691551	0	181214.86	181214.67	-5.6122448e-05	617518.6	294136.56	-0.00017967146	294137.12	617518.25	-9.625257e-05
0	0.6510972	0.6510965	-1.2851104e-10	0.0690136	0.0690136	0	181191.05	181190.86	-3.8265305e-05	617585.25	293950.28	-0.00014758727	293950.94	617584.9	-6.416838e-05
0	0.6510125	0.6510119	-2.998591e-10	0.068872124	0.068872124	0	181167.48	181167.3	-8.737245e-05	617651.75	293765.16	-0.00026309036	293765.72	617651.44	-0.00021817248
0	0.65092725	0.6509266	-1.7746762e-10	0.06873082	0.06873082	0	181143.73	181143.55	-4.4642857e-05	617717.8	293579.66	-8.662731e-05	293580.25	617717.44	-0.00014117043
0	0.6508418	0.6508412	-2.050057e-10	0.06858932	0.06858932	0	181119.98	181119.8	-5.8673468e-05	617784.25	293393.62	-0.00012191992	293394.22	617783.94	-0.00016042094
0	0.65075636	0.6507556	-3.3657654e-10	0.068447955	0.068447955	0	181096.2	181095.98	-9.693878e-05	617850.94	293207.3	-0.00027913245	293207.9	617850.6	-0.00023100615
0	0.65067065	0.65067	-2.2030464e-10	0.06830648	0.06830648	0	181072.36	181072.17	-6.25e-05	617917.7	293020.66	-0.00021175564	293021.22	617917.4	-0.00013475359
0	0.65058506	0.65058434	-1.8052741e-10	0.06816515	0.06816515	0	181048.52	181048.31	-5.484694e-05	617983.7	292834.8	-0.00012673254	292835.4	617983.3	-0.00015400411
0	0.6504982	0.65049756	-2.2030464e-10	0.068023674	0.068023674	0	181024.34	181024.16	-6.25e-05	618051.1	292645.78	-0.00018608829	292646.44	618050.75	-0.00014758727
0	0.65041214	0.6504114	-2.2642421e-10	0.06788219	0.06788219	0	181000.4	181000.22	-5.6122448e-05	618117.75	292458.6	-0.00017646304	292459.2	618117.44	-0.00013475359
0	0.6503256	0.6503249	-2.3254379e-10	0.06774088	0.06774088	0	180976.31	180976.14	-7.3979594e-05	618184.6	292270.66	-0.00019250513	292271.25	618184.2	-0.00019250513
0	0.6502388	0.6502382	-9.17936e-11	0.067599334	0.067599334	0	180952.19	180951.98	-2.3596938e-05	618251.44	292082.38	-8.341889e-05	292082.97	618251.1	-3.8501028e-05
0	0.65015185	0.65015113	-3.0597866e-10	0.06745803	0.06745803	0	180927.98	180927.78	-7.9081634e-05	618318.1	291893.9	-0.00019250513	291894.5	618317.8	-0.00018608829
0	0.65006465	0.65006393	-4.895659e-11	0.06731653	0.06731653	0	180903.69	180903.5	-1.9132653e-05	618385	291704.84	-6.737679e-05	291705.44	618384.7	-2.5667352e-05
0	0.64997756	0.64997697	-1.6522848e-10	0.06717506	0.06717506	0	180879.47	180879.28	-4.9107144e-05	618452.1	291515.88	-0.00014437885	291516.44	618451.8	-0.00010266941
0	0.64989054	0.6498898	-4.1919077e-10	0.06703376	0.06703376	0	180855.25	180855.03	-0.000112244896	618518.7	291327.38	-0.00025025668	291328	618518.25	-0.00032084188
0	0.64980316	0.6498025	-3.6411463e-10	0.066892266	0.066892266	0	180830.94	180830.75	-0.000107142856	618585.25	291138.56	-0.00018287987	291139.2	618584.9	-0.00029517454
0	0.6497148	0.6497142	-1.9276657e-10	0.066750884	0.066750884	0	180806.36	180806.17	-4.9744896e-05	618652.6	290947.7	-5.775154e-05	290948.28	618652.25	-0.00021817248
0	0.6496273	0.64962655	-1.9888613e-10	0.06660941	0.06660941	0	180782	180781.81	-5.484694e-05	618719.44	290758.12	-8.983573e-05	290758.72	618719.1	-0.00017967146
0	0.64953864	0.649538	-3.1209824e-10	0.06646809	0.06646809	0	180757.31	180757.11	-9.0561225e-05	618786.56	290566.9	-0.000237423	290567.53	618786.25	-0.00018608829
0	0.64945084	0.6494502	-3.671744e-11	0.06632662	0.06632662	0	180732.9	180732.7	-1.5306123e-05	618853.5	290377.06	-5.1334704e-05	290377.7	618853.2	-2.5667352e-05
0	0.6493622	0.6493615	-2.6620145e-10	0.06618514	0.06618514	0	180708.23	180708.03	-7.9719386e-05	618920.7	290185.84	-0.00018287987	290186.4	618920.4	-0.00019892197
0	0.64927363	0.649273	-3.6105482e-10	0.066043824	0.066043824	0	180683.61	180683.4	-0.00010841837	618987.7	289994.88	-0.00029357034	289995.47	618987.3	-0.000237423
0	0.6491841	0.64918345	-5.507616e-11	0.06590227	0.06590227	0	180658.67	180658.47	-1.7857143e-05	619054.9	289802.28	-6.416838e-05	289802.84	619054.5	-9.625257e-06
0	0.6490949	0.64909416	-3.3657654e-10	0.06576097	0.06576097	0	180633.84	180633.62	-9.5663265e-05	619122.25	289609.94	-0.00012833676	289610.6	619121.94	-0.00035934293
0	0.64900666	0.6490059	-6.425552e-11	0.065619476	0.065619476	0	180609.25	180609.05	-2.5510204e-05	619189.1	289419.5	-6.577259e-05	289420.1	619188.75	-5.1334704e-05
0	0.6489165	0.64891577	-1.2545126e-10	0.06547816	0.06547817	0	180584.2	180583.98	-3.5714285e-05	619256.2	289226.34	-9.625257e-05	289226.9	619255.8	-8.341889e-05
0	0.6488267	0.64882594	-2.050057e-10	0.0653367	0.0653367	0	180559.2	180559	-5.6122448e-05	619323.75	289033	-0.00014758727	289033.62	619323.4	-0.00014758727
0	0.6487376	0.648737	-4.6202778e-10	0.06519521	0.06519521	0	180534.42	180534.23	-0.00012372449	619390.9	288841.2	-0.0002855493	288841.84	619390.56	-0.0003400924
0	0.6486473	0.64864653	-7.6494665e-11	0.0650539	0.0650539	0	180509.28	180509.1	-2.4234694e-05	619458.2	288647.38	-3.208419e-05	288648.03	619457.9	-7.7002056e-05
0	0.6485568	0.6485562	-5.4464205e-10	0.06491236	0.06491236	0	180484.1	180483.9	-0.0001492347	619525.5	288453.47	-0.0003930313	288454.12	619525.1	-0.00036575974
0	0.64846784	0.6484672	-3.0597866e-10	0.06477103	0.06477103	0	180459.31	180459.14	-8.928571e-05	619592.1	288262.28	-0.00021977669	288262.88	619591.7	-0.00021817248
0	0.6483765	0.6483758	-2.080655e-10	0.06462956	0.06462956	0	180433.94	180433.75	-6.760204e-05	619660.25	288066.22	-0.00017967146	288066.88	619659.94	-0.00017967146
0	0.6482865	0.64828587	-3.0903846e-10	0.06448809	0.06448809	0	180408.9	180408.67	-9.311224e-05	619727.2	287873.3	-0.00018287987	287873.94	619726.9	-0.00025025668
0	0.6481947	0.6481939	-2.1724486e-10	0.06434676	0.06434676	0	180383.31	180383.11	-5.9311224e-05	619795	287676.88	-5.1334704e-05	287677.5	619794.7	-0.00021817248
0	0.64810324	0.6481026	-2.5090252e-10	0.06420529	0.06420529	0	180357.89	180357.66	-6.122449e-05	619862.8	287481.12	-0.00020854722	287481.75	619862.5	-0.00015400411
0	0.64801246	0.6480117	-5.2016375e-10	0.06406391	0.06406391	0	180332.58	180332.39	-0.00012882653	619930.25	287286.6	-0.00033207136	287287.25	619929.75	-0.00031442507
0	0.64792126	0.6479206	-9.17936e-12	0.06392241	0.06392241	0	180307.22	180307.05	-3.8265307e-06	619997.6	287091.53	-5.1334704e-05	287092.2	619997.25	1.2833676e-05
0	0.64782876	0.6478279	-1.3463061e-10	0.063781105	0.063781105	0	180281.48	180281.27	-4.846939e-05	620065.56	286894.1	-8.181468e-05	286894.72	620065.1	-9.625257e-05
0	0.64773756	0.6477369	-2.8456015e-10	0.06363964	0.06363964	0	180256.14	180255.95	-7.52551e-05	620132.9	286699.25	-0.00020854722	286699.88	620132.44	-0.00019892197
0	0.6476456	0.6476449	-2.6008187e-10	0.06349814	0.06349814	0	180230.5	180230.31	-6.8877554e-05	620200.5	286502.62	-0.00020533882	286503.28	620200.1	-0.00016042094
0	0.6475525	0.64755183	-1.7746762e-10	0.06335683	0.06335683	0	180204.61	180204.42	-5.229592e-05	620268.3	286304.6	-0.00014758727	286305.25	620267.9	-0.00010266941
0	0.6474601	0.6474593	-2.8456015e-10	0.06321529	0.06321529	0	180178.9	180178.69	-8.67347e-05	620335.94	286107.53	-0.00017967146	286108.22	620335.5	-0.00023100615
0	0.6473675	0.64736676	-2.2030464e-10	0.06307396	0.06307396	0	180153.11	180152.92	-6.505102e-05	620403.6	285910.1	-0.0001187115	285910.75	620403.3	-0.00017967146
0	0.64727503	0.6472744	-1.7134806e-10	0.0629325	0.0629325	0	180127.39	180127.2	-4.4642857e-05	620471.5	285712.94	-0.0001363578	285713.6	620471.1	-9.625257e-05
0	0.6471824	0.6471817	-1.835872e-11	0.06279103	0.06279103	0	180101.62	180101.45	-6.377551e-06	620538.94	285515.78	4.3313656e-05	285516.44	620538.56	-6.416838e-05
0	0.6470885	0.64708775	-2.8150038e-10	0.06264969	0.06264969	0	180075.5	180075.3	-7.9081634e-05	620606.9	285316.4	-0.00016683778	285317.03	620606.44	-0.00023100615
0	0.64699584	0.6469952	-2.2642421e-10	0.062508225	0.062508225	0	180049.72	180049.5	-6.8877554e-05	620674.4	285119.12	-0.00019571355	285119.75	620674	-0.00016683778
0	0.64690244	0.6469018	-2.0194592e-10	0.06236684	0.06236684	0	180023.72	180023.53	-5.994898e-05	620742	284920.72	-0.00023421457	284921.34	620741.6	-7.7002056e-05
0	0.64680815	0.64680743	-4.2837014e-10	0.062225346	0.062225346	0	179997.47	179997.25	-0.00011989796	620810.44	284720.4	-0.00031923768	284721.03	620810	-0.0002887577
0	0.64671445	0.6467137	-2.753808e-10	0.062084038	0.062084038	0	179971.36	179971.17	-7.9081634e-05	620878.1	284521.38	-0.00020533882	284522.03	620877.75	-0.00014758727
0	0.64661956	0.64661884	-2.6008187e-10	0.061942574	0.061942577	0	179944.97	179944.77	-7.270408e-05	620946.3	284320.4	-0.00019731776	284321.03	620945.94	-0.00016042094
0	0.6465258	0.6465251	-2.8150038e-10	0.061801083	0.06180108	0	179918.89	179918.7	-7.9081634e-05	621013.8	284121.66	-0.00027592402	284122.3	621013.44	-0.00017967146
0	0.6464309	0.6464301	-1.7746762e-10	0.061659772	0.061659772	0	179892.47	179892.27	-5.229592e-05	621081.94	283920.62	-5.775154e-05	283921.28	621081.6	-0.00020533882
0	0.64633566	0.64633495	-3.7941356e-10	0.06151823	0.061518237	0	179865.97	179865.78	-0.000112882655	621150.25	283719.03	-0.00024383984	283719.7	621149.9	-0.00028234086
0	0.646241	0.64624035	-3.7635375e-10	0.061376892	0.061376892	0	179839.64	179839.44	-0.000105867344	621218.3	283518.53	-0.00027592402	283519.16	621217.9	-0.00024383984
0	0.646146	0.6461453	-6.425552e-11	0.06123543	0.06123543	0	179813.2	179812.98	-2.0408163e-05	621286.3	283317.4	-3.3688397e-05	283318.1	621286	-3.208419e-05
0	0.6460497	0.6460489	-1.7134806e-10	0.061093967	0.061093967	0	179786.39	179786.17	-3.9540817e-05	621354.4	283114.47	-0.00017646304	283115.12	621353.94	-5.775154e-05
0	0.6459548	0.645954	2.1418508e-11	0.060952656	0.060952656	0	179760	179759.8	6.377551e-06	621422.6	282913.53	-1.7646304e-05	282914.16	621422.25	5.1334704e-05
0	0.64585936	0.64585865	-1.376904e-10	0.060811166	0.060811166	0	179733.44	179733.22	-4.0816325e-05	621490.1	282712.22	-2.2458933e-05	282712.88	621489.75	-0.00018608829
0	0.645763	0.64576226	-1.3157082e-10	0.060669776	0.060669772	0	179706.62	179706.42	-3.6989797e-05	621558.2	282509.38	-4.1709445e-05	282510.03	621557.8	-0.00014758727
0	0.6456672	0.6456664	-2.753808e-10	0.060528316	0.060528316	0	179679.94	179679.73	-7.9081634e-05	621626.44	282306.97	-0.00019250513	282307.66	621626.06	-0.00019250513
0	0.6455701	0.6455694	-5.507616e-11	0.060386974	0.060386974	0	179652.92	179652.73	-2.1683674e-05	621695.06	282102.4	-4.1709445e-05	282103.06	621694.7	-7.7002056e-05
0	0.64547384	0.64547306	-2.5702207e-10	0.06024551	0.06024551	0	179626.16	179625.94	-7.52551e-05	621763.44	281899.25	-0.00019571355	281899.9	621763.1	-0.00017325462
0	0.6453773	0.6453765	-4.2837015e-11	0.06010405	0.060104053	0	179599.28	179599.06	-1.4030612e-05	621831.44	281696.03	-4.8126285e-06	281696.72	621831	-2.5667352e-05
0	0.6452802	0.64527935	-3.2739716e-10	0.059962712	0.059962712	0	179572.23	179572.05	-9.0561225e-05	621899.7	281491.8	-0.00020854722	281492.5	621899.25	-0.00029517454
0	0.64518255	0.64518183	-3.4269612e-10	0.059821166	0.059821166	0	179545.1	179544.86	-9.375e-05	621968.1	281286.72	-0.00019892197	281287.38	621967.75	-0.00022458933
0	0.64508563	0.6450848	-2.4478294e-11	0.05967986	0.05967985	0	179518.11	179517.88	-1.2755102e-05	622036.56	281082.53	-3.5292607e-05	281083.16	622036.2	-3.8501028e-05
0	0.64498866	0.64498794	-2.753808e-10	0.059538364	0.059538364	0	179491.16	179490.92	-7.653061e-05	622104.2	280879.3	-0.00018608829	280880	622103.8	-0.00017325462
0	0.6448904	0.6448897	-8.567403e-11	0.059396908	0.059396908	0	179463.81	179463.6	-2.9336734e-05	622172.9	280673	-4.9730494e-05	280673.66	622172.5	-8.983573e-05
0	0.6447914	0.6447907	-1.8052741e-10	0.059255596	0.059255596	0	179436.27	179436.02	-4.846939e-05	622241.75	280465.62	-0.00012512834	280466.28	622241.3	-0.00011550308
0	0.64469355	0.64469284	-1.591089e-10	0.059114102	0.059114102	0	179409.02	179408.81	-3.8265305e-05	622310.2	280260.2	-0.00013154518	280260.84	622309.8	-5.1334704e-05
0	0.6445949	0.6445942	-7.068107e-10	0.058972713	0.058972713	0	179381.56	179381.33	-0.00019897959	622378.44	280053.78	-0.0005277849	280054.47	622378.06	-0.00046842915
0	0.64449656	0.6444957	-1.3463061e-10	0.05883125	0.05883125	0	179354.19	179353.95	-3.4438777e-05	622446.9	279847.6	-0.00013475359	279848.25	622446.5	-6.416838e-05
0	0.6443973	0.6443965	-2.753808e-11	0.0586899	0.0586899	0	179326.56	179326.34	-1.0204081e-05	622515.44	279640.12	-3.8501028e-05	279640.78	622515	-1.9250514e-05
0	0.6442995	0.64429873	-2.5090252e-10	0.05854845	0.05854845	0	179299.34	179299.14	-7.3979594e-05	622583.25	279435.3	-0.0002550693	279436	622583	-0.00014117043
0	0.64419925	0.6441984	-1.4380998e-10	0.058406986	0.058406986	0	179271.45	179271.22	-4.2091837e-05	622652.7	279225.62	-0.00010587782	279226.28	622652.25	-0.00010908624
0	0.6441	0.6440993	-1.376904e-10	0.05826565	0.05826565	0	179243.84	179243.61	-3.8265305e-05	622721.1	279018.22	-6.737679e-05	279018.9	622720.8	-0.00013475359
0	0.64399964	0.64399886	-3.1515804e-10	0.058124106	0.058124106	0	179215.92	179215.69	-9.0561225e-05	622789.56	278809.34	-0.00017325462	278810	622789.1	-0.00025025668
0	0.6438992	0.6438984	-2.0194592e-10	0.05798278	0.05798278	0	179187.97	179187.73	-5.739796e-05	622858.56	278599.62	-7.3793635e-05	278600.3	622858.2	-0.00019892197
0	0.64380014	0.64379936	-2.8150038e-10	0.05784131	0.05784131	0	179160.38	179160.14	-8.928571e-05	622926.9	278392.62	-0.00018448409	278393.3	622926.56	-0.00025025668
0	0.64369935	0.6436986	-3.0597866e-10	0.057699848	0.057699848	0	179132.33	179132.12	-8.290816e-05	622995.5	278183	-0.00021496406	278183.7	622995	-0.00023100615
0	0.6435991	0.6435983	1.2239147e-11	0.05755853	0.05755853	0	179104.44	179104.2	5.1020406e-06	623064.06	277974.03	4.4917866e-05	277974.7	623063.6	-2.5667352e-05
0	0.6434977	0.64349693	-2.6926122e-10	0.05741706	0.05741706	0	179076.2	179076.02	-7.3979594e-05	623133.1	277762.94	-0.00011710729	277763.62	623132.75	-0.00022458933
0	0.6433968	0.6433961	9.17936e-12	0.057275645	0.057275645	0	179048.16	179047.95	-1.9132654e-06	623201.8	277553.03	0	277553.7	623201.44	6.416838e-06
0	0.6432962	0.6432954	-1.9888613e-10	0.05713419	0.05713419	0	179020.12	179019.92	-5.484694e-05	623270.75	277343.3	-8.983573e-05	277344	623270.3	-0.00016683778
0	0.6431943	0.64319354	-3.3657653e-11	0.056992844	0.056992844	0	178991.8	178991.56	-3.8265307e-06	623339.2	277132.12	-4.1709445e-05	277132.8	623338.8	3.8501028e-05
0	0.6430926	0.6430918	-3.3657654e-10	0.056851387	0.056851387	0	178963.48	178963.27	-9.693878e-05	623408.25	276920.75	-0.00027752825	276921.4	623407.8	-0.00021175564
0	0.6429912	0.6429905	-7.0375095e-11	0.056709927	0.056709927	0	178935.28	178935.08	-1.6581633e-05	623477.1	276709.97	-3.047998e-05	276710.66	623476.7	-5.1334704e-05
0	0.6428888	0.642888	-1.6522848e-10	0.056568585	0.056568585	0	178906.77	178906.58	-4.0816325e-05	623545.8	276497.88	-0.00016683778	276498.56	623545.44	-4.4917866e-05
0	0.6427869	0.64278615	-1.8970678e-10	0.056427047	0.056427047	0	178878.42	178878.22	-4.2729593e-05	623614.8	276286.16	-6.095996e-05	276286.84	623614.4	-0.00016042094
0	0.6426844	0.64268357	-5.507616e-11	0.05628571	0.05628571	0	178849.88	178849.67	-1.6581633e-05	623683.9	276073.6	-5.1334704e-05	276074.3	623683.3	0
0	0.64258176	0.6425809	-2.6926122e-10	0.05614424	0.05614425	0	178821.33	178821.12	-7.206632e-05	623752.7	275861.12	-0.00017325462	275861.8	623752.2	-0.00016042094
0	0.6424786	0.64247775	-1.8970678e-10	0.056002792	0.056002792	0	178792.61	178792.39	-6.3137755e-05	623821	275648.25	-0.00018608829	275648.9	623820.56	-0.00015400411
0	0.64237535	0.6423746	7.343488e-11	0.05586147	0.05586147	0	178763.88	178763.67	2.4234694e-05	623890.3	275434.5	5.1334704e-05	275435.16	623889.94	2.5667352e-05
0	0.64227223	0.6422714	4.895659e-11	0.055719994	0.055719994	0	178735.17	178734.95	1.5306123e-05	623959.5	275220.97	5.454312e-05	275221.66	623959.06	4.4917866e-05
0	0.6421689	0.6421681	-2.1418508e-11	0.055578664	0.055578664	0	178706.44	178706.22	1.2755102e-06	624028.25	275007.6	-1.2833676e-05	275008.25	624027.8	2.5667352e-05
0	0.64206463	0.6420638	-1.3157082e-10	0.055437125	0.055437125	0	178677.4	178677.17	-4.2091837e-05	624097.06	274792.7	-6.095996e-05	274793.4	624096.6	-0.00016683778
0	0.6419611	0.6419604	-1.0097296e-10	0.05529578	0.05529578	0	178648.6	178648.38	-2.9336734e-05	624166.2	274578.6	-6.416838e-06	274579.3	624165.8	-0.00012833676
0	0.64185613	0.6418553	-3.4269612e-10	0.055154327	0.055154327	0	178619.4	178619.19	-9.183674e-05	624235.2	274362.66	-0.00024383984	274363.34	624234.8	-0.00017325462
0	0.6417522	0.6417514	-1.07092536e-10	0.05501287	0.05501287	0	178590.47	178590.23	-3.1887754e-05	624304.25	274148.12	-5.1334704e-05	274148.84	624303.8	-8.341889e-05
0	0.64164716	0.64164644	-7.6494665e-11	0.054871522	0.054871522	0	178561.25	178561.03	-1.9132653e-05	624373.75	273931.53	-5.293891e-05	273932.25	624373.4	-3.208419e-05
0	0.64154214	0.6415413	4.2837015e-11	0.05473008	0.05473008	0	178532.02	178531.78	1.1479592e-05	624442.6	273715.7	-1.7646304e-05	273716.34	624442.25	7.7002056e-05
0	0.64143723	0.64143646	-1.835872e-10	0.05458865	0.05458865	0	178502.8	178502.6	-4.9744896e-05	624512.06	273499.38	-0.0001187115	273500.12	624511.6	-0.00015400411
0	0.64133155	0.6413308	-2.2642421e-10	0.054447185	0.054447185	0	178473.44	178473.2	-5.8673468e-05	624581.3	273282.22	-0.00012512834	273282.97	624580.94	-0.00019250513
0	0.6412263	0.64122546	3.0597868e-11	0.054305855	0.054305855	0	178444.12	178443.89	-1.2755102e-06	624650.3	273065.8	2.887577e-05	273066.53	624649.9	6.416838e-06
0	0.6411203	0.6411195	-2.1724486e-10	0.054164406	0.054164406	0	178414.64	178414.4	-5.739796e-05	624719.6	272848.06	-0.00021496406	272848.78	624719.2	-7.7002056e-05
0	0.641014	0.64101315	-2.3866337e-10	0.054022938	0.054022938	0	178385.02	178384.77	-6.25e-05	624788.56	272630.22	-0.0001187115	272630.97	624788.1	-0.00019892197
0	0.6409078	0.640907	-1.7746762e-10	0.0538816	0.0538816	0	178355.5	178355.28	-5.0382652e-05	624857.9	272412.34	-0.00015721253	272413.03	624857.44	-7.0585214e-05
0	0.6408015	0.6408007	-2.998591e-10	0.05374007	0.05374007	0	178325.92	178325.69	-7.3979594e-05	624927.25	272194.25	-0.00015560832	272195	624926.8	-0.00026309036
0	0.640695	0.6406942	-1.5604912e-10	0.05359871	0.05359871	0	178296.25	178296.06	-4.591837e-05	624996.1	271976.1	-9.3044146e-05	271976.78	624995.8	-0.00010908624
0	0.6405874	0.6405866	-2.8150038e-10	0.05345726	0.053457264	0	178266.33	178266.11	-7.142857e-05	625065.8	271755.9	-0.00020533882	271756.62	625065.3	-0.00017967146
0	0.64048064	0.64047974	-1.4686977e-10	0.053315822	0.05331583	0	178236.61	178236.39	-4.655612e-05	625135.06	271537.1	-0.00013475359	271537.84	625134.6	-7.7002056e-05
0	0.64037365	0.6403728	-2.2642421e-10	0.053174462	0.053174462	0	178206.83	178206.6	-6.696428e-05	625204.06	271318.28	-0.00017646304	271319.03	625203.6	-0.00014758727
0	0.6402652	0.64026445	-6.1195736e-11	0.053033024	0.053033024	0	178176.67	178176.45	-2.2959184e-05	625273.3	271097.38	-5.775154e-05	271098.1	625272.9	-5.1334704e-05
0	0.6401573	0.6401565	-2.0194592e-10	0.052891586	0.052891586	0	178146.62	178146.39	-5.229592e-05	625343	270876.44	-0.00013475359	270877.16	625342.6	-0.00014758727
0	0.6400496	0.6400488	-2.3254379e-10	0.052750126	0.052750126	0	178116.67	178116.44	-6.760204e-05	625412.5	270656.28	-0.00017646304	270657.03	625412	-0.00010908624
0	0.63994163	0.63994086	1.5298934e-11	0.052608777	0.052608777	0	178086.62	178086.4	0	625481.5	270436.12	5.614733e-05	270436.84	625481.06	-1.9250514e-05
0	0.639832	0.6398312	-1.5298934e-11	0.05246734	0.05246734	0	178056.1	178055.86	3.1887755e-06	625551.3	270212.78	4.1709445e-05	270213.47	625550.75	-3.8501028e-05
0	0.63972384	0.639723	-8.567403e-11	0.052325882	0.052325882	0	178026	178025.77	-3.4438777e-05	625620.25	269992.28	-0.00014117043	269993	625619.94	-5.1334704e-05
0	0.6396142	0.63961333	-1.2239147e-11	0.05218454	0.05218454	0	177995.5	177995.25	-1.4668367e-05	625689.9	269769.28	3.5292607e-05	269770	625689.44	-5.1334704e-05
0	0.6395054	0.6395045	-6.7315306e-11	0.052043002	0.052043002	0	177965.19	177964.97	-1.7857143e-05	625759.7	269547.06	2.2458933e-05	269547.84	625759.2	-0.00012833676
0	0.6393965	0.63939565	-1.4686977e-10	0.051901635	0.051901635	0	177934.9	177934.67	-4.9744896e-05	625828.56	269325.78	-0.00011069045	269326.5	625828.1	-0.00010266941
0	0.6392857	0.6392849	-8.261424e-11	0.0517602	0.0517602	0	177904.08	177903.83	-2.0408163e-05	625898.3	269100.94	-6.256417e-05	269101.7	625897.9	-4.4917866e-05
0	0.6391755	0.6391747	-1.3463061e-10	0.051618766	0.051618766	0	177873.42	177873.19	-3.5714285e-05	625968.44	268876.62	-6.095996e-05	268877.3	625968	-0.00013475359
0	0.63906497	0.63906413	9.17936e-11	0.05147742	0.05147742	0	177842.66	177842.42	2.6785714e-05	626037.75	268652.56	-4.1709445e-05	268653.3	626037.25	0.00019892197
0	0.63895506	0.6389542	-1.7440784e-10	0.05133596	0.05133596	0	177812.05	177811.83	-4.9107144e-05	626107.5	268428.8	-0.00017967146	268429.53	626107.06	-6.416838e-05
0	0.63884425	0.6388435	-2.6314165e-10	0.051194515	0.051194515	0	177781.23	177781	-7.270408e-05	626177.2	268204.1	-0.00013956623	268204.84	626176.75	-0.00021175564
0	0.63873273	0.6387319	-1.5298933e-10	0.05105309	0.05105309	0	177750.19	177749.97	-4.846939e-05	626246.5	267978.56	-0.00025025668	267979.3	626246.06	3.8501028e-05
0	0.6386227	0.6386219	-2.753808e-10	0.050911706	0.050911706	0	177719.56	177719.36	-7.015306e-05	626315.8	267755.25	-0.00021817248	267755.97	626315.44	-0.00014758727
0	0.6385102	0.63850933	-1.591089e-10	0.05077028	0.05077028	0	177688.27	177688.03	-4.9744896e-05	626385.7	267527.88	-0.00016683778	267528.62	626385.2	-8.341889e-05
0	0.63839954	0.6383987	-1.0097296e-10	0.050628845	0.050628845	0	177657.48	177657.23	-2.5510204e-05	626455.06	267303.6	-0.00010587782	267304.34	626454.6	-5.1334704e-05
0	0.63828766	0.63828677	-1.5298933e-10	0.050487474	0.050487474	0	177626.33	177626.11	-3.6989797e-05	626524.6	267077.22	-8.983573e-05	267077.97	626524.25	-0.00010266941
0	0.63817465	0.6381739	-1.4992955e-10	0.050345946	0.050345946	0	177594.9	177594.66	-4.0816325e-05	626594.5	266849.34	-0.00014437885	266850.06	626594	-7.0585214e-05
0	0.638063	0.6380622	-8.567403e-11	0.05020459	0.05020459	0	177563.81	177563.58	-2.6785714e-05	626664.2	266623.38	-9.3044146e-05	266624.1	626663.7	-1.2833676e-05
0	0.6379502	0.63794935	-1.621687e-10	0.050063137	0.050063137	0	177532.42	177532.2	-4.4642857e-05	626733.94	266395.7	-7.7002056e-05	266396.44	626733.44	-0.00016042094
0	0.6378377	0.6378368	-5.507616e-11	0.04992171	0.04992171	0	177501.12	177500.88	-1.9770408e-05	626803.25	266168.78	5.454312e-05	266169.5	626802.8	-0.00013475359
0	0.6377241	0.6377232	-1.4686977e-10	0.049780354	0.049780354	0	177469.5	177469.27	-4.591837e-05	626872.7	265940.3	-0.00015881674	265941.1	626872.2	-3.208419e-05
0	0.6376108	0.63761	-2.2030464e-10	0.049638905	0.0496389	0	177437.97	177437.72	-5.739796e-05	626942.94	265711.38	-0.00017646304	265712.16	626942.5	-0.00014758727
0	0.63749707	0.6374963	-1.376904e-10	0.049497455	0.049497455	0	177406.34	177406.12	-4.0816325e-05	627012.8	265482.44	-6.095996e-05	265483.16	627012.4	-0.00010908624
0	0.63738286	0.6373821	-1.8052741e-10	0.04935602	0.04935602	0	177374.56	177374.31	-5.3571428e-05	627082.06	265253.25	-0.00012191992	265253.97	627081.75	-0.00010908624
0	0.637269	0.6372682	-1.1933168e-10	0.04921464	0.04921464	0	177342.88	177342.66	-3.0612246e-05	627152.5	265023.5	-0.00014117043	265024.25	627151.94	-3.8501028e-05
0	0.6371551	0.6371543	-2.3254379e-10	0.04907321	0.04907321	0	177311.19	177310.92	-6.505102e-05	627221.7	264794.75	-0.00019410934	264795.53	627221.3	-0.00014758727
0	0.6370395	0.6370386	-2.2642421e-10	0.04893179	0.04893179	0	177278.97	177278.77	-6.505102e-05	627291.8	264562.8	-0.00022458933	264563.53	627291.4	-8.983573e-05
0	0.63692415	0.6369233	4.2837015e-11	0.048790418	0.048790418	0	177246.89	177246.64	1.6581633e-05	627361.4	264331.62	8.983573e-05	264332.38	627361	-1.2833676e-05
0	0.63681006	0.63680923	-1.2545126e-10	0.048648883	0.048648883	0	177215.16	177214.92	-3.125e-05	627431.7	264101.8	-3.208419e-06	264102.56	627431.1	-0.00014117043
0	0.63669467	0.6366939	-2.8761996e-10	0.04850753	0.04850753	0	177183.05	177182.78	-7.653061e-05	627501.44	263870.4	-0.00015079569	263871.16	627501	-0.00023100615
0	0.6365796	0.63657874	-1.8052741e-10	0.048366077	0.048366077	0	177151	177150.77	-5.1020408e-05	627570.94	263639.7	-4.0105235e-05	263640.44	627570.5	-0.00019892197
0	0.6364632	0.6364623	-1.4686977e-10	0.048224654	0.048224654	0	177118.61	177118.36	-3.3163265e-05	627640.6	263407.06	-8.021047e-05	263407.88	627640.1	-9.625257e-05
0	0.6363476	0.6363467	-2.2336442e-10	0.04808329	0.04808329	0	177086.44	177086.19	-6.632653e-05	627710.6	263175.28	-0.0002855493	263176.03	627710.2	-6.416838e-05
0	0.63623065	0.63622975	-2.2336442e-10	0.04794185	0.04794185	0	177053.9	177053.66	-5.994898e-05	627780.44	262941.7	-8.983573e-05	262942.5	627779.94	-0.00017967146
0	0.6361141	0.6361133	-1.6522848e-10	0.047800384	0.047800384	0	177021.52	177021.23	-4.846939e-05	627850.8	262708.22	-0.00013956623	262709.03	627850.44	-0.00012833676
0	0.63599664	0.6359958	-4.0083206e-10	0.047658965	0.047658965	0	176988.78	176988.53	-0.00010331633	627920.5	262474.06	-0.00016202516	262474.84	627920.06	-0.00034650924
0	0.63587964	0.63587886	-3.5493525e-10	0.04751758	0.04751758	0	176956.23	176955.98	-9.5663265e-05	627990.6	262240.12	-0.00020052618	262240.88	627990.2	-0.00027592402
0	0.63576263	0.63576174	-2.0194592e-10	0.047376156	0.047376156	0	176923.67	176923.42	-5.8673468e-05	628060.7	262006.22	-0.00019731776	262007.02	628060.1	-8.983573e-05
0	0.63564503	0.63564414	-1.1933168e-10	0.047234733	0.047234733	0	176890.92	176890.69	-3.8265305e-05	628130.25	261772.02	-0.00019250513	261772.78	628129.9	-1.2833676e-05
0	0.63552815	0.6355272	3.0597868e-11	0.047093347	0.047093347	0	176858.4	176858.14	2.8061224e-05	628199.6	261538.9	2.5667352e-05	261539.67	628199.2	5.1334704e-05
0	0.6354087	0.63540775	-1.835872e-10	0.046951823	0.046951823	0	176825.16	176824.92	-5.3571428e-05	628270	261301.36	-8.341889e-05	261302.12	628269.6	-0.00016042094
0	0.6352907	0.6352898	-2.998591e-10	0.046810456	0.046810463	0	176792.34	176792.08	-8.290816e-05	628340.2	261065.94	-0.00014437885	261066.72	628339.9	-0.00025667352
0	0.63517207	0.6351712	-2.8150038e-10	0.046669025	0.04666902	0	176759.33	176759.08	-8.0357146e-05	628410.2	260830.02	-0.0002037346	260830.8	628409.7	-0.00017967146
0	0.63505226	0.63505137	-9.485339e-11	0.046527658	0.046527658	0	176726	176725.75	-2.8061224e-05	628480.2	260592.23	-8.341889e-05	260593.02	628479.75	-7.7002056e-05
0	0.6349339	0.63493294	-2.8456015e-10	0.046386234	0.046386234	0	176693.03	176692.77	-6.951531e-05	628550.2	260356.47	-0.0002021304	260357.23	628549.7	-0.00020533882
0	0.6348144	0.6348134	-1.2545126e-10	0.0462448	0.0462448	0	176659.77	176659.52	-3.3163265e-05	628620.06	260119.2	-7.0585214e-05	260119.97	628619.6	-9.625257e-05
0	0.6346945	0.63469374	-1.9276657e-10	0.04610342	0.04610342	0	176626.42	176626.17	-4.9744896e-05	628690.3	259881.27	-0.00012191992	259882.03	628689.9	-0.00014117043
0	0.6345747	0.6345738	-2.8761996e-10	0.045961898	0.045961898	0	176593.06	176592.83	-6.8877554e-05	628760.25	259643.64	-0.00013796201	259644.4	628759.75	-0.00022458933
0	0.6344536	0.6344528	-1.9582636e-10	0.045820512	0.045820512	0	176559.38	176559.14	-5.739796e-05	628830.25	259404.14	-8.341889e-05	259404.9	628829.75	-0.00017325462
0	0.63433397	0.6343331	-3.3045697e-10	0.0456791	0.0456791	0	176526.06	176525.83	-9.757653e-05	628899.94	259166.8	-8.662731e-05	259167.6	628899.5	-0.00041067763
0	0.6342131	0.6342122	-9.791318e-11	0.045537677	0.045537677	0	176492.42	176492.17	-3.0612246e-05	628970.44	258927.05	-3.208419e-05	258927.83	628969.94	-9.625257e-05
0	0.63409203	0.63409126	-2.29484e-10	0.045396283	0.045396283	0	176458.77	176458.52	-5.8673468e-05	629040.3	258687.84	-0.00020533882	258688.62	629039.8	-0.00010266941
0	0.63397074	0.63396984	-1.3463061e-10	0.04525487	0.04525487	0	176425	176424.75	-3.380102e-05	629110.3	258447.88	-6.256417e-05	258448.69	629109.9	-0.00010908624
0	0.6338496	0.6338488	-1.8052741e-10	0.045113385	0.045113392	0	176391.31	176391.06	-5.3571428e-05	629180.3	258208.52	-0.0001010652	258209.28	629179.75	-0.00014758727