//mumax 3.10 [windows_amd64 go1.11.6(gc) CUDA-11.0]
//GPU info: NVIDIA GeForce RTX 3090(24575MB), CUDA Driver 12.0, cc=8.6, using cc=80 PTX
//(c) Arne Vansteenkiste, Dynamat LAB, Ghent University, Belgium
//This is free software without any warranty. See license.txt
//********************************************************************//
//  If you use mumax in any work or publication,                      //
//  we kindly ask you to cite the references in references.bib        //
//********************************************************************//
//output directory: r1;p0.5;a5.12e-07;l3.0000000000000004e-07;s1.out/
randSeed(1)
ThermSeed(1)
resolution := 2e-09
zResolution := 5e-09
a := 5.12e-07
gridSize := 512
gridDepth := 5
SetCellsize(resolution, resolution, zResolution)
SetGridsize(gridSize, gridSize, gridDepth)
SetPBC(16, 16, 0)
//resizing...
Msat = 700e3
Aex = 13e-12
alpha = 0.2
Bmax := 0.1
Bstep := Bmax / 500.0
TableAdd(B_ext)
TableAdd(m_full)
islandWidth := 8e-08
islandLength := 3.0000000000000004e-07
ellipseConstant := 7.500000000000001e-08
hIsland := rect(islandLength-2*ellipseConstant, islandWidth)
hIsland = hIsland.add(ellipse(ellipseConstant*2, islandWidth).transl(islandLength/2-ellipseConstant, 0, 0))
hIsland = hIsland.add(ellipse(ellipseConstant*2, islandWidth).transl(-islandLength/2+ellipseConstant, 0, 0))
hIsland = hIsland.sub(rect(1e-08, -1.4433456520506252e-10).transl(-1.1853436207652924e-07, -3.257160292782233e-08, 0))
hIsland = hIsland.sub(rect(1e-08, -3.978743965836367e-09).transl(1.1767308620628436e-07, -3.2894207100432716e-08, 0))
hIsland = hIsland.add(rect(1e-08, 6.992770350841562e-09).transl(1.1082327618857154e-07, -3.5142145923188946e-08, 0))
hIsland = hIsland.sub(rect(1e-08, -7.834016402816056e-10).transl(5.860172192116673e-08, -4e-08, 0))
hIsland = hIsland.sub(rect(1e-08, -6.317303205297906e-09).transl(-1.3863083952508419e-07, -2.1173509731140844e-08, 0))
hIsland = hIsland.add(rect(1e-08, 1.0452987850074946e-09).transl(1.402546716840775e-07, -1.9717671791546498e-08, 0))
hIsland = hIsland.sub(rect(1e-08, -3.757692952626633e-09).transl(1.2113433534474257e-07, -3.1537200506148333e-08, 0))
hIsland = hIsland.sub(rect(1e-08, -7.168134500313503e-09).transl(-1.4428453684436057e-08, -4e-08, 0))
hIsland = hIsland.sub(rect(1e-08, -2.8098819870074464e-09).transl(-1.4648070847217153e-07, -1.2109231050777645e-08, 0))
hIsland = hIsland.sub(rect(1e-08, -7.880431103813943e-09).transl(-1.4491939662720668e-07, -1.4471702720733806e-08, 0))
hIsland = hIsland.add(rect(1e-08, 8.362356363705042e-09).transl(-6.493952544236839e-08, -4e-08, 0))
hIsland = hIsland.sub(rect(1e-08, -1.870312954837935e-09).transl(7.52533519422314e-08, -3.9999771778169795e-08, 0))
hIsland = hIsland.add(rect(1e-08, 3.0618158525968587e-09).transl(-8.54670262884027e-08, -3.960854268594002e-08, 0))
hIsland = hIsland.sub(rect(1e-08, -3.262518267654127e-09).transl(1.85823814422727e-08, -4e-08, 0))
hIsland = hIsland.sub(rect(1e-08, -5.181004211141771e-09).transl(-2.567671745260846e-08, -4e-08, 0))
hIsland = hIsland.add(rect(1e-08, 3.7711211441786875e-09).transl(1.8018850303095715e-08, -4e-08, 0))
hIsland = hIsland.add(rect(1e-08, 1.1839246289283098e-08).transl(-3.049989312444891e-08, -4e-08, 0))
hIsland = hIsland.add(rect(1e-08, 1.1794756280603522e-09).transl(5.330832877332556e-08, -4e-08, 0))
hIsland = hIsland.add(rect(1e-08, 4.529220937497271e-09).transl(-5.7021861434644215e-08, -4e-08, 0))
hIsland = hIsland.sub(rect(1e-08, -1.1534849152236137e-09).transl(-6.627227013212319e-08, -4e-08, 0))
hIsland = hIsland.add(rect(1e-08, 4.263889227289983e-10).transl(-1.2309407949370017e-07, -3.069313416745646e-08, 0))
hIsland = hIsland.sub(rect(1e-08, -1.5257820709610017e-09).transl(-8.760605983491312e-08, -3.943092888403832e-08, 0))
hIsland = hIsland.add(rect(1e-08, 1.6963862556767462e-09).transl(2.317427584782557e-08, -4e-08, 0))
hIsland = hIsland.sub(rect(1e-08, -2.2552175675885688e-10).transl(-6.687678159986218e-08, -4e-08, 0))
hIsland = hIsland.sub(rect(1e-08, -1.5846683580003552e-09).transl(2.0874193785002677e-08, -4e-08, 0))
hIsland = hIsland.sub(rect(1e-08, -1.902020306839525e-09).transl(1.1615444875364567e-07, -3.344009079321456e-08, 0))
hIsland = hIsland.add(rect(1e-08, 3.3538433162682317e-09).transl(-1.4846231586946214e-07, -8.058243926178662e-09, 0))
hIsland = hIsland.sub(rect(1e-08, -5.520375834134418e-09).transl(1.0018370167170024e-07, -3.767757923853338e-08, 0))
hIsland = hIsland.sub(rect(1e-08, -4.699342445957789e-09).transl(-1.0741052962929836e-07, -3.607225369082916e-08, 0))
hIsland = hIsland.sub(rect(1e-08, -3.6653565578917956e-09).transl(4.969839654681684e-08, -4e-08, 0))
hIsland = hIsland.sub(rect(1e-08, -1.7894213852876255e-09).transl(7.702027519756252e-08, -3.998548532433412e-08, 0))
hIsland = hIsland.sub(rect(1e-08, -4.494983027551793e-09).transl(9.389699826874815e-08, -3.8709506223296945e-08, 0))
hIsland = hIsland.sub(rect(1e-08, -2.643380233167122e-09).transl(3.225698723987777e-08, -4e-08, 0))
hIsland = hIsland.sub(rect(1e-08, -6.243759090398751e-10).transl(-5.8424001615030674e-08, -4e-08, 0))
hIsland = hIsland.add(rect(1e-08, 4.962356428569145e-09).transl(5.626402798729554e-08, -4e-08, 0))
hIsland = hIsland.sub(rect(1e-08, -4.504975238953269e-09).transl(-1.1344095535123906e-07, -3.4346389032766295e-08, 0))
hIsland = hIsland.sub(rect(1e-08, -1.5576039032764722e-09).transl(1.3618361240539698e-08, -4e-08, 0))
hIsland = hIsland.add(rect(1e-08, 6.591785614244988e-09).transl(3.971570911676856e-08, -4e-08, 0))
hIsland = hIsland.sub(rect(1e-08, -7.483729622618897e-10).transl(2.8817619856786063e-08, -4e-08, 0))
hIsland = hIsland.add(rect(1e-08, 4.22955135910968e-10).transl(-4.092632975891977e-08, -4e-08, 0))
hIsland = hIsland.add(rect(1e-08, 1.394125088684423e-09).transl(-5.542071150921944e-08, -4e-08, 0))
hIsland = hIsland.sub(rect(1e-08, -1.7852785302843083e-09).transl(-2.0915724841963804e-08, -4e-08, 0))
hIsland = hIsland.add(rect(1e-08, 2.5050836653591398e-09).transl(-7.263228157543662e-08, -4e-08, 0))
hIsland = hIsland.sub(rect(1e-08, -5.0060432846894535e-09).transl(-9.894575581820127e-08, -3.79064608864672e-08, 0))
hIsland = hIsland.add(rect(1e-08, 1.9897036903518458e-09).transl(-8.791105319191544e-08, -3.9402848241687865e-08, 0))
hIsland = hIsland.sub(rect(1e-08, -4.88202742252888e-09).transl(1.1656473265479455e-07, -3.32954365880484e-08, 0))
hIsland = hIsland.add(rect(1e-08, 3.5701669851158104e-10).transl(8.923373113353233e-08, -3.927304178430639e-08, 0))
hIsland = hIsland.add(rect(1e-08, 5.199500904842365e-10).transl(-9.641792076586272e-09, -4e-08, 0))
hIsland = hIsland.add(rect(1e-08, 6.169715440271665e-09).transl(-1.1618121212121591e-07, -3.343071755580187e-08, 0))
hIsland = hIsland.add(rect(1e-08, 2.9425240683579795e-09).transl(2.6507889556699655e-08, -4e-08, 0))
hIsland = hIsland.sub(rect(1e-08, -3.921272795240038e-09).transl(1.122798852684893e-07, -3.4708529203421363e-08, 0))
hIsland = hIsland.add(rect(1e-08, 6.216017714277103e-09).transl(-1.0501710072281357e-07, -3.665662374636473e-08, 0))
hIsland = hIsland.sub(rect(1e-08, -2.1243997452153344e-09).transl(3.668590538078029e-08, -4e-08, 0))
hIsland = hIsland.sub(rect(1e-08, -3.1364839771505057e-09).transl(8.815999496916961e-08, -3.937941538273414e-08, 0))
hIsland = hIsland.sub(rect(1e-08, -1.7859292120565197e-09).transl(-1.496617087370375e-08, -4e-08, 0))
hIsland = hIsland.add(rect(1e-08, 5.039464272725473e-10).transl(1.1686227355104508e-07, -3.3189235430301676e-08, 0))
hIsland = hIsland.sub(rect(1e-08, -7.694595515666977e-09).transl(-6.353400229630896e-09, -4e-08, 0))
hIsland = hIsland.add(rect(1e-08, 2.375634041343327e-09).transl(1.108484973098114e-07, -3.5134829531722536e-08, 0))
hIsland = hIsland.add(rect(1e-08, 1.1663243104510137e-09).transl(3.803025842212738e-08, -4e-08, 0))
hIsland = hIsland.add(rect(1e-08, 1.3775739824210956e-09).transl(-6.836773422605193e-09, -4e-08, 0))
hIsland = hIsland.add(rect(1e-08, 9.77123867241292e-10).transl(-1.394158983031168e-07, -2.0487165731133667e-08, 0))
hIsland = hIsland.add(rect(1e-08, 4.1188588232570275e-09).transl(1.4516736859154444e-07, -1.4126190748008798e-08, 0))
hIsland = hIsland.add(rect(1e-08, 1.8521113216143226e-10).transl(-6.05417476174874e-08, -4e-08, 0))
hIsland = hIsland.add(rect(1e-08, 7.130213755900752e-10).transl(-4.149862665436718e-08, -4e-08, 0))
hIsland = hIsland.add(rect(1e-08, 1.2433380314894517e-10).transl(-7.244994008578804e-08, -4e-08, 0))
hIsland = hIsland.sub(rect(1e-08, -3.2355417188390644e-09).transl(1.2007586277563606e-07, -3.1969614885391116e-08, 0))
hIsland = hIsland.sub(rect(1e-08, -1.0164488176339051e-09).transl(-7.260541958233211e-08, -4e-08, 0))
hIsland = hIsland.add(rect(1e-08, 2.2178545700145617e-09).transl(6.670636065753783e-08, -4e-08, 0))
hIsland = hIsland.add(rect(1e-08, 1.5373683442579599e-09).transl(1.6264877092222854e-08, -4e-08, 0))
hIsland = hIsland.add(rect(1e-08, 6.855730625279809e-10).transl(2.3913953739215103e-08, -4e-08, 0))
hIsland = hIsland.add(rect(1e-08, 4.930827093129218e-09).transl(-1.3294859088788567e-07, -2.5393393025478206e-08, 0))
hIsland = hIsland.sub(rect(1e-08, -2.380167802788989e-09).transl(-4.538361139871008e-08, -4e-08, 0))
hIsland = hIsland.add(rect(1e-08, 2.8482707990483924e-10).transl(5.0188709839398325e-08, -4e-08, 0))
hIsland = hIsland.sub(rect(1e-08, -5.550894063171801e-09).transl(1.2137705939995518e-07, -3.143577403959691e-08, 0))
hIsland = hIsland.sub(rect(1e-08, -5.428386100922539e-09).transl(-1.0336011703296122e-08, -4e-08, 0))
hIsland = hIsland.sub(rect(1e-08, -1.1253689823468946e-09).transl(2.860378622677735e-08, -4e-08, 0))
hIsland = hIsland.add(rect(1e-08, 6.539235722507429e-10).transl(1.2259770288757856e-07, -3.091244664883573e-08, 0))
hIsland = hIsland.add(rect(1e-08, 1.3911457300462277e-09).transl(9.06431980341818e-08, -3.9120246689568465e-08, 0))
hIsland = hIsland.add(rect(1e-08, 2.5969313773548413e-10).transl(-9.524517180644259e-08, -3.851513487135892e-08, 0))
hIsland = hIsland.add(rect(1e-08, 3.744296670255275e-09).transl(-1.7333470746437671e-09, -4e-08, 0))
hIsland = hIsland.sub(rect(1e-08, -1.8326303836229724e-09).transl(-1.7134389763066526e-08, -4e-08, 0))
hIsland = hIsland.add(rect(1e-08, 3.725249408999665e-09).transl(1.2718783299477758e-07, -2.8727959713127263e-08, 0))
hIsland = hIsland.add(rect(1e-08, 1.2168232682252102e-09).transl(-8.770529287155229e-08, -3.942186838771244e-08, 0))
hIsland = hIsland.sub(rect(1e-08, -4.0477930678296943e-10).transl(8.037829294480041e-08, -3.9897019312780984e-08, 0))
hIsland = hIsland.add(rect(1e-08, 4.8753520880928645e-09).transl(-1.399673338018379e-07, -1.9985740969841095e-08, 0))
hIsland = hIsland.add(rect(1e-08, 5.437893369779666e-09).transl(1.3235881243289006e-07, -2.5771462660380887e-08, 0))
hIsland = hIsland.add(rect(1e-08, 1.0591035058763471e-08).transl(-1.2972715479889795e-07, -2.7350894014843267e-08, 0))
hIsland = hIsland.add(rect(1e-08, 1.556249425303242e-10).transl(1.015007393467034e-07, -3.741975070295232e-08, 0))
hIsland = hIsland.sub(rect(1e-08, -3.7241987112700898e-09).transl(-7.776964182743493e-08, -3.997271632754045e-08, 0))
hIsland = hIsland.sub(rect(1e-08, -1.8156916766064804e-09).transl(-8.311170394541576e-09, -4e-08, 0))
hIsland = hIsland.sub(rect(1e-08, -1.857578329757447e-09).transl(8.94295141843773e-08, -3.925271419947544e-08, 0))
hIsland = hIsland.add(rect(1e-08, 3.6424462174245857e-09).transl(1.424618471138366e-07, -1.7477547218622814e-08, 0))
hIsland = hIsland.sub(rect(1e-08, -4.199118707313876e-09).transl(5.1588521742594456e-08, -4e-08, 0))
hIsland = hIsland.sub(rect(1e-08, -2.48690459515406e-09).transl(-2.6023755023835117e-08, -4e-08, 0))
hIsland = hIsland.sub(rect(1e-08, -5.463297280026862e-09).transl(8.022914467857772e-09, -4e-08, 0))
hIsland = hIsland.sub(rect(1e-08, -1.9877368476421384e-09).transl(-1.48667180231877e-07, -7.50744212329365e-09, 0))
hIsland = hIsland.add(rect(1e-08, 7.436818243465721e-09).transl(1.0884034441150779e-07, -3.5696821506003035e-08, 0))
hIsland = hIsland.sub(rect(1e-08, -5.045647484995758e-09).transl(1.3745666006534838e-07, -2.2145639075379274e-08, 0))
hIsland = hIsland.sub(rect(1e-08, -4.894708274134409e-09).transl(-6.453649919646953e-08, -4e-08, 0))
hIsland = hIsland.sub(rect(1e-08, -5.601396696156375e-09).transl(-5.7584292170350034e-08, -4e-08, 0))
hIsland = hIsland.add(rect(1e-08, 3.328165167493984e-09).transl(4.014021304485343e-08, 4e-08, 0))
hIsland = hIsland.sub(rect(1e-08, -8.287720220634646e-10).transl(4.870360052573494e-08, 4e-08, 0))
hIsland = hIsland.add(rect(1e-08, 2.2505267831158734e-09).transl(1.0700209557263717e-08, 4e-08, 0))
hIsland = hIsland.sub(rect(1e-08, -7.355673613604948e-09).transl(9.602020562402861e-08, 3.839685526206006e-08, 0))
hIsland = hIsland.sub(rect(1e-08, -2.768323260115005e-10).transl(-9.914376290124109e-08, 3.787071795405427e-08, 0))
hIsland = hIsland.sub(rect(1e-08, -1.4703632983071353e-09).transl(6.361260681524579e-08, 4e-08, 0))
hIsland = hIsland.sub(rect(1e-08, -1.0009893839798422e-10).transl(5.596387334652388e-09, 4e-08, 0))
hIsland = hIsland.add(rect(1e-08, 2.098646212480275e-09).transl(-7.200847293718164e-09, 4e-08, 0))
hIsland = hIsland.sub(rect(1e-08, -1.608843673270624e-09).transl(4.819580983606783e-08, 4e-08, 0))
hIsland = hIsland.add(rect(1e-08, 3.1637008602790356e-09).transl(1.5637393867159316e-08, 4e-08, 0))
hIsland = hIsland.add(rect(1e-08, 1.562020283338876e-09).transl(-1.7340131519559628e-08, 4e-08, 0))
hIsland = hIsland.sub(rect(1e-08, -5.446298720443422e-09).transl(1.0923345166520806e-08, 4e-08, 0))
hIsland = hIsland.sub(rect(1e-08, -1.2690513133153034e-09).transl(1.1112837876293818e-07, 3.505318979744592e-08, 0))
hIsland = hIsland.sub(rect(1e-08, -2.9360518851105577e-09).transl(3.8350610507266895e-08, 4e-08, 0))
hIsland = hIsland.add(rect(1e-08, 1.2355314108508793e-10).transl(1.0389578668155035e-07, 3.6912036264700534e-08, 0))
hIsland = hIsland.add(rect(1e-08, 1.7676423896743167e-09).transl(-5.7132010934025674e-08, 4e-08, 0))
hIsland = hIsland.sub(rect(1e-08, -2.6738456680768155e-11).transl(-1.226743674687159e-07, 3.087882409486058e-08, 0))
hIsland = hIsland.sub(rect(1e-08, -2.1001238191873795e-09).transl(3.284381275039769e-08, 4e-08, 0))
hIsland = hIsland.add(rect(1e-08, 2.451950171438617e-11).transl(-1.5873449392763632e-08, 4e-08, 0))
hIsland = hIsland.sub(rect(1e-08, -1.6259116347456996e-09).transl(-6.53461291947688e-08, 4e-08, 0))
hIsland = hIsland.add(rect(1e-08, 3.0062737728048436e-09).transl(1.7023090900508455e-08, 4e-08, 0))
hIsland = hIsland.add(rect(1e-08, 2.8267717850745668e-09).transl(2.1086939363996632e-08, 4e-08, 0))
hIsland = hIsland.sub(rect(1e-08, -4.352051527783789e-09).transl(-5.0080365543517136e-08, 4e-08, 0))
hIsland = hIsland.add(rect(1e-08, 6.477556479401473e-09).transl(-9.508991025096966e-08, 3.853825299568735e-08, 0))
hIsland = hIsland.sub(rect(1e-08, -3.6328978166436182e-09).transl(-9.363831334759028e-08, 3.8745164551959855e-08, 0))
hIsland = hIsland.add(rect(1e-08, 4.602270085501403e-09).transl(6.934181962872354e-08, 4e-08, 0))
hIsland = hIsland.sub(rect(1e-08, -5.544108013762233e-10).transl(1.2534362418406574e-07, 2.964930190348257e-08, 0))
hIsland = hIsland.sub(rect(1e-08, -9.76256280834761e-09).transl(4.634034630661914e-08, 4e-08, 0))
hIsland = hIsland.add(rect(1e-08, 4.89141907531675e-09).transl(-1.7067552312088674e-08, 4e-08, 0))
hIsland = hIsland.sub(rect(1e-08, -3.5631335798138456e-09).transl(-1.2191949234014382e-07, 3.1205976583323765e-08, 0))
hIsland = hIsland.add(rect(1e-08, 1.2132133560889321e-09).transl(3.917776975134323e-08, 4e-08, 0))
hIsland = hIsland.add(rect(1e-08, 3.02343368307579e-10).transl(1.528500237038554e-08, 4e-08, 0))
hIsland = hIsland.add(rect(1e-08, 2.5223276637947074e-09).transl(6.396718731216073e-08, 4e-08, 0))
hIsland = hIsland.add(rect(1e-08, 2.42351296417693e-09).transl(-1.237955774855989e-07, 3.0376559935596723e-08, 0))
hIsland = hIsland.add(rect(1e-08, 1.038398669324856e-09).transl(9.761617799037059e-08, 3.813802672509445e-08, 0))
hIsland = hIsland.sub(rect(1e-08, -1.0413514393749124e-08).transl(-1.8919872305563588e-08, 4e-08, 0))
hIsland = hIsland.sub(rect(1e-08, -3.250836116386365e-09).transl(9.504778904869242e-08, 3.8544491687317757e-08, 0))
hIsland = hIsland.sub(rect(1e-08, -8.787165739700614e-09).transl(-4.090722091081282e-08, 4e-08, 0))
hIsland = hIsland.sub(rect(1e-08, -6.432530859607095e-09).transl(5.716765833516861e-08, 4e-08, 0))
hIsland = hIsland.sub(rect(1e-08, -1.1458677087800234e-08).transl(-1.0912377595952294e-08, 4e-08, 0))
hIsland = hIsland.add(rect(1e-08, 2.0843004357538253e-09).transl(-9.91507383789039e-08, 3.7869452801740956e-08, 0))
hIsland = hIsland.sub(rect(1e-08, -7.010203052569213e-10).transl(1.1172458332049188e-07, 3.4876513505409024e-08, 0))
hIsland = hIsland.add(rect(1e-08, 2.776836620742002e-10).transl(5.3607288923833766e-08, 4e-08, 0))
hIsland = hIsland.sub(rect(1e-08, -7.978285843688805e-10).transl(-5.0754975240258694e-08, 4e-08, 0))
hIsland = hIsland.sub(rect(1e-08, -2.8419829294545205e-09).transl(4.0510982404336444e-08, 4e-08, 0))
hIsland = hIsland.sub(rect(1e-08, -4.444166662529564e-09).transl(-6.560022651923624e-08, 4e-08, 0))
hIsland = hIsland.add(rect(1e-08, 3.4119288203967414e-09).transl(4.172731022690258e-08, 4e-08, 0))
hIsland = hIsland.sub(rect(1e-08, -1.3736986829567092e-09).transl(-6.18169529910896e-10, 4e-08, 0))
hIsland = hIsland.add(rect(1e-08, 3.6777277971945487e-09).transl(-1.277374491026426e-07, 2.8441029327939105e-08, 0))
hIsland = hIsland.add(rect(1e-08, 2.47553733367563e-09).transl(6.615783945341616e-08, 4e-08, 0))
hIsland = hIsland.sub(rect(1e-08, -1.2702912856386163e-08).transl(9.024071941237644e-08, 3.916541048735992e-08, 0))
hIsland = hIsland.sub(rect(1e-08, -1.2077403826986243e-09).transl(-9.995298983168236e-08, 3.772121661178301e-08, 0))
hIsland = hIsland.sub(rect(1e-08, -1.5691256341559985e-09).transl(-9.816672360244183e-08, 3.804391536818097e-08, 0))
hIsland = hIsland.sub(rect(1e-08, -1.2069328200552505e-09).transl(2.3803298135658693e-08, 4e-08, 0))
hIsland = hIsland.sub(rect(1e-08, -2.1674233097835855e-10).transl(-4.325553986941031e-08, 4e-08, 0))
hIsland = hIsland.add(rect(1e-08, 3.783606383867087e-09).transl(1.0731846006007836e-08, 4e-08, 0))
hIsland = hIsland.sub(rect(1e-08, -2.754845639454951e-09).transl(-7.416327730053405e-08, 4e-08, 0))
hIsland = hIsland.add(rect(1e-08, 1.1991314968000502e-08).transl(9.364415208991587e-08, 3.874436549385257e-08, 0))
hIsland = hIsland.sub(rect(1e-08, -5.566093447431103e-10).transl(-1.0398848400321182e-07, 3.6891356343398635e-08, 0))
hIsland = hIsland.sub(rect(1e-08, -2.08281383045438e-09).transl(-1.0903776811219393e-07, 3.564339065329055e-08, 0))
hIsland = hIsland.sub(rect(1e-08, -4.030531984307025e-09).transl(-1.84763653861167e-08, 4e-08, 0))
hIsland = hIsland.add(rect(1e-08, 6.177297969553367e-10).transl(-1.2356916470723778e-07, 3.047959749931364e-08, 0))
hIsland = hIsland.add(rect(1e-08, 6.2309463526979595e-09).transl(-5.7747439390428295e-08, 4e-08, 0))
hIsland = hIsland.add(rect(1e-08, 2.8299581638898984e-09).transl(-1.3109740635307956e-07, 2.654950797027053e-08, 0))
hIsland = hIsland.sub(rect(1e-08, -5.832154568391957e-10).transl(1.2361577147054165e-07, 3.045845497772265e-08, 0))
hIsland = hIsland.sub(rect(1e-08, -9.192921372604307e-10).transl(-1.4862484912583834e-07, 7.624644789290643e-09, 0))
hIsland = hIsland.sub(rect(1e-08, -3.788768917010853e-09).transl(5.237929572804648e-08, 4e-08, 0))
hIsland = hIsland.sub(rect(1e-08, -2.4658140220582573e-09).transl(7.625659567257773e-08, 3.999438526750152e-08, 0))
hIsland = hIsland.sub(rect(1e-08, -1.4864403280027264e-09).transl(-1.2942124996978373e-07, 2.7523966389755214e-08, 0))
hIsland = hIsland.add(rect(1e-08, 3.5934317309474166e-10).transl(6.48482910457978e-08, 4e-08, 0))
hIsland = hIsland.add(rect(1e-08, 3.316405981208126e-10).transl(6.814425473063704e-08, 4e-08, 0))
hIsland = hIsland.sub(rect(1e-08, -2.3434513403639694e-09).transl(4.8802809134224585e-08, 4e-08, 0))
hIsland = hIsland.sub(rect(1e-08, -2.5986924970964867e-09).transl(7.27646050629936e-08, 4e-08, 0))
hIsland = hIsland.add(rect(1e-08, 3.838865431601476e-09).transl(-4.885843861340371e-08, 4e-08, 0))
hIsland = hIsland.sub(rect(1e-08, -1.600671825284325e-09).transl(7.805798419838834e-10, 4e-08, 0))
hIsland = hIsland.add(rect(1e-08, 1.343435444733226e-09).transl(3.8651030971711535e-08, 4e-08, 0))
hIsland = hIsland.add(rect(1e-08, 1.278876155358164e-09).transl(1.3930661096581466e-07, 2.0584592545542142e-08, 0))
hIsland = hIsland.add(rect(1e-08, 7.361340701262901e-09).transl(-5.914857304366952e-08, 4e-08, 0))
hIsland = hIsland.sub(rect(1e-08, -9.873882705320223e-10).transl(5.152819479926182e-08, 4e-08, 0))
hIsland = hIsland.add(rect(1e-08, 6.109271203323019e-10).transl(-1.2902394586162859e-08, 4e-08, 0))
hIsland = hIsland.add(rect(1e-08, 5.5660676478555815e-09).transl(5.526286934949229e-08, 4e-08, 0))
hIsland = hIsland.sub(rect(1e-08, -1.9700227350317837e-09).transl(2.8634928260060047e-08, 4e-08, 0))
hIsland = hIsland.sub(rect(1e-08, -5.815312684305707e-09).transl(-7.797881124516026e-08, 3.9968437978440786e-08, 0))
hIsland = hIsland.sub(rect(1e-08, -2.0845692677594893e-09).transl(-1.339183409862204e-07, 2.475051174399014e-08, 0))
hIsland = hIsland.sub(rect(1e-08, -2.0238685153094777e-09).transl(-3.440660209170202e-08, 4e-08, 0))
hIsland = hIsland.sub(rect(1e-08, -3.2923810497545557e-09).transl(1.0089570675498328e-08, 4e-08, 0))
hIsland = hIsland.add(rect(1e-08, 1.261582096868123e-09).transl(-1.7280267166995426e-08, 4e-08, 0))
hIsland = hIsland.add(rect(1e-08, 3.744628920202002e-09).transl(-1.3981959273236212e-07, 2.0121730152326517e-08, 0))
hIsland = hIsland.sub(rect(1e-08, -4.763549137398304e-10).transl(-9.972726879884831e-08, 3.776347320278733e-08, 0))
hIsland = hIsland.sub(rect(1e-08, -7.982442647385878e-10).transl(-1.2093459536973889e-07, 3.16200238025053e-08, 0))
hIsland = hIsland.sub(rect(1e-08, -1.0277302672949259e-08).transl(6.788908022271805e-08, 4e-08, 0))
hIsland = hIsland.sub(rect(1e-08, -6.330437324682935e-10).transl(-1.3280032322047863e-08, 4e-08, 0))
hIsland = hIsland.add(rect(1e-08, 5.054961403177941e-09).transl(-2.2528080113492542e-08, 4e-08, 0))
hIsland = hIsland.add(rect(1e-08, 1.2862768905615922e-09).transl(7.187607481719524e-08, 4e-08, 0))
hIsland = hIsland.add(rect(1e-08, 3.507392698396779e-09).transl(4.379703395845867e-08, 4e-08, 0))
hIsland = hIsland.sub(rect(1e-08, -2.0716522151601753e-09).transl(1.42330031063027e-07, 1.762153766670733e-08, 0))
hIsland = hIsland.sub(rect(1e-08, -7.0137739667031265e-09).transl(3.668961697752698e-08, 4e-08, 0))
hIsland = hIsland.add(rect(1e-08, 1.6517159627588185e-09).transl(-9.28171433898286e-08, 3.885489597013669e-08, 0))
hIsland = hIsland.add(rect(1e-08, 4.772297450183527e-09).transl(3.8600690380135764e-08, 4e-08, 0))
hIsland = hIsland.add(rect(1e-08, 2.0081663318645963e-09).transl(-1.4073080828713756e-07, 1.9262570946769916e-08, 0))
vIsland := hIsland.rotz(pi / 2)
vIslands := Universe().Inverse()
hIslands := Universe().Inverse()
hIslands = hIslands.add(hIsland.transl(-a/2, a, 0))
hIslands = hIslands.add(hIsland.transl(-a/2, -a, 0))
hIslands = hIslands.add(hIsland.transl(a/2, a, 0))
hIslands = hIslands.add(hIsland.transl(a/2, -a, 0))
hIslands = hIslands.add(hIsland.transl(-a/2, 0, 0))
hIslands = hIslands.add(hIsland.transl(a/2, 0, 0))
vIslands = vIslands.add(vIsland.transl(-a, a/2, 0))
vIslands = vIslands.add(vIsland.transl(a, a/2, 0))
vIslands = vIslands.add(vIsland.transl(-a, -a/2, 0))
vIslands = vIslands.add(vIsland.transl(a, -a/2, 0))
vIslands = vIslands.add(vIsland.transl(0, a/2, 0))
vIslands = vIslands.add(vIsland.transl(0, -a/2, 0))
DefRegion(1, hIslands)
DefRegion(2, vIslands)
TableAdd(m_full.Region(1))
TableAdd(m_full.Region(2))
setgeom(hIslands.add(vIslands))
save(m)
r2o2 := sqrt(2) / 2
m = RandomMagSeed(4)
B_ext = vector(Bmax*r2o2, Bmax*r2o2, 0)
relax()
minimize()
for B := Bmax; B >= -Bmax; B -= Bstep {
	B_ext = vector(B*r2o2, B*r2o2, 0)
	minimize()
	tablesave()
}
//********************************************************************//
//Please cite the following references, relevant for your simulation. //
//See bibtex file in output folder for justification.                 //
//********************************************************************//
//   * Vansteenkiste et al., AIP Adv. 4, 107133 (2014).
//   * Exl et al., J. Appl. Phys. 115, 17D118 (2014).
