# t (s)	mx ()	my ()	mz ()	B_extx (T)	B_exty (T)	B_extz (T)	m_fullx (A/m)	m_fully (A/m)	m_fullz (A/m)	m_full.region1x (A/m)	m_full.region1y (A/m)	m_full.region1z (A/m)	m_full.region2x (A/m)	m_full.region2y (A/m)	m_full.region2z (A/m)
0	0.6284481	0.628446	-7.714898e-10	0.07071035	0.07071035	0	22721.238	22721.156	-2.6736563e-05	664943.5	214881.27	-0.0006581366	214884.02	664943	-0.00034917812
0	0.6281168	0.62811416	-3.218397e-10	0.07035735	0.07035735	0	22709.256	22709.16	-1.1221246e-05	665165.7	214194.64	-0.00020224902	214197.78	665165.1	-0.00018930428
0	0.62778056	0.6277779	-2.63851e-10	0.07000352	0.07000352	0	22697.1	22697.004	-9.267305e-06	665390.06	213499.61	-0.00018851673	213502.72	665389.44	-0.00017341806
0	0.62744266	0.62744	-1.9300442e-10	0.06964972	0.06964972	0	22684.883	22684.787	-6.690136e-06	665614.3	212802.17	-0.00015340018	212805.33	665613.8	-7.198909e-05
0	0.6271021	0.62709934	-2.522553e-10	0.06929681	0.06929681	0	22672.568	22672.473	-9.221489e-06	665839.2	212100.55	-0.00018105019	212103.67	665838.56	-0.0001710492
0	0.6267607	0.6267581	-2.9794764e-10	0.068943016	0.068943016	0	22660.229	22660.133	-1.0158061e-05	666063.25	211398.56	-0.00026070254	211401.7	666062.75	-0.000119737866
0	0.6264164	0.6264138	-3.106691e-10	0.068589196	0.068589196	0	22647.78	22647.686	-1.082377e-05	666288.25	210691.62	-0.00027891292	210694.78	666287.6	-0.00013020755
0	0.62607074	0.6260681	-3.1107256e-10	0.06823614	0.06823614	0	22635.281	22635.186	-1.1960333e-05	666512.75	209983.08	-0.00031035964	209986.23	666512.3	-0.00014024448
0	0.625723	0.6257204	-2.6940478e-10	0.06788247	0.06788247	0	22622.713	22622.617	-9.708771e-06	666737.4	209271.64	-0.00027303147	209274.78	666736.9	-0.00010045607
0	0.6253713	0.6253686	-1.9320642e-10	0.06752808	0.06752808	0	22609.994	22609.9	-8.3250015e-06	666963.44	208553.22	-0.00010938051	208556.38	666962.94	-0.00020849645
0	0.6250215	0.62501895	-1.7707168e-10	0.06717558	0.06717558	0	22597.348	22597.258	-5.9443178e-06	667187.06	207839.94	-0.00015983687	207843.1	667186.56	-3.8576127e-05
0	0.6246669	0.6246643	-3.190094e-10	0.06682197	0.06682197	0	22584.527	22584.434	-1.1950943e-05	667412.4	207118.1	-0.0002622797	207121.27	667411.9	-0.00013357971
0	0.62431186	0.62430924	-2.3752164e-10	0.06646759	0.06646759	0	22571.69	22571.596	-9.228505e-06	667636.94	206396.42	-0.00021310369	206399.56	667636.5	-0.000114723414
0	0.6239547	0.62395215	-3.8326134e-10	0.06611506	0.06611506	0	22558.781	22558.686	-1.3802459e-05	667861.5	205671.98	-0.00029651477	205675.12	667861	-0.00021847326
0	0.62359524	0.6235927	-3.5157316e-10	0.065761305	0.065761305	0	22545.781	22545.69	-1.2228162e-05	668086.2	204943.89	-0.00028498212	204947.03	668085.75	-0.00017837153
0	0.6232332	0.62323064	-1.4561949e-10	0.065407045	0.065407045	0	22532.695	22532.602	-5.373329e-06	668311.3	204212.05	-0.00012831017	204215.2	668310.8	-4.034473e-05
0	0.6228699	0.6228673	-1.7616601e-10	0.06505334	0.06505334	0	22519.559	22519.467	-7.663963e-06	668536.06	203478.77	-0.00012214486	203481.92	668535.5	-0.00014562387
0	0.62250346	0.62250084	-1.3041143e-10	0.064700775	0.064700775	0	22506.31	22506.217	-5.1819684e-06	668761.3	202740.4	-0.00017410953	202743.56	668760.9	-3.651541e-05
0	0.62213653	0.6221339	-4.380212e-10	0.064346395	0.064346395	0	22493.043	22492.95	-1.4656953e-05	668985.56	202002.36	-0.0002942704	202005.52	668985.25	-0.00026363967
0	0.6217667	0.6217641	-2.1894982e-10	0.06399281	0.06399281	0	22479.67	22479.578	-8.8161005e-06	669210.44	201259.75	-0.00019856839	201262.92	669209.94	-9.071991e-05
0	0.621395	0.6213924	-1.3445285e-10	0.06363959	0.06363959	0	22466.232	22466.139	-5.5695173e-06	669435.2	200514.72	-7.944513e-05	200517.88	669434.7	-7.732796e-05
0	0.6210206	0.621018	-2.3462463e-10	0.06328585	0.06328585	0	22452.7	22452.605	-8.907946e-06	669660	199765.64	-0.00014775584	199768.81	669659.56	-0.00019459664
0	0.620643	0.6206403	-2.1513012e-10	0.06293233	0.06293233	0	22439.045	22438.951	-7.6270267e-06	669885.6	199011.33	-0.00015495493	199014.47	669885.2	-0.00013130612
0	0.620267	0.6202644	-3.494671e-10	0.06257907	0.06257907	0	22425.45	22425.357	-1.09370385e-05	670109	198261.58	-0.00026716018	198264.73	670108.6	-0.00015865374
0	0.61988497	0.6198824	-3.0155686e-10	0.062225346	0.062225346	0	22411.643	22411.549	-1.1955336e-05	670334.6	197501.28	-0.00032595504	197504.45	670334.2	-0.000118847056
0	0.6195039	0.6195013	-3.3855757e-10	0.06187167	0.06187167	0	22397.863	22397.77	-1.1847746e-05	670558.25	196743.94	-0.00026523595	196747.11	670557.94	-0.00018871637
0	0.6191186	0.61911607	-3.8784548e-10	0.061518516	0.061518516	0	22383.93	22383.84	-1.4302723e-05	670783.06	195979.72	-0.00025920666	195982.89	670782.7	-0.00024755852
0	0.61873233	0.61872977	-2.4966504e-10	0.061164852	0.061164852	0	22369.967	22369.873	-8.702123e-06	671007.3	195214.8	-0.00024158774	195217.97	671006.9	-7.9654244e-05
0	0.61834264	0.6183401	-2.9034108e-10	0.060811155	0.060811155	0	22355.879	22355.785	-1.1039756e-05	671231.94	194444.58	-0.00024614908	194447.77	671231.5	-0.00014705678
0	0.6179522	0.61794966	-4.353452e-10	0.06045782	0.06045782	0	22341.762	22341.672	-1.6263075e-05	671455.75	193674.2	-0.00035833757	193677.39	671455.4	-0.00024155859
0	0.61755854	0.617556	-1.8456112e-10	0.060104296	0.060104296	0	22327.527	22327.436	-6.732237e-06	671680.06	192898.66	-0.00011455776	192901.81	671679.7	-0.00013271335
0	0.6171628	0.6171603	-3.0420838e-10	0.059749953	0.059749953	0	22313.225	22313.133	-1.0899235e-05	671904.2	192120.69	-0.00023382847	192123.83	671903.75	-0.00014385341
0	0.61676466	0.6167622	-1.6698404e-10	0.059397247	0.059397247	0	22298.828	22298.736	-5.432375e-06	672128.3	191339.12	-0.00011539343	191342.28	672127.9	-8.664096e-05
0	0.6163649	0.6163623	-3.202946e-10	0.059043795	0.059043795	0	22284.373	22284.281	-1.1609143e-05	672351.9	190555.73	-0.00032672315	190558.94	672351.56	-0.00012033907
0	0.6159627	0.6159602	-1.4447477e-10	0.058689456	0.058689456	0	22269.832	22269.742	-5.36968e-06	672575.44	189769.12	-0.0001521337	189772.3	672575.06	-3.6238824e-05
0	0.6155575	0.61555505	-3.3577977e-10	0.05833672	0.05833672	0	22255.184	22255.092	-1.1010491e-05	672799.44	188977.95	-0.00022820837	188981.11	672799.06	-0.00017362121
0	0.61515033	0.6151479	-9.2229786e-11	0.057983108	0.057983108	0	22240.465	22240.371	-3.63722e-06	673023	188184.39	-9.711858e-05	188187.55	673022.7	-9.122704e-06
0	0.61474	0.61473745	-2.264987e-10	0.05762891	0.05762891	0	22225.623	22225.535	-7.957333e-06	673246.8	187385.9	-0.00017710973	187389.06	673246.56	-0.00012717117
0	0.6143295	0.6143271	-1.8576915e-10	0.05727533	0.05727533	0	22210.785	22210.695	-5.9434055e-06	673469.44	186588.73	-0.00025020668	186591.89	673469.06	-1.3737518e-05
0	0.61391544	0.61391294	-3.2695055e-10	0.05692256	0.05692256	0	22195.814	22195.723	-1.165306e-05	673692.56	185785.95	-0.0003104114	185789.1	673692.2	-0.000114115246
0	0.6134985	0.61349607	-1.7790218e-10	0.056568235	0.056568235	0	22180.742	22180.652	-6.544784e-06	673915.6	184979.12	-0.00014083134	184982.3	673915.4	-8.1846396e-05
0	0.61308014	0.61307764	-3.2526035e-10	0.056214813	0.056214813	0	22165.613	22165.523	-1.2781324e-05	674138.2	184170.81	-0.000274799	184173.95	674137.9	-0.00017175573
0	0.6126583	0.61265594	-1.932074e-10	0.055861287	0.055861287	0	22150.365	22150.275	-5.2263476e-06	674361.06	183357.45	-0.00018252358	183360.61	674360.8	-1.565213e-05
0	0.6122352	0.6122326	-1.9899507e-10	0.055507686	0.055507686	0	22135.062	22134.975	-7.612427e-06	674583.3	182542.77	-0.0001619981	182545.9	674582.94	-0.00014434782
0	0.6118089	0.6118065	-1.2101822e-10	0.055154335	0.055154335	0	22119.656	22119.566	-3.9214406e-06	674805.6	181723.8	-0.00016577417	181726.94	674805.3	-1.6018122e-06
0	0.61138004	0.6113776	-2.970467e-10	0.05480076	0.05480076	0	22104.15	22104.06	-1.1076326e-05	675027.9	180901.14	-0.00017995645	180904.28	675027.56	-0.00023747272
0	0.61094934	0.61094695	-2.6846325e-10	0.054447178	0.054447178	0	22088.576	22088.488	-1.0665813e-05	675249.56	180076.48	-0.00019367668	180079.61	675249.2	-0.00020822643
0	0.6105155	0.6105131	-3.1037778e-10	0.054093663	0.054093663	0	22072.893	22072.803	-1.1184578e-05	675471.25	179247.25	-0.0002485161	179250.39	675471.06	-0.00017843477
0	0.6100796	0.61007714	-1.8198924e-10	0.053740177	0.053740177	0	22057.13	22057.043	-6.4592623e-06	675692.75	178415.58	-0.00015376363	178418.75	675692.5	-8.47015e-05
0	0.609641	0.6096386	-3.4423706e-10	0.053386666	0.053386666	0	22041.275	22041.188	-1.2602176e-05	675913.94	177580.38	-0.00023149999	177583.48	675913.7	-0.00021917219
0	0.60919994	0.60919756	-2.9292743e-10	0.053033147	0.053033147	0	22025.328	22025.242	-1.0830446e-05	676134.94	176741.81	-0.00027104738	176744.95	676134.75	-0.00012803428
0	0.6087566	0.60875416	-1.7102271e-10	0.05267945	0.05267945	0	22009.297	22009.209	-5.1856414e-06	676355.6	175900.39	-0.00020203275	175903.55	676355.4	-1.925731e-05
0	0.60831016	0.6083078	-2.9236308e-10	0.052326117	0.052326117	0	21993.158	21993.07	-1.017723e-05	676576.2	175054.9	-0.00025887907	175058.05	676575.94	-0.00010532434
0	0.6078612	0.60785884	-3.3053707e-10	0.051971845	0.051971845	0	21976.926	21976.84	-1.1547631e-05	676796.56	174206.03	-0.00023861392	174209.16	676796.3	-0.00020267472
0	0.60741	0.6074076	-3.1782924e-10	0.051618867	0.051618867	0	21960.613	21960.527	-1.15197645e-05	677016.5	173354.4	-0.00028220977	173357.55	677016.2	-0.00016351568
0	0.6069561	0.6069537	-1.3213816e-10	0.051265612	0.051265612	0	21944.205	21944.117	-4.3459586e-06	677236.1	172499.33	-0.00013316314	172502.42	677235.9	-2.787614e-05
0	0.6064992	0.60649675	-3.031989e-10	0.050911337	0.050911337	0	21927.684	21927.598	-1.2064052e-05	677455.7	171640.05	-0.0002642018	171643.17	677455.44	-0.00019463651
0	0.6060401	0.60603774	-1.8496371e-10	0.050558325	0.050558325	0	21911.084	21911	-7.38856e-06	677674.6	170778.36	-0.00015142726	170781.45	677674.5	-0.000104727515
0	0.6055783	0.6055759	-3.7240477e-10	0.05020489	0.05020489	0	21894.389	21894.305	-1.3299206e-05	677893.5	169913.02	-0.0002975709	169916.14	677893.25	-0.00014800504
0	0.6051137	0.6051113	-2.0759365e-10	0.049850788	0.049850788	0	21877.59	21877.504	-7.671159e-06	678112.06	169044	-0.00014347112	169047.1	678111.8	-0.0001315736
0	0.60464656	0.6046443	-2.526726e-10	0.04949739	0.04949739	0	21860.703	21860.62	-9.435313e-06	678330.06	168172.02	-0.00021722863	168175.14	678329.94	-0.00013607129
0	0.6041765	0.60417426	-2.2839201e-10	0.049144328	0.049144328	0	21843.71	21843.627	-8.721384e-06	678548	167296.16	-0.00024489607	167299.25	678547.8	-4.644509e-05
0	0.6037037	0.6037013	-2.7544939e-10	0.048790082	0.048790082	0	21826.611	21826.527	-9.889669e-06	678765.56	166416.44	-0.00019733638	166419.52	678765.44	-0.0001896448
0	0.6032271	0.6032248	-2.6185284e-10	0.04843687	0.04843687	0	21809.385	21809.3	-9.038637e-06	678983.2	165531.72	-0.0002714708	165534.81	678983	-5.354656e-05
0	0.60274965	0.6027474	-2.9370117e-10	0.04808294	0.04808294	0	21792.121	21792.037	-1.0877876e-05	679199.6	164646.83	-0.00027345197	164649.94	679199.56	-0.00016770864
0	0.60226846	0.60226625	-2.0174197e-10	0.04772953	0.04772953	0	21774.727	21774.645	-8.012263e-06	679416.1	163756.75	-0.00022808512	163759.86	679416.06	-4.0969928e-05
0	0.60178477	0.60178256	-1.8187983e-10	0.047376405	0.047376405	0	21757.236	21757.154	-7.3093875e-06	679632.1	162863.47	-0.00021055188	162866.53	679632	-3.0260326e-05
0	0.6012979	0.6012956	-2.988242e-10	0.047022395	0.047022395	0	21739.633	21739.549	-1.1428836e-05	679847.9	161966	-0.00018997022	161969.11	679847.8	-0.00021341308
0	0.6008075	0.6008053	-3.3660996e-10	0.04666901	0.04666901	0	21721.906	21721.822	-1.25723245e-05	680063.56	161063.97	-0.0002906017	161067.05	680063.44	-0.00016452886
0	0.6003152	0.60031307	-1.8125428e-10	0.046315704	0.046315704	0	21704.107	21704.025	-7.2930707e-06	680278.4	160160.05	-0.00011483872	160163.11	680278.25	-0.00013425002
0	0.5998204	0.5998181	-2.9722166e-10	0.045961797	0.045961797	0	21686.213	21686.133	-1.1100283e-05	680492.6	159252.84	-0.00022604922	159255.88	680492.56	-0.00016967789
0	0.59932214	0.5993198	-2.2297213e-10	0.045608494	0.045608494	0	21668.2	21668.12	-8.20444e-06	680706.7	158341.22	-0.0001948151	158344.25	680706.6	-0.00012363942
0	0.5988206	0.5988184	-1.7240953e-10	0.045255188	0.045255188	0	21650.07	21649.99	-6.209328e-06	680920.5	157425.4	-0.00012645745	157428.45	680920.4	-0.00010938046
0	0.5983159	0.5983136	-1.1735066e-10	0.04490103	0.04490103	0	21631.82	21631.742	-3.9283354e-06	681133.94	156505.3	-2.0076197e-05	156508.34	681133.8	-0.00011927471
0	0.5978092	0.597807	-2.1425188e-10	0.044547945	0.044547945	0	21613.502	21613.424	-7.8419835e-06	681346.44	155583.48	-0.0002225493	155586.53	681346.4	-6.527004e-05
0	0.59729886	0.59729666	-4.0264667e-10	0.04419374	0.04419374	0	21595.047	21594.97	-1.3332092e-05	681558.75	154656.56	-0.00032989608	154659.58	681558.75	-0.0001621105
0	0.5967863	0.5967841	-1.8143097e-10	0.043840446	0.043840446	0	21576.518	21576.44	-7.0163333e-06	681770.3	153727.47	-0.00019031923	153730.48	681770.25	-9.849131e-05
0	0.5962697	0.5962675	-2.3983412e-10	0.043487187	0.043487187	0	21557.844	21557.762	-8.560906e-06	681981.8	152792.81	-0.00014866954	152795.83	681981.75	-0.00016671208
0	0.59575075	0.5957486	-1.947655e-10	0.043133244	0.043133244	0	21539.08	21539.002	-6.6517878e-06	682192.44	151855.6	-7.8969955e-05	151858.61	682192.5	-0.0001476482
0	0.5952284	0.5952263	-3.58448e-10	0.042779926	0.042779926	0	21520.195	21520.117	-1.2320889e-05	682402.9	150913.97	-0.00030126367	150916.97	682402.8	-0.00017980643
0	0.5947035	0.59470135	-2.906612e-10	0.042426657	0.042426657	0	21501.215	21501.137	-1.00176285e-05	682612.44	149969.44	-0.00021749665	149972.44	682612.3	-0.00012383508
0	0.59417397	0.5941718	-2.762899e-10	0.04207268	0.04207268	0	21482.07	21481.992	-8.907864e-06	682822	149018.55	-0.00020940817	149021.53	682822	-0.00012172285
0	0.5936424	0.59364027	-2.1825962e-10	0.041719414	0.041719414	0	21462.854	21462.775	-8.1411645e-06	683030.56	148065.75	-0.00013913117	148068.73	683030.56	-0.00012556504
0	0.59310776	0.5931056	-2.4034788e-10	0.04136609	0.04136609	0	21443.521	21443.445	-8.290327e-06	683238.7	147109.16	-0.00019690144	147112.12	683238.75	-0.00011153562
0	0.59256995	0.5925679	-3.1776226e-10	0.041011933	0.041011933	0	21424.082	21424.006	-1.09624225e-05	683446.2	146148.88	-0.00030921967	146151.86	683446.2	-0.000105073545
0	0.5920286	0.5920265	-4.050081e-10	0.040658846	0.040658846	0	21404.508	21404.43	-1.4963962e-05	683653.2	145183.89	-0.00031697526	145186.84	683653.2	-0.00025520026
0	0.59148467	0.5914827	-2.883713e-10	0.04030471	0.04030471	0	21384.84	21384.768	-1.0030801e-05	683859.4	144216.23	-0.00015355594	144219.19	683859.44	-0.00022108339
0	0.59093714	0.59093505	-2.1947359e-10	0.03995136	0.03995136	0	21365.043	21364.969	-8.599185e-06	684065.1	143243.84	-0.00018248687	143246.78	684065.1	-0.000108773966
0	0.5903859	0.5903838	-1.5447468e-10	0.039598063	0.039598063	0	21345.115	21345.041	-5.153059e-06	684270.44	142266.94	-0.0001711937	142269.84	684270.44	-1.6391528e-05
0	0.5898317	0.5898296	-1.9518032e-10	0.039244205	0.039244205	0	21325.078	21325.002	-7.072917e-06	684474.8	141286.53	-0.00017361273	141289.44	684474.94	-9.566876e-05
0	0.5892742	0.5892722	-1.8941404e-10	0.038890842	0.038890842	0	21304.924	21304.85	-7.2012485e-06	684678.75	140302.31	-0.00028115956	140305.2	684678.75	5.4455604e-06
0	0.58871317	0.5887111	-1.7208643e-10	0.038537536	0.038537536	0	21284.637	21284.564	-5.740534e-06	684882.06	139313.42	-0.00011170902	139316.31	684882.2	-6.2451196e-05
0	0.58814913	0.5881471	-2.6825006e-10	0.038183637	0.038183637	0	21264.246	21264.172	-9.852663e-06	685084.5	138321.36	-0.0002601253	138324.25	685084.7	-0.0001124927
0	0.58758074	0.58757865	-2.7556266e-10	0.03783033	0.03783033	0	21243.695	21243.625	-1.0152066e-05	685286.6	137323.48	-0.000247622	137326.34	685286.75	-8.695296e-05
0	0.58701056	0.5870086	-3.4677414e-10	0.03747694	0.03747694	0	21223.082	21223.012	-1.2438257e-05	685487.56	136324.44	-0.00029212883	136327.31	685487.6	-0.00016033348
0	0.5864363	0.5864343	-1.8061555e-10	0.03712286	0.03712286	0	21202.314	21202.246	-7.772983e-06	685687.94	135319.88	-0.0001905101	135322.73	685688.1	-7.686535e-05
0	0.58585787	0.58585596	-3.6882672e-10	0.036769744	0.036769744	0	21181.406	21181.336	-1.3264477e-05	685887.9	134310.31	-0.0002998583	134313.17	685888	-0.00021408907
0	0.5852769	0.58527493	-3.5812361e-10	0.036415678	0.036415678	0	21160.402	21160.33	-1.3190793e-05	686086.75	133298.08	-0.00034797998	133300.92	686086.8	-0.000103815815
0	0.5846916	0.5846897	-3.2515043e-10	0.036062278	0.036062278	0	21139.238	21139.172	-1.1967324e-05	686285.06	132280.38	-0.00017217957	132283.2	686285.2	-0.00025070785
0	0.5841033	0.5841014	-2.5291685e-10	0.035708938	0.035708938	0	21117.967	21117.898	-8.064449e-06	686482.5	131259.2	-0.000256049	131262.02	686482.6	-6.225495e-05
0	0.58351105	0.58350915	-4.478673e-10	0.035355177	0.035355177	0	21096.56	21096.492	-1.5576059e-05	686679.25	130233.45	-0.0004060051	130236.234	686679.44	-0.00016562353
0	0.5829157	0.5829139	-1.9380961e-10	0.03500176	0.03500176	0	21075.035	21074.967	-6.994336e-06	686875.1	129204.12	-0.0002064138	129206.914	686875.3	-5.6421257e-05
0	0.5823167	0.58231485	-1.316608e-10	0.034648404	0.034648404	0	21053.375	21053.31	-5.348504e-06	687070.2	128170.44	-0.00016609025	128173.2	687070.3	-2.0695334e-05
0	0.58171296	0.5817112	-2.5938449e-10	0.034294598	0.034294598	0	21031.55	21031.484	-9.958754e-06	687264.7	127130.72	-0.00017277403	127133.5	687264.94	-0.00017878388
0	0.58110756	0.58110577	-3.0031544e-10	0.033941235	0.033941235	0	21009.662	21009.594	-1.1428686e-05	687457.75	126090.03	-0.00026281134	126092.79	687458	-0.00017324589
0	0.58049697	0.5804951	-3.1941233e-10	0.03358779	0.03358779	0	20987.586	20987.521	-1.1004715e-05	687650.5	125042.48	-0.00032258092	125045.23	687650.75	-7.959554e-05
0	0.57988316	0.5798813	-3.173317e-11	0.033233795	0.033233795	0	20965.395	20965.33	-9.0101884e-07	687842.2	123991.5	-1.1759599e-06	123994.24	687842.44	-1.3457552e-05
0	0.5792658	0.5792639	-1.615705e-10	0.032880653	0.032880653	0	20943.072	20943.008	-6.2466943e-06	688032.94	122936.414	-0.00018878575	122939.13	688033.2	-3.6930636e-05
0	0.578644	0.57864213	-3.2831704e-10	0.03252667	0.03252667	0	20920.59	20920.527	-1.1871734e-05	688223.06	121875.75	-0.00036592773	121878.484	688223.3	-9.7094766e-05
0	0.5780184	0.5780167	-3.0283054e-11	0.032173198	0.032173198	0	20897.975	20897.91	-6.80183e-07	688412.2	120810.875	3.1473508e-06	120813.56	688412.5	-2.6321912e-05
0	0.57739043	0.5773887	-3.5063136e-10	0.031819794	0.031819794	0	20875.271	20875.209	-1.20839595e-05	688600	119744	-0.00033639846	119746.67	688600.2	-0.00012851483
0	0.57675743	0.5767557	-2.0062574e-10	0.031466164	0.031466164	0	20852.385	20852.322	-7.4237855e-06	688787.1	118670.58	-0.0001827647	118673.234	688787.5	-8.335234e-05
0	0.5761211	0.5761194	-2.6352104e-10	0.031112673	0.031112673	0	20829.377	20829.316	-9.213186e-06	688973.25	117593.71	-0.00026193148	117596.37	688973.5	-6.740454e-05
0	0.57548046	0.5754788	-2.3080542e-10	0.030759258	0.030759258	0	20806.217	20806.156	-7.863634e-06	689158.4	116511.555	-0.00021188385	116514.2	689158.75	-9.023221e-05
0	0.5748365	0.5748348	-2.704255e-10	0.030405577	0.030405577	0	20782.932	20782.87	-9.9361405e-06	689342.5	115425.88	-0.00031968442	115428.516	689342.75	-4.38568e-05
0	0.57418776	0.5741861	-1.6931608e-10	0.030052148	0.030052148	0	20759.477	20759.42	-5.5145756e-06	689525.7	114334.52	-2.6652793e-05	114337.14	689526	-0.00017907334
0	0.57353556	0.57353395	-1.6702603e-10	0.029698623	0.029698623	0	20735.902	20735.842	-5.220841e-06	689707.75	113239.53	-0.00013011832	113242.11	689708.1	-6.0175847e-05
0	0.5728793	0.5728778	-3.508736e-10	0.029344728	0.029344728	0	20712.176	20712.117	-1.2126708e-05	689888.75	112139.766	-0.00023406133	112142.34	689889.1	-0.0002137748
0	0.5722186	0.5722169	-2.05005e-10	0.028991554	0.028991554	0	20688.283	20688.229	-8.3935765e-06	690068.9	111034.484	-0.00014570783	111037.04	690069.3	-0.0001575985
0	0.5715542	0.5715526	-1.8938494e-10	0.028637664	0.028637664	0	20664.264	20664.205	-7.064786e-06	690247.75	109925.53	-0.00021529128	109928.08	690248.2	-2.7920443e-05
0	0.5708856	0.57088405	-4.5136272e-10	0.028284118	0.028284118	0	20640.09	20640.035	-1.6485781e-05	690425.56	108811.76	-0.00039122973	108814.3	690426	-0.00025355385
0	0.570213	0.5702116	-3.6388512e-10	0.027930643	0.027930643	0	20615.775	20615.72	-1.2549177e-05	690602.2	107693.5	-0.0004270443	107696.02	690602.6	-5.364611e-05
0	0.5695358	0.5695343	-2.0579558e-10	0.027577167	0.027577167	0	20591.29	20591.234	-7.576904e-06	690777.9	106569.7	-0.00024234237	106572.19	690778.3	-2.3988416e-05
0	0.5688549	0.5688534	-2.1692506e-10	0.027223589	0.027223589	0	20566.674	20566.617	-7.754918e-06	690952.25	105442.11	-0.00021130928	105444.59	690952.6	-7.0452894e-05
0	0.5681697	0.5681683	-7.22677e-11	0.026870089	0.026870089	0	20541.898	20541.848	-2.533605e-06	691125.4	104309.71	-0.00014715832	104312.17	691125.8	5.301688e-05
0	0.5674799	0.5674785	-2.2387274e-10	0.026516574	0.026516574	0	20516.959	20516.906	-9.0064705e-06	691297.5	103171.9	-0.00025845625	103174.35	691298	-9.5632124e-05
0	0.5667865	0.5667851	-3.672786e-10	0.026163058	0.026163058	0	20491.889	20491.838	-1.3541627e-05	691468.1	102030.43	-0.0003429341	102032.84	691468.7	-0.00016608299
0	0.5660883	0.56608695	-2.7344776e-10	0.025809433	0.025809433	0	20466.65	20466.598	-8.965958e-06	691637.8	100883.45	-0.0001858247	100885.87	691638.2	-0.00013747055
0	0.5653861	0.56538475	-3.2650607e-10	0.025455669	0.025455669	0	20441.262	20441.21	-1.2191334e-05	691806.06	99732.18	-0.00030901894	99734.586	691806.56	-0.000121696154
0	0.56467885	0.56467754	-1.8445497e-10	0.025102446	0.025102446	0	20415.69	20415.64	-7.1693394e-06	691973.2	98574.86	-0.00015867209	98577.234	691973.56	-9.946523e-05
0	0.5639677	0.5639664	-2.3481087e-10	0.024748694	0.024748694	0	20389.975	20389.928	-9.16312e-06	692138.94	97413.49	-0.00020930596	97415.86	692139.4	-0.00013433966
0	0.5632528	0.56325144	-3.4581374e-10	0.024395041	0.024395041	0	20364.129	20364.082	-1.15091e-05	692303.2	96248.36	-0.00041842667	96250.69	692303.7	-1.45890635e-05
0	0.5625321	0.56253076	-2.2584348e-10	0.02404147	0.02404147	0	20338.074	20338.027	-9.088245e-06	692466.3	95076.266	-0.00013236301	95078.58	692466.75	-0.00020307188
0	0.56180733	0.5618061	-1.12415285e-10	0.023688203	0.023688203	0	20311.873	20311.828	-4.8324073e-06	692628.1	93899.94	-0.0001629678	93902.234	692628.56	-2.714065e-06
0	0.5610787	0.5610775	-1.547407e-10	0.023334505	0.023334505	0	20285.53	20285.482	-6.206943e-06	692788.3	92719.63	-0.00022911059	92721.91	692788.8	-7.173394e-06
0	0.56034505	0.5603438	-3.1727712e-10	0.022980899	0.022980899	0	20259.002	20258.959	-1.0958066e-05	692947.25	91533.59	-0.00027462293	91535.85	692947.75	-0.00013982618
0	0.5596068	0.55960554	-2.0532626e-10	0.022627594	0.022627594	0	20232.31	20232.268	-7.5548187e-06	693104.75	90342.51	-0.00017490918	90344.76	693105.25	-9.5797914e-05
0	0.55886364	0.5588625	-4.3124265e-10	0.022273973	0.022273973	0	20205.445	20205.402	-1.4345746e-05	693260.8	89146.1	-0.00048264515	89148.31	693261.4	-7.990308e-05
0	0.55811626	0.5581151	-2.2702777e-10	0.021920223	0.021920223	0	20178.42	20178.377	-8.313636e-06	693415.4	87945.164	-0.00024812313	87947.35	693415.9	-9.096129e-05
0	0.55736375	0.5573627	-1.8418034e-10	0.021566622	0.021566622	0	20151.217	20151.176	-6.6186767e-06	693568.56	86738.67	-0.00026407622	86740.85	693569	3.9572376e-05
0	0.55660677	0.5566057	-2.5050859e-10	0.021213328	0.021213328	0	20123.848	20123.809	-1.0001732e-05	693720.1	85527.3	-0.00028947103	85529.45	693720.6	-8.203706e-05
0	0.55584496	0.55584383	-2.1604196e-10	0.020859707	0.020859707	0	20096.303	20096.264	-8.178276e-06	693870.1	84310.65	-0.00018824817	84312.77	693870.7	-0.00012472557
0	0.5550784	0.5550773	-1.3096052e-10	0.020505967	0.020505967	0	20068.586	20068.549	-4.6049227e-06	694018.7	83088.914	-0.00011853643	83091.02	694019.25	-5.698164e-05
0	0.5543064	0.5543054	-2.4555835e-10	0.020152355	0.020152355	0	20040.68	20040.643	-9.537069e-06	694165.6	81861.36	-0.00028223608	81863.445	694166.2	-4.517611e-05
0	0.55353063	0.55352956	-3.0133493e-10	0.019799031	0.019799031	0	20012.63	20012.592	-9.9726685e-06	694310.8	80629.97	-0.00026987155	80632.02	694311.5	-0.00011128418
0	0.552749	0.55274796	-2.0162007e-10	0.019445421	0.019445421	0	19984.373	19984.334	-7.157182e-06	694454.56	79391.95	-0.00013741523	79394	694455.2	-0.00011649773
0	0.5519631	0.5519621	-2.6573296e-10	0.019091818	0.019091818	0	19955.957	19955.922	-9.588226e-06	694596.5	78149.82	-0.00016149276	78151.836	694597.1	-0.00019055125
0	0.5511714	0.55117047	-2.0163166e-10	0.01873847	0.01873847	0	19927.334	19927.3	-6.788746e-06	694737	76901.06	-0.0002965953	76903.05	694737.56	4.6664427e-05
0	0.5503747	0.5503737	-1.1807111e-10	0.018384872	0.018384872	0	19898.527	19898.494	-3.990852e-06	694875.6	75646.914	-7.876187e-05	75648.89	694876.3	-7.958552e-05
0	0.54957396	0.5495731	-3.3346667e-10	0.018031139	0.018031139	0	19869.58	19869.549	-1.2588905e-05	695012.44	74389.27	-0.00031738562	74391.21	695013.06	-0.00016905079
0	0.54876745	0.54876655	-8.566335e-11	0.017677588	0.017677588	0	19840.422	19840.39	-3.1840993e-06	695147.44	73125.07	-0.00013397804	73126.984	695148.1	2.6771e-05
0	0.5479559	0.54795504	-2.1585145e-10	0.017324202	0.017324202	0	19811.078	19811.045	-7.868777e-06	695280.9	71855.43	-0.00023031041	71857.32	695281.56	-5.5235374e-05
0	0.5471389	0.54713815	-2.2797302e-10	0.016970618	0.016970618	0	19781.545	19781.516	-7.877034e-06	695412.5	70580.266	-0.00023438071	70582.13	695413.06	-1.3278513e-05
0	0.5463167	0.5463159	-2.4026883e-10	0.016616898	0.016616898	0	19751.814	19751.785	-8.811721e-06	695542.2	69299.35	-0.00024460873	69301.18	695542.94	-9.77987e-05
0	0.5454895	0.54548866	-3.29637e-10	0.016263334	0.016263334	0	19721.906	19721.877	-1.2126918e-05	695670.1	68013.42	-0.00035631921	68015.23	695670.8	-9.14936e-05
0	0.5446567	0.5446559	-1.9864817e-10	0.015909897	0.015909897	0	19691.797	19691.77	-6.508796e-06	695796.06	66721.57	-0.00021642998	66723.36	695796.7	-2.0485264e-05
0	0.54381883	0.5438181	-8.2497925e-11	0.015556336	0.015556336	0	19661.506	19661.48	-2.7823683e-06	695920	65424.58	-0.00010960004	65426.34	695920.75	-3.7721727e-06
0	0.5429753	0.5429745	-3.2661596e-10	0.015202789	0.015202789	0	19631.006	19630.98	-1.1004036e-05	696042.2	64121.457	-0.00029743195	64123.19	696042.94	-0.00013988218
0	0.542126	0.54212534	-1.9422622e-10	0.014849312	0.014849312	0	19600.303	19600.277	-6.570329e-06	696162.4	62812.344	-0.0001283114	62814.05	696163.06	-0.00014856923
0	0.54127204	0.5412713	-1.7169499e-10	0.014495777	0.014495777	0	19569.428	19569.404	-5.5713676e-06	696280.44	61498.76	-0.00020976305	61500.438	696281.25	8.761783e-06
0	0.5404119	0.54041135	-1.9421022e-10	0.014142059	0.014142059	0	19538.33	19538.307	-6.7031147e-06	696396.5	60178.49	-0.00017224772	60180.13	696397.3	-7.9871825e-05
0	0.53954643	0.53954583	-2.4630512e-10	0.013788584	0.013788584	0	19507.04	19507.018	-8.888093e-06	696510.6	58852.832	-0.00018434468	58854.445	696511.4	-0.00015705428
0	0.53867537	0.5386748	-1.9127874e-10	0.013435044	0.013435044	0	19475.545	19475.527	-7.223424e-06	696622.5	57521.41	-0.00029852102	57523	696623.25	5.1596584e-05
0	0.5377986	0.537798	-2.2764081e-10	0.013081529	0.013081529	0	19443.844	19443.826	-7.391291e-06	696732.3	56184.082	-0.00028204976	56185.63	696733.1	8.553567e-06
0	0.53691614	0.5369156	-1.8145681e-10	0.012727834	0.012727834	0	19411.943	19411.926	-7.580578e-06	696840	54841.1	-0.00018088818	54842.63	696840.75	-9.7601005e-05
0	0.536026	0.5360255	-2.6847582e-10	0.012374347	0.012374347	0	19379.758	19379.742	-9.771091e-06	696945.75	53489.207	-0.0003000366	53490.703	696946.56	-5.793171e-05
0	0.53513336	0.53513294	-1.1759559e-10	0.012020735	0.012020735	0	19347.49	19347.47	-3.863674e-06	697048.8	52136.504	-0.00028810778	52137.96	697049.6	0.00015073063
0	0.5342335	0.53423315	-2.8988673e-10	0.0116672525	0.0116672525	0	19314.953	19314.938	-1.0680283e-05	697149.9	50775.63	-0.00028081136	50777.062	697150.7	-0.00012333653
0	0.53332686	0.5333265	-5.3168436e-10	0.011313797	0.011313797	0	19282.172	19282.158	-1.9928206e-05	697248.7	49407.496	-0.00029660616	49408.883	697249.56	-0.0004619995
0	0.5324162	0.53241587	-2.8327293e-10	0.010960111	0.010960111	0	19249.252	19249.238	-1.0245808e-05	697345	48036.4	-0.00045762333	48037.766	697345.9	6.545171e-05
0	0.5314987	0.53149825	-2.9914754e-10	0.010606664	0.010606664	0	19216.074	19216.06	-1.179928e-05	697439.1	46657.652	-0.0002973718	46658.98	697439.94	-0.00013294371
0	0.53057474	0.5305745	-1.9556397e-10	0.010252983	0.010252983	0	19182.676	19182.664	-6.8202266e-06	697530.8	45272.59	-0.00032995714	45273.883	697531.75	6.671172e-05
0	0.52964485	0.52964455	-1.1985006e-10	0.009899516	0.009899516	0	19149.05	19149.041	-4.1226253e-06	697620.1	43881.348	-0.0001833672	43882.613	697621	2.9220902e-05
0	0.52870876	0.52870846	-3.6282127e-10	0.009545909	0.009545909	0	19115.205	19115.195	-1.2791307e-05	697707	42483.902	-0.0003238736	42485.133	697708	-0.00016635125
0	0.5277663	0.52776605	-2.2802993e-10	0.009192436	0.009192436	0	19081.135	19081.125	-8.981377e-06	697791.44	41080.168	-0.00028317684	41081.35	697792.3	-5.270533e-05
0	0.5268182	0.52681804	-1.1968243e-10	0.008838794	0.008838794	0	19046.855	19046.848	-4.4405724e-06	697873.3	39671.098	-0.00016253599	39672.254	697874.2	-3.1831336e-05
0	0.5258625	0.52586234	-1.0797624e-10	0.008485309	0.008485309	0	19012.303	19012.297	-4.0267923e-06	697952.7	38253.695	-4.9190436e-05	38254.816	697953.56	-9.1653914e-05
0	0.52490216	0.52490205	-2.3788005e-10	0.008131667	0.008131667	0	18977.584	18977.58	-7.4588843e-06	698029.4	36832.61	-0.00020716307	36833.695	698030.25	-0.00010392646
0	0.5239343	0.52393425	-4.3125464e-10	0.007778168	0.007778168	0	18942.59	18942.59	-1.4907652e-05	698103.5	35403.523	-0.0005797231	35404.58	698104.4	3.891392e-05
0	0.5229606	0.5229605	-8.839776e-11	0.007424656	0.007424656	0	18907.387	18907.38	-4.808474e-06	698174.94	33968.84	-0.00023498353	33969.848	698175.8	7.766315e-05
0	0.5219786	0.52197856	-2.1768055e-10	0.0070710294	0.0070710294	0	18871.883	18871.88	-8.256404e-06	698243.75	32525.283	-0.00034266087	32526.262	698244.7	3.2338776e-05