# t (s)	mx ()	my ()	mz ()	B_extx (T)	B_exty (T)	B_extz (T)	m_fullx (A/m)	m_fully (A/m)	m_fullz (A/m)	m_full.region1x (A/m)	m_full.region1y (A/m)	m_full.region1z (A/m)	m_full.region2x (A/m)	m_full.region2y (A/m)	m_full.region2z (A/m)
0	0.6492693	0.64926815	-5.656747e-10	0.07071087	0.07071087	0	71354.695	71354.57	-5.875e-05	644005.75	264970.28	-0.00054538215	264971.2	644005.1	-0.00025875797
0	0.6489987	0.6489962	-3.7964742e-10	0.070357256	0.070357256	0	71324.95	71324.68	-4.25e-05	644266.25	264329.66	-0.00035031847	264331.84	644264.94	-0.00023487261
0	0.64872193	0.6487194	-3.7964742e-10	0.07000352	0.07000352	0	71294.54	71294.26	-3.4375e-05	644531.8	263676.6	-0.00020700636	263678.8	644530.56	-0.0002906051
0	0.6484423	0.6484398	-3.7205447e-10	0.06964992	0.06964992	0	71263.81	71263.53	-4e-05	644798.8	263018.12	-0.0003343949	263020.38	644797.6	-0.00025477706
0	0.64816034	0.64815784	-6.6058653e-10	0.069296576	0.069296576	0	71232.83	71232.54	-7.1875e-05	645066.75	262355.53	-0.00052746816	262357.78	645065.44	-0.00035828026
0	0.6478781	0.64787555	-1.5565545e-10	0.06894301	0.06894301	0	71201.81	71201.52	-1.625e-05	645334	261693.12	-7.165605e-05	261695.42	645332.6	-0.00011942675
0	0.6475949	0.6475924	-2.1639902e-10	0.06858927	0.06858927	0	71170.68	71170.4	-2.625e-05	645601.2	261029.4	-0.00012738853	261031.69	645599.94	-0.00023487261
0	0.6473084	0.6473058	-2.9232852e-10	0.068235666	0.068235666	0	71139.19	71138.91	-2.8125e-05	645870.06	260359.34	-8.558917e-05	260361.66	645868.75	-0.00029458597
0	0.64702076	0.6470182	-3.1890382e-10	0.06788232	0.06788232	0	71107.57	71107.3	-3.46875e-05	646138.8	259687.98	-0.00027269108	259690.3	646137.5	-0.00017914013
0	0.6467303	0.6467277	-3.4927564e-10	0.06752871	0.06752872	0	71075.664	71075.38	-4.1875e-05	646408.8	259011.38	-0.00031050955	259013.69	646407.44	-0.0001950637
0	0.6464381	0.6464355	-3.2649677e-10	0.067174986	0.067174986	0	71043.555	71043.26	-3.9375e-05	646679.1	258331.83	-0.00020203025	258334.19	646677.9	-0.0002388535
0	0.64614457	0.64614195	-3.113109e-10	0.06682176	0.06682176	0	71011.29	71011.01	-3.4375e-05	646949.56	257650.52	-0.00027468152	257652.88	646948.2	-0.00015923567
0	0.64584666	0.6458441	-4.3659454e-10	0.066468164	0.06646817	0	70978.55	70978.266	-4.4375e-05	647222.3	256960.66	-0.0003343949	256963.02	647220.94	-0.0002866242
0	0.64554906	0.64554644	-1.1009775e-10	0.066114426	0.066114426	0	70945.836	70945.54	-1.5e-05	647494.2	256272.17	-0.00010549363	256274.6	647492.8	-8.757962e-05
0	0.6452499	0.6452472	-4.3279805e-10	0.06576085	0.06576085	0	70912.96	70912.68	-4.5625e-05	647766.1	255581.34	-0.00034534236	255583.77	647764.75	-0.00027070064
0	0.64494795	0.6449452	-1.7843428e-10	0.06540747	0.06540747	0	70879.78	70879.48	-2e-05	648039.06	254885.6	-0.0002388535	254888.02	648037.7	-6.3694264e-05
0	0.644642	0.6446393	-2.4297434e-10	0.065053925	0.065053925	0	70846.16	70845.87	-2.75e-05	648313.8	254182.47	-0.00014132165	254184.89	648312.56	-0.0001910828
0	0.6443357	0.64433295	-2.505673e-10	0.064700186	0.064700186	0	70812.5	70812.2	-2.375e-05	648588.25	253479.27	-0.00021894905	253481.7	648586.94	-0.0001433121
0	0.644028	0.64402527	-4.6316986e-10	0.0643466	0.0643466	0	70778.67	70778.375	-5.125e-05	648862.6	252774.1	-0.00042197452	252776.53	648861.3	-0.0002866242
0	0.6437163	0.6437135	2.2778845e-10	0.063993216	0.063993216	0	70744.414	70744.12	3.1875e-05	649139	252061.27	0.0001910828	252063.75	649137.6	0.00023487261
0	0.6434051	0.64340234	-4.8594867e-10	0.06363963	0.06363963	0	70710.22	70709.92	-5e-05	649413.8	251350.9	-0.0003343949	251353.36	649412.44	-0.0003343949
0	0.64309	0.6430872	-3.3029326e-10	0.0632859	0.0632859	0	70675.58	70675.28	-3.75e-05	649690.56	250632.81	-0.0001910828	250635.31	649689.25	-0.00030254776
0	0.6427717	0.64276886	-5.656747e-10	0.06293266	0.062932655	0	70640.61	70640.305	-6e-05	649968.7	249909.11	-0.00046277867	249911.64	649967.4	-0.0003901274
0	0.64245397	0.64245117	-1.5565545e-10	0.06257908	0.06257908	0	70605.7	70605.38	-2.1875e-05	650245.2	249187.83	-0.0001950637	249190.31	650243.9	-0.00010350318
0	0.6421314	0.6421286	-2.050096e-10	0.062225346	0.062225346	0	70570.24	70569.93	-2.5e-05	650524.2	248457.25	-0.0003343949	248459.78	650522.8	2.7866243e-05
0	0.64180934	0.6418065	-3.113109e-10	0.061871782	0.061871782	0	70534.84	70534.54	-3.375e-05	650801.94	247728.53	-0.00025975317	247731.11	650800.56	-0.00020700636
0	0.6414835	0.6414807	-4.9354163e-11	0.061518367	0.061518367	0	70499.04	70498.73	-6.875e-06	651081.3	246993.08	-0.00017914013	246995.64	651079.9	7.563694e-05
0	0.64115447	0.6411516	-2.1260256e-10	0.061164834	0.061164834	0	70462.875	70462.56	-2.4375e-05	651361.6	246252.02	-0.0001910828	246254.58	651360.4	-0.00011942675
0	0.64082456	0.6408217	-3.0371794e-10	0.060811102	0.060811114	0	70426.62	70426.305	-3.40625e-05	651641.8	245509.94	-0.00016222133	245512.55	651640.44	-0.00027468152
0	0.6404917	0.6404889	-5.808605e-10	0.06045754	0.06045754	0	70390.05	70389.734	-6.09375e-05	651922.6	244763.23	-0.00043590766	244765.83	651921.3	-0.0003821656
0	0.6401569	0.64015406	-1.9362019e-10	0.060104124	0.060104124	0	70353.26	70352.93	-2.25e-05	652203.94	244013.3	-7.165605e-05	244015.9	652202.5	-0.00017515924
0	0.6398193	0.63981646	-1.7843428e-10	0.059750557	0.059750553	0	70316.14	70315.836	-2e-05	652486.1	243258.3	-0.0001910828	243260.95	652484.7	-6.767516e-05
0	0.63947755	0.6394747	4.9354163e-11	0.059396826	0.059396826	0	70278.586	70278.27	3.75e-06	652770	242495.98	1.3933121e-05	242498.64	652768.56	-1.1942675e-05
0	0.63913715	0.6391343	-2.5816024e-10	0.05904356	0.05904356	0	70241.18	70240.86	-2.9375e-05	653051.75	241737.7	-0.00022292994	241740.36	653050.3	-0.0001871019
0	0.63879263	0.6387897	-2.353814e-10	0.05868999	0.05868999	0	70203.31	70202.984	-2.625e-05	653335.3	240971.75	-4.77707e-05	240974.44	653333.9	-0.0002866242
0	0.6384453	0.6384424	-2.2778845e-10	0.058336265	0.058336265	0	70165.13	70164.82	-2.40625e-05	653619.75	240201.02	-0.00017515924	240203.69	653618.3	-0.00013136942
0	0.63809407	0.63809115	5.315064e-11	0.057982713	0.057982713	0	70126.54	70126.22	4.375e-06	653905.3	239423.7	-7.961783e-06	239426.42	653903.8	2.7866243e-05
0	0.637743	0.63774014	-4.7835574e-10	0.057629272	0.05762927	0	70087.96	70087.64	-4.75e-05	654189.6	238647.92	-0.00037221337	238650.64	654188.3	-0.00026273885
0	0.637389	0.637386	-2.8093908e-10	0.05727571	0.0572757	0	70049.05	70048.734	-2.78125e-05	654475.2	237866.69	-0.0002866242	237869.44	654473.75	-0.000109474524
0	0.6370306	0.6370277	-4.1381568e-10	0.056922022	0.056922026	0	70009.67	70009.34	-4.25e-05	654762.06	237078.1	-0.00046178343	237080.81	654760.6	-0.00015525478
0	0.6366711	0.63666815	-8.352243e-11	0.05656847	0.05656847	0	69970.15	69969.82	-6.25e-06	655048.9	236287.89	-1.7914013e-05	236290.66	655047.44	-6.3694264e-05
0	0.6363096	0.63630664	-1.0630128e-10	0.056215018	0.056215018	0	69930.42	69930.09	-1.125e-05	655335.6	235495.1	-8.857484e-05	235497.88	655334.2	-7.563694e-05
0	0.63594514	0.6359422	-4.8594867e-10	0.055861466	0.05586147	0	69890.38	69890.04	-6.125e-05	655623.25	234697.2	-0.00044585989	234699.98	655621.9	-0.00032643313
0	0.63557714	0.6355742	5.315064e-11	0.05550775	0.05550775	0	69849.94	69849.6	9.375e-06	655911.8	233893.44	7.961783e-06	233896.27	655910.5	9.55414e-05
0	0.6352074	0.63520443	-4.6316986e-10	0.055154454	0.055154454	0	69809.3	69808.97	-5.09375e-05	656200.2	233087.36	-0.00035031847	233090.17	656198.8	-0.0003343949
0	0.6348334	0.63483036	-6.226218e-10	0.054800894	0.054800894	0	69768.195	69767.86	-6.6875e-05	656490.3	232273.62	-0.00042197452	232276.47	656488.94	-0.0004339172
0	0.6344582	0.6344552	-9.643044e-10	0.05444719	0.05444718	0	69726.95	69726.61	-0.000105	656779.75	231458.83	-0.0008678344	231461.69	656778.4	-0.00054936303
0	0.6340812	0.634078	-7.9725955e-11	0.05409365	0.05409365	0	69685.516	69685.18	-9.375e-06	657069.25	230641.42	-0.00023686305	230644.3	657067.94	7.165605e-05
0	0.6336988	0.6336958	-3.3029326e-10	0.053740162	0.053740162	0	69643.51	69643.164	-3.375e-05	657360.9	229814.55	-0.0002388535	229817.42	657359.5	-0.00020700636
0	0.6333162	0.6333131	-7.5929485e-10	0.05338662	0.05338662	0	69601.445	69601.11	-8.34375e-05	657651.3	228988.4	-0.00056130573	228991.31	657649.94	-0.00051353505
0	0.63293	0.63292694	-1.2908012e-10	0.053032946	0.053032946	0	69559.01	69558.67	-1.5625e-05	657942.6	228156.5	-5.772293e-05	228159.39	657941.1	-0.00011942675
0	0.63253945	0.63253635	-1.1009775e-10	0.05267941	0.052679416	0	69516.086	69515.734	-1e-05	658235.56	227316.69	-0.0001910828	227319.6	658234.2	3.9808918e-05
0	0.63214767	0.6321446	-5.6947114e-10	0.052325904	0.052325908	0	69473.03	69472.69	-6.125e-05	658527.9	226475.92	-0.00040007962	226478.86	658526.44	-0.0003901274
0	0.63175344	0.6317504	-1.328766e-10	0.051972378	0.051972378	0	69429.71	69429.37	-1.34375e-05	658820.4	225631.56	-0.00021894905	225634.5	658818.94	1.1942675e-05
0	0.6313556	0.6313524	-7.5929485e-11	0.051618665	0.051618665	0	69385.98	69385.64	-5e-06	659113.6	224781.17	-6.3694264e-05	224784.14	659112.25	-3.1847132e-05
0	0.63095486	0.6309517	-2.8473557e-10	0.051265337	0.051265337	0	69341.93	69341.59	-2.71875e-05	659407.5	223926.3	-0.0002955812	223929.27	659406.1	-7.165605e-05
0	0.6305509	0.6305478	-3.7205447e-10	0.050911807	0.050911807	0	69297.55	69297.21	-3.6875e-05	659701.8	223066.47	-0.0002557723	223069.44	659700.5	-0.00027468152
0	0.63014317	0.63014007	1.5185896e-11	0.050558105	0.050558105	0	69252.734	69252.38	-1.875e-06	659996.94	222200.5	-3.1847132e-05	222203.5	659995.5	0
0	0.6297329	0.62972975	2.201955e-10	0.05020459	0.05020459	0	69207.65	69207.305	2.625e-05	660292.44	221330.64	0.00013535032	221333.64	660291.06	0.00023089172
0	0.6293215	0.6293184	-3.3408973e-10	0.04985105	0.04985105	0	69162.44	69162.09	-4.03125e-05	660587.2	220459.94	-0.00025477706	220462.98	660585.8	-0.00020302548
0	0.62890476	0.6289017	-1.2528364e-10	0.04949753	0.04949753	0	69116.64	69116.28	-1.5e-05	660883.75	219580.05	-0.0001433121	219583.08	660882.25	-5.9713377e-05
0	0.62848574	0.62848264	-5.0872756e-10	0.049143866	0.049143866	0	69070.59	69070.24	-5.34375e-05	661180.3	218696.94	-0.00038316083	218699.98	661178.8	-0.0003343949
0	0.62806386	0.62806064	-3.7205447e-10	0.04879036	0.04879036	0	69024.22	69023.87	-3.8125e-05	661476.9	217809.48	-0.00037818472	217812.56	661475.44	-0.00015525478
0	0.6276371	0.627634	-4.9354165e-10	0.0484368	0.0484368	0	68977.33	68976.97	-5.4375e-05	661774.7	216914.23	-0.00039808918	216917.33	661773.25	-0.00031847134
0	0.6272098	0.6272066	-5.0872756e-10	0.048083294	0.048083294	0	68930.35	68930.01	-5.375e-05	662071.75	216018.86	-0.00023288217	216021.97	662070.4	-0.00044585989
0	0.6267778	0.6267746	-4.0622275e-10	0.047729596	0.047729596	0	68882.89	68882.53	-4.40625e-05	662369.9	215116	-0.000330414	215119.1	662368.44	-0.00026671976
0	0.62634194	0.6263387	-6.719759e-10	0.04737622	0.04737622	0	68834.98	68834.625	-7.25e-05	662668.7	214206.95	-0.0005334395	214210.08	662667.3	-0.00041799364
0	0.6259035	0.62590027	-2.2778845e-10	0.04702272	0.047022715	0	68786.8	68786.44	-2.6875e-05	662967.7	213294.03	-0.00026273885	213297.19	662966.3	-7.9617836e-05
0	0.6254624	0.6254591	-2.0880608e-10	0.046669014	0.046669014	0	68738.31	68737.95	-2.21875e-05	663266.3	212377.77	-0.00020103503	212380.9	663264.9	-9.156051e-05
0	0.62501717	0.6250139	-8.731891e-11	0.04631553	0.04631553	0	68689.39	68689.03	-1.125e-05	663566.1	211454.83	-0.00010350318	211457.98	663564.7	-5.9713377e-05
0	0.62456757	0.6245643	-4.555769e-10	0.045961928	0.045961928	0	68639.98	68639.61	-4.9375e-05	663866.5	210524.78	-0.00035429935	210527.95	663865.2	-0.00031050955
0	0.62411594	0.6241126	-2.2778845e-10	0.04560844	0.04560844	0	68590.34	68589.98	-2.6875e-05	664166.6	209592.58	-0.00024183917	209595.78	664165.2	-0.00012738853
0	0.62365973	0.62365645	-2.9612499e-10	0.045254786	0.04525479	0	68540.2	68539.84	-3.1875e-05	664467.6	208652.69	-0.00027070064	208655.92	664466.3	-0.0001910828
0	0.6232019	0.62319857	-3.0371794e-10	0.0449013	0.044901308	0	68489.89	68489.53	-3.375e-05	664768.06	207711.36	-0.0003861465	207714.6	664766.7	-8.359872e-05
0	0.6227403	0.62273705	-7.592948e-12	0.044547684	0.044547684	0	68439.16	68438.8	-1.875e-06	665068.9	206764.33	-0.00012340765	206767.56	665067.44	8.359872e-05
0	0.62227196	0.6222687	-1.0554199e-09	0.044194214	0.04419421	0	68387.695	68387.32	-0.00011125	665371.75	205805.72	-0.00068471336	205808.98	665370.44	-0.00078821654
0	0.62180334	0.62180007	-3.1510736e-10	0.043840516	0.043840516	0	68336.19	68335.83	-3.375e-05	665673	204848.42	-0.00025676753	204851.69	665671.6	-0.00022691082
0	0.62133104	0.6213277	-5.884535e-10	0.043487042	0.043487042	0	68284.28	68283.92	-6.25e-05	665974.75	203885.36	-0.00043292198	203888.64	665973.44	-0.00037818472
0	0.620854	0.62085074	-6.6058653e-10	0.043133624	0.043133624	0	68231.87	68231.49	-7.25e-05	666277.06	202915.25	-0.0005334395	202918.56	666275.7	-0.00039808918
0	0.62037396	0.62037057	-4.973381e-10	0.04277993	0.04277993	0	68179.09	68178.73	-5.6875e-05	666579.56	201940.6	-0.0005254777	201943.92	666578.2	-0.00025079618
0	0.6198889	0.61988556	1.8982371e-11	0.042426456	0.042426456	0	68125.8	68125.42	3.75e-06	666882.94	200958.25	-7.961783e-06	200961.56	666881.56	3.9808918e-05
0	0.61940104	0.6193977	-3.6066505e-10	0.042072807	0.042072814	0	68072.17	68071.805	-3.8125e-05	667186.06	199972	-0.00036624205	199975.34	667184.8	-0.00016719745
0	0.6189076	0.6189041	-5.5048877e-10	0.041719347	0.04171934	0	68017.94	68017.57	-6e-05	667490.44	198976.77	-0.0004518312	198980.12	667489.06	-0.00030254776
0	0.61841303	0.6184097	-3.075144e-10	0.041365713	0.041365713	0	67963.59	67963.22	-3.0625e-05	667793.56	197981.33	-0.000116441086	197984.67	667792.2	-0.00027070064
0	0.617912	0.6179086	-3.4168268e-10	0.041012257	0.041012257	0	67908.53	67908.16	-3.8125e-05	668098.7	196974.67	-0.00032643313	196978.05	668097.4	-0.00017914013
0	0.6174087	0.61740535	3.3029326e-10	0.04065857	0.04065857	0	67853.21	67852.84	3.25e-05	668402.3	195966.53	0.0002040207	195969.9	668400.94	0.00023487261
0	0.61690146	0.6168981	-1.7463782e-10	0.04030513	0.04030513	0	67797.48	67797.1	-1.9375e-05	668706.44	194952.25	-0.00022492038	194955.64	668705.06	-3.5828027e-05
0	0.61638856	0.6163853	-1.5185897e-10	0.039951444	0.039951444	0	67741.11	67740.74	-8.75e-06	669011.7	193929	-0.00012738853	193932.44	669010.3	-3.9808918e-05
0	0.6158739	0.61587054	-5.163205e-10	0.039597984	0.039597984	0	67684.54	67684.164	-5.5e-05	669315.8	192904.19	-0.0004299363	192907.61	669314.5	-0.00031847134
0	0.6153539	0.6153504	-3.796474e-12	0.03924453	0.039244533	0	67627.38	67627.01	-6.25e-07	669620.94	191871.02	-0.0001522691	191874.42	669619.56	0.00013933121
0	0.6148293	0.6148259	7.592948e-12	0.038890842	0.038890842	0	67569.74	67569.37	-2.5e-06	669926.4	190831.36	-0.00010350318	190834.78	669924.94	8.757962e-05
0	0.6143008	0.6142974	-5.5428523e-10	0.03853738	0.03853738	0	67511.66	67511.29	-6.375e-05	670231.7	189786.03	-0.00033240445	189789.48	670230.4	-0.00045382165
0	0.6137681	0.61376464	-6.2641825e-10	0.038183715	0.038183715	0	67453.11	67452.74	-7.1875e-05	670537.4	188734.45	-0.00051353505	188737.9	670536	-0.00042595543
0	0.61323136	0.61322796	-5.9224997e-10	0.037830256	0.037830256	0	67394.12	67393.74	-6.0625e-05	670842.8	187677.64	-0.00040605097	187681.1	670841.5	-0.00045780255
0	0.6126902	0.6126868	-6.64383e-10	0.037476573	0.037476577	0	67334.65	67334.27	-7.375e-05	671148.4	186614.36	-0.0005214968	186617.86	671147.1	-0.00046576434
0	0.6121445	0.612141	-2.7334615e-10	0.03712317	0.03712317	0	67274.68	67274.3	-2.625e-05	671454.25	185544.48	-0.00018312102	185547.95	671453	-0.00021496815
0	0.6115935	0.61159015	-8.0105605e-10	0.0367695	0.0367695	0	67214.13	67213.76	-8.75e-05	671760.5	184467	-0.00050557323	184470.52	671759.2	-0.0006369427
0	0.6110375	0.61103404	-4.745593e-10	0.03641604	0.03641604	0	67153.03	67152.65	-4.625e-05	672067.3	183381.72	-0.00035628982	183385.25	672066	-0.00031050955
0	0.61047965	0.6104762	-3.4547915e-10	0.036062367	0.036062367	0	67091.72	67091.35	-3.75e-05	672372.6	182295.42	-0.00027567675	182298.97	672371.44	-0.00021496815
0	0.60991555	0.60991204	-5.390993e-10	0.0357089	0.0357089	0	67029.71	67029.336	-6.125e-05	672679.4	181198.8	-0.00040605097	181202.33	672678.1	-0.00035828026
0	0.6093481	0.6093447	-7.782772e-10	0.035355434	0.035355434	0	66967.35	66966.984	-9e-05	672984.7	180099.17	-0.00081409235	180102.72	672983.44	-0.0003742038
0	0.60877514	0.6087716	-1.8982371e-10	0.03500176	0.03500176	0	66904.38	66904.016	-2.0625e-05	673290.75	178990.88	-0.00022193471	178994.42	673289.5	-5.9713377e-05
0	0.6081968	0.60819334	-1.5945191e-10	0.034648288	0.034648288	0	66840.83	66840.45	-1.875e-05	673597.1	177874.84	-0.00023089172	177878.4	673595.9	-1.1942675e-05
0	0.6076146	0.6076111	-2.5436378e-10	0.034294635	0.034294635	0	66776.84	66776.46	-3.0625e-05	673903	176753.81	-0.00018312102	176757.39	673901.8	-0.00015923567
0	0.6070272	0.6070237	-4.0242626e-10	0.03394116	0.03394116	0	66712.29	66711.91	-4.5625e-05	674209.2	175625.33	-0.0002259156	175628.89	674207.9	-0.000330414
0	0.60643446	0.60643107	-6.3780764e-10	0.033587493	0.033587493	0	66647.16	66646.78	-6.875e-05	674515.44	174489.31	-0.00056130573	174492.9	674514.1	-0.00034235668
0	0.60583574	0.6058323	-6.795689e-10	0.03323408	0.033234086	0	66581.34	66580.97	-7.5e-05	674822.4	173343.97	-0.0005234873	173347.58	674821.1	-0.0004856688
0	0.6052349	0.6052315	-3.4168268e-10	0.032880425	0.032880425	0	66515.32	66514.945	-3.3125e-05	675127.1	172198.23	-0.00031050955	172201.86	675125.94	-0.00017914013
0	0.60462767	0.6046242	-3.113109e-10	0.03252696	0.03252696	0	66448.58	66448.2	-3.375e-05	675432.8	171042.27	-0.00017117834	171045.88	675431.7	-0.00026671976
0	0.6040145	0.6040111	-4.9354165e-10	0.0321733	0.0321733	0	66381.195	66380.83	-5.6875e-05	675738.8	169877.94	-0.00041799364	169881.56	675737.6	-0.00030652867
0	0.6033942	0.6033908	-5.6187816e-10	0.031819817	0.031819817	0	66313.02	66312.66	-6.125e-05	676045.6	168702.72	-0.0006389331	168706.33	676044.44	-0.00019904459
0	0.6027729	0.60276943	-4.1761217e-10	0.031466328	0.03146633	0	66244.74	66244.36	-4.3125e-05	676350.5	167527.9	-0.0004378981	167531.53	676349.4	-0.00017515924
0	0.6021453	0.6021419	-2.3158493e-10	0.031112673	0.031112673	0	66175.77	66175.4	-2.875e-05	676655	166344.78	-0.00027468152	166348.42	676653.9	-5.9713377e-05
0	0.60151196	0.60150856	-3.986298e-10	0.030759184	0.030759184	0	66106.164	66105.78	-4.375e-05	676959.94	165153.22	-0.0003811704	165156.84	676958.8	-0.00021098726
0	0.6008727	0.6008692	-1.2908012e-10	0.030405551	0.030405551	0	66035.914	66035.53	-1.5625e-05	677264.75	163953.39	-0.00017914013	163957.05	677263.6	-3.9808918e-05
0	0.60022825	0.6002249	-5.315064e-11	0.030052062	0.030052062	0	65965.086	65964.71	-6.875e-06	677569.2	162746.75	-8.0613056e-05	162750.39	677568.06	-7.961783e-06
0	0.59957814	0.5995747	2.657532e-10	0.029698413	0.029698413	0	65893.63	65893.25	3.125e-05	677873.4	161532.28	0	161535.95	677872.4	0.00037022293
0	0.59892255	0.59891915	-3.0371794e-10	0.029344995	0.029344995	0	65821.586	65821.21	-3.375e-05	678177.3	160310.62	-0.0001433121	160314.31	678176.25	-0.00031449043
0	0.59826034	0.59825695	-4.6316986e-10	0.028991356	0.028991356	0	65748.805	65748.44	-5.125e-05	678481.4	159079.36	-0.00044785033	159083.03	678480.44	-0.0002468153
0	0.5975938	0.5975904	-4.3659454e-10	0.028637854	0.02863785	0	65675.555	65675.19	-4.8125e-05	678784.3	157843.39	-0.00040605097	157847.08	678783.2	-0.00023089172
0	0.5969205	0.5969171	-3.4927564e-10	0.028284239	0.028284235	0	65601.555	65601.19	-3.8125e-05	679087.44	156597.61	-0.00029856688	156601.3	679086.3	-0.00017117834
0	0.5962414	0.5962381	-8.352243e-11	0.027930735	0.027930733	0	65526.934	65526.547	-1.25e-05	679389.94	155344.22	-0.00031847134	155347.9	679389	0.0001433121
0	0.5955563	0.59555304	-2.353814e-10	0.027577227	0.027577227	0	65451.645	65451.273	-2.5e-05	679692.3	154082.88	-0.0003343949	154086.55	679691.3	1.9904459e-05
0	0.5948647	0.5948613	-3.8724038e-10	0.02722359	0.02722359	0	65375.633	65375.26	-4.375e-05	679994.25	152812.67	-0.00029458597	152816.34	679993.25	-0.00027866242
0	0.5941663	0.594163	-2.505673e-10	0.026870081	0.026870081	0	65298.883	65298.508	-3e-05	680296	151533.12	-0.0004080414	151536.78	680295	5.5732486e-05
0	0.59346443	0.59346116	2.657532e-11	0.026516473	0.026516473	0	65221.746	65221.375	6.875e-06	680596.3	150250.22	-9.9522294e-05	150253.89	680595.3	0.00013535032
0	0.5927546	0.5927512	-2.0121313e-10	0.026162952	0.026162954	0	65143.723	65143.363	-2.25e-05	680897	148955.7	-0.00022292994	148959.39	680896	-4.77707e-05
0	0.59203976	0.5920365	-2.8853203e-10	0.025809333	0.025809333	0	65065.176	65064.812	-2.875e-05	681196.06	147656	-0.00031050955	147659.69	681195.06	-9.9522294e-05
0	0.59131557	0.59131235	-3.5686856e-10	0.025455903	0.025455903	0	64985.58	64985.215	-3.9375e-05	681495.94	146342.19	-0.00035628982	146345.88	681495	-0.00017515924
0	0.5905888	0.5905856	2.2778845e-11	0.025102293	0.025102295	0	64905.71	64905.348	2.5e-06	681793.6	145027.06	-0.0001871019	145030.73	681792.7	0.00019904459
0	0.58985215	0.58984894	-3.8724038e-10	0.024748765	0.024748765	0	64824.75	64824.4	-4.375e-05	682092	143697.38	-0.00039211783	143701.05	682091	-0.00017515924
0	0.5891114	0.5891081	-1.4426602e-10	0.02439518	0.02439518	0	64743.336	64742.984	-1.75e-05	682388.8	142363.44	-0.00020203025	142367.11	682388	-4.378981e-05
0	0.5883626	0.58835924	-1.4806249e-10	0.024041647	0.024041647	0	64661.043	64660.676	-2.125e-05	682685.5	141018.44	-0.00026273885	141022.08	682684.56	3.9808918e-05
0	0.5876069	0.5876036	-2.2778845e-10	0.02368811	0.023688113	0	64577.996	64577.65	-2.25e-05	682981.3	139664.77	-0.00025079618	139668.42	682980.5	-7.9617836e-05
0	0.5868446	0.5868414	-5.6947114e-11	0.023334507	0.023334507	0	64494.223	64493.87	-1.1875e-05	683276.1	138302.67	-0.00013535032	138306.33	683275.3	2.388535e-05
0	0.58607507	0.5860719	-3.1890382e-10	0.022980964	0.022980964	0	64409.66	64409.297	-3.6875e-05	683570.44	136931.08	-0.00031847134	136934.72	683569.56	-0.0001871019
0	0.5852987	0.5852955	-2.619567e-10	0.022627395	0.022627395	0	64324.332	64323.977	-2.75e-05	683863.6	135550.89	-0.00036425158	135554.52	683862.9	3.9808915e-06
0	0.5845151	0.5845118	-1.4426602e-10	0.022273842	0.022273842	0	64238.203	64237.855	-1.5625e-05	684156.1	134161.27	-0.00038017516	134164.92	684155.3	0.00014729299
0	0.58372426	0.58372104	-3.68258e-10	0.021920258	0.021920262	0	64151.297	64150.95	-4.4375e-05	684447.56	132762.73	-0.00046178343	132766.39	684446.8	-8.757962e-05
0	0.58292586	0.58292264	8.352243e-11	0.021566812	0.021566812	0	64063.543	64063.207	8.125e-06	684738.3	131354.3	4.179936e-05	131357.92	684737.44	7.165605e-05
0	0.5821198	0.5821168	-2.7334615e-10	0.021213228	0.021213228	0	63974.973	63974.63	-2.9375e-05	685027.9	129936.3	-0.0002866242	129939.92	685027.2	-9.55414e-05
0	0.5813065	0.58130336	-4.3659454e-10	0.02085967	0.02085967	0	63885.59	63885.246	-5e-05	685316.5	128509.02	-0.00054140127	128512.62	685315.7	-0.00011942675
0	0.5804855	0.5804824	-7.592948e-12	0.020506129	0.020506129	0	63795.355	63795.02	-1.25e-06	685604	127072.17	3.6823247e-05	127075.74	685603.3	-5.175159e-05
0	0.5796568	0.5796538	-4.1381568e-10	0.020152565	0.020152565	0	63704.285	63703.945	-4.3125e-05	685890.25	125625.61	-0.00050557323	125629.195	685889.6	-8.359872e-05
0	0.5788201	0.57881707	-3.5686856e-10	0.019798992	0.019798992	0	63612.33	63611.996	-4.125e-05	686175.7	124168.95	-0.0004339172	124172.52	686174.94	-7.9617836e-05
0	0.5779756	0.5779726	-5.163205e-10	0.019445421	0.019445421	0	63519.523	63519.188	-5.75e-05	686459.6	122702.734	-0.0006041003	122706.3	686458.9	-0.00017117834
0	0.57712305	0.57712007	-3.834439e-10	0.019091858	0.019091858	0	63425.824	63425.5	-4.5e-05	686742.1	121226.586	-0.0005214968	121230.14	686741.6	-1.9904459e-05
0	0.57626235	0.57625943	-3.7964742e-11	0.018738287	0.018738287	0	63331.246	63330.906	-8.125e-06	687023.6	119740.2	-0.00020700636	119743.73	687023	0.00015127388
0	0.5753935	0.5753906	-6.150288e-10	0.01838475	0.018384747	0	63235.746	63235.426	-6.5e-05	687303.6	118243.76	-0.00065684714	118247.28	687303.06	-0.00017515924
0	0.57451606	0.5745132	-3.5686856e-10	0.018031184	0.018031184	0	63139.31	63139	-3.3125e-05	687582.2	116736.78	-0.0003343949	116740.266	687581.6	-0.00011942675
0	0.57363045	0.5736276	-3.378862e-10	0.017677717	0.017677717	0	63041.992	63041.668	-3.9375e-05	687859.5	115219.805	-0.00031449043	115223.27	687858.75	-0.0001433121
0	0.57273614	0.5727333	1.1389422e-11	0.017324144	0.017324144	0	62943.7	62943.387	-6.25e-07	688134.94	113692.19	-0.0001303742	113695.63	688134.4	0.00012340765
0	0.57183254	0.5718297	-4.40391e-10	0.01697058	0.01697058	0	62844.39	62844.08	-5.1875e-05	688409.25	112152.83	-0.0005652866	112156.266	688408.6	-8.359872e-05
0	0.5709191	0.57091624	-8.3522433e-10	0.016617041	0.016617041	0	62744.004	62743.695	-8.875e-05	688682	110601.28	-0.0006807325	110604.695	688681.5	-0.0004816879
0	0.5699995	0.5699968	-5.466923e-10	0.016263481	0.01626348	0	62642.953	62642.652	-5.8125e-05	688952.4	109043.586	-0.0005911624	109046.99	688951.9	-0.00020700636
0	0.56906873	0.569066	7.592948e-12	0.015909908	0.015909908	0	62540.652	62540.344	5.625e-06	689221.5	107471.3	-0.0002428344	107474.68	689221.1	0.0002826433
0	0.5681304	0.56812763	-5.163205e-10	0.015556336	0.015556336	0	62437.53	62437.227	-5.25e-05	689488.56	105890.61	-0.00050557323	105893.96	689488.2	-0.0001871019
0	0.5671823	0.5671796	-3.834439e-10	0.015202776	0.015202776	0	62333.332	62333.047	-4.125e-05	689753.75	104298.18	-0.0004816879	104301.51	689753.3	-7.165605e-05
0	0.566224	0.5662214	-4.3279805e-10	0.014849206	0.014849206	0	62228.02	62227.74	-4.75e-05	690017.25	102693.05	-0.00038515127	102696.36	690016.9	-0.0002388535
0	0.56525636	0.5652537	-5.6187816e-10	0.014495678	0.014495678	0	62121.668	62121.38	-6.3125e-05	690278.7	101076.89	-0.00048765924	101080.164	690278.4	-0.0003463376
0	0.564279	0.56427646	-4.0242626e-10	0.014142117	0.014142117	0	62014.266	62013.973	-4.3125e-05	690538	99449.28	-0.00059414806	99452.55	690537.75	-7.961783e-06
0	0.56329155	0.56328905	-4.5178042e-10	0.0137886135	0.0137886135	0	61905.746	61905.46	-5.5e-05	690795.4	97809.6	-0.0005095541	97812.82	690795	-0.00012738853
0	0.5622933	0.5622908	-2.050096e-10	0.013435041	0.013435041	0	61796.04	61795.758	-2.1875e-05	691050.56	96156.87	-0.00031050955	96160.06	691050.3	2.388535e-05
0	0.56128705	0.56128466	-3.113109e-10	0.013081476	0.013081477	0	61685.45	61685.18	-3.5625e-05	691303.2	94495.625	-0.00032245222	94498.81	691302.94	-0.00010350318
0	0.56026936	0.560267	-4.40391e-10	0.012727952	0.012727952	0	61573.613	61573.34	-4.75e-05	691553.56	92820.47	-0.0005652866	92823.6	691553.4	-4.378981e-05
0	0.5592414	0.559239	-6.833654e-11	0.0123743825	0.0123743825	0	61460.625	61460.367	-8.75e-06	691801.5	91133.34	-0.00019904459	91136.445	691801.3	7.9617836e-05
0	0.5582027	0.5582003	-4.8594867e-10	0.012020824	0.012020824	0	61346.477	61346.223	-5.1875e-05	692047	89433.73	-0.0005603105	89436.8	692046.9	-0.00011544586
0	0.55715317	0.5571507	-5.6947114e-11	0.011667253	0.011667253	0	61231.125	61230.88	-8.125e-06	692290	87721.36	-0.00030752388	87724.4	692289.75	0.00021496815
0	0.5560928	0.55609053	-2.4297434e-10	0.011313696	0.011313697	0	61114.605	61114.348	-2.8125e-05	692530.3	85996.71	-0.0004558121	85999.72	692530	0.00010350318
0	0.5550215	0.55501926	-8.3522433e-10	0.010960129	0.010960131	0	60996.855	60996.617	-9.375e-05	692767.7	84259.43	-0.00055931526	84262.41	692767.5	-0.00062898087
0	0.5539367	0.5539345	-3.416827e-11	0.010606614	0.010606614	0	60877.64	60877.402	-5.625e-06	693002.75	82505.73	5.9713377e-05	82508.66	693002.6	-9.9522294e-05
0	0.5528448	0.5528427	-3.6446152e-10	0.010253064	0.010253064	0	60757.65	60757.41	-4.375e-05	693234.1	80745.8	-0.00045382165	80748.69	693234	-7.563694e-05
0	0.5517376	0.55173546	5.315064e-11	0.009899496	0.009899496	0	60635.96	60635.727	1.0625e-05	693463.2	78966.64	-6.767516e-05	78969.484	693463	0.00017914013
0	0.550622	0.55062	-6.302147e-10	0.009545929	0.009545929	0	60513.363	60513.137	-6.9375e-05	693688.4	77179.59	-0.0005513535	77182.4	693688.4	-0.000330414
0	0.54949296	0.5494909	-3.9103684e-10	0.009192375	0.009192375	0	60389.273	60389.06	-4.15625e-05	693910.8	75376.57	-0.00057523884	75379.33	693910.75	3.5828027e-05
0	0.5483514	0.5483495	-5.163205e-10	0.008838858	0.008838858	0	60263.824	60263.61	-5.625e-05	694130	73559.33	-0.00071755575	73562.04	694129.94	-6.3694264e-05
0	0.5471978	0.547196	-5.8465704e-10	0.00848529	0.00848529	0	60137.043	60136.836	-6.4375e-05	694345.6	71728.734	-0.0006488853	71731.41	694345.56	-0.00020700636
0	0.546032	0.5460301	1.2148717e-10	0.00813174	0.00813174	0	60008.918	60008.715	1.53125e-05	694557.75	69884.43	1.1942675e-05	69887.055	694557.75	0.00017117834
0	0.5448532	0.5448515	-2.657532e-11	0.007778168	0.007778168	0	59879.37	59879.17	-3.75e-06	694766.4	68025.6	-0.0001522691	68028.17	694766.4	0.00011146497
0	0.54366183	0.5436601	-3.075144e-10	0.007424603	0.007424603	0	59748.445	59748.25	-3.5e-05	694971.1	66153.016	-0.00058917195	66155.53	694971.25	0.00013136942
0	0.5424572	0.5424556	-3.796474e-12	0.0070710587	0.0070710587	0	59616.05	59615.863	-6.25e-07	695172.06	64265.543	-0.00016719745	64268.004	695172.1	0.00015127388
0	0.5412398	0.5412381	-4.669663e-10	0.0067175203	0.0067175203	0	59482.246	59482.066	-5.25e-05	695369.06	62364.176	-0.0006767516	62366.59	695369.1	5.5732486e-05
0	0.54000854	0.5400069	-2.3917787e-10	0.006363976	0.0063639763	0	59346.93	59346.758	-2.5625e-05	695561.94	60447.598	-0.00021397293	60449.96	695562.1	-6.3694264e-05
0	0.5387635	0.53876185	1.025048e-10	0.006010412	0.006010412	0	59210.1	59209.926	9.0625e-06	695750.7	58515.82	-0.00014729299	58518.137	695750.75	0.0002866242
0	0.5375028	0.5375014	-1.2452436e-09	0.0056568487	0.0056568487	0	59071.56	59071.395	-0.000138125	695935.3	56566.36	-0.0010250796	56568.605	695935.56	-0.0007165605
0	0.53623194	0.5362305	-5.732676e-10	0.005303307	0.005303307	0	58931.89	58931.734	-6.8125e-05	696114.94	54607.63	-0.00083101116	54609.81	696115.06	-3.5828027e-05
0	0.5349447	0.5349434	-2.619567e-10	0.004949748	0.004949748	0	58790.43	58790.277	-3.09375e-05	696290.25	52630.348	-0.00044187898	52632.477	696290.4	2.388535e-05