# t (s)	mx ()	my ()	mz ()	B_extx (T)	B_exty (T)	B_extz (T)	m_fullx (A/m)	m_fully (A/m)	m_fullz (A/m)	m_full.region1x (A/m)	m_full.region1y (A/m)	m_full.region1z (A/m)	m_full.region2x (A/m)	m_full.region2y (A/m)	m_full.region2z (A/m)
0	0.65433455	0.6543339	-4.910222e-10	0.070710756	0.070710756	0	110815.74	110815.63	-8.650519e-05	617311.2	298756.8	-0.00034324944	298757.22	617310.6	-0.00037185356
0	0.65425104	0.65425014	-8.1837044e-11	0.070569135	0.070569135	0	110801.59	110801.45	-1.384083e-05	617383.06	298567.66	-8.581236e-05	298568.28	617382.6	-0.00010011442
0	0.654163	0.65416217	-1.6367409e-10	0.07042789	0.07042789	0	110786.695	110786.555	-2.4221454e-05	617460.06	298367.47	-2.860412e-05	298368.16	617459.44	-0.00020983804
0	0.6540745	0.65407354	-2.1823211e-10	0.07028644	0.07028644	0	110771.7	110771.55	-4.1522493e-05	617537.5	298166.06	-0.0002225758	298166.78	617536.94	-0.00011441648
0	0.65398663	0.6539857	1.09116056e-10	0.07014497	0.07014497	0	110756.82	110756.67	2.0761247e-05	617614	297966.53	0.00014302059	297967.2	617613.44	0
0	0.65389717	0.6538963	2.7279014e-11	0.07000352	0.07000352	0	110741.67	110741.516	3.4602076e-06	617691.8	297763.53	5.720824e-05	297764.16	617691.2	2.860412e-05
0	0.6538083	0.6538074	-2.455111e-10	0.06986227	0.06986227	0	110726.625	110726.47	-5.1903113e-05	617769.25	297561.78	-0.00025743706	297562.44	617768.6	-0.00015732265
0	0.6537193	0.6537184	-2.455111e-10	0.069720656	0.069720656	0	110711.56	110711.41	-4.1522493e-05	617846.56	297359.88	-0.00025743706	297360.53	617846	-0.00010011442
0	0.65362984	0.653629	-2.7279012e-10	0.06957922	0.06957922	0	110696.414	110696.25	-5.1903113e-05	617924.1	297157.03	-0.00028604118	297157.7	617923.5	-0.00014302059
0	0.6535403	0.65353936	-1.3639506e-10	0.06943795	0.06943795	0	110681.234	110681.08	-1.7301038e-05	618001.7	296954.12	-6.972254e-05	296954.75	618001.06	-0.00012871853
0	0.6534501	0.65344924	-6.819753e-11	0.06929648	0.06929648	0	110665.96	110665.8	-6.920415e-06	618079.75	296749.8	-2.860412e-05	296750.47	618079	0
0	0.65336055	0.65335953	-2.7279014e-11	0.06915505	0.069155045	0	110650.77	110650.62	-6.920415e-06	618156.8	296547.12	-0.00011441648	296547.8	618156.25	0
0	0.6532704	0.65326947	-5.592198e-10	0.0690136	0.0690136	0	110635.53	110635.375	-8.99654e-05	618234.6	296343.34	-0.00027173912	296344.03	618234	-0.0004576659
0	0.6531803	0.6531794	-1.6367409e-10	0.06887216	0.06887216	0	110620.26	110620.1	-3.4602075e-05	618312.06	296139.7	-0.00014302059	296140.38	618311.5	-0.00017162472
0	0.65309006	0.65308917	-5.4558028e-11	0.068730734	0.068730734	0	110604.99	110604.83	-1.7301038e-05	618389.4	295936.1	-0.00020022884	295936.75	618388.7	6.4359265e-05
0	0.6529987	0.65299773	-2.3187162e-10	0.068589285	0.068589285	0	110589.52	110589.37	-4.1522493e-05	618467.1	295730.38	-0.00013408181	295731.06	618466.56	-0.00024313501
0	0.6529073	0.65290636	-2.1823211e-10	0.06844799	0.06844799	0	110574.03	110573.87	-3.4602075e-05	618545.56	295524	-0.00018592678	295524.66	618544.94	-0.00015732265
0	0.6528165	0.6528155	-3.819062e-10	0.06830654	0.06830654	0	110558.65	110558.49	-5.536332e-05	618623.7	295318.66	-0.00020022884	295319.3	618623.1	-0.00030034324
0	0.6527253	0.6527243	-2.8642963e-10	0.06816512	0.06816512	0	110543.2	110543.05	-5.1903113e-05	618701.5	295113.22	-0.00028604118	295113.94	618700.94	-0.00012871853
0	0.6526333	0.65263236	-6.001383e-10	0.068023674	0.068023674	0	110527.64	110527.48	-9.34256e-05	618779.9	294906.12	-0.0004290618	294906.78	618779.3	-0.00040045768
0	0.65254194	0.6525409	5.4558028e-11	0.06788224	0.06788223	0	110512.15	110511.99	3.4602076e-06	618857.75	294700.28	2.860412e-05	294701	618857.1	1.430206e-05
0	0.6524494	0.65244865	-2.5915062e-10	0.06774081	0.06774081	0	110496.5	110496.34	-4.1522493e-05	618935.44	294493.22	-3.2179632e-05	294493.9	618934.75	-0.00030034324
0	0.6523572	0.6523563	2.7279014e-11	0.06759933	0.06759933	0	110480.875	110480.71	-3.4602076e-06	619014.3	294285.1	2.860412e-05	294285.78	619013.75	-0.00010011442
0	0.6522658	0.65226483	-4.910222e-10	0.06745807	0.06745807	0	110465.39	110465.23	-8.99654e-05	619091.6	294079.72	-0.00028604118	294080.44	619091	-0.00040045768
0	0.65217227	0.6521713	-2.7279012e-10	0.06731661	0.067316614	0	110449.55	110449.39	-4.49827e-05	619170.3	293870.12	-0.00013944508	293870.84	619169.7	-0.00022883296
0	0.6520796	0.6520787	-1.09116056e-10	0.06717501	0.06717501	0	110433.85	110433.69	-2.0761247e-05	619248.75	293661.94	-2.860412e-05	293662.6	619248.1	-0.00011441648
0	0.65198725	0.6519863	-7.365334e-10	0.06703376	0.06703377	0	110418.22	110418.055	-0.00012543253	619326.2	293455.2	-0.0004576659	293455.9	619325.6	-0.0005291762
0	0.6518933	0.6518924	2.7279012e-10	0.06689231	0.0668923	0	110402.31	110402.15	3.4602075e-05	619404.94	293245.06	0.00014838387	293245.75	619404.4	0.00017162472
0	0.6517998	0.6517989	-1.3639506e-10	0.066750854	0.066750854	0	110386.46	110386.305	-2.768166e-05	619483.4	293035.62	-0.00015017162	293036.34	619482.75	-5.542048e-05
0	0.65170556	0.65170467	-3.0006914e-10	0.066609405	0.06660941	0	110370.516	110370.35	-5.536332e-05	619562.44	292824.72	-0.00040045768	292825.4	619561.8	-0.00010011442
0	0.6516123	0.6516113	-3.682667e-10	0.06646814	0.06646814	0	110354.72	110354.55	-6.228374e-05	619641	292615.44	-0.0003146453	292616.16	619640.44	-0.00020022884
0	0.65151817	0.6515173	-4.7738274e-10	0.06632654	0.06632655	0	110338.766	110338.6	-8.3044986e-05	619719.7	292405	-0.0003146453	292405.72	619719.06	-0.00040045768
0	0.65142363	0.6514227	-1.6367409e-10	0.066185094	0.066185094	0	110322.75	110322.6	-6.920415e-06	619797.9	292194.47	-0.00011441648	292195.16	619797.2	-1.430206e-05
0	0.65132916	0.6513283	-8.1837044e-11	0.06604383	0.06604383	0	110306.766	110306.61	-2.4221454e-05	619876.44	291983.7	-2.860412e-05	291984.4	619875.9	-0.00015732265
0	0.65123415	0.6512331	-4.2282472e-10	0.06590232	0.06590232	0	110290.664	110290.516	-7.612457e-05	619955.4	291771.62	-0.00041475974	291772.34	619954.75	-0.00025743706
0	0.65113944	0.6511384	1.3639507e-11	0.06576094	0.06576094	0	110274.63	110274.47	6.920415e-06	620034.4	291560.12	2.860412e-05	291560.88	620033.7	6.6147026e-05
0	0.65104437	0.6510434	-8.1837044e-11	0.06561947	0.06561947	0	110258.54	110258.375	-3.4602076e-06	620113.5	291347.97	-9.832666e-05	291348.7	620112.8	2.860412e-05
0	0.6509489	0.650948	-1.09116056e-10	0.06547822	0.06547822	0	110242.36	110242.2	-6.920415e-06	620192.56	291135.25	0	291136	620191.8	-8.581236e-05
0	0.6508533	0.6508524	-2.455111e-10	0.06533663	0.06533663	0	110226.164	110226.01	-3.4602075e-05	620271.25	290922.62	-0.00022883296	290923.28	620270.6	-8.581236e-05
0	0.6507577	0.65075666	-8.1837044e-11	0.06519517	0.06519517	0	110209.984	110209.82	-1.384083e-05	620350.3	290709.72	-0.00014302059	290710.47	620349.7	4.290618e-05
0	0.65066135	0.65066034	-5.4558025e-10	0.0650539	0.06505391	0	110193.664	110193.51	-8.3044986e-05	620429.44	290495.78	-0.00040045768	290496.53	620428.75	-0.00038615562
0	0.6505655	0.65056443	-5.1830124e-10	0.0649124	0.06491239	0	110177.414	110177.26	-8.650519e-05	620508.4	290282.47	-0.0004576659	290283.2	620507.75	-0.00032894738
0	0.6504688	0.6504679	-4.3646423e-10	0.06477102	0.06477102	0	110161.07	110160.9	-7.612457e-05	620587.5	290068.16	-0.00027531464	290068.88	620586.9	-0.0003146453
0	0.65037155	0.6503706	-1.3639506e-10	0.06462957	0.06462957	0	110144.58	110144.43	-2.4221454e-05	620666.5	289852.97	-1.430206e-05	289853.75	620665.9	-8.581236e-05
0	0.6502752	0.65027416	-8.1837044e-11	0.06448809	0.06448808	0	110128.25	110128.086	-1.7301038e-05	620746	289638.53	-0.00014302059	289639.22	620745.3	-1.430206e-05
0	0.65017766	0.65017664	-4.5010373e-10	0.064346716	0.06434671	0	110111.75	110111.58	-8.99654e-05	620824.7	289423.28	-0.0003360984	289424.06	620824.06	-0.00038615562
0	0.6500806	0.65007967	-2.1823211e-10	0.064205244	0.064205244	0	110095.32	110095.15	-3.114187e-05	620904.25	289207.9	-0.00017162472	289208.7	620903.56	-0.00011441648
0	0.6499825	0.6499815	-2.1823211e-10	0.064063944	0.064063944	0	110078.69	110078.516	-3.8062284e-05	620983.8	288990.84	-0.00014302059	288991.53	620983.2	-0.00017162472
0	0.6498852	0.6498842	-2.455111e-10	0.06392247	0.06392247	0	110062.21	110062.05	-3.8062284e-05	621063.4	288775.1	-7.776745e-05	288775.84	621062.75	-0.00024313501
0	0.649787	0.64978594	-7.092544e-10	0.063781105	0.063781105	0	110045.57	110045.414	-0.00012110727	621143	288558.03	-0.0004290618	288558.75	621142.4	-0.0005148741
0	0.6496889	0.6496879	-6.2741734e-10	0.06363964	0.06363964	0	110028.98	110028.805	-0.000103806226	621222.4	288341.3	-0.00040045768	288342.06	621221.75	-0.00047375573
0	0.6495896	0.6495887	2.7279014e-11	0.063498154	0.063498154	0	110012.164	110012	3.8927337e-06	621301.94	288122.8	-2.6816363e-06	288123.56	621301.3	5.720824e-05
0	0.6494917	0.6494908	-2.3187162e-10	0.063356794	0.0633568	0	109995.586	109995.414	-4.49827e-05	621381.56	287906.22	-0.00010011442	287906.97	621380.9	-0.0002145309
0	0.6493921	0.6493912	-4.6374324e-10	0.06321528	0.06321528	0	109978.71	109978.55	-7.612457e-05	621460.94	287687.4	-0.00025743706	287688.12	621460.1	-0.00035911577
0	0.6492932	0.6492921	-2.5915062e-10	0.063074015	0.06307401	0	109961.93	109961.77	-4.49827e-05	621541.3	287468.38	-0.00025922482	287469.1	621540.56	-0.00011441648
0	0.64919484	0.6491938	-2.7279012e-10	0.06293254	0.06293254	0	109945.3	109945.14	-4.1522493e-05	621619.94	287252.03	-0.00027173912	287252.78	621619.25	-5.720824e-05
0	0.6490944	0.64909345	-4.6374324e-10	0.062790975	0.062790975	0	109928.29	109928.13	-7.958477e-05	621700.56	287030.9	-0.00014302059	287031.66	621699.9	-0.0004076087
0	0.6489941	0.648993	-2.7279012e-10	0.062649705	0.062649705	0	109911.3	109911.125	-4.49827e-05	621780.8	286810.12	-0.00012514302	286810.88	621780.1	-0.00022883296
0	0.6488951	0.6488941	-4.091852e-10	0.06250823	0.06250823	0	109894.53	109894.35	-6.920415e-05	621859.7	286592.6	-0.00040045768	286593.34	621859.06	-0.00020380435
0	0.6487937	0.6487926	-5.4558028e-11	0.062366836	0.062366836	0	109877.375	109877.195	0	621940	286370.47	-5.720824e-05	286371.22	621939.25	-2.860412e-05
0	0.6486938	0.6486928	-1.2275556e-10	0.062225346	0.062225346	0	109860.445	109860.27	-2.0761247e-05	622020.06	286150.5	-0.00012871853	286151.25	622019.4	-6.637049e-05
0	0.64859265	0.64859164	-2.045926e-10	0.062084086	0.062084086	0	109843.33	109843.14	-2.4221454e-05	622100.4	285928.62	-0.00012871853	285929.34	622099.7	-5.720824e-05
0	0.64849204	0.648491	-1.3639506e-10	0.061942536	0.061942536	0	109826.27	109826.1	-1.384083e-05	622180.1	285707.9	5.720824e-05	285708.7	622179.5	-0.00017162472
0	0.64838994	0.6483889	0	0.061801046	0.061801046	0	109808.99	109808.81	6.920415e-06	622260.4	285484.78	-2.860412e-05	285485.56	622259.7	0.00010011442
0	0.64828897	0.64828795	-2.7279012e-10	0.061659783	0.061659783	0	109791.89	109791.7	-4.8442907e-05	622340.7	285263.16	-5.720824e-05	285263.94	622340.06	-0.0003146453
0	0.64818746	0.6481864	-1.3639506e-10	0.061518256	0.061518256	0	109774.68	109774.516	-2.4221454e-05	622420.8	285040.72	-0.00017162472	285041.53	622420.25	-4.290618e-05
0	0.64808553	0.6480845	-6.5469635e-10	0.061376907	0.061376907	0	109757.445	109757.26	-0.00011072664	622500.9	284818.2	-0.0004576659	284818.94	622500.06	-0.0005148741
0	0.6479825	0.6479814	-3.0006914e-10	0.061235435	0.061235435	0	109739.97	109739.79	-4.8442907e-05	622581.3	284593.28	-0.00034324944	284594.06	622580.6	-0.00010011442
0	0.64788103	0.64787996	-5.4558025e-10	0.061093953	0.061093953	0	109722.8	109722.625	-7.958477e-05	622661.7	284370.9	-0.00037185356	284371.72	622661	-0.00038436786
0	0.6477789	0.64777786	-5.7285926e-10	0.06095263	0.06095263	0	109705.51	109705.32	-8.99654e-05	622741.3	284148.34	-0.00037185356	284149.1	622740.6	-0.00040045768
0	0.6476757	0.64767474	-7.092544e-10	0.060811136	0.060811136	0	109688.03	109687.86	-0.00012110727	622821.8	283923.5	-0.0005148741	283924.3	622821.06	-0.0004576659
0	0.6475723	0.64757127	-2.7279014e-11	0.060669806	0.060669806	0	109670.516	109670.336	-3.4602076e-06	622902.6	283697.9	0	283698.7	622901.9	-8.581236e-05
0	0.64746886	0.6474678	-2.1823211e-10	0.060528323	0.060528323	0	109653.01	109652.83	-2.768166e-05	622983	283472.72	-0.00011441648	283473.5	622982.25	-0.00014302059
0	0.6473644	0.64736336	-6.2741734e-10	0.06038699	0.06038699	0	109635.3	109635.13	-0.00010034602	623064.2	283245.12	-0.00040045768	283245.9	623063.5	-0.00044336385
0	0.64726174	0.64726067	-4.910222e-10	0.060245514	0.060245514	0	109617.914	109617.734	-8.650519e-05	623144.6	283020.97	-0.00034324944	283021.78	623143.9	-0.00032894738
0	0.64715755	0.64715654	-2.1823211e-10	0.060104024	0.060104024	0	109600.27	109600.086	-3.8062284e-05	623225.06	282794.66	-0.00020022884	282795.44	623224.44	-0.00012871853
0	0.6470525	0.6470515	-1.2275556e-10	0.0599627	0.0599627	0	109582.49	109582.3	-2.0761247e-05	623305.56	282567.2	-2.860412e-05	282567.94	623304.9	-0.00014302059
0	0.64694774	0.64694667	-1.909531e-10	0.05982116	0.05982116	0	109564.74	109564.57	-3.114187e-05	623386.56	282339.5	-0.00011441648	282340.28	623385.9	-0.00013586956
0	0.6468438	0.6468428	-1.5003457e-10	0.059679892	0.059679892	0	109547.14	109546.96	-2.768166e-05	623467.2	282113.3	-5.542048e-05	282114.1	623466.56	-0.00011441648
0	0.64673847	0.6467374	-1.2275556e-10	0.059538387	0.059538387	0	109529.3	109529.12	-1.600346e-05	623548.8	281884.25	-0.00010011442	281885.12	623548.06	-8.581236e-05
0	0.64663357	0.64663255	-2.1823211e-10	0.059396856	0.059396863	0	109511.53	109511.36	-3.4602075e-05	623629.06	281657.12	-0.00028604118	281657.9	623628.44	-4.290618e-05
0	0.6465271	0.64652604	-6.137778e-10	0.05925559	0.059255596	0	109493.51	109493.32	-0.00010726644	623709.94	281427.2	-0.00040045768	281428	623709.25	-0.00047196797
0	0.64642227	0.6464212	-6.001383e-10	0.059114084	0.059114084	0	109475.74	109475.56	-0.00010034602	623790.9	281199.4	-0.00028604118	281200.25	623790.25	-0.00054347824
0	0.6463155	0.64631444	-3.955457e-10	0.05897273	0.05897273	0	109457.68	109457.484	-6.228374e-05	623871.9	280969.06	-0.00040045768	280969.88	623871.2	-0.00015017162
0	0.64620966	0.6462086	-4.7738274e-10	0.05883124	0.05883124	0	109439.75	109439.55	-7.958477e-05	623953.56	280739.22	-0.00040045768	280740.03	623952.8	-0.0003146453
0	0.6461039	0.64610285	-3.546272e-10	0.058689952	0.058689952	0	109421.836	109421.65	-6.228374e-05	624034	280510.72	-0.00038615562	280511.53	624033.3	-0.00012871853
0	0.6459955	0.6459944	-6.001383e-10	0.058548428	0.058548428	0	109403.47	109403.3	-8.99654e-05	624115.56	280277.34	-0.00032894738	280278.16	624114.9	-0.00044336385
0	0.64589006	0.645889	-1.6367409e-10	0.058406938	0.058406938	0	109385.61	109385.44	-2.768166e-05	624196.2	280049.12	-0.00017162472	280049.94	624195.44	-0.00012871853
0	0.64578235	0.6457813	-6.5469635e-10	0.05826566	0.05826566	0	109367.37	109367.195	-0.00010726644	624278	279816.5	-0.0003146453	279817.28	624277.3	-0.0006006865
0	0.64567494	0.6456739	-2.7279012e-10	0.058124106	0.058124106	0	109349.18	109348.99	-5.1903113e-05	624359.06	279585.03	-0.00015285326	279585.88	624358.3	-0.00018592678
0	0.64556694	0.6455658	-4.091852e-10	0.057982814	0.057982814	0	109330.88	109330.7	-7.612457e-05	624440.44	279352.4	-0.00025386157	279353.22	624439.75	-0.00034324944
0	0.6454593	0.64545834	-3.819062e-10	0.057841312	0.057841305	0	109312.68	109312.49	-6.920415e-05	624521.7	279120.66	-0.00018592678	279121.5	624520.94	-0.00038615562
0	0.64535046	0.6453494	-3.682667e-10	0.057699807	0.057699807	0	109294.23	109294.05	-6.920415e-05	624602.6	278887.22	-0.00017162472	278888.03	624601.9	-0.00040045768
0	0.64524174	0.6452406	-3.682667e-10	0.057558525	0.057558525	0	109275.81	109275.62	-6.920415e-05	624684.6	278652.88	-0.0003575515	278653.66	624683.94	-0.00020022884
0	0.6451335	0.6451325	-2.1823211e-10	0.05741701	0.05741701	0	109257.49	109257.31	-3.114187e-05	624766.1	278420.03	-0.00014302059	278420.8	624765.4	-0.00014302059
0	0.64502513	0.645024	-1.6367409e-10	0.057275683	0.057275683	0	109239.13	109238.945	-3.8062284e-05	624847.3	278186.97	-0.00017162472	278187.78	624846.6	-3.2179632e-05
0	0.6449149	0.64491385	-3.546272e-10	0.057134178	0.057134178	0	109220.48	109220.29	-6.228374e-05	624928.56	277951.5	-0.00015374714	277952.3	624927.9	-0.00032179634
0	0.6448054	0.64480436	-3.0006914e-10	0.056992896	0.056992896	0	109201.92	109201.74	-4.49827e-05	625010.7	277716.06	-0.00017162472	277716.9	625010	-0.00020022884
0	0.6446966	0.6446955	-3.955457e-10	0.056851387	0.056851387	0	109183.5	109183.31	-7.266436e-05	625092	277482.44	-0.00040045768	277483.25	625091.25	-0.00024849828
0	0.644586	0.64458483	-4.910222e-10	0.056709882	0.056709882	0	109164.766	109164.58	-8.3044986e-05	625174.3	277245.28	-0.0003360984	277246.1	625173.56	-0.00040045768
0	0.6444762	0.64447504	-5.3194077e-10	0.056568604	0.056568604	0	109146.17	109145.97	-8.99654e-05	625255.56	277010.22	-0.00040045768	277011.03	625254.94	-0.00032894738
0	0.6443651	0.644364	-4.3646423e-10	0.05642703	0.05642703	0	109127.34	109127.16	-6.920415e-05	625337	276773.22	-0.00028604118	276774.06	625336.3	-0.00023151458
0	0.64425427	0.6442532	-2.455111e-10	0.056285758	0.056285758	0	109108.58	109108.39	-4.1522493e-05	625418.75	276536.34	-0.0003146453	276537.22	625418	-5.720824e-05
0	0.6441431	0.644142	-2.455111e-10	0.05614425	0.05614425	0	109089.75	109089.58	-4.1522493e-05	625501.25	276298.16	-0.00025743706	276298.97	625500.56	-0.00015732265
0	0.6440318	0.6440307	-1.6367409e-10	0.056002736	0.056002736	0	109070.914	109070.73	-2.4221454e-05	625582.8	276061	-0.00014302059	276061.8	625582.06	-5.005721e-05
0	0.6439204	0.6439192	-3.2734818e-10	0.055861462	0.055861462	0	109052.04	109051.85	-5.536332e-05	625665.06	275822.66	-0.00012335526	275823.5	625664.4	-0.00030034324
0	0.6438094	0.6438082	-1.3639506e-10	0.055719953	0.055719953	0	109033.234	109033.05	-2.0761247e-05	625746.7	275585.62	-0.00015732265	275586.47	625745.9	-5.720824e-05
0	0.6436967	0.6436956	-2.455111e-10	0.05557868	0.05557868	0	109014.164	109013.96	-5.1903113e-05	625828.6	275345.94	-0.00025743706	275346.78	625827.94	-0.00011441648
0	0.64358383	0.64358276	-5.4558025e-10	0.05543712	0.05543712	0	108995.05	108994.85	-8.99654e-05	625910.9	275105.72	-0.00041475974	275106.56	625910.06	-0.0003575515
0	0.64347166	0.64347047	-3.2734818e-10	0.05529583	0.05529583	0	108976.05	108975.86	-4.49827e-05	625993.4	274866.1	-0.00027173912	274866.9	625992.7	-0.00014302059
0	0.6433597	0.64335847	-1.09116056e-10	0.055154327	0.055154327	0	108957.08	108956.89	-2.0761247e-05	626074.7	274627.97	-5.720824e-05	274628.84	626073.94	-0.00012514302
0	0.64324594	0.6432448	-6.5469635e-10	0.055012815	0.055012815	0	108937.83	108937.625	-0.00010726644	626157.25	274386.2	-0.0004826945	274387.03	626156.56	-0.00038615562
0	0.6431318	0.64313066	-1.909531e-10	0.054871533	0.054871533	0	108918.48	108918.3	-3.8062284e-05	626239.44	274144.25	-0.00017162472	274145.12	626238.6	-4.290618e-05
0	0.64301896	0.6430178	-1.3639506e-10	0.05473003	0.05473003	0	108899.38	108899.18	-2.768166e-05	626321.56	273904.12	-5.720824e-05	273905	626320.8	-0.00012871853
0	0.6429047	0.64290357	-8.1837044e-11	0.054588694	0.054588694	0	108880.02	108879.83	-1.7301038e-05	626403.7	273662	-0.00013318793	273662.84	626402.94	-1.430206e-05
0	0.64279026	0.642789	-4.3646423e-10	0.05444718	0.05444718	0	108860.64	108860.45	-7.958477e-05	626486.4	273419.03	-0.00030034324	273419.9	626485.7	-0.00040045768
0	0.6426761	0.64267486	8.1837044e-11	0.05430591	0.054305915	0	108841.3	108841.11	3.4602076e-06	626569.1	273176.5	-5.720824e-05	273177.38	626568.4	0.00019933496
0	0.6425615	0.64256024	-4.5010373e-10	0.054164402	0.054164402	0	108821.89	108821.695	-8.3044986e-05	626651.3	272933.78	-0.0003146453	272934.66	626650.6	-0.00030034324
0	0.64244634	0.64244515	-4.2282472e-10	0.054022882	0.054022882	0	108802.4	108802.2	-7.266436e-05	626733.9	272690.16	-0.00025743706	272691	626733.1	-0.00030034324
0	0.6423314	0.6423303	-2.455111e-10	0.053881615	0.053881615	0	108782.94	108782.74	-3.4602075e-05	626816.2	272447.03	-0.00017162472	272447.9	626815.44	-0.00023419622
0	0.64221567	0.6422146	5.4558028e-11	0.05374005	0.05374005	0	108763.34	108763.14	3.4602076e-06	626898.8	272202.34	-5.3632725e-06	272203.2	626898	8.581236e-05
0	0.6420994	0.64209825	-3.2734818e-10	0.053598765	0.053598765	0	108743.64	108743.445	-5.1903113e-05	626981.1	271957.2	-0.00015732265	271958.06	626980.4	-0.00022883296
0	0.6419841	0.6419829	-2.8642963e-10	0.053457264	0.053457264	0	108724.12	108723.914	-4.49827e-05	627063.25	271713.66	-0.00020022884	271714.56	627062.5	-0.00017162472
0	0.6418672	0.64186597	-1.09116056e-10	0.05331577	0.05331577	0	108704.33	108704.12	-2.4221454e-05	627146.06	271467.16	-4.290618e-05	271468.06	627145.3	-8.581236e-05
0	0.64175063	0.6417495	-4.3646423e-10	0.053174473	0.053174473	0	108684.586	108684.38	-6.920415e-05	627228.94	271221.03	-0.00027173912	271221.94	627228.25	-0.00030034324
0	0.6416332	0.641632	-5.4558025e-10	0.053032972	0.053032972	0	108664.68	108664.484	-8.650519e-05	627312.1	270973.47	-0.0003146453	270974.38	627311.4	-0.00046906286
0	0.6415166	0.64151555	-6.2741734e-10	0.052891634	0.052891634	0	108644.95	108644.75	-9.34256e-05	627394.7	270727.78	-0.00041475974	270728.7	627393.9	-0.0004290618
0	0.6413995	0.64139825	-1.909531e-10	0.05275012	0.05275012	0	108625.11	108624.9	-3.8062284e-05	627476.9	270481.47	-0.00014302059	270482.38	627476.1	-0.00012871853
0	0.64128166	0.6412804	-3.2734818e-10	0.052608836	0.052608836	0	108605.15	108604.945	-5.536332e-05	627560.06	270233.38	-0.00014302059	270234.28	627559.25	-0.0003575515
0	0.641163	0.6411618	-2.7279012e-10	0.052467342	0.052467342	0	108585.055	108584.85	-4.1522493e-05	627643	269984.28	-0.00028604118	269985.2	627642.25	-4.290618e-05
0	0.64104575	0.6410445	-3.819062e-10	0.052325826	0.052325826	0	108565.19	108564.984	-5.882353e-05	627725.56	269737.44	-0.00024313501	269738.34	627724.9	-0.00025743706
0	0.6409269	0.6409257	-3.819062e-10	0.05218455	0.05218455	0	108545.09	108544.875	-6.228374e-05	627808	269488.8	-0.00020022884	269489.7	627807.25	-0.0003146453
0	0.64080787	0.6408067	-5.7285926e-10	0.05204299	0.05204299	0	108524.91	108524.71	-9.6885815e-05	627891.7	269238.44	-0.00037185356	269239.3	627890.9	-0.00038615562
0	0.6406889	0.64068776	-7.638124e-10	0.051901694	0.051901694	0	108504.766	108504.57	-0.0001384083	627974.25	268989.25	-0.00061498856	268990.2	627973.5	-0.0005291762
0	0.6405689	0.6405677	-5.4558028e-11	0.051760197	0.051760197	0	108484.445	108484.25	-2.4221454e-05	628058.2	268737.38	-2.860412e-05	268738.25	628057.4	-0.00010011442
0	0.64045	0.6404488	1.6367409e-10	0.051618703	0.051618703	0	108464.31	108464.1	1.7301038e-05	628140.44	268488.6	-5.720824e-05	268489.53	628139.7	0.00018592678
0	0.6403298	0.6403287	-9.547655e-11	0.05147742	0.05147742	0	108443.95	108443.76	-1.7301038e-05	628224	268236.84	-8.581236e-05	268237.78	628223.25	-7.1510294e-05
0	0.64020944	0.6402082	-6.001383e-10	0.051335912	0.051335912	0	108423.555	108423.35	-9.6885815e-05	628306.7	267985.62	-0.00048627003	267986.5	628305.9	-0.00035040046
0	0.6400889	0.64008766	-3.819062e-10	0.051194567	0.051194567	0	108403.15	108402.945	-6.5743945e-05	628390.1	267733.28	-0.0002645881	267734.22	628389.4	-0.0002145309
0	0.6399681	0.6399669	-3.546272e-10	0.051053073	0.051053073	0	108382.695	108382.484	-6.5743945e-05	628473.44	267480.94	-0.00018592678	267481.84	628472.7	-0.0003146453
0	0.6398467	0.63984543	-5.4558028e-11	0.05091177	0.05091177	0	108362.14	108361.92	-1.7301038e-05	628556.75	267227.62	-5.720824e-05	267228.56	628556	-7.1510294e-05
0	0.6397253	0.6397241	-3.2734818e-10	0.050770275	0.050770275	0	108341.58	108341.37	-6.228374e-05	628640.5	266974.03	-0.00016089817	266974.94	628639.7	-0.0003146453
0	0.63960433	0.63960314	-3.2734818e-10	0.05062879	0.05062879	0	108321.086	108320.875	-5.536332e-05	628723.3	266721.88	-0.00020022884	266722.8	628722.44	-0.00028604118
0	0.6394822	0.6394809	-2.1823211e-10	0.05048749	0.05048749	0	108300.4	108300.18	-3.8062284e-05	628806.2	266467.88	-0.00020022884	266468.84	628805.3	-8.581236e-05
0	0.63935953	0.6393584	-4.3646423e-10	0.05034593	0.05034593	0	108279.65	108279.42	-7.266436e-05	628889.7	266212.72	-0.00036470252	266213.7	628888.94	-0.00025743706
0	0.6392372	0.63923603	-2.045926e-10	0.050204642	0.050204646	0	108258.914	108258.71	-4.8442907e-05	628973.56	265957.7	-0.0002145309	265958.6	628972.8	-0.00015732265
0	0.63911426	0.63911307	-3.955457e-10	0.050063137	0.050063137	0	108238.1	108237.88	-6.920415e-05	629056.6	265702.53	-0.0003146453	265703.47	629055.8	-0.00024313501
0	0.6389908	0.6389896	-1.3639506e-10	0.04992165	0.04992165	0	108217.195	108216.984	-2.768166e-05	629140.75	265445.53	-8.581236e-05	265446.5	629139.94	-0.00010011442
0	0.6388683	0.638867	-1.6367409e-10	0.04978036	0.04978036	0	108196.42	108196.2	-3.114187e-05	629223.94	265190.62	-5.720824e-05	265191.56	629223.06	-0.00014302059
0	0.63874406	0.6387428	-1.5003457e-10	0.049638852	0.049638852	0	108175.41	108175.18	-2.4221454e-05	629307.6	264933.12	-0.00017162472	264934.06	629306.9	-2.860412e-05
0	0.6386201	0.6386189	-1.909531e-10	0.049497508	0.049497508	0	108154.42	108154.195	-3.4602075e-05	629391.06	264676.22	-0.00025743706	264677.12	629390.3	-2.860412e-05
0	0.6384959	0.6384946	-5.7285926e-10	0.04935601	0.04935601	0	108133.375	108133.16	-0.00010034602	629474.56	264418.72	-0.00027173912	264419.66	629473.75	-0.0005291762
0	0.63837075	0.6383695	-1.909531e-10	0.049214706	0.049214706	0	108112.18	108111.95	-3.4602075e-05	629558.6	264159.56	-0.00020022884	264160.53	629557.75	-0.00014302059
0	0.63824666	0.6382454	-4.3646423e-10	0.049073216	0.049073216	0	108091.15	108090.945	-7.612457e-05	629642.1	263902.25	-0.00020916761	263903.2	629641.3	-0.00037185356
0	0.63812095	0.6381197	-2.7279014e-11	0.048931725	0.048931725	0	108069.87	108069.65	-3.4602076e-06	629726	263642.38	7.1510294e-05	263643.34	629725.2	-8.581236e-05
0	0.63799536	0.6379941	-2.8642963e-10	0.048790433	0.048790433	0	108048.6	108048.37	-4.8442907e-05	629810	263382.53	-0.00020022884	263383.5	629809.2	-0.00018592678
0	0.63787	0.63786876	-3.682667e-10	0.048648868	0.048648868	0	108027.375	108027.16	-6.5743945e-05	629893.56	263123.5	-0.00028604118	263124.44	629892.7	-0.0002145309
0	0.63774383	0.63774246	-1.6367409e-10	0.04850758	0.04850758	0	108005.99	108005.78	-3.8062284e-05	629977	262863.34	-0.00017162472	262864.3	629976.2	-0.00010011442
0	0.63761806	0.6376167	-2.5915062e-10	0.04836608	0.04836608	0	107984.69	107984.48	-4.49827e-05	630060.8	262603.44	-0.00011441648	262604.38	630059.94	-0.00025743706
0	0.6374914	0.6374901	-2.7279012e-10	0.04822459	0.04822459	0	107963.25	107963.02	-4.8442907e-05	630144.6	262342.38	-0.0002699514	262343.34	630143.7	-0.00012871853
0	0.6373636	0.63736236	-3.4098768e-10	0.04808329	0.04808329	0	107941.6	107941.39	-5.1903113e-05	630228.9	262079.23	-0.00020022884	262080.23	630228	-0.00020022884
0	0.6372369	0.63723564	-4.3646423e-10	0.047941796	0.047941796	0	107920.16	107919.94	-7.266436e-05	630312.75	261818	-0.00034324944	261818.94	630311.9	-0.0003146453
0	0.63710874	0.6371075	-1.09116056e-10	0.047800433	0.047800433	0	107898.44	107898.22	-1.0380623e-05	630397	261554.3	-0.0001090532	261555.27	630396.1	-1.430206e-05
0	0.6369811	0.63697976	-3.819062e-10	0.047658954	0.047658954	0	107876.836	107876.6	-6.920415e-05	630481	261291.53	-0.00027173912	261292.52	630480.2	-0.0003146453
0	0.6368534	0.6368521	-1.09116056e-10	0.047517646	0.047517646	0	107855.2	107854.98	-2.0761247e-05	630564.7	261029.2	-0.00011441648	261030.17	630563.8	-8.9387875e-05
0	0.63672394	0.6367227	-3.819062e-10	0.047376156	0.047376156	0	107833.28	107833.06	-6.5743945e-05	630649.3	260763.22	-0.00014302059	260764.2	630648.5	-0.00037185356
0	0.63659626	0.63659495	-5.4558025e-10	0.04723467	0.04723467	0	107811.65	107811.42	-7.612457e-05	630732.7	260500.94	-0.0003575515	260501.94	630731.94	-0.00034324944
0	0.6364664	0.636465	-1.6367409e-10	0.04709336	0.04709336	0	107789.65	107789.44	-2.768166e-05	630817.44	260234.42	-0.00017162472	260235.42	630816.7	-7.1510294e-05
0	0.6363376	0.63633627	-3.819062e-10	0.046951808	0.046951808	0	107767.84	107767.62	-6.5743945e-05	630901.25	259970.34	-0.00034324944	259971.38	630900.3	-0.00011441648
0	0.6362071	0.6362058	-1.09116056e-10	0.04681051	0.04681051	0	107745.75	107745.516	-6.920415e-06	630985.4	259703.53	-0.00017162472	259704.53	630984.5	8.581236e-05
0	0.6360778	0.6360765	-8.1837044e-11	0.046669018	0.046669018	0	107723.85	107723.63	-1.7301038e-05	631069.5	259438.48	-2.860412e-05	259439.48	631068.6	-8.7600114e-05
0	0.6359471	0.63594574	-3.2734818e-10	0.04652772	0.04652772	0	107701.71	107701.48	-4.49827e-05	631154.25	259170.7	-0.00028604118	259171.67	631153.3	-8.581236e-05
0	0.63581663	0.6358153	-1.6367409e-10	0.046386234	0.046386234	0	107679.63	107679.41	-3.114187e-05	631238.1	258904.31	-5.720824e-05	258905.31	631237.3	-0.00025743706
0	0.63568497	0.6356836	8.1837044e-11	0.04624474	0.04624474	0	107657.31	107657.08	1.7301038e-05	631322.9	258634.98	-5.720824e-05	258635.98	631322.06	0.00012156751
0	0.6355539	0.63555247	-2.1823211e-10	0.046103436	0.046103436	0	107635.11	107634.88	-5.1903113e-05	631407.44	258367	-0.00026816363	258368.03	631406.56	-0.00012871853
0	0.635423	0.63542163	-3.819062e-10	0.045961883	0.045961883	0	107612.95	107612.73	-6.5743945e-05	631491	258100.14	-0.00030034324	258101.14	631490.1	-0.00025743706
0	0.6352901	0.6352888	-5.1830124e-10	0.045820575	0.045820575	0	107590.44	107590.22	-8.99654e-05	631575.8	257829.25	-0.0003146453	257830.28	631574.9	-0.00032894738
0	0.63515824	0.6351569	-1.3639506e-10	0.0456791	0.045679096	0	107568.12	107567.89	-1.384083e-05	631660.3	257560.25	-0.00025743706	257561.25	631659.4	5.720824e-05
0	0.635026	0.6350245	-4.910222e-10	0.045537613	0.045537613	0	107545.71	107545.47	-8.99654e-05	631744.7	257290.61	-0.0003146453	257291.6	631743.8	-0.00038615562
0	0.6348928	0.63489145	-1.09116056e-10	0.0453963	0.0453963	0	107523.164	107522.94	-1.384083e-05	631829.3	257019.55	-0.00011441648	257020.61	631828.44	2.5028605e-05
0	0.63475996	0.6347586	-2.1823211e-10	0.04525482	0.04525482	0	107500.66	107500.43	-4.8442907e-05	631913.56	256749.25	-0.0002395595	256750.31	631912.75	-0.00011441648
0	0.6346265	0.63462514	-3.2734818e-10	0.045113444	0.045113444	0	107478.06	107477.83	-6.5743945e-05	631997.75	256478.31	-0.00028604118	256479.34	631996.9	-0.00022883296