# t (s)	mx ()	my ()	mz ()	B_extx (T)	B_exty (T)	B_extz (T)	m_fullx (A/m)	m_fully (A/m)	m_fullz (A/m)	m_full.region1x (A/m)	m_full.region1y (A/m)	m_full.region1z (A/m)	m_full.region2x (A/m)	m_full.region2y (A/m)	m_full.region2z (A/m)
0	0.689664	0.68965054	-7.549497e-10	0.07071084	0.07071084	0	50183.234	50182.254	-5.529246e-05	552748	412771	-0.00056266016	412781.62	552739.7	-0.00051388016
0	0.6895729	0.6895712	-4.467493e-10	0.070357256	0.070357256	0	50176.594	50176.49	-3.124396e-05	552941.94	412459.1	-0.00030375633	412460.03	552940.6	-0.00026512874
0	0.6894815	0.6894808	-6.0314254e-10	0.07000352	0.07000352	0	50169.957	50169.9	-4.5056306e-05	553156.1	412117.66	-0.0004176064	412117.94	553155.4	-0.00041134472
0	0.68939	0.68938935	-5.415623e-11	0.069649935	0.069649935	0	50163.293	50163.25	-4.418629e-06	553370.75	411775	2.7208587e-06	411775.2	553370	-5.1797855e-05
0	0.6892977	0.68929684	-3.1423536e-10	0.069296554	0.069296554	0	50156.58	50156.523	-2.6184942e-05	553587.7	411428.75	-0.0002772138	411428.97	553586.9	-0.00018465683
0	0.6892042	0.6892035	-4.4847942e-10	0.068943	0.068943	0	50149.785	50149.723	-3.4375902e-05	553806.1	411079.53	-0.000335069	411079.8	553805.3	-0.00025322184
0	0.6891102	0.6891095	-5.0576376e-10	0.06858927	0.06858927	0	50142.938	50142.883	-3.6870028e-05	554024.8	410729.28	-0.00036353865	410729.56	554024	-0.00030150564
0	0.689015	0.68901426	-5.4517658e-11	0.068235695	0.068235695	0	50136.004	50135.957	-2.955521e-06	554246	410374.7	-7.2931995e-05	410374.97	554245.25	4.2099047e-05
0	0.6889189	0.6889182	-5.8873206e-10	0.06788229	0.06788229	0	50129.01	50128.96	-4.2960357e-05	554468.3	410017.84	-0.00043107293	410018.1	554467.5	-0.0003545584
0	0.68882173	0.6888209	-3.5900471e-10	0.06752872	0.06752872	0	50121.945	50121.883	-2.5994786e-05	554692.7	409657.28	-0.0003378898	409657.62	554691.94	-0.00013410214
0	0.68872404	0.68872315	-7.086565e-10	0.06717499	0.06717499	0	50114.832	50114.777	-5.1305185e-05	554916.9	409296.44	-0.0006002183	409296.7	554916	-0.00036507827
0	0.6886252	0.6886244	-3.6971604e-10	0.06682175	0.06682175	0	50107.645	50107.582	-2.7113858e-05	555143.1	408931.88	-0.00023128155	408932.2	555142.3	-0.00027870593
0	0.68852496	0.688524	-7.0572725e-10	0.066468164	0.066468164	0	50100.344	50100.285	-5.312509e-05	555372.5	408561.94	-0.0004852252	408562.28	555371.7	-0.000464066
0	0.6884225	0.68842155	-6.4098e-10	0.06611443	0.06611443	0	50092.895	50092.83	-4.6926136e-05	555606.9	408184.2	-0.0005020285	408184.53	555605.94	-0.0003583303
0	0.6883223	0.6883214	-5.3994537e-10	0.06576088	0.06576088	0	50085.605	50085.54	-4.1637384e-05	555832.44	407818.4	-0.00043167203	407818.78	555831.56	-0.00030731966
0	0.6882194	0.6882185	-3.6027706e-10	0.06540745	0.06540745	0	50078.117	50078.05	-2.6532056e-05	556064.94	407441.9	-0.0003030355	407442.28	556063.94	-0.0001997237
0	0.6881157	0.68811476	-6.0397587e-10	0.06505392	0.06505392	0	50070.57	50070.5	-4.268988e-05	556298.2	407063.38	-0.0003827579	407063.75	556297.3	-0.0004006344
0	0.6880103	0.68800926	-5.378782e-10	0.06470019	0.06470019	0	50062.9	50062.83	-3.9476323e-05	556535	406678.84	-0.00043850104	406679.3	556534.2	-0.00034797765
0	0.6879047	0.68790376	-1.4404573e-10	0.06434662	0.06434662	0	50055.223	50055.156	-7.0958295e-06	556770.3	406295.88	-4.885799e-05	406296.3	556769.44	-6.660788e-05
0	0.6877974	0.68779635	-2.4460395e-10	0.0639932	0.0639932	0	50047.41	50047.34	-1.635419e-05	557009.8	405906.06	-0.00017092352	405906.5	557008.9	-0.00015367258
0	0.68768966	0.6876887	-4.0138337e-10	0.06363963	0.06363963	0	50039.57	50039.5	-2.964464e-05	557248.4	405516.72	-0.00030765933	405517.16	557247.56	-0.0002247888
0	0.6875802	0.68757933	-4.8382043e-10	0.06328591	0.06328591	0	50031.617	50031.54	-3.3756573e-05	557490.4	405121.62	-0.00040284556	405122.06	557489.44	-0.00025322224
0	0.68747	0.687469	-3.926469e-10	0.06293263	0.06293263	0	50023.59	50023.51	-2.6940657e-05	557733.25	404724.34	-0.00026322127	404724.78	557732.3	-0.0002306076
0	0.6873584	0.68735737	-5.196173e-10	0.06257908	0.06257908	0	50015.46	50015.39	-3.589847e-05	557978.56	404322.6	-0.0003761156	404323.1	557977.6	-0.0003229858
0	0.6872457	0.6872447	-2.2478285e-10	0.062225346	0.062225346	0	50007.273	50007.188	-1.445957e-05	558224.7	403918.88	-0.00020506865	403919.38	558223.7	-8.715548e-05
0	0.6871319	0.6871308	-5.518863e-10	0.061871804	0.061871804	0	49998.984	49998.906	-4.2993346e-05	558472.94	403511.2	-0.00041816966	403511.7	558471.94	-0.00039820303
0	0.6870169	0.6870159	-8.818411e-10	0.061518345	0.061518345	0	49990.617	49990.543	-6.20439e-05	558720.56	403102.56	-0.0006034178	403103.1	558719.6	-0.00054650096
0	0.6869015	0.6869004	-5.2755295e-10	0.061164834	0.061164834	0	49982.223	49982.145	-3.802855e-05	558971.4	402690.22	-0.00039005926	402690.78	558970.3	-0.00028922563
0	0.6867846	0.6867835	-2.8591018e-10	0.06081111	0.06081111	0	49973.715	49973.633	-2.0962803e-05	559222.8	402275.12	-0.0002021254	402275.62	559221.8	-0.00010235404
0	0.6866657	0.68666464	-3.4114778e-10	0.060457565	0.060457565	0	49965.07	49964.984	-2.524674e-05	559478	401853.5	-0.00027492802	401854.06	559476.94	-0.00022774718
0	0.6865464	0.6865452	-4.2991388e-10	0.060104106	0.060104106	0	49956.38	49956.29	-3.0779913e-05	559732.94	401431.4	-0.00030621825	401431.97	559731.9	-0.00029910353
0	0.68642515	0.6864239	-1.6209323e-10	0.059750546	0.059750546	0	49947.562	49947.473	-1.3242869e-05	559991.2	401003.44	-0.00017036188	401003.97	559990.06	-4.2187647e-05
0	0.6863034	0.68630207	-4.9587523e-10	0.059396833	0.059396833	0	49938.695	49938.605	-3.626359e-05	560249.2	400574.8	-0.0003440228	400575.4	560248.06	-0.00030727914
0	0.68618	0.6861788	-3.9849207e-11	0.05904353	0.05904353	0	49929.723	49929.64	-4.4502885e-06	560509.25	400142.28	-8.5784e-05	400142.9	560508.1	5.307332e-05
0	0.686055	0.6860537	-8.495593e-10	0.05868998	0.05868998	0	49920.62	49920.535	-6.12751e-05	560772.56	399703.75	-0.00060344604	399704.4	560771.4	-0.0005669698
0	0.68592924	0.6859279	-2.9160663e-10	0.05833626	0.05833626	0	49911.473	49911.383	-2.2144659e-05	561035.6	399264.72	-0.00016044428	399265.3	561034.5	-0.00020576103
0	0.6858016	0.6858003	-9.525825e-10	0.057982735	0.057982735	0	49902.188	49902.09	-6.8411915e-05	561302.06	398819.53	-0.00062907586	398820.2	561300.9	-0.0006727459
0	0.6856733	0.6856719	-4.7164755e-10	0.057629243	0.057629243	0	49892.85	49892.746	-3.408361e-05	561568.44	398373.4	-0.00040462802	398374.1	561567.25	-0.00022633569
0	0.6855431	0.6855417	-5.221143e-10	0.057275705	0.057275705	0	49883.38	49883.277	-3.819589e-05	561837.9	397921.75	-0.00038875375	397922.44	561836.6	-0.00034743766
0	0.6854117	0.6854103	-4.267228e-10	0.056922026	0.056922026	0	49873.816	49873.723	-3.1048214e-05	562108.3	397467.38	-0.0002463705	397468.12	562107.1	-0.00034902917
0	0.6852791	0.68527764	-4.947162e-10	0.0565685	0.0565685	0	49864.168	49864.062	-3.6276633e-05	562380.25	397009.66	-0.00036896256	397010.34	562379.06	-0.00029689854
0	0.68514526	0.6851438	-2.820966e-10	0.056214996	0.056214996	0	49854.42	49854.32	-2.078266e-05	562653.25	396549.34	-0.00021880276	396550.1	562652	-0.00017327665
0	0.6850089	0.6850074	-1.0250499e-10	0.05586147	0.05586147	0	49844.504	49844.4	-8.058734e-06	562931.25	396080.47	-0.00012642576	396081.2	562929.94	-1.3458953e-06
0	0.68487245	0.684871	-7.1214534e-10	0.05550775	0.05550775	0	49834.582	49834.473	-5.2653646e-05	563207	395613.7	-0.0005659423	395614.53	563205.6	-0.00041196865
0	0.68473387	0.6847323	-3.4249292e-10	0.05515442	0.05515442	0	49824.496	49824.383	-2.7106365e-05	563486.6	395140	-0.00030430514	395140.8	563485.3	-0.00017589089
0	0.68459356	0.68459195	-7.237003e-10	0.054800887	0.054800887	0	49814.277	49814.17	-5.3857028e-05	563768.7	394661.34	-0.00052255084	394662.25	563767.4	-0.00044734293
0	0.684452	0.6844505	-6.360639e-10	0.054447178	0.054447178	0	49803.984	49803.88	-4.4427987e-05	564051.3	394180.75	-0.0004780439	394181.6	564050	-0.00037781012
0	0.68430895	0.68430734	-7.51723e-10	0.054093674	0.054093674	0	49793.58	49793.457	-5.4450065e-05	564336.3	393695.28	-0.000509816	393696.2	564334.94	-0.00045210295
0	0.6841644	0.6841628	-8.4299373e-10	0.053740136	0.053740136	0	49783.062	49782.938	-6.0197886e-05	564622.56	393206.66	-0.0005617391	393207.56	564621.25	-0.00055419945
0	0.68401843	0.68401676	-5.3267835e-10	0.05338661	0.05338661	0	49772.434	49772.312	-3.8413174e-05	564910.7	392714.16	-0.0003871448	392715.06	564909.25	-0.00033106972
0	0.68387103	0.68386936	1.45293205e-11	0.053032953	0.053032953	0	49761.707	49761.58	9.539848e-07	565199.8	392218.62	-1.1809833e-05	392219.56	565198.4	4.4402597e-05
0	0.6837211	0.68371946	-5.485421e-10	0.052679442	0.052679442	0	49750.8	49750.68	-4.0101146e-05	565493.2	391715.38	-0.00040901042	391716.34	565491.75	-0.00032900868
0	0.6835679	0.6835662	-7.5138235e-10	0.05232588	0.05232588	0	49739.656	49739.527	-5.931585e-05	565792.5	391201.56	-0.00060879474	391202.56	565791.1	-0.00051056116
0	0.6834153	0.6834136	-7.120197e-10	0.051972385	0.051972385	0	49728.55	49728.42	-5.2139803e-05	566088.06	390692.4	-0.00050399377	390693.38	566086.6	-0.0004512052
0	0.68326324	0.6832615	-5.2926435e-10	0.051618677	0.051618677	0	49717.49	49717.355	-3.8819668e-05	566379.94	390187.66	-0.00043729597	390188.66	566378.44	-0.0002660859
0	0.6831076	0.6831058	-2.0494174e-10	0.0512653	0.0512653	0	49706.168	49706.035	-1.6148697e-05	566678.4	389671.22	-0.00014479391	389672.28	566676.9	-9.2599534e-05
0	0.6829497	0.6829479	-3.1912836e-10	0.0509118	0.0509118	0	49694.67	49694.535	-2.4243325e-05	566980.25	389148.3	-0.00026429168	389149.4	566978.7	-0.00012741545
0	0.6827901	0.6827881	-3.22051e-10	0.050558094	0.050558094	0	49683.055	49682.918	-2.4417255e-05	567283.8	388621.1	-0.00020400244	388622.22	567282.3	-0.00025969866
0	0.6826295	0.68262756	-5.303776e-10	0.050204616	0.050204616	0	49671.367	49671.227	-3.5320398e-05	567587.4	388092.78	-0.0003494604	388093.88	567585.75	-0.0003335033
0	0.68246573	0.6824639	-4.55156e-10	0.049851015	0.049851015	0	49659.457	49659.316	-3.1231742e-05	567896	387554.97	-0.00035804498	387556.16	567894.4	-0.00023988752
0	0.6823011	0.6822992	-5.1145815e-10	0.049497526	0.049497526	0	49647.477	49647.332	-3.9141298e-05	568204.5	387015.88	-0.00044758245	387017.06	568202.9	-0.0002850023
0	0.6821347	0.68213266	-7.5366685e-10	0.049143877	0.049143877	0	49635.367	49635.223	-5.694078e-05	568514.9	386472.62	-0.0005255418	386473.78	568513.1	-0.0004932438
0	0.6819658	0.6819638	-2.1143619e-10	0.048790395	0.048790395	0	49623.082	49622.934	-1.4160098e-05	568828.4	385922.7	-8.9462475e-05	385923.9	568826.7	-0.00016655723
0	0.6817959	0.6817938	-2.3583027e-10	0.048436776	0.048436776	0	49610.71	49610.555	-1.6879083e-05	569142.3	385370.66	-0.00018080093	385371.94	569140.56	-0.0001457747
0	0.6816239	0.68162173	-2.4531896e-10	0.04808329	0.04808329	0	49598.195	49598.04	-1.803472e-05	569458.2	384813.9	-0.00013242161	384815.2	569456.5	-0.00018099706
0	0.6814494	0.6814473	-4.7444354e-10	0.047729604	0.047729604	0	49585.504	49585.344	-3.3063177e-05	569777.2	384250.84	-0.00035537875	384252.12	569775.4	-0.00023887605
0	0.6812731	0.681271	-5.220164e-10	0.04737619	0.04737619	0	49572.68	49572.516	-3.8066144e-05	570098.2	383682.9	-0.00035032124	383684.28	570096.4	-0.00035725866
0	0.6810949	0.6810926	-3.1132882e-10	0.047022708	0.047022708	0	49559.707	49559.543	-2.3542805e-05	570420.94	383110.56	-0.00026842288	383111.94	570419.1	-0.00015275006
0	0.6809145	0.6809123	-7.999991e-10	0.04666901	0.04666901	0	49546.59	49546.418	-5.717072e-05	570745.8	382533.22	-0.00059461506	382534.6	570744.06	-0.00047785803
0	0.6807325	0.68073016	-1.9378132e-10	0.04631556	0.04631556	0	49533.332	49533.168	-1.6527763e-05	571072.2	381951.84	-0.00016267912	381953.25	571070.4	-0.00016313774
0	0.6805481	0.6805457	-6.896088e-10	0.045961894	0.045961894	0	49519.918	49519.746	-5.0626906e-05	571401	381364.8	-0.00052036403	381366.3	571399.2	-0.00042765425
0	0.680362	0.68035966	-1.8894175e-10	0.04560843	0.04560843	0	49506.37	49506.2	-1.422618e-05	571730.9	380774.47	-0.0001663609	380775.94	571729	-0.0001353076
0	0.6801726	0.6801702	-7.958191e-10	0.045254797	0.045254797	0	49492.6	49492.42	-6.005663e-05	572065.4	380174.75	-0.00057580305	380176.25	572063.56	-0.0005216719
0	0.6799823	0.67997986	-4.151302e-10	0.044901337	0.044901337	0	49478.746	49478.566	-2.9292063e-05	572399.25	379574.4	-0.00030056125	379575.9	572397.4	-0.00024038756
0	0.67979	0.6797876	-5.1587773e-10	0.044547655	0.044547655	0	49464.75	49464.58	-3.7574428e-05	572734.94	378969.53	-0.00033888014	378971.1	572733	-0.00033148585
0	0.6795948	0.6795923	-2.9778224e-10	0.044194218	0.044194218	0	49450.55	49450.367	-2.0125432e-05	573074.2	378357.03	-0.00021556015	378358.62	573072.2	-0.0001387186
0	0.679397	0.6793944	-5.0737065e-10	0.04384053	0.04384053	0	49436.156	49435.965	-3.8608116e-05	573416.44	377737.75	-0.00032805908	377739.38	573414.4	-0.000404768
0	0.6791948	0.6791923	-6.329563e-10	0.04348707	0.04348707	0	49421.45	49421.254	-4.7038608e-05	573764.75	377106.44	-0.00044061555	377108.1	573762.7	-0.0004124239
0	0.6789956	0.67899287	-8.280614e-10	0.043133613	0.043133613	0	49406.95	49406.75	-6.046429e-05	574104.2	376487.84	-0.0005842329	376489.6	574102.25	-0.00052825554
0	0.6787921	0.6787894	-6.554128e-10	0.042779926	0.042779926	0	49392.14	49391.945	-4.9186732e-05	574449.6	375857.6	-0.00037830303	375859.3	574447.56	-0.00055233703
0	0.67858535	0.6785825	-6.7460176e-10	0.04242647	0.04242647	0	49377.094	49376.895	-5.2899886e-05	574799.56	375218.06	-0.00054595916	375219.84	574797.5	-0.00040916816
0	0.67837334	0.6783705	-4.9465126e-11	0.042072803	0.042072803	0	49361.668	49361.465	-3.988058e-06	575157.6	374563.16	-8.327617e-05	374564.97	575155.44	3.4193803e-05
0	0.67816556	0.67816275	-6.025942e-11	0.041719336	0.041719336	0	49346.555	49346.344	-1.8691592e-06	575503.2	373926.8	-9.513118e-05	373928.66	575501.06	3.7935108e-05
0	0.6779512	0.6779483	-4.163923e-10	0.041365724	0.041365724	0	49330.957	49330.746	-3.0407547e-05	575859.94	373269.88	-0.00033782827	373271.78	575857.75	-0.00019779008
0	0.6777352	0.6777323	-8.049817e-10	0.041012254	0.041012254	0	49315.234	49315.023	-5.723757e-05	576216.75	372610.53	-0.0005038786	372612.47	576214.6	-0.00055449066
0	0.67751634	0.6775133	-6.8652695e-10	0.040658575	0.040658575	0	49299.312	49299.1	-4.9187503e-05	576577	371943.88	-0.00058915274	371945.8	576574.9	-0.00030988004
0	0.67729545	0.67729235	-2.7191898e-11	0.040305134	0.040305134	0	49283.234	49283.01	-1.2612436e-06	576938.2	371273.4	-0.00014457753	371275.44	576935.94	0.00016414587
0	0.67707133	0.67706823	-4.0788437e-10	0.039951455	0.039951455	0	49266.93	49266.707	-2.9236824e-05	577302.56	370595.22	-0.00027996016	370597.25	577300.3	-0.00023047182
0	0.6768444	0.6768414	-1.6885045e-10	0.039597984	0.039597984	0	49250.42	49250.195	-1.157262e-05	577669.4	369910.78	-0.00016743554	369912.8	577667.1	-5.9862377e-05
0	0.6766148	0.6766116	-1.1641208e-09	0.03924452	0.03924452	0	49233.707	49233.477	-8.689902e-05	578037.5	369221.06	-0.00077524723	369223.2	578035.2	-0.0008510021
0	0.67638046	0.6763772	-2.6867877e-10	0.038890842	0.038890842	0	49216.66	49216.42	-1.7833689e-05	578414.25	368516.16	-0.00023741294	368518.3	578411.9	-4.090347e-05
0	0.67614573	0.6761424	-6.813277e-10	0.03853737	0.03853737	0	49199.582	49199.34	-4.997902e-05	578787.06	367814.8	-0.00043269736	367816.97	578784.7	-0.00046257992
0	0.6759118	0.67590845	-5.0509663e-10	0.03818372	0.03818372	0	49182.562	49182.316	-3.7266716e-05	579154.94	367119.34	-0.00035843943	367121.6	579152.6	-0.00038875677
0	0.67567194	0.6756686	-6.6266337e-10	0.03783025	0.03783025	0	49165.1	49164.855	-5.069087e-05	579531.56	366406.84	-0.00050527556	366409.12	579529.1	-0.00039766118
0	0.6754255	0.6754221	-2.8723207e-10	0.03747658	0.03747658	0	49147.17	49146.92	-2.060048e-05	579917.6	365675.8	-0.00026999836	365678.12	579915.1	-8.938987e-05
0	0.6751797	0.67517626	-6.208511e-10	0.03712317	0.03712317	0	49129.29	49129.035	-4.6729347e-05	580298.75	364950.47	-0.00053362217	364952.88	580296.25	-0.00036209042
0	0.67493105	0.67492753	-3.5634667e-10	0.036769506	0.036769506	0	49111.195	49110.938	-2.4802124e-05	580682.1	364218.94	-0.00027895035	364221.34	580679.6	-0.00017975408
0	0.67467946	0.6746758	-7.3647494e-10	0.03641604	0.03641604	0	49092.883	49092.62	-5.4010925e-05	581067.75	363481	-0.00052719377	363483.44	581065.2	-0.0004976603
0	0.6744248	0.67442113	-4.681268e-10	0.036062375	0.036062375	0	49074.355	49074.094	-3.153305e-05	581455.6	362736.6	-0.00034465373	362739.12	581453.06	-0.0002459992
0	0.67417145	0.67416775	-4.1118484e-10	0.0357089	0.0357089	0	49055.918	49055.656	-2.9335306e-05	581837.6	361999.78	-0.0003413288	362002.34	581835	-0.0001876616
0	0.67391014	0.6739064	-4.875366e-10	0.03535542	0.03535542	0	49036.91	49036.633	-3.700607e-05	582231.1	361240.53	-0.00031958026	361243.12	582228.44	-0.00036692093
0	0.67364305	0.6736393	-4.860767e-10	0.03500176	0.03500176	0	49017.477	49017.195	-3.6071033e-05	582631.6	360466	-0.00045399458	360468.7	582628.94	-0.0002225615
0	0.67337626	0.6733724	-4.860657e-10	0.034648277	0.034648277	0	48998.066	48997.785	-3.3082542e-05	583028	359696.06	-0.00028097237	359698.78	583025.3	-0.00030445028
0	0.6731099	0.67310596	-7.930699e-10	0.034294635	0.034294635	0	48978.68	48978.395	-5.6226407e-05	583420.1	358931	-0.00058163365	358933.72	583417.4	-0.0004799628
0	0.67283344	0.67282957	-1.7878767e-10	0.033941146	0.033941146	0	48958.562	48958.277	-1.27019985e-05	583824.06	358140	-0.00019431324	358142.78	583821.3	-4.3457883e-05
0	0.67256117	0.6725571	-5.3451327e-10	0.033587497	0.033587497	0	48938.75	48938.457	-3.6724265e-05	584222.44	357360.28	-0.0004118587	357363.2	584219.7	-0.00028349014
0	0.6722769	0.67227286	-7.102305e-10	0.033234082	0.033234082	0	48918.066	48917.766	-5.288694e-05	584636	356548.8	-0.00051464536	356551.72	584633.2	-0.00048904336
0	0.6719986	0.67199445	-7.960699e-10	0.03288044	0.03288044	0	48897.816	48897.516	-6.0783957e-05	585035	355760.12	-0.00059589354	355763.06	585032.1	-0.0005319852
0	0.6717117	0.6717075	-7.569783e-10	0.03252696	0.03252696	0	48876.945	48876.633	-5.605937e-05	585445.6	354947.84	-0.0005529973	354950.9	585442.7	-0.00046242174
0	0.67142177	0.6714175	-1.6413854e-10	0.03217331	0.03217331	0	48855.844	48855.527	-9.850102e-06	585857.75	354129.66	-0.000175891	354132.78	585854.75	-1.7435716e-05
0	0.6711247	0.6711202	-3.9755932e-10	0.031819817	0.031819817	0	48834.227	48833.9	-2.966755e-05	586278.56	353292.72	-0.00029054336	353295.84	586275.6	-0.000276824
0	0.670832	0.67082757	-2.9101116e-10	0.031466316	0.031466316	0	48812.92	48812.6	-2.1721029e-05	586687.6	352473.9	-0.0002363424	352477.06	586684.7	-0.00014741017
0	0.6705317	0.6705271	-4.584719e-10	0.031112673	0.031112673	0	48791.07	48790.746	-3.6390044e-05	587106.2	351634.88	-0.0004574441	351638.12	587103.1	-0.00020009343
0	0.6702281	0.67022353	-7.379399e-10	0.030759173	0.030759173	0	48768.99	48768.66	-5.3699376e-05	587526.25	350789.9	-0.0005393711	350793.2	587523.1	-0.00044257936
0	0.6699163	0.6699116	-1.2006667e-09	0.030405555	0.030405555	0	48746.293	48745.957	-8.72779e-05	587956.56	349922.88	-0.0008906832	349926.28	587953.44	-0.00074715784
0	0.66960895	0.66960436	-2.7061378e-10	0.030052053	0.030052053	0	48723.934	48723.594	-2.2870508e-05	588374.9	349074.22	-0.00024165669	349077.66	588371.75	-0.00015169116
0	0.6692945	0.66928977	-4.482102e-10	0.029698417	0.029698417	0	48701.043	48700.7	-3.5176676e-05	588801.4	348207.34	-0.00044822812	348210.8	588798.3	-0.00020097442
0	0.66897154	0.6689667	-2.5419028e-10	0.02934499	0.02934499	0	48677.55	48677.195	-1.9247675e-05	589238.25	347318.28	-0.00022102089	347321.8	589235	-0.00012218578
0	0.6686532	0.6686482	-6.886188e-10	0.028991368	0.028991368	0	48654.383	48654.027	-5.1910556e-05	589662.75	346448.03	-0.00046817138	346451.66	589659.5	-0.00045068722
0	0.66832286	0.668318	-2.8157557e-10	0.028637853	0.028637853	0	48630.355	48629.996	-2.1090815e-05	590103.06	345545.3	-0.0001759113	345549	590099.75	-0.00018965377
0	0.66799283	0.6679878	-6.820331e-10	0.02828425	0.02828425	0	48606.332	48605.965	-4.8719066e-05	590539	344647.28	-0.0005219957	344651	590535.6	-0.00041263795
0	0.66766393	0.6676588	-5.9814903e-10	0.027930735	0.027930735	0	48582.406	48582.035	-4.3022676e-05	590968.1	343757.56	-0.00042419613	343761.3	590964.8	-0.00038363173
0	0.6673251	0.66731983	-6.910673e-10	0.02757721	0.02757721	0	48557.74	48557.367	-5.07871e-05	591410	342841.12	-0.000528635	342844.97	591406.7	-0.00042773367
0	0.66697824	0.666973	-6.1300476e-10	0.027223589	0.027223589	0	48532.51	48532.12	-4.4665703e-05	591859.56	341905.97	-0.00051859196	341909.9	591856.2	-0.00028176437
0	0.6666371	0.6666318	-5.071259e-10	0.026870068	0.026870068	0	48507.695	48507.3	-3.4859633e-05	592295.8	340992.22	-0.00040205376	340996.28	592292.3	-0.00019556077
0	0.66628176	0.6662763	-5.126774e-10	0.026516477	0.026516477	0	48481.83	48481.434	-3.44532e-05	592750.5	340039.8	-0.0004121595	340043.9	592747.06	-0.00023240765
0	0.66592723	0.66592175	-5.8883737e-10	0.02616294	0.02616294	0	48456.035	48455.633	-4.4047283e-05	593199.1	339094.78	-0.0005099555	339099	593195.56	-0.00032052616
0	0.6655736	0.665568	-7.9372225e-10	0.025809338	0.025809338	0	48430.293	48429.89	-5.612597e-05	593642.06	338156.66	-0.000554624	338160.88	593638.44	-0.0004930702
0	0.6652054	0.6651998	-2.4234578e-10	0.0254559	0.0254559	0	48403.516	48403.1	-1.8905663e-05	594102.8	337180.56	-0.0002692364	337184.88	594099.1	-6.968034e-05
0	0.66484326	0.6648375	-4.838286e-10	0.025102308	0.025102308	0	48377.156	48376.74	-3.6636233e-05	594549.9	336226.22	-0.00045007202	336230.6	594546.25	-0.00026281585
0	0.6644661	0.6644602	-4.0837508e-10	0.024748763	0.024748763	0	48349.71	48349.29	-3.0303147e-05	595015.4	335232.66	-0.0004170126	335237.06	595011.7	-0.00014534504
0	0.6640941	0.66408825	-1.1090918e-10	0.024395198	0.024395198	0	48322.645	48322.21	-9.7641e-06	595468.2	334259	-0.0002034453	334263.47	595464.44	-3.42611e-05
0	0.6637087	0.6637028	-6.9517025e-10	0.024041645	0.024041645	0	48294.6	48294.168	-4.956522e-05	595936.6	333250.97	-0.0005650591	333255.56	595932.8	-0.00036706627
0	0.6633235	0.66331744	-5.7196714e-10	0.023688095	0.023688095	0	48266.58	48266.133	-4.05121e-05	596399.94	332248.3	-0.00033677625	332252.97	596396.06	-0.0003899399
0	0.6629381	0.6629321	-1.2134543e-09	0.023334505	0.023334505	0	48238.535	48238.09	-9.02757e-05	596858.75	331249.94	-0.0009311765	331254.7	596854.9	-0.00070556684
0	0.66254157	0.66253537	-4.5736273e-10	0.022980947	0.022980947	0	48209.68	48209.215	-3.279091e-05	597327.2	330226.22	-0.00032510873	330230.97	597323.2	-0.00027481167
0	0.6621395	0.6621331	-5.0763677e-10	0.022627398	0.022627398	0	48180.418	48179.96	-3.5748348e-05	597803.4	329186.97	-0.00046334302	329191.84	597799.44	-0.00022480136
0	0.66173524	0.66172886	-4.3821324e-10	0.022273827	0.022273827	0	48151	48150.54	-3.2586944e-05	598275.3	328148.97	-0.0004013074	328154	598271.44	-0.00016395209
0	0.6613261	0.6613196	-1.0154636e-09	0.021920266	0.021920266	0	48121.234	48120.76	-7.4424956e-05	598749.7	327101.78	-0.00074087863	327106.84	598745.6	-0.0006254187
0	0.6609177	0.6609111	-3.3732575e-10	0.021566806	0.021566806	0	48091.51	48091.04	-2.2626275e-05	599217.9	326061.75	-0.00029789825	326066.9	599213.75	-0.00017967595
0	0.66049916	0.6604925	-4.2513557e-10	0.021213235	0.021213235	0	48061.062	48060.58	-3.2582975e-05	599695.5	324998.12	-0.00043563225	325003.34	599691.4	-0.00019419432
0	0.66006947	0.6600627	-5.469842e-10	0.020859668	0.020859668	0	48029.793	48029.3	-4.066571e-05	600184.06	323907.94	-0.00049320393	323913.25	600179.9	-0.00027386332
0	0.6596456	0.6596387	-4.8452947e-10	0.020506127	0.020506127	0	47998.95	47998.45	-3.4855453e-05	600659.06	322839.28	-0.00043093358	322844.7	600654.9	-0.00019061884
0	0.65920603	0.6591992	-6.2291167e-10	0.020152567	0.020152567	0	47966.965	47966.46	-4.554123e-05	601150.6	321732.3	-0.0005266366	321737.8	601146.44	-0.00024952987
0	0.65877247	0.6587654	-4.7968324e-10	0.019798992	0.019798992	0	47935.41	47934.9	-3.453626e-05	601629.3	320646.44	-0.00042321667	320652.1	601625	-0.0002097978
0	0.65832263	0.65831554	-6.413161e-10	0.019445421	0.019445421	0	47902.684	47902.168	-4.6327714e-05	602124.8	319521.25	-0.0004230343	319526.9	602120.5	-0.00036530287
0	0.6578726	0.6578654	-7.51535e-11	0.01909186	0.01909186	0	47869.945	47869.418	-4.2415795e-06	602615.3	318400.62	-0.0001039505	318406.38	602610.94	2.862516e-06
0	0.65742266	0.65741533	-8.118406e-10	0.01873829	0.01873829	0	47837.2	47836.67	-5.706293e-05	603100.4	317285.53	-0.0006443509	317291.44	603096	-0.00040669873
0	0.6569624	0.656955	-7.121806e-10	0.018384753	0.018384753	0	47803.71	47803.168	-5.206374e-05	603594	316147.4	-0.0005119742	316153.34	603589.56	-0.00044636044
0	0.6564907	0.65648323	-4.037148e-10	0.018031187	0.018031187	0	47769.395	47768.844	-2.9659757e-05	604097.7	314983.38	-0.00034433097	314989.4	604093.2	-0.00016566437
0	0.65601903	0.65601134	-3.4244507e-10	0.01767771	0.01767771	0	47735.062	47734.504	-2.3833414e-05	604595.6	313824.84	-0.0003698562	313831	604591.06	-5.8390553e-05
0	0.65554166	0.6555339	-4.957532e-10	0.017324138	0.017324138	0	47700.33	47699.766	-3.7304864e-05	605095.8	312656.25	-0.0004798686	312662.47	605091.2	-0.00022382467
0	0.65505856	0.6550507	-5.186609e-10	0.016970573	0.016970573	0	47665.18	47664.605	-3.881266e-05	605597.7	311477.94	-0.0005436726	311484.28	605593.06	-0.00017634712
0	0.65456945	0.6545615	-8.462443e-10	0.016617041	0.016617041	0	47629.59	47629.01	-6.151918e-05	606101.9	310288.9	-0.00074881106	310295.34	606097.2	-0.00036902766
0	0.65407485	0.6540668	-6.5285855e-10	0.01626348	0.01626348	0	47593.594	47593.01	-5.106172e-05	606607.56	309090.7	-0.00054799	309097.22	606602.9	-0.00036049561
0	0.6535796	0.6535715	-5.152167e-10	0.015909908	0.015909908	0	47557.555	47556.965	-3.849423e-05	607108.3	307896.5	-0.00039983747	307903.12	607103.6	-0.00029766798
0	0.6530678	0.65305954	-6.621455e-10	0.015556336	0.015556336	0	47520.32	47519.723	-4.896182e-05	607624.6	306663.56	-0.00057331653	306670.34	607619.75	-0.00036666862
0	0.65256065	0.6525523	-3.8850378e-10	0.015202777	0.015202777	0	47483.43	47482.812	-3.0417e-05	608129	305449.16	-0.00036830147	305456	608124.1	-0.00013329509
0	0.6520415	0.65203303	-2.1693614e-10	0.014849208	0.014849208	0	47445.645	47445.023	-1.8260087e-05	608643.06	304208.12	-9.761338e-05	304215.06	608638.1	-0.00022956394
0	0.651517	0.65150845	-1.3891492e-10	0.014495684	0.014495684	0	47407.477	47406.85	-1.0501909e-05	609157.6	302959.1	-0.00030759908	302966.16	609152.7	0.0001214585
0	0.6509795	0.6509709	-1.0246136e-09	0.014142125	0.014142125	0	47368.367	47367.74	-7.4644406e-05	609682.4	301681.88	-0.0007411241	301689.06	609677.4	-0.0006477829
0	0.6504485	0.6504397	-8.186873e-10	0.013788605	0.013788605	0	47329.734	47329.09	-5.77631e-05	610193.1	300427.5	-0.00071926194	300434.75	610188.2	-0.00041968495
0	0.6499035	0.6498946	-6.693698e-10	0.013435034	0.013435034	0	47290.07	47289.418	-5.1154766e-05	610715.1	299142.38	-0.0005365395	299149.78	610710.06	-0.00039891942
0	0.6493474	0.6493384	-3.7999268e-10	0.01308147	0.01308147	0	47249.605	47248.945	-2.6653495e-05	611244.44	297834.5	-0.0002573645	297842	611239.25	-0.00026430585
0	0.6487952	0.648786	-6.5563266e-10	0.01272795	0.01272795	0	47209.43	47208.76	-4.7890473e-05	611762.75	296542.9	-0.0005367675	296550.53	611757.56	-0.00033081172
0	0.64823186	0.64822257	-3.3855604e-10	0.012374382	0.012374382	0	47168.434	47167.754	-2.3989633e-05	612288.4	295228.47	-0.00032141968	295236.22	612283.2	-0.0001062268
0	0.64766073	0.6476514	-5.9532074e-10	0.012020823	0.012020823	0	47126.88	47126.188	-4.0237577e-05	612817.06	293900.12	-0.00052473455	293908	612811.75	-0.00024846024
0	0.6470775	0.64706796	-5.288584e-10	0.0116672525	0.0116672525	0	47084.434	47083.746	-3.5767396e-05	613353.7	292546.8	-0.0004841427	292554.78	613348.4	-0.00022992391
0	0.6464932	0.64648354	-5.5354143e-10	0.011313699	0.011313699	0	47041.92	47041.223	-4.2123724e-05	613885.06	291197.28	-0.0005094102	291205.4	613879.75	-0.0002698286
0	0.6459073	0.6458976	-6.290412e-10	0.010960133	0.010960133	0	46999.29	46998.58	-4.65643e-05	614412	289850	-0.0005919027	289858.25	614406.6	-0.0002912108
0	0.64530885	0.645299	5.8463423e-10	0.010606618	0.010606618	0	46955.746	46955.027	4.4981338e-05	614946.9	288477.25	0.0003351096	288485.62	614941.3	0.00053019414
0	0.644697	0.644687	-2.5046532e-10	0.010253063	0.010253063	0	46911.223	46910.496	-1.7995355e-05	615491	287076.3	-0.00026627202	287084.84	615485.44	-4.7436833e-06
0	0.6440901	0.64408	-2.8063366e-10	0.009899496	0.009899496	0	46867.055	46866.32	-2.1257996e-05	616022.7	285694.8	-0.00029331454	285703.44	616017.06	-8.218268e-05
0	0.6434637	0.64345336	-4.8535204e-10	0.00954593	0.00954593	0	46821.473	46820.723	-3.3409375e-05	616570.06	284270.3	-0.0004593045	284279.06	616564.4	-0.00019604935
0	0.6428406	0.64283013	-2.369418e-10	0.009192376	0.009192376	0	46776.14	46775.383	-1.5738193e-05	617106.6	282861.34	-0.0002876869	282870.22	617100.94	1.3405395e-05
0	0.64219993	0.6421894	-3.4170722e-10	0.008838855	0.008838855	0	46729.523	46728.754	-2.4968189e-05	617656.25	281414.6	-0.00029508138	281423.62	617650.5	-0.00018517647
0	0.64155614	0.6415455	-4.191677e-10	0.0084852865	0.0084852865	0	46682.68	46681.9	-2.9806462e-05	618202.5	279966.9	-0.0004157359	279976.1	618196.75	-0.000112929374
0	0.64091116	0.6409004	-3.3650735e-10	0.00813174	0.00813174	0	46635.75	46634.957	-1.9954083e-05	618743.3	278522.97	-0.0004131618	278532.3	618737.56	2.08122e-05
0	0.6402516	0.64024067	-4.1731016e-10	0.007778168	0.007778168	0	46587.75	46586.957	-2.930096e-05	619293.2	277049.56	-0.00034879512	277059.03	619287.3	-0.00019137037
0	0.63957965	0.6395685	-9.836612e-11	0.007424604	0.007424604	0	46538.86	46538.05	-6.351082e-06	619849.94	275552	-0.000154238	275561.6	619844	3.286533e-05
0	0.63890845	0.63889724	-4.396915e-10	0.0070710625	0.0070710625	0	46490.016	46489.195	-3.1577052e-05	620398.1	274063.94	-0.00033589007	274073.66	620392.2	-0.00027380447
0	0.63821965	0.63820827	-4.558649e-10	0.006717517	0.006717517	0	46439.91	46439.07	-3.5630972e-05	620958.3	272539.4	-0.00038797033	272549.3	620952.2	-0.00023699932