# t (s)	mx ()	my ()	mz ()	B_extx (T)	B_exty (T)	B_extz (T)	m_fullx (A/m)	m_fully (A/m)	m_fullz (A/m)	m_full.region1x (A/m)	m_full.region1y (A/m)	m_full.region1z (A/m)	m_full.region2x (A/m)	m_full.region2y (A/m)	m_full.region2z (A/m)
0	0.6336761	0.63367426	-1.4449611e-10	0.07071087	0.070710875	0	139325.81	139325.39	-4.0452112e-05	640658.3	246486.64	-0.00018181818	246488.36	640657.3	-5.965909e-05
0	0.6334254	0.6334219	-7.586046e-11	0.070357256	0.07035726	0	139270.69	139269.9	-1.4277216e-05	640814.5	245978	-6.060606e-05	245981.02	640812.56	-0.00010037879
0	0.63316834	0.6331645	-1.13790685e-10	0.07000352	0.07000352	0	139214.17	139213.34	-3.0933967e-05	640974	245458.44	0	245461.64	640971.9	-0.00019223485
0	0.63291144	0.6329077	-1.15596886e-10	0.06964991	0.069649905	0	139157.69	139156.84	-3.3313503e-05	641133.7	244939.08	-7.5757576e-05	244942.34	641131.6	-0.0001439394
0	0.63265294	0.63264906	-1.192093e-10	0.06929659	0.06929659	0	139100.84	139100	-2.1415824e-05	641293.06	244417.77	-6.060606e-05	244421.08	641291	-9.090909e-05
0	0.6323929	0.63238895	-2.1674416e-10	0.068943	0.068943	0	139043.67	139042.83	-4.0452112e-05	641452.7	243894.03	-9.090909e-05	243897.34	641450.6	-0.00017424242
0	0.63213235	0.63212836	-1.6255812e-10	0.06858926	0.06858926	0	138986.36	138985.52	-3.569304e-05	641611.94	243369.92	-7.5757576e-05	243373.23	641609.9	-0.00016666666
0	0.6318698	0.6318658	-7.586046e-11	0.06823566	0.06823566	0	138928.64	138927.8	-2.6174896e-05	641771.75	242842.55	-6.060606e-05	242845.88	641769.7	-4.5454544e-05
0	0.631605	0.6316011	-1.4449611e-10	0.06788233	0.06788232	0	138870.44	138869.58	-3.1528853e-05	641931.56	242312.16	1.5151515e-05	242315.5	641929.44	-0.00022774622
0	0.63134164	0.6313377	-1.5533332e-10	0.067528725	0.06752871	0	138812.52	138811.69	-4.5211185e-05	642091.06	241783.86	-0.00016666666	241787.2	642088.94	-8.333333e-05
0	0.63107556	0.63107175	-1.5172091e-10	0.067174986	0.067174986	0	138754.05	138753.2	-3.569304e-05	642250.75	241251.7	-0.00018181818	241255.06	642248.7	-3.7878788e-05
0	0.6308086	0.63080466	-2.1674416e-10	0.066821784	0.066821784	0	138695.33	138694.47	-4.283165e-05	642410.44	240718.3	-0.00013636364	240721.66	642408.2	-0.00016666666
0	0.6305397	0.6305357	-1.4810851e-10	0.06646817	0.06646817	0	138636.19	138635.33	-2.8554432e-05	642570.5	240181.7	-7.5757576e-05	240185.08	642568.3	-0.00016666666
0	0.6302707	0.63026667	-1.4449611e-10	0.06611443	0.06611443	0	138577.08	138576.19	-2.3795359e-05	642730	239645.6	-7.5757576e-05	239648.97	642727.9	-0.00010606061
0	0.62999964	0.6299957	-1.0837208e-10	0.065760836	0.065760836	0	138517.47	138516.61	-3.6287925e-05	642890	239106.17	-6.060606e-05	239109.6	642887.8	-0.00012689394
0	0.62972736	0.6297234	-1.6617052e-10	0.06540749	0.06540749	0	138457.61	138456.73	-3.8072576e-05	643049.7	238565.28	-7.5757576e-05	238568.73	643047.5	-0.00015151515
0	0.629454	0.62945	-2.2758137e-10	0.06505392	0.06505392	0	138397.52	138396.62	-4.1046995e-05	643209.75	238022.5	-0.00016287879	238025.94	643207.7	-0.0001439394
0	0.6291794	0.6291753	-1.300465e-10	0.06470018	0.064700186	0	138337.12	138336.23	-2.6174896e-05	643369.7	237478.03	-6.060606e-05	237481.48	643367.5	-0.00015151515
0	0.62890345	0.6288994	-8.669766e-11	0.06434658	0.06434658	0	138276.45	138275.56	-2.3795359e-05	643529.3	236931.97	0	236935.45	643527.2	-0.00012878788
0	0.62862617	0.6286221	-9.0310065e-11	0.06399323	0.06399323	0	138215.48	138214.61	-2.3795359e-05	643689.25	236383.95	-4.5454544e-05	236387.44	643687.06	-0.00012121212
0	0.6283479	0.6283438	-2.4383717e-10	0.06363963	0.06363964	0	138154.3	138153.39	-5.234979e-05	643849.25	235834.33	-0.00021212122	235837.84	643847	-0.00018892046
0	0.6280681	0.628064	-1.7520153e-10	0.0632859	0.0632859	0	138092.78	138091.89	-3.8072576e-05	644009.25	235282.52	-0.00015151515	235286.02	644007	-9.090909e-05
0	0.6277868	0.6277827	-1.9506975e-10	0.06293268	0.06293268	0	138030.94	138030.03	-4.5211185e-05	644169.4	234728.67	-3.030303e-05	234732.2	644167.2	-0.0001969697
0	0.62750417	0.6275	-2.0229456e-10	0.06257908	0.06257908	0	137968.78	137967.88	-4.0452112e-05	644329.44	234172.81	-0.00010606061	234176.42	644327.25	-0.00017660984
0	0.6272204	0.6272163	-1.264341e-10	0.062225346	0.062225346	0	137906.4	137905.5	-3.3313503e-05	644489	233616.03	-0.00012121212	233619.58	644486.9	-0.00010606061
0	0.6269352	0.62693113	-1.4449611e-10	0.06187177	0.06187177	0	137843.7	137842.8	-2.8554432e-05	644649.3	233056.4	-0.00013636364	233059.98	644647.1	-3.7878788e-05
0	0.6266484	0.62664425	-1.300465e-10	0.061518386	0.061518386	0	137780.66	137779.73	-2.7959548e-05	644809.4	232494.84	-4.5454544e-05	232498.44	644807.06	-0.0001439394
0	0.62636113	0.62635696	-1.372713e-10	0.061164837	0.061164837	0	137717.48	137716.58	-3.3313503e-05	644969.25	231932.77	-9.090909e-05	231936.39	644967	-0.00012121212
0	0.626072	0.6260679	-1.390775e-10	0.060811106	0.060811102	0	137653.9	137652.98	-1.8738845e-05	645129.2	231368.02	-7.5757576e-05	231371.66	645126.94	-9.848485e-05
0	0.6257817	0.62577754	-2.0229456e-10	0.06045752	0.06045752	0	137590.08	137589.14	-4.283165e-05	645289	230801.78	-0.00013636364	230805.39	645286.7	-0.000119791664
0	0.62548983	0.62548554	-1.4449611e-10	0.060104135	0.060104135	0	137525.9	137524.95	-3.8072576e-05	645448.94	230233.19	-9.848485e-05	230236.81	645446.7	-0.00012878788
0	0.6251966	0.6251923	-1.8965114e-10	0.059750553	0.059750553	0	137461.4	137460.48	-4.283165e-05	645608.8	229662.62	-0.00016666666	229666.3	645606.56	-0.000113636364
0	0.6249019	0.6248976	-1.0114728e-10	0.059396822	0.059396826	0	137396.62	137395.69	-2.8554432e-05	645768.8	229090.12	-4.5454544e-05	229093.81	645766.5	-0.00010227273
0	0.62460583	0.62460154	-1.9868215e-10	0.059043575	0.059043575	0	137331.53	137330.6	-3.8072576e-05	645928.56	228515.81	-0.00012121212	228519.5	645926.4	-0.00013636364
0	0.62430865	0.62430435	-2.926046e-10	0.058689997	0.058689997	0	137266.19	137265.25	-5.234979e-05	646088.25	227940.05	-0.0001969697	227943.75	646086.1	-0.00021212122
0	0.62400997	0.6240056	-8.669766e-11	0.05833626	0.05833626	0	137200.5	137199.56	-1.0707912e-05	646248.06	227362.03	-1.5151515e-05	227365.73	646245.8	-9.280303e-05
0	0.62370944	0.6237052	2.8899222e-11	0.057982698	0.057982698	0	137134.45	137133.52	4.759072e-06	646408	226781.56	-3.219697e-05	226785.3	646405.7	4.5454544e-05
0	0.62340814	0.6234037	-7.947286e-11	0.057629284	0.057629284	0	137068.2	137067.23	-1.9036288e-05	646567.56	226200.02	-0.00010606061	226203.77	646565.25	-1.5151515e-05
0	0.6231051	0.62310076	-7.2248055e-11	0.057275716	0.057275716	0	137001.56	137000.61	-1.8441404e-05	646727.4	225615.95	-3.030303e-05	225619.7	646725.06	-8.001894e-05
0	0.6228003	0.622796	-8.669766e-11	0.056922022	0.056922022	0	136934.56	136933.61	-1.4277216e-05	646887.06	225029.67	-6.060606e-05	225033.45	646884.7	-9.848485e-05
0	0.6224946	0.62249017	-5.7798443e-11	0.05656846	0.05656846	0	136867.33	136866.38	-9.518144e-06	647046.75	224441.86	0	224445.64	647044.44	-7.5757576e-05
0	0.62218744	0.622183	-1.9687595e-10	0.056215033	0.056215025	0	136799.81	136798.84	-2.8851873e-05	647206.06	223852.55	-0.00013636364	223856.34	647203.7	-9.090909e-05
0	0.6218782	0.6218738	-1.372713e-10	0.055861466	0.055861466	0	136731.83	136730.86	-2.6174896e-05	647365.94	223259.8	-9.090909e-05	223263.64	647363.6	-9.090909e-05
0	0.6215683	0.62156385	-1.0114728e-10	0.055507742	0.055507742	0	136663.67	136662.7	-2.0523497e-05	647525.1	222666.67	-3.030303e-05	222670.5	647522.7	-9.090909e-05
0	0.62125635	0.6212519	-1.6617052e-10	0.055154465	0.05515446	0	136595.08	136594.11	-4.283165e-05	647684.4	222070.67	-0.00013636364	222074.52	647682.06	-0.00012121212
0	0.62094337	0.6209389	-2.1674416e-10	0.054800905	0.054800905	0	136526.27	136525.3	-4.283165e-05	647843.75	221473.08	-9.090909e-05	221476.92	647841.4	-0.00015909091
0	0.6206283	0.6206239	-1.1830618e-10	0.054447185	0.054447185	0	136457	136456.02	-2.8554432e-05	648002.8	220872.92	-3.030303e-05	220876.81	648000.44	-0.00012878788
0	0.6203122	0.6203076	-1.426899e-10	0.054093633	0.054093633	0	136387.48	136386.5	-3.569304e-05	648162.3	220270.81	-0.00012121212	220274.7	648159.94	-0.00011742424
0	0.61999434	0.6199898	-1.5894572e-10	0.053740174	0.053740174	0	136317.6	136316.61	-2.8554432e-05	648321.56	219666.47	-9.090909e-05	219670.38	648319.4	-9.848485e-05
0	0.6196751	0.61967045	-8.669766e-11	0.053386625	0.05338663	0	136247.39	136246.42	-2.3795359e-05	648480.6	219060.48	-1.5151515e-05	219064.39	648478.3	-8.333333e-05
0	0.61935383	0.61934924	-2.835736e-10	0.053032942	0.053032942	0	136176.77	136175.78	-4.9970255e-05	648639.7	218451.6	-0.00018181818	218455.53	648637.4	-0.00021875
0	0.61903185	0.61902726	-1.300465e-10	0.0526794	0.052679393	0	136105.98	136104.98	-2.8554432e-05	648798.56	217842.02	-4.5454544e-05	217845.98	648796.2	-0.0001439394
0	0.61870784	0.6187033	-9.843797e-11	0.05232592	0.05232592	0	136034.77	136033.77	-2.6174896e-05	648957.44	217229.6	-6.060606e-05	217233.6	648955.06	-9.848485e-05
0	0.61838233	0.61837775	-5.7798443e-11	0.051972385	0.051972385	0	135963.19	135962.17	-2.0226056e-05	649116	216615.2	-7.5757576e-05	216619.2	649113.7	-6.060606e-05
0	0.6180554	0.61805075	-1.300465e-10	0.051618665	0.05161866	0	135891.3	135890.3	-2.1415824e-05	649274.94	215998.55	-7.5757576e-05	216002.56	649272.56	-9.090909e-05
0	0.61772686	0.6177223	-1.8694184e-10	0.051265355	0.051265355	0	135819.08	135818.06	-4.283165e-05	649433.5	215380.16	-9.090909e-05	215384.16	649431	-0.00014299243
0	0.6173968	0.6173921	-1.7068603e-10	0.05091181	0.05091181	0	135746.48	135745.47	-2.9149316e-05	649591.94	214759.44	-0.00015151515	214763.47	649589.5	-9.2329545e-05
0	0.6170645	0.61705977	-1.5894572e-10	0.050558098	0.050558098	0	135673.42	135672.39	-3.3313503e-05	649750.1	214136.11	-0.00013636364	214140.16	649747.6	-7.5757576e-05
0	0.61673206	0.6167274	-1.8784495e-10	0.050204575	0.050204575	0	135600.34	135599.31	-4.283165e-05	649908.4	213512.44	-0.0001155303	213516.52	649905.9	-9.848485e-05
0	0.6163968	0.6163921	-1.15596886e-10	0.04985106	0.049851064	0	135526.64	135525.6	-2.3795359e-05	650066.8	212884.72	-0.00013636364	212888.8	650064.3	-7.5757576e-05
0	0.6160601	0.6160553	-7.2248055e-11	0.049497537	0.049497537	0	135452.6	135451.55	-9.518144e-06	650224.8	212255.17	-9.090909e-05	212259.28	650222.4	-7.5757575e-06
0	0.6157222	0.6157175	-7.2248055e-11	0.049143866	0.049143866	0	135378.31	135377.23	-1.4277216e-05	650382.5	211624.4	-0.00010606061	211628.53	650380	0
0	0.6153823	0.61537755	-7.4054256e-11	0.048790347	0.048790347	0	135303.56	135302.52	-1.4277216e-05	650540.4	210990.66	-7.5757576e-05	210994.78	650537.9	-6.9128786e-05
0	0.6150405	0.6150358	-9.2116266e-11	0.048436813	0.048436813	0	135228.42	135227.38	-2.8554432e-05	650698.3	210354.2	-1.5151515e-05	210358.38	650695.75	-0.00010606061
0	0.61469775	0.61469287	-1.7158913e-10	0.048083298	0.048083298	0	135153.05	135151.98	-2.7364664e-05	650855.7	209716.89	-0.00013636364	209721.1	650853.2	-8.333333e-05
0	0.61435264	0.61434776	-1.8784495e-10	0.047729593	0.047729593	0	135077.19	135076.12	-4.0452112e-05	651013.3	209076.14	-9.090909e-05	209080.33	651010.8	-0.00016098486
0	0.6140066	0.61400175	-1.5533332e-10	0.04737624	0.04737624	0	135001.1	135000.03	-2.8554432e-05	651170.5	208434.5	-0.00012121212	208438.7	651168	-0.00010606061
0	0.6136578	0.61365294	-1.15596886e-10	0.047022723	0.047022723	0	134924.39	134923.34	-3.3313503e-05	651327.6	207789.05	-0.00012121212	207793.27	651325.1	-5.6818182e-05
0	0.61330855	0.6133038	-1.15596886e-10	0.046669014	0.046669014	0	134847.62	134846.55	-3.569304e-05	651484.7	207143.1	-7.5757576e-05	207147.34	651482.1	-0.00013967803
0	0.6129569	0.612952	-7.586046e-11	0.046315517	0.04631551	0	134770.3	134769.2	-1.4277216e-05	651641.3	206493.98	-4.5454544e-05	206498.23	651638.9	-9.090909e-05
0	0.61260283	0.6125979	-1.4088371e-10	0.045961946	0.045961946	0	134692.44	134691.38	-3.0933967e-05	651798.1	205841.48	-0.00015151515	205845.75	651795.6	-9.090909e-05
0	0.6122485	0.6122436	-1.7158913e-10	0.045608442	0.045608442	0	134614.53	134613.45	-3.8072576e-05	651955	205188.64	-0.00013636364	205192.92	651952.44	-0.00010842803
0	0.611892	0.6118871	-1.0475968e-10	0.04525478	0.045254786	0	134536.17	134535.08	-2.8554432e-05	652111.4	204533.11	-9.090909e-05	204537.42	652108.8	-9.090909e-05
0	0.611534	0.61152893	-2.456434e-10	0.044901285	0.044901285	0	134457.44	134456.34	-4.9970255e-05	652267.4	203875.81	-9.090909e-05	203880.14	652264.8	-0.00024242424
0	0.6111734	0.61116844	-1.15596886e-10	0.044547703	0.044547703	0	134378.14	134377.06	-2.7364664e-05	652423.8	203214.67	-6.060606e-05	203219.03	652421.06	-0.0001439394
0	0.6108116	0.6108066	-1.7339533e-10	0.044194214	0.04419421	0	134298.61	134297.5	-3.3313503e-05	652579.6	202552.23	-0.00010606061	202556.64	652576.94	-9.090909e-05
0	0.610448	0.6104429	-1.7339533e-10	0.043840516	0.043840516	0	134218.66	134217.55	-2.8554432e-05	652735.3	201887.39	-0.00012121212	201891.8	652732.75	-6.818182e-05
0	0.6100823	0.6100773	-8.8503864e-11	0.04348702	0.04348702	0	134138.25	134137.16	-2.3795359e-05	652891	201219.81	-9.090909e-05	201224.25	652888.3	-2.5094698e-05
0	0.60971516	0.60971004	-1.2191859e-10	0.043133628	0.043133628	0	134057.55	134056.44	-2.1415824e-05	653046.2	200550.62	-7.5757576e-05	200555.03	653043.5	-9.090909e-05
0	0.6093457	0.6093406	-1.4449611e-10	0.04277993	0.04277993	0	133976.31	133975.2	-2.8554432e-05	653201.25	199878.28	-0.00012121212	199882.75	653198.6	-4.5454544e-05
0	0.608975	0.6089699	-2.60093e-10	0.042426445	0.042426445	0	133894.8	133893.67	-4.283165e-05	653356.2	199204.3	-0.00015151515	199208.77	653353.56	-0.00016098486
0	0.60860044	0.6085953	-5.8701544e-11	0.042072836	0.042072833	0	133812.45	133811.33	-1.9036288e-05	653511.4	198524.7	-7.5757576e-05	198529.17	653508.8	-3.030303e-05
0	0.60822755	0.6082224	-1.7881394e-10	0.04171935	0.04171935	0	133730.47	133729.34	-4.7590718e-05	653665.9	197848.17	-0.00016666666	197852.67	653663.2	-0.00016666666
0	0.60785145	0.6078463	-1.4449611e-10	0.041365705	0.041365705	0	133647.77	133646.62	-3.0933967e-05	653820.2	197167.27	-0.00012121212	197171.8	653817.56	-7.5757576e-05
0	0.60747355	0.60746825	-1.15596886e-10	0.041012242	0.041012242	0	133564.67	133563.53	-2.3795359e-05	653974.2	196484.16	-6.818182e-05	196488.7	653971.44	-6.060606e-05
0	0.60709304	0.60708785	-1.13790685e-10	0.04065859	0.04065859	0	133481.02	133479.88	-2.8554432e-05	654128	195797.73	-7.5757576e-05	195802.3	654125.25	-0.00010606061
0	0.6067104	0.6067052	-1.5533332e-10	0.04030513	0.04030513	0	133396.88	133395.73	-2.8554432e-05	654281.94	195108	-9.090909e-05	195112.58	654279.2	-5.965909e-05
0	0.6063275	0.6063223	-9.3922474e-11	0.039951436	0.039951444	0	133312.69	133311.55	-2.1415824e-05	654435.5	194418.36	-9.090909e-05	194422.95	654432.75	-4.5454544e-05
0	0.60594183	0.6059365	-5.7798443e-11	0.03959798	0.03959798	0	133227.89	133226.73	-1.6656752e-05	654588.6	193725.23	-4.2613636e-05	193729.84	654585.94	-4.5454544e-05
0	0.60555404	0.60554874	-2.4474028e-10	0.039244536	0.039244536	0	133142.62	133141.47	-5.234979e-05	654741.9	193029.16	-0.00016666666	193033.81	654739.1	-0.00017092803
0	0.6051641	0.6051588	-1.0114728e-10	0.038890842	0.038890846	0	133056.89	133055.72	-2.8554432e-05	654894.75	192330.36	-5.6818182e-05	192335.02	654891.94	-9.848485e-05
0	0.6047726	0.6047673	-1.2101549e-10	0.03853739	0.03853739	0	132970.81	132969.66	-2.3795359e-05	655047.2	191629.78	-9.6590906e-05	191634.47	655044.44	-4.5454544e-05
0	0.6043793	0.604374	-4.5155034e-12	0.03818371	0.03818371	0	132884.34	132883.17	-1.18976795e-05	655199.44	190926.86	-1.5151515e-05	190931.58	655196.7	-3.2670454e-05
0	0.60398376	0.6039785	-5.418604e-11	0.03783026	0.03783026	0	132797.39	132796.22	-1.6656752e-05	655351.3	190221.33	-1.5151515e-05	190226.03	655348.5	-6.060606e-05
0	0.60358644	0.603581	-2.0229456e-10	0.037476573	0.037476573	0	132710.02	132708.84	-3.569304e-05	655503.1	189513.02	-0.00013920455	189517.75	655500.4	-7.5757576e-05
0	0.6031868	0.6031815	-8.669766e-11	0.037123177	0.037123173	0	132622.17	132620.98	-3.0933967e-05	655654.44	188802.45	-7.5757576e-05	188807.2	655651.6	-7.078599e-05
0	0.6027857	0.6027803	-7.947286e-11	0.036769494	0.036769494	0	132533.95	132532.77	-2.6174896e-05	655805.94	188089.16	-5.3977274e-05	188093.94	655803.1	-8.333333e-05
0	0.6023825	0.602377	-1.4449611e-10	0.036416046	0.036416046	0	132445.31	132444.11	-3.2123735e-05	655956.7	187373.9	-7.5757576e-05	187378.69	655953.94	-0.00010606061
0	0.6019752	0.6019697	-1.0114728e-10	0.03606236	0.036062364	0	132355.75	132354.55	-1.9036288e-05	656108.1	186652.23	-0.00010606061	186657.05	656105.4	-5.3030304e-05
0	0.6015693	0.6015638	-1.8784495e-10	0.0357089	0.0357089	0	132266.52	132265.31	-4.5211185e-05	656258.06	185934.14	-0.00015151515	185938.97	656255.25	-0.00013636364
0	0.6011602	0.60115474	-1.6797673e-10	0.035355438	0.035355438	0	132176.56	132175.38	-3.8072576e-05	656407.8	185211.55	-0.00012121212	185216.4	656405.06	-0.00010606061
0	0.6007484	0.6007429	-1.4449611e-10	0.03500176	0.03500176	0	132086.03	132084.81	-2.8554432e-05	656557.7	184485.17	-9.090909e-05	184490.06	656554.94	-0.00015625
0	0.60033476	0.60032916	-2.0229456e-10	0.03464829	0.034648295	0	131995.08	131993.84	-4.7590718e-05	656707.25	183756.42	-0.00015151515	183761.33	656704.4	-0.000113636364
0	0.5999186	0.599913	-2.1132555e-10	0.03429463	0.03429463	0	131903.6	131902.34	-4.312909e-05	656856.4	183024.72	-9.090909e-05	183029.67	656853.5	-0.00018939393
0	0.5995016	0.599496	-2.60093e-10	0.033941165	0.03394116	0	131811.9	131810.67	-5.234979e-05	657005.25	182292.19	-0.00017424242	182297.12	657002.25	-0.00014630682
0	0.59908104	0.5990753	-1.8332943e-10	0.033587493	0.033587493	0	131719.42	131718.2	-3.569304e-05	657153.44	181555.06	-0.00018276516	181560.02	657150.5	-5.3030304e-05
0	0.5986598	0.59865415	-7.2248055e-11	0.033234086	0.033234086	0	131626.8	131625.56	-1.6656752e-05	657301.9	180816.88	-6.060606e-05	180821.86	657299	-3.7878788e-05
0	0.5982355	0.5982299	-8.2182164e-11	0.032880418	0.032880418	0	131533.52	131532.28	-2.1415824e-05	657449.6	180075.05	-8.333333e-05	180080.06	657446.75	-5.4924243e-05
0	0.5978092	0.5978036	-1.4449611e-10	0.03252696	0.03252696	0	131439.78	131438.53	-4.0452112e-05	657597.06	179330.83	-0.00010606061	179335.84	657594.1	-0.00015151515
0	0.5973813	0.5973756	-1.6255812e-10	0.03217329	0.03217329	0	131345.7	131344.44	-3.569304e-05	657744.4	178584.39	-0.00010227273	178589.44	657741.4	-8.333333e-05
0	0.5969492	0.5969436	-1.264341e-10	0.03181982	0.03181982	0	131250.72	131249.47	-1.6061867e-05	657890.94	177832.98	-4.5454544e-05	177838.05	657888	-7.5757576e-05
0	0.59651786	0.5965122	-1.8784495e-10	0.03146634	0.03146634	0	131155.88	131154.61	-3.569304e-05	658037.7	177082.39	-0.00013636364	177087.48	658034.7	-7.5757576e-05
0	0.5960819	0.5960762	-1.7971703e-10	0.031112673	0.031112673	0	131060	131058.734	-4.5211185e-05	658183.6	176325.89	-0.0001969697	176331	658180.7	-0.00010606061
0	0.59564614	0.5956403	-1.15596886e-10	0.030759193	0.030759193	0	130964.2	130962.93	-2.6174896e-05	658329.5	175570.03	-9.848485e-05	175575.17	658326.5	-0.00010464015
0	0.59520674	0.595201	-1.7339533e-10	0.030405553	0.030405551	0	130867.62	130866.32	-2.8554432e-05	658474.56	174809.75	-0.00015151515	174814.94	658471.6	-4.5454544e-05
0	0.59476495	0.5947591	-1.8784495e-10	0.030052068	0.030052068	0	130770.46	130769.17	-4.7590718e-05	658619.8	174046.08	-0.00010606061	174051.22	658616.75	-0.00015151515
0	0.59432137	0.5943155	-1.4449611e-10	0.029698411	0.029698411	0	130672.93	130671.63	-3.3313503e-05	658764.2	173280.56	-0.00012121212	173285.78	658761.25	-9.019886e-05
0	0.5938756	0.5938696	-4.154263e-11	0.029344998	0.029344998	0	130574.91	130573.6	-9.518144e-06	658908.25	172512.31	-1.5151515e-05	172517.53	658905.2	-2.2727272e-05
0	0.5934267	0.59342074	-9.934108e-11	0.028991349	0.028991349	0	130476.21	130474.91	-1.8590124e-05	659052.1	171739.95	-6.060606e-05	171745.2	659049.1	-6.060606e-05
0	0.59297633	0.59297043	-1.0656588e-10	0.028637858	0.028637858	0	130377.18	130375.87	-2.1415824e-05	659195.44	170966.17	-6.818182e-05	170971.42	659192.44	-0.000125
0	0.59252286	0.5925168	-1.300465e-10	0.02828423	0.02828423	0	130277.47	130276.164	-2.6174896e-05	659337.94	170188.61	-8.333333e-05	170193.89	659335	-9.848485e-05
0	0.592068	0.5920621	-1.0114728e-10	0.027930733	0.027930733	0	130177.5	130176.17	-2.8554432e-05	659481	169409	-0.00013636364	169414.33	659478	-1.5151515e-05
0	0.59161055	0.5916046	-1.5984881e-10	0.027577233	0.02757723	0	130076.91	130075.586	-2.6174896e-05	659622.94	168626.58	-0.0001439394	168631.92	659619.8	-0.00010227273
0	0.59115106	0.5911449	-1.372713e-10	0.027223593	0.027223593	0	129975.84	129974.516	-2.8554432e-05	659764.1	167841.9	-9.848485e-05	167847.25	659761	-6.060606e-05
0	0.5906886	0.5906825	-1.4449611e-10	0.026870087	0.026870087	0	129874.19	129872.836	-3.3313503e-05	659905.5	167053.05	-0.00010606061	167058.45	659902.44	-9.090909e-05
0	0.5902242	0.5902182	-1.0114728e-10	0.026516471	0.026516471	0	129772.086	129770.75	-1.9036288e-05	660046.06	166262.42	-0.00012121212	166267.84	660043	-4.9479168e-05
0	0.58975685	0.58975077	-7.2248055e-11	0.02616296	0.02616296	0	129669.34	129667.984	-1.6656752e-05	660186.44	165467.7	-8.333333e-05	165473.14	660183.4	-4.5454544e-05
0	0.58928716	0.58928114	-8.669766e-11	0.025809333	0.02580933	0	129566.086	129564.72	-2.1415824e-05	660326.2	164670.47	-9.848485e-05	164675.89	660323.1	-6.060606e-05
0	0.588816	0.5888098	-1.15596886e-10	0.025455905	0.025455907	0	129462.45	129461.086	-1.9036288e-05	660465.25	163871.58	-9.848485e-05	163877.06	660462.1	-5.3030304e-05
0	0.58834153	0.58833545	-6.502325e-11	0.025102288	0.025102288	0	129358.14	129356.79	-9.518144e-06	660604.44	163068.25	-4.5454544e-05	163073.77	660601.25	-4.5454544e-05
0	0.5878646	0.5878584	-7.0441854e-11	0.024748769	0.024748769	0	129253.266	129251.91	-9.518144e-06	660742.75	162262.1	-3.030303e-05	162267.62	660739.7	-6.060606e-05
0	0.5873859	0.58737963	-1.0114728e-10	0.024395173	0.024395173	0	129148.02	129146.65	-1.6656752e-05	660880.5	161454.23	-6.818182e-05	161459.8	660877.3	-7.8835226e-05
0	0.5869037	0.5868975	-1.0114728e-10	0.024041647	0.024041649	0	129042.01	129040.64	-2.6174896e-05	661018	160641.67	-9.848485e-05	160647.28	661014.75	-3.7878788e-05
0	0.58641976	0.5864134	-1.4449611e-10	0.02368812	0.02368812	0	128935.58	128934.2	-2.1713266e-05	661154.6	159827.39	-0.00010606061	159833	661151.4	-9.848485e-05
0	0.58593243	0.58592606	-1.0114728e-10	0.023334507	0.023334507	0	128828.445	128827.055	-2.8554432e-05	661290.94	159008.69	-9.848485e-05	159014.33	661287.75	-5.184659e-05
0	0.5854438	0.5854374	-1.4449611e-11	0.022980975	0.022980973	0	128721.01	128719.62	2.379536e-06	661426.4	158189.23	3.030303e-05	158194.9	661423.2	3.030303e-05
0	0.5849522	0.5849458	-1.1649999e-10	0.022627393	0.02262739	0	128612.92	128611.516	-3.8072576e-05	661561.7	157365.61	-0.00013636364	157371.27	661558.56	-5.3030304e-05
0	0.58445764	0.58445126	-1.3636821e-10	0.022273852	0.022273852	0	128504.19	128502.77	-3.3313503e-05	661696.75	156538.11	-0.00013636364	156543.83	661693.6	-6.202651e-05
0	0.58396107	0.5839548	-1.9506975e-10	0.021920254	0.021920258	0	128395.02	128393.61	-4.0452112e-05	661830.7	155709.2	-0.00012121212	155714.94	661827.4	-0.00017424242
0	0.5834611	0.5834547	-1.2507945e-10	0.021566814	0.021566814	0	128285.086	128283.67	-3.0933967e-05	661963.9	154875.92	-0.00010416667	154881.69	661960.6	-4.5454544e-05
0	0.5829592	0.5829528	-6.54748e-11	0.021213222	0.021213222	0	128174.74	128173.31	-2.6174896e-05	662097.06	154040.02	-6.060606e-05	154045.8	662093.9	-8.001894e-05
0	0.5824548	0.58244824	-1.15596886e-10	0.020859675	0.020859675	0	128063.81	128062.39	-2.3795359e-05	662229.8	153201.14	-8.333333e-05	153206.94	662226.44	-6.818182e-05
0	0.5819475	0.581941	-8.082751e-11	0.020506121	0.020506121	0	127952.3	127950.85	-1.8441404e-05	662361.4	152359.3	-8.333333e-05	152365.14	662358	-1.5151515e-05
0	0.58143634	0.5814297	-2.8899222e-11	0.020152565	0.020152565	0	127839.91	127838.45	-1.6656752e-05	662492.25	151512.69	-3.7878788e-05	151518.53	662488.94	-2.7935606e-05
0	0.58092487	0.58091825	-1.4720541e-10	0.019798987	0.01979899	0	127727.45	127726	-3.8072576e-05	662623.1	150665.78	-0.00013636364	150671.69	662619.8	-8.333333e-05
0	0.58040935	0.58040273	-1.4449611e-10	0.019445421	0.019445421	0	127614.11	127612.65	-3.0933967e-05	662753.2	149814.06	-0.00012121212	149819.97	662749.8	-7.5757576e-05
0	0.5798915	0.57988495	-1.300465e-10	0.019091856	0.019091856	0	127500.26	127498.79	-2.3795359e-05	662882.5	148959.7	-0.00013636364	148965.69	662879.1	-5.7291665e-05
0	0.5793706	0.57936394	-1.34562e-10	0.018738287	0.018738287	0	127385.71	127384.234	-2.8554432e-05	663011.25	148101.52	-0.00013636364	148107.5	663007.94	-6.060606e-05
0	0.5788461	0.5788394	-1.7339533e-10	0.018384747	0.018384747	0	127270.4	127268.92	-3.8072576e-05	663139.44	147239.14	-0.00010606061	147245.16	663136.06	-8.854167e-05
0	0.57832026	0.5783135	-1.0114728e-10	0.01803118	0.01803118	0	127154.77	127153.29	-1.4277216e-05	663266.5	146375.77	-7.5757576e-05	146381.83	663263.2	-7.03125e-05
0	0.5777918	0.5777851	-1.7339533e-10	0.017677717	0.017677719	0	127038.57	127037.09	-4.283165e-05	663393.7	145508.78	-0.00012878788	145514.86	663390.3	-0.000113636364
0	0.5772596	0.57725286	-1.354651e-10	0.017324148	0.017324146	0	126921.555	126920.06	-2.3795359e-05	663519.6	144637.75	-0.000113636364	144643.84	663516.1	-5.3030304e-05
0	0.57672477	0.576718	-1.2507945e-10	0.016970582	0.016970582	0	126803.98	126802.484	-2.1415824e-05	663645.06	143763.58	-0.00012878788	143769.67	663641.6	-5.1136365e-05
0	0.5761874	0.5761805	-7.4505804e-11	0.016617043	0.016617043	0	126685.805	126684.31	-1.9036288e-05	663769.8	142886.31	-4.5454544e-05	142892.5	663766.44	-3.030303e-05
0	0.5756465	0.5756397	-2.3119377e-10	0.01626348	0.01626348	0	126566.91	126565.41	-4.4021417e-05	663894.1	142004.88	-0.0001969697	142011.05	663890.75	-0.00012121212
0	0.57510346	0.57509655	-8.669766e-11	0.015909908	0.01590991	0	126447.484	126445.984	-1.9036288e-05	664017.6	141121.02	-9.848485e-05	141127.23	664014.25	-6.534091e-05
0	0.5745575	0.5745505	-1.0114728e-10	0.015556336	0.015556336	0	126327.43	126325.914	-3.569304e-05	664140.2	140233.98	-0.000107007574	140240.22	664136.75	-0.00010606061
0	0.5740084	0.5740015	-1.15596886e-10	0.015202776	0.0152027765	0	126206.734	126205.21	-3.0339084e-05	664262.1	139343.45	-0.00012878788	139349.72	664258.7	-6.060606e-05
0	0.5734571	0.57345015	-8.037596e-11	0.0148492055	0.0148492055	0	126085.5	126083.984	-2.1415824e-05	664383.06	138450.67	-4.5454544e-05	138456.97	664379.5	-7.9545454e-05
0	0.57290155	0.5728945	-1.5352712e-10	0.0144956745	0.0144956745	0	125963.37	125961.83	-3.569304e-05	664503.7	137552.2	-0.00015909091	137558.53	664500.25	-7.5757576e-05
0	0.5723443	0.5723372	-1.2056393e-10	0.014142115	0.014142115	0	125840.85	125839.3	-2.8554432e-05	664623	136652.7	-9.848485e-05	136659.06	664619.44	-3.7878788e-05
0	0.5717829	0.5717758	-1.390775e-10	0.013788615	0.013788615	0	125717.4	125715.85	-2.5728732e-05	664741.94	135747.7	-0.00012878788	135754.11	664738.44	-4.5454544e-05
0	0.57121795	0.5712108	-8.669766e-11	0.013435043	0.013435043	0	125593.21	125591.66	-1.9036288e-05	664860.4	134838.48	-6.060606e-05	134844.88	664856.75	-2.2727272e-05
0	0.5706523	0.57064503	-1.15596886e-10	0.01308148	0.01308148	0	125468.805	125467.23	-3.8072576e-05	664977.56	133929.06	-6.818182e-05	133935.5	664974.06	-0.00012121212
0	0.57008183	0.5700747	-7.495736e-11	0.012727953	0.012727953	0	125343.41	125341.82	-2.6174896e-05	665094	133014.19	-6.818182e-05	133020.64	665090.4	-5.0189396e-05
0	0.56950915	0.56950194	-1.15596886e-10	0.012374384	0.012374384	0	125217.484	125215.88	-2.8554432e-05	665209.8	132096.52	-0.00012121212	132103.03	665206.25	-4.5454544e-05
0	0.56893235	0.5689251	-1.15596886e-10	0.0120208245	0.0120208245	0	125090.664	125089.06	-2.535693e-05	665324.6	131174.14	-8.333333e-05	131180.69	665321.06	-4.5454544e-05
0	0.5683534	0.56834614	-7.1796506e-11	0.011667253	0.011667253	0	124963.36	124961.77	-1.933373e-05	665438.5	130249.62	-9.090909e-05	130256.18	665435	-4.9479168e-05
0	0.5677709	0.56776357	-1.1695153e-10	0.011313695	0.011313695	0	124835.29	124833.68	-1.4277216e-05	665551.94	129320.68	-9.090909e-05	129327.28	665548.4	-4.5454544e-05
0	0.56718534	0.567178	-1.15596886e-10	0.010960129	0.010960129	0	124706.55	124704.95	-1.9705532e-05	665664.56	128388.37	-6.818182e-05	128395	665660.94	-5.3030304e-05
0	0.56659704	0.56658965	-1.372713e-10	0.010606611	0.010606611	0	124577.2	124575.57	-2.2605593e-05	665775.9	127453.28	-8.333333e-05	127459.95	665772.25	-3.4801138e-05
0	0.5660049	0.5659974	-1.336589e-10	0.010253061	0.010253061	0	124446.984	124445.35	-2.8554432e-05	665886.7	126513.42	-9.2329545e-05	126520.12	665883	-9.090909e-05
0	0.5654097	0.5654023	-1.2191859e-10	0.009899493	0.009899495	0	124316.15	124314.52	-3.4726352e-05	665996.44	125570.54	-0.00012878788	125577.27	665992.75	-4.5454544e-05
0	0.56481135	0.5648039	-9.482557e-11	0.009545928	0.009545928	0	124184.586	124182.945	-1.9705532e-05	666105.1	124624.09	-7.5757576e-05	124630.87	666101.44	-4.0482955e-05
0	0.5642098	0.5642023	-1.453992e-10	0.009192374	0.009192374	0	124052.33	124050.664	-3.3313503e-05	666213.06	123673.96	-0.000140625	123680.78	666209.3	-3.030303e-05
0	0.5636046	0.563597	-7.4054256e-11	0.008838859	0.008838858	0	123919.24	123917.57	-1.3533611e-05	666320	122719.51	-7.5757576e-05	122726.35	666316.4	3.030303e-05
0	0.5629965	0.5629888	-5.7798443e-11	0.008485291	0.00848529	0	123785.555	123783.875	-1.18976795e-05	666426.2	121761.984	-0.000113636364	121768.85	666422.5	2.9592804e-05
0	0.5623848	0.5623771	-1.300465e-10	0.00813174	0.00813174	0	123651.03	123649.36	-2.1415824e-05	666531.3	120800.33	-6.060606e-05	120807.22	666527.56	-8.333333e-05
0	0.56176996	0.56176233	-5.915309e-11	0.007778168	0.007778168	0	123515.875	123514.19	-1.4277216e-05	666635.25	119835.7	-6.060606e-05	119842.64	666631.56	0
0	0.5611516	0.56114393	-1.300465e-10	0.0074246028	0.0074246028	0	123379.92	123378.23	-2.5580011e-05	666738.6	118866.67	-9.090909e-05	118873.65	666734.75	-6.060606e-05
0	0.560529	0.56052125	-1.300465e-10	0.0070710573	0.0070710573	0	123243.02	123241.33	-3.0933967e-05	666840.7	117892.84	-0.00013636364	117899.84	666836.94	-6.818182e-05