# t (s)	mx ()	my ()	mz ()	B_extx (T)	B_exty (T)	B_extz (T)	m_fullx (A/m)	m_fully (A/m)	m_fullz (A/m)	m_full.region1x (A/m)	m_full.region1y (A/m)	m_full.region1z (A/m)	m_full.region2x (A/m)	m_full.region2y (A/m)	m_full.region2z (A/m)
0	0.6404175	0.640414	-2.6381033e-10	0.07071087	0.07071087	0	64823.06	64822.71	-2.84375e-05	655605.56	240974.95	-0.00028094745	240978.9	655604.75	-9.292877e-05
0	0.6402972	0.64029354	-2.926646e-10	0.070569105	0.07056911	0	64810.887	64810.51	-3.28125e-05	655703.3	240708.62	-0.00015560167	240712.81	655702.4	-0.0002593361
0	0.64017314	0.6401695	-3.4212902e-10	0.07042788	0.07042789	0	64798.332	64797.957	-3.34375e-05	655803.94	240434.22	-0.00036955395	240438.42	655803	-0.0001512794
0	0.6400481	0.6400444	-2.473222e-10	0.07028653	0.07028653	0	64785.668	64785.297	-2.4375e-05	655905.1	240157.94	-0.00018369641	240162.17	655904.3	-0.00014263486
0	0.6399224	0.6399186	-2.596883e-10	0.070144884	0.070144884	0	64772.945	64772.562	-2.71875e-05	656006.75	239880.3	-0.00012534579	239884.53	656005.8	-0.00022475795
0	0.63979703	0.6397934	-5.523529e-10	0.07000352	0.07000352	0	64760.254	64759.887	-5.40625e-05	656107.8	239603.8	-0.0003576677	239608.03	656106.8	-0.00040629323
0	0.6396712	0.6396674	-1.9373571e-10	0.06986229	0.06986229	0	64747.52	64747.14	-1.8125e-05	656209.06	239326.33	-0.000119942946	239330.56	656208.2	-0.0001383126
0	0.63954437	0.6395407	8.6562764e-11	0.069720544	0.069720544	0	64734.688	64734.31	8.75e-06	656310.94	239047.02	8.104253e-05	239051.27	656309.94	4.3222684e-05
0	0.6394177	0.639414	-9.06848e-11	0.069579184	0.06957919	0	64721.863	64721.49	-8.75e-06	656412.4	238768.22	-5.943119e-05	238772.45	656411.4	-3.0255878e-05
0	0.63929063	0.639287	-4.5754603e-10	0.069437966	0.069437966	0	64708.996	64708.63	-4.625e-05	656514	238488.77	-0.00032633127	238493	656512.94	-0.0003349758
0	0.6391634	0.63915974	-3.7922734e-10	0.069296576	0.069296576	0	64696.12	64695.742	-3.6875e-05	656615.56	238208.97	-0.00033605637	238213.22	656614.56	-0.00020746888
0	0.6390363	0.6390326	-2.6381033e-10	0.06915497	0.069154955	0	64683.258	64682.88	-2.71875e-05	656716.6	237929.97	-0.0002831086	237934.22	656715.7	-0.00010157331
0	0.63890845	0.63890475	-9.892887e-11	0.069013596	0.069013596	0	64670.31	64669.938	-8.4375e-06	656818.3	237649.3	-0.00018801868	237653.53	656817.3	7.56397e-05
0	0.63878	0.6387763	-6.595258e-10	0.068872236	0.068872236	0	64657.316	64656.94	-6.71875e-05	656920.06	237367.67	-0.0003641511	237371.92	656919.2	-0.0005489281
0	0.63865113	0.6386475	-7.007462e-11	0.06873064	0.06873064	0	64644.266	64643.89	-7.5e-06	657022.1	237085.28	-7.780083e-05	237089.53	657021.1	-1.2966805e-05
0	0.6385223	0.63851863	-4.2456974e-10	0.06858927	0.06858927	0	64631.23	64630.85	-4.25e-05	657123.8	236803.2	-0.00036631225	236807.44	657122.9	-0.00021179115
0	0.63839334	0.6383896	-2.720544e-10	0.06844801	0.068448015	0	64618.168	64617.793	-2.34375e-05	657225.5	236520.89	-0.00019450208	236525.16	657224.5	-0.00018585754
0	0.6382638	0.63826007	-3.4212902e-10	0.06830665	0.06830665	0	64605.062	64604.684	-3.28125e-05	657327.3	236237.7	-0.00023772476	236241.95	657326.44	-0.00027230292
0	0.6381335	0.63812983	-4.080816e-10	0.06816504	0.068165034	0	64591.883	64591.508	-3.9375e-05	657429.5	235953.27	-0.00037603735	235957.5	657428.6	-0.00022475795
0	0.6380041	0.6380004	2.0610182e-11	0.068023674	0.068023674	0	64578.78	64578.402	1.875e-06	657530.9	235670.67	9.725104e-06	235674.95	657529.94	3.0255878e-05
0	0.6378736	0.6378699	-3.297629e-10	0.06788232	0.06788232	0	64565.566	64565.188	-3.34375e-05	657632.94	235385.86	-0.0001707296	235390.11	657631.94	-0.00031984787
0	0.6377422	0.6377385	-2.473222e-10	0.067740716	0.067740716	0	64552.27	64551.9	-2.625e-05	657735.3	235099.62	-0.00029823653	235103.84	657734.4	-4.7544952e-05
0	0.63761145	0.63760763	-2.8029848e-10	0.06759932	0.06759932	0	64539.023	64538.645	-2.8125e-05	657837.1	234814.56	-0.00028743086	234818.81	657836.1	-9.5089905e-05
0	0.63748026	0.6374765	-1.9785774e-10	0.06745809	0.06745809	0	64525.754	64525.375	-1.9375e-05	657938.94	234529.11	-0.00018153527	234533.38	657938.06	-6.483403e-05
0	0.63734806	0.6373444	-5.9357325e-10	0.067316726	0.067316726	0	64512.367	64511.996	-6.09375e-05	658041.3	234241.69	-0.0005586532	234245.95	658040.4	-0.000289592
0	0.63721627	0.6372126	-1.2778313e-10	0.067174986	0.067174986	0	64499.03	64498.652	-1.5e-05	658143.2	233955.25	2.1611342e-05	233959.5	658142.4	-0.00016856847
0	0.6370839	0.6370802	-1.1129498e-10	0.06703377	0.06703377	0	64485.625	64485.258	-1.0625e-05	658245.3	233667.77	-0.00024420817	233672.03	658244.5	9.292877e-05
0	0.63695073	0.636947	-2.596883e-10	0.066892385	0.066892385	0	64472.145	64471.777	-2.5625e-05	658347.94	233378.75	-0.00026149725	233383	658347	-0.00010373444
0	0.63681775	0.6368141	-4.4930196e-10	0.066750765	0.066750765	0	64458.69	64458.316	-4.71875e-05	658450.1	233090.52	-0.00033605637	233094.77	658449.2	-0.00032417013
0	0.63668454	0.6366807	-4.2456974e-10	0.0666094	0.0666094	0	64445.203	64444.824	-4.25e-05	658552.25	232801.77	-0.0001707296	232806.03	658551.3	-0.0004106155
0	0.63655055	0.6365468	-5.4823085e-10	0.06646816	0.066468164	0	64431.65	64431.273	-5.78125e-05	658654.7	232511.78	-0.0004138572	232516.05	658653.75	-0.00038900416
0	0.6364167	0.636413	-4.6991216e-10	0.06632643	0.06632643	0	64418.09	64417.727	-4.65625e-05	658756.8	232222.2	-0.00030796163	232226.47	658756	-0.00032417013
0	0.6362821	0.63627833	-4.6579013e-10	0.06618507	0.06618507	0	64404.47	64404.098	-5e-05	658859.4	231931.19	-0.00045383818	231935.45	658858.5	-0.00026798065
0	0.6361474	0.6361437	-4.7815624e-10	0.06604384	0.06604384	0	64390.844	64390.465	-4.875e-05	658961.7	231640.36	-0.00038035962	231644.62	658960.94	-0.0003025588
0	0.6360124	0.6360087	-6.430377e-10	0.065902434	0.065902434	0	64377.168	64376.8	-6.71875e-05	659064.2	231348.92	-0.0005186722	231353.22	659063.25	-0.00040629323
0	0.63587654	0.63587284	-3.8334938e-10	0.06576085	0.06576085	0	64363.42	64363.05	-4.09375e-05	659166.94	231055.97	-0.00027014178	231060.23	659166.06	-0.00027230292
0	0.6357407	0.635737	-2.26712e-10	0.06561948	0.06561948	0	64349.676	64349.3	-2.1875e-05	659269.56	230763.14	-0.00025069158	230767.45	659268.6	-6.91563e-05
0	0.6356023	0.6355986	-8.408954e-10	0.06547824	0.06547824	0	64335.66	64335.29	-8.8125e-05	659373.7	230465.23	-0.00053163903	230469.53	659372.9	-0.0006742739
0	0.6354684	0.63546467	-3.3388495e-10	0.06533652	0.065336525	0	64322.11	64321.734	-3.34375e-05	659474.44	230176.97	-0.00030039766	230181.27	659473.56	-0.00020314661
0	0.6353309	0.6353271	-3.9983752e-10	0.06519514	0.06519514	0	64308.188	64307.812	-3.90625e-05	659577.7	229881.27	-0.00027014178	229885.58	659576.75	-0.000289592
0	0.63519406	0.6351904	6.183055e-11	0.065053925	0.065053925	0	64294.355	64293.977	6.875e-06	659680.06	229587.39	-6.699516e-05	229591.67	659679.1	0.00016856847
0	0.6350565	0.63505286	-6.7601397e-10	0.064912505	0.064912505	0	64280.418	64280.043	-6.6875e-05	659782.75	229292.08	-0.00048193292	229296.34	659781.8	-0.00045383818
0	0.6349191	0.6349154	-9.892887e-11	0.06477093	0.06477093	0	64266.51	64266.145	-1.03125e-05	659885.1	228997.28	-7.88814e-05	229001.6	659884.3	-5.618949e-05
0	0.63478017	0.6347764	-3.3388495e-10	0.06462956	0.06462956	0	64252.445	64252.066	-3.15625e-05	659988.56	228699.38	-0.00032957297	228703.66	659987.7	-0.00013399032
0	0.6346422	0.63463855	-2.596883e-10	0.06448818	0.06448818	0	64238.48	64238.105	-2.375e-05	660090.94	228403.88	-0.00019882435	228408.19	660089.94	-0.0001512794
0	0.6345029	0.6344992	-2.0197978e-10	0.0643466	0.0643466	0	64224.39	64224.01	-2.1875e-05	660194	228105.75	-0.000177213	228110.06	660193.2	-0.00014263486
0	0.634364	0.63436025	-3.627392e-10	0.06420522	0.06420522	0	64210.324	64209.95	-3.5e-05	660296.56	227808.69	-0.0002798669	227812.97	660295.75	-0.00026798065
0	0.6342244	0.6342207	-4.822783e-10	0.064063966	0.064063966	0	64196.19	64195.82	-5.03125e-05	660399.5	227510.4	-0.00045167704	227514.7	660398.56	-0.00027014178
0	0.63408446	0.6340808	-5.070105e-10	0.063922584	0.063922584	0	64182.035	64181.664	-5.28125e-05	660502.3	227211.72	-0.0003511843	227216.05	660501.5	-0.00036739281
0	0.63394356	0.63393986	-4.4105788e-10	0.06378101	0.06378101	0	64167.766	64167.395	-4.65625e-05	660605.75	226910.89	-0.00043222684	226915.22	660604.94	-0.00020746888
0	0.63380307	0.6337993	-3.050307e-10	0.06363963	0.06363963	0	64153.543	64153.176	-3.0625e-05	660708.7	226611.22	-0.00022043569	226615.52	660707.8	-0.00021179115
0	0.6336629	0.6336592	-6.183055e-11	0.06349825	0.06349824	0	64139.355	64138.99	-6.25e-06	660811.06	226312.7	-0.00014695713	226317	660810.1	6.483403e-05
0	0.63352054	0.63351685	-2.3083403e-10	0.06335668	0.06335668	0	64124.95	64124.57	-2.0625e-05	660914.75	226009.66	-0.00018909924	226013.95	660913.94	-0.00012102351
0	0.6333789	0.6333753	-3.627392e-10	0.06321527	0.06321527	0	64110.617	64110.242	-3.75e-05	661017.75	225708.45	-0.00031984787	225712.75	661016.94	-0.00022043569
0	0.6332371	0.63323337	-2.3907812e-10	0.06307404	0.06307404	0	64096.258	64095.887	-2.0625e-05	661120.75	225406.84	-1.2966805e-05	225411.17	661119.9	-0.00031984787
0	0.63309455	0.6330908	-2.7617644e-10	0.062932655	0.06293266	0	64081.83	64081.46	-3.03125e-05	661224	225104.1	-0.00035874828	225108.39	661223.1	-4.538382e-05
0	0.6329515	0.6329478	-5.441088e-10	0.062790945	0.062790945	0	64067.36	64066.98	-5.5625e-05	661327.25	224800.6	-0.00038900416	224804.89	661326.4	-0.00038035962
0	0.6328083	0.6328047	-3.297629e-10	0.062649705	0.062649705	0	64052.863	64052.484	-3.1875e-05	661430.44	224497.02	-0.00027446405	224501.33	661429.56	-0.00016856847
0	0.6326649	0.6326612	-5.6884103e-10	0.06250833	0.06250833	0	64038.348	64037.977	-5.9375e-05	661533.5	224193.14	-0.0004559993	224197.45	661532.6	-0.0003414592
0	0.63252115	0.6325175	-1.15417016e-10	0.06236674	0.06236674	0	64023.793	64023.426	-1e-05	661636.6	223888.66	-0.00018369641	223892.97	661635.8	8.644537e-06
0	0.6323768	0.63237303	-3.3800698e-10	0.062225346	0.062225346	0	64009.168	64008.797	-3.21875e-05	661740.1	223583.02	-0.00029067256	223587.3	661739.25	-0.00016856847
0	0.63223165	0.63222796	-2.1846792e-10	0.06208412	0.06208412	0	63994.492	63994.117	-2.21875e-05	661843.7	223276.33	-0.00015992393	223280.66	661842.9	-0.00014047373
0	0.63208735	0.6320837	-5.193766e-10	0.061942413	0.061942413	0	63979.887	63979.508	-5.125e-05	661946.44	222971.53	-0.0002960754	222975.86	661945.6	-0.00041493776
0	0.6319411	0.6319374	-6.1830546e-10	0.061801024	0.06180102	0	63965.08	63964.703	-6.0625e-05	662050.44	222662.7	-0.00054676697	222667.05	662049.6	-0.00031120333
0	0.6317958	0.6317921	-4.864003e-10	0.06165979	0.06165979	0	63950.367	63950	-5.25e-05	662153.5	222356.22	-0.00041277663	222360.52	662152.7	-0.0003025588
0	0.6316496	0.631646	-5.523529e-10	0.061518367	0.061518367	0	63935.582	63935.207	-5.4375e-05	662256.94	222048.28	-0.00040305153	222052.6	662256.06	-0.00038900416
0	0.6315035	0.6314999	-3.6686124e-10	0.06137681	0.061376806	0	63920.79	63920.41	-3.84375e-05	662360.1	221740.45	-0.0003090422	221744.78	662359.3	-0.00022043569
0	0.6313559	0.6313522	-1.4014924e-10	0.061235435	0.061235435	0	63905.84	63905.473	-1.625e-05	662464.06	221429.88	-0.00015884337	221434.19	662463.25	-5.618949e-05
0	0.63120896	0.6312053	-3.3388495e-10	0.061094042	0.061094042	0	63890.98	63890.605	-3.53125e-05	662567.3	221120.97	-0.00030039766	221125.31	662566.5	-0.00017289074
0	0.63106143	0.63105774	-2.596883e-10	0.060952503	0.060952503	0	63876.04	63875.664	-2.71875e-05	662670.75	220810.9	-0.00012426522	220815.22	662670	-0.00025069158
0	0.6309137	0.63091	-3.2564088e-10	0.060811102	0.060811102	0	63861.08	63860.71	-3.875e-05	662774.2	220500.62	-0.00044735477	220504.97	662773.3	-6.483403e-05
0	0.6307655	0.63076186	-1.15417016e-10	0.06066984	0.06066984	0	63846.082	63845.715	-1e-05	662877.5	220189.83	-0.00011454011	220194.17	662876.75	-3.457815e-05
0	0.6306163	0.6306127	-2.8442051e-10	0.060528446	0.060528446	0	63830.98	63830.605	-2.71875e-05	662981.44	219877.08	-0.00017937414	219881.4	662980.5	-0.00019882435
0	0.63046706	0.63046336	-4.4105788e-10	0.060386896	0.060386896	0	63815.88	63815.508	-4.5e-05	663085.1	219564.47	-0.0003976487	219568.81	663084.25	-0.00026365838
0	0.6303177	0.63031393	-3.0090866e-10	0.060245506	0.060245506	0	63800.75	63800.387	-2.90625e-05	663188.56	219251.78	-0.00026798065	219256.12	663187.8	-0.00015560167
0	0.6301674	0.6301638	-2.8854255e-10	0.060104124	0.060104124	0	63785.543	63785.176	-2.6875e-05	663292.44	218937.6	-0.000249611	218941.92	663291.7	-0.00014263486
0	0.6300151	0.6300114	2.26712e-10	0.05996258	0.059962578	0	63770.12	63769.754	2.28125e-05	663397.44	218619.25	0.00018261584	218623.62	663396.6	0.00013399032
0	0.6298668	0.62986314	-4.740342e-10	0.059821147	0.059821147	0	63755.11	63754.742	-4.75e-05	663499.5	218309.62	-0.0005057054	218313.97	663498.8	-0.0001642462
0	0.629716	0.62971234	-1.1129498e-10	0.059679918	0.05967991	0	63739.86	63739.484	-1.21875e-05	663603	217995.08	-0.00023232192	217999.4	663602.2	5.4028354e-05
0	0.6295647	0.629561	-3.9159345e-10	0.05953851	0.05953851	0	63724.535	63724.17	-4.03125e-05	663706.75	217679.48	-0.00034037864	217683.83	663705.9	-0.00021179115
0	0.62941235	0.6294087	-4.2456974e-10	0.059396826	0.059396826	0	63709.117	63708.75	-4.53125e-05	663810.75	217362.2	-0.0003284924	217366.53	663810	-0.00027230292
0	0.6292604	0.6292568	-5.441088e-10	0.059255596	0.059255596	0	63693.742	63693.375	-5.46875e-05	663914.3	217045.92	-0.00032633127	217050.23	663913.56	-0.00048409405
0	0.6291077	0.629104	-4.2869178e-10	0.059114188	0.059114188	0	63678.28	63677.91	-4.375e-05	664018.25	216728.22	-0.00032417013	216732.58	664017.4	-0.00030688106
0	0.62895495	0.6289513	-1.7312553e-10	0.058972627	0.058972627	0	63662.816	63662.45	-1.75e-05	664121.8	216410.75	-0.00027338348	216415.1	664121	3.457815e-05
0	0.6288008	0.62879723	-5.523529e-10	0.058831234	0.058831234	0	63647.227	63646.85	-5.34375e-05	664226	216090.89	-0.0004927386	216095.23	664225.25	-0.000289592
0	0.628645	0.6286414	-3.503731e-10	0.058689985	0.05868999	0	63631.453	63631.09	-3.875e-05	664331.1	215767.64	-0.0001739713	215771.97	664330.3	-0.0003284924
0	0.6284922	0.6284886	1.6488146e-11	0.0585483	0.0585483	0	63615.984	63615.617	3.125e-06	664434	215450.72	-5.4028354e-05	215455.05	664433.3	9.941217e-05
0	0.62833834	0.6283347	-5.441088e-10	0.058406904	0.058406904	0	63600.406	63600.04	-5.375e-05	664537.5	215131.9	-0.00035874828	215136.25	664536.7	-0.0004106155
0	0.62818396	0.6281803	-3.957155e-10	0.058265664	0.058265664	0	63584.785	63584.414	-3.65625e-05	664641	214812.25	-0.00024853044	214816.58	664640.25	-0.00028094745
0	0.6280288	0.6280252	-5.6059696e-10	0.05812423	0.05812423	0	63569.074	63568.71	-5.78125e-05	664744.75	214491.25	-0.00043114627	214495.58	664744	-0.00038035962
0	0.6278723	0.6278686	8.6562764e-11	0.057982713	0.057982713	0	63553.234	63552.86	8.125e-06	664849.1	214167.78	-3.6739282e-05	214172.08	664848.4	0.00014695713
0	0.6277164	0.6277128	-3.5449513e-10	0.057841305	0.057841305	0	63537.45	63537.086	-3.5625e-05	664952.9	213845.77	-0.00030147823	213850.1	664952.1	-0.00020746888
0	0.6275596	0.627556	-1.9785774e-10	0.057699904	0.057699904	0	63521.582	63521.215	-2.1875e-05	665056.8	213522.27	-0.00014587656	213526.61	665056.1	-9.941217e-05
0	0.6274034	0.6273998	-2.26712e-10	0.057558388	0.057558395	0	63505.766	63505.402	-2.5625e-05	665160.4	213200.1	-0.00026149725	213204.44	665159.5	-9.076764e-05
0	0.6272454	0.6272418	-3.7922734e-10	0.057416987	0.057416983	0	63489.773	63489.406	-3.71875e-05	665264.6	212874.55	-0.00027554462	212878.88	665263.8	-0.00025069158
0	0.6270866	0.62708294	-1.813696e-10	0.05727571	0.05727571	0	63473.703	63473.34	-1.8125e-05	665369.2	212547.7	-1.9450208e-05	212552.03	665368.44	-0.00022259682
0	0.62693	0.62692636	-4.4517992e-10	0.057134308	0.057134308	0	63457.86	63457.49	-4.46875e-05	665472.2	212225.5	-0.0002766252	212229.86	665471.5	-0.0003414592
0	0.6267705	0.62676686	-3.4212902e-10	0.05699279	0.05699279	0	63441.71	63441.34	-3.3125e-05	665576.7	211897.61	-0.000394407	211901.97	665576	-0.00010805671
0	0.62661237	0.62660867	-3.9159345e-10	0.056851387	0.056851387	0	63425.7	63425.336	-4.21875e-05	665680.25	211572.69	-0.00037495678	211577	665679.5	-0.00022475795
0	0.62645227	0.62644875	0	0.05670998	0.056709986	0	63409.51	63409.137	2.1875e-06	665784.5	211244.36	1.2966805e-05	211248.72	665783.75	2.593361e-05
0	0.62629306	0.6262894	-1.9785774e-10	0.05656847	0.05656847	0	63393.387	63393.02	-2.03125e-05	665888.25	210917.66	-0.00014911826	210922.02	665887.5	-0.00013182919
0	0.6261324	0.6261289	-1.7312553e-10	0.05642703	0.05642703	0	63377.133	63376.76	-1.65625e-05	665992.44	210588.62	-0.00030796163	210592.95	665991.75	6.91563e-05
0	0.62597144	0.6259678	-3.957155e-10	0.056285787	0.056285787	0	63360.83	63360.465	-3.875e-05	666096.7	210259.03	-0.000289592	210263.38	666095.94	-0.0002831086
0	0.62581015	0.6258066	-8.244073e-12	0.056144364	0.056144364	0	63344.51	63344.137	1.5625e-06	666200.8	209929.19	0.00020314661	209933.52	666200.1	-0.00019017981
0	0.62564886	0.62564534	-6.5952584e-11	0.056002706	0.056002706	0	63328.184	63327.82	-7.5e-06	666304.9	209599.31	-0.00013074862	209603.69	666304.1	2.593361e-05
0	0.6254873	0.62548375	-5.976953e-10	0.05586147	0.055861466	0	63311.836	63311.473	-6.1875e-05	666408.56	209269.39	-0.00038900416	209273.75	666407.9	-0.0004495159
0	0.62532514	0.6253215	-5.3586474e-10	0.055720054	0.05572005	0	63295.406	63295.047	-5.78125e-05	666512.7	208938.17	-0.0005057054	208942.55	666511.9	-0.00032417013
0	0.6251626	0.6251591	-4.7815624e-10	0.05557856	0.05557856	0	63278.965	63278.6	-5.03125e-05	666616.5	208606.86	-0.00028526972	208611.23	666615.8	-0.00039332642
0	0.62499857	0.62499493	-4.822783e-10	0.0554371	0.055437103	0	63262.348	63261.99	-4.8125e-05	666721.2	208272.45	-0.0004938192	208276.77	666720.44	-0.00019882435
0	0.6248355	0.6248319	-5.0288845e-10	0.05529586	0.05529586	0	63245.855	63245.492	-4.75e-05	666824.8	207940.61	-0.00036955395	207944.94	666824.1	-0.0003284924
0	0.6246715	0.6246679	-3.7098327e-10	0.055154454	0.055154454	0	63229.25	63228.89	-3.65625e-05	666928.94	207606.83	-0.00028418915	207611.19	666928.25	-0.00022043569
0	0.62450755	0.6245039	-4.1220363e-10	0.05501279	0.055012785	0	63212.645	63212.28	-4.4375e-05	667032.7	207273.4	-0.00027878632	207277.75	667032.1	-0.00033065354
0	0.6243423	0.6243387	-2.1434589e-10	0.054871544	0.054871544	0	63195.93	63195.562	-2.125e-05	667137.06	206937.89	-0.0001415543	206942.23	667136.3	-0.00015560167
0	0.6241769	0.62417334	-3.9983752e-10	0.05473013	0.05473012	0	63179.19	63178.832	-4.28125e-05	667241.2	206602.23	-0.00035334544	206606.61	667240.5	-0.00021179115
0	0.62401134	0.62400776	-3.7098328e-11	0.054588605	0.054588605	0	63162.43	63162.066	-4.0625e-06	667345.1	206266.4	2.0530775e-05	206270.75	667344.5	-5.618949e-05
0	0.6238447	0.6238411	-7.5433265e-10	0.05444718	0.05444718	0	63145.562	63145.2	-7.53125e-05	667449.5	205928.7	-0.00063969573	205933.03	667448.9	-0.00042790457
0	0.62367874	0.6236752	-3.2151884e-10	0.05430595	0.05430595	0	63128.76	63128.406	-3.3125e-05	667553.25	205592.72	-0.0001642462	205597.06	667552.56	-0.00030688106
0	0.6235113	0.62350774	-3.1327477e-10	0.054164287	0.054164287	0	63111.812	63111.453	-3.0625e-05	667657.75	205253.81	-0.00022799966	205258.16	667657.06	-0.00023340249
0	0.6233438	0.6233403	-1.2778313e-10	0.05402286	0.05402286	0	63094.87	63094.508	-1.0625e-05	667761.75	204915.45	-5.2947787e-05	204919.8	667761	-0.00014695713
0	0.62317616	0.6231726	-2.3083403e-10	0.053881623	0.053881623	0	63077.895	63077.53	-2.28125e-05	667865.7	204576.6	-0.00017181017	204580.9	667865.1	-0.00015560167
0	0.62300813	0.6230046	-3.6686124e-10	0.053740162	0.053740162	0	63060.88	63060.52	-3.6875e-05	667969.6	204237.42	-0.00035334544	204241.75	667968.94	-0.000177213
0	0.62283957	0.6228359	-2.6793237e-10	0.053598683	0.053598683	0	63043.812	63043.45	-2.5e-05	668073.7	203897.33	-0.00030688106	203901.64	668072.94	-5.186722e-05
0	0.62266934	0.6226658	-9.4806836e-11	0.053457264	0.053457264	0	63026.598	63026.24	-1e-05	668178.25	203554.52	-6.807573e-05	203558.88	668177.6	-8.644537e-05
0	0.6224999	0.62249637	-1.1047058e-09	0.053315833	0.05331584	0	63009.434	63009.082	-0.0001090625	668282.25	203213.28	-0.0012696664	203217.64	668281.56	-0.00033281467
0	0.6223302	0.62232655	-1.6488146e-10	0.053174376	0.053174376	0	62992.26	62991.9	-1.4375e-05	668386.2	202871.72	-0.000177213	202876.06	668385.5	-5.186722e-05
0	0.6221594	0.6221559	-3.4625106e-10	0.053032946	0.053032946	0	62974.977	62974.617	-3.53125e-05	668490.3	202528.47	-0.00031012276	202532.83	668489.75	-0.000177213
0	0.6219891	0.6219855	-5.523529e-10	0.05289166	0.05289166	0	62957.73	62957.375	-5.4375e-05	668593.94	202186.28	-0.00036523168	202190.64	668593.4	-0.00038900416
0	0.6218174	0.62181383	-3.0090866e-10	0.052750226	0.052750226	0	62940.355	62939.996	-2.75e-05	668698.25	201841.67	-0.0002625778	201846.02	668697.7	-0.00011237898
0	0.6216454	0.62164193	-3.957155e-10	0.052608766	0.052608766	0	62922.953	62922.594	-4.375e-05	668802.44	201496.86	-0.00031984787	201501.22	668801.8	-0.00028526972
0	0.62147355	0.62147015	-6.347936e-10	0.052467342	0.052467342	0	62905.555	62905.2	-6.5625e-05	668906.2	201152.55	-0.00048733575	201156.88	668905.56	-0.00041926003
0	0.62130016	0.6212966	-3.7922734e-10	0.052325904	0.052325908	0	62887.992	62887.64	-3.90625e-05	669010.6	200805.16	-0.00044087137	200809.5	669010.06	-0.00010805671
0	0.62112737	0.62112385	-3.297629e-10	0.05218446	0.05218445	0	62870.52	62870.152	-3.4375e-05	669114.4	200459.62	-0.00028743086	200463.98	669113.8	-0.00016856847
0	0.6209531	0.6209495	-1.360272e-10	0.052042987	0.052042987	0	62852.863	62852.504	-1.1875e-05	669218.8	200111.02	-0.00011021784	200115.38	669218.25	-5.8350623e-05
0	0.62077963	0.62077606	-3.2564088e-10	0.051901728	0.051901728	0	62835.312	62834.965	-3.21875e-05	669322.5	199764.58	-0.00026581952	199768.89	669321.94	-0.00017289074
0	0.6206044	0.6206009	-5.64719e-10	0.051760294	0.051760297	0	62817.58	62817.215	-5.625e-05	669427	199414.88	-0.0005975536	199419.25	669426.3	-0.00019666321
0	0.62042964	0.620426	-3.2151884e-10	0.051618665	0.051618673	0	62799.883	62799.523	-3.21875e-05	669530.9	199066.2	-0.00031444503	199070.52	669530.25	-0.00013399032
0	0.62025386	0.62025046	-4.946444e-10	0.05147742	0.05147743	0	62782.094	62781.746	-5.125e-05	669634.94	198716.19	-0.00031120333	198720.55	669634.3	-0.0004235823
0	0.62007815	0.6200746	-1.3190517e-10	0.051335983	0.051335983	0	62764.312	62763.96	-1.375e-05	669738.75	198366.39	-0.0001674879	198370.73	669738.1	-4.3222685e-06
0	0.61990166	0.61989814	-2.473222e-10	0.051194493	0.051194496	0	62746.44	62746.09	-2.53125e-05	669842.9	198015.08	-0.00019990491	198019.44	669842.3	-0.00017289074
0	0.6197255	0.619722	-3.1327477e-10	0.051053066	0.051053066	0	62728.63	62728.27	-3.625e-05	669946.4	197665.1	-0.00042574343	197669.4	669945.75	-4.7544952e-05
0	0.6195476	0.61954415	-1.7312553e-10	0.050911807	0.050911807	0	62710.605	62710.258	-1.78125e-05	670050.6	197311.66	-0.00018585754	197315.98	670050.06	-5.186722e-05
0	0.6193699	0.61936647	-3.173968e-10	0.050770186	0.050770186	0	62692.625	62692.27	-3.3125e-05	670154.6	196959	-0.00027554462	196963.34	670154.06	-0.00015560167
0	0.6191915	0.61918813	-1.8755265e-10	0.050628755	0.050628755	0	62674.574	62674.223	-1.90625e-05	670258.56	196605.33	-0.00018909924	196609.67	670258	-6.483403e-05
0	0.6190127	0.6190092	-2.926646e-10	0.050487496	0.050487496	0	62656.473	62656.113	-2.875e-05	670362.56	196250.86	-0.00015884337	196255.22	670362	-0.00020314661
0	0.6188341	0.6188305	-2.699934e-10	0.050346017	0.050346017	0	62638.38	62638.035	-2.9375e-05	670466.1	195897.22	-0.00042574343	195901.56	670465.56	-2.8094744e-05
0	0.618654	0.6186505	-5.193766e-10	0.05020459	0.05020459	0	62620.156	62619.8	-5.34375e-05	670570.25	195541.12	-0.0005489281	195545.44	670569.7	-0.00023340249
0	0.618474	0.61847055	-7.831869e-11	0.050063144	0.050063144	0	62601.94	62601.59	-9.375e-06	670674.06	195185.25	-0.00027230292	195189.61	670673.56	0.0001383126
0	0.61829346	0.61829	-4.1632567e-10	0.049921695	0.0499217	0	62583.668	62583.312	-3.875e-05	670777.8	194828.73	-0.00030471993	194833.08	670777.25	-0.0002766252
0	0.6181121	0.6181086	-3.050307e-10	0.049780272	0.04978028	0	62565.3	62564.95	-3.375e-05	670881.9	194470.61	-0.00030039766	194474.97	670881.3	-0.00013615146
0	0.61793065	0.61792713	-2.6381033e-10	0.049638826	0.049638826	0	62546.934	62546.586	-2.53125e-05	670985.6	194112.89	-0.00024528874	194117.22	670985.06	-0.00013399032
0	0.61774886	0.6177454	-5.7708508e-11	0.049497534	0.04949753	0	62528.543	62528.188	-7.5e-06	671089.3	193754.75	-0.00017289074	193759.1	671088.8	8.21231e-05
0	0.61756575	0.6175623	-1.1129498e-10	0.049356084	0.049356084	0	62510.008	62509.66	-1e-05	671193.5	193394.4	-7.6720265e-05	193398.73	671192.8	-7.996197e-05
0	0.6173833	0.61737984	-5.399868e-10	0.049214657	0.049214657	0	62491.53	62491.188	-5.3125e-05	671296.94	193035.36	-0.00039008472	193039.7	671296.44	-0.00038684302
0	0.6171991	0.6171956	-2.596883e-10	0.049073208	0.049073208	0	62472.887	62472.54	-2.78125e-05	671401.06	192673.36	-0.00024420817	192677.67	671400.56	-0.0001383126
0	0.6170156	0.6170122	-4.080816e-10	0.048931766	0.048931774	0	62454.324	62453.977	-4.3125e-05	671504.44	192313.12	-0.00033713694	192317.47	671503.94	-0.00025501385
0	0.6168308	0.6168274	-1.8961367e-10	0.04879036	0.04879036	0	62435.62	62435.277	-1.875e-05	671608.25	191950.55	-0.00017613244	191954.86	671607.8	-9.725104e-05
0	0.6166461	0.6166426	-3.751053e-10	0.048648857	0.048648857	0	62416.918	62416.574	-3.5e-05	671711.94	191588.38	-0.00036523168	191592.7	671711.44	-0.00016208507
0	0.61646044	0.616457	-2.596883e-10	0.04850761	0.04850761	0	62398.125	62397.77	-2.3125e-05	671815.7	191224.58	-0.00023556362	191228.9	671815.2	-9.5089905e-05
0	0.6162748	0.6162713	-3.751053e-10	0.048366148	0.048366144	0	62379.332	62378.98	-3.96875e-05	671919.25	190861.1	-0.00032741184	190865.42	671918.75	-0.00023772476
0	0.61608875	0.6160854	-3.8334938e-10	0.04822455	0.04822455	0	62360.508	62360.156	-3.8125e-05	672022.56	190497.39	-0.00026581952	190501.7	672022.1	-0.0002463693
0	0.61590135	0.6158979	-4.328138e-10	0.048083294	0.048083294	0	62341.53	62341.19	-4.34375e-05	672126.44	190131.17	-0.00036198998	190135.47	672125.94	-0.00025501385
0	0.61571383	0.61571044	-1.2778313e-10	0.04794183	0.04794183	0	62322.55	62322.203	-1.21875e-05	672230.06	189764.94	7.780083e-05	189769.27	672229.7	-0.0002463693
0	0.6155261	0.61552256	-4.4517992e-10	0.047800392	0.0478004	0	62303.55	62303.195	-4.09375e-05	672333.56	189398.61	-0.0003284924	189402.9	672333.06	-0.00025501385
0	0.61533755	0.6153342	-3.8128836e-10	0.047658946	0.04765895	0	62284.473	62284.125	-3.59375e-05	672437.1	189031.17	-0.00029715596	189035.5	672436.6	-0.00023556362
0	0.61514866	0.6151452	-4.6991216e-10	0.047517676	0.047517676	0	62265.344	62264.996	-4.9375e-05	672540.6	188663.14	-0.0003479426	188667.47	672540.2	-0.00031120333
0	0.6149591	0.61495566	-3.751053e-10	0.047376227	0.047376227	0	62246.164	62245.816	-3.65625e-05	672644.2	188294.23	-0.00024204703	188298.53	672643.6	-0.00026149725
0	0.6147696	0.61476624	-3.2151884e-10	0.047234632	0.047234632	0	62226.984	62226.637	-3.1875e-05	672747.44	187925.77	-0.0003155256	187930.06	672746.9	-0.00013399032
0	0.6145789	0.61457556	-1.1747804e-10	0.047093365	0.047093365	0	62207.67	62207.33	-1.125e-05	672850.9	187555.23	-0.00021611342	187559.55	672850.44	2.593361e-05
0	0.6143879	0.61438453	-5.399868e-10	0.046951856	0.046951856	0	62188.344	62188	-5.28125e-05	672954.4	187184.4	-0.00056405604	187188.7	672953.9	-0.00020746888
0	0.61419696	0.6141937	-7.007462e-11	0.04681048	0.04681048	0	62169.016	62168.68	-7.1875e-06	673057.44	186814.02	-0.00019558264	186818.31	673057	8.644537e-05
0	0.6140051	0.61400163	-1.2366109e-11	0.046669014	0.046669014	0	62149.59	62149.242	-2.1875e-06	673160.75	186442	4.862552e-05	186446.33	673160.3	-3.2417014e-05
0	0.6138127	0.6138092	-3.2151884e-10	0.046527762	0.046527762	0	62130.12	62129.773	-3.4375e-05	673264	186069.52	-0.00029175312	186073.8	673263.56	-0.00016856847
0	0.61361897	0.6136157	-4.9464436e-11	0.04638618	0.04638618	0	62110.516	62110.176	-6.5625e-06	673367.5	185694.75	-3.349758e-05	185699.05	673367.1	-3.0255878e-05
0	0.6134258	0.6134224	-4.987664e-10	0.046244707	0.04624471	0	62090.945	62090.617	-5.375e-05	673470.7	185321	-0.00031336446	185325.3	673470.4	-0.0004170989
0	0.6132324	0.613229	-2.720544e-10	0.046103448	0.04610345	0	62071.383	62071.035	-2.71875e-05	673573.6	184947.39	-0.000249611	184951.67	673573.1	-0.00012102351
0	0.61303717	0.61303365	-2.2258996e-10	0.045961928	0.045961928	0	62051.62	62051.277	-2.375e-05	673677.06	184570.58	-0.00010805671	184574.86	673676.7	-0.00020314661
0	0.6128427	0.61283934	-5.193766e-10	0.04582056	0.04582056	0	62031.938	62031.6	-4.84375e-05	673779.94	184195.58	-0.00039008472	184199.86	673779.56	-0.00031984787
0	0.61264664	0.6126433	-4.3693585e-10	0.0456791	0.045679096	0	62012.094	62011.754	-4.0625e-05	673883.3	183817.75	-0.0003349758	183822.06	673882.9	-0.00028094745
0	0.61245066	0.61244726	-1.360272e-10	0.04553762	0.04553763	0	61992.254	61991.914	-1.25e-05	673986.3	183440.33	-0.00023124136	183444.62	673985.9	3.8900416e-05
0	0.61225396	0.6122507	-7.831869e-10	0.04539626	0.045396265	0	61972.348	61972.004	-7.78125e-05	674089.4	183061.97	-0.0006472597	183066.23	674088.9	-0.0004365491
0	0.6120576	0.61205435	-2.5144423e-10	0.04525479	0.04525479	0	61952.477	61952.13	-2.53125e-05	674191.9	182684.42	-0.000289592	182688.7	674191.56	-5.8350623e-05
0	0.6118595	0.6118561	-5.770851e-10	0.04511347	0.04511347	0	61932.41	61932.066	-5.96875e-05	674295.06	182303.84	-0.0005057054	182308.14	674294.6	-0.00035658714
0	0.6116616	0.6116582	-6.925021e-10	0.04497199	0.044972	0	61912.383	61912.047	-7.09375e-05	674397.9	181924.06	-0.00058998965	181928.33	674397.5	-0.0004235823
0	0.6114628	0.61145955	-5.3586474e-10	0.04483065	0.04483065	0	61892.27	61891.926	-5.5e-05	674500.75	181543.02	-0.00038360132	181547.3	674500.3	-0.00039332642
0	0.6112635	0.6112602	-4.2456974e-10	0.044689175	0.044689175	0	61872.086	61871.754	-4.125e-05	674603.6	181161.03	-0.00033605637	181165.33	674603.1	-0.00025501385