# t (s)	mx ()	my ()	mz ()	B_extx (T)	B_exty (T)	B_extz (T)	m_fullx (A/m)	m_fully (A/m)	m_fullz (A/m)	m_full.region1x (A/m)	m_full.region1y (A/m)	m_full.region1z (A/m)	m_full.region2x (A/m)	m_full.region2y (A/m)	m_full.region2z (A/m)
0	0.6626316	0.66262794	7.852539e-12	0.070710704	0.070710704	0	106393.78	106393.2	1.3928749e-06	603961.1	323719.84	-2.2523605e-05	323723.06	603959.3	1.028224e-05
0	0.6624364	0.66243523	-2.2346425e-10	0.07035722	0.07035722	0	106362.43	106362.24	-3.4860226e-05	604158.6	323251.28	-0.00022305179	323252.28	604158.06	-0.00010355652
0	0.6622362	0.66223526	1.561831e-11	0.07000352	0.07000352	0	106330.305	106330.13	9.006746e-07	604364.8	322764.97	-3.919712e-05	322765.9	604364.25	6.619023e-05
0	0.66203433	0.66203326	-2.7682687e-10	0.06965005	0.06965005	0	106297.89	106297.72	-4.365708e-05	604570.9	322276.3	-0.00014184917	322277.22	604570.3	-0.0002426217
0	0.6618329	0.66183186	-3.33424e-11	0.06929643	0.06929643	0	106265.54	106265.37	-5.813353e-06	604777.9	321787.2	4.1721563e-05	321788.12	604777.4	-0.00010177095
0	0.66162616	0.661625	-2.832213e-10	0.068942994	0.068942994	0	106232.34	106232.16	-4.8337162e-05	604987.1	321288.38	-0.00042857826	321289.25	604986.7	-1.9656605e-05
0	0.6614244	0.66142327	-2.7870722e-10	0.06858929	0.06858929	0	106199.95	106199.78	-4.109411e-05	605192.94	320800.28	-0.00030087717	320801.25	605192.4	-7.788947e-05
0	0.6612177	0.66121656	-1.7600696e-10	0.06823583	0.06823583	0	106166.75	106166.59	-2.9687144e-05	605402	320301.78	-9.366985e-05	320302.75	605401.44	-0.00015808464
0	0.6610106	0.6610095	-2.3518248e-10	0.067882195	0.067882195	0	106133.52	106133.33	-3.4886612e-05	605610.2	319803.7	-0.00016113355	319804.62	605609.6	-0.00015708402
0	0.66080153	0.66080046	-5.442548e-10	0.06752872	0.06752872	0	106099.95	106099.78	-8.609299e-05	605819.2	319302.03	-0.00033004864	319303	605818.7	-0.0004578828
0	0.66059124	0.6605901	-3.3272277e-10	0.06717502	0.06717502	0	106066.16	106065.99	-5.604066e-05	606029.7	318796.97	-0.00018529515	318797.9	606029.1	-0.0002941502
0	0.66037923	0.66037804	-2.7922187e-10	0.066821605	0.066821605	0	106032.14	106031.95	-3.800321e-05	606241.2	318288.78	-0.00016818596	318289.75	606240.56	-0.00020337761
0	0.6601677	0.6601666	-6.998356e-10	0.066468135	0.066468135	0	105998.19	105998.016	-0.00010954878	606449.75	317784.12	-0.00053214765	317785.16	606449.2	-0.00047264792
0	0.6599531	0.659952	-2.6178912e-10	0.06611443	0.06611443	0	105963.71	105963.55	-4.038698e-05	606661.7	317271.62	-0.00014553862	317272.62	606661.1	-0.00021578155
0	0.65973824	0.6597371	1.07064003e-10	0.065760985	0.065760985	0	105929.22	105929.04	1.6675607e-05	606872.75	316759.75	0.00013625459	316760.75	606872.06	1.1658798e-05
0	0.6595208	0.65951973	-2.8320699e-10	0.06540732	0.06540732	0	105894.33	105894.14	-4.944402e-05	607085.6	316242.66	-0.00014277219	316243.6	607085	-0.00026469328
0	0.6593016	0.65930027	1.2638052e-10	0.0650539	0.0650539	0	105859.09	105858.914	2.526442e-05	607298.5	315722.62	0.00010624893	315723.62	607297.9	0.000104538616
0	0.65908396	0.65908283	-9.5437096e-11	0.064700216	0.064700216	0	105824.16	105823.98	-1.7469472e-05	607510.8	315205.72	-0.00016376855	315206.72	607510.25	1.9701496e-05
0	0.65885985	0.65885866	-5.4984295e-10	0.06434676	0.06434676	0	105788.18	105787.99	-9.315704e-05	607726.06	314676.6	-0.00036339773	314677.6	607725.56	-0.0004544613
0	0.65864056	0.6586394	-3.5653155e-10	0.0639931	0.0639931	0	105752.98	105752.78	-5.5987213e-05	607938.56	314157.2	-0.00035948775	314158.22	607938	-0.00012793287
0	0.6584139	0.6584127	-6.978755e-11	0.06363964	0.06363964	0	105716.57	105716.4	-1.213374e-05	608154.5	313623.75	-0.00016998003	313624.75	608153.94	6.992843e-05
0	0.6581916	0.6581905	-8.868334e-11	0.06328595	0.06328595	0	105680.875	105680.7	-1.3380539e-05	608368.5	313098.62	-7.8523124e-05	313099.62	608367.94	-3.965031e-05
0	0.6579655	0.65796435	-1.2387272e-10	0.0629325	0.0629325	0	105644.59	105644.4	-2.0200729e-05	608583.56	312567.06	-0.00016511267	312568.1	608583	-1.5698759e-05
0	0.65773755	0.6577364	-9.322382e-12	0.06257904	0.06257904	0	105607.98	105607.78	-1.5269331e-06	608799.25	312032.22	2.4134522e-06	312033.22	608798.7	6.4568558e-06
0	0.6575075	0.6575064	-5.8229566e-10	0.062225346	0.062225346	0	105571.04	105570.86	-9.681652e-05	609016.2	311493.2	-0.00042072663	311494.25	609015.6	-0.00042646867
0	0.65727687	0.6572758	-3.295709e-10	0.06187191	0.06187191	0	105534.016	105533.82	-5.4397035e-05	609232.56	310954	-0.0003369019	310955.03	609232	-0.00017627046
0	0.65704495	0.6570438	-3.4483308e-10	0.061518222	0.061518222	0	105496.78	105496.6	-5.446328e-05	609450.1	310411.78	-0.00023952323	310412.8	609449.5	-0.00026326568
0	0.6568106	0.6568094	-2.1174792e-10	0.061164826	0.061164826	0	105459.15	105458.98	-3.3626788e-05	609668.9	309864.97	-2.8172148e-05	309866.03	609668.25	-0.000261011
0	0.6565753	0.656574	-5.546955e-10	0.060811136	0.060811136	0	105421.37	105421.18	-8.831959e-05	609886.2	309318.12	-0.0005316962	309319.2	609885.6	-0.00029377357
0	0.6563392	0.65633804	-1.2474496e-10	0.060457677	0.060457677	0	105383.47	105383.27	-2.1479173e-05	610105.06	308768.78	-7.442822e-05	308769.84	610104.5	-0.00013171078
0	0.6560983	0.6560971	-3.9271816e-10	0.06010401	0.06010401	0	105344.78	105344.6	-6.056547e-05	610326.94	308209.6	-0.0002675554	308210.7	610326.4	-0.0002770505
0	0.6558609	0.65585977	-1.4840705e-10	0.05975055	0.05975055	0	105306.67	105306.48	-2.3810804e-05	610544.4	307659.75	-0.00011778082	307660.94	610543.8	-0.00011663486
0	0.6556165	0.6556154	-3.082306e-10	0.059396874	0.059396874	0	105267.445	105267.24	-5.0202576e-05	610765.75	307096.34	-0.00013748951	307097.4	610765.2	-0.00030573524
0	0.6553766	0.65537536	-2.461572e-10	0.059043404	0.059043404	0	105228.9	105228.71	-4.0451e-05	610985.3	306540.84	-0.00019653201	306541.9	610984.7	-0.00016379196
0	0.6551321	0.6551309	-3.8873418e-10	0.05868994	0.05868994	0	105189.66	105189.45	-6.249287e-05	611206.2	305977.62	-0.00037209928	305978.66	611205.6	-0.00020100133
0	0.65488607	0.65488493	-1.4578577e-10	0.05833627	0.05833627	0	105150.15	105149.98	-2.3723573e-05	611427.8	305411.66	-0.00010342299	305412.75	611427.25	-9.802357e-05
0	0.65463805	0.6546368	-3.8763923e-10	0.057982814	0.057982814	0	105110.31	105110.14	-6.41284e-05	611650.25	304841.9	-0.00037195603	304843	611649.7	-0.00019417368
0	0.65438956	0.65438837	-2.8584074e-10	0.057629142	0.057629142	0	105070.42	105070.24	-4.4511926e-05	611872.25	304272.12	-0.00035912308	304273.2	611871.6	-5.9983675e-05
0	0.65413857	0.6541374	-1.04426405e-10	0.057275668	0.057275668	0	105030.11	105029.94	-2.0815882e-05	612095.75	303697.16	-9.068404e-05	303698.28	612095.2	-7.574683e-05
0	0.6538862	0.65388495	-1.5583373e-10	0.056922063	0.056922063	0	104989.6	104989.41	-2.6732247e-05	612319.1	303120.44	-0.00020219677	303121.53	612318.5	-3.626436e-05
0	0.65363216	0.653631	-2.0222485e-10	0.0565686	0.0565686	0	104948.82	104948.63	-3.3185817e-05	612542.94	302541	-5.0575134e-05	302542.16	612542.4	-0.00025724614
0	0.6533767	0.65337545	-5.0196397e-10	0.056214936	0.056214936	0	104907.8	104907.59	-7.604418e-05	612767.06	301959.25	-0.00038879085	301960.3	612766.44	-0.00034509366
0	0.6531181	0.6531168	-2.3683783e-10	0.05586146	0.05586146	0	104866.27	104866.07	-3.7294896e-05	612993.75	301370.47	-0.00026630526	301371.56	612993.1	-7.327212e-05
0	0.6528599	0.6528586	-3.8834855e-10	0.055507805	0.055507805	0	104824.81	104824.61	-6.137383e-05	613217.1	300785.66	-0.00025513986	300786.8	613216.4	-0.00028644028
0	0.65259975	0.65259856	-6.9165845e-10	0.055154327	0.055154327	0	104783.05	104782.85	-0.000110453664	613442.9	300195.66	-0.0005046348	300196.75	613442.25	-0.0005057594
0	0.6523376	0.6523365	-2.356886e-10	0.054800846	0.054800846	0	104740.96	104740.75	-3.8666974e-05	613668.8	299602.7	-0.00022166217	299603.8	613668.2	-0.00010570544
0	0.6520722	0.652071	-2.525168e-10	0.05444718	0.05444718	0	104698.336	104698.13	-4.2020183e-05	613897.4	299002.56	-0.00017726529	299003.75	613896.8	-0.00021688288
0	0.65180755	0.6518064	-5.2783267e-10	0.054093722	0.054093722	0	104655.86	104655.66	-8.803436e-05	614122.6	298406.88	-0.00050563435	298407.97	614122	-0.00028645436
0	0.6515396	0.6515384	7.4340194e-11	0.053740054	0.053740054	0	104612.83	104612.63	1.0177813e-05	614350.1	297804.2	6.974913e-05	297805.34	614349.5	4.1057498e-05
0	0.6512714	0.6512701	-4.0476056e-10	0.053386588	0.053386588	0	104569.76	104569.55	-6.381984e-05	614577.75	297201.06	-0.0003404102	297202.22	614577.1	-0.00026292726
0	0.65099996	0.6509988	-5.752487e-10	0.053032987	0.053032987	0	104526.2	104525.984	-9.02888e-05	614806.7	296592.2	-0.00043390458	296593.34	614806.1	-0.00041005787
0	0.6507267	0.65072536	-1.6500262e-10	0.05267951	0.05267951	0	104482.305	104482.1	-2.685152e-05	615035.2	295980.94	-0.00012257976	295982.1	615034.6	-0.000114802315
0	0.65045154	0.65045035	-7.279765e-10	0.05232584	0.05232584	0	104438.125	104437.94	-0.00011968841	615264.7	295366.44	-0.00045251803	295367.56	615264.06	-0.00062456675
0	0.6501765	0.6501753	-4.4344148e-10	0.05197238	0.05197238	0	104393.98	104393.766	-7.3618845e-05	615494.25	294751.78	-0.00031202688	294752.94	615493.7	-0.0003433801
0	0.64989704	0.64989567	-3.7561781e-10	0.051618718	0.051618718	0	104349.086	104348.89	-5.104798e-05	615726.4	294128.3	-0.00018710781	294129.4	615725.75	-0.00032125763
0	0.6496168	0.6496154	-1.1635402e-10	0.05126525	0.05126525	0	104304.08	104303.875	-1.8188428e-05	615957	293505.22	-6.681895e-05	293506.38	615956.4	-9.891834e-05
0	0.64933676	0.6493353	1.5883804e-10	0.05091175	0.05091175	0	104259.125	104258.914	2.3911021e-05	616186.25	292883.88	-8.427493e-05	292885.03	616185.8	0.00029980863
0	0.6490532	0.64905196	-3.793259e-10	0.0505581	0.0505581	0	104213.625	104213.41	-5.9414047e-05	616417.2	292256.16	-0.00025581414	292257.3	616416.7	-0.00029182964
0	0.6487667	0.64876544	2.9657877e-11	0.050204627	0.050204627	0	104167.61	104167.39	4.845489e-06	616649.56	291622.7	-0.00014467353	291623.88	616648.94	0.00017133156
0	0.64848036	0.6484791	-4.941989e-10	0.049850974	0.049850974	0	104121.63	104121.42	-7.478577e-05	616881.25	290990.16	-0.00035935268	290991.34	616880.56	-0.00032621107
0	0.6481913	0.64818996	-2.1209375e-10	0.049497493	0.049497493	0	104075.21	104074.984	-3.4342927e-05	617114.06	290352.4	-0.00015370634	290353.6	617113.44	-0.0001565625
0	0.6479003	0.647899	-2.3030024e-10	0.049143914	0.049143914	0	104028.49	104028.27	-3.3871907e-05	617347.7	289711.53	-4.355464e-05	289712.75	617347	-0.00026033184
0	0.64760727	0.64760596	-1.9000326e-10	0.04879043	0.04879043	0	103981.445	103981.234	-2.8919814e-05	617581.25	289067.7	-0.00023624292	289068.9	617580.6	-2.5971383e-05
0	0.64731187	0.64731055	-3.0676642e-10	0.04843677	0.04843677	0	103933.99	103933.78	-5.027164e-05	617815.6	288419.75	-0.00016189112	288420.94	617814.94	-0.00031446124
0	0.64701575	0.64701444	-1.4356757e-10	0.04808329	0.04808329	0	103886.48	103886.266	-2.3204424e-05	618049.1	287771.72	-0.00017849564	287772.94	618048.5	-3.556238e-05
0	0.6467163	0.646715	-4.3862985e-10	0.04772965	0.04772965	0	103838.4	103838.18	-7.324511e-05	618284.8	287116.94	-0.00045431702	287118.16	618284	-0.00020724026
0	0.64641577	0.6464146	-4.091168e-10	0.047376156	0.047376156	0	103790.14	103789.92	-6.2933905e-05	618519.4	286461.62	-0.0002941355	286462.84	618518.75	-0.0002890492
0	0.6461127	0.6461114	-4.8228005e-10	0.04702266	0.04702266	0	103741.484	103741.28	-7.535916e-05	618755.25	285801.4	-0.00041870587	285802.7	618754.6	-0.00028196617
0	0.6458069	0.6458055	-4.2006842e-10	0.046669014	0.046669014	0	103692.37	103692.15	-6.432256e-05	618992	285136.44	-0.00030186216	285137.7	618991.25	-0.0002960255
0	0.6455009	0.6454996	-4.0570972e-10	0.046315536	0.046315536	0	103643.25	103643.02	-6.2932624e-05	619227.56	284472.47	-0.0002449667	284473.72	619226.94	-0.0003513969
0	0.6451901	0.64518875	-3.4385123e-10	0.045961887	0.045961887	0	103593.33	103593.1	-5.299574e-05	619465.9	283799.03	-0.00029677743	283800.25	619465.25	-0.00019149814
0	0.64488155	0.64488024	-2.6682054e-10	0.045608394	0.045608394	0	103543.8	103543.57	-4.623569e-05	619701.94	283130.97	-8.885579e-05	283132.22	619701.25	-0.00032336634
0	0.64456826	0.6445669	-1.8660302e-10	0.04525483	0.04525483	0	103493.484	103493.28	-3.0054674e-05	619939.94	282454.5	-0.00018188974	282455.75	619939.25	-6.715179e-05
0	0.64425355	0.6442522	-1.11686445e-10	0.044901334	0.044901334	0	103442.96	103442.75	-1.5972586e-05	620178	281775.75	-0.00012736542	281777.03	620177.4	-4.0600116e-05
0	0.64393604	0.64393467	-5.436066e-10	0.044547696	0.044547696	0	103391.984	103391.76	-8.7875735e-05	620416.6	281092.5	-0.00057269	281093.75	620415.94	-0.00020472647
0	0.6436167	0.6436153	-7.338262e-10	0.04419421	0.04419421	0	103340.7	103340.48	-0.000116823605	620655.2	280406.88	-0.0004997226	280408.16	620654.5	-0.0005838374
0	0.6432957	0.64329433	-4.323199e-10	0.04384058	0.04384058	0	103289.17	103288.945	-6.662871e-05	620894.75	279717.9	-0.0002823841	279719.2	620894.1	-0.00031360838
0	0.6429722	0.64297074	-3.5878928e-10	0.043487065	0.043487065	0	103237.22	103236.98	-5.695026e-05	621134.3	279025.28	-0.00033801564	279026.56	621133.75	-0.00017319625
0	0.6426467	0.6426451	-1.7509195e-10	0.04313356	0.04313356	0	103184.94	103184.72	-2.6436004e-05	621374.06	278329.75	-0.00017991268	278331.06	621373.5	-7.78102e-05
0	0.64231724	0.6423158	-9.333481e-10	0.042779934	0.042779934	0	103132.06	103131.84	-0.00015168896	621615.06	277627.8	-0.0008121047	277629.06	621614.44	-0.0005628331
0	0.64198893	0.6419875	-2.3463206e-10	0.04242642	0.04242642	0	103079.34	103079.11	-3.6543224e-05	621855.1	276928.1	-4.190934e-05	276929.38	621854.3	-0.0002828884
0	0.6416547	0.6416533	-4.1697598e-10	0.04207281	0.04207281	0	103025.68	103025.445	-6.524667e-05	622098.8	276216.53	-0.00040326457	276217.88	622098.06	-0.00018168354
0	0.6413218	0.6413203	-6.399227e-10	0.041719295	0.041719295	0	102972.23	102972.01	-0.00010565673	622338.2	275510.97	-0.00042283945	275512.3	622337.56	-0.0005006854
0	0.6409825	0.640981	1.05698374e-10	0.041365758	0.041365758	0	102917.75	102917.52	1.4168441e-05	622581	274793.22	2.7720545e-05	274794.56	622580.25	0.00011948792
0	0.64064574	0.6406444	-2.4892255e-10	0.041012242	0.041012242	0	102863.69	102863.46	-3.5561057e-05	622822.8	274079.94	-0.00020199118	274081.28	622822.1	-0.00014884345
0	0.6403042	0.64030284	-8.2087054e-10	0.040658627	0.040658627	0	102808.86	102808.62	-0.00013395825	623065.5	273359.22	-0.0006942012	273360.56	623064.7	-0.00054635404
0	0.6399583	0.63995683	-5.222526e-10	0.040305126	0.040305126	0	102753.305	102753.06	-8.486739e-05	623310.9	272629.38	-0.000435105	272630.7	623310.2	-0.00035689276
0	0.6396118	0.6396103	-1.0500211e-09	0.03995151	0.03995151	0	102697.664	102697.42	-0.00017024121	623552.7	271902.4	-0.0008426877	271903.72	623552.06	-0.0006800826
0	0.6392668	0.63926536	-5.2509785e-10	0.039597988	0.039597988	0	102642.27	102642.04	-8.2671715e-05	623795.44	271176.66	-0.0003826668	271178.03	623794.8	-0.00036564612
0	0.63891214	0.63891065	-1.4458554e-10	0.03924446	0.03924446	0	102585.32	102585.086	-2.4377867e-05	624042.75	270432.8	-8.463729e-05	270434.2	624042.1	-0.00012406365
0	0.63856256	0.6385612	1.0672948e-10	0.03889085	0.03889085	0	102529.22	102528.984	1.52032535e-05	624284.3	269701.97	0.000111116235	269703.3	624283.6	4.418814e-05
0	0.6382073	0.6382059	-3.9396927e-10	0.03853732	0.03853732	0	102472.17	102471.94	-6.245038e-05	624529.56	268959.34	-0.0003345951	268960.72	624528.9	-0.00023903455
0	0.63785	0.6378485	-4.1709758e-10	0.03818373	0.03818373	0	102414.78	102414.55	-6.8668e-05	624773.94	268214.56	-0.00025560686	268215.97	624773.25	-0.0003861111
0	0.6374898	0.6374883	-1.1687715e-10	0.0378302	0.0378302	0	102356.945	102356.7	-2.0973157e-05	625019.6	267464.7	-0.00010145518	267466.1	625018.8	-7.956176e-05
0	0.63712704	0.63712555	-1.8552272e-10	0.03747659	0.03747659	0	102298.7	102298.46	-2.879583e-05	625265.4	266711.06	-0.0003014727	266712.4	625264.75	4.634719e-05
0	0.63676	0.6367585	-2.7412556e-10	0.037123155	0.037123155	0	102239.77	102239.54	-4.7848105e-05	625514.2	265948.47	-0.00027575772	265949.8	625513.5	-0.00011979873
0	0.6363943	0.63639283	-5.3173077e-10	0.036769558	0.036769558	0	102181.055	102180.83	-8.5552114e-05	625758.2	265192.47	-0.0003356204	265193.84	625757.5	-0.00044445394
0	0.63602436	0.6360229	-1.8643277e-10	0.036416043	0.036416043	0	102121.68	102121.43	-3.3294786e-05	626004.94	264427.78	-0.00021146818	264429.16	626004.25	-8.768964e-05
0	0.63565123	0.6356498	-6.5816336e-10	0.036062438	0.036062438	0	102061.76	102061.52	-0.000106928805	626252.44	263657.88	-0.0004664396	263659.3	626251.75	-0.00049751275
0	0.6352758	0.6352743	-4.0774703e-10	0.035708897	0.035708897	0	102001.47	102001.23	-6.822756e-05	626500.25	262884.5	-0.0003878197	262885.9	626499.44	-0.00021709644
0	0.63489807	0.6348965	-5.0757565e-10	0.035355352	0.035355352	0	101940.81	101940.586	-7.727324e-05	626748.06	262107.94	-0.0003781761	262109.34	626747.25	-0.00033069839
0	0.63451797	0.6345164	-4.1360335e-10	0.03500176	0.03500176	0	101879.8	101879.54	-6.5622866e-05	626996.1	261327.62	-0.00038853454	261329.03	626995.3	-0.00021551087
0	0.6341351	0.6341336	-3.5498904e-10	0.034648214	0.034648214	0	101818.31	101818.06	-6.2766536e-05	627244.56	260543.12	-0.00027834577	260544.56	627243.9	-0.00027285618
0	0.6337494	0.63374794	-1.0077595e-09	0.034294646	0.034294646	0	101756.41	101756.15	-0.00015836807	627493.25	259754.61	-0.00077956053	259756.03	627492.5	-0.0006889898
0	0.63336	0.63335854	-3.0051517e-10	0.033941098	0.033941098	0	101693.87	101693.625	-4.7770798e-05	627742.56	258960.02	-0.00033681796	258961.44	627741.9	-0.00011930784
0	0.632968	0.63296646	-2.74429e-10	0.03358751	0.03358751	0	101630.93	101630.68	-4.297995e-05	627994.4	258159.36	-0.00029472675	258160.81	627993.75	-0.00010308914
0	0.63257694	0.63257533	-2.769449e-10	0.033234067	0.033234067	0	101568.125	101567.89	-4.2168358e-05	628241.5	257364.78	-7.849136e-05	257366.22	628240.7	-0.0003250336
0	0.6321806	0.63217914	-2.3394145e-10	0.032880493	0.032880493	0	101504.516	101504.26	-3.8874612e-05	628491.5	256560.05	-0.00031968547	256561.45	628490.75	-3.6268575e-05
0	0.6317813	0.6317797	-2.9906758e-10	0.03252695	0.03252695	0	101440.37	101440.125	-4.8916692e-05	628742.25	255750.02	-0.0002446196	255751.5	628741.56	-0.00020043626
0	0.6313779	0.6313763	1.281103e-10	0.03217338	0.03217338	0	101375.62	101375.36	2.2343977e-05	628993.06	254934.55	0.0001333575	254936.03	628992.25	8.17803e-05
0	0.63097495	0.63097346	-7.481652e-11	0.03181982	0.03181982	0	101310.93	101310.67	-1.4965614e-05	629243.06	254120.42	-4.9778017e-05	254121.9	629242.4	-7.5453034e-05
0	0.63056695	0.63056535	-1.4528272e-10	0.03146625	0.03146625	0	101245.39	101245.14	-2.059511e-05	629495.2	253297	-0.00019763982	253298.47	629494.5	2.1001135e-06
0	0.63015664	0.630155	1.7162759e-10	0.031112673	0.031112673	0	101179.53	101179.266	2.6944748e-05	629746.6	252471.25	0.000103207545	252472.73	629745.94	0.00015946548
0	0.62974244	0.62974083	-2.1558391e-10	0.030759111	0.030759111	0	101113.02	101112.766	-3.4230772e-05	630000.1	251637.89	-0.00018388355	251639.38	629999.25	-0.000104248174
0	0.62932867	0.629327	1.4742639e-10	0.030405568	0.030405568	0	101046.586	101046.31	2.3272469e-05	630249.4	250809.23	0.00016367769	250810.7	630248.56	5.5167056e-05
0	0.62891	0.6289082	-3.5616451e-10	0.030052004	0.030052004	0	100979.336	100979.086	-5.726589e-05	630501.7	249970.67	-0.00032897596	249972.19	630500.9	-0.00019579996
0	0.628487	0.6284854	-2.489369e-10	0.029698437	0.029698437	0	100911.45	100911.2	-3.931213e-05	630755.2	249125.17	-0.00033196493	249126.67	630754.44	-5.991345e-05
0	0.6280613	0.6280597	-5.406764e-10	0.02934497	0.02934497	0	100843.086	100842.81	-9.056459e-05	631009.7	248274.67	-0.000557674	248276.19	631008.8	-0.00023352602
0	0.62763524	0.6276336	-2.8071528e-10	0.028991407	0.028991407	0	100774.67	100774.42	-4.2434007e-05	631260.7	247427.05	-0.00024705112	247428.6	631259.94	-0.00016718713
0	0.62720305	0.6272015	2.476189e-10	0.028637834	0.028637834	0	100705.305	100705.04	4.1161657e-05	631513.56	246569.25	4.3450487e-05	246570.78	631512.8	0.00034906567
0	0.6267712	0.62676954	-8.0414103e-10	0.0282843	0.0282843	0	100635.95	100635.69	-0.00012652749	631767.2	245710.89	-0.00061982544	245712.44	631766.5	-0.0005270843
0	0.6263343	0.62633264	-2.5017818e-10	0.02793073	0.02793073	0	100565.805	100565.53	-4.1468025e-05	632021.2	244845.27	-0.00023461215	244846.83	632020.4	-0.00012590342
0	0.62589425	0.62589264	-9.012092e-11	0.027577164	0.027577164	0	100495.14	100494.88	-1.1710788e-05	632274.94	243975.4	-0.00013687139	243976.95	632274.25	4.696493e-06
0	0.6254518	0.62545025	-3.7539127e-10	0.02722359	0.02722359	0	100424.11	100423.86	-6.286326e-05	632529.25	243101.8	-0.000302455	243103.38	632528.5	-0.00024052075
0	0.62500507	0.62500334	-4.3155973e-10	0.026870027	0.026870027	0	100352.375	100352.1	-7.484876e-05	632784.2	242221.25	-0.00039435242	242222.83	632783.44	-0.00024026565
0	0.6245564	0.6245547	-3.2293063e-10	0.026516493	0.026516493	0	100280.336	100280.06	-5.382828e-05	633038.4	241338.94	-0.00017639466	241340.53	633037.6	-0.0003195084
0	0.624104	0.62410235	-4.1209886e-10	0.02616292	0.02616292	0	100207.7	100207.43	-6.6046196e-05	633293.2	240450.83	-0.00031714857	240452.39	633292.4	-0.0002995189
0	0.6236485	0.62364686	-7.64716e-10	0.025809359	0.025809359	0	100134.56	100134.29	-0.000119839824	633548.8	239557.6	-0.00067102135	239559.2	633547.94	-0.00042923566
0	0.6231887	0.6231871	-4.3102785e-10	0.025455875	0.025455875	0	100060.75	100060.46	-7.091854e-05	633804.3	238658.38	-0.0003987376	238659.95	633803.56	-0.00023082917
0	0.62272495	0.6227232	-2.612454e-10	0.025102314	0.025102314	0	99986.27	99986.01	-3.8496477e-05	634062.2	237751.12	-0.00023773802	237752.73	634061.4	-0.000107244865
0	0.62226295	0.62226117	-1.7532774e-10	0.024748746	0.024748746	0	99912.09	99911.82	-2.8604076e-05	634315.1	236851.34	-4.9031107e-05	236852.98	634314.3	-0.00021142092
0	0.6217917	0.62178993	-3.8334605e-10	0.024395214	0.024395214	0	99836.43	99836.16	-6.000797e-05	634573.75	235932.95	-0.0003116462	235934.55	634573	-0.00022462285
0	0.62132245	0.6213207	-5.027247e-10	0.024041645	0.024041645	0	99761.086	99760.81	-8.365425e-05	634827.4	235022.38	-0.00042532734	235023.97	634826.6	-0.00034153054
0	0.62084687	0.62084514	-2.944832e-10	0.023688078	0.023688078	0	99684.71	99684.445	-5.0231596e-05	635084.25	234099.78	-0.00034374147	234101.42	635083.3	-9.5504314e-05
0	0.62036836	0.62036663	-2.8475333e-10	0.023334507	0.023334507	0	99607.89	99607.62	-4.6589932e-05	635340.7	233173.47	-0.00027481926	233175.12	635339.75	-0.00014889272
0	0.6198872	0.61988544	-2.746969e-10	0.022980943	0.022980943	0	99530.625	99530.336	-4.445826e-05	635596.5	232243.81	-0.00029394266	232245.44	635595.7	-0.00011032261
0	0.61939895	0.6193972	-4.9593035e-10	0.022627415	0.022627415	0	99452.25	99451.97	-8.2778e-05	635856.56	231300.33	-0.00039281748	231301.97	635855.75	-0.0003343395
0	0.61891186	0.61891013	-5.5799837e-10	0.022273848	0.022273848	0	99374.03	99373.74	-8.628659e-05	636111.06	230363.92	-0.0005778962	230365.55	636110.25	-0.00023266672
0	0.6184176	0.61841583	-5.2187077e-10	0.02192029	0.02192029	0	99294.69	99294.4	-8.179101e-05	636368.7	229414.31	-0.000457289	229416	636367.9	-0.00030242832
0	0.61792064	0.61791885	-4.0061737e-10	0.02156678	0.02156678	0	99214.88	99214.61	-6.523865e-05	636628.56	228458.77	-0.0003192391	228460.45	636627.7	-0.00026895668
0	0.6174234	0.6174217	-4.342474e-10	0.02121321	0.02121321	0	99135.055	99134.76	-6.547232e-05	636883.75	227507.34	-0.00043016035	227509.03	636882.94	-0.000176337
0	0.61692023	0.6169184	-5.756618e-11	0.020859648	0.020859648	0	99054.25	99053.96	-6.519083e-06	637141.56	226545.02	-3.9384863e-06	226546.67	637140.75	-4.7332844e-05
0	0.6164111	0.6164093	-1.4691195e-10	0.020506121	0.020506121	0	98972.51	98972.22	-2.3559376e-05	637401.7	225572.14	-0.00019661026	225573.83	637400.8	-4.4959766e-06
0	0.61590296	0.61590123	-2.6835825e-10	0.020152563	0.020152563	0	98890.914	98890.625	-4.2940817e-05	637657.4	224605.11	-0.00016862182	224606.83	637656.5	-0.00023184929
0	0.61538833	0.6153865	-4.7028288e-11	0.019798994	0.019798994	0	98808.29	98807.99	-1.2094986e-05	637915.3	223626.61	-0.0001814226	223628.33	637914.5	9.4827934e-05
0	0.6148708	0.6148689	-1.9817396e-10	0.019445425	0.019445425	0	98725.19	98724.9	-3.2753287e-05	638173.6	222643.73	-0.0002891453	222645.47	638172.75	-6.9864523e-06
0	0.61434793	0.61434615	-1.5851453e-10	0.019091865	0.019091865	0	98641.25	98640.95	-2.8071207e-05	638432.2	221653.3	-0.00012232669	221654.98	638431.3	-9.98455e-05
0	0.6138234	0.61382157	-3.626509e-10	0.018738296	0.018738296	0	98557.02	98556.73	-5.4102515e-05	638690.75	220660.38	-0.00028373572	220662.1	638689.9	-0.00023215872
0	0.6132922	0.6132905	-3.3986736e-10	0.018384779	0.018384779	0	98471.74	98471.45	-5.386107e-05	638949.56	219657.9	-0.00040662393	219659.66	638948.75	-0.000112182635
0	0.61276037	0.61275846	-3.484641e-10	0.018031219	0.018031219	0	98386.336	98386.04	-5.27271e-05	639208.3	218654.48	-0.00017506027	218656.25	639207.3	-0.00032977466
0	0.6122235	0.6122217	-2.8882063e-11	0.017677676	0.017677676	0	98300.14	98299.86	-7.336587e-08	639467.3	217644.02	-7.6501994e-05	217645.78	639466.44	5.1493054e-05
0	0.6116829	0.611681	-6.028307e-10	0.017324107	0.017324107	0	98213.336	98213.03	-9.455969e-05	639726.1	216628.19	-0.00037403277	216629.94	639725.25	-0.00047831878
0	0.6111366	0.6111348	-1.7095192e-10	0.016970549	0.016970549	0	98125.63	98125.31	-3.025085e-05	639985.8	215603.67	-0.00018098432	215605.45	639984.94	-6.988679e-05
0	0.6105849	0.61058307	-5.169576e-10	0.016617034	0.016617034	0	98037.05	98036.74	-8.313729e-05	640247.8	214569.3	-0.00037128193	214571.1	640246.94	-0.00040794225
0	0.61003464	0.6100328	-2.656087e-10	0.016263476	0.016263476	0	97948.69	97948.38	-4.2219675e-05	640505	213541.66	-0.00032075212	213543.45	640504.2	-6.850014e-05
0	0.6094782	0.6094763	-2.528224e-10	0.01590991	0.01590991	0	97859.34	97859.04	-4.036729e-05	640763.8	212503.9	-0.00016545366	212505.72	640762.94	-0.00021629086
0	0.6089167	0.6089148	-4.877067e-10	0.015556336	0.015556336	0	97769.2	97768.9	-8.0179554e-05	641023.25	211458.4	-0.0004050611	211460.23	641022.4	-0.00031237875
0	0.60835105	0.60834914	-2.8297517e-10	0.015202784	0.015202784	0	97678.375	97678.06	-4.4656263e-05	641283.06	210406.61	-0.00028748292	210408.42	641282.2	-0.0001414673
0	0.6077808	0.6077789	-3.7382242e-10	0.014849219	0.014849219	0	97586.8	97586.484	-6.17302e-05	641542.75	209348.47	-0.00034729036	209350.31	641541.9	-0.00018219516
0	0.607206	0.60720396	-5.3860816e-10	0.014495703	0.014495703	0	97494.49	97494.19	-8.9293535e-05	641802.94	208283.55	-0.0006250574	208285.36	641802.06	-0.00018596313
0	0.60662603	0.6066241	-2.834144e-10	0.01414215	0.01414215	0	97401.414	97401.086	-4.9100683e-05	642063.1	207211.62	-0.0004713114	207213.52	642062.25	5.2743006e-05
0	0.606046	0.6060442	-2.8080538e-10	0.013788582	0.013788582	0	97308.266	97307.95	-5.021317e-05	642322.56	206140.03	-0.00029772907	206141.89	642321.7	-0.00010491018
0	0.60545886	0.6054568	-2.4604077e-10	0.013435014	0.013435014	0	97213.97	97213.66	-3.8276186e-05	642582.8	205057.69	-0.00021298023	205059.56	642581.8	-0.00014193213
0	0.6048676	0.6048656	-1.4622144e-10	0.01308146	0.01308146	0	97119.055	97118.72	-2.1381953e-05	642842.94	203969.75	-1.3167575e-05	203971.66	642842	-0.00018008478
0	0.6042716	0.6042696	-2.6709865e-10	0.012727938	0.012727938	0	97023.375	97023.04	-4.153162e-05	643103	202875.38	-0.00021221837	202877.28	643102	-0.00017445479
0	0.6036713	0.60366917	-2.7408933e-10	0.012374373	0.012374373	0	96926.96	96926.64	-4.054557e-05	643363.06	201774.69	-0.00028663684	201776.58	643362.2	-7.9119694e-05
0	0.60306567	0.60306364	-4.8675647e-10	0.012020823	0.012020823	0	96829.73	96829.38	-7.8618075e-05	643623.9	200666.02	-0.00046362684	200667.92	643622.9	-0.0002889611
0	0.6024555	0.60245335	-4.1853862e-10	0.011667253	0.011667253	0	96731.75	96731.42	-6.568061e-05	643883.75	199552.02	-0.00034030344	199553.92	643882.7	-0.00025975142
0	0.60184205	0.6018399	-2.653908e-10	0.011313708	0.011313708	0	96633.266	96632.93	-3.9462473e-05	644144.44	198432.45	-0.00024432206	198434.39	644143.44	-0.000128518
0	0.6012219	0.6012199	-2.6946897e-10	0.010960145	0.010960145	0	96533.695	96533.375	-4.2996882e-05	644405.44	197303.31	-0.00030814268	197305.27	644404.5	-7.6757235e-05
0	0.600599	0.60059685	1.1543213e-10	0.010606605	0.010606605	0	96433.664	96433.33	1.72656e-05	644665.56	196171.1	-3.8836908e-05	196173.02	644664.6	0.00020327224
0	0.5999702	0.5999682	-4.4630163e-10	0.010253061	0.010253061	0	96332.71	96332.38	-7.324686e-05	644926.06	195030.34	-0.00044879963	195032.31	644925.1	-0.0001915692
0	0.5993349	0.59933275	-2.7865354e-10	0.009899497	0.009899497	0	96230.71	96230.37	-4.3339904e-05	645189.7	193877.17	-0.00023727732	193879.16	645188.6	-0.00015526143
0	0.5986992	0.598697	-5.425728e-10	0.0095459325	0.0095459325	0	96128.64	96128.305	-8.548754e-05	645447.56	192729.33	-0.00059108296	192731.33	645446.5	-0.00018891333
0	0.59805316	0.598051	-4.5571472e-10	0.009192389	0.009192389	0	96024.92	96024.58	-7.3237614e-05	645710.94	191561.42	-0.0004245055	191563.42	645710	-0.00023275887
0	0.5974079	0.5974056	-5.4189564e-10	0.008838838	0.008838838	0	95921.3	95920.945	-8.648883e-05	645969.06	190399.86	-0.000479528	190401.89	645968.06	-0.0003100943
0	0.59675175	0.59674966	-3.025819e-10	0.008485274	0.008485274	0	95815.96	95815.61	-4.6556794e-05	646232.7	189217.78	-0.00038380426	189219.78	646231.7	-3.91226e-05
0	0.59609354	0.59609145	-3.999044e-10	0.008131738	0.008131738	0	95710.27	95709.93	-6.3882835e-05	646493.3	188035.7	-0.00035199235	188037.73	646492.2	-0.00021055869
0	0.5954299	0.5954277	-4.6230983e-10	0.007778168	0.007778168	0	95603.72	95603.37	-6.812171e-05	646754.2	186845.62	-0.00028110485	186847.7	646753.2	-0.00033476538
0	0.5947638	0.5947616	-4.3184636e-10	0.0074246093	0.0074246093	0	95496.766	95496.4	-6.679478e-05	647011.94	185655.23	-0.00041845793	185657.33	647010.94	-0.00020786824
0	0.59408873	0.5940865	-1.583899e-10	0.007071075	0.007071075	0	95388.38	95388.02	-2.2754004e-05	647273.7	184448.6	-0.0002985095	184450.69	647272.6	0.0001238966