# t (s)	mx ()	my ()	mz ()	B_extx (T)	B_exty (T)	B_extz (T)	m_fullx (A/m)	m_fully (A/m)	m_fullz (A/m)	m_full.region1x (A/m)	m_full.region1y (A/m)	m_full.region1z (A/m)	m_full.region2x (A/m)	m_full.region2y (A/m)	m_full.region2z (A/m)
0	0.6438542	0.6438525	-6.800901e-10	0.070710965	0.070710965	0	62189.11	62188.945	-6.72e-05	631492.94	269901.6	-0.00053339516	269903.06	631491.9	-0.00047215619
0	0.6436031	0.64360213	-4.976269e-10	0.07035703	0.07035703	0	62164.848	62164.758	-4.76e-05	631681.3	269362.28	-0.00025510203	269363	631680.7	-0.00045222635
0	0.64334536	0.6433444	-2.5434263e-10	0.07000352	0.07000352	0	62139.957	62139.87	-2.48e-05	631876.1	268806.66	-0.00020871985	268807.38	631875.56	-0.00013588532
0	0.64309084	0.6430899	-2.8198857e-10	0.06965008	0.06965008	0	62115.375	62115.29	-3.28e-05	632069.5	268256.97	-0.00020871985	268257.7	632068.94	-0.00026343635
0	0.64283323	0.6428323	-3.4280964e-10	0.06929643	0.069296435	0	62090.484	62090.4	-3.56e-05	632263.56	267702.25	-0.0002435065	267702.94	632262.94	-0.00026053746
0	0.6425734	0.6425726	-3.9257234e-10	0.06894301	0.06894301	0	62065.4	62065.316	-3.92e-05	632458.4	267143.66	-0.00027829313	267144.4	632457.9	-0.00031452923
0	0.64231247	0.6423115	-2.8751776e-10	0.068589464	0.068589464	0	62040.184	62040.094	-2.48e-05	632652.94	266583.72	-0.00014494434	266584.47	632652.44	-0.00022756262
0	0.64204985	0.642049	-3.4833883e-10	0.06823557	0.06823557	0	62014.824	62014.74	-3.28e-05	632848.5	266020.53	-0.00023191095	266021.28	632847.94	-0.00025800092
0	0.6417867	0.6417858	-3.3728045e-10	0.0678824	0.0678824	0	61989.402	61989.316	-3.52e-05	633043.1	265457.6	-0.00017393321	265458.38	633042.5	-0.00035511365
0	0.64151865	0.6415178	-2.1010914e-10	0.06752851	0.06752851	0	61963.516	61963.438	-2.24e-05	633239.9	264885.56	-0.00013914656	264886.3	633239.25	-0.00017465794
0	0.64125377	0.6412528	-5.252728e-10	0.067174956	0.06717496	0	61937.93	61937.832	-5.12e-05	633435.4	264319.1	-0.00035946196	264319.84	633434.8	-0.00038156597
0	0.6409858	0.64098483	-3.5386802e-10	0.066821866	0.066821866	0	61912.05	61911.957	-3.44e-05	633630.75	263748.5	-0.00032467532	263749.28	633630.25	-0.00018118042
0	0.6407148	0.6407139	-2.4051966e-10	0.066467986	0.066467986	0	61885.875	61885.78	-2.12e-05	633828.4	263171.62	-0.00017393321	263172.38	633827.8	-0.00015871406
0	0.64044553	0.6404445	-3.2622208e-10	0.06611443	0.06611443	0	61859.87	61859.785	-2.96e-05	634023.44	262599.53	-0.00018552876	262600.3	634022.94	-0.00021524234
0	0.64017326	0.6401723	-3.7598477e-10	0.065760955	0.06576096	0	61833.562	61833.473	-3.56e-05	634220.1	262021.66	-0.0002203154	262022.44	634219.5	-0.0003340967
0	0.6398995	0.63989854	-5.2250826e-10	0.06540739	0.06540739	0	61807.133	61807.035	-4.56e-05	634416.6	261441.9	-0.00032467532	261442.69	634416.06	-0.00040584416
0	0.6396242	0.63962317	-3.649264e-10	0.065053925	0.065053925	0	61780.53	61780.434	-3.28e-05	634613.44	260859.58	-0.00040584416	260860.34	634612.9	-0.00012972519
0	0.63934743	0.6393463	-1.8522779e-10	0.064700335	0.064700335	0	61753.793	61753.7	-1.8e-05	634810.8	260274.67	-0.00017393321	260275.48	634810.2	-0.00010218576
0	0.6390676	0.63906664	-4.146891e-10	0.06434651	0.06434651	0	61726.773	61726.68	-3.92e-05	635008.56	259685.33	-0.0003304731	259686.1	635007.94	-0.00026887175
0	0.63878816	0.63878715	-3.096345e-10	0.063993305	0.063993305	0	61699.785	61699.688	-3e-05	635205.94	259096.7	-0.00033627087	259097.5	635205.3	-0.00012392741
0	0.63850516	0.6385042	-2.3775507e-10	0.06363946	0.06363946	0	61672.457	61672.35	-2.36e-05	635405.44	258501.03	-0.0002203154	258501.84	635404.75	-0.0001369724
0	0.6382251	0.63822407	-3.7598477e-10	0.06328587	0.06328587	0	61645.39	61645.293	-3.56e-05	635601.4	257912.97	-0.00026669758	257913.8	635600.7	-0.00027829313
0	0.6379407	0.63793975	-7.298528e-10	0.06293276	0.06293277	0	61617.938	61617.84	-6.84e-05	635799.44	257316.78	-0.0005449907	257317.6	635798.9	-0.00053375756
0	0.63765484	0.63765377	-4.589226e-10	0.06257895	0.06257895	0	61590.312	61590.215	-4.2e-05	635997.94	256717.97	-0.00025510203	256718.77	635997.3	-0.000390625
0	0.63736695	0.6373659	5.529188e-11	0.062225346	0.062225346	0	61562.508	61562.406	3.6e-06	636196.75	256116.08	2.3191094e-05	256116.89	636196.1	3.9859693e-05
0	0.6370763	0.6370753	-4.6998094e-10	0.061871838	0.061871838	0	61534.438	61534.332	-4.52e-05	636395.75	255510.28	-0.00040004638	255511.08	636395.1	-0.00029496173
0	0.6367847	0.6367836	-4.589226e-10	0.061518345	0.061518338	0	61506.26	61506.164	-4.48e-05	636594.94	254902.67	-0.00034206864	254903.5	636594.44	-0.00034279336
0	0.636494	0.63649297	-6.303274e-10	0.061164845	0.061164845	0	61478.195	61478.09	-5.92e-05	636793.6	254297.1	-0.00020871985	254297.94	636793.06	-0.0007000812
0	0.63620114	0.6362	-3.7045558e-10	0.060811218	0.060811218	0	61449.902	61449.797	-3.72e-05	636992.75	253688	-0.00028988867	253688.83	636992.1	-0.00025872566
0	0.635906	0.6359049	-3.649264e-10	0.060457423	0.060457423	0	61421.402	61421.29	-3.6e-05	637192.25	253075.28	-0.00021451763	253076.11	637191.6	-0.00030655728
0	0.63560724	0.63560617	-3.7322018e-10	0.060104214	0.060104214	0	61392.54	61392.44	-3.84e-05	637393.25	252455.98	-0.00034786641	252456.83	637392.6	-0.00020437152
0	0.63531053	0.63530946	-3.3728045e-10	0.059750438	0.059750438	0	61363.88	61363.78	-3.32e-05	637591.5	251842.42	-0.00019132653	251843.3	637590.9	-0.00027177064
0	0.63500714	0.63500607	-3.151637e-10	0.0593968	0.0593968	0	61334.58	61334.473	-3e-05	637792.8	251216.39	-0.00014494434	251217.22	637792.1	-0.00030510785
0	0.63470566	0.6347046	-4.810393e-10	0.05904367	0.05904367	0	61305.46	61305.355	-4.76e-05	637993.7	250593.31	-0.0003710575	250594.22	637993.06	-0.00032648712
0	0.6344037	0.6344027	-3.096345e-10	0.05868992	0.05868991	0	61276.297	61276.19	-3.12e-05	638193.2	249971.25	-0.00017973098	249972.11	638192.5	-0.00027611898
0	0.63409954	0.63409853	-1.4652347e-10	0.05833626	0.05833626	0	61246.918	61246.812	-1.36e-05	638392.5	249346.11	-1.1595547e-05	249347	638391.75	-0.00020654568
0	0.6337922	0.63379115	-2.5987182e-10	0.057982706	0.057982706	0	61217.23	61217.117	-2.6e-05	638593.6	248714.52	-0.00021451763	248715.42	638593.06	-0.0001768321
0	0.6334839	0.6334827	-4.2021828e-10	0.057629295	0.057629295	0	61187.445	61187.34	-4.04e-05	638794.3	248082.27	-0.00034786641	248083.14	638793.56	-0.0002804673
0	0.6331716	0.6331705	-4.672164e-10	0.05727573	0.057275724	0	61157.29	61157.188	-4.12e-05	638996.7	247442.69	-0.00031307977	247443.56	638996.06	-0.00032974838
0	0.6328617	0.6328606	-2.3222589e-10	0.056922074	0.056922074	0	61127.348	61127.242	-1.84e-05	639196.25	246809.2	-0.00016813543	246810.08	639195.56	-0.00011378131
0	0.6325472	0.63254607	-2.65401e-10	0.05656836	0.056568358	0	61096.977	61096.867	-2.8e-05	639397.7	246167.48	-0.00016233766	246168.4	639397	-0.000223939
0	0.63223207	0.632231	-5.1421445e-10	0.05621511	0.05621511	0	61066.535	61066.426	-4.96e-05	639599.25	245524.75	-0.00046961967	245525.66	639598.5	-0.00026597286
0	0.63191324	0.63191205	-2.5987182e-10	0.055861417	0.055861413	0	61035.742	61035.63	-2.64e-05	639800.8	244876.8	-0.00013914656	244877.67	639800.25	-0.00022176484
0	0.6315958	0.63159466	-3.206929e-10	0.055507712	0.05550772	0	61005.08	61004.965	-2.84e-05	640002.2	244231.03	-0.0002435065	244231.98	640001.44	-0.0001750203
0	0.6312755	0.63127434	-4.920977e-10	0.055154573	0.055154573	0	60974.145	60974.03	-4.52e-05	640204.3	243580.48	-0.00043483303	243581.4	640203.56	-0.00022466373
0	0.63095224	0.63095105	-2.3775507e-10	0.054800887	0.054800887	0	60942.914	60942.805	-2.12e-05	640407.25	242924.89	-0.00014494434	242925.83	640406.56	-0.00018045571
0	0.6306288	0.63062763	-4.091599e-10	0.05444718	0.05444718	0	60911.68	60911.562	-4.04e-05	640608.44	242270.89	-0.00027829313	242271.84	640607.75	-0.00032177643
0	0.6303	0.6302988	-2.709302e-10	0.05409358	0.054093573	0	60879.92	60879.812	-2.48e-05	640811.5	241607.58	-0.00023191095	241608.5	640810.8	-0.00014856795
0	0.62997204	0.62997085	-2.764594e-12	0.053740256	0.053740256	0	60848.242	60848.133	-1.8e-06	641015	240944.97	-2.8988869e-05	240945.92	641014.2	1.0146104e-05
0	0.62964404	0.62964284	-2.1010914e-10	0.053386644	0.05338665	0	60816.57	60816.453	-2.2e-05	641216.8	240283.9	-0.0001971243	240284.88	641216.1	-0.0001101577
0	0.62931347	0.62931216	-1.327005e-10	0.05303294	0.05303293	0	60784.625	60784.508	-1.12e-05	641418.56	239619.25	-5.7977737e-05	239620.2	641417.9	-8.7691325e-05
0	0.62898064	0.62897944	-6.0821065e-10	0.05267929	0.05267929	0	60752.48	60752.37	-5.84e-05	641620.7	238951.2	-0.00033627087	238952.19	641619.94	-0.0005094794
0	0.62864524	0.628644	-4.920977e-10	0.052326012	0.052326012	0	60720.086	60719.97	-4.48e-05	641823.5	238278.77	-0.00038845083	238279.77	641822.75	-0.00031307977
0	0.62830555	0.6283043	-2.5434263e-10	0.05197239	0.05197239	0	60687.273	60687.16	-2.28e-05	642028.56	237598.2	-0.00020292208	237599.2	642027.8	-0.00014856795
0	0.6279694	0.62796813	-4.4233502e-11	0.051618636	0.051618636	0	60654.805	60654.688	-6.8e-06	642229.6	236926.53	-6.377551e-05	236927.53	642228.94	-8.69666e-06
0	0.62762547	0.62762415	1.9905076e-10	0.05126547	0.051265474	0	60621.58	60621.47	1.68e-05	642433.8	236240.8	0.0001101577	236241.78	642433.06	0.00016270002
0	0.6272846	0.62728333	-3.7598477e-10	0.050911848	0.050911848	0	60588.668	60588.543	-3.84e-05	642637.5	235559.89	-0.0002608998	235560.89	642636.8	-0.0002768437
0	0.6269409	0.6269396	-3.206929e-10	0.050558098	0.050558098	0	60555.47	60555.336	-3.16e-05	642839.94	234876.31	-0.0002435065	234877.31	642839.1	-0.0002036468
0	0.62659305	0.62659174	-2.3499047e-10	0.050204474	0.050204474	0	60521.875	60521.75	-2.28e-05	643044.75	234184.58	-0.00020292208	234185.55	643043.94	-0.00011378131
0	0.6262457	0.62624437	-5.1421445e-10	0.049851183	0.049851183	0	60488.32	60488.188	-5.2e-05	643246.9	233495.98	-0.0003942486	233497	643246.1	-0.0003703328
0	0.62589324	0.62589186	-3.4833883e-10	0.04949756	0.04949756	0	60454.273	60454.15	-3.6e-05	643450.94	232798.48	-0.00032467532	232799.52	643450.2	-0.00021669178
0	0.6255429	0.62554157	-2.8751776e-10	0.049143836	0.04914384	0	60420.43	60420.305	-2.8e-05	643654.5	232104.47	-0.00030148422	232105.52	643653.75	-9.856215e-05
0	0.6251887	0.6251874	-2.4328425e-10	0.048790224	0.048790224	0	60386.22	60386.1	-2.16e-05	643858.1	231404.94	-0.00016233766	231406	643857.44	-0.00015219155
0	0.62483096	0.62482965	-2.7645938e-10	0.048436914	0.048436914	0	60351.676	60351.547	-2.6e-05	644063.5	230698.7	-0.0002435065	230699.75	644062.8	-0.00015509044
0	0.6244724	0.62447107	-4.6445178e-10	0.0480833	0.0480833	0	60317.04	60316.91	-4.66e-05	644266.6	229993.67	-0.0002840909	229994.75	644265.8	-0.00041164193
0	0.6241112	0.62410986	-2.5157804e-10	0.047729563	0.047729563	0	60282.15	60282.023	-2.68e-05	644472	229282.58	-0.00016233766	229283.62	644471.25	-0.00017973098
0	0.6237501	0.6237487	-2.0457995e-10	0.04737637	0.04737637	0	60247.27	60247.14	-2.08e-05	644675.2	228573.88	-0.0001101577	228574.94	644674.4	-0.00016523655
0	0.6233847	0.62338334	-2.4881344e-10	0.047022752	0.047022756	0	60211.973	60211.855	-2.3e-05	644879.3	227858.19	-0.00015653989	227859.28	644878.5	-0.00017828154
0	0.62301695	0.62301564	-3.0410532e-10	0.04666901	0.04666901	0	60176.46	60176.336	-2.8e-05	645084.94	227137.75	-0.00022611317	227138.84	645084.1	-0.00021234345
0	0.6226495	0.62264824	-3.4280964e-10	0.046315406	0.046315406	0	60140.977	60140.84	-3.12e-05	645288.9	226419.4	-0.0001971243	226420.5	645288.06	-0.0002840909
0	0.62227947	0.6222781	-5.529188e-11	0.045962077	0.045962077	0	60105.227	60105.098	-5.6e-06	645492.5	225697.66	-9.276438e-05	225698.75	645491.6	-1.739332e-05
0	0.62190425	0.6219029	-2.2116751e-10	0.04560847	0.04560847	0	60068.99	60068.848	-2.08e-05	645698.56	224966.31	-9.856215e-05	224967.45	645697.75	-0.00022321429
0	0.6215318	0.62153035	-2.3775507e-10	0.045254763	0.045254763	0	60033.008	60032.87	-2.48e-05	645901.4	224241.98	-0.00012755101	224243.08	645900.5	-0.00023988288
0	0.62115175	0.62115043	-4.2574747e-10	0.044901155	0.04490116	0	59996.31	59996.164	-4.04e-05	646107.8	223503.56	-0.00031887754	223504.67	646107	-0.0002935123
0	0.62077576	0.6207744	-1.824632e-10	0.04454781	0.04454781	0	59959.99	59959.85	-1.8e-05	646310.3	222774.67	-0.00020292208	222775.78	646309.44	-0.00010291048
0	0.6203931	0.62039167	-1.354651e-10	0.044194214	0.044194214	0	59923.023	59922.887	-1.26e-05	646515.25	222033.95	-0.00012755101	222035.1	646514.44	-7.68205e-05
0	0.6200094	0.62000805	-1.8799239e-10	0.04384048	0.04384048	0	59885.973	59885.83	-1.8e-05	646721.2	221290.94	-0.0001971243	221292.08	646720.25	-6.1238985e-05
0	0.6196231	0.61962175	-2.7645938e-10	0.04348688	0.04348688	0	59848.66	59848.516	-2.76e-05	646925	220546.25	-0.00027249535	220547.42	646924.2	-0.00011378131
0	0.619237	0.61923563	-3.4833883e-10	0.04313366	0.04313366	0	59811.36	59811.22	-3.48e-05	647129.1	219801.55	-0.0002608998	219802.72	647128.3	-0.0002565515
0	0.61884415	0.6188426	-2.7645938e-10	0.04277993	0.042779934	0	59773.414	59773.27	-2.32e-05	647335.8	219044.81	-0.00024930426	219046	647334.9	-0.00012610157
0	0.61845285	0.61845136	-2.3499047e-10	0.042426337	0.042426333	0	59735.613	59735.473	-2.44e-05	647540.44	218292.36	-0.00027829313	218293.58	647539.5	-8.406772e-05
0	0.6180592	0.6180577	-1.5481726e-10	0.042072967	0.042072967	0	59697.6	59697.457	-2e-05	647743.94	217537.73	-0.00012175325	217538.92	647743.2	-0.00011088242
0	0.6176618	0.61766034	-3.8151396e-10	0.041719377	0.041719377	0	59659.21	59659.074	-4.2e-05	647948.4	216776.88	-0.00033627087	216778.1	647947.56	-0.0002416947
0	0.6172634	0.6172618	-1.8522779e-10	0.04136568	0.04136568	0	59620.727	59620.582	-1.96e-05	648153.5	216013.94	-0.00016233766	216015.17	648152.6	-0.00012900046
0	0.6168611	0.61685956	-1.824632e-10	0.0410121	0.041012097	0	59581.87	59581.727	-1.96e-05	648358.4	215245.98	-0.00024060761	215247.2	648357.44	-3.9497332e-05
0	0.6164557	0.6164541	-2.65401e-10	0.040658705	0.04065871	0	59542.707	59542.562	-2.68e-05	648563.4	214473.23	-0.0002840909	214474.5	648562.44	-0.000109795335
0	0.6160515	0.61604995	-2.9304695e-10	0.04030513	0.04030513	0	59503.67	59503.527	-2.96e-05	648768.2	213702.62	-0.00026669758	213703.89	648767.3	-0.00014566907
0	0.61564064	0.61563915	-2.4881344e-10	0.039951403	0.039951403	0	59463.992	59463.848	-2.32e-05	648974.56	212921.05	-0.0001971243	212922.3	648973.7	-0.00014132074
0	0.6152326	0.615231	-2.1563833e-10	0.039597828	0.03959783	0	59424.57	59424.42	-2.28e-05	649177.56	212146.67	-9.276438e-05	212147.9	649176.75	-0.00022611317
0	0.61481935	0.61481774	-3.206929e-10	0.039244577	0.039244574	0	59384.668	59384.516	-3.08e-05	649382.4	211363.39	-0.00026669758	211364.67	649381.5	-0.0001971243
0	0.61440194	0.6144003	-2.266967e-10	0.038890842	0.038890846	0	59344.355	59344.2	-2.16e-05	649587.44	210574.16	-0.00023770872	210575.44	649586.3	-0.000100011595
0	0.6139835	0.6139819	-2.266967e-10	0.03853727	0.03853727	0	59303.934	59303.777	-1.84e-05	649793.56	209782.1	-0.0001101577	209783.38	649792.5	-0.00020400916
0	0.6135651	0.6135634	-3.0686992e-10	0.038183857	0.038183857	0	59263.51	59263.35	-2.92e-05	649996.4	208993.4	-0.00033627087	208994.72	649995.44	-0.00011957908
0	0.61314267	0.61314106	-2.626364e-10	0.037830286	0.037830286	0	59222.715	59222.56	-2.72e-05	650200.94	208197.47	-0.00021161874	208198.77	650200	-0.0001703096
0	0.6127172	0.61271554	-1.9352157e-10	0.037476562	0.037476562	0	59181.617	59181.46	-1.94e-05	650405.7	207397.06	-0.00023770872	207398.4	650404.7	-5.2542324e-05
0	0.6122888	0.6122871	-2.0457995e-10	0.03712304	0.03712304	0	59140.24	59140.08	-2.12e-05	650610.6	206592.36	-0.00029568645	206593.64	650609.6	-6.377551e-05
0	0.61185706	0.6118554	-3.206929e-10	0.0367696	0.0367696	0	59098.535	59098.38	-3.54e-05	650815.44	205783.03	-0.00021161874	205784.36	650814.5	-0.00029278756
0	0.6114244	0.6114227	-4.589226e-10	0.03641605	0.03641605	0	59056.75	59056.586	-4.52e-05	651021	204971.8	-0.00042323748	204973.14	651020.06	-0.00027539424
0	0.61098915	0.6109875	-5.5291877e-10	0.036062323	0.036062323	0	59014.71	59014.547	-5.28e-05	651225.3	204158.14	-0.00047541744	204159.5	651224.3	-0.0003043831
0	0.61055243	0.61055076	-4.3127665e-10	0.035708778	0.035708778	0	58972.523	58972.36	-4.08e-05	651427.94	203344.03	-0.00029568645	203345.36	651427	-0.00032068935
0	0.61011016	0.6101085	-2.709302e-10	0.035355482	0.035355482	0	58929.812	58929.65	-2.64e-05	651634.1	202518.83	-0.00022321429	202520.2	651633.06	-0.00018407931
0	0.6096687	0.60966706	-2.7645938e-10	0.03500176	0.03500176	0	58887.164	58887.004	-3.12e-05	651836.75	201698.05	-0.0002435065	201699.45	651835.75	-0.00017973098
0	0.6092219	0.60922015	-4.2298287e-10	0.034648217	0.034648217	0	58844.016	58843.844	-4.18e-05	652042.44	200866.77	-0.0004203386	200868.19	652041.4	-0.00021741651
0	0.6087757	0.608774	-5.6397714e-10	0.034294732	0.034294732	0	58800.91	58800.742	-5.7e-05	652244.75	200039.8	-0.0004406308	200041.2	652243.7	-0.0004228751
0	0.6083233	0.6083215	-3.8704315e-10	0.0339412	0.0339412	0	58757.22	58757.043	-4.08e-05	652450.3	199200.86	-0.00040584416	199202.25	652449.3	-0.0002101693
0	0.6078712	0.6078695	-2.4328425e-10	0.03358748	0.03358748	0	58713.55	58713.383	-2.52e-05	652652.5	198365.69	-0.0002435065	198367.1	652651.5	-0.00015291628
0	0.60741293	0.60741115	-4.3680584e-10	0.033233993	0.033233993	0	58669.28	58669.113	-4.42e-05	652857.94	197518.67	-0.00034206864	197520.12	652856.9	-0.0003275742
0	0.60695505	0.6069532	-2.1010914e-10	0.03288048	0.03288048	0	58625.06	58624.883	-2.4e-05	653061.3	196674.2	-0.0002435065	196675.67	653060.3	-8.624188e-05
0	0.60649467	0.6064928	-2.5710722e-10	0.032526962	0.032526962	0	58580.586	58580.414	-2.86e-05	653263.56	195827.47	-0.00016233766	195828.95	653262.5	-0.00021234345
0	0.6060283	0.60602653	-2.736948e-10	0.032173254	0.032173254	0	58535.55	58535.38	-2.72e-05	653467.3	194970.88	-0.00021451763	194972.34	653466.2	-0.00018589111
0	0.605562	0.6055601	-7.4644034e-11	0.03181973	0.031819735	0	58490.5	58490.33	-8.8e-06	653670.2	194115.08	-8.6966604e-05	194116.58	653669.06	-7.247217e-06
0	0.6050932	0.60509133	-2.4051966e-10	0.031466383	0.031466383	0	58445.227	58445.043	-2.64e-05	653873.44	193255.45	-0.0003710575	193256.95	653872.4	-2.7539425e-05
0	0.60462064	0.6046188	-1.3822969e-10	0.031112673	0.031112673	0	58399.582	58399.406	-1.46e-05	654076.75	192390.67	-0.00017393321	192392.19	654075.7	-3.3337197e-05
0	0.604144	0.60414207	-2.7645938e-10	0.030759173	0.030759169	0	58353.543	58353.36	-2.8e-05	654280.8	191519.23	-0.00029568645	191520.73	654279.75	-0.00012755101
0	0.6036657	0.6036639	-1.824632e-10	0.030405609	0.030405609	0	58307.35	58307.176	-1.88e-05	654483.6	190646.92	-0.00016813543	190648.47	654482.5	-9.1314934e-05
0	0.6031863	0.60318434	-4.0086612e-10	0.030052107	0.030052107	0	58261.04	58260.855	-3.9e-05	654684.5	189774.72	-0.00042903525	189776.27	654683.44	-0.0001369724
0	0.6027015	0.6026996	-3.7874937e-10	0.0296984	0.0296984	0	58214.22	58214.03	-3.44e-05	654887.25	188893.33	-0.00020871985	188894.89	654886.06	-0.00032974838
0	0.60221297	0.60221106	-3.2622208e-10	0.029344955	0.02934496	0	58167.035	58166.844	-3.02e-05	655091.2	188005.44	-0.00034206864	188007.02	655090.06	-0.00013479823
0	0.60172457	0.6017227	-1.796986e-10	0.028991353	0.028991353	0	58119.855	58119.67	-1.92e-05	655291.5	187121.36	-0.00022611317	187122.94	655290.44	-8.914077e-05
0	0.6012317	0.60122967	-3.0410532e-10	0.028637866	0.028637862	0	58072.25	58072.05	-2.96e-05	655495.06	186227.7	-0.0002203154	186229.31	655493.8	-0.00023843344
0	0.600736	0.6007341	-5.2527285e-11	0.028284179	0.02828418	0	58024.375	58024.18	-4e-06	655695.5	185333.34	-0.00014494434	185334.95	655694.4	9.1314934e-05
0	0.6002372	0.6002352	-1.0781916e-10	0.027930707	0.027930709	0	57976.19	57975.996	-1.16e-05	655897.1	184433.34	-0.00015653989	184434.98	655896	-6.196371e-05
0	0.5997348	0.59973276	-3.3728045e-10	0.027577287	0.027577287	0	57927.67	57927.47	-3.2e-05	656100.2	183526.95	-0.0002840909	183528.61	656098.9	-0.00021306818
0	0.5992326	0.5992306	-1.5205266e-10	0.02722359	0.02722359	0	57879.16	57878.965	-1.24e-05	656299.4	182624.69	-7.5371056e-05	182626.34	656298.2	-0.0001268263
0	0.59872353	0.5987214	-4.4509962e-10	0.026870128	0.026870128	0	57829.99	57829.793	-4.12e-05	656502.06	181709.12	-0.00037685529	181710.81	656500.9	-0.00027466952
0	0.5982142	0.5982121	-4.506288e-10	0.02651647	0.026516465	0	57780.785	57780.586	-4.32e-05	656701.44	180796.75	-0.00041164193	180798.44	656700.1	-0.00024857954
0	0.5976983	0.5976963	-3.206929e-10	0.026163006	0.026163006	0	57730.965	57730.766	-3.12e-05	656902.4	179873.66	-0.00034206864	179875.34	656901.1	-0.000113418944
0	0.5971817	0.5971796	-2.1010914e-10	0.025809318	0.025809318	0	57681.066	57680.863	-2.12e-05	657102.44	178950.17	-0.00023191095	178951.89	657101.3	-0.00010725881
0	0.59666103	0.59665895	-3.4557424e-10	0.025455922	0.025455922	0	57630.773	57630.57	-3.56e-05	657304.1	178019.6	-0.00031307977	178021.33	657302.9	-0.00020147263
0	0.5961387	0.5961366	-5.1421445e-10	0.025102237	0.025102237	0	57580.33	57580.12	-4.92e-05	657504	177088.53	-0.00029568645	177090.3	657502.7	-0.00044570386
0	0.59561247	0.59561026	-2.7922398e-10	0.02474878	0.02474878	0	57529.49	57529.285	-2.64e-05	657703.75	176151.9	-0.00015653989	176153.69	657702.5	-0.00024241941
0	0.5950825	0.5950803	-1.5481726e-10	0.024395112	0.024395112	0	57478.31	57478.1	-1.84e-05	657903.3	175210.48	-8.6966604e-05	175212.28	657902.06	-0.00017828154
0	0.59455144	0.59454924	-3.206929e-10	0.02404165	0.02404165	0	57427.016	57426.793	-2.96e-05	658100.75	174269.45	-0.0003507653	174271.27	658099.44	-9.928687e-05
0	0.5940147	0.59401244	-2.3222589e-10	0.023688184	0.023688184	0	57375.164	57374.96	-2.34e-05	658299.75	173319.03	-0.00014494434	173320.88	658298.44	-0.00019422542
0	0.59347427	0.59347206	-4.810393e-10	0.023334505	0.023334505	0	57322.965	57322.746	-4.76e-05	658498.6	172363.52	-0.00045222635	172365.38	658497.4	-0.00027539424
0	0.59293175	0.5929295	-1.6587563e-10	0.022981038	0.022981038	0	57270.566	57270.35	-1.92e-05	658697	171405.56	-0.00020871985	171407.4	658695.75	-2.8264147e-05
0	0.59238553	0.5923833	-3.7874937e-10	0.02262738	0.022627382	0	57217.805	57217.586	-3.72e-05	658896.6	170441.22	-0.00027539424	170443.11	658895.4	-0.0002935123
0	0.591838	0.59183574	-1.0505457e-10	0.022273906	0.022273906	0	57164.918	57164.7	-9.2e-06	659093	169478.34	-0.00015074211	169480.23	659091.7	2.3191094e-05
0	0.59128475	0.5912824	-2.0457995e-10	0.02192024	0.02192024	0	57111.484	57111.26	-2.16e-05	659290.6	168506.1	-0.00026669758	168508.02	659289.3	-6.812384e-05
0	0.5907286	0.59072626	-2.8475317e-10	0.021566832	0.021566832	0	57057.766	57057.543	-2.8e-05	659488	167530.16	-0.00031887754	167532.1	659486.56	-0.00010109868
0	0.5901682	0.59016585	-3.096345e-10	0.021213166	0.021213166	0	57003.645	57003.41	-2.92e-05	659684.6	166548.95	-0.00031887754	166550.88	659683.2	-0.00011921672
0	0.589605	0.58960253	-2.3637278e-10	0.020859689	0.020859689	0	56949.223	56949	-2.32e-05	659883.25	165561.69	-0.00015943877	165563.67	659881.8	-0.0001768321
0	0.58903974	0.5890373	-2.1010914e-10	0.020506049	0.02050605	0	56894.645	56894.41	-2.04e-05	660077.9	164575.72	-0.00021451763	164577.72	660076.5	-0.0001304499
0	0.58846897	0.5884666	-1.796986e-10	0.020152565	0.020152567	0	56839.516	56839.28	-1.76e-05	660274	163580.53	-0.00016233766	163582.55	660272.6	-8.261827e-05
0	0.58789617	0.5878937	-4.7827475e-10	0.019798914	0.019798916	0	56784.184	56783.957	-4.6e-05	660470.2	162582.48	-0.0002840909	162584.5	660468.7	-0.0004210633
0	0.58731765	0.5873152	-2.0872684e-10	0.019445423	0.019445423	0	56728.31	56728.066	-2e-05	660666.94	161575.69	-0.0002435065	161577.72	660665.56	-3.841025e-05
0	0.58673704	0.5867346	-1.4652347e-10	0.019091928	0.019091928	0	56672.23	56671.992	-1.12e-05	660862	160567.81	-0.00012175325	160569.88	660860.56	-8.7691325e-05
0	0.58615243	0.5861499	-3.206929e-10	0.018738281	0.018738281	0	56615.758	56615.516	-2.92e-05	661056.8	159554.5	-0.00020871985	159556.58	661055.3	-0.00024568065
0	0.5855644	0.5855618	-7.187944e-11	0.0183848	0.0183848	0	56558.95	56558.707	-7.6e-06	661249.6	158538.36	-0.00012175325	158540.47	661248.2	7.609578e-06
0	0.58497435	0.5849718	-4.976269e-11	0.018031161	0.018031161	0	56501.97	56501.72	-6.2e-06	661443.4	157518.56	-0.00015074211	157520.69	661441.94	6.6674394e-05
0	0.5843788	0.58437616	-1.1887753e-10	0.017677741	0.017677741	0	56444.44	56444.19	-1.08e-05	661637.25	156490.81	-0.00014494434	156492.97	661635.75	-2.971359e-05
0	0.5837796	0.583777	-2.9581154e-10	0.017324109	0.017324109	0	56386.57	56386.316	-3.08e-05	661830.75	155458.47	-0.000307282	155460.67	661829.3	-0.00011885436
0	0.583176	0.58317333	-2.5987182e-10	0.0169706	0.0169706	0	56328.27	56328.016	-2.08e-05	662023.44	154420.75	-0.00020292208	154422.95	662022	-0.00014639378
0	0.58256954	0.58256686	-2.3775507e-10	0.016616996	0.016616996	0	56269.688	56269.434	-2.2e-05	662216.25	153378.88	-0.00029278756	153381.11	662214.75	-8.406772e-05
0	0.58195895	0.58195627	-2.1563833e-10	0.016263481	0.016263481	0	56210.72	56210.457	-1.82e-05	662408.6	152331.69	-0.0001101577	152333.92	662407.1	-0.00019929848
0	0.5813433	0.58134055	-3.206929e-10	0.015909865	0.015909867	0	56151.25	56150.99	-3.08e-05	662602.06	151276.3	-0.00027829313	151278.56	662600.5	-0.0001637871
0	0.5807263	0.5807236	-3.5386802e-10	0.015556336	0.015556336	0	56091.66	56091.4	-3.34e-05	662791.75	150222.81	-0.00025510203	150225.1	662790.25	-0.00023517219
0	0.5801037	0.5801009	-1.4928807e-10	0.0152028045	0.0152028045	0	56031.516	56031.25	-1.28e-05	662983	149159.84	-0.00021451763	149162.14	662981.44	-1.739332e-05
0	0.57947767	0.57947487	-3.621618e-10	0.0148492	0.0148492	0	55971.055	55970.785	-3.42e-05	663173.25	148093.19	-0.0003710575	148095.53	663171.7	-0.00017175905
0	0.5788458	0.578843	-2.736948e-10	0.014495676	0.014495676	0	55910.02	55909.75	-2.52e-05	663365.3	147016.48	-0.00030148422	147018.86	663363.7	-0.0001304499
0	0.5782115	0.5782087	-1.9075698e-10	0.01414209	0.01414209	0	55848.758	55848.48	-1.76e-05	663555	145938.64	-0.00020292208	145941.05	663553.5	-9.4576186e-05
0	0.57757306	0.5775702	-2.709302e-10	0.013788643	0.013788643	0	55787.086	55786.812	-2.8e-05	663744.44	144855.42	-0.00020292208	144857.84	663742.8	-0.00020944457
0	0.57693034	0.5769274	-2.8751776e-10	0.013435064	0.013435064	0	55725.004	55724.723	-2.8e-05	663933.4	143766.62	-0.00040004638	143769.1	663931.75	-2.8264147e-05
0	0.57628363	0.57628065	-6.9114846e-11	0.013081503	0.013081503	0	55662.543	55662.254	-4.8e-06	664121.94	142672.67	-0.00016233766	142675.14	664120.3	0.00011885436
0	0.57563275	0.5756298	-3.5110342e-10	0.012727962	0.012727961	0	55599.676	55599.387	-3.52e-05	664309.94	141573.4	-0.00040584416	141575.9	664308.3	-0.00010580937
0	0.57497764	0.57497466	-1.9628617e-10	0.01237439	0.01237439	0	55536.4	55536.11	-1.9e-05	664497.4	140468.73	-0.00019422542	140471.3	664495.75	-7.247217e-05
0	0.5743194	0.5743163	8.2937815e-12	0.012020825	0.012020825	0	55472.824	55472.527	8e-07	664682.9	139361.75	2.3191094e-05	139364.31	664681.1	3.5149e-05
0	0.5736543	0.57365125	-4.1330678e-10	0.0116672525	0.0116672525	0	55408.58	55408.277	-3.94e-05	664871.25	138242.14	-0.00034786641	138244.75	664869.6	-0.00026705995
0	0.57298636	0.5729832	-4.920977e-10	0.011313691	0.011313691	0	55344.06	55343.76	-4.79e-05	665057.5	137120.67	-0.00041454082	137123.3	665055.8	-0.00030510785
0	0.57231534	0.5723123	-2.4328425e-10	0.01096012	0.01096012	0	55279.254	55278.95	-2.12e-05	665241.44	135997.44	-0.00031887754	136000.1	665239.7	-5.471649e-05
0	0.57163686	0.5716337	-2.5710722e-10	0.010606584	0.010606584	0	55213.72	55213.406	-2.64e-05	665428.56	134860.39	-0.00020871985	134863.08	665426.75	-0.00020799512
0	0.5709572	0.57095397	-4.1607137e-10	0.010253024	0.010253024	0	55148.066	55147.758	-4.04e-05	665611.4	133725.89	-0.0002608998	133728.62	665609.6	-0.00033627087
0	0.5702688	0.57026553	-6.400035e-10	0.009899457	0.009899458	0	55081.58	55081.266	-6.68e-05	665797.56	132576.08	-0.00058847404	132578.81	665795.75	-0.0004210633
0	0.5695793	0.56957597	-2.266967e-10	0.009545964	0.009545964	0	55014.98	55014.668	-2.08e-05	665981.3	131426.98	-0.00023480984	131429.77	665979.5	-0.00010725881
0	0.56888556	0.5688823	-1.9352157e-10	0.0091924	0.0091924	0	54947.977	54947.652	-1.64e-05	666162.75	130274.28	-0.00021741651	130277.11	666160.9	-5.7977737e-05
0	0.5681853	0.56818193	-3.2898667e-10	0.0088388715	0.008838871	0	54880.34	54880.01	-3.2e-05	666345.75	129110.77	-0.00032467532	129113.66	666343.94	-0.00016523655
0	0.56748194	0.56747854	-4.4509962e-10	0.0084853	0.0084853	0	54812.39	54812.066	-4.24e-05	666527.6	127944.086	-0.00031307977	127946.984	666525.8	-0.00035221476
0	0.56677145	0.566768	-2.294613e-10	0.008131741	0.008131741	0	54743.77	54743.44	-2.48e-05	666711.5	126765.62	-0.00017973098	126768.56	666709.56	-0.00017067196
0	0.5660591	0.56605566	-3.151637e-10	0.007778168	0.007778168	0	54674.97	54674.637	-2.98e-05	666890.94	125588.91	-0.00035946196	125591.875	666889	-9.747507e-05
0	0.565339	0.5653356	-2.5710722e-10	0.0074246	0.0074246	0	54605.42	54605.082	-2.46e-05	667073.44	124398.3	-0.00020292208	124401.3	667071.44	-0.0001703096
0	0.5646167	0.5646131	-1.6034644e-10	0.0070710448	0.007071045	0	54535.645	54535.3	-1.7e-05	667252.1	123208.195	-0.00017393321	123211.24	667250.2	-4.275858e-05
0	0.5638871	0.5638835	-2.736948e-10	0.006717532	0.006717532	0	54465.18	54464.832	-2.72e-05	667433.44	122005.45	-0.00019422542	122008.555	667431.44	-0.00024096997
0	0.56315404	0.56315035	-3.8151396e-10	0.0063639805	0.0063639805	0	54394.367	54394.02	-3.4e-05	667612.44	120800.06	-0.00036815862	120803.18	667610.44	-0.00015726461
0	0.5624154	0.5624118	-3.0272304e-10	0.0060104127	0.0060104127	0	54323.035	54322.68	-2.96e-05	667791.1	119587.305	-0.0002637987	119590.49	667789.1	-0.00016233766
0	0.5616722	0.5616685	-2.65401e-10	0.005656845	0.0056568454	0	54251.246	54250.883	-2.37e-05	667969.2	118368.71	-0.00021451763	118371.945	667967.2	-0.00016741072
0	0.5609236	0.56091976	-4.4233502e-11	0.0053032916	0.0053032916	0	54178.93	54178.57	-4.4e-06	668146.75	117142.984	-0.00017973098	117146.24	668144.7	7.392161e-05
0	0.56016976	0.56016594	-5.031561e-10	0.004949729	0.004949729	0	54106.125	54105.754	-4.72e-05	668323.7	115910.72	-0.00042323748	115914.02	668321.6	-0.00030510785