# t (s)	mx ()	my ()	mz ()	B_extx (T)	B_exty (T)	B_extz (T)	m_fullx (A/m)	m_fully (A/m)	m_fullz (A/m)	m_full.region1x (A/m)	m_full.region1y (A/m)	m_full.region1z (A/m)	m_full.region2x (A/m)	m_full.region2y (A/m)	m_full.region2z (A/m)
0	0.64572287	0.6457208	-2.5613456e-10	0.070710756	0.070710756	0	139762.12	139761.67	-6.228374e-05	628158.94	275851.3	-0.00017905103	275853	628157.75	-0.00017485452
0	0.6456326	0.645632	-2.454623e-10	0.07056913	0.070569135	0	139742.61	139742.47	-5.536332e-05	628224.3	275660.84	-4.4762757e-05	275661.3	628224	-0.00022381378
0	0.6455389	0.6455385	-2.454623e-10	0.07042789	0.07042789	0	139722.31	139722.23	-4.8442907e-05	628294.56	275459.5	-0.00014547896	275459.8	628294.4	-0.00021821844
0	0.6454454	0.64544505	-1.0672273e-10	0.07028644	0.07028644	0	139702.1	139702	-3.4602075e-05	628365.1	275258.2	-0.00015666964	275258.5	628364.9	-0.00010631155
0	0.6453514	0.64535105	-3.7352957e-10	0.07014497	0.07014497	0	139681.77	139681.66	-7.612457e-05	628435.7	275056.06	-0.00022381378	275056.34	628435.44	-0.0003021486
0	0.6452575	0.64525706	-2.8815136e-10	0.07000352	0.07000352	0	139661.39	139661.33	-6.228374e-05	628506.44	274853.72	-0.00014547896	274854.03	628506.1	-0.00026857655
0	0.64516366	0.64516324	-3.8420184e-10	0.06986227	0.06986227	0	139641.1	139641	-8.3044986e-05	628577	274651.8	-0.00024619515	274652.12	628576.7	-0.0003525067
0	0.6450693	0.6450689	-1.9210092e-10	0.069720656	0.069720656	0	139620.66	139620.6	-2.768166e-05	628647.56	274449.06	-6.714414e-05	274449.38	628647.4	-0.00020143241
0	0.6449746	0.6449742	-4.1621864e-10	0.06957922	0.06957922	0	139600.19	139600.1	-8.99654e-05	628717.7	274246.5	-0.00029095792	274246.84	628717.44	-0.0003021486
0	0.64487916	0.6448788	-2.774791e-10	0.06943795	0.06943796	0	139579.53	139579.44	-5.536332e-05	628788.6	274041.9	-0.00015666964	274042.2	628788.4	-0.000162265
0	0.6447844	0.644784	-8.5378184e-11	0.06929648	0.06929647	0	139559.02	139558.92	-1.384083e-05	628859.25	273838.62	-2.2381379e-05	273838.88	628859.06	-0.00011190689
0	0.64468914	0.6446887	-5.2294136e-10	0.069155045	0.069155045	0	139538.4	139538.33	-0.00011072664	628930.06	273634.53	-0.00034691137	273634.8	628929.9	-0.0004140555
0	0.64459383	0.6445935	-1.9210092e-10	0.0690136	0.0690136	0	139517.75	139517.69	-2.768166e-05	629001	273429.97	-0.00013428828	273430.3	629000.9	-0.000100716206
0	0.644499	0.6444986	-3.8420184e-10	0.06887216	0.06887216	0	139497.23	139497.16	-8.99654e-05	629071.56	273226.75	-0.00026857655	273227.06	629071.3	-0.00032453
0	0.6444022	0.6444018	-3.201682e-11	0.068730734	0.068730734	0	139476.28	139476.2	-1.384083e-05	629142.8	273020	-4.4762757e-05	273020.3	629142.56	-1.1190689e-05
0	0.64430654	0.64430606	1.0672273e-11	0.068589285	0.068589285	0	139455.56	139455.48	0	629213.5	272815.2	0.000100716206	272815.53	629213.3	-0.00011190689
0	0.64421064	0.6442102	-3.0949593e-10	0.06844799	0.06844799	0	139434.83	139434.75	-6.920415e-05	629284.6	272610	-0.00020143241	272610.3	629284.3	-0.00025738587
0	0.64411366	0.64411324	-2.5613456e-10	0.06830654	0.06830654	0	139413.84	139413.73	-4.8442907e-05	629355.56	272403.22	-0.00024619515	272403.53	629355.25	-0.00011190689
0	0.64401656	0.64401615	2.774791e-10	0.06816512	0.06816512	0	139392.83	139392.73	5.882353e-05	629426.56	272196.28	1.1190689e-05	272196.56	629426.3	0.00040286483
0	0.64391935	0.64391893	-1.0672273e-10	0.06802368	0.068023674	0	139371.77	139371.69	-2.0761247e-05	629497.3	271989.47	-0.00011190689	271989.78	629497.06	0
0	0.6438236	0.6438232	-4.2689092e-11	0.06788223	0.06788223	0	139351.08	139350.97	-1.7301038e-05	629568	271784.78	0.000100716206	271785.06	629567.75	-9.512086e-05
0	0.64372724	0.6437268	-1.4941182e-10	0.06774082	0.06774082	0	139330.19	139330.11	-3.4602075e-05	629639	271578.8	-0.00017905103	271579.1	629638.8	-5.5953446e-05
0	0.64362925	0.6436288	-2.6680683e-10	0.06759933	0.06759933	0	139308.98	139308.89	-5.536332e-05	629710.06	271370.53	-0.00020143241	271370.84	629709.75	-0.00020702776
0	0.64353216	0.6435318	-3.4151273e-10	0.06745807	0.06745807	0	139287.98	139287.88	-6.920415e-05	629781.4	271163.47	-0.00022381378	271163.78	629781	-0.00019024171
0	0.64343417	0.64343375	-1.8142864e-10	0.06731661	0.067316614	0	139266.75	139266.67	-3.8062284e-05	629852.75	270954.8	-0.00013428828	270955.12	629852.44	-7.273948e-05
0	0.6433365	0.64333606	-1.8142864e-10	0.06717501	0.06717501	0	139245.61	139245.52	-3.9197665e-05	629923.44	270747.28	-2.2381379e-05	270747.62	629923.1	-0.00021821844
0	0.6432383	0.6432379	-3.4151273e-10	0.06703377	0.06703377	0	139224.34	139224.27	-6.5743945e-05	629994.7	270538.56	-0.00011190689	270538.88	629994.44	-0.0003357207
0	0.64313984	0.6431394	-3.7352957e-10	0.0668923	0.0668923	0	139203.06	139202.95	-8.3044986e-05	630065.9	270329.6	-0.00020143241	270329.94	630065.56	-0.00035810206
0	0.64304113	0.6430407	-3.201682e-10	0.066750854	0.066750854	0	139181.69	139181.6	-6.920415e-05	630137.3	270119.97	-0.00022381378	270120.3	630137	-0.00022381378
0	0.6429427	0.64294237	-2.2411774e-10	0.06660941	0.06660941	0	139160.4	139160.33	-5.536332e-05	630208.3	269911.34	-6.714414e-05	269911.66	630207.94	-0.00022381378
0	0.642843	0.64284265	-1.2806728e-10	0.06646814	0.06646814	0	139138.83	139138.73	-3.114187e-05	630279.3	269700.66	6.714414e-05	269700.94	630279.1	-0.00020702776
0	0.6427446	0.6427443	-2.6680683e-10	0.06632655	0.06632654	0	139117.52	139117.44	-4.8442907e-05	630350.44	269491.75	-0.00017905103	269492.1	630350.1	-0.00022940912
0	0.642645	0.6426446	-2.3479e-10	0.0661851	0.066185094	0	139095.95	139095.86	-5.536332e-05	630421.8	269280.84	-0.000100716206	269281.2	630421.6	-0.00019024171
0	0.6425465	0.64254606	-8.5378184e-11	0.06604383	0.06604383	0	139074.64	139074.53	-1.384083e-05	630492.7	269072.03	0	269072.3	630492.4	-0.000100716206
0	0.64244586	0.6424454	-2.6680683e-10	0.06590232	0.06590232	0	139052.84	139052.77	-4.49827e-05	630564.7	268859.1	-0.00015666964	268859.44	630564.44	-0.00013428828
0	0.64234513	0.6423446	3.201682e-11	0.06576094	0.06576095	0	139031.03	139030.95	6.920415e-06	630636.1	268646.7	0	268647.03	630635.9	1.1190689e-05
0	0.6422452	0.64224476	-8.1109275e-10	0.06561947	0.06561947	0	139009.4	139009.31	-0.00017760597	630707.25	268435.72	-0.00058191584	268436.03	630706.9	-0.0005763205
0	0.6421453	0.64214486	-1.4941182e-10	0.06547822	0.06547822	0	138987.78	138987.72	-3.114187e-05	630778.8	268224.3	-8.9525514e-05	268224.62	630778.5	-7.273948e-05
0	0.642045	0.6420446	-4.268909e-10	0.06533663	0.06533663	0	138966.08	138966	-8.99654e-05	630850	268012.7	-0.00036929274	268013.03	630849.75	-0.00024619515
0	0.6419433	0.6419429	-1.4941182e-10	0.06519517	0.06519517	0	138944.06	138943.97	-3.4602075e-05	630921.9	267798.44	-8.9525514e-05	267798.75	630921.56	-3.357207e-05
0	0.6418429	0.6418425	-2.6680683e-10	0.06505391	0.0650539	0	138922.33	138922.27	-4.6929064e-05	630993.5	267586.2	-0.00013428828	267586.56	630993.3	-0.00018464637
0	0.6417418	0.6417414	-5.122691e-10	0.06491239	0.0649124	0	138900.45	138900.34	-0.00011072664	631065.06	267373.2	-0.00027976724	267373.5	631064.8	-0.00047000896
0	0.6416403	0.6416398	-8.5378184e-11	0.06477102	0.06477102	0	138878.5	138878.4	-1.7301038e-05	631136.56	267159.56	-8.9525514e-05	267159.9	631136.25	0
0	0.6415387	0.64153826	-1.2806728e-10	0.06462957	0.06462957	0	138856.5	138856.4	-2.0761247e-05	631207.56	266946.22	0	266946.6	631207.4	-0.00017905103
0	0.6414365	0.64143604	-2.6680683e-10	0.06448808	0.06448808	0	138834.38	138834.28	-5.536332e-05	631279.3	266731.4	-0.00027976724	266731.78	631279.06	-0.00014547896
0	0.6413341	0.6413337	-6.403364e-11	0.06434671	0.064346716	0	138812.23	138812.14	-1.384083e-05	631351.25	266516.22	-0.00012309758	266516.6	631350.94	1.1190689e-05
0	0.64123255	0.64123213	-2.0277319e-10	0.064205244	0.064205244	0	138790.23	138790.14	-4.49827e-05	631422.94	266302.28	0	266302.62	631422.6	-0.00026857655
0	0.6411304	0.6411299	-1.4941182e-10	0.064063944	0.064063944	0	138768.11	138768	-2.4221454e-05	631494.5	266087.72	-6.714414e-05	266088.06	631494.1	-0.00011190689
0	0.6410268	0.6410263	-3.52185e-10	0.06392247	0.06392247	0	138745.7	138745.61	-7.958477e-05	631566.1	265871.03	-0.00020143241	265871.34	631565.8	-0.00029095792
0	0.6409247	0.64092433	-1.3873955e-10	0.063781105	0.063781105	0	138723.61	138723.52	-2.1572232e-05	631637.7	265656.53	-8.9525514e-05	265656.84	631637.5	-5.5953446e-05
0	0.6408205	0.64082	-2.1344546e-10	0.06363964	0.06363964	0	138701.05	138700.97	-5.882353e-05	631710	265438.4	-0.00023500448	265438.72	631709.75	-0.00019024171
0	0.64071834	0.64071786	-2.0277319e-10	0.063498154	0.063498154	0	138678.95	138678.84	-5.0010814e-05	631781.6	265223.78	-0.00015666964	265224.1	631781.3	-0.00010631155
0	0.6406146	0.64061415	-5.2294136e-10	0.0633568	0.063356794	0	138656.48	138656.39	-0.00011072664	631853.3	265006.8	-0.0003357207	265007.16	631853.06	-0.00038048343
0	0.6405109	0.6405105	-1.9210092e-10	0.06321528	0.06321528	0	138634.03	138633.95	-4.1522493e-05	631925.3	264789.66	-0.00024619515	264790	631925	-6.714414e-05
0	0.6404067	0.6404062	-1.9210092e-10	0.06307401	0.06307401	0	138611.5	138611.39	-3.4602075e-05	631997.25	264571.78	-8.9525514e-05	264572.12	631997	-0.00019583707
0	0.6403029	0.6403024	-2.3479e-10	0.06293254	0.06293254	0	138589	138588.9	-5.536332e-05	632069	264354.78	-0.00020143241	264355.12	632068.6	-0.00016786034
0	0.64019746	0.640197	-1.4941182e-10	0.062790975	0.062790975	0	138566.2	138566.11	-3.114187e-05	632141.06	264135.06	-2.2381379e-05	264135.4	632140.75	-0.00017905103
0	0.64009386	0.64009345	-3.7352957e-10	0.062649705	0.06264971	0	138543.77	138543.69	-7.958477e-05	632212.8	263918.25	-0.00024619515	263918.6	632212.44	-0.00029095792
0	0.6399884	0.639988	-1.7075637e-10	0.06250823	0.06250823	0	138520.95	138520.84	-4.1522493e-05	632284.5	263698.97	-0.00015666964	263699.3	632284.1	-0.00011190689
0	0.63988364	0.63988316	-2.2411774e-10	0.062366836	0.062366836	0	138498.28	138498.17	-4.8442907e-05	632356.5	263480.2	-0.00022381378	263480.6	632356.2	-0.00014547896
0	0.6397778	0.6397774	-2.774791e-10	0.062225346	0.062225346	0	138475.38	138475.27	-5.536332e-05	632428.94	263259.7	-0.00015666964	263260.03	632428.6	-0.0002629812
0	0.6396731	0.63967264	-2.2411774e-10	0.062084086	0.062084086	0	138452.72	138452.61	-4.1522493e-05	632500.9	263041.2	-0.00013428828	263041.56	632500.56	-0.00015666964
0	0.6395673	0.63956684	-3.8420184e-10	0.061942536	0.061942536	0	138429.81	138429.69	-8.650519e-05	632573.2	262820.66	-0.00024619515	262821	632572.9	-0.0003133393
0	0.6394621	0.6394617	-2.3479e-10	0.061801046	0.061801046	0	138407.05	138406.94	-4.8442907e-05	632644.5	262602.16	-0.00015666964	262602.47	632644.25	-0.000162265
0	0.63935536	0.6393549	-2.6680683e-10	0.061659783	0.06165979	0	138383.94	138383.83	-5.882353e-05	632717.1	262380.06	-0.00020143241	262380.38	632716.8	-0.00020143241
0	0.63924915	0.6392486	-2.3479e-10	0.061518256	0.061518256	0	138360.94	138360.84	-4.8442907e-05	632789.25	262159.2	-0.00017905103	262159.53	632788.94	-0.00022381378
0	0.63914275	0.6391423	-3.4151273e-10	0.061376907	0.061376907	0	138337.9	138337.83	-6.5743945e-05	632861.06	261938.39	-0.00022381378	261938.73	632860.8	-0.00026857655
0	0.63903517	0.6390347	-2.5613456e-10	0.061235435	0.061235435	0	138314.62	138314.53	-5.536332e-05	632933.4	261715.52	-0.00017905103	261715.84	632933.1	-0.00017905103
0	0.63892853	0.6389281	-1.0672273e-10	0.061093953	0.061093953	0	138291.56	138291.47	-1.7301038e-05	633005.9	261493.75	-0.00011190689	261494.12	633005.56	-7.833482e-05
0	0.63882166	0.6388212	-2.3479e-10	0.06095263	0.06095263	0	138268.4	138268.31	-5.495783e-05	633077.8	261272.14	-0.00017905103	261272.48	633077.5	-0.00020702776
0	0.63871354	0.63871306	-2.5613456e-10	0.060811136	0.060811136	0	138245.02	138244.92	-4.49827e-05	633150	261048.61	-0.00015666964	261048.95	633149.6	-0.00020143241
0	0.6386064	0.638606	-4.1621864e-10	0.060669806	0.060669806	0	138221.84	138221.75	-8.3044986e-05	633222	260826.8	-0.0003357207	260827.1	633221.7	-0.0003021486
0	0.638498	0.63849753	-9.605046e-11	0.060528323	0.060528323	0	138198.38	138198.28	-2.0761247e-05	633294.2	260602.73	-0.00013428828	260603.1	633293.9	-4.4762757e-05
0	0.63839006	0.6383896	-1.0672273e-11	0.06038699	0.06038699	0	138174.98	138174.88	0	633366.6	260379	0	260379.36	633366.4	0
0	0.6382812	0.63828075	-2.2411774e-10	0.060245514	0.060245514	0	138151.47	138151.34	-5.1903113e-05	633439.1	260154.28	-0.00017905103	260154.61	633438.8	-0.00020143241
0	0.6381734	0.6381729	-3.7352957e-10	0.060104024	0.060104024	0	138128.11	138128.02	-8.2125865e-05	633511.4	259931.08	-0.00022381378	259931.47	633511	-0.0003133393
0	0.638064	0.63806355	-1.4941182e-10	0.0599627	0.0599627	0	138104.42	138104.33	-3.4602075e-05	633583.7	259705.62	-8.9525514e-05	259706	633583.25	-0.00011190689
0	0.63795555	0.6379551	-2.454623e-10	0.05982116	0.05982116	0	138080.97	138080.86	-6.920415e-05	633655.8	259481.6	-0.000100716206	259481.97	633655.5	-0.00026857655
0	0.63784575	0.6378453	-1.2806728e-10	0.059679892	0.059679892	0	138057.19	138057.08	-2.0761247e-05	633728.7	259254.89	-2.2381379e-05	259255.25	633728.44	-0.00010631155
0	0.63773596	0.63773555	-5.015968e-10	0.059538387	0.059538387	0	138033.42	138033.33	-0.00012456748	633801.06	259028.95	-0.00020143241	259029.33	633800.75	-0.0006042972
0	0.6376275	0.63762695	-1.9210092e-10	0.059396863	0.059396863	0	138009.92	138009.83	-4.1522493e-05	633873.2	258804.81	-0.00014547896	258805.2	633872.9	-0.00013988362
0	0.6375168	0.63751626	-1.4941182e-10	0.059255596	0.05925559	0	137985.98	137985.86	-2.6113754e-05	633945.5	258577.56	-0.00011190689	258577.88	633945.3	-0.00011750224
0	0.6374066	0.6374061	-2.5613456e-10	0.059114084	0.059114084	0	137962.14	137962.03	-4.8442907e-05	634018.4	258350.5	-0.00015666964	258350.88	634018	-0.00017905103
0	0.63729656	0.6372961	-1.600841e-10	0.05897273	0.05897273	0	137938.31	137938.22	-2.0761247e-05	634090.6	258124.27	-0.00012309758	258124.61	634090.25	-7.833482e-05
0	0.6371855	0.63718504	-2.3479e-10	0.05883124	0.05883124	0	137914.28	137914.19	-4.8442907e-05	634163.1	257896.19	-8.9525514e-05	257896.55	634162.9	-0.00020143241
0	0.63707465	0.6370742	-1.2806728e-10	0.05868996	0.058689952	0	137890.3	137890.19	-4.8442907e-05	634235.94	257668.14	-0.00013428828	257668.53	634235.6	-0.000100716206
0	0.6369635	0.636963	-3.3084047e-10	0.058548428	0.058548428	0	137866.23	137866.11	-6.5743945e-05	634308.6	257439.92	-0.00025738587	257440.3	634308.25	-0.00022381378
0	0.63685143	0.63685095	-2.1344546e-10	0.058406938	0.058406938	0	137841.97	137841.86	-4.49827e-05	634381.1	257210.44	-4.4762757e-05	257210.86	634380.8	-0.00019024171
0	0.63674116	0.6367407	-2.2411774e-10	0.05826566	0.05826566	0	137818.11	137818.02	-4.8442907e-05	634453.56	256983.73	-8.9525514e-05	256984.1	634453.2	-0.00024619515
0	0.6366291	0.63662857	-2.8815136e-10	0.058124106	0.058124106	0	137793.86	137793.73	-4.8442907e-05	634526.2	256754.2	-0.00011190689	256754.56	634525.9	-0.00026857655
0	0.6365172	0.6365167	-2.5613456e-10	0.057982814	0.057982814	0	137769.64	137769.55	-5.882353e-05	634598.6	256525.11	-0.00015666964	256525.45	634598.3	-0.00023500448
0	0.6364045	0.63640404	-2.1344546e-10	0.057841312	0.057841312	0	137745.25	137745.14	-4.1522493e-05	634671.75	256294.16	-0.00017905103	256294.55	634671.44	-7.833482e-05
0	0.63629264	0.63629216	-2.1344546e-10	0.057699807	0.057699807	0	137721.03	137720.9	-4.1522493e-05	634744.06	256065.25	-0.00012309758	256065.64	634743.7	-0.00016786034
0	0.6361796	0.6361791	-4.268909e-10	0.057558525	0.057558525	0	137696.55	137696.45	-8.99654e-05	634816.56	255834.5	-0.0003021486	255834.88	634816.25	-0.00039167414
0	0.63606656	0.6360661	-2.5613456e-10	0.05741701	0.05741701	0	137672.11	137672	-5.536332e-05	634889.44	255603.42	-0.00015666964	255603.83	634889.1	-0.00022381378
0	0.6359533	0.63595283	-9.605046e-11	0.057275683	0.057275683	0	137647.58	137647.48	-2.768166e-05	634962.3	255371.92	-6.714414e-05	255372.31	634962	-6.714414e-05
0	0.6358398	0.63583934	-2.3479e-10	0.057134178	0.057134178	0	137623.03	137622.9	-4.49827e-05	635035.2	255140.28	-0.00015666964	255140.67	635034.8	-0.00011750224
0	0.6357264	0.63572586	-3.3084047e-10	0.056992896	0.056992896	0	137598.44	137598.34	-6.920415e-05	635107.9	254908.64	-0.00013428828	254909.03	635107.5	-0.00032453
0	0.63561237	0.6356119	-3.8420184e-10	0.056851387	0.056851387	0	137573.78	137573.69	-7.266436e-05	635180.56	254676.36	-0.00020143241	254676.78	635180.25	-0.0003133393
0	0.63549846	0.6354979	-2.5613456e-10	0.056709882	0.056709882	0	137549.14	137549.02	-5.882353e-05	635253.2	254444.27	-0.00017905103	254444.64	635252.9	-0.00021821844
0	0.6353835	0.63538295	2.1344546e-11	0.056568604	0.056568604	0	137524.23	137524.14	-2.0761247e-05	635326.06	254210.42	-2.2381379e-05	254210.86	635325.75	-8.9525514e-05
0	0.6352693	0.63526875	-3.201682e-10	0.05642703	0.05642703	0	137499.53	137499.44	-6.5743945e-05	635398.75	253977.86	-0.00024619515	253978.23	635398.44	-0.00024619515
0	0.63515395	0.6351535	0	0.056285758	0.056285758	0	137474.58	137474.47	3.4602076e-06	635471.8	253743.38	8.9525514e-05	253743.81	635471.44	-5.5953446e-06
0	0.63503885	0.6350384	-2.9882363e-10	0.05614425	0.05614425	0	137449.66	137449.55	-7.266436e-05	635544.75	253509.33	-0.0003133393	253509.69	635544.4	-0.00020143241
0	0.63492364	0.6349231	-1.7075637e-10	0.056002736	0.056002736	0	137424.72	137424.6	-3.4602075e-05	635617.8	253274.92	-0.000100716206	253275.28	635617.4	-0.00014547896
0	0.63480836	0.6348078	-2.0277319e-10	0.055861462	0.05586146	0	137399.77	137399.66	-5.536332e-05	635690.4	253040.92	-0.00014547896	253041.31	635690	-0.00020143241
0	0.6346922	0.63469166	-2.8815136e-10	0.055719953	0.055719953	0	137374.62	137374.52	-6.5743945e-05	635763.4	252805.39	-0.00026857655	252805.78	635763	-0.00011190689
0	0.63457614	0.63457555	-2.2411774e-10	0.05557868	0.05557868	0	137349.5	137349.38	-4.49827e-05	635836.2	252569.97	-0.00015666964	252570.33	635835.8	-0.00013428828
0	0.6344601	0.63445956	-4.268909e-10	0.05543712	0.05543712	0	137324.39	137324.28	-8.99654e-05	635909	252334.69	-0.00024619515	252335.05	635908.7	-0.00034691137
0	0.63434315	0.63434255	-1.8142864e-10	0.05529583	0.05529583	0	137299.08	137298.95	-4.8442907e-05	635982.1	252097.9	-0.00015666964	252098.3	635981.8	-0.00013428828
0	0.6342261	0.63422555	2.0277319e-10	0.055154327	0.055154327	0	137273.73	137273.61	3.114187e-05	636055.2	251861	0.00020143241	251861.39	636054.8	7.833482e-05
0	0.6341091	0.6341086	-3.201682e-10	0.055012815	0.055012815	0	137248.42	137248.3	-6.228374e-05	636128.1	251624.19	-0.00022381378	251624.55	636127.8	-0.0002126231
0	0.633992	0.6339915	-2.3479e-10	0.054871533	0.054871533	0	137223.1	137222.97	-4.282007e-05	636200.9	251387.55	-0.00013428828	251387.97	636200.56	-0.00017905103
0	0.63387424	0.63387376	-6.403364e-11	0.05473003	0.05473003	0	137197.6	137197.47	-1.384083e-05	636273.9	251149.73	2.2381379e-05	251150.1	636273.5	-6.714414e-05
0	0.6337561	0.6337555	-1.8142864e-10	0.054588694	0.054588694	0	137172	137171.89	-3.4602075e-05	636347.44	250910.7	-0.00016506267	250911.12	636347.1	-7.833482e-05
0	0.6336386	0.633638	-1.9210092e-10	0.05444718	0.05444718	0	137146.58	137146.45	-3.114187e-05	636420.2	250673.36	0	250673.78	636419.9	-0.00020143241
0	0.63352007	0.63351953	-9.605046e-11	0.054305915	0.05430591	0	137120.92	137120.81	-1.7301038e-05	636493.4	250434.34	-0.00016786034	250434.73	636492.94	2.2381379e-05
0	0.63340217	0.6334017	-3.201682e-10	0.054164402	0.054164402	0	137095.42	137095.28	-7.958477e-05	636565.9	250196.75	-0.00020143241	250197.14	636565.56	-0.00029655328
0	0.63328224	0.63328177	-4.1621864e-10	0.054022882	0.054022882	0	137069.45	137069.34	-9.34256e-05	636639.1	249955.67	-0.0003133393	249956.06	636638.75	-0.00029655328
0	0.6331638	0.6331633	-2.9882363e-10	0.053881615	0.053881615	0	137043.8	137043.7	-6.228374e-05	636712.5	249716.47	-0.00015666964	249716.84	636712.1	-0.00022381378
0	0.6330441	0.6330436	-2.9882363e-10	0.05374005	0.05374005	0	137017.9	137017.8	-6.487889e-05	636785.75	249475.64	-0.00020423008	249476.06	636785.4	-0.00020702776
0	0.6329245	0.6329239	-2.8815136e-10	0.053598765	0.053598765	0	136992.02	136991.89	-6.920415e-05	636858.8	249235.11	-0.00017905103	249235.5	636858.44	-0.0003021486
0	0.6328046	0.632804	-2.774791e-10	0.053457264	0.053457264	0	136966.06	136965.95	-5.882353e-05	636932.1	248993.83	-0.00022381378	248994.23	636931.7	-0.0002126231
0	0.6326848	0.63268423	-2.2411774e-10	0.05331577	0.05331577	0	136940.16	136940.03	-5.1903113e-05	637005.1	248753.28	-7.833482e-05	248753.69	637004.7	-0.00024619515
0	0.6325646	0.63256407	-2.3479e-10	0.053174473	0.053174473	0	136914.11	136914	-5.536332e-05	637078.2	248511.92	-8.9525514e-05	248512.33	637077.8	-0.00025738587
0	0.63244414	0.6324436	-1.17395e-10	0.053032972	0.053032972	0	136888.03	136887.94	-2.0761247e-05	637151.25	248270.2	-6.714414e-05	248270.6	637150.9	-0.000100716206
0	0.6323227	0.6323222	-2.9882363e-10	0.052891634	0.052891634	0	136861.78	136861.64	-6.5743945e-05	637224.44	248026.98	-0.00017905103	248027.42	637224.1	-0.00022940912
0	0.63220227	0.63220173	-6.403364e-11	0.05275012	0.05275012	0	136835.7	136835.56	-1.384083e-05	637297.56	247785.27	-4.4762757e-05	247785.67	637297.2	-3.357207e-05
0	0.63208	0.6320795	-2.3479e-10	0.052608836	0.052608836	0	136809.23	136809.12	-5.882353e-05	637371.1	247540.55	-0.00024619515	247540.95	637370.8	-0.00019024171
0	0.6319588	0.6319582	-1.17395e-10	0.052467342	0.052467342	0	136783	136782.89	-2.768166e-05	637444.3	247297.62	-4.4762757e-05	247298.05	637443.94	-8.9525514e-05
0	0.6318373	0.63183683	-1.4941182e-10	0.052325826	0.052325826	0	136756.72	136756.61	-4.1522493e-05	637517.3	247054.67	-8.9525514e-05	247055.08	637516.94	-0.00017905103
0	0.6317147	0.63171417	-4.268909e-10	0.05218455	0.05218455	0	136730.16	136730.03	-9.34256e-05	637590.9	246809.33	-0.00023500448	246809.77	637590.44	-0.00035810206
0	0.6315925	0.6315919	-3.8420184e-10	0.05204299	0.05204299	0	136703.72	136703.6	-8.3044986e-05	637663.9	246565.17	-0.00026857655	246565.6	637663.5	-0.00030774396
0	0.63146937	0.63146883	-2.3479e-10	0.051901694	0.051901694	0	136677.06	136676.94	-5.882353e-05	637737.25	246319.44	-0.00017905103	246319.86	637736.9	-0.0002126231
0	0.6313467	0.6313461	-1.17395e-10	0.051760197	0.051760197	0	136650.5	136650.39	-3.114187e-05	637810.75	246074.22	-5.5953446e-05	246074.62	637810.4	-0.00013428828
0	0.63122344	0.63122284	-2.9882363e-10	0.051618703	0.051618703	0	136623.83	136623.7	-6.5743945e-05	637884.2	245828.2	-0.00024619515	245828.64	637883.8	-0.0002126231
0	0.63110024	0.63109964	-1.8142864e-10	0.05147742	0.05147742	0	136597.17	136597.05	-4.1522493e-05	637957.25	245582.75	-0.00013428828	245583.16	637956.9	-0.00015666964
0	0.63097614	0.63097554	-3.4151273e-10	0.051335912	0.051335912	0	136570.31	136570.17	-7.958477e-05	638030.7	245335.5	-0.00015666964	245335.94	638030.25	-0.0003133393
0	0.6308523	0.63085175	-2.3479e-10	0.051194567	0.051194567	0	136543.52	136543.39	-3.8062284e-05	638103.94	245088.86	-6.714414e-05	245089.27	638103.56	-0.00017345569
0	0.6307281	0.6307276	-2.5613456e-10	0.051053073	0.051053073	0	136516.62	136516.52	-5.536332e-05	638177.3	244841.72	-0.00017905103	244842.16	638176.94	-0.00019024171
0	0.63060343	0.63060284	-1.0672273e-10	0.05091177	0.05091177	0	136489.64	136489.53	-2.0761247e-05	638250.75	244593.67	-4.4762757e-05	244594.06	638250.4	-8.9525514e-05
0	0.63047904	0.63047856	-4.1621864e-10	0.050770275	0.050770275	0	136462.72	136462.6	-8.3044986e-05	638323.94	244346.31	-0.00035810206	244346.75	638323.56	-0.00025738587
0	0.6303536	0.6303531	-8.5378184e-11	0.05062879	0.05062879	0	136435.56	136435.44	-2.0761247e-05	638397.1	244097.48	-0.00013428828	244097.92	638396.8	-4.4762757e-05
0	0.63022834	0.6302278	-2.774791e-10	0.05048749	0.05048749	0	136408.45	136408.34	-5.1903113e-05	638470.7	243848.58	-0.00015666964	243849	638470.4	-0.00023500448
0	0.6301027	0.63010216	-5.3361364e-11	0.05034593	0.05034593	0	136381.28	136381.14	-1.0380623e-05	638544.25	243599.17	-4.4762757e-05	243599.61	638543.9	-1.1190689e-05
0	0.62997735	0.6299767	-2.0277319e-10	0.050204646	0.050204646	0	136354.11	136353.98	-3.114187e-05	638617.3	243350.44	-0.00013428828	243350.88	638616.94	-0.00015666964
0	0.62985075	0.6298502	-1.9210092e-10	0.050063137	0.050063137	0	136326.72	136326.6	-4.8442907e-05	638691	243099.6	-0.00016786034	243100	638690.6	-0.000100716206
0	0.6297243	0.62972385	-3.8420184e-10	0.04992165	0.04992165	0	136299.36	136299.27	-8.650519e-05	638764.06	242849.58	-0.00020143241	242850.03	638763.75	-0.0003357207
0	0.62959796	0.6295973	-3.52185e-10	0.04978036	0.04978036	0	136272	136271.86	-7.958477e-05	638837.8	242598.89	-0.00020143241	242599.34	638837.4	-0.00030774396
0	0.6294707	0.62947017	-6.403364e-11	0.049638852	0.049638852	0	136244.48	136244.34	-2.4221454e-05	638911.4	242347.16	-5.5953446e-05	242347.61	638911.06	-5.5953446e-05
0	0.62934375	0.62934315	-2.0277319e-10	0.049497508	0.049497508	0	136217	136216.86	-4.9307957e-05	638984.7	242096.06	-0.00017905103	242096.5	638984.3	-0.00016786034
0	0.629216	0.6292154	-4.268909e-10	0.04935601	0.04935601	0	136189.34	136189.22	-8.650519e-05	639058.3	241843.69	-0.0003357207	241844.14	639057.94	-0.00027417188
0	0.62908876	0.62908816	-2.0277319e-10	0.049214706	0.049214706	0	136161.8	136161.69	-4.8442907e-05	639131.5	241592.33	-0.00019024171	241592.77	639131.06	-0.00014547896
0	0.6289604	0.6289598	-9.605046e-11	0.049073216	0.049073216	0	136134.02	136133.89	-1.7355103e-05	639205	241339.11	2.2381379e-05	241339.52	639204.6	-0.00012309758
0	0.62883204	0.6288315	-1.9210092e-10	0.048931725	0.048931725	0	136106.23	136106.11	-3.8062284e-05	639278.4	241086.12	-0.00013428828	241086.55	639278	-0.00011190689
0	0.62870353	0.628703	-1.3873955e-10	0.048790433	0.048790433	0	136078.42	136078.3	-2.4221454e-05	639352.2	240832.33	-6.714414e-05	240832.77	639351.75	-4.4762757e-05
0	0.6285746	0.6285741	-1.17395e-10	0.048648868	0.048648868	0	136050.52	136050.39	-1.2975778e-05	639425.3	240578.77	-0.00015666964	240579.2	639425	6.154879e-05
0	0.6284455	0.6284449	-2.9882363e-10	0.04850758	0.04850758	0	136022.58	136022.45	-6.5743945e-05	639498.7	240324.62	-0.00015666964	240325.08	639498.3	-0.00026857655
0	0.6283164	0.6283158	-6.403364e-11	0.04836608	0.04836608	0	135994.62	135994.5	-6.920415e-06	639572.2	240070.38	7.833482e-05	240070.81	639571.8	-0.00013428828
0	0.62818646	0.62818587	-2.5613456e-10	0.04822459	0.04822459	0	135966.5	135966.39	-4.8442907e-05	639645.9	239814.7	-0.00019443822	239815.19	639645.5	-0.00017345569
0	0.6280568	0.62805617	-1.7075637e-10	0.04808329	0.04808329	0	135938.44	135938.31	-4.1522493e-05	639719.3	239559.77	-0.00013428828	239560.19	639718.94	-0.00017905103
0	0.62792593	0.62792534	-2.454623e-10	0.047941796	0.047941796	0	135910.12	135909.98	-4.1522493e-05	639793.06	239302.89	-0.00011190689	239303.3	639792.75	-0.00020143241
0	0.627796	0.62779534	-2.774791e-10	0.047800433	0.047800433	0	135881.98	135881.86	-6.920415e-05	639866.5	239047.39	-0.00019024171	239047.83	639866.06	-0.00019583707
0	0.6276648	0.6276642	-1.8142864e-10	0.047658954	0.047658954	0	135853.58	135853.47	-3.8062284e-05	639940.06	238790.16	-6.714414e-05	238790.61	639939.75	-0.00019024171
0	0.62753415	0.62753356	-6.403364e-11	0.047517646	0.047517646	0	135825.31	135825.19	-1.0380623e-05	640013.5	238533.83	-3.357207e-05	238534.3	640013.1	-0.000100716206
0	0.62740266	0.62740195	-7.470591e-11	0.047376156	0.047376156	0	135796.84	135796.72	-2.4221454e-05	640087.25	238276.1	-8.9525514e-05	238276.55	640086.75	-5.5953446e-05
0	0.6272708	0.6272703	-1.9210092e-10	0.04723467	0.04723467	0	135768.34	135768.2	-3.4602075e-05	640160.6	238018.17	-4.4762757e-05	238018.62	640160.1	-0.00015666964
0	0.6271391	0.6271385	-9.605046e-11	0.04709336	0.04709336	0	135739.83	135739.69	-2.0761247e-05	640234.06	237760.16	-1.1190689e-05	237760.66	640233.75	-0.00014547896
0	0.6270067	0.6270061	-6.403364e-11	0.046951808	0.046951808	0	135711.17	135711.03	-1.384083e-05	640307.8	237501.14	-6.294763e-05	237501.61	640307.4	5.5953446e-06
0	0.6268743	0.62687373	-1.600841e-10	0.04681051	0.04681051	0	135682.5	135682.36	-4.1522493e-05	640381.4	237242.28	-0.00015666964	237242.69	640381.06	-0.00011190689
0	0.6267417	0.6267411	-1.600841e-10	0.046669018	0.046669018	0	135653.78	135653.66	-4.1522493e-05	640454.6	236983.3	-0.00013428828	236983.77	640454.1	-0.00011190689
0	0.62660855	0.6266079	-2.774791e-10	0.04652772	0.04652772	0	135624.97	135624.84	-5.536332e-05	640528.1	236723.36	-0.00024619515	236723.8	640527.75	-0.00011750224
0	0.62647504	0.6264744	-2.454623e-10	0.046386234	0.046386234	0	135596.06	135595.92	-6.228374e-05	640602.1	236462.44	-0.00020143241	236462.89	640601.7	-0.00013428828
0	0.6263414	0.62634075	-1.2806728e-10	0.04624474	0.04624474	0	135567.14	135567.03	-3.114187e-05	640675.5	236201.97	-0.00016786034	236202.38	640675.1	-3.357207e-05
0	0.62620735	0.6262067	-1.2806728e-10	0.046103436	0.046103436	0	135538.14	135538.02	-3.4602075e-05	640749.25	235940.56	-0.00015666964	235941.02	640748.8	-6.154879e-05
0	0.6260734	0.6260728	9.605046e-11	0.045961883	0.045961883	0	135509.14	135509.02	1.384083e-05	640822.6	235679.72	8.9525514e-05	235680.2	640822.1	4.4762757e-05
0	0.6259386	0.62593806	-2.6680683e-10	0.045820575	0.045820575	0	135479.98	135479.84	-4.8442907e-05	640896.44	235417.2	-0.00020143241	235417.69	640896	-8.9525514e-05
0	0.62580365	0.62580305	-1.7075637e-10	0.045679096	0.0456791	0	135450.78	135450.64	-4.1522493e-05	640969.94	235154.75	-0.00011190689	235155.23	640969.5	-0.00015666964
0	0.6256689	0.6256683	-1.4941182e-10	0.045537613	0.045537613	0	135421.6	135421.47	-3.8062284e-05	641043.3	234892.7	-8.9525514e-05	234893.17	641042.9	-0.00016786034
0	0.6255331	0.62553245	-1.4941182e-10	0.0453963	0.0453963	0	135392.22	135392.06	-3.8062284e-05	641117.06	234628.77	-0.00022381378	234629.25	641116.7	-5.5953446e-05
0	0.62539846	0.62539786	-3.3084047e-10	0.04525482	0.04525482	0	135363.06	135362.92	-7.266436e-05	641190.2	234367.3	-0.00020143241	234367.75	641189.75	-0.0002126231
0	0.6252614	0.6252608	-2.9882363e-10	0.045113444	0.045113444	0	135333.4	135333.25	-6.5743945e-05	641264.56	234101.05	-0.00011190689	234101.5	641264.1	-0.00027976724