//mumax 3.10 [windows_amd64 go1.11.6(gc) CUDA-11.0]
//GPU info: NVIDIA GeForce RTX 3090(24575MB), CUDA Driver 12.0, cc=8.6, using cc=80 PTX
//(c) Arne Vansteenkiste, Dynamat LAB, Ghent University, Belgium
//This is free software without any warranty. See license.txt
//********************************************************************//
//  If you use mumax in any work or publication,                      //
//  we kindly ask you to cite the references in references.bib        //
//********************************************************************//
//output directory: r1;p0.8;a4.0000000000000003e-07;l3.0000000000000004e-07;s1.out/
randSeed(1)
ThermSeed(1)
resolution := 2e-09
zResolution := 5e-09
a := 4.0000000000000003e-07
gridSize := 400
gridDepth := 5
SetCellsize(resolution, resolution, zResolution)
SetGridsize(gridSize, gridSize, gridDepth)
SetPBC(16, 16, 0)
//resizing...
Msat = 700e3
Aex = 13e-12
alpha = 0.2
Bmax := 0.1
Bstep := Bmax / 500.0
TableAdd(B_ext)
TableAdd(m_full)
islandWidth := 8e-08
islandLength := 3.0000000000000004e-07
ellipseConstant := 1.2000000000000002e-07
hIsland := Universe().Inverse()
vIsland := Universe().Inverse()
vIslands := Universe().Inverse()
hIslands := Universe().Inverse()
hIsland = rect(islandLength-2*ellipseConstant, islandWidth)
hIsland = hIsland.add(ellipse(ellipseConstant*2, islandWidth).transl(islandLength/2-ellipseConstant, 0, 0))
hIsland = hIsland.add(ellipse(ellipseConstant*2, islandWidth).transl(-islandLength/2+ellipseConstant, 0, 0))
hIsland = hIsland.add(rect(5.658255396563619e-09, 5.99397140236735e-10).transl(1.2723351940660301e-07, -2.3441754541382296e-08, 0))
hIsland = hIsland.add(rect(6.525768797263107e-09, 2.4645161510177578e-09).transl(3.667266938131368e-08, -3.9938112517754937e-08, 0))
hIsland = hIsland.add(rect(9.758888376005668e-09, 2.1971175753155942e-09).transl(9.387812909353351e-08, -3.3861785447954734e-08, 0))
hIsland = hIsland.sub(rect(6.23301870651791e-09, -5.146674356827884e-10).transl(3.781824141116467e-08, -3.991501402457302e-08, 0))
hIsland = hIsland.add(rect(7.622123035891997e-09, 1.243821905103869e-09).transl(-1.262691085486367e-07, -2.387992820399314e-08, 0))
hIsland = hIsland.add(rect(6.457074980777259e-09, 3.2520909523455194e-09).transl(2.0948425050725405e-08, -4e-08, 0))
hIsland = hIsland.add(rect(4.843711063296818e-09, 3.5366838752226533e-09).transl(8.256341867721926e-08, -3.595844363360968e-08, 0))
hIsland = hIsland.add(rect(7.2350860139040095e-09, 1.2434005698563979e-09).transl(2.1797403676042194e-08, -4e-08, 0))
hIsland = hIsland.sub(rect(6.865529804447756e-09, -6.761401427109293e-10).transl(-1.4275022929114398e-07, -1.3692600575957728e-08, 0))
hIsland = hIsland.add(rect(9.49330568733372e-09, 3.82025868079332e-09).transl(1.2957032469198314e-07, -2.2325248389144657e-08, 0))
hIsland = hIsland.sub(rect(8.676820647762277e-09, -1.3597676853756036e-09).transl(9.816471685321757e-08, -3.292005700062683e-08, 0))
hIsland = hIsland.sub(rect(5.498879190232985e-09, -1.1939329024847057e-10).transl(-1.8166776646550957e-09, -4e-08, 0))
hIsland = hIsland.sub(rect(2.729910635872465e-09, -2.8845520307387985e-09).transl(-1.1671073772636628e-07, -2.765109594562879e-08, 0))
hIsland = hIsland.add(rect(7.424214121341785e-09, 6.913560743280332e-10).transl(-1.9590466937695465e-08, -4e-08, 0))
hIsland = hIsland.add(rect(3.7531643658622305e-09, 1.8346886459668278e-09).transl(1.3594390370007335e-07, -1.878500959331843e-08, 0))
hIsland = hIsland.add(rect(4.417952693770009e-09, 1.7192393091080732e-09).transl(8.935334310552015e-08, -3.476457434131988e-08, 0))
hIsland = hIsland.add(rect(5.121580418832842e-09, 2.1064674714254747e-09).transl(8.420361746698786e-08, -3.568686009894095e-08, 0))
hIsland = hIsland.add(rect(5.624661498532709e-09, 1.2382814528562998e-09).transl(8.426265886916663e-08, -3.567688927092479e-08, 0))
hIsland = hIsland.add(rect(8.810462684320008e-09, 2.1515905752546726e-09).transl(4.5801309276226825e-08, -3.965170393586445e-08, 0))
hIsland = hIsland.sub(rect(7.028971671163987e-09, -1.8936503796772606e-09).transl(2.2718412027772957e-08, -4e-08, 0))
hIsland = hIsland.sub(rect(8.85226471658911e-09, -9.450992094755781e-11).transl(-4.129621736479383e-08, -3.982237711701429e-08, 0))
hIsland = hIsland.sub(rect(4.551570400526943e-09, -2.58965676446709e-09).transl(6.666069121852694e-08, -3.808760912449061e-08, 0))
hIsland = hIsland.add(rect(4.975478184890478e-09, 3.3702493267762524e-10).transl(6.610043605269504e-08, -3.8147023353810216e-08, 0))
hIsland = hIsland.add(rect(9.703106278108677e-09, 4.288997926746572e-09).transl(5.301072150772022e-08, -3.925770511164251e-08, 0))
hIsland = hIsland.add(rect(7.003780486630524e-09, 7.288502308526382e-10).transl(-1.4500999947979146e-07, -1.141490263577679e-08, 0))
hIsland = hIsland.add(rect(2.0787837356713802e-09, 1.8555843061931069e-09).transl(2.3491287056298697e-08, -4e-08, 0))
hIsland = hIsland.add(rect(2.6991801213705004e-09, 1.6585335721087032e-09).transl(-3.458720553490859e-08, -3.9970763684056914e-08, 0))
hIsland = hIsland.sub(rect(9.840096266692257e-09, -3.1233640331245873e-09).transl(-1.7792327071889962e-08, -4e-08, 0))
hIsland = hIsland.sub(rect(8.121185633944404e-09, -1.0574846992291853e-09).transl(-1.4746217410717486e-07, -8.182893090776789e-09, 0))
hIsland = hIsland.sub(rect(8.128172134374439e-09, -8.129452520104087e-10).transl(4.9795851971191957e-08, -3.945197396094347e-08, 0))
hIsland = hIsland.add(rect(6.646608176516107e-09, 2.2426648206694234e-09).transl(1.793564445678053e-08, -4e-08, 0))
hIsland = hIsland.sub(rect(5.844490745409338e-09, -4.984861478683696e-10).transl(-1.1411261043335178e-07, -2.8528871859315516e-08, 0))
hIsland = hIsland.sub(rect(5.889748628880551e-09, -2.9157296370697903e-09).transl(-1.0719262524401155e-07, -3.06255133434302e-08, 0))
hIsland = hIsland.sub(rect(3.6130046467539564e-09, -2.8626603172634536e-10).transl(9.94597918021063e-08, -3.261788419258512e-08, 0))
hIsland = hIsland.sub(rect(7.837943032075924e-09, -1.7526655825906394e-09).transl(-1.3742459730850803e-07, -1.782618515026854e-08, 0))
hIsland = hIsland.add(rect(9.04618392944845e-09, 4.791057571053185e-12).transl(4.703775844456299e-08, -3.959477348672384e-08, 0))
hIsland = hIsland.add(rect(7.587344673937328e-09, 3.629405223495417e-10).transl(1.3914785520929168e-07, -1.6622426962829814e-08, 0))
hIsland = hIsland.add(rect(9.571820189907108e-09, 1.0628803697241877e-09).transl(2.2361924459796788e-08, -4e-08, 0))
hIsland = hIsland.add(rect(9.453604964932606e-09, 9.090404041031695e-10).transl(-1.1654741759068332e-08, -4e-08, 0))
hIsland = hIsland.add(rect(7.377160615692615e-09, 9.283903860707475e-10).transl(1.1249017643482722e-07, -2.9050474832132127e-08, 0))
hIsland = hIsland.sub(rect(7.25313920219842e-09, -5.689959403526862e-10).transl(1.2325844343613967e-08, -4e-08, 0))
hIsland = hIsland.sub(rect(7.071776791086994e-09, -5.64520786893205e-10).transl(1.3642563443504123e-07, -1.8479972147342435e-08, 0))
hIsland = hIsland.add(rect(7.928601560959406e-09, 4.153776228694217e-09).transl(1.2548986834039043e-07, -2.422506746770769e-08, 0))
hIsland = hIsland.sub(rect(8.546397917640479e-09, -3.3132057152351724e-09).transl(-9.390354864079555e-08, -3.385645592647727e-08, 0))
hIsland = hIsland.sub(rect(4.885685140325426e-09, -9.426265246963863e-10).transl(2.1767463637501717e-08, -4e-08, 0))
hIsland = hIsland.sub(rect(3.59591303721977e-09, -8.391676687505244e-11).transl(6.234776337278477e-08, -3.8519291277630294e-08, 0))
hIsland = hIsland.add(rect(3.0176395508927494e-09, 2.4394072332123987e-09).transl(1.1586326889169176e-07, -2.7943393286414358e-08, 0))
hIsland = hIsland.add(rect(6.368442057251226e-09, 8.166606523611377e-10).transl(2.6509045170141464e-08, -4e-08, 0))
hIsland = hIsland.sub(rect(8.972163794026605e-09, -1.2281425337387736e-09).transl(-8.95922741119342e-08, -3.4719128359143435e-08, 0))
hIsland = hIsland.sub(rect(2.641165625148476e-09, -1.3436739823376944e-09).transl(-7.668953961203583e-08, -3.6848167285672486e-08, 0))
hIsland = hIsland.sub(rect(2.5314891532826523e-09, -1.3988142306531557e-09).transl(-3.6267723663032515e-08, -3.99454011260424e-08, 0))
hIsland = hIsland.sub(rect(6.907708566561725e-09, -4.3365997196753445e-09).transl(-6.375272537927548e-08, -3.838511506860615e-08, 0))
hIsland = hIsland.add(rect(7.225990718058736e-09, 4.492332828595009e-10).transl(1.872837331609251e-08, -4e-08, 0))
hIsland = hIsland.sub(rect(8.350472446321881e-09, -1.019805785578397e-09).transl(-1.3367609658444216e-07, -2.0141904900021034e-08, 0))
hIsland = hIsland.sub(rect(8.236571705231264e-09, -1.1571270240205363e-09).transl(-1.311195780628287e-07, -2.1537643872984335e-08, 0))
hIsland = hIsland.sub(rect(9.003367107591231e-09, -4.11470360477716e-09).transl(8.978727486517935e-08, -3.4681858472879344e-08, 0))
hIsland = hIsland.add(rect(7.580747531827332e-09, 2.287573245437041e-09).transl(-2.978239752765987e-08, -4e-08, 0))
hIsland = hIsland.add(rect(9.337757571478723e-09, 2.1057687077930285e-09).transl(-9.763442815147771e-08, -3.304136150110882e-08, 0))
hIsland = hIsland.add(rect(2.928166194705302e-09, 2.8627834271254217e-09).transl(-6.937508378865334e-08, -3.778536279895303e-08, 0))
hIsland = hIsland.add(rect(2.761718156813719e-09, 1.7914255605100027e-09).transl(5.525181333989273e-08, -3.9104341792251743e-08, 0))
hIsland = hIsland.add(rect(2.6564074743516256e-09, 9.702105245558219e-10).transl(-8.232565021770411e-08, -3.59969540830185e-08, 0))
hIsland = hIsland.add(rect(9.373747074250733e-09, 1.3775878138713377e-10).transl(-5.153204251498761e-08, -3.935080282271925e-08, 0))
hIsland = hIsland.sub(rect(8.849896208894344e-09, -1.1533662486386958e-10).transl(1.3675290833664228e-07, -1.8269028319561485e-08, 0))
hIsland = hIsland.add(rect(2.233748429046436e-09, 2.9888263184554156e-09).transl(1.4299411601015615e-07, -1.3467366925206761e-08, 0))
hIsland = hIsland.sub(rect(2.271965580615035e-09, -1.7960561799523493e-09).transl(1.5948227745002172e-09, -4e-08, 0))
hIsland = hIsland.add(rect(2.311870523248632e-09, 8.871397144458931e-10).transl(8.038820189172734e-08, -3.6302783961378264e-08, 0))
hIsland = hIsland.add(rect(9.980564719080903e-09, 5.736305691742319e-09).transl(-3.695720105065836e-08, -3.993271751548085e-08, 0))
hIsland = hIsland.sub(rect(4.2685082687990216e-09, -1.0753901925454152e-09).transl(-8.141595411066632e-09, -4e-08, 0))
hIsland = hIsland.sub(rect(4.789663703903497e-09, -1.1599451393780528e-09).transl(1.9005313867903443e-08, -4e-08, 0))
hIsland = hIsland.add(rect(3.829168086453321e-09, 2.9947871250987175e-09).transl(1.206162213776685e-07, -2.6222764544556784e-08, 0))
hIsland = hIsland.add(rect(6.7148372932428215e-09, 1.8094555915673181e-09).transl(2.703202505987587e-08, -4e-08, 0))
hIsland = hIsland.sub(rect(7.2894853358386745e-09, -1.3880682701686786e-09).transl(2.096469696882878e-08, -4e-08, 0))
hIsland = hIsland.add(rect(4.820692222162506e-09, 1.90839424604403e-09).transl(-2.920613603034201e-08, -4e-08, 0))
hIsland = hIsland.add(rect(3.362871615851462e-09, 2.238614692047754e-09).transl(-7.536284869871466e-08, -3.703183609025187e-08, 0))
hIsland = hIsland.add(rect(7.118049962199964e-09, 1.5669880248327848e-09).transl(-6.49140093025135e-08, -3.826952944347355e-08, 0))
hIsland = hIsland.sub(rect(5.5170251172698665e-09, -2.1131245145026433e-11).transl(2.1487879722071578e-08, -4e-08, 0))
hIsland = hIsland.sub(rect(5.160472208531441e-09, -2.8889885772945787e-09).transl(-9.717335885786009e-08, -3.3145705033907404e-08, 0))
hIsland = hIsland.add(rect(8.436562614687393e-09, 3.679156870820748e-09).transl(-8.13846060909453e-08, -3.6147264007234486e-08, 0))
hIsland = hIsland.sub(rect(4.4946545302190954e-09, -5.255872372901334e-10).transl(1.884234818536977e-08, -4e-08, 0))
hIsland = hIsland.sub(rect(8.372684264642001e-09, -1.0463539723349558e-09).transl(-8.152094912465823e-08, -3.6125693843847144e-08, 0))
hIsland = hIsland.sub(rect(8.557528330249171e-09, -1.4000637736973632e-09).transl(1.285057164789466e-07, -2.2843972754729445e-08, 0))
hIsland = hIsland.sub(rect(8.664124012674092e-09, -2.5772515667623863e-11).transl(-1.2760888069816304e-07, -2.3267780319221058e-08, 0))
hIsland = hIsland.add(rect(7.677608102696798e-09, 4.960541784969713e-10).transl(-1.203867010408591e-08, -4e-08, 0))
hIsland = hIsland.sub(rect(6.707438553809986e-09, -1.5633171122527986e-09).transl(1.092595754042869e-07, -3.003316630869605e-08, 0))
hIsland = hIsland.add(rect(4.699735431390591e-09, 5.594528998394628e-10).transl(9.238094734661293e-08, -3.417051589396772e-08, 0))
hIsland = hIsland.sub(rect(2.333520684152628e-09, -4.4141786106974584e-10).transl(-1.268774105351396e-07, -2.360500730307973e-08, 0))
hIsland = hIsland.sub(rect(4.66169238692004e-09, -1.5517030506448923e-10).transl(-8.602982028019632e-08, -3.5372084472502865e-08, 0))
hIsland = hIsland.add(rect(5.466384919647105e-09, 1.1479648877374157e-09).transl(1.0148292234324551e-07, -3.2128547038540754e-08, 0))
hIsland = hIsland.sub(rect(8.867569914470248e-09, -4.64523257072204e-09).transl(-3.856431643930282e-09, -4e-08, 0))
hIsland = hIsland.add(rect(8.554289322199094e-09, 1.2126192333077716e-09).transl(-9.575854513801884e-08, -3.345945098395825e-08, 0))
hIsland = hIsland.add(rect(4.658464682807768e-09, 1.4897720547558678e-09).transl(6.056594046441012e-09, -4e-08, 0))
hIsland = hIsland.sub(rect(2.0633126853080957e-09, -2.331225414299025e-10).transl(4.7582336864967556e-08, -3.9568311437825544e-08, 0))
hIsland = hIsland.sub(rect(2.8376414428642617e-09, -2.9088848383071224e-09).transl(1.1268460571159225e-07, -2.8988994038578252e-08, 0))
hIsland = hIsland.sub(rect(2.6732818580972444e-09, -4.036666523830604e-09).transl(-1.2217167493841118e-07, -2.561332626029719e-08, 0))
hIsland = hIsland.add(rect(4.977068357960935e-09, 1.4876612996160013e-10).transl(1.353110360852557e-07, -1.917633286299076e-08, 0))
hIsland = hIsland.add(rect(9.863853770878138e-09, 5.740845021305534e-09).transl(1.1034124209763701e-07, -2.9712109050779807e-08, 0))
hIsland = hIsland.add(rect(7.370377536689372e-09, 8.967687604741956e-10).transl(-1.9054361211861805e-08, -4e-08, 0))
hIsland = hIsland.sub(rect(2.5928210341651567e-09, -2.8218242300595927e-09).transl(1.5507838402836882e-08, -4e-08, 0))
hIsland = hIsland.add(rect(5.972913367385192e-09, 2.8714128115560955e-09).transl(-3.817951574626505e-08, -3.990696892935508e-08, 0))
hIsland = hIsland.sub(rect(4.047223708877386e-09, -1.3195326163243903e-09).transl(-1.4866397161109916e-07, -5.952234328200309e-09, 0))
hIsland = hIsland.sub(rect(7.488771325464168e-09, -1.7385369160925416e-10).transl(-4.731205515570821e-08, -3.958155118273849e-08, 0))
hIsland = hIsland.sub(rect(8.855182663093708e-09, -9.97959665166427e-10).transl(-1.266325390104419e-07, -2.3716268219645326e-08, 0))
hIsland = hIsland.add(rect(2.682235260518227e-09, 1.9824249296872406e-09).transl(5.12966404812166e-08, -3.936503398281526e-08, 0))
hIsland = hIsland.add(rect(5.209681690501629e-09, 2.831753969046835e-09).transl(-1.416334660843173e-07, -1.4674124051092213e-08, 0))
hIsland = hIsland.sub(rect(5.024087669780429e-09, -5.061101666526209e-10).transl(-3.656847218951538e-08, -3.9940031676802055e-08, 0))
hIsland = hIsland.add(rect(5.7325724424485906e-09, 3.0161750264955027e-09).transl(-8.475495734709812e-08, -3.5593218214706557e-08, 0))
hIsland = hIsland.sub(rect(7.287046441199201e-09, -3.4659497063202286e-10).transl(-5.309013737015728e-08, -3.9252523706872464e-08, 0))
hIsland = hIsland.add(rect(4.140452481644149e-09, 6.195313887711697e-10).transl(5.894012327320573e-08, -3.881933834362521e-08, 0))
hIsland = hIsland.sub(rect(3.492157292517013e-09, -3.6201065449154774e-10).transl(1.5054264143259664e-08, -4e-08, 0))
hIsland = hIsland.sub(rect(3.807490135054958e-09, -1.917203430386243e-09).transl(1.782322914315603e-08, -4e-08, 0))
hIsland = hIsland.sub(rect(3.859117425243857e-09, -5.609826974288448e-09).transl(3.4763440393857337e-08, -3.9968473180765546e-08, 0))
hIsland = hIsland.sub(rect(2.6983533374702946e-09, -6.183869846964406e-10).transl(-2.0038543096881982e-08, -4e-08, 0))
hIsland = hIsland.sub(rect(6.882896798059295e-09, -1.0478793191678594e-09).transl(-9.312175461114207e-08, -3.4019020978157315e-08, 0))
hIsland = hIsland.add(rect(5.688921856372498e-09, 2.2886188909856615e-09).transl(1.1925614227921534e-07, -2.673603699011769e-08, 0))
hIsland = hIsland.add(rect(7.016084158365772e-09, 1.1680345762035302e-09).transl(1.2858104396275446e-09, -4e-08, 0))
hIsland = hIsland.sub(rect(7.420454794505924e-09, -9.282071812519676e-10).transl(-1.3356568973244414e-07, -2.0204916646541252e-08, 0))
hIsland = hIsland.sub(rect(7.651920828403668e-09, -1.0038295365951162e-09).transl(6.275869562102655e-09, -4e-08, 0))
hIsland = hIsland.sub(rect(2.1889939705407325e-09, -3.1305843705017764e-09).transl(1.1776138240011727e-07, -2.72803139425166e-08, 0))
hIsland = hIsland.add(rect(3.1034853027655437e-09, 1.0271039809031847e-10).transl(-9.277959882388066e-08, -3.408929772020767e-08, 0))
hIsland = hIsland.sub(rect(8.445167354454025e-09, -3.416768976938604e-09).transl(7.622243588710311e-08, -3.6913542261558283e-08, 0))
hIsland = hIsland.add(rect(7.812436864318192e-09, 1.6336747554979417e-10).transl(-5.105170881356306e-08, -3.937966981977284e-08, 0))
hIsland = hIsland.add(rect(4.990827021405588e-09, 1.2102505817680954e-09).transl(5.436336506328074e-08, -3.916691693933274e-08, 0))
hIsland = hIsland.add(rect(5.489046912524313e-09, 5.081144177499931e-10).transl(8.319292860303822e-08, -3.5855438680333e-08, 0))
hIsland = hIsland.add(rect(7.524894266003056e-09, 2.8045880376004025e-09).transl(-1.445114057052474e-09, -4e-08, 0))
hIsland = hIsland.add(rect(6.43509225931e-09, 1.7590568491308637e-09).transl(-6.806208541062329e-08, -3.7934560106399634e-08, 0))
hIsland = hIsland.sub(rect(6.0927936587062645e-09, -9.596823954152146e-10).transl(-7.85135823634989e-09, -4e-08, 0))
hIsland = hIsland.sub(rect(7.3590530194479e-09, -2.3599294534184765e-11).transl(6.68060543151983e-08, -3.807202876091387e-08, 0))
hIsland = hIsland.add(rect(6.440143531550297e-09, 1.618661388795674e-09).transl(-1.0774456777517124e-07, -3.046998920878598e-08, 0))
hIsland = hIsland.sub(rect(2.1924805634109126e-09, -1.6596136950152597e-09).transl(2.1918868314752014e-08, -4e-08, 0))
hIsland = hIsland.sub(rect(9.246702504516176e-09, -1.8159911440138017e-09).transl(4.096342619518975e-08, -3.9832710296470085e-08, 0))
hIsland = hIsland.sub(rect(6.355679659953592e-09, -6.5541310550565e-10).transl(-1.4788004788011534e-08, -4e-08, 0))
hIsland = hIsland.add(rect(5.420838697474487e-09, 3.5873440247676977e-09).transl(-5.071117857296307e-08, -3.939972797723191e-08, 0))
hIsland = hIsland.sub(rect(7.972405092528376e-09, -1.4992956982501058e-10).transl(-3.840368108166885e-08, -3.9901793532897186e-08, 0))
hIsland = hIsland.sub(rect(5.377588282045178e-09, -2.1792642908301304e-09).transl(-2.632898383162972e-09, -4e-08, 0))
hIsland = hIsland.add(rect(9.273864568109918e-09, 1.4610614597731348e-09).transl(6.101366634848299e-08, -3.8641015197764746e-08, 0))
hIsland = hIsland.sub(rect(4.5976151371186304e-09, -7.65445424102312e-10).transl(5.0427633142924315e-08, -3.941617237770149e-08, 0))
hIsland = hIsland.sub(rect(8.568634385493308e-09, -7.615008414364037e-10).transl(5.9032185680509795e-08, -3.881169954567309e-08, 0))
hIsland = hIsland.add(rect(2.5344753702334986e-09, 5.236102411545159e-10).transl(1.119176111370484e-07, -2.9229940862827106e-08, 0))
hIsland = hIsland.sub(rect(3.3123983563877134e-09, -2.6012730831803797e-09).transl(3.2518041423676156e-09, -4e-08, 0))
hIsland = hIsland.add(rect(3.262114512711561e-09, 1.6179841574731243e-09).transl(-5.773258810559211e-08, -3.891715354008874e-08, 0))
hIsland = hIsland.add(rect(7.556029698970664e-09, 3.1657252454001228e-09).transl(-4.838031473482378e-09, -4e-08, 0))
hIsland = hIsland.add(rect(5.607826678627463e-09, 2.266898829687109e-09).transl(-1.1371542152376587e-07, -2.8658386786997156e-08, 0))
hIsland = hIsland.sub(rect(9.315463136905955e-09, -2.060530695617865e-09).transl(-4.725236639786396e-08, -3.95844467965132e-08, 0))
hIsland = hIsland.add(rect(8.797286063253179e-09, 3.6537322402966135e-10).transl(3.2040507534776184e-08, -3.999421670553065e-08, 0))
hIsland = hIsland.add(rect(6.992815405854389e-09, 1.5188095787722496e-09).transl(7.70311848038015e-08, -3.6799860591448915e-08, 0))
hIsland = hIsland.add(rect(4.458403109361401e-09, 1.6227466795289734e-10).transl(-1.847233731593732e-08, -4e-08, 0))
hIsland = hIsland.add(rect(6.158952083218255e-09, 1.1693464182670513e-10).transl(1.1289485275158991e-07, -2.892220098296699e-08, 0))
hIsland = hIsland.sub(rect(5.110336238771225e-09, -4.1445852624228733e-10).transl(-1.1539026922378076e-07, -2.8103977420939793e-08, 0))
hIsland = hIsland.add(rect(5.357086355806501e-09, 9.490159680690953e-10).transl(-6.454743842400138e-08, -3.830647537128798e-08, 0))
hIsland = hIsland.add(rect(6.368657211846785e-09, 3.320810633183479e-09).transl(-1.343837724193846e-07, -1.9731610441393338e-08, 0))
hIsland = hIsland.add(rect(8.660561334092525e-09, 2.6979266454184664e-09).transl(-4.132691888472593e-08, -3.982140812926696e-08, 0))
hIsland = hIsland.add(rect(5.785796888911412e-09, 3.0601513217107085e-09).transl(-1.2981723063819e-07, -2.2202403442776655e-08, 0))
hIsland = hIsland.sub(rect(9.025717195716085e-09, -1.564920474240729e-10).transl(7.432272576046285e-08, -3.717151833978209e-08, 0))
hIsland = hIsland.add(rect(6.998473629729693e-09, 1.3437417599326933e-09).transl(-9.766479412941071e-08, -3.303445278194749e-08, 0))
hIsland = hIsland.sub(rect(6.2084962948509565e-09, -2.7648948604752906e-09).transl(1.1658967587558926e-07, -2.7693216240645565e-08, 0))
hIsland = hIsland.sub(rect(2.484761409456744e-09, -3.271260391084765e-09).transl(-3.774563148404694e-09, -4e-08, 0))
hIsland = hIsland.sub(rect(9.70750434728586e-09, -7.494915086062708e-10).transl(1.2414149448415825e-07, -2.4804522473598338e-08, 0))
hIsland = hIsland.add(rect(9.906281924667328e-09, 3.2141347825369503e-09).transl(-1.2732859224877476e-07, -2.339787533296262e-08, 0))
hIsland = hIsland.sub(rect(3.5398519255984574e-09, -1.3292135036379441e-09).transl(1.1656612075996031e-07, -2.7701397350578968e-08, 0))
hIsland = hIsland.add(rect(4.030505212150147e-09, 1.4928978207894166e-09).transl(-4.083398743666416e-08, -3.983664521269916e-08, 0))
hIsland = hIsland.add(rect(2.111759858765041e-09, 1.2822683505412462e-09).transl(3.517085566642868e-08, -3.9962846984107855e-08, 0))
hIsland = hIsland.add(rect(6.513299727153305e-09, 1.4880586038680596e-09).transl(-1.47310861170624e-07, -8.420621852245202e-09, 0))
hIsland = hIsland.add(rect(4.686602621140674e-09, 1.3956836934513782e-09).transl(3.7365630652102634e-08, -3.992457817921855e-08, 0))
hIsland = hIsland.add(rect(5.600733301194492e-09, 9.515538422662059e-10).transl(-2.8485465687185045e-08, -4e-08, 0))
hIsland = hIsland.add(rect(7.219714921643261e-09, 2.4968140893928846e-09).transl(-1.1640930626586038e-07, -2.7755743731208628e-08, 0))
hIsland = hIsland.add(rect(7.782407120763792e-09, 1.2965438080364769e-09).transl(2.298869382176555e-08, -4e-08, 0))
hIsland = hIsland.add(rect(2.4383254369836476e-09, 1.152769313724615e-09).transl(-6.185632314651402e-08, -3.8564771886017193e-08, 0))
hIsland = hIsland.sub(rect(6.0388659932230265e-09, -1.1903554887342559e-09).transl(4.934218140182048e-08, -3.947696940217038e-08, 0))
hIsland = hIsland.sub(rect(3.2377545947006258e-09, -2.589888918549987e-10).transl(-4.16440390292633e-08, -3.981124402182126e-08, 0))
hIsland = hIsland.sub(rect(4.883372549171769e-09, -1.6391161515076078e-09).transl(-4.876017803573921e-08, -3.950816472588274e-08, 0))
hIsland = hIsland.sub(rect(6.43441954604454e-09, -4.71372981718675e-10).transl(-9.434475687969756e-08, -3.376347839849808e-08, 0))
hIsland = hIsland.add(rect(5.305510066257616e-09, 2.729009711672143e-10).transl(7.424933334307464e-08, -3.718123256981114e-08, 0))
hIsland = hIsland.add(rect(4.398830339102789e-09, 2.021302265071106e-09).transl(1.8003826298275172e-08, -4e-08, 0))
hIsland = hIsland.add(rect(6.1492634750086145e-09, 9.474858294207164e-10).transl(7.049538341182748e-08, -3.765357283081453e-08, 0))
hIsland = hIsland.add(rect(2.6656980168494927e-09, 1.8366701924347592e-09).transl(-1.2695422681854973e-07, -2.356993825008933e-08, 0))
hIsland = hIsland.add(rect(3.669839806325491e-09, 7.119529909181125e-10).transl(1.280351088065627e-07, -2.3067816544762612e-08, 0))
hIsland = hIsland.add(rect(5.763190274054159e-09, 4.0305389410992373e-10).transl(2.0519559131803928e-08, -4e-08, 0))
hIsland = hIsland.add(rect(5.769128859622904e-09, 2.897767554336492e-09).transl(5.365389827137206e-10, -4e-08, 0))
hIsland = hIsland.add(rect(4.562831652662406e-09, 7.228949342387385e-12).transl(-3.5683229950930524e-08, -3.9955114951829034e-08, 0))
hIsland = hIsland.add(rect(4.868437176576221e-09, 1.1546043439794702e-09).transl(-1.8812701960770095e-08, -4e-08, 0))
hIsland = hIsland.sub(rect(8.286228766315861e-09, -1.150357034528836e-09).transl(-1.4391664917308144e-07, -1.2574211003200547e-08, 0))
hIsland = hIsland.sub(rect(2.5903192742465174e-09, -5.202088877804703e-10).transl(8.874544179873206e-08, -3.487911356523937e-08, 0))
hIsland = hIsland.sub(rect(5.801163081819987e-09, -1.5657331995039087e-09).transl(-9.272335026323803e-08, -3.4100800465931004e-08, 0))
hIsland = hIsland.add(rect(7.635631842147163e-09, 1.24790905969047e-10).transl(1.3785346945262285e-07, -1.7536087005031002e-08, 0))
hIsland = hIsland.sub(rect(6.0662096535422705e-09, -9.668665312007683e-10).transl(9.66079362606851e-08, -3.3272248741911217e-08, 0))
hIsland = hIsland.sub(rect(7.993042872741781e-09, -2.60348787311066e-09).transl(-1.4243391436474432e-07, -1.3978614224042158e-08, 0))
hIsland = hIsland.sub(rect(7.348483595616841e-09, -4.614436545381646e-10).transl(1.0745619015393713e-07, -3.055148406440282e-08, 0))
hIsland = hIsland.add(rect(6.893548483713336e-09, 2.8195465457899447e-09).transl(6.092768279620418e-08, -3.864867172772547e-08, 0))
hIsland = hIsland.sub(rect(6.191352072730698e-09, -9.060114411309346e-10).transl(1.1802211553426033e-07, -2.7186817019515032e-08, 0))
hIsland = hIsland.sub(rect(7.597210413793992e-09, -2.1074520614582277e-10).transl(1.4916149151877544e-08, -4e-08, 0))
hIsland = hIsland.add(rect(7.059369650587172e-09, 1.1869524934587786e-09).transl(1.3202984988537782e-07, -2.1055244087788765e-08, 0))
hIsland = hIsland.add(rect(4.801642653194336e-09, 3.3483712267454926e-09).transl(2.7172746205241066e-09, -4e-08, 0))
hIsland = hIsland.add(rect(9.170565109145833e-09, 2.113324132514634e-09).transl(-1.434956614994927e-09, -4e-08, 0))
hIsland = hIsland.add(rect(6.436483783243532e-09, 3.4307334065707115e-10).transl(-1.022584741484949e-07, -3.193519986495448e-08, 0))
hIsland = hIsland.sub(rect(6.667034053296267e-09, -1.3402375677427133e-09).transl(-1.1240683675700868e-07, -2.9076743772498412e-08, 0))
hIsland = hIsland.add(rect(9.38501309926994e-09, 4.39290492444432e-10).transl(-7.205857010175978e-08, -3.746268763122902e-08, 0))
hIsland = hIsland.sub(rect(4.885434347503641e-09, -1.3334433656861208e-09).transl(-1.2085598993778127e-07, -2.613041882648095e-08, 0))
hIsland = hIsland.add(rect(8.195255011391435e-09, 4.3571597808373044e-10).transl(-4.6218227569996674e-08, -3.963299564544646e-08, 0))
hIsland = hIsland.add(rect(7.180830539335875e-09, 7.251192636855037e-10).transl(-4.517715601007786e-08, -3.967878517328002e-08, 0))
hIsland = hIsland.add(rect(4.928669872411436e-09, 1.6088427030968158e-09).transl(6.464941026891307e-08, -3.829624055818961e-08, 0))
hIsland = hIsland.sub(rect(6.81946611260725e-09, -1.8926313230493707e-09).transl(9.29632822091062e-08, 3.405163577969403e-08, 0))
hIsland = hIsland.sub(rect(5.334801507844136e-09, -1.2701082041560905e-09).transl(-5.147041252861134e-08, 3.935454426090426e-08, 0))
hIsland = hIsland.sub(rect(4.574193195997957e-09, -2.1844094294808756e-09).transl(-1.4046247842703512e-07, 1.5627756147163303e-08, 0))
hIsland = hIsland.add(rect(3.604152300825182e-09, 1.6595876147884362e-09).transl(2.242112563033266e-09, 4e-08, 0))
hIsland = hIsland.add(rect(5.828155071781963e-09, 8.948649541377246e-10).transl(-6.085061901527324e-08, 3.865551463658691e-08, 0))
hIsland = hIsland.sub(rect(2.804469894767435e-09, -2.2344066068589263e-09).transl(-7.024180433048722e-08, 3.768376777609924e-08, 0))
hIsland = hIsland.sub(rect(8.338110594425136e-09, -4.996920051853043e-10).transl(4.210438404644817e-08, 3.9795985122533394e-08, 0))
hIsland = hIsland.sub(rect(6.250779511703023e-09, -2.0173724503152923e-09).transl(-4.919667775577299e-08, 3.9484860056511974e-08, 0))
hIsland = hIsland.sub(rect(9.310057256629844e-09, -2.6161446577837206e-09).transl(-1.0002263876506744e-07, 3.2483893548062786e-08, 0))
hIsland = hIsland.sub(rect(5.6732109468083625e-09, -2.779950474188355e-09).transl(-6.745557417672977e-08, 3.8001578860608605e-08, 0))
hIsland = hIsland.add(rect(9.647083350844288e-09, 4.0190415143300424e-10).transl(-5.6468045669830085e-08, 3.901487260351962e-08, 0))
hIsland = hIsland.add(rect(3.829204435876089e-09, 1.5234310713379854e-10).transl(1.2385005961751917e-07, 2.4926929457891075e-08, 0))
hIsland = hIsland.add(rect(7.0813074739145205e-09, 9.29593311254716e-10).transl(-1.1729222728734634e-07, 2.7447054193714428e-08, 0))
hIsland = hIsland.sub(rect(2.33430943211142e-09, -5.193736952482004e-10).transl(1.1437006877703588e-07, 2.8444275922032065e-08, 0))
hIsland = hIsland.add(rect(3.434766725603117e-09, 2.048339520704762e-10).transl(6.429424248746003e-08, 3.833174624571256e-08, 0))
hIsland = hIsland.add(rect(7.235385813844778e-09, 9.587929424740838e-10).transl(7.689056132944806e-08, 3.68197942812306e-08, 0))
hIsland = hIsland.add(rect(7.052878162790407e-09, 5.061349978109473e-10).transl(-3.573444586577778e-09, 4e-08, 0))
hIsland = hIsland.add(rect(6.978967867662999e-09, 2.2902810414245243e-09).transl(2.558369117647515e-08, 4e-08, 0))
hIsland = hIsland.sub(rect(9.436377897509332e-09, -2.7257733972970963e-10).transl(3.688652837575227e-08, 3.9934078633737766e-08, 0))
hIsland = hIsland.sub(rect(5.609364256023803e-09, -3.1503526481371996e-09).transl(-9.55199210471569e-08, 3.351142416479347e-08, 0))
hIsland = hIsland.add(rect(2.4585480869352213e-09, 2.0087154473237786e-09).transl(-1.4687685941496908e-07, 9.066419931039525e-09, 0))
hIsland = hIsland.sub(rect(2.5821168837988194e-09, -1.6856439865327783e-09).transl(-6.918599558141252e-08, 3.780719765437605e-08, 0))
hIsland = hIsland.sub(rect(8.455461030101849e-09, -2.819380444938074e-09).transl(-3.8446147911383817e-08, 3.990079724274389e-08, 0))
hIsland = hIsland.add(rect(3.065576517490901e-09, 4.638556701178302e-10).transl(-7.212653601206537e-08, 3.7454201609171465e-08, 0))
hIsland = hIsland.sub(rect(7.968230854079368e-09, -1.5940199623421798e-11).transl(-6.476877308281985e-08, 3.82842184171601e-08, 0))
hIsland = hIsland.sub(rect(7.054460871648384e-09, -1.8585733714821669e-09).transl(-1.4229107556010913e-07, 1.410561097795982e-08, 0))
hIsland = hIsland.add(rect(6.777886597404791e-09, 8.684573450628188e-10).transl(-1.0290100625278983e-07, 3.177253056639178e-08, 0))
hIsland = hIsland.sub(rect(3.580650553125023e-09, -6.595698649618744e-10).transl(-3.5574053105005277e-08, 3.995682382547801e-08, 0))
hIsland = hIsland.add(rect(2.2395724459212492e-09, 2.7693338214967124e-10).transl(1.352687851005259e-07, 1.9202091562753438e-08, 0))
hIsland = hIsland.sub(rect(5.7552043534594876e-09, -1.4620300596161349e-09).transl(-1.1247908541186236e-07, 2.90539736613365e-08, 0))
hIsland = hIsland.sub(rect(5.385321464767836e-09, -1.732546049271254e-09).transl(-9.200662026123048e-09, 4e-08, 0))
hIsland = hIsland.sub(rect(9.023679858094243e-09, -1.3585556407168026e-09).transl(-1.0896222636543399e-07, 3.0120068628027844e-08, 0))
hIsland = hIsland.add(rect(7.893888109409183e-09, 7.593324542252764e-10).transl(1.1790053584161921e-07, 2.7230489037017593e-08, 0))
hIsland = hIsland.sub(rect(7.263356990865394e-09, -1.6141713989837646e-09).transl(1.4188932156051728e-07, 1.4455985768021524e-08, 0))
hIsland = hIsland.sub(rect(9.690147954780251e-09, -3.0437687977205758e-09).transl(-9.200889701317693e-08, 3.4245675625153706e-08, 0))
hIsland = hIsland.sub(rect(4.219300415923101e-09, -1.3147914391618772e-09).transl(1.4264773146379072e-08, 4e-08, 0))
hIsland = hIsland.sub(rect(6.193584868876059e-09, -9.098971621516284e-10).transl(-8.043090222271689e-08, 3.629619524137906e-08, 0))
hIsland = hIsland.sub(rect(2.444836236999792e-09, -8.912213805441197e-10).transl(1.7930740645802523e-08, 4e-08, 0))
hIsland = hIsland.sub(rect(2.1551676499472885e-09, -1.9947621936405123e-09).transl(-3.1134706579553494e-08, 3.999821168360506e-08, 0))
hIsland = hIsland.sub(rect(2.1620693706675596e-09, -6.66409186651888e-10).transl(1.4333758616124669e-08, 4e-08, 0))
hIsland = hIsland.sub(rect(8.84354240116352e-09, -1.769025800107405e-09).transl(-7.550281199860629e-08, 3.701275170685472e-08, 0))
hIsland = hIsland.sub(rect(5.4445039219569005e-09, -1.5114051289008179e-09).transl(5.8433361373459835e-08, 3.886092576384299e-08, 0))
hIsland = hIsland.add(rect(6.948071499102457e-09, 1.6220360109149932e-09).transl(1.4357674835952128e-07, 1.2911331078974282e-08, 0))
hIsland = hIsland.sub(rect(5.6215966408679925e-09, -2.4924920524932053e-09).transl(-1.448413515329967e-07, 1.160203036864517e-08, 0))
hIsland = hIsland.sub(rect(7.167052248166099e-09, -3.0348408582158177e-09).transl(-4.837151727045066e-08, 3.9528452977544525e-08, 0))
hIsland = hIsland.sub(rect(9.050325477496445e-09, -1.4806576889309109e-10).transl(-1.1603912739761797e-07, 2.7883225854856555e-08, 0))
hIsland = hIsland.sub(rect(9.884424102979325e-09, -1.4468504609269659e-09).transl(6.856135335635553e-08, 3.7878492911657354e-08, 0))
hIsland = hIsland.sub(rect(5.4601641065053875e-09, -1.8958304143661116e-09).transl(1.2957136643838663e-07, 2.232473213872537e-08, 0))
hIsland = hIsland.sub(rect(2.8250270843054345e-09, -6.728558091164909e-10).transl(1.470504054024859e-07, 8.814146426901231e-09, 0))
hIsland = hIsland.add(rect(3.575734043202694e-09, 6.909061010013122e-10).transl(1.1375691878958209e-07, 2.864491142492338e-08, 0))
hIsland = hIsland.add(rect(4.577530449131828e-09, 2.123720129617172e-09).transl(9.098355723455168e-08, 3.4449650453024536e-08, 0))
hIsland = hIsland.sub(rect(8.351081070900918e-09, -5.801580089198061e-09).transl(-1.435775473057538e-07, 1.2910550156146055e-08, 0))
hIsland = hIsland.add(rect(9.232619802734692e-09, 2.8457672459074145e-09).transl(-9.680512987141563e-09, 4e-08, 0))
hIsland = hIsland.sub(rect(2.7350810783316738e-09, -2.2182431561243213e-09).transl(1.3427131253996785e-07, 1.9797568260303383e-08, 0))
hIsland = hIsland.add(rect(5.968230497861588e-09, 3.39050799081013e-09).transl(1.0265901205654044e-07, 3.183406276121977e-08, 0))
hIsland = hIsland.sub(rect(2.96637932212698e-09, -2.3580285797280783e-09).transl(1.3831007460732572e-08, 4e-08, 0))
hIsland = hIsland.add(rect(5.9095800343006966e-09, 2.370442520607225e-09).transl(1.0575925919424943e-07, 3.1020664521749825e-08, 0))
hIsland = hIsland.sub(rect(2.009155739218205e-09, -1.266849928514397e-09).transl(7.057566453901718e-08, 3.764396874698691e-08, 0))
hIsland = hIsland.sub(rect(7.295467903506613e-09, -3.594202954584256e-10).transl(1.1777133123134446e-07, 2.727675732983755e-08, 0))
hIsland = hIsland.sub(rect(3.0175571745419144e-09, -2.5894362865269676e-09).transl(-3.452520124819487e-08, 3.997154898405634e-08, 0))
hIsland = hIsland.add(rect(6.064107212077905e-09, 2.1976662023480506e-09).transl(1.013256263700618e-08, 4e-08, 0))
hIsland = hIsland.add(rect(4.07944324564408e-09, 6.243750887217258e-10).transl(-9.671336589521753e-08, 3.32487707557752e-08, 0))
hIsland = hIsland.add(rect(9.007434405192514e-09, 2.4488978687292296e-09).transl(9.008369441487203e-08, 3.462489416824625e-08, 0))
hIsland = hIsland.sub(rect(2.510090878745454e-09, -1.1144521984301228e-09).transl(1.2960063275531716e-07, 2.2310221759793438e-08, 0))
hIsland = hIsland.sub(rect(7.145044933552478e-09, -1.36814324013546e-09).transl(1.1937732548548023e-07, 2.6691017400912922e-08, 0))
hIsland = hIsland.add(rect(3.6041896993508014e-09, 9.843955266114746e-11).transl(7.847499520537314e-08, 3.659109612375219e-08, 0))
hIsland = hIsland.add(rect(6.896238089325878e-09, 8.433704813711445e-10).transl(1.2041086491059005e-07, 2.6301405763273143e-08, 0))
hIsland = hIsland.sub(rect(8.133440873866715e-09, -1.892785830675711e-09).transl(6.928404471156475e-08, 3.779589018089986e-08, 0))
hIsland = hIsland.add(rect(2.0258697450210957e-09, 2.6711287040876545e-09).transl(-1.011661939431576e-07, 3.220657772644326e-08, 0))
hIsland = hIsland.sub(rect(4.968349676803317e-09, -4.2062764535637224e-10).transl(-6.217903787636442e-08, 3.853499062374856e-08, 0))
hIsland = hIsland.sub(rect(5.638029368757528e-09, -2.5332378675167683e-09).transl(-8.218717992335585e-08, 3.601928226141487e-08, 0))
hIsland = hIsland.add(rect(2.6308046092317057e-09, 1.6911231801439978e-09).transl(-5.83580666511768e-08, 3.8867038385597256e-08, 0))
hIsland = hIsland.sub(rect(8.707693007309921e-09, -3.889989926594998e-09).transl(-3.484955487438849e-08, 3.996732250993762e-08, 0))
hIsland = hIsland.sub(rect(3.990820029643727e-09, -8.898424887642271e-10).transl(1.1544414401766345e-07, 2.8085777842350492e-08, 0))
hIsland = hIsland.add(rect(8.523857006869465e-09, 1.7139372163073878e-09).transl(7.968085986092146e-09, 4e-08, 0))
hIsland = hIsland.sub(rect(6.1357310439065606e-09, -4.613179966601084e-09).transl(1.1480091156854603e-07, 2.8301561396156294e-08, 0))
hIsland = hIsland.sub(rect(7.375711843769137e-09, -2.2038297168350612e-09).transl(-1.4136624664540717e-07, 1.489802040583595e-08, 0))
hIsland = hIsland.add(rect(3.8507991868823926e-09, 2.5258953278026527e-10).transl(2.5525797879166086e-08, 4e-08, 0))
hIsland = hIsland.add(rect(8.254648132474011e-09, 3.917146076041132e-09).transl(-5.541652379740586e-09, 4e-08, 0))
hIsland = hIsland.add(rect(5.190360874817175e-09, 2.3444816992921215e-09).transl(1.387641338730854e-07, 1.6899583107407522e-08, 0))
hIsland = hIsland.add(rect(3.4035789857208878e-09, 5.647210194022145e-10).transl(-5.710510367754013e-08, 3.8966243731137626e-08, 0))
hIsland = hIsland.sub(rect(4.1155096301071015e-09, -5.602959825388845e-10).transl(2.7776910331517488e-09, 4e-08, 0))
hIsland = hIsland.add(rect(8.858718319593486e-09, 3.597273821266163e-09).transl(1.1191675309829697e-07, 2.923020804622935e-08, 0))
hIsland = hIsland.sub(rect(7.282527054159864e-09, -7.042859301899551e-10).transl(-4.5134113411733026e-08, 3.968061185017859e-08, 0))
hIsland = hIsland.sub(rect(2.7148167100386173e-09, -7.722315319790446e-10).transl(8.141708082607486e-08, 3.6142132691369265e-08, 0))
hIsland = hIsland.sub(rect(8.668983531313175e-09, -1.1106699884610474e-09).transl(-1.0750862110816951e-07, 3.053670587981003e-08, 0))
hIsland = hIsland.add(rect(4.469058671558441e-09, 6.731751883078598e-10).transl(-7.030654370763052e-08, 3.767607925807224e-08, 0))
hIsland = hIsland.add(rect(8.438296102681868e-09, 2.3009314002923743e-09).transl(4.4251762086377404e-08, 3.971689715618292e-08, 0))
hIsland = hIsland.add(rect(7.471864591831271e-09, 1.6333082248999032e-09).transl(2.0104809513078087e-08, 4e-08, 0))
hIsland = hIsland.sub(rect(7.779296673075402e-09, -1.6195743757078128e-09).transl(7.097383208415906e-08, 3.759601793975754e-08, 0))
hIsland = hIsland.sub(rect(9.364260148729004e-09, -4.896313939692645e-09).transl(-2.8440877597398084e-08, 4e-08, 0))
hIsland = hIsland.sub(rect(9.117872559849735e-09, -2.5336131936236692e-09).transl(2.5978110167684093e-08, 4e-08, 0))
hIsland = hIsland.sub(rect(4.523054048830705e-09, -1.5092551662556849e-09).transl(1.1770073316640194e-07, 2.73019767336351e-08, 0))
hIsland = hIsland.add(rect(7.813912673467858e-09, 1.8727988262180293e-09).transl(-1.1505444003095466e-07, 2.821690240307264e-08, 0))
hIsland = hIsland.add(rect(7.443334507593259e-09, 2.2374389676344345e-09).transl(8.143962594927703e-08, 3.6138568012886896e-08, 0))
hIsland = hIsland.sub(rect(4.6131528658166764e-09, -4.789498866234889e-09).transl(-6.74155487599767e-08, 3.800595963645381e-08, 0))
hIsland = hIsland.add(rect(4.629413186516821e-09, 2.2230320117076043e-09).transl(-4.617347045704182e-08, 3.963502779301157e-08, 0))
hIsland = hIsland.sub(rect(3.678827261960888e-09, -1.9028488897538485e-09).transl(2.6502922185339932e-08, 4e-08, 0))
hIsland = hIsland.add(rect(5.273349296749753e-09, 4.556832097070962e-09).transl(-3.921711784164328e-08, 3.9881832035671e-08, 0))
hIsland = hIsland.add(rect(8.509814606868071e-09, 6.96246686447849e-10).transl(5.643160951003533e-08, 3.90176171302557e-08, 0))
hIsland = hIsland.sub(rect(4.6008526030757035e-09, -1.5358009328656603e-09).transl(4.006338303405061e-08, 3.9859096719862224e-08, 0))
hIsland = hIsland.sub(rect(2.3001716499133942e-09, -2.282336894068329e-09).transl(-5.360126665933482e-08, 3.921873165278008e-08, 0))
hIsland = hIsland.add(rect(7.62660902519324e-09, 5.172399472792578e-10).transl(7.622265155656937e-09, 4e-08, 0))
hIsland = hIsland.sub(rect(4.874934324767661e-09, -2.395592954038791e-09).transl(9.776389985354825e-08, 3.301187307728722e-08, 0))
hIsland = hIsland.add(rect(3.6139767174839455e-09, 3.4994274066073816e-10).transl(3.087366607449604e-08, 3.9998939857604385e-08, 0))
hIsland = hIsland.add(rect(9.444613558922825e-09, 1.9036492942523848e-10).transl(1.1196906245084793e-07, 2.9213909930657264e-08, 0))
hIsland = hIsland.sub(rect(6.218506262567611e-09, -8.895922502967771e-10).transl(-1.23955155131782e-07, 2.488290092091975e-08, 0))
hIsland = hIsland.add(rect(4.430340391842331e-09, 1.9823152317557726e-09).transl(-1.4835129438190345e-08, 4e-08, 0))
hIsland = hIsland.sub(rect(9.975026147114982e-09, -1.8896096598615244e-09).transl(5.7252094708523564e-08, 3.8954850409726703e-08, 0))
hIsland = hIsland.add(rect(3.671970472846507e-09, 1.842111728081609e-09).transl(1.3925776838569256e-07, 1.6542000575566448e-08, 0))
hIsland = hIsland.add(rect(5.7190605589674965e-09, 1.4251930625321997e-09).transl(8.012293956516717e-08, 3.63435626721594e-08, 0))
hIsland = hIsland.add(rect(6.549142856480269e-09, 1.7209658367627174e-09).transl(-4.959635119877221e-08, 3.946303899388273e-08, 0))
hIsland = hIsland.add(rect(6.527159206132662e-09, 1.082957309713668e-09).transl(-8.885445752189795e-08, 3.4858687470992734e-08, 0))
hIsland = hIsland.add(rect(9.907253539963026e-09, 2.3385295345547513e-09).transl(-1.477806513283343e-07, 7.657372429186216e-09, 0))
hIsland = hIsland.sub(rect(8.127723939504343e-09, -1.6764104941304529e-09).transl(-3.220548084101949e-08, 3.999324367142794e-08, 0))
hIsland = hIsland.sub(rect(5.289479952528806e-09, -2.1013853228118567e-10).transl(-5.705907737179248e-08, 3.896979789499007e-08, 0))
hIsland = hIsland.sub(rect(3.052996298662659e-09, -1.2107710504810788e-10).transl(7.758680181964582e-08, 3.67204095422843e-08, 0))
hIsland = hIsland.sub(rect(2.7425104910406947e-09, -8.210761931850149e-10).transl(-9.477404833078024e-08, 3.3672149162247404e-08, 0))
hIsland = hIsland.sub(rect(7.737545472298016e-09, -2.1968269105449514e-09).transl(2.178524738675273e-08, 4e-08, 0))
hIsland = hIsland.add(rect(3.7185194473240686e-09, 8.092657073024722e-11).transl(-5.899256323125845e-08, 3.8814990342050814e-08, 0))
hIsland = hIsland.add(rect(5.760265646102317e-09, 5.136547369895047e-10).transl(5.019213481947273e-08, 3.942965281701385e-08, 0))
hIsland = hIsland.sub(rect(4.768365175047779e-09, -1.6456350643935388e-09).transl(7.748730801382465e-08, 3.673471802834804e-08, 0))
hIsland = hIsland.add(rect(9.347639554575605e-09, 1.8395812241240668e-09).transl(-1.1798867699684188e-07, 2.719884131589561e-08, 0))
hIsland = hIsland.sub(rect(6.689956890450614e-09, -3.6274541259731933e-09).transl(1.013534294480932e-07, 3.2160514275179104e-08, 0))
hIsland = hIsland.sub(rect(4.172032546445315e-09, -2.8499521873082746e-09).transl(-1.2474650076268187e-07, 2.4547234723707514e-08, 0))
hIsland = hIsland.add(rect(6.009292029981914e-09, 1.7981871174971872e-09).transl(8.965482153709269e-08, 3.4707191485623496e-08, 0))
hIsland = hIsland.add(rect(7.044344092763334e-09, 3.5985966147764477e-09).transl(-7.426656591950453e-08, 3.71789533378678e-08, 0))
hIsland = hIsland.add(rect(5.123838017139193e-09, 4.5615776612725385e-10).transl(-3.4215483378883486e-08, 3.997531140853253e-08, 0))
hIsland = hIsland.add(rect(3.3856105700966136e-09, 2.0528375067109467e-09).transl(5.8523763920163405e-08, 3.885356396040392e-08, 0))
hIsland = hIsland.add(rect(7.405421432275066e-09, 4.6210223608506116e-10).transl(-2.87029822533294e-10, 4e-08, 0))
hIsland = hIsland.sub(rect(3.808168246348836e-09, -2.6126461829834947e-10).transl(-8.86883099181004e-08, 3.48897983799738e-08, 0))
hIsland = hIsland.add(rect(3.2678188677047865e-09, 5.159921601207206e-09).transl(-6.326358493269481e-08, 3.8432529505073924e-08, 0))
hIsland = hIsland.sub(rect(7.565536550874024e-09, -3.0095892033130067e-09).transl(-1.4384101751239705e-07, 1.2650088852310317e-08, 0))
hIsland = hIsland.add(rect(8.146857794461006e-09, 2.238802462312204e-09).transl(-8.379524380465763e-08, 3.575545295475525e-08, 0))
hIsland = hIsland.sub(rect(3.916449912583401e-09, -1.499028740247683e-09).transl(-6.176437045250137e-08, 3.85731984813812e-08, 0))
hIsland = hIsland.sub(rect(9.298071541987166e-09, -3.3383190603554193e-09).transl(-1.2030762632299157e-08, 4e-08, 0))
hIsland = hIsland.sub(rect(6.572455143684844e-09, -1.3872898456818967e-10).transl(-1.6278026114422687e-08, 4e-08, 0))
hIsland = hIsland.sub(rect(5.902122686455895e-09, -1.3996934032663274e-09).transl(2.1884421821214408e-08, 4e-08, 0))
hIsland = hIsland.sub(rect(9.644215341642793e-09, -1.9891804952595132e-09).transl(-7.699825653151871e-08, 3.680453456814128e-08, 0))
hIsland = hIsland.add(rect(7.557482143371119e-09, 1.2087287721496645e-10).transl(9.821852296199358e-08, 3.290767071145834e-08, 0))
hIsland = hIsland.add(rect(6.212624695550946e-09, 1.4661732772391582e-10).transl(-2.4254915720464345e-08, 4e-08, 0))
hIsland = hIsland.add(rect(7.3030362977422445e-09, 1.6231031979464448e-09).transl(-8.324429592071373e-08, 3.584696632431237e-08, 0))
hIsland = hIsland.sub(rect(6.995732641520421e-09, -3.673384436509217e-09).transl(1.9101121881188223e-08, 4e-08, 0))
hIsland = hIsland.sub(rect(8.752453278747712e-09, -9.479066314996379e-10).transl(-4.261669767707093e-08, 3.977830081244099e-08, 0))
hIsland = hIsland.add(rect(6.801971094758027e-09, 9.298258291926956e-10).transl(-1.2742219183107254e-07, 2.3354553538466087e-08, 0))
hIsland = hIsland.sub(rect(9.617647607911267e-09, -3.061119681719079e-09).transl(-1.354961819539482e-07, 1.9062923855074908e-08, 0))
hIsland = hIsland.add(rect(4.1524709122989566e-09, 2.3144274694539933e-09).transl(-8.912543289184426e-08, 3.4807698997255735e-08, 0))
hIsland = hIsland.sub(rect(8.780221698299761e-09, -5.498170079285537e-10).transl(7.652205844498188e-08, 3.687169657977917e-08, 0))
hIsland = hIsland.sub(rect(2.144914549723011e-09, -7.181637965311616e-10).transl(4.822304137142078e-09, 4e-08, 0))
hIsland = hIsland.sub(rect(4.728253786692725e-09, -3.4357376567178337e-10).transl(8.609044746396347e-08, 3.5361406619980424e-08, 0))
hIsland = hIsland.add(rect(3.01285722015387e-09, 8.530556641269139e-10).transl(-3.8124898234745645e-08, 3.990820860796968e-08, 0))
hIsland = hIsland.add(rect(3.6249571965399517e-09, 2.0348037115019857e-09).transl(-1.0900114428862235e-07, 3.010872741893264e-08, 0))
hIsland = hIsland.sub(rect(7.387106153811705e-09, -1.9973964395211638e-09).transl(1.1080991905990505e-07, 2.9570550255150808e-08, 0))
hIsland = hIsland.add(rect(2.9638933326035302e-09, 3.338695766701243e-09).transl(2.2058672477795748e-08, 4e-08, 0))
hIsland = hIsland.add(rect(8.774882042926096e-09, 3.6346265524818556e-10).transl(2.302673771531907e-08, 4e-08, 0))
hIsland = hIsland.sub(rect(9.803955034793397e-09, -1.0891403789399545e-09).transl(-8.671524157704999e-08, 3.525050255411161e-08, 0))
hIsland = hIsland.sub(rect(4.8873995218498e-09, -5.766398218343351e-10).transl(8.87424644642765e-08, 3.487967072452761e-08, 0))
hIsland = hIsland.sub(rect(9.512227673404692e-09, -7.97243917942203e-10).transl(2.1732529969343458e-08, 4e-08, 0))
hIsland = hIsland.add(rect(2.7843621157606952e-09, 1.2057208249957025e-09).transl(1.382011171063461e-07, 1.7296493726053845e-08, 0))
hIsland = hIsland.add(rect(2.78492943871497e-09, 2.2258091955190456e-10).transl(7.179553755353791e-08, 3.7495381998040484e-08, 0))
hIsland = hIsland.add(rect(8.843964018045583e-09, 2.0621296291645914e-09).transl(7.030188149767573e-08, 3.767663341257093e-08, 0))
hIsland = hIsland.sub(rect(8.985815156511165e-09, -3.987517704310767e-10).transl(-8.785822907078685e-08, 3.504350522928188e-08, 0))
hIsland = hIsland.sub(rect(9.24704899875566e-09, -9.13012911615828e-10).transl(-2.177066599330735e-08, 4e-08, 0))
hIsland = hIsland.add(rect(2.328731165787595e-09, 2.266432449875971e-09).transl(1.4144453894930593e-07, 1.4832826726841897e-08, 0))
hIsland = hIsland.sub(rect(7.145340149663624e-09, -6.52005506464142e-10).transl(2.5977953383600877e-08, 4e-08, 0))
hIsland = hIsland.add(rect(7.820309505677807e-09, 4.1195409584302314e-10).transl(1.057214214296434e-07, 3.1030927827777005e-08, 0))
hIsland = hIsland.sub(rect(9.195106232520534e-09, -4.6150370704944375e-09).transl(-1.3581355069884748e-07, 1.8866467868512222e-08, 0))
hIsland = hIsland.sub(rect(6.6687754853032864e-09, -2.7807776988660922e-09).transl(1.2788227779721008e-07, 2.313981583819398e-08, 0))
hIsland = hIsland.sub(rect(8.841733815752303e-09, -1.78250103291857e-09).transl(-3.137909487702591e-08, 3.999735838127335e-08, 0))
hIsland = hIsland.sub(rect(7.742081167044289e-09, -3.6621561536962174e-09).transl(-9.806073228785402e-08, 3.2943953618972445e-08, 0))
hIsland = hIsland.add(rect(4.579260737325243e-09, 2.5752378655831526e-09).transl(-1.3587119580954936e-07, 1.8830500960634357e-08, 0))
hIsland = hIsland.sub(rect(5.794957870311059e-09, -5.191299134067652e-10).transl(-1.403428690883406e-07, 1.5721362823854025e-08, 0))
hIsland = hIsland.add(rect(4.99136874061746e-09, 9.064513427357806e-10).transl(-9.168010899590028e-08, 3.4311585594784266e-08, 0))
hIsland = hIsland.sub(rect(7.993946193881275e-09, -3.880126596163451e-09).transl(-3.303172167679167e-08, 3.9987232217400026e-08, 0))
hIsland = hIsland.add(rect(5.720121584816786e-09, 1.9631736891181813e-09).transl(-8.354004132819633e-08, 3.579798873086312e-08, 0))
hIsland = hIsland.sub(rect(4.540548085123031e-09, -1.5844939974886007e-09).transl(-7.455581060291352e-08, 3.7140543497365516e-08, 0))
hIsland = hIsland.add(rect(2.96126819600143e-09, 3.2059895645057902e-09).transl(-1.132246483692633e-07, 2.8816773479294006e-08, 0))
hIsland = hIsland.add(rect(9.79736151687114e-09, 1.96558462971412e-09).transl(-1.4459343310257258e-07, 1.1871277614319683e-08, 0))
hIsland = hIsland.sub(rect(3.5347780164221824e-09, -2.592695565468095e-09).transl(-4.0360502705980633e-08, 3.985063778059179e-08, 0))
hIsland = hIsland.add(rect(5.8843249239763455e-09, 1.0214506994558974e-09).transl(1.1894496566614908e-07, 2.6851015049399205e-08, 0))
hIsland = hIsland.add(rect(9.090848942843502e-09, 2.8247721225960186e-09).transl(1.2138807568069623e-08, 4e-08, 0))
hIsland = hIsland.sub(rect(8.050221878934486e-09, -1.2644595582932699e-09).transl(1.4174767321541134e-07, 1.4577217883249813e-08, 0))
hIsland = hIsland.add(rect(8.137553810014773e-09, 3.733435228988289e-09).transl(-1.1210160746298818e-07, 2.9172525224931545e-08, 0))
hIsland = hIsland.add(rect(9.854157906341414e-09, 1.922907063651873e-09).transl(7.311118432374433e-08, 3.732950246149395e-08, 0))
hIsland = hIsland.sub(rect(7.075781760269319e-09, -1.1911054714717236e-09).transl(-7.568557523868716e-09, 4e-08, 0))
hIsland = hIsland.sub(rect(4.218170260813535e-09, -1.5843854089316915e-09).transl(-9.914341032802572e-08, 3.269248776810673e-08, 0))
hIsland = hIsland.sub(rect(8.199562509872876e-09, -1.3398993299055043e-09).transl(1.0769430574388853e-07, 3.048423063190973e-08, 0))
hIsland = hIsland.sub(rect(8.007237409256626e-09, -6.950854043963608e-10).transl(1.757710253391107e-08, 4e-08, 0))
hIsland = hIsland.add(rect(7.444793423456325e-09, 1.3514116302589896e-09).transl(4.447044784510474e-08, 3.970811019757118e-08, 0))
hIsland = hIsland.add(rect(3.8436923100499184e-09, 1.7648119998248321e-09).transl(1.2442577313177588e-07, 2.4684168044554828e-08, 0))
hIsland = hIsland.add(rect(5.596912008671544e-09, 1.678970574696394e-09).transl(-1.0116843625774306e-08, 4e-08, 0))
hIsland = hIsland.add(rect(4.1797172764254205e-09, 4.563542724841948e-09).transl(6.013981980040763e-08, 3.8717769768184045e-08, 0))
hIsland = hIsland.add(rect(9.442989197416408e-09, 8.81739736998331e-10).transl(1.3301479435049995e-07, 2.0515447147411753e-08, 0))
hIsland = hIsland.sub(rect(9.418474090604399e-09, -7.941335778627647e-10).transl(-6.66111481641336e-08, 3.8092903728332186e-08, 0))
hIsland = hIsland.add(rect(7.130362378010557e-09, 6.877041299393471e-10).transl(-7.793485770167346e-08, 3.667007471604108e-08, 0))
hIsland = hIsland.sub(rect(9.512642029642011e-09, -4.134966918075526e-09).transl(1.077141791954825e-07, 3.0478601513507146e-08, 0))
hIsland = hIsland.sub(rect(9.274884297717661e-09, -1.4698466668795868e-09).transl(-7.097038271271074e-08, 3.7596435617657535e-08, 0))
hIsland = hIsland.add(rect(8.417759440085408e-09, 1.3855297207449947e-09).transl(9.479109841114773e-08, 3.3668504185294885e-08, 0))
hIsland = hIsland.sub(rect(4.7487085423180595e-09, -2.687028337316164e-11).transl(7.811744216656035e-08, 3.664349534417583e-08, 0))
hIsland = hIsland.sub(rect(8.890261950595658e-09, -1.3699487405403135e-09).transl(-3.0198516788073163e-08, 3.9999945265358184e-08, 0))
vIsland = hIsland.rotz(pi / 2)
hIslands = hIslands.add(hIsland.transl(-a/2, a, 0))
hIsland = rect(islandLength-2*ellipseConstant, islandWidth)
hIsland = hIsland.add(ellipse(ellipseConstant*2, islandWidth).transl(islandLength/2-ellipseConstant, 0, 0))
hIsland = hIsland.add(ellipse(ellipseConstant*2, islandWidth).transl(-islandLength/2+ellipseConstant, 0, 0))
hIsland = hIsland.sub(rect(2.234412031458721e-09, -1.6457493609541717e-09).transl(-2.9776444114352952e-08, -4e-08, 0))
hIsland = hIsland.sub(rect(7.992514834241198e-09, -4.609452439946959e-09).transl(-2.7009363617078954e-09, -4e-08, 0))
hIsland = hIsland.sub(rect(5.21860245202757e-09, -3.060486051123799e-09).transl(1.1140255648552758e-07, -2.938938545654516e-08, 0))
hIsland = hIsland.sub(rect(2.4054334352307215e-09, -4.3459628706284115e-09).transl(-1.091416797443386e-07, -3.006769127456791e-08, 0))
hIsland = hIsland.sub(rect(2.6903066562467714e-09, -1.8210063719846026e-09).transl(-2.147358285336194e-08, -4e-08, 0))
hIsland = hIsland.add(rect(2.96667952915575e-09, 2.4785935076559773e-09).transl(-1.4924867443303424e-07, -4.469074549541184e-09, 0))
hIsland = hIsland.sub(rect(9.370445491876754e-09, -6.530131431777625e-09).transl(9.098674115037906e-08, -3.444902418204592e-08, 0))
hIsland = hIsland.sub(rect(2.2142975828304587e-09, -8.51952316576985e-11).transl(5.07258269775075e-08, -3.9398872087773193e-08, 0))
hIsland = hIsland.sub(rect(5.694128398594004e-09, -1.095440933594255e-09).transl(5.209597760943686e-08, -3.931605238107552e-08, 0))
hIsland = hIsland.sub(rect(9.814130586536927e-09, -9.065696386527287e-10).transl(-1.138806159094032e-07, -2.860466604256332e-08, 0))
hIsland = hIsland.add(rect(9.735817835449143e-09, 1.1949719928979415e-09).transl(-1.246821831119621e-07, -2.457479332150659e-08, 0))
hIsland = hIsland.add(rect(6.911138532201227e-09, 8.248387485579668e-10).transl(7.271589310905201e-08, -3.7379959687119405e-08, 0))
hIsland = hIsland.sub(rect(9.778841282265003e-09, -2.2639086934206123e-09).transl(2.0862527541404108e-08, -4e-08, 0))
hIsland = hIsland.sub(rect(9.981768133423111e-09, -2.298718164015873e-09).transl(3.4352173681358154e-09, -4e-08, 0))
hIsland = hIsland.sub(rect(9.08208949342884e-09, -1.380358674823333e-09).transl(7.870298034787174e-08, -3.655744293457873e-08, 0))
hIsland = hIsland.sub(rect(4.26553384894607e-09, -2.390404537851167e-09).transl(-1.3590816056851607e-08, -4e-08, 0))
hIsland = hIsland.add(rect(4.9704785586969856e-09, 3.2967132062605666e-09).transl(-1.0175347244337714e-07, -3.2061467340645535e-08, 0))
hIsland = hIsland.sub(rect(3.905903253621295e-09, -4.473170047920814e-09).transl(-1.2549725388469626e-07, -2.4221832439355364e-08, 0))
hIsland = hIsland.add(rect(2.2050119153959697e-09, 9.772485335152911e-10).transl(6.610982221414289e-08, -3.814603625784437e-08, 0))
hIsland = hIsland.sub(rect(9.993292160505555e-09, -5.199121710140315e-10).transl(-2.571836871529381e-08, -4e-08, 0))
hIsland = hIsland.add(rect(3.5499066171031014e-09, 1.958936142330401e-09).transl(-1.2100762381851407e-07, -2.607172245707307e-08, 0))
hIsland = hIsland.sub(rect(4.970959930821495e-09, -7.889512487570959e-10).transl(-4.464565978924597e-09, -4e-08, 0))
hIsland = hIsland.add(rect(7.64983932915994e-09, 1.1704705598713598e-09).transl(5.978697524481933e-08, -3.8748098312855625e-08, 0))
hIsland = hIsland.sub(rect(4.400510103716823e-09, -1.3893663651144106e-09).transl(-3.449517754698971e-08, -3.997192539607023e-08, 0))
hIsland = hIsland.add(rect(5.6358841842671996e-09, 8.346071119091374e-10).transl(-1.1649342486744485e-07, -2.772661668405304e-08, 0))
hIsland = hIsland.sub(rect(3.0548742278349232e-09, -1.046140624628031e-09).transl(6.466603183831021e-09, -4e-08, 0))
hIsland = hIsland.sub(rect(9.83189755156991e-09, -2.234171020389345e-10).transl(1.2342704795899042e-07, -2.5102869932580543e-08, 0))
hIsland = hIsland.add(rect(5.547831830037771e-09, 5.891566111957026e-10).transl(-1.4107803546572943e-07, -1.5135205600314642e-08, 0))
hIsland = hIsland.sub(rect(2.995158515043004e-09, -4.782920961595531e-10).transl(7.503733476073718e-08, -3.707595578695967e-08, 0))
hIsland = hIsland.sub(rect(7.171150859486843e-09, -4.727416222915708e-09).transl(-4.4385396226915856e-09, -4e-08, 0))
hIsland = hIsland.add(rect(4.41513228742532e-09, 1.0779066696450637e-09).transl(1.0190593222750821e-07, -3.2023492956982204e-08, 0))
hIsland = hIsland.sub(rect(4.31307107988927e-09, -2.2772339121641004e-09).transl(5.764086740673633e-09, -4e-08, 0))
hIsland = hIsland.sub(rect(7.764113916035885e-09, -1.2133857896827886e-09).transl(7.114663885286877e-08, -3.7575042117388375e-08, 0))
hIsland = hIsland.sub(rect(6.4608303024096445e-09, -8.015043686825434e-10).transl(9.177174500255421e-08, -3.429326386614825e-08, 0))
hIsland = hIsland.add(rect(4.727822027317221e-09, 1.1985268934276776e-09).transl(9.159971154710497e-08, -3.432762984554289e-08, 0))
hIsland = hIsland.sub(rect(2.4262639013020773e-09, -1.220144123012092e-09).transl(-1.3908262391395015e-07, -1.6669936879330323e-08, 0))
hIsland = hIsland.sub(rect(8.646192984671753e-09, -4.276575842785771e-10).transl(1.200377377269758e-07, -2.6443242751658637e-08, 0))
hIsland = hIsland.sub(rect(4.257482232622196e-09, -2.384488636761783e-09).transl(2.900315114729988e-09, -4e-08, 0))
hIsland = hIsland.sub(rect(6.809204845097276e-09, -2.8322472182468874e-10).transl(-1.20909146388849e-07, -2.6109868510777528e-08, 0))
hIsland = hIsland.add(rect(9.677408440855412e-09, 4.858233782563144e-10).transl(8.041281431656767e-08, -3.629898705761984e-08, 0))
hIsland = hIsland.add(rect(9.75650120103449e-09, 3.33341006930413e-09).transl(4.1854169130314646e-08, -3.980435302022729e-08, 0))
hIsland = hIsland.add(rect(7.0797049746352425e-09, 5.829271437880712e-10).transl(-1.767958803833475e-08, -4e-08, 0))
hIsland = hIsland.add(rect(9.96684874143772e-09, 2.163934961945766e-09).transl(6.86860781359935e-09, -4e-08, 0))
hIsland = hIsland.sub(rect(6.7572634748325925e-09, -2.2957639820125593e-09).transl(-1.1940016144911135e-07, -2.6682518481984144e-08, 0))
hIsland = hIsland.add(rect(8.389365971444714e-09, 3.195434328830968e-09).transl(8.846327521104713e-08, -3.493175163657996e-08, 0))
hIsland = hIsland.add(rect(2.2948988583686483e-09, 8.598156608381695e-12).transl(-2.4545610952815744e-08, -4e-08, 0))
hIsland = hIsland.add(rect(5.387432306348747e-09, 2.1626691759202378e-10).transl(-1.1874644585477317e-07, -2.6923901706983575e-08, 0))
hIsland = hIsland.sub(rect(8.98406354478181e-09, -3.214778071912628e-09).transl(-6.17948743729559e-08, -3.857040598929005e-08, 0))
hIsland = hIsland.add(rect(3.2233543405782525e-09, 1.1015590833187904e-09).transl(4.343792312691045e-08, -3.974840628815652e-08, 0))
hIsland = hIsland.add(rect(7.0417855572470424e-09, 5.939313634380272e-09).transl(-2.521622447817249e-08, -4e-08, 0))
hIsland = hIsland.sub(rect(2.4923389046960865e-09, -1.1594094373529888e-09).transl(-8.550380988017007e-08, -3.546410875610868e-08, 0))
hIsland = hIsland.add(rect(3.248809619765295e-09, 1.012426278060526e-09).transl(1.0325948818913331e-07, -3.16807817493793e-08, 0))
hIsland = hIsland.sub(rect(2.4719768994046858e-09, -4.3086359618444156e-10).transl(-1.386718640133625e-07, -1.6965409160541455e-08, 0))
hIsland = hIsland.add(rect(2.1635698205187037e-09, 4.2316284258851583e-10).transl(-1.4946323301521863e-07, -3.779123319142534e-09, 0))
hIsland = hIsland.add(rect(9.00276620040151e-09, 3.7888897304500133e-10).transl(-1.8045341114635897e-08, -4e-08, 0))
hIsland = hIsland.add(rect(5.9189353272517705e-09, 2.7530721927831992e-09).transl(9.83164132672338e-08, -3.2885099088088384e-08, 0))
hIsland = hIsland.add(rect(8.52816971211795e-09, 9.738580528003986e-10).transl(1.1941141778520818e-07, -2.6678327387265248e-08, 0))
hIsland = hIsland.add(rect(4.414267416873633e-09, 1.163927763357441e-09).transl(-1.9299269740648325e-08, -4e-08, 0))
hIsland = hIsland.add(rect(2.0862501316681117e-09, 3.489381240318793e-10).transl(-3.582238268812342e-08, -3.9952888728591666e-08, 0))
hIsland = hIsland.add(rect(5.789805408375068e-09, 3.3949677289528786e-09).transl(2.7471579903781777e-08, -4e-08, 0))
hIsland = hIsland.add(rect(5.820606033344687e-09, 1.0937255369285525e-09).transl(8.166935213480018e-08, -3.61021360555639e-08, 0))
hIsland = hIsland.sub(rect(9.760736437925653e-09, -1.2805920525143044e-09).transl(-5.808478736374724e-08, -3.888907975645191e-08, 0))
hIsland = hIsland.add(rect(8.346911498502166e-09, 1.6029542772739725e-09).transl(-1.0284343330728476e-07, -3.178719907273499e-08, 0))
hIsland = hIsland.sub(rect(9.361290015416685e-09, -3.7793890477703e-09).transl(8.480398657075166e-08, -3.5584832998769566e-08, 0))
hIsland = hIsland.add(rect(7.220318839348679e-09, 1.2435417168533727e-09).transl(-1.3488208707973603e-07, -1.9435785465071818e-08, 0))
hIsland = hIsland.sub(rect(8.87921512498506e-09, -2.4690013667867575e-09).transl(-2.7460944575814075e-08, -4e-08, 0))
hIsland = hIsland.add(rect(3.2030736272231874e-09, 5.459707998106425e-10).transl(1.1598843247840508e-07, -2.790059632956251e-08, 0))
hIsland = hIsland.add(rect(6.6714211909997e-09, 3.823055632453963e-10).transl(-3.227697074907265e-08, -3.999279852424527e-08, 0))
hIsland = hIsland.add(rect(4.376702667049231e-09, 6.800304112146856e-10).transl(8.014060222579642e-08, -3.6340855503344165e-08, 0))
hIsland = hIsland.add(rect(9.287828264473377e-09, 8.764360608044032e-10).transl(-2.569986159697119e-08, -4e-08, 0))
hIsland = hIsland.sub(rect(9.748028942299449e-09, -1.9979249346878967e-09).transl(-1.3603837682109034e-07, -1.8725688360432856e-08, 0))
hIsland = hIsland.add(rect(7.441752474564712e-09, 5.868303502808374e-10).transl(4.9284929935629776e-08, -3.9480081443935264e-08, 0))
hIsland = hIsland.add(rect(8.92251841524477e-09, 8.320383167327895e-10).transl(4.810564936919942e-08, -3.954208090533933e-08, 0))
hIsland = hIsland.add(rect(9.244163255078953e-09, 2.255263880265504e-10).transl(8.868965379627563e-08, -3.4889547204592366e-08, 0))
hIsland = hIsland.add(rect(9.629891381485561e-09, 2.4630331242360827e-09).transl(1.506439012000045e-08, -4e-08, 0))
hIsland = hIsland.sub(rect(5.530058367186968e-09, -1.8563449260755324e-09).transl(3.6394952099213036e-08, -3.994316043197268e-08, 0))
hIsland = hIsland.sub(rect(6.2266688459255296e-09, -4.999747897141903e-10).transl(9.540946032439668e-08, -3.353539175271267e-08, 0))
hIsland = hIsland.sub(rect(9.310936934795546e-09, -1.5814073216620262e-09).transl(-1.44252468396684e-07, -1.2230987355732202e-08, 0))
hIsland = hIsland.sub(rect(2.6911557743305643e-09, -8.584886827175947e-10).transl(-8.469067340163984e-09, -4e-08, 0))
hIsland = hIsland.add(rect(4.844774948925817e-09, 4.578729522556017e-09).transl(-1.0081186495353215e-07, -3.229323937125528e-08, 0))
hIsland = hIsland.sub(rect(6.724611824685673e-09, -4.133558969780064e-09).transl(-4.811960063092753e-08, -3.954137084255439e-08, 0))
hIsland = hIsland.add(rect(8.882699246399789e-09, 1.367039586957829e-09).transl(-3.946628822501902e-08, -3.987534658468795e-08, 0))
hIsland = hIsland.sub(rect(8.44387860026566e-09, -3.0136204385481442e-09).transl(2.8712648079303216e-08, -4e-08, 0))
hIsland = hIsland.add(rect(4.127584261600463e-09, 2.3392347620434365e-09).transl(-2.6793552182213447e-08, -4e-08, 0))
hIsland = hIsland.add(rect(7.0446631411533105e-09, 2.3123672464061094e-09).transl(8.321403435677693e-08, -3.5851958798921015e-08, 0))
hIsland = hIsland.sub(rect(5.9185697998362415e-09, -2.354690630690123e-09).transl(-1.5683646829298707e-09, -4e-08, 0))
hIsland = hIsland.sub(rect(7.11416480442993e-09, -6.057483504020595e-10).transl(-1.376646683339518e-07, -1.7664525632968353e-08, 0))
hIsland = hIsland.sub(rect(9.16338112040458e-09, -5.450164837530043e-10).transl(1.4884741192788623e-07, -5.530648726699938e-09, 0))
hIsland = hIsland.add(rect(5.2166429796361525e-09, 7.7671392312482e-10).transl(-8.65516302863699e-08, -3.527969688701001e-08, 0))
hIsland = hIsland.sub(rect(9.080041514426057e-09, -2.1409880132196937e-10).transl(1.0913642400677982e-07, -3.006922826379e-08, 0))
hIsland = hIsland.sub(rect(6.278181991850438e-09, -1.0683243206868065e-09).transl(-1.4927899083356559e-07, -4.378258732091018e-09, 0))
hIsland = hIsland.sub(rect(3.9791428174032395e-09, -1.1286166519245467e-09).transl(3.000271017996688e-09, -4e-08, 0))
hIsland = hIsland.sub(rect(2.365903447405444e-09, -1.757795650835982e-10).transl(4.9838036741916077e-08, -3.944961948587984e-08, 0))
hIsland = hIsland.sub(rect(4.882511912759139e-09, -5.1248004027685144e-09).transl(5.0470443578022185e-08, -3.941370452537066e-08, 0))
hIsland = hIsland.sub(rect(2.7355712272849167e-09, -1.796800582456475e-09).transl(4.9454511923767715e-08, -3.94708358803025e-08, 0))
hIsland = hIsland.sub(rect(2.197166316088744e-09, -2.8882745821641474e-09).transl(-2.570883981812139e-08, -4e-08, 0))
hIsland = hIsland.sub(rect(6.365459241099579e-09, -2.276193102802898e-09).transl(-1.412706831612028e-07, -1.497714951680736e-08, 0))
hIsland = hIsland.sub(rect(9.481649530967846e-09, -2.6615004167518894e-09).transl(1.4952703697080178e-07, -3.5478856454794117e-09, 0))
hIsland = hIsland.sub(rect(5.55269181535668e-09, -7.430157376336723e-10).transl(-2.1713090801304907e-09, -4e-08, 0))
hIsland = hIsland.add(rect(7.075905876254325e-09, 2.4914227998855113e-09).transl(9.103609384898275e-08, -3.443931094880799e-08, 0))
hIsland = hIsland.sub(rect(8.543197116863873e-09, -1.813019054727982e-09).transl(1.3229526895331462e-07, -2.091166062211073e-08, 0))
hIsland = hIsland.sub(rect(5.561231567186156e-09, -1.9893119216921306e-09).transl(4.257977146010593e-09, -4e-08, 0))
hIsland = hIsland.add(rect(3.334484991896175e-09, 3.5681181602608712e-09).transl(-5.2419986172226565e-08, -3.92956658905522e-08, 0))
hIsland = hIsland.add(rect(6.55123341717509e-09, 7.035263244691948e-10).transl(3.477077557202948e-08, -3.996837597184572e-08, 0))
hIsland = hIsland.sub(rect(2.7417056352903356e-09, -1.8279332795309113e-09).transl(-2.3588058204571782e-08, -4e-08, 0))
hIsland = hIsland.add(rect(9.303909109264755e-09, 9.56140785860926e-11).transl(-1.1848530374425514e-07, -2.701923393372233e-08, 0))
hIsland = hIsland.sub(rect(9.511277591235427e-09, -8.483921879125254e-10).transl(7.512161006341306e-08, -3.706456874351584e-08, 0))
hIsland = hIsland.add(rect(9.159144980813924e-09, 2.0358958689699955e-09).transl(-1.3321789186627414e-07, -2.04017068966794e-08, 0))
hIsland = hIsland.add(rect(9.365289181364284e-09, 6.219654463560118e-10).transl(-1.63274568857707e-08, -4e-08, 0))
hIsland = hIsland.sub(rect(7.438513902374592e-09, -2.219469403295703e-09).transl(-9.726648301465017e-08, -3.312471427606715e-08, 0))
hIsland = hIsland.sub(rect(2.4665202226985548e-09, -2.880992916473262e-09).transl(6.46491082001149e-08, -3.829627092512726e-08, 0))
hIsland = hIsland.sub(rect(4.513470432464399e-09, -4.280000212154659e-10).transl(1.4367052726468122e-07, -1.281930502263142e-08, 0))
hIsland = hIsland.add(rect(2.0308838025669403e-09, 2.403693878746196e-09).transl(-1.0095924895966969e-07, -3.2257273059436825e-08, 0))
hIsland = hIsland.sub(rect(9.563717192966043e-09, -8.388297772952192e-10).transl(-1.01854694706089e-07, -3.203626911398799e-08, 0))
hIsland = hIsland.add(rect(4.637828789237135e-09, 1.1833197114673348e-09).transl(1.3807763650210647e-07, -1.7382061276942798e-08, 0))
hIsland = hIsland.add(rect(9.322969440859894e-09, 1.6035045437593215e-09).transl(3.1497416314753216e-08, -3.9996885634842886e-08, 0))
hIsland = hIsland.add(rect(7.118991355843799e-09, 2.535902027393803e-09).transl(-1.3960500978456164e-07, -1.628476394304454e-08, 0))
hIsland = hIsland.add(rect(7.874063929285617e-09, 2.7956919864916415e-09).transl(-1.2477493689068589e-07, -2.453503467236305e-08, 0))
hIsland = hIsland.sub(rect(9.784393952448196e-09, -1.297211009426421e-09).transl(-3.7231622249884266e-08, -3.9927300100216836e-08, 0))
hIsland = hIsland.sub(rect(8.2192685445196e-09, -8.007812438340245e-10).transl(1.9195779359614906e-08, -4e-08, 0))
hIsland = hIsland.add(rect(4.062516376401929e-09, 4.276644553955763e-09).transl(-7.198827564462185e-08, -3.7471447957658016e-08, 0))
hIsland = hIsland.sub(rect(8.507018233141819e-09, -3.972426661030212e-09).transl(7.677621944485914e-08, -3.683595057737057e-08, 0))
hIsland = hIsland.sub(rect(9.162533828637983e-09, -1.5723564886318168e-09).transl(-1.5935937398248397e-08, -4e-08, 0))
hIsland = hIsland.add(rect(3.024515454051704e-09, 2.1451156937848614e-09).transl(-3.5675529780786706e-09, -4e-08, 0))
hIsland = hIsland.add(rect(6.9413204804320255e-09, 1.409594702378073e-09).transl(-9.387582157088439e-08, -3.38622691020298e-08, 0))
hIsland = hIsland.sub(rect(6.650041657791668e-09, -8.949507780295501e-10).transl(-1.1766139963209008e-07, -2.73160087668243e-08, 0))
hIsland = hIsland.sub(rect(4.247380872387935e-09, -3.9701263177075305e-09).transl(5.7633524231369054e-08, -3.892498246421405e-08, 0))
hIsland = hIsland.sub(rect(7.872146898973988e-09, -2.020507375122425e-09).transl(1.4591261392748127e-07, -1.0350877217246855e-08, 0))
hIsland = hIsland.add(rect(3.694948747464266e-09, 3.9341134818967253e-10).transl(-3.602997850420163e-08, -3.9949467190493524e-08, 0))
hIsland = hIsland.add(rect(5.933333694055553e-09, 9.67794154680745e-10).transl(4.851957685951415e-08, -3.952077551103772e-08, 0))
hIsland = hIsland.add(rect(4.560933453793804e-09, 2.7355256617653863e-09).transl(-1.114113927212006e-07, -2.9386665787950774e-08, 0))
hIsland = hIsland.sub(rect(2.796572392443974e-09, -2.5041001410376462e-09).transl(8.475554723100327e-09, -4e-08, 0))
hIsland = hIsland.sub(rect(2.6056852271424946e-09, -1.9457637131470553e-09).transl(-3.911279578531209e-08, -3.988449566905695e-08, 0))
hIsland = hIsland.sub(rect(5.1483236865994216e-09, -3.855201806200179e-10).transl(7.728287240221217e-08, -3.676400712260132e-08, 0))
hIsland = hIsland.add(rect(5.723660830494257e-09, 4.008855773767159e-09).transl(-1.1446456867344433e-07, -2.8413096821338906e-08, 0))
hIsland = hIsland.add(rect(3.51544695259139e-09, 9.169628164752759e-10).transl(1.21383613227859e-07, -2.5925181309600806e-08, 0))
hIsland = hIsland.add(rect(7.440209509349586e-09, 1.302290453536122e-09).transl(1.055152788844887e-07, -3.1086693571719536e-08, 0))
hIsland = hIsland.sub(rect(2.940741631858842e-09, -1.2486458296651408e-09).transl(-3.3108957025209327e-09, -4e-08, 0))
hIsland = hIsland.add(rect(9.332933658072356e-09, 4.913080306045812e-09).transl(-1.45219808545801e-07, -1.1177336786099148e-08, 0))
hIsland = hIsland.add(rect(3.3816285391447355e-09, 1.516836493921659e-09).transl(6.785337580998672e-08, -3.7957757133991745e-08, 0))
hIsland = hIsland.add(rect(5.7264015934172786e-09, 1.9166357444695097e-09).transl(-6.458561409105857e-08, -3.830264757014465e-08, 0))
hIsland = hIsland.add(rect(6.283039346004712e-09, 8.57787433725533e-10).transl(-1.4555511688995344e-07, -1.0785870183558586e-08, 0))
hIsland = hIsland.sub(rect(2.652682196884469e-09, -1.2699047967605893e-09).transl(-5.271904891302818e-08, -3.9276576022537395e-08, 0))
hIsland = hIsland.add(rect(7.122643787157026e-09, 1.1007945300456747e-11).transl(1.2564728549540568e-07, -2.4155967234620107e-08, 0))
hIsland = hIsland.sub(rect(2.237494062219849e-09, -5.049718818976028e-10).transl(-9.542109638612162e-08, -3.353286969135704e-08, 0))
hIsland = hIsland.sub(rect(5.972166711742066e-09, -3.744399057019617e-09).transl(-2.301862446906309e-08, -4e-08, 0))
hIsland = hIsland.sub(rect(3.5960579292295782e-09, -2.140692896909096e-10).transl(2.459076970047631e-08, -4e-08, 0))
hIsland = hIsland.sub(rect(2.1468208692708872e-09, -3.925642646245929e-10).transl(-2.0883115429767454e-08, -4e-08, 0))
hIsland = hIsland.add(rect(6.29330191887769e-09, 1.4700322401835419e-09).transl(1.767832298267467e-08, -4e-08, 0))
hIsland = hIsland.sub(rect(2.362957677541544e-09, -7.492512081568455e-10).transl(-4.060703696479563e-08, -3.984343075203163e-08, 0))
hIsland = hIsland.add(rect(5.332606986720209e-09, 7.884197638985146e-10).transl(-1.220327100854514e-07, -2.566878838487459e-08, 0))
hIsland = hIsland.sub(rect(9.726782956036193e-09, -8.226677026955745e-10).transl(-6.49000635332215e-08, -3.82709428002457e-08, 0))
hIsland = hIsland.sub(rect(5.453253424026578e-09, -4.96667365699718e-10).transl(1.3851542906769986e-07, -1.7076304746808933e-08, 0))
hIsland = hIsland.add(rect(6.874793589191858e-09, 4.08306006700325e-10).transl(-3.744877380035519e-08, -3.992286419371895e-08, 0))
hIsland = hIsland.add(rect(4.42536726732312e-09, 4.0325991015090775e-10).transl(1.0978364688118504e-07, -2.9878587074912914e-08, 0))
hIsland = hIsland.add(rect(3.04371460526263e-09, 6.824250191514952e-10).transl(1.680886836857061e-08, -4e-08, 0))
hIsland = hIsland.sub(rect(4.3443957341797865e-09, -9.19256200442246e-10).transl(-6.616317318938177e-08, -3.8140420240175614e-08, 0))
hIsland = hIsland.sub(rect(2.526213146913815e-09, -1.3249854460519333e-09).transl(-7.278872366930322e-08, -3.7370703211580074e-08, 0))
hIsland = hIsland.sub(rect(2.6052118947249465e-09, -4.709862612027419e-10).transl(4.862173056884387e-08, -3.951544163800806e-08, 0))
hIsland = hIsland.sub(rect(9.132187853430801e-09, -4.27594637197687e-09).transl(1.4248518085228478e-07, -1.3932711663279618e-08, 0))
hIsland = hIsland.add(rect(7.338982914582226e-09, 3.1170120086037653e-09).transl(1.3300915585939066e-07, -2.0518592677362877e-08, 0))
hIsland = hIsland.sub(rect(7.839427607608596e-09, -1.0531966336150317e-09).transl(5.343933628165895e-08, -3.9229520509539334e-08, 0))
hIsland = hIsland.add(rect(4.249503489631372e-09, 7.700581579626185e-10).transl(5.646850007049772e-08, -3.901483835103719e-08, 0))
hIsland = hIsland.sub(rect(7.399243126827028e-09, -8.601619501236825e-10).transl(6.451713007341464e-08, -3.830951104925218e-08, 0))
hIsland = hIsland.add(rect(7.718460021647925e-09, 2.7899770643288637e-09).transl(9.309734777770303e-08, -3.402405146595174e-08, 0))
hIsland = hIsland.sub(rect(5.009896847063003e-09, -1.5993405903857856e-09).transl(-3.7530131260000566e-08, -3.9921168324040214e-08, 0))
hIsland = hIsland.sub(rect(3.316579701883731e-09, -2.6968450952790794e-10).transl(-3.639261926057549e-08, -3.994320192332736e-08, 0))
hIsland = hIsland.sub(rect(9.792072906566602e-09, -2.3062056064545663e-09).transl(1.48887526136517e-07, -5.4340094583301345e-09, 0))
hIsland = hIsland.add(rect(8.868430233025355e-09, 2.2338850541785236e-09).transl(-4.27386480107997e-08, -3.9773982069322305e-08, 0))
hIsland = hIsland.sub(rect(6.564968838137327e-09, -1.3055982599378738e-09).transl(1.2206153811161154e-07, -2.5657299590574177e-08, 0))
hIsland = hIsland.add(rect(2.8063192114266383e-09, 1.4071159148826405e-10).transl(-3.226866150052492e-09, -4e-08, 0))
hIsland = hIsland.add(rect(6.288499169699907e-09, 1.468922594117431e-09).transl(-1.4859469883177304e-07, -6.103709336688923e-09, 0))
hIsland = hIsland.add(rect(2.1914165176788076e-09, 1.7680335107600295e-09).transl(-2.9283743919490402e-08, -4e-08, 0))
hIsland = hIsland.add(rect(5.104169161908266e-09, 1.7960199693335154e-09).transl(-3.2748554886483276e-08, -3.9989506187437596e-08, 0))
hIsland = hIsland.sub(rect(7.633440925003373e-09, -2.056202162320425e-09).transl(-8.069247933259571e-08, -3.6255685437849084e-08, 0))
hIsland = hIsland.add(rect(7.374534667010611e-09, 2.326967496783579e-09).transl(8.57840237237697e-08, -3.541522380933234e-08, 0))
hIsland = hIsland.add(rect(6.871865137885574e-09, 3.5451818620918623e-10).transl(-1.1490831012777373e-07, -2.8265760345623115e-08, 0))
hIsland = hIsland.add(rect(9.656212923857276e-09, 4.1269706870442945e-09).transl(-5.375989835051359e-08, -3.920808764410909e-08, 0))
hIsland = hIsland.add(rect(5.690415398015521e-09, 2.2123092915242827e-09).transl(3.247706088671788e-08, -3.999147710500811e-08, 0))
hIsland = hIsland.sub(rect(2.3247077421627475e-09, -2.517443284324624e-09).transl(8.514943914796911e-08, -3.5525482812677275e-08, 0))
hIsland = hIsland.sub(rect(9.802836848527531e-09, -8.71069721654132e-10).transl(-1.4499074835063523e-07, -1.143643200847812e-08, 0))
hIsland = hIsland.add(rect(5.475696342811579e-09, 6.472582933253939e-10).transl(-1.289132711191504e-07, -2.264745459454906e-08, 0))
hIsland = hIsland.add(rect(7.966568934206806e-09, 3.584691340565197e-10).transl(1.0461598876313441e-07, -3.132704586012221e-08, 0))
hIsland = hIsland.sub(rect(2.6267297519172363e-09, -1.9879289545203942e-09).transl(-1.0231753488072957e-07, -3.192034208389249e-08, 0))
hIsland = hIsland.add(rect(2.4024736512583065e-09, 1.7109980714504644e-09).transl(1.0092905031676762e-07, -3.226465183303281e-08, 0))
hIsland = hIsland.sub(rect(6.6354138043534465e-09, -1.8878440088027738e-09).transl(7.770402618303705e-08, -3.670350556361994e-08, 0))
hIsland = hIsland.add(rect(8.387904461359143e-09, 9.940372044361549e-10).transl(-1.2992300547404607e-07, -2.2149474478425392e-08, 0))
hIsland = hIsland.sub(rect(6.249853501382516e-09, -2.580573965026478e-09).transl(-7.910978600791771e-08, -3.649692364243645e-08, 0))
hIsland = hIsland.add(rect(9.345958368397675e-09, 2.5961941708607837e-09).transl(7.288730182038811e-08, -3.7358145538329294e-08, 0))
hIsland = hIsland.add(rect(9.528075879014652e-09, 2.902346579809434e-09).transl(-1.0565179820088486e-07, -3.1049790532434617e-08, 0))
hIsland = hIsland.add(rect(2.877523566573368e-09, 2.844239874176603e-10).transl(7.60327102676621e-08, -3.6939875451593976e-08, 0))
hIsland = hIsland.sub(rect(3.9498886613807925e-09, -4.447842982043342e-11).transl(-2.006726095891367e-09, -4e-08, 0))
hIsland = hIsland.sub(rect(7.726013084325629e-09, -1.0155114438060705e-09).transl(1.1530043537993583e-07, -2.813427274101701e-08, 0))
hIsland = hIsland.sub(rect(5.070574062476131e-09, -7.882672947916616e-10).transl(1.3661601996898822e-07, -1.8357633247272578e-08, 0))
hIsland = hIsland.add(rect(6.270863369129197e-09, 2.67212720404452e-09).transl(-4.0459394219210544e-08, -3.9847767360525633e-08, 0))
hIsland = hIsland.add(rect(2.293960617802002e-09, 3.2539545087315757e-10).transl(-1.2805239801167074e-07, -2.3059650291655222e-08, 0))
hIsland = hIsland.sub(rect(3.6315215581367445e-09, -2.0186357466498865e-09).transl(1.0567107824344747e-07, -3.104456996261639e-08, 0))
hIsland = hIsland.sub(rect(8.968538523660872e-09, -2.7726694211474095e-09).transl(-6.663367964079557e-08, -3.8090496796701235e-08, 0))
hIsland = hIsland.add(rect(6.2181912883650185e-09, 1.996144548895017e-09).transl(5.165519425918918e-08, -3.934329331749325e-08, 0))
hIsland = hIsland.sub(rect(9.366246015349408e-09, -5.695529399025629e-10).transl(5.161276264025091e-08, -3.9345885696327436e-08, 0))
hIsland = hIsland.add(rect(8.16672431758892e-09, 2.1329416531725524e-09).transl(9.866421991283459e-08, 3.2804513415351673e-08, 0))
hIsland = hIsland.add(rect(7.281697701244824e-09, 3.374820490221571e-09).transl(3.0125020357228343e-08, 3.999997829153617e-08, 0))
hIsland = hIsland.add(rect(8.393942972991781e-09, 2.943836778360658e-09).transl(1.2506641594793134e-07, 2.4409416577339593e-08, 0))
[...]
hIsland = hIsland.sub(rect(5.16927550015054e-09, -1.643573852252266e-09).transl(2.0168112154555463e-08, 4e-08, 0))
hIsland = hIsland.sub(rect(9.188164119380794e-09, -8.120429095042185e-11).transl(-6.77089351182941e-09, 4e-08, 0))
hIsland = hIsland.sub(rect(2.4464392003013765e-09, -4.476020676891361e-10).transl(1.46695610320481e-07, 9.322222743592945e-09, 0))
hIsland = hIsland.sub(rect(6.434275975815914e-09, -1.5702634913075872e-09).transl(1.6471295917786166e-08, 4e-08, 0))
hIsland = hIsland.add(rect(2.5988490858899143e-09, 1.2983192804300593e-09).transl(3.897568238218225e-08, 3.988795017960267e-08, 0))
hIsland = hIsland.sub(rect(6.083754216207818e-09, -1.8728151841687667e-09).transl(-3.460672051136041e-08, 3.997051430760515e-08, 0))
hIsland = hIsland.sub(rect(6.408291408752969e-09, -1.2033988832494208e-09).transl(-1.965607019599452e-08, 4e-08, 0))
hIsland = hIsland.sub(rect(9.700844947561314e-09, -5.50115425280228e-10).transl(5.189340095515839e-08, 3.9328642368037105e-08, 0))
hIsland = hIsland.add(rect(8.284879331825551e-09, 3.46608672021301e-09).transl(-1.1047025959937496e-07, 2.9673290122055717e-08, 0))
hIsland = hIsland.add(rect(9.37424422344505e-09, 2.0523705532752066e-10).transl(9.333528288641021e-08, 3.3974895865588754e-08, 0))
hIsland = hIsland.sub(rect(2.328011677651693e-09, -1.7317782817391075e-09).transl(-9.554558533455946e-08, 3.3505847322436766e-08, 0))
hIsland = hIsland.sub(rect(5.996485698971527e-09, -4.25011557661217e-09).transl(-3.108870177617644e-08, 3.9998353755627036e-08, 0))
hIsland = hIsland.sub(rect(2.9442375423218223e-09, -1.4432470885046407e-09).transl(1.1700675760694768e-07, 2.754758333971291e-08, 0))
hIsland = hIsland.add(rect(8.141718589197439e-09, 1.4656806579342658e-09).transl(-1.4099969456780558e-07, 1.5198932001419178e-08, 0))
hIsland = hIsland.add(rect(6.526593146404572e-09, 4.816392481118315e-09).transl(1.4105008216013713e-08, 4e-08, 0))
hIsland = hIsland.add(rect(5.033953642680403e-09, 1.2217601968198251e-09).transl(-1.2863382731676573e-07, 2.2782469159047227e-08, 0))
hIsland = hIsland.add(rect(3.656054836761998e-09, 9.048587378336707e-10).transl(-3.71718292243869e-08, 3.992849840732839e-08, 0))
hIsland = hIsland.sub(rect(4.291069041595765e-09, -5.397598906153643e-10).transl(6.315982665919092e-08, 3.844249080832362e-08, 0))
hIsland = hIsland.sub(rect(5.139604207116691e-09, -2.1747890909221515e-10).transl(-1.3429174836127547e-07, 1.9785604260978344e-08, 0))
hIsland = hIsland.add(rect(4.805437839211157e-09, 1.5962701036803488e-09).transl(7.971619331002e-08, 3.64055858393564e-08, 0))
hIsland = hIsland.add(rect(3.684585603671579e-09, 1.0514327425326791e-09).transl(-8.405415402030416e-08, 3.571204034923615e-08, 0))
hIsland = hIsland.sub(rect(4.893451882889112e-09, -4.81720173486536e-10).transl(1.3873314759240503e-07, 1.6921723758557185e-08, 0))
hIsland = hIsland.add(rect(6.60057425616712e-09, 8.069085925829162e-10).transl(4.00660414667876e-08, 3.9859022133833575e-08, 0))
hIsland = hIsland.sub(rect(3.6961235345628884e-09, -3.557517783494157e-09).transl(-8.635880418141608e-08, 3.5313965118067505e-08, 0))
hIsland = hIsland.sub(rect(3.9617622063625745e-09, -1.8195474067515427e-09).transl(-2.123524917301349e-08, 4e-08, 0))
hIsland = hIsland.sub(rect(4.2926868972911426e-09, -2.0143958554329726e-09).transl(1.0858525578139243e-08, 4e-08, 0))
hIsland = hIsland.add(rect(8.582612259641417e-09, 7.04578233290693e-10).transl(1.3153476523095175e-07, 2.1319504500953307e-08, 0))
hIsland = hIsland.sub(rect(7.579176921593541e-09, -1.1631964039597775e-09).transl(-1.195321344224874e-07, 2.6633306019497153e-08, 0))
hIsland = hIsland.sub(rect(8.206452119309292e-09, -2.286505128359859e-09).transl(-4.71908649274855e-08, 3.9587419667034165e-08, 0))
hIsland = hIsland.add(rect(5.025578146628704e-09, 1.777898812276053e-09).transl(6.549092426534986e-08, 3.821051963180239e-08, 0))
hIsland = hIsland.add(rect(3.0790950921482775e-09, 3.8480946766764006e-09).transl(7.879600041558783e-08, 3.6543657822515604e-08, 0))
hIsland = hIsland.add(rect(8.09588601073085e-09, 1.7993356310676992e-09).transl(-2.4030758095094358e-08, 4e-08, 0))
hIsland = hIsland.sub(rect(5.030227481547251e-09, -1.6840361773188647e-09).transl(1.4603019843243697e-08, 4e-08, 0))
hIsland = hIsland.add(rect(4.193945707035836e-09, 9.384073584993667e-10).transl(7.21942780203308e-08, 3.744572799004956e-08, 0))
hIsland = hIsland.sub(rect(9.251433848083055e-09, -3.831472529021119e-09).transl(-1.2117574170014043e-07, 2.600637555470085e-08, 0))
hIsland = hIsland.sub(rect(8.259544072449718e-09, -2.903367516165086e-10).transl(-9.18687797092645e-08, 3.42738223677853e-08, 0))
hIsland = hIsland.add(rect(3.2878771727231985e-09, 2.788430283970491e-09).transl(2.9555694846661475e-08, 4e-08, 0))
hIsland = hIsland.add(rect(8.537970313522518e-09, 5.785583161101474e-09).transl(-1.0320370400144803e-07, 3.1695106037347616e-08, 0))
hIsland = hIsland.add(rect(9.432982828005336e-09, 1.5933011596993118e-10).transl(-6.874473101348964e-08, 3.785769526748578e-08, 0))
hIsland = hIsland.sub(rect(7.318955533994645e-09, -1.6468299780144579e-09).transl(-6.857130228732359e-08, 3.787736738455346e-08, 0))
hIsland = hIsland.sub(rect(7.223354001262544e-09, -1.6419154781084364e-09).transl(2.0094314119376346e-08, 4e-08, 0))
hIsland = hIsland.add(rect(3.619185229199923e-09, 3.1818766685468287e-10).transl(-1.1669772479773932e-08, 4e-08, 0))
hIsland = hIsland.add(rect(3.5731331101220117e-09, 2.491762963805937e-09).transl(1.4894972224524485e-08, 4e-08, 0))
hIsland = hIsland.add(rect(9.831954835164802e-09, 4.1648926940709356e-10).transl(-7.853878164369121e-08, 3.658169954825024e-08, 0))
hIsland = hIsland.add(rect(6.825493546540749e-09, 1.892549451542104e-09).transl(5.325173724785725e-08, 3.924192304008645e-08, 0))
hIsland = hIsland.add(rect(6.397689220259059e-09, 8.62683620614844e-10).transl(9.000854180280319e-08, 3.463937212463622e-08, 0))
hIsland = hIsland.sub(rect(2.049315485563683e-09, -1.3742709151462578e-09).transl(1.3583455562743584e-07, 1.8853372333597074e-08, 0))
hIsland = hIsland.sub(rect(6.951687342010886e-09, -1.902286284271744e-10).transl(-6.85778814751545e-08, 3.787662290016089e-08, 0))
hIsland = hIsland.sub(rect(6.524275159345679e-09, -9.78070212078831e-10).transl(7.210890537773821e-08, 3.745640441883914e-08, 0))
hIsland = hIsland.add(rect(8.394521434394266e-09, 3.1562518175465496e-09).transl(1.1850462561906872e-07, 2.701220144886892e-08, 0))
hIsland = hIsland.sub(rect(2.073722598045997e-09, -1.9918105874922315e-09).transl(1.4160327851745185e-07, 1.4699615354589967e-08, 0))
hIsland = hIsland.sub(rect(7.692978082678783e-09, -1.8903647493209893e-09).transl(1.2119967345752782e-07, 2.599705017719489e-08, 0))
hIsland = hIsland.sub(rect(6.724990018233756e-09, -2.7476184748824196e-09).transl(9.225316394263e-08, 3.4196399386699626e-08, 0))
hIsland = hIsland.sub(rect(5.59095052059351e-09, -3.4850966451967996e-09).transl(8.678255388351051e-08, 3.523846000933612e-08, 0))
hIsland = hIsland.sub(rect(7.755173480700892e-09, -1.9953379315875866e-09).transl(-4.162978952401774e-08, 3.981170681488193e-08, 0))
hIsland = hIsland.sub(rect(8.719425097899972e-09, -1.468052681126301e-09).transl(-9.267487940387075e-08, 3.411070130506499e-08, 0))
hIsland = hIsland.add(rect(8.365799900730279e-09, 1.997137777421428e-10).transl(-6.205995806752111e-08, 3.854601735978668e-08, 0))
hIsland = hIsland.add(rect(2.374242517168739e-09, 6.801410410081395e-10).transl(1.380487404453759e-07, 1.7402010382481012e-08, 0))
hIsland = hIsland.add(rect(9.159731328168062e-09, 4.503607017529234e-09).transl(-5.067598423836282e-10, 4e-08, 0))
hIsland = hIsland.add(rect(4.4410208527275444e-09, 6.395622687748805e-10).transl(8.55994685892953e-08, 3.544745578174353e-08, 0))
hIsland = hIsland.add(rect(7.0167115887467785e-09, 7.13950781012007e-09).transl(-1.4754382754146922e-07, 8.051560282891665e-09, 0))
hIsland = hIsland.add(rect(4.78105498752709e-09, 3.3627853072526566e-09).transl(4.608985934992154e-08, 3.9638808741630053e-08, 0))
hIsland = hIsland.sub(rect(5.949208786233257e-09, -1.6299450986526792e-09).transl(-3.783155033249152e-08, 3.991472412724915e-08, 0))
hIsland = hIsland.sub(rect(3.4812679570835174e-09, -1.8296783246434406e-09).transl(-3.865336703162739e-08, 3.989586338765231e-08, 0))
hIsland = hIsland.sub(rect(4.449479400672746e-09, -5.103704590848395e-10).transl(-1.0495319872476568e-07, 3.1237473935653676e-08, 0))
hIsland = hIsland.add(rect(2.2032243145136183e-09, 3.732856070520484e-09).transl(1.1360569147190475e-07, 2.869395668759205e-08, 0))
hIsland = hIsland.add(rect(8.205306176028309e-09, 1.151280013610681e-09).transl(1.4861972539437002e-07, 6.049432915243224e-09, 0))
hIsland = hIsland.sub(rect(6.025915449021283e-09, -1.5599475230823296e-10).transl(1.4780424831432547e-07, 7.616933467951155e-09, 0))
hIsland = hIsland.sub(rect(9.745029003040769e-09, -2.589924524951064e-09).transl(-1.4193389876641072e-08, 4e-08, 0))
hIsland = hIsland.sub(rect(9.269891084488932e-09, -4.6202598454715214e-09).transl(-1.188639499633726e-07, 2.6880803553025665e-08, 0))
hIsland = hIsland.add(rect(8.182760017501951e-09, 8.932287377192198e-10).transl(1.358585857900898e-07, 1.883837635880014e-08, 0))
hIsland = hIsland.add(rect(4.785685370182089e-09, 2.61638840610015e-10).transl(1.1351011599110603e-07, 2.8724864427012086e-08, 0))
hIsland = hIsland.sub(rect(7.58283605856043e-09, -4.116436649735721e-13).transl(1.1832274650839685e-07, 2.70782660884528e-08, 0))
hIsland = hIsland.add(rect(5.769925018625305e-09, 1.8134300581156736e-10).transl(7.722575725200273e-08, 3.6772163161184416e-08, 0))
hIsland = hIsland.add(rect(4.086168318574153e-09, 1.5819032610897814e-09).transl(1.1016032689206013e-07, 2.976635310129368e-08, 0))
hIsland = hIsland.sub(rect(6.3554157900974055e-09, -1.7757349478177999e-09).transl(-1.36757018765864e-08, 4e-08, 0))
hIsland = hIsland.add(rect(8.193908049342903e-09, 7.19783186116996e-10).transl(-5.487874973329126e-08, 3.9130902553279436e-08, 0))
hIsland = hIsland.add(rect(9.268260862411407e-09, 3.838259717095457e-09).transl(4.162722388630965e-08, 3.981179008046295e-08, 0))
hIsland = hIsland.sub(rect(4.288305550711977e-09, -1.1446046064506133e-09).transl(-2.7027650725687004e-08, 4e-08, 0))
hIsland = hIsland.add(rect(7.498958832254694e-09, 2.043610118577111e-09).transl(-8.574782314128244e-08, 3.54215568624034e-08, 0))
hIsland = hIsland.add(rect(3.77602474921905e-09, 7.401532676718165e-10).transl(-7.123594767958313e-08, 3.756416232256881e-08, 0))
hIsland = hIsland.sub(rect(2.219767961038721e-09, -3.2087584551054654e-09).transl(9.174368615704849e-08, 3.429887788857741e-08, 0))
hIsland = hIsland.add(rect(2.304874964299317e-09, 3.5003006837124277e-09).transl(1.0125495393466002e-07, 3.2184764407625954e-08, 0))
hIsland = hIsland.sub(rect(7.706985193072454e-09, -2.383801533946205e-10).transl(-5.860357707801191e-08, 3.88470439006085e-08, 0))
hIsland = hIsland.sub(rect(9.990729006044349e-09, -1.1238847588893594e-09).transl(-9.668396507072734e-08, 3.3255323387468554e-08, 0))
hIsland = hIsland.add(rect(2.209188523454479e-09, 7.529260023983792e-10).transl(1.2558765831621688e-07, 2.4182177959127433e-08, 0))
hIsland = hIsland.add(rect(7.291099360141136e-09, 1.7692644628570783e-11).transl(1.3135057360896397e-07, 2.1416663369997098e-08, 0))
hIsland = hIsland.sub(rect(5.356632025412421e-09, -3.070407043281152e-09).transl(2.872151574929392e-08, 4e-08, 0))
hIsland = hIsland.sub(rect(2.553643435043056e-09, -1.5498364187284003e-09).transl(8.013325065666372e-08, 3.6341982424059934e-08, 0))
hIsland = hIsland.sub(rect(6.4542956263546445e-09, -2.073855509856543e-09).transl(1.1025706211409628e-07, 2.9737376370886996e-08, 0))
hIsland = hIsland.add(rect(8.57751185392256e-09, 9.080316019315195e-10).transl(6.444197689542641e-08, 3.831702584656202e-08, 0))
hIsland = hIsland.add(rect(4.204629995322448e-09, 1.7894177308743994e-09).transl(-6.962882351580536e-09, 4e-08, 0))
hIsland = hIsland.add(rect(4.796205657704061e-09, 4.861004825481754e-10).transl(1.20383893145678e-07, 2.6311703901560745e-08, 0))
hIsland = hIsland.add(rect(9.937213827189922e-09, 2.7932531209783366e-09).transl(7.166043509905382e-08, 3.751208419719575e-08, 0))
hIsland = hIsland.sub(rect(5.129446642101263e-09, -1.0344389962458407e-09).transl(-9.723117678170872e-08, 3.313267750616306e-08, 0))
hIsland = hIsland.sub(rect(5.593946201915137e-09, -2.589917254360056e-10).transl(-8.99799430008752e-08, 3.464487526253865e-08, 0))
hIsland = hIsland.sub(rect(8.786916496521568e-09, -5.3394520945365656e-09).transl(-1.1306480987696384e-07, 2.8867970255599992e-08, 0))
hIsland = hIsland.sub(rect(8.119183440022987e-09, -6.04471010644513e-11).transl(-6.3252990981447e-09, 4e-08, 0))
hIsland = hIsland.add(rect(2.972237806333461e-09, 2.962840603842891e-10).transl(1.2346654557720996e-08, 4e-08, 0))
hIsland = hIsland.add(rect(2.637841939520394e-09, 2.899293636765851e-09).transl(-1.2162765182532806e-07, 2.5829297364247396e-08, 0))
hIsland = hIsland.sub(rect(4.627018330894918e-09, -8.503224857806197e-10).transl(-1.2940757436418667e-08, 4e-08, 0))
hIsland = hIsland.add(rect(4.507865557678035e-09, 1.2644049953183888e-09).transl(2.8138892175608872e-08, 4e-08, 0))
hIsland = hIsland.add(rect(4.702991785806933e-09, 3.840389374233491e-09).transl(-9.336128928281263e-08, 3.396950760186706e-08, 0))
hIsland = hIsland.sub(rect(9.550797549858456e-09, -1.4131510008758934e-09).transl(-3.9956679984447796e-08, 3.9862074043837284e-08, 0))
hIsland = hIsland.sub(rect(7.735304246014741e-09, -5.014346320537522e-10).transl(-3.0367980603100566e-08, 3.99998119304964e-08, 0))
hIsland = hIsland.add(rect(6.143797906926943e-09, 4.1710143254093956e-10).transl(-1.5511759926943133e-08, 4e-08, 0))
hIsland = hIsland.add(rect(7.929410341552081e-09, 2.6128811115918727e-09).transl(-8.077016790765732e-08, 3.624360487747119e-08, 0))
hIsland = hIsland.sub(rect(9.064422653545744e-09, -3.3212802672923948e-09).transl(1.8393348873874194e-08, 4e-08, 0))
hIsland = hIsland.add(rect(6.097915835983301e-09, 7.147849723578511e-10).transl(-1.0182538609280458e-08, 4e-08, 0))
hIsland = hIsland.add(rect(3.10177867906494e-09, 3.8892303046637335e-09).transl(-5.2801925605231224e-08, 3.927123938950956e-08, 0))
hIsland = hIsland.sub(rect(2.8202515154019654e-09, -5.298129613184999e-09).transl(7.78409560412326e-09, 4e-08, 0))
hIsland = hIsland.add(rect(7.566630203361634e-09, 7.214652366405086e-10).transl(2.147931481083026e-08, 4e-08, 0))
hIsland = hIsland.sub(rect(6.831953907581915e-09, -4.009269137079832e-09).transl(-4.536183772210879e-08, 3.967088764908874e-08, 0))
hIsland = hIsland.add(rect(8.88278627865199e-09, 1.6916560264734257e-09).transl(-7.47585115403987e-08, 3.71134531533423e-08, 0))
hIsland = hIsland.sub(rect(2.1741413765019264e-09, -1.3825237962206954e-09).transl(-1.1598580269761365e-07, 2.790149684245763e-08, 0))
hIsland = hIsland.sub(rect(4.784299517965196e-09, -1.2405823342956024e-09).transl(-6.412008549898942e-08, 3.834901094703407e-08, 0))
hIsland = hIsland.add(rect(3.7128727739346926e-09, 9.393377311087984e-10).transl(5.3585376444595895e-08, 3.921979378092805e-08, 0))
hIsland = hIsland.sub(rect(9.417708612585695e-09, -1.6514441985577574e-09).transl(-2.2492732681693117e-08, 4e-08, 0))
hIsland = hIsland.sub(rect(9.942777491456806e-09, -2.527695741076232e-09).transl(-2.4021023570815587e-09, 4e-08, 0))
hIsland = hIsland.add(rect(9.786331395478428e-09, 1.8661130766906563e-09).transl(-1.3203474163412954e-07, 2.1052610024667136e-08, 0))
hIsland = hIsland.sub(rect(5.681243225479793e-09, -1.5037038961489634e-09).transl(-4.084351054070613e-08, 3.9836357317786974e-08, 0))
hIsland = hIsland.sub(rect(6.415101134817743e-09, -7.71765686748661e-10).transl(5.7837449643738295e-08, 3.890883418301518e-08, 0))
hIsland = hIsland.add(rect(3.2946117571642653e-09, 3.388242109853762e-09).transl(-9.796280835147205e-08, 3.296640829184406e-08, 0))
hIsland = hIsland.sub(rect(8.79753381980528e-09, -2.3582466361889896e-09).transl(-1.0010025286715783e-07, 3.246528838272336e-08, 0))
hIsland = hIsland.sub(rect(9.451982029371471e-09, -1.8802404576833766e-09).transl(-4.5362631470917515e-08, 3.967085349653064e-08, 0))
hIsland = hIsland.sub(rect(5.268468054159963e-09, -1.8497407119863273e-09).transl(-1.2872212022095952e-08, 4e-08, 0))
hIsland = hIsland.sub(rect(2.028370710654277e-09, -1.4633157585006595e-09).transl(-3.7591917049336996e-09, 4e-08, 0))
hIsland = hIsland.add(rect(2.3341871735525006e-09, 1.4213535903135967e-09).transl(-4.141850146153323e-08, 3.9818501875346794e-08, 0))
hIsland = hIsland.add(rect(8.667799670916493e-09, 2.312666100220721e-09).transl(-1.491570932139422e-07, 4.732712832613925e-09, 0))
hIsland = hIsland.sub(rect(4.5484078032700995e-09, -1.1492749106481833e-09).transl(7.070569770964019e-08, 3.7628367215840696e-08, 0))
hIsland = hIsland.add(rect(9.812764602794488e-09, 9.511371043597208e-10).transl(8.464152459575974e-08, 3.561258171840549e-08, 0))
hIsland = hIsland.add(rect(8.142037739833182e-09, 1.0832137731222448e-09).transl(-1.3209334165561823e-07, 2.1021020140139116e-08, 0))
hIsland = hIsland.sub(rect(5.8518325715376395e-09, -1.0294489562506332e-09).transl(-1.4279977553207403e-07, 1.3647183836128227e-08, 0))
hIsland = hIsland.add(rect(8.492233042666944e-09, 4.172694918425279e-10).transl(1.2788399058020746e-07, 2.3139010802091734e-08, 0))
hIsland = hIsland.add(rect(8.435111491458614e-09, 1.6272114938002187e-09).transl(1.6039293921665688e-08, 4e-08, 0))
hIsland = hIsland.sub(rect(8.264990934092426e-09, -3.2982405283858117e-10).transl(-1.4415998461257553e-07, 1.2326565319830906e-08, 0))
hIsland = hIsland.sub(rect(5.441154157320485e-09, -7.807051030411847e-10).transl(-1.4282699975499412e-07, 1.3622155671660461e-08, 0))
hIsland = hIsland.add(rect(8.198607617002653e-09, 3.36751205394281e-09).transl(1.5049663080349427e-08, 4e-08, 0))
hIsland = hIsland.sub(rect(3.546135838293016e-09, -4.359748741527014e-11).transl(2.812075379948075e-08, 4e-08, 0))
hIsland = hIsland.sub(rect(4.105410219752621e-09, -2.960305605243886e-10).transl(1.1320745025686786e-07, 2.882229118379435e-08, 0))
hIsland = hIsland.sub(rect(9.257669124978361e-09, -7.000529037803659e-10).transl(1.071563781095053e-07, 3.063566062436798e-08, 0))
hIsland = hIsland.add(rect(6.860068003130829e-09, 6.884533886054155e-10).transl(-8.045109788947534e-08, 3.629307666108507e-08, 0))
hIsland = hIsland.sub(rect(5.193066416761334e-09, -2.0776767359521993e-09).transl(-5.655392779936926e-09, 4e-08, 0))
hIsland = hIsland.sub(rect(5.059940250616621e-09, -4.390778591798313e-09).transl(1.3056248555084142e-07, 2.182553677547069e-08, 0))
hIsland = hIsland.add(rect(5.7638999608342685e-09, 8.995330433821332e-10).transl(1.3633406908788096e-07, 1.8538445791303132e-08, 0))
hIsland = hIsland.sub(rect(2.598265846153589e-09, -9.547463456973583e-10).transl(-1.3055777334302457e-08, 4e-08, 0))
hIsland = hIsland.add(rect(6.8870909399758696e-09, 1.5868542021096835e-09).transl(-1.1657287465365265e-07, 2.7699052078050432e-08, 0))
hIsland = hIsland.sub(rect(6.858921840706342e-09, -5.469794436817433e-10).transl(1.2450959157528108e-07, 2.46485002930617e-08, 0))
hIsland = hIsland.add(rect(8.490423840967307e-09, 9.55692687130592e-10).transl(-7.784483064219648e-08, 3.6683135969209395e-08, 0))
vIsland = hIsland.rotz(pi / 2)
vIslands = vIslands.add(vIsland.transl(0, -a/2, 0))
DefRegion(1, hIslands)
DefRegion(2, vIslands)
TableAdd(m_full.Region(1))
TableAdd(m_full.Region(2))
setgeom(hIslands.add(vIslands))
save(m)
r2o2 := sqrt(2) / 2
m = RandomMagSeed(4)
B_ext = vector(Bmax*r2o2, Bmax*r2o2, 0)
relax()
minimize()
for B := Bmax; B >= -Bmax; B -= Bstep {
	B_ext = vector(B*r2o2, B*r2o2, 0)
	minimize()
	tablesave()
}
//********************************************************************//
//Please cite the following references, relevant for your simulation. //
//See bibtex file in output folder for justification.                 //
//********************************************************************//
//   * Vansteenkiste et al., AIP Adv. 4, 107133 (2014).
//   * Exl et al., J. Appl. Phys. 115, 17D118 (2014).
