# t (s)	mx ()	my ()	mz ()	B_extx (T)	B_exty (T)	B_extz (T)	m_fullx (A/m)	m_fully (A/m)	m_fullz (A/m)	m_full.region1x (A/m)	m_full.region1y (A/m)	m_full.region1z (A/m)	m_full.region2x (A/m)	m_full.region2y (A/m)	m_full.region2z (A/m)
0	0.6482733	0.64827645	-1.9571675e-10	0.07071066	0.07071066	0	162154.73	162155.58	-5.8333335e-05	636505.9	271079.78	-1.8656716e-05	271076.72	636507.4	-0.0002300995
0	0.6480476	0.64804775	-6.523891e-11	0.0703572	0.0703572	0	162098.33	162098.34	-4.5833335e-06	636702.44	270564.62	8.7064676e-05	270564.38	636702.2	-8.628731e-05
0	0.64781296	0.6478129	-2.4909405e-10	0.07000352	0.07000352	0	162039.64	162039.61	-5.9583333e-05	636904.9	270033.53	-0.00012437812	270033.38	636904.56	-0.00015547263
0	0.64758223	0.6475821	-1.6606269e-10	0.06965008	0.06965008	0	161981.9	161981.88	-4.4444445e-05	637105.06	269510.2	-6.218906e-05	269510.06	637104.75	-0.00016791045
0	0.64734733	0.6473472	-4.7446484e-11	0.06929639	0.06929639	0	161923.14	161923.11	-8.888889e-06	637306.5	268979.9	1.8656716e-05	268979.78	637306.2	-7.151741e-05
0	0.64711183	0.6471117	-1.9571675e-10	0.068942994	0.068942994	0	161864.23	161864.2	-4.8333335e-05	637509.06	268447.56	-8.084577e-05	268447.44	637508.75	-0.00014614427
0	0.6468748	0.6468748	-2.4279256e-10	0.06858931	0.06858931	0	161804.97	161804.94	-4.8888887e-05	637711.2	267913.72	-0.0001181592	267913.6	637710.9	-0.00020366916
0	0.6466365	0.6466364	-2.0757837e-10	0.06823585	0.068235844	0	161745.36	161745.33	-5.3333333e-05	637914.25	267377	-0.00015547263	267376.9	637913.9	-0.00016013681
0	0.6463945	0.6463944	4.1515673e-11	0.06788218	0.06788218	0	161684.81	161684.78	3.888889e-06	638117.94	266834.5	2.4875622e-05	266834.34	638117.56	-5.674751e-05
0	0.6461557	0.64615554	-3.6326214e-10	0.06752872	0.06752872	0	161625.08	161625.06	-7.555555e-05	638320.44	266297.66	-0.00026119404	266297.53	638320.2	-0.00023165422
0	0.64591104	0.64591086	-2.8393754e-10	0.067175046	0.067175046	0	161563.86	161563.84	-7.555555e-05	638525.4	265750.25	-0.0002363184	265750.12	638525.06	-0.00016946517
0	0.64567	0.6456698	-2.6688646e-10	0.066821575	0.066821575	0	161503.6	161503.55	-5.638889e-05	638728.5	265209.62	-0.00017412935	265209.53	638728.1	-0.0001414801
0	0.64542454	0.64542437	-2.6095565e-10	0.06646812	0.06646812	0	161442.2	161442.17	-7.555555e-05	638932.8	264661.72	-0.00024875623	264661.6	638932.5	-0.00015314054
0	0.64517903	0.6451788	-3.914335e-10	0.066114426	0.066114426	0	161380.78	161380.72	-0.0001	639137.44	264113.28	-0.0003358209	264113.2	639137.06	-0.0002363184
0	0.6449318	0.6449316	-2.4316324e-10	0.06576098	0.06576098	0	161318.94	161318.89	-5.777778e-05	639341.94	263562.56	-0.00021144279	263562.5	639341.7	-0.00015780472
0	0.6446809	0.6446807	-2.6688646e-10	0.06540731	0.06540731	0	161256.19	161256.14	-6.666667e-05	639548	263005.34	-6.840796e-05	263005.28	639547.7	-0.0002720771
0	0.6444325	0.64443237	-1.4827026e-10	0.0650539	0.0650539	0	161194.06	161194	-3.361111e-05	639752.9	262452.72	-8.084577e-05	262452.66	639752.6	-0.000114272385
0	0.64418054	0.6441804	-3.2026376e-10	0.06470023	0.06470023	0	161131.03	161130.98	-7.444445e-05	639959.2	261893.66	-0.00026741292	261893.55	639958.9	-0.00018889926
0	0.6439279	0.6439277	-1.7792431e-10	0.06434677	0.06434677	0	161067.83	161067.75	-5.798611e-05	640165.25	261333.8	-0.0002300995	261333.69	640164.94	-4.7419155e-05
0	0.64367074	0.6436706	-4.0329512e-10	0.063993104	0.063993104	0	161003.52	161003.45	-9.555556e-05	640372.94	260766.2	-0.00027363183	260766.14	640372.56	-0.00027985073
0	0.6434179	0.6434178	-4.1404472e-10	0.06363963	0.06363963	0	160940.27	160940.23	-7.541667e-05	640578.3	260206.9	-0.00021144279	260206.81	640577.94	-0.00027674128
0	0.6431584	0.64315826	-4.0922593e-10	0.06328596	0.06328596	0	160875.36	160875.3	-9.3333336e-05	640786.3	259635.5	-0.00025497514	259635.4	640786	-0.00028140546
0	0.6429019	0.6429018	-1.719935e-10	0.0629325	0.0629325	0	160811.2	160811.14	-4.4444445e-05	640993.25	259069.48	-9.950249e-05	259069.4	640992.94	-0.00018656717
0	0.64264053	0.6426403	-1.4715823e-10	0.06257903	0.06257903	0	160745.81	160745.75	-3.3333334e-05	641202.1	258494.6	-0.00013681591	258494.52	641201.9	-6.218906e-05
0	0.6423808	0.64238054	-2.861616e-10	0.062225346	0.062225346	0	160680.84	160680.78	-8.222222e-05	641408.94	257924.2	-0.00017412935	257924.1	641408.56	-0.00027363183
0	0.642116	0.6421158	-1.8978594e-10	0.061871886	0.061871886	0	160614.61	160614.58	-4.2222222e-05	641617.6	257344.88	-0.00016169154	257344.86	641617.25	-0.00012049129
0	0.6418533	0.64185315	-2.846789e-10	0.061518233	0.06151823	0	160548.89	160548.84	-8.243055e-05	641825.75	256768.92	-0.00029850745	256768.86	641825.4	-0.00012360075
0	0.64158756	0.6415874	-3.8550267e-11	0.061164822	0.061164822	0	160482.44	160482.39	-1.7083334e-05	642035.1	256187.62	-5.5970148e-05	256187.58	642034.75	1.943408e-05
0	0.64132065	0.6413204	-1.5790783e-10	0.060811155	0.060811155	0	160415.67	160415.61	-4.4444445e-05	642244.2	255604.73	-2.4875622e-05	255604.69	642243.8	-0.00016868781
0	0.64104986	0.64104956	2.3723242e-11	0.060457677	0.060457677	0	160347.95	160347.88	-8.888889e-06	642455.56	255014.34	-3.6147387e-05	255014.31	642455.1	-4.0422885e-05
0	0.6407816	0.64078134	-1.719935e-10	0.060104027	0.060104027	0	160280.83	160280.8	-3.972222e-05	642663.75	254430.61	-6.840796e-05	254430.53	642663.3	-0.00013681591
0	0.64050955	0.64050937	-3.7957187e-10	0.059750546	0.059750546	0	160212.81	160212.75	-0.0001	642874.25	253839.31	-0.00027363183	253839.27	642873.75	-0.00026119404
0	0.6402369	0.6402366	-3.3212538e-10	0.059396885	0.059396885	0	160144.6	160144.53	-7.4027776e-05	643084.2	253247.58	-0.00021144279	253247.48	643083.7	-0.00022699004
0	0.6399615	0.6399612	-1.1861621e-10	0.059043407	0.059043407	0	160075.7	160075.62	-4e-05	643295.4	252650.67	-1.2437811e-05	252650.62	643295	-0.00013837064
0	0.63968587	0.6396856	-3.4991782e-10	0.058689922	0.058689922	0	160006.72	160006.69	-9.555556e-05	643506.06	252054.11	-0.00025497514	252054.08	643505.6	-0.0002300995
0	0.6394057	0.6394055	1.6976945e-10	0.05833626	0.05833626	0	159936.67	159936.62	4.2222222e-05	643718.5	251449.52	0.00016791045	251449.47	643718.2	8.9396766e-05
0	0.639129	0.6391287	3.4472834e-11	0.057982802	0.057982802	0	159867.47	159867.39	5.5555556e-06	643928.94	250851.66	-3.731343e-05	250851.62	643928.56	1.2437811e-05
0	0.6388472	0.63884676	-2.6095565e-10	0.05762915	0.05762915	0	159796.95	159796.89	-5.111111e-05	644141.25	250244.77	-0.00019900498	250244.72	644140.8	-0.00012593284
0	0.6385649	0.6385646	-1.3640863e-10	0.057275664	0.057275664	0	159726.36	159726.28	-4.5e-05	644353.5	249637.34	-0.00013059702	249637.3	644353.1	-0.00010494403
0	0.63828117	0.63828087	-1.3047782e-10	0.056922078	0.056922078	0	159655.38	159655.33	-1.7777778e-05	644565.6	249027.98	-9.950249e-05	249027.94	644565.25	-7.38495e-05
0	0.637994	0.6379937	-2.9654051e-10	0.056568593	0.056568593	0	159583.58	159583.52	-7.555555e-05	644779.25	248412.42	-0.00019900498	248412.36	644778.9	-0.00022388059
0	0.6377088	0.63770854	-4.2701834e-10	0.05621495	0.05621495	0	159512.22	159512.17	-9.7777774e-05	644991.3	247801.02	-0.00029228855	247801.02	644990.9	-0.00027596392
0	0.6374193	0.637419	-1.3047782e-10	0.055861462	0.05586146	0	159439.8	159439.73	-2.888889e-05	645205.4	247181.67	-1.8656716e-05	247181.66	645204.94	-0.00011116293
0	0.63712764	0.63712734	-4.1515674e-10	0.055507813	0.055507813	0	159366.84	159366.78	-0.00010222222	645419	246559.6	-0.00029228855	246559.6	645418.6	-0.00029228855
0	0.63683605	0.6368357	-2.1350917e-10	0.055154327	0.055154327	0	159293.9	159293.84	-4.4444445e-05	645633.8	245936.61	-0.00025497514	245936.58	645633.4	-4.2754975e-05
0	0.6365432	0.63654286	-2.9654051e-10	0.05480083	0.05480083	0	159220.67	159220.61	-8.4444444e-05	645847	245313.47	-0.00029228855	245313.47	645846.56	-0.00015547263
0	0.6362471	0.6362468	-8.599675e-11	0.05444718	0.05444718	0	159146.58	159146.53	-2.6666667e-05	646061.5	244684.36	0	244684.34	646061.2	-0.00015547263
0	0.63594806	0.63594764	-2.2166403e-10	0.054093707	0.054093707	0	159071.8	159071.73	-5.972222e-05	646277.06	244050.16	-0.00013681591	244050.16	646276.7	-0.0001710199
0	0.6356517	0.63565147	-1.6013188e-10	0.053740066	0.053740066	0	158997.69	158997.62	-4e-05	646491.56	243421	-0.000111940295	243420.97	646491.06	-6.218906e-05
0	0.6353501	0.6353497	-2.2537079e-10	0.05338656	0.05338656	0	158922.23	158922.16	-5.5555556e-05	646708.06	242782.05	-0.00017412935	242782.05	646707.7	-0.00016169154
0	0.6350485	0.6350481	-9.489297e-11	0.053032998	0.053032998	0	158846.81	158846.72	-2.6666667e-05	646923.2	242144.69	-6.218906e-05	242144.69	646922.75	-0.0001181592
0	0.6347452	0.6347449	-1.2899512e-10	0.05267951	0.052679505	0	158770.94	158770.86	-3.5555557e-05	647138.25	241505	-3.731343e-05	241505	647137.8	-0.00018734453
0	0.6344398	0.63443947	-1.705108e-10	0.05232586	0.05232586	0	158694.55	158694.44	-5.111111e-05	647354.25	240861.48	-0.00017412935	240861.52	647353.75	-0.00012593284
0	0.63413084	0.6341306	-2.5057675e-10	0.051972378	0.051972378	0	158617.27	158617.2	-6e-05	647571.3	240211.94	-0.00027363183	240211.94	647570.9	-6.3743784e-05
0	0.63382304	0.6338226	-2.7281727e-10	0.051618747	0.051618747	0	158540.25	158540.17	-6.888889e-05	647787.4	239564.75	-0.00020522389	239564.8	647786.94	-0.00016169154
0	0.6335121	0.6335117	-2.1647457e-10	0.051265243	0.051265243	0	158462.48	158462.4	-5.777778e-05	648004.56	238912.38	-0.00015547263	238912.39	648004.1	-0.0001857898
0	0.63319737	0.63319695	1.1861621e-10	0.050911736	0.050911732	0	158383.77	158383.66	2.6666667e-05	648223.7	238252.58	5.5970148e-05	238252.61	648223.25	8.628731e-05
0	0.6328851	0.63288474	-2.7281727e-10	0.050558098	0.050558098	0	158305.67	158305.56	-6.888889e-05	648439.06	237600.06	-0.00013681591	237600.12	648438.56	-0.00024409204
0	0.63256764	0.63256717	-1.3714999e-10	0.05020461	0.050204612	0	158226.23	158226.17	-2.888889e-05	648657.1	236937.42	-6.218906e-05	236937.5	648656.7	-0.00010261194
0	0.6322487	0.6322484	-1.3640863e-10	0.049850978	0.04985098	0	158146.5	158146.39	-3.3333334e-05	648876.7	236271.47	-6.840796e-05	236271.5	648876.2	-0.00013759328
0	0.63193053	0.6319302	-1.8607918e-10	0.04949747	0.04949747	0	158066.89	158066.81	-3.3333334e-05	649093.25	235609.52	-0.00012437812	235609.56	649092.75	-0.00011116293
0	0.6316085	0.6316082	8.896215e-12	0.049143925	0.049143925	0	157986.34	157986.25	6.6666666e-06	649312.1	234939.83	2.9151119e-05	234939.89	649311.6	-4.664179e-06
0	0.63128364	0.63128316	-3.0469538e-10	0.048790425	0.04879042	0	157905.08	157905	-7.611111e-05	649531.25	234265.8	-0.00022388059	234265.88	649530.75	-0.00021144279
0	0.6309592	0.63095874	-2.3723242e-11	0.048436783	0.048436783	0	157823.94	157823.83	-1.7777778e-05	649749.75	233593	1.8656716e-05	233593.08	649749.2	-2.4875622e-05
0	0.6306319	0.63063145	-4.173808e-10	0.04808329	0.04808329	0	157742.03	157741.95	-0.00010222222	649969.1	232915.38	-0.00027363183	232915.45	649968.7	-0.00033426617
0	0.630302	0.6303016	-3.1729835e-10	0.04772967	0.04772967	0	157659.53	157659.42	-7.3333336e-05	650188.9	232233.84	-0.00018034826	232233.92	650188.3	-0.00019278607
0	0.6299691	0.6299688	-2.906097e-10	0.047376156	0.047376156	0	157576.28	157576.17	-7.555555e-05	650409.3	231547.47	-0.00022388059	231547.55	650408.8	-0.0002176617
0	0.62963617	0.6296358	-4.1515673e-11	0.047022633	0.047022633	0	157493	157492.9	-1.3333333e-05	650630.3	230860.39	-2.4875622e-05	230860.44	650629.8	-9.328358e-06
0	0.62930244	0.629302	-6.894567e-11	0.046669018	0.046669018	0	157409.52	157409.39	-1.1111111e-05	650849.25	230174.06	0	230174.14	650848.8	-2.7985074e-05
0	0.6289641	0.62896365	-7.116972e-11	0.04631552	0.046315517	0	157324.89	157324.78	-3.111111e-05	651070.1	229479.52	-0.00013681591	229479.62	651069.56	4.5087065e-05
0	0.6286262	0.62862575	-2.9876457e-10	0.045961898	0.045961898	0	157240.36	157240.27	-6.888889e-05	651290.2	228786.39	-0.00018034826	228786.47	651289.75	-0.00022854477
0	0.6282852	0.6282848	-2.7281727e-10	0.045608375	0.045608375	0	157155.1	157154.97	-7.3333336e-05	651511.56	228087.67	-0.00016169154	228087.8	651511.06	-0.0002005597
0	0.62794214	0.62794167	-3.3212538e-10	0.045254853	0.045254853	0	157069.25	157069.14	-8e-05	651732.9	227386.03	-0.00022388059	227386.16	651732.3	-0.00021144279
0	0.62759686	0.6275964	-2.5502483e-10	0.044901323	0.044901323	0	156982.89	156982.77	-6.4444444e-05	651954	226681.5	-0.0002176617	226681.62	651953.5	-0.00013137439
0	0.62724996	0.6272495	-2.4909405e-10	0.044547718	0.044547718	0	156896.14	156896	-7.111111e-05	652175.9	225973.97	-0.00019900498	225974.11	652175.25	-0.00014925373
0	0.6269007	0.6269002	-3.558486e-11	0.044194207	0.044194207	0	156808.75	156808.64	-1.3333333e-05	652398.06	225262.78	-3.109453e-05	225262.9	652397.56	7.773632e-06
0	0.6265496	0.6265492	-1.4975296e-10	0.043840602	0.043840602	0	156720.95	156720.83	-2.6666667e-05	652620.06	224549.31	-4.3532338e-05	224549.47	652619.5	-0.00014458955
0	0.6261944	0.62619394	-1.5568377e-10	0.043487065	0.043487065	0	156632.1	156631.97	-3.8888888e-05	652844.25	223827.83	-0.00018034826	223827.95	652843.7	-5.5192788e-05
0	0.62584084	0.62584037	-1.3640863e-10	0.043133542	0.043133542	0	156543.66	156543.55	-3.7777776e-05	653065.06	223112.05	-9.950249e-05	223112.2	653064.5	-8.9396766e-05
0	0.6254817	0.6254812	-8.3031346e-11	0.042779934	0.042779934	0	156453.81	156453.69	-2.4444444e-05	653289.7	222384.58	-3.731343e-05	222384.67	653289.06	-3.498134e-05
0	0.6251231	0.62512255	-2.0609567e-10	0.042426396	0.042426396	0	156364.12	156364	-4.8888887e-05	653511.4	221660.84	-0.00019278607	221661	653510.75	-0.00013370646
0	0.6247596	0.6247591	-1.5420107e-10	0.042072818	0.042072818	0	156273.22	156273.06	-3.527778e-05	653736.44	220926.88	-8.7064676e-05	220927.03	653735.9	-0.000105721396
0	0.62439734	0.62439674	-9.489297e-11	0.041719276	0.041719276	0	156182.6	156182.45	-3.111111e-05	653958.44	220197.7	-8.7064676e-05	220197.88	653957.9	-9.950249e-05
0	0.6240314	0.6240308	-2.1350917e-10	0.04136578	0.04136578	0	156091.06	156090.92	-5.111111e-05	654181.7	219462.12	-8.7064676e-05	219462.25	654181.06	-0.00021571829
0	0.62366205	0.6236616	-4.7446484e-11	0.04101223	0.04101223	0	155998.67	155998.56	-8.888889e-06	654406.1	218720.69	-6.218906e-05	218720.88	654405.5	3.5758705e-05
0	0.6232925	0.623292	2.9654054e-11	0.040658645	0.040658645	0	155906.23	155906.11	6.6666666e-06	654629.75	217979.62	4.3532338e-05	217979.83	654629.2	3.2649255e-05
0	0.6229194	0.6229188	-2.7133457e-10	0.040305123	0.040305123	0	155812.9	155812.75	-5.5555556e-05	654854.75	217232.25	-0.00017685012	217232.44	654854.1	-0.00022271455
0	0.62254274	0.62254214	3.4917647e-10	0.039951537	0.039951537	0	155718.69	155718.53	8e-05	655080.7	216478.89	0.00018034826	216479.08	655080.2	0.00027168842
0	0.62216663	0.6221661	-1.12685396e-10	0.03959798	0.03959798	0	155624.62	155624.48	-1.7777778e-05	655303.7	215729.42	-6.218906e-05	215729.62	655303.1	-8.9008085e-05
0	0.62178755	0.6217869	-1.705108e-10	0.039244432	0.039244432	0	155529.78	155529.64	-4e-05	655528.94	214973.34	-0.00016791045	214973.55	655528.44	-8.395522e-05
0	0.6214056	0.62140495	-1.6606269e-10	0.03889085	0.03889085	0	155434.27	155434.1	-3.3333334e-05	655754.06	214213.52	-0.000105721396	214213.72	655753.44	-7.423818e-05
0	0.62102133	0.6210207	-3.6771025e-10	0.038537286	0.038537286	0	155338.12	155337.98	-9.3333336e-05	655979.3	213450.3	-0.00029228855	213450.52	655978.6	-0.00024992228
0	0.62063366	0.62063307	-3.625208e-10	0.038183734	0.038183734	0	155241.17	155241.02	-8.4444444e-05	656206.44	212680.45	-0.00029228855	212680.7	656205.9	-0.00016402363
0	0.62024504	0.6202445	-5.9308105e-12	0.037830178	0.037830178	0	155143.97	155143.81	-1.3333333e-05	656431	211911.86	-5.5970148e-05	211912.1	656430.44	3.3815297e-05
0	0.61985326	0.6198526	-1.5420107e-10	0.037476595	0.037476595	0	155045.95	155045.78	-4.8888887e-05	656658.4	211135.83	-4.9751245e-05	211136.08	656657.75	-0.00016868781
0	0.61946106	0.61946034	-2.1350917e-10	0.037123147	0.037123147	0	154947.86	154947.69	-5.111111e-05	656882.6	210362.62	-0.0002176617	210362.88	656881.94	-0.00013215175
0	0.6190637	0.61906296	-1.6606269e-10	0.036769584	0.036769584	0	154848.45	154848.3	-4.0555555e-05	657110.6	209578.25	-0.00013059702	209578.5	657110	-7.074005e-05
0	0.6186667	0.61866605	-1.9868215e-10	0.03641604	0.03641604	0	154749.16	154749.02	-5.111111e-05	657335.5	208797.62	-0.00014303482	208797.88	657334.8	-0.00014225746
0	0.61826396	0.6182632	-2.313016e-10	0.036062464	0.036062464	0	154648.4	154648.25	-5.9444443e-05	657562.44	208006.75	-0.00014925373	208007.02	657561.8	-0.00018501244
0	0.6178618	0.6178612	-2.0757837e-10	0.0357089	0.0357089	0	154547.83	154547.67	-6.666667e-05	657789.25	207217.08	-0.00020522389	207217.36	657788.44	-0.00012360075
0	0.6174549	0.6174541	-2.1128513e-10	0.03535533	0.035355333	0	154446.05	154445.84	-4.8888887e-05	658017.6	206418.84	-0.000111940295	206419.12	658017	-0.00014925373
0	0.6170466	0.61704594	-2.1647457e-10	0.03500176	0.03500176	0	154343.92	154343.75	-4.1666666e-05	658244.75	205620.25	-0.00012437812	205620.55	658244	-0.00013992537
0	0.61663735	0.61663663	-8.3031346e-11	0.034648195	0.034648195	0	154241.56	154241.38	-1.5555555e-05	658470.1	204821.86	-6.2189056e-06	204822.16	658469.4	-9.950249e-05
0	0.61622214	0.61622155	-1.6606269e-10	0.034294654	0.034294654	0	154137.7	154137.55	-4.2222222e-05	658698.4	204012.4	-0.00016169154	204012.72	658697.7	-9.328358e-05
0	0.6158064	0.61580575	-2.846789e-10	0.03394109	0.03394109	0	154033.72	154033.52	-6.611111e-05	658925.8	203202.86	-0.00021144279	203203.19	658925.1	-0.00015003109
0	0.6153869	0.6153862	-2.1202647e-10	0.033587523	0.033587523	0	153928.77	153928.6	-3.5555557e-05	659154.1	202387.2	-0.00016169154	202387.53	659153.44	-0.000108053486
0	0.6149676	0.61496687	-1.3047782e-10	0.03323406	0.03323406	0	153823.89	153823.72	-3.5555557e-05	659381.25	201573.03	-0.00012437812	201573.36	659380.6	-0.00010183458
0	0.6145437	0.61454296	-1.3196053e-10	0.03288049	0.032880493	0	153717.88	153717.67	-4.2222222e-05	659609.25	200751.56	-6.840796e-05	200751.9	659608.5	-0.00014925373
0	0.61411715	0.6141163	-2.906097e-10	0.03252695	0.03252695	0	153611.16	153610.98	-6.1666666e-05	659837.8	199925.86	-0.00014303482	199926.2	659837	-0.0002495336
0	0.61368614	0.6136853	-2.1350917e-10	0.032173384	0.032173384	0	153503.33	153503.16	-4.6666668e-05	660067.9	199092.33	-0.00012437812	199092.69	660067.1	-0.00016091418
0	0.6132547	0.613254	-8.006594e-11	0.031819817	0.031819817	0	153395.45	153395.27	-1.6388889e-05	660296.06	198260.16	-5.5970148e-05	198260.53	660295.4	-8.550995e-05
0	0.61282164	0.61282086	-1.4233945e-10	0.031466246	0.031466246	0	153287.12	153286.92	-3.111111e-05	660522.94	197427	-0.00014303482	197427.38	660522.25	-6.918532e-05
0	0.6123839	0.6123831	-1.9719945e-10	0.031112673	0.031112673	0	153177.62	153177.42	-4.8888887e-05	660752	196585.08	-0.00018656717	196585.45	660751.25	-9.483831e-05
0	0.61194384	0.611943	-2.3723243e-10	0.030759117	0.030759117	0	153067.53	153067.34	-5.3333333e-05	660980.8	195740.14	-0.0001181592	195740.53	660980.1	-0.00017879353
0	0.61150086	0.61150014	-1.6606269e-10	0.030405577	0.030405577	0	152956.75	152956.55	-3.1666666e-05	661209.8	194890.97	-7.462686e-05	194891.38	661209.2	-0.00016791045
0	0.61105436	0.6110535	-2.3723243e-10	0.030052014	0.030052014	0	152845.06	152844.84	-6e-05	661439.4	194036.31	-0.00016791045	194036.73	661438.56	-0.00018501244
0	0.6106051	0.6106042	-1.6606269e-10	0.029698443	0.029698443	0	152732.7	152732.48	-3.25e-05	661668.94	193177.8	-7.462686e-05	193178.22	661668.2	-0.000103389306
0	0.6101553	0.61015445	-2.5502483e-10	0.029344961	0.029344961	0	152620.16	152619.97	-7.111111e-05	661897.6	192319.28	-0.00026119404	192319.72	661896.9	-0.00014303482
0	0.60969985	0.60969895	-5.070843e-10	0.028991401	0.028991401	0	152506.25	152506.03	-0.00012444444	662127.44	191451.86	-0.0003358209	191452.28	662126.7	-0.00039179105
0	0.60924214	0.6092413	-1.3640863e-10	0.028637832	0.028637832	0	152391.77	152391.55	-2.388889e-05	662358.44	190580.03	-0.00016791045	190580.48	662357.75	2.3320895e-06
0	0.60878205	0.60878116	-6.6128536e-10	0.028284296	0.028284296	0	152276.67	152276.45	-0.00016	662588.1	189706.28	-0.0004788557	189706.73	662587.3	-0.0004438744
0	0.6083184	0.6083175	-9.489297e-11	0.027930731	0.027930731	0	152160.7	152160.47	-3.3333334e-05	662818.06	188827.23	-0.000105721396	188827.69	662817.2	-0.000108053486
0	0.6078526	0.6078517	-3.5584863e-10	0.027577164	0.027577164	0	152044.2	152043.97	-9.277778e-05	663047.9	187945.33	-0.00022388059	187945.81	663047.06	-0.00026585822
0	0.60738516	0.6073842	-1.5568377e-10	0.02722359	0.02722359	0	151927.25	151927.03	-3.4166667e-05	663276.06	187062.61	-0.000105721396	187063.11	663275.2	-0.00011271766
0	0.60691136	0.6069104	-2.1350917e-10	0.026870033	0.026870033	0	151808.78	151808.53	-5.111111e-05	663507.8	186167.62	-0.00020522389	186168.14	663506.94	-6.840796e-05
0	0.606436	0.6064351	-2.5502483e-10	0.026516499	0.026516499	0	151689.88	151689.64	-5.388889e-05	663737.94	185272.05	-0.00026119404	185272.55	663737.1	-8.006841e-05
0	0.6059586	0.60595757	-2.935751e-10	0.02616293	0.02616293	0	151570.42	151570.2	-7.111111e-05	663966.75	184374.66	-0.0002363184	184375.17	663966	-0.00018967662
0	0.60547626	0.60547537	-2.7874808e-10	0.025809374	0.025809374	0	151449.8	151449.58	-6.666667e-05	664197.3	183469.02	-0.00022388059	183469.55	664196.56	-0.00018656717
0	0.60499126	0.6049903	-2.298189e-10	0.025455868	0.025455868	0	151328.48	151328.25	-5.972222e-05	664428.94	182558.34	-0.0002300995	182558.89	664428.1	-0.000121268655
0	0.6045047	0.60450375	-1.5420107e-10	0.025102304	0.025102304	0	151206.8	151206.53	-4e-05	664657.7	181648.34	-8.7064676e-05	181648.89	664656.9	-0.00013681591
0	0.6040126	0.6040116	-1.4233945e-10	0.024748735	0.024748735	0	151083.67	151083.44	-4.4444445e-05	664888.6	180728.45	-9.950249e-05	180729.02	664887.75	-0.00013526119
0	0.6035197	0.60351866	2.9654054e-11	0.024395213	0.024395213	0	150960.39	150960.12	-2.5e-06	665118.44	179808.55	6.2189056e-06	179809.11	665117.56	1.2437811e-05
0	0.6030213	0.60302025	-1.8978594e-10	0.024041645	0.024041645	0	150835.73	150835.47	-4.6666668e-05	665349.4	178879.9	-0.00017412935	178880.5	665348.56	-5.2860698e-05
0	0.6025216	0.60252064	-2.8171349e-11	0.023688078	0.023688078	0	150710.77	150710.5	-2.2222223e-06	665579.5	177950.28	6.2189056e-06	177950.86	665578.7	-4.897388e-05
0	0.60201734	0.60201627	-2.313016e-10	0.023334509	0.023334509	0	150584.6	150584.33	-5.777778e-05	665810.44	177013.14	-0.00015547263	177013.75	665809.6	-0.0001624689
0	0.6015085	0.6015075	-1.4233945e-10	0.022980949	0.022980949	0	150457.34	150457.06	-4e-05	666041.44	176069.88	-5.5970148e-05	176070.48	666040.56	-0.00013059702
0	0.6009986	0.60099757	-4.566724e-10	0.022627426	0.022627426	0	150329.77	150329.52	-0.00011555556	666271.9	175125.61	-0.00041666668	175126.25	666270.9	-0.0002176617
0	0.6004849	0.60048383	1.12685396e-10	0.022273859	0.022273859	0	150201.27	150201.02	3e-05	666502.44	174175.67	-1.710199e-05	174176.31	666501.6	0.00018034826
0	0.5999664	0.5999653	-3.0247133e-10	0.021920301	0.021920301	0	150071.61	150071.33	-8e-05	666733.75	173218.62	-0.0002363184	173219.25	666732.8	-0.00021299752
0	0.599445	0.5994439	-9.489297e-11	0.021566771	0.021566771	0	149941.19	149940.89	-2.888889e-05	666964.44	172257.88	-6.218906e-05	172258.56	666963.6	-5.4415425e-05
0	0.59892046	0.59891933	-9.7858374e-11	0.021213198	0.021213198	0	149809.98	149809.69	-2.2222222e-05	667195.1	171292.9	-0.00013681591	171293.58	667194.2	1.5547264e-06
0	0.59839183	0.59839076	-2.4316324e-10	0.020859638	0.020859638	0	149677.77	149677.48	-6.388889e-05	667425.9	170322.08	-0.00024253731	170322.77	667424.94	-8.550995e-05
0	0.5978601	0.597859	-2.6985186e-10	0.020506116	0.020506116	0	149544.77	149544.48	-7.3333336e-05	667656.94	169346.61	-0.00020522389	169347.31	667656	-0.00020522389
0	0.5973239	0.59732276	-1.7644161e-10	0.020152561	0.020152561	0	149410.61	149410.31	-3.861111e-05	667887.6	168365.12	-0.00017412935	168365.83	667886.75	-6.763059e-05
0	0.59678495	0.5967838	-1.06754584e-10	0.01979899	0.01979899	0	149275.81	149275.52	-1.7777778e-05	668118.44	167379.81	-0.000111940295	167380.53	668117.5	-2.0988806e-05
0	0.596242	0.5962409	-2.4909405e-10	0.019445425	0.019445425	0	149140.02	149139.7	-6e-05	668349.3	166388.73	-0.00019900498	166389.48	668348.4	-0.00014536691
0	0.59569556	0.5956943	-1.6161458e-10	0.019091867	0.019091867	0	149003.33	149003	-4e-05	668580.06	165392.94	-9.950249e-05	165393.67	668579.1	-0.00010494403
0	0.59514576	0.59514457	-1.06754584e-10	0.018738298	0.018738298	0	148865.8	148865.5	-2.6666667e-05	668810.5	164392.89	-0.000111940295	164393.64	668809.5	-4.120025e-05
0	0.5945913	0.5945901	-1.4233945e-10	0.018384792	0.018384792	0	148727.1	148726.81	-4e-05	669041.25	163385.81	-0.00012437812	163386.58	669040.25	-3.8090795e-05
0	0.5940327	0.5940316	-2.1943998e-10	0.018031232	0.018031232	0	148587.39	148587.08	-6.222222e-05	669273.4	162371.7	-0.00024875623	162372.47	669272.4	-5.2860698e-05
0	0.59347206	0.59347075	-1.1861621e-10	0.017677665	0.017677665	0	148447.12	148446.83	-2.888889e-05	669502.44	161357.61	-0.000105721396	161358.44	669501.5	-2.4875622e-05
0	0.5929052	0.592904	-2.3723243e-10	0.017324097	0.017324097	0	148305.36	148305.03	-5.3333333e-05	669733.4	160333.12	-0.0001181592	160333.92	669732.4	-0.00021144279
0	0.5923347	0.5923335	-1.8385513e-10	0.016970545	0.016970545	0	148162.66	148162.33	-4.777778e-05	669965.1	159302.62	-6.840796e-05	159303.45	669964.2	-0.00018190299
0	0.5917624	0.5917612	-2.9654054e-11	0.016617028	0.01661703	0	148019.5	148019.19	-6.6666666e-06	670194	158272.52	-0.00013681591	158273.34	670193.06	8.084577e-05
0	0.5911843	0.5911831	-1.1861621e-11	0.016263476	0.016263476	0	147874.94	147874.61	-4.4444446e-06	670424.3	157232.98	-8.7064676e-05	157233.83	670423.44	9.250622e-05
0	0.59060144	0.5906002	-2.7578267e-10	0.015909908	0.015909908	0	147729.11	147728.78	-6.3611114e-05	670656.2	156184.97	-0.0002300995	156185.83	670655.2	-0.00014458955
0	0.59001726	0.59001595	-1.141681e-10	0.015556336	0.015556336	0	147582.98	147582.66	-2.2777778e-05	670884.9	155138.42	-8.084577e-05	155139.31	670883.94	-6.918532e-05
0	0.5894268	0.5894255	-1.8385513e-10	0.015202789	0.015202789	0	147435.28	147434.95	-5.3333333e-05	671115	154081.61	-0.000111940295	154082.52	671114.06	-0.000147699
0	0.58883286	0.5888314	-2.9654051e-10	0.014849221	0.014849221	0	147286.7	147286.38	-7.722222e-05	671344.9	153020.19	-0.00026119404	153021.11	671343.9	-0.00022310323
0	0.5882342	0.5882328	-3.3212538e-10	0.014495701	0.014495701	0	147136.97	147136.64	-8.4444444e-05	671574.9	151952.05	-0.0002176617	151952.97	671573.8	-0.00026741292
0	0.58763057	0.5876292	-2.2537079e-10	0.014142148	0.014142148	0	146986	146985.66	-5.5555556e-05	671804.8	150877.05	-0.00019745025	150877.97	671803.8	-0.00010183458
0	0.587024	0.58702254	-1.719935e-10	0.013788582	0.013788582	0	146834.25	146833.9	-5.111111e-05	672034.44	149798.08	-8.7064676e-05	149799.03	672033.44	-0.00017879353
0	0.58641243	0.58641094	-1.3937404e-10	0.013435016	0.013435016	0	146681.28	146680.94	-3.111111e-05	672263.94	148712.44	-0.0002176617	148713.4	672262.94	3.1871892e-05
0	0.58579636	0.5857949	-1.8385513e-10	0.013081465	0.013081465	0	146527.19	146526.84	-4.8888887e-05	672493.4	147620.58	-0.00024875623	147621.56	672492.3	-6.763059e-05
0	0.5851756	0.58517414	-1.3047782e-10	0.012727934	0.012727934	0	146371.92	146371.56	-4.2222222e-05	672722.56	146522.25	-9.328358e-05	146523.25	672721.56	-7.929104e-05
0	0.58455056	0.58454907	-2.950578e-10	0.012374368	0.012374368	0	146215.58	146215.22	-6.666667e-05	672951.6	145418.17	-0.00024253731	145419.19	672950.56	-0.00017412935
0	0.58392143	0.58391994	-2.7281727e-10	0.012020823	0.012020823	0	146058.2	146057.86	-6.888889e-05	673180.7	144308.3	-0.00027363183	144309.31	673179.7	-0.00012437812
0	0.58328605	0.5832846	-2.3723242e-11	0.011667254	0.011667254	0	145899.28	145898.92	-6.6666666e-06	673409.5	143189.98	2.4875622e-05	143191.02	673408.5	-3.886816e-05
0	0.58264804	0.58264655	-2.5502483e-10	0.011313713	0.011313713	0	145739.69	145739.33	-5.6666668e-05	673638.25	142067.9	-0.0002363184	142068.97	673637.25	-0.00010183458
0	0.58200336	0.5820019	-4.0922593e-10	0.0109601505	0.0109601505	0	145578.44	145578.08	-9.555556e-05	673866.8	140936.83	-0.00039800996	140937.89	673865.9	-0.00019278607
0	0.5813562	0.58135474	-1.8830323e-10	0.010606599	0.010606599	0	145416.58	145416.2	-5.222222e-05	674094.56	139803.1	-0.00020522389	139804.16	674093.6	-9.017413e-05
0	0.5807031	0.58070153	-1.4085674e-10	0.010253058	0.010253058	0	145253.2	145252.81	-3.3333334e-05	674322.6	138660.62	-0.000111940295	138661.72	674321.5	-8.7064676e-05
0	0.5800443	0.58004296	-2.3723242e-11	0.009899495	0.009899495	0	145088.45	145088.08	-1.5555555e-05	674550.4	137510.69	-0.000111940295	137511.78	674549.4	4.5087065e-05
0	0.5793803	0.5793788	-2.6392105e-10	0.009545933	0.009545934	0	144922.33	144921.94	-6.5e-05	674778.8	136352.53	-0.00025497514	136353.66	674777.8	-0.000103389306
0	0.57871354	0.578712	-2.3426702e-10	0.009192396	0.009192396	0	144755.53	144755.16	-5.5555556e-05	675005.4	135192.4	-0.00019900498	135193.55	675004.4	-0.00014458955
0	0.57803917	0.57803756	-2.6985186e-10	0.008838832	0.008838832	0	144586.86	144586.48	-6.5555556e-05	675232.8	134020.77	-0.00017412935	134021.95	675231.8	-0.00018967662
0	0.57736045	0.5773589	-2.0757837e-10	0.0084852725	0.0084852725	0	144417.11	144416.7	-5.111111e-05	675461.2	132842.34	-0.00014925373	132843.52	675460.1	-0.00013370646
0	0.57667667	0.57667506	-4.7446484e-11	0.008131738	0.008131738	0	144246.06	144245.67	-8.888889e-06	675687.9	131658.3	-8.084577e-05	131659.47	675686.94	4.3532338e-05
0	0.5759892	0.5759876	-1.8978594e-10	0.007778168	0.007778168	0	144074.1	144073.7	-6.222222e-05	675912.9	130470.875	-0.0002300995	130472.07	675911.8	-3.886816e-05
0	0.5752953	0.57529366	-2.0757836e-11	0.0074246107	0.0074246107	0	143900.52	143900.11	-2.7777778e-06	676138.9	129273.23	-0.0002176617	129274.44	676137.9	0.00017490672
0	0.5745943	0.57459265	-1.5420107e-10	0.007071074	0.007071074	0	143725.2	143724.8	-4e-05	676366.1	128064.69	-0.00019900498	128065.92	676365.06	-4.0422885e-05