# t (s)	mx ()	my ()	mz ()	B_extx (T)	B_exty (T)	B_extz (T)	m_fullx (A/m)	m_fully (A/m)	m_fullz (A/m)	m_full.region1x (A/m)	m_full.region1y (A/m)	m_full.region1z (A/m)	m_full.region2x (A/m)	m_full.region2y (A/m)	m_full.region2z (A/m)
0	0.6650565	0.66505486	1.2546629e-10	0.070710704	0.070710704	0	101254.86	101254.61	1.8356553e-05	607323.06	323754.88	0.00012960407	323756.12	607321.8	5.541211e-05
0	0.66486675	0.66486615	-2.6350774e-10	0.07035722	0.07035722	0	101225.96	101225.875	-3.896401e-05	607530.5	323282.7	-0.00021773529	323282.97	607529.8	-0.00014916001
0	0.66467154	0.66467094	-3.2514363e-10	0.07000352	0.07000352	0	101196.24	101196.16	-4.786715e-05	607745	322795.03	-0.0002880474	322795.25	607744.4	-0.00017813852
0	0.6644752	0.66447467	-3.6175268e-10	0.06965005	0.06965005	0	101166.34	101166.266	-5.390378e-05	607961.06	322303.97	-0.00035636083	322304.2	607960.56	-0.0001570481
0	0.6642781	0.66427743	-1.6111182e-10	0.06929643	0.06929643	0	101136.34	101136.26	-2.452407e-05	608176.6	321812.44	-0.00019261995	321812.72	608176.06	-2.3624814e-05
0	0.6640785	0.6640777	-6.5790856e-10	0.068942994	0.068942994	0	101105.945	101105.84	-9.714522e-05	608394.06	321315.47	-0.00043103524	321315.72	608393.5	-0.0004849194
0	0.663879	0.66387844	-1.7679316e-10	0.06858929	0.06858929	0	101075.58	101075.484	-2.6853495e-05	608610.75	320819.66	-0.00014915323	320819.88	608610.2	-9.01312e-05
0	0.663677	0.6636764	-2.937592e-10	0.06823583	0.06823583	0	101044.82	101044.734	-4.5362667e-05	608829.06	320318.53	-0.000308849	320318.72	608828.44	-0.00013706033
0	0.66347474	0.6634741	-5.484284e-10	0.067882195	0.067882195	0	101014.04	101013.94	-8.19738e-05	609047	319817.4	-0.00041980998	319817.62	609046.4	-0.00038705976
0	0.6632701	0.6632695	-4.094266e-10	0.06752872	0.06752872	0	100982.88	100982.78	-5.9574275e-05	609266.25	319311.62	-0.00028702116	319311.88	609265.6	-0.00028286618
0	0.6630638	0.6630632	-6.0236965e-10	0.06717502	0.06717502	0	100951.47	100951.375	-9.15024e-05	609486.44	318802.66	-0.00048639343	318802.84	609485.9	-0.0003978568
0	0.6628577	0.6628571	-1.8749476e-10	0.066821605	0.066821605	0	100920.086	100919.984	-2.9615223e-05	609706.4	318294.2	-0.00010294715	318294.4	609705.7	-0.00013893959
0	0.66264987	0.66264915	-1.1484488e-10	0.066468135	0.066468135	0	100888.44	100888.32	-1.5095175e-05	609927.06	317782.4	2.4627132e-05	317782.66	609926.3	-0.00015369087
0	0.66244113	0.6624405	-7.2801243e-10	0.06611443	0.06611443	0	100856.65	100856.56	-0.000113948256	610147.2	317270.06	-0.00057532225	317270.3	610146.56	-0.00051357254
0	0.6622307	0.66223	-1.4379752e-11	0.065760985	0.065760985	0	100824.62	100824.52	3.1653792e-07	610368.25	316754.44	-8.056582e-05	316754.7	610367.6	8.488325e-05
0	0.6620185	0.66201776	-6.078284e-10	0.06540732	0.06540732	0	100792.3	100792.2	-8.99934e-05	610591	316234.6	-0.00037985726	316234.84	610590.3	-0.0004637667
0	0.66180474	0.6618041	3.3946915e-10	0.0650539	0.0650539	0	100759.77	100759.68	5.413778e-05	610813.4	315713.03	0.0002600058	315713.25	610812.75	0.00023961492
0	0.66158986	0.66158926	-3.022281e-10	0.064700216	0.064700216	0	100727.05	100726.95	-4.368011e-05	611037.2	315188.34	-0.00013261348	315188.62	611036.56	-0.00027273127
0	0.6613733	0.66137266	-2.6917651e-10	0.06434676	0.06434676	0	100694.11	100694	-3.8429276e-05	611261.25	314661.22	-0.0002724381	314661.53	611260.6	-0.00010415199
0	0.6611562	0.6611555	-2.4422264e-10	0.0639931	0.0639931	0	100661.03	100660.93	-3.8985498e-05	611485.2	314133.22	-0.00024966898	314133.53	611484.5	-0.00012000854
0	0.66093713	0.6609365	-4.736917e-10	0.06363964	0.06363964	0	100627.68	100627.57	-7.1993665e-05	611710.2	313601.6	-0.00035224133	313601.9	611709.44	-0.0003365185
0	0.6607168	0.660716	-3.4970832e-10	0.06328595	0.06328595	0	100594.125	100594.016	-5.17677e-05	611935.5	313067.62	-0.00027199162	313067.97	611934.75	-0.00022839713
0	0.6604948	0.6604941	-1.7512596e-10	0.0629325	0.0629325	0	100560.33	100560.23	-2.4477844e-05	612161	312531.4	-0.00013888447	312531.72	612160.3	-8.925703e-05
0	0.6602705	0.66026974	-4.115325e-10	0.06257904	0.06257904	0	100526.18	100526.08	-6.0465984e-05	612387.7	311990.7	-0.00026686184	311991	612387	-0.0003320246
0	0.6600471	0.6600464	-3.0778677e-10	0.062225346	0.062225346	0	100492.16	100492.055	-4.697375e-05	612613.94	311451.62	-0.00029766513	311451.9	612613.25	-0.00014257006
0	0.6598202	0.6598195	-3.1639386e-10	0.06187191	0.06187191	0	100457.63	100457.52	-5.0724266e-05	612842.5	310905.5	-0.00021280328	310905.78	612841.8	-0.0002558417
0	0.659593	0.6595923	-1.1075277e-09	0.061518222	0.061518222	0	100423.03	100422.92	-0.00016902435	613069.9	310359.97	-0.0008209966	310360.28	613069.1	-0.00079924596
0	0.6593632	0.6593625	-3.3554742e-10	0.061164826	0.061164826	0	100388.055	100387.94	-4.9842674e-05	613299.06	309809.12	-0.00027664163	309809.47	613298.3	-0.00021259552
0	0.6591322	0.65913147	-3.149315e-10	0.060811136	0.060811136	0	100352.88	100352.76	-4.7838774e-05	613528.7	309256.06	-0.0002873707	309256.34	613527.94	-0.0001690667
0	0.65889955	0.65889865	-5.3960064e-10	0.060457677	0.060457677	0	100317.445	100317.33	-8.2172024e-05	613758.3	308700.7	-0.00038500872	308700.97	613757.5	-0.00040175888
0	0.6586664	0.6586656	-6.543681e-10	0.06010401	0.06010401	0	100281.95	100281.83	-9.944766e-05	613988.44	308144.2	-0.00057831267	308144.5	613987.7	-0.00037861912
0	0.6584319	0.6584311	-5.209791e-10	0.05975055	0.05975055	0	100246.26	100246.14	-8.100119e-05	614218.06	307586.25	-0.0003103892	307586.6	614217.25	-0.00046846393
0	0.6581945	0.6581937	-5.822464e-10	0.059396874	0.059396874	0	100210.1	100209.984	-8.8766865e-05	614449.7	307022.28	-0.00047239498	307022.6	614448.9	-0.00035696646
0	0.6579558	0.65795505	-3.0972855e-10	0.059043404	0.059043404	0	100173.766	100173.64	-4.4090582e-05	614682.2	306455.66	-0.00025852918	306455.94	614681.44	-0.00016981857
0	0.6577161	0.65771526	-1.4720877e-10	0.05868994	0.05868994	0	100137.28	100137.15	-2.3528173e-05	614914.06	305888.06	-0.00022267734	305888.44	614913.3	1.6685464e-05
0	0.6574743	0.6574735	-6.384168e-10	0.05833627	0.05833627	0	100100.46	100100.34	-9.450926e-05	615147.1	305316.5	-0.00038887316	305316.8	615146.44	-0.0005224664
0	0.6572305	0.65722966	-6.3391514e-10	0.057982814	0.057982814	0	100063.34	100063.22	-9.771165e-05	615381.1	304741.22	-0.0005214013	304741.56	615380.4	-0.00041767495
0	0.65698683	0.656986	-7.7351775e-10	0.057629142	0.057629142	0	100026.24	100026.11	-0.0001189726	615614.2	304166.94	-0.0005500458	304167.3	615613.4	-0.00057148025
0	0.65673995	0.6567391	-2.679308e-10	0.057275668	0.057275668	0	99988.65	99988.54	-3.9381437e-05	615849.2	303586.44	-0.0001539912	303586.78	615848.4	-0.00020457759
0	0.6564918	0.656491	-7.058831e-10	0.056922063	0.056922063	0	99950.875	99950.74	-0.00010700895	616084.4	303003.7	-0.00049056223	303004.03	616083.7	-0.00054013234
0	0.6562423	0.6562414	-5.47206e-10	0.0565686	0.0565686	0	99912.88	99912.75	-8.7248605e-05	616319.75	302419	-0.00049626816	302419.4	616319.06	-0.00034072535
0	0.6559913	0.6559904	-4.2981702e-10	0.056214936	0.056214936	0	99874.67	99874.555	-6.6598805e-05	616555.4	301832.06	-0.00028125287	301832.44	616554.5	-0.0003443531
0	0.6557362	0.6557353	-2.3882404e-10	0.05586146	0.05586146	0	99835.83	99835.7	-3.640479e-05	616791.94	301238.3	-0.00032681137	301238.72	616791.1	-4.0434763e-05
0	0.65548307	0.65548223	-8.190883e-10	0.055507805	0.055507805	0	99797.3	99797.17	-0.0001229175	617029.8	300646.16	-0.0006489035	300646.5	617028.94	-0.0005064497
0	0.6552266	0.65522575	-3.0869662e-10	0.055154327	0.055154327	0	99758.25	99758.11	-4.6398483e-05	617267.5	300049.28	-0.00037238927	300049.72	617266.7	-0.00010025261
0	0.65496856	0.6549677	-6.313204e-10	0.054800846	0.054800846	0	99718.96	99718.82	-9.782483e-05	617504.9	299450.72	-0.00041460682	299451.16	617504.06	-0.00050996686
0	0.6547083	0.65470743	-6.765297e-10	0.05444718	0.05444718	0	99679.35	99679.22	-0.00010134191	617744.56	298846.75	-0.00064937776	298847.16	617743.75	-0.000343231
0	0.65444773	0.6544467	3.479714e-11	0.054093722	0.054093722	0	99639.66	99639.52	4.813882e-06	617982.8	298243.5	9.828506e-05	298243.94	617982	-7.2352705e-05
0	0.6541839	0.65418303	-6.3455347e-10	0.053740054	0.053740054	0	99599.51	99599.37	-9.4126386e-05	618223.25	297633.88	-0.00043106117	297634.3	618222.44	-0.00047406578
0	0.6539183	0.6539175	-6.7988076e-10	0.053386588	0.053386588	0	99559.07	99558.94	-0.000100494086	618464	297021.3	-0.00051813707	297021.75	618463.1	-0.0004243711
0	0.65365195	0.653651	-2.7337552e-10	0.053032987	0.053032987	0	99518.51	99518.37	-4.1305615e-05	618704.06	296408.22	-0.00022147596	296408.66	618703.25	-0.00016926762
0	0.6533836	0.65338266	-2.1525577e-10	0.05267951	0.05267951	0	99477.664	99477.52	-2.9680134e-05	618945.5	295791.22	-0.00035092398	295791.62	618944.56	6.0390328e-05
0	0.65311366	0.65311265	-3.6588177e-10	0.05232584	0.05232584	0	99436.555	99436.39	-5.718145e-05	619186.9	295171.7	-0.00033555075	295172.16	619186	-0.00020127818
0	0.65284026	0.6528393	-6.749158e-10	0.05197238	0.05197238	0	99394.945	99394.79	-0.00010434138	619430.1	294545.8	-0.0006115372	294546.3	619429.3	-0.0003472687
0	0.65256655	0.6525656	-3.5052644e-10	0.051618718	0.051618718	0	99353.26	99353.1	-4.878557e-05	619672.94	293919.72	-0.00031646615	293920.22	619672	-0.00017632623
0	0.6522904	0.65228945	-1.307102e-10	0.05126525	0.05126525	0	99311.21	99311.07	-2.1448903e-05	619916.75	293289.38	-3.0848692e-05	293289.84	619915.8	-0.00016400253
0	0.6520132	0.65201217	1.757755e-10	0.05091175	0.05091175	0	99269.01	99268.875	2.4507348e-05	620159.94	292658.16	2.4281939e-05	292658.66	620159.06	0.00022619274
0	0.6517298	0.6517288	-4.0934808e-10	0.0505581	0.0505581	0	99225.86	99225.71	-5.997578e-05	620407.25	292014	-0.0002788081	292014.5	620406.3	-0.00029489322
0	0.65145135	0.6514504	-2.1958385e-10	0.050204627	0.050204627	0	99183.47	99183.305	-3.2864216e-05	620649.94	291381.47	-0.00032767656	291381.97	620649	7.722296e-06
0	0.65116847	0.65116745	-9.0577085e-10	0.049850974	0.049850974	0	99140.39	99140.26	-0.00014184159	620894.9	290740.44	-0.0007302698	290740.94	620894	-0.0006062445
0	0.65088135	0.6508804	-2.7737498e-10	0.049497493	0.049497493	0	99096.68	99096.53	-4.208779e-05	621142	290091.34	-0.00020204525	290091.8	621141.2	-0.00020136965
0	0.6505958	0.6505947	-4.239956e-10	0.049143914	0.049143914	0	99053.21	99053.04	-6.8492394e-05	621387.6	289445.9	-0.00032057453	289446.4	621386.75	-0.00031619243
0	0.65030605	0.65030503	-7.2104114e-11	0.04879043	0.04879043	0	99009.1	99008.945	-1.20993855e-05	621634.4	288793.62	-0.000114881994	288794.2	621633.3	2.258235e-05
0	0.6500129	0.6500119	-4.3274476e-10	0.04843677	0.04843677	0	98964.46	98964.32	-6.5743414e-05	621882.3	288135.25	-0.0005499829	288135.84	621881.4	-7.615141e-05
0	0.64972156	0.6497205	-2.392376e-10	0.04808329	0.04808329	0	98920.1	98919.94	-4.1182382e-05	622130.1	287479.5	-0.000110531815	287480.03	622129.1	-0.00024966124
0	0.64942485	0.6494237	-1.2189157e-10	0.04772965	0.04772965	0	98874.93	98874.76	-2.0383924e-05	622378.9	286815.28	-0.0002072152	286815.84	622377.9	2.6388552e-05
0	0.6491288	0.6491276	-2.140735e-10	0.047376156	0.047376156	0	98829.85	98829.69	-2.8366148e-05	622629	286150.7	-0.00035788259	286151.22	622628	7.483425e-05
0	0.6488298	0.64882874	-5.900304e-10	0.04702266	0.04702266	0	98784.34	98784.19	-8.901284e-05	622877.94	285483.22	-0.00048012502	285483.78	622877	-0.0003798511
0	0.64852816	0.648527	-2.9977743e-10	0.046669014	0.046669014	0	98738.4	98738.24	-4.6185418e-05	623128.9	284809.94	-0.00011527853	284810.47	623127.8	-0.00032902902
0	0.6482253	0.6482241	-9.036606e-10	0.046315536	0.046315536	0	98692.29	98692.125	-0.00013802196	623379	284135.75	-0.0006736026	284136.38	623377.94	-0.00067462126
0	0.6479192	0.64791805	-1.9208626e-10	0.045961887	0.045961887	0	98645.7	98645.54	-2.6106536e-05	623630	283456.38	-0.0001012276	283456.97	623628.94	-0.0001201964
0	0.6476124	0.6476112	-1.9283052e-10	0.045608394	0.045608394	0	98598.98	98598.8	-3.0564366e-05	623881.6	282775	-0.00013463086	282775.56	623880.75	-0.0001662153
0	0.6473023	0.64730114	-6.3153976e-10	0.04525483	0.04525483	0	98551.77	98551.61	-9.7536904e-05	624134.06	282088.47	-0.00040162267	282089.06	624133.1	-0.00053058495
0	0.6469904	0.6469893	-1.2041318e-10	0.044901334	0.044901334	0	98504.305	98504.12	-1.7168015e-05	624386.75	281399.3	-0.00020888961	281399.9	624385.7	5.794161e-05
0	0.64667654	0.64667535	-5.1564153e-10	0.044547696	0.044547696	0	98456.49	98456.32	-7.772808e-05	624638.44	280708.12	-0.00043267614	280708.72	624637.4	-0.0003286621
0	0.6463609	0.6463596	-6.199736e-10	0.04419421	0.04419421	0	98408.445	98408.26	-9.1555834e-05	624893.25	280011.34	-0.00039789992	280011.97	624892.25	-0.00050343276
0	0.646042	0.6460408	-5.628363e-10	0.04384058	0.04384058	0	98359.88	98359.7	-8.054578e-05	625148.1	279310.06	-0.0003692479	279310.66	625147.06	-0.00040904613
0	0.6457214	0.6457201	-6.8469236e-10	0.043487065	0.043487065	0	98311.07	98310.9	-0.000104832216	625402.94	278606.28	-0.0005255128	278606.9	625401.9	-0.00046486402
0	0.6453992	0.645398	-3.9493114e-10	0.04313356	0.04313356	0	98262.03	98261.86	-6.0514496e-05	625657.4	277900.88	-0.00036357832	277901.53	625656.4	-0.00021366662
0	0.6450731	0.6450719	-3.2298267e-10	0.042779934	0.042779934	0	98212.37	98212.195	-4.721467e-05	625913.75	277187.97	-0.00031393179	277188.56	625912.8	-0.0001325558
0	0.6447465	0.64474535	-4.048307e-10	0.04242642	0.04242642	0	98162.66	98162.46	-6.240671e-05	626170.1	276474.38	-0.000365915	276475.03	626169	-0.00022506398
0	0.64441776	0.6444166	-3.600551e-10	0.04207281	0.04207281	0	98112.59	98112.414	-5.33403e-05	626425.2	275758.94	-0.00029207167	275759.62	626424.06	-0.00022252086
0	0.6440865	0.6440852	-4.2781859e-10	0.041719295	0.041719295	0	98062.16	98061.97	-6.389864e-05	626681.6	275038.75	-0.00044951643	275039.44	626680.5	-0.00016850575
0	0.6437514	0.6437502	-3.0107072e-10	0.041365758	0.041365758	0	98011.15	98010.96	-4.6421737e-05	626941.4	274309.97	-0.00032186345	274310.66	626940.25	-8.687178e-05
0	0.6434156	0.6434143	-3.0221176e-10	0.041012242	0.041012242	0	97960.016	97959.82	-4.7651498e-05	627199.1	273582.06	-0.00022850954	273582.78	627197.94	-0.00020261235
0	0.64307684	0.6430756	-4.0721318e-10	0.040658627	0.040658627	0	97908.47	97908.266	-6.403994e-05	627456.44	272850.47	-0.0003592748	272851.2	627455.44	-0.00022161199
0	0.64273465	0.64273334	-3.4872588e-10	0.040305126	0.040305126	0	97856.336	97856.14	-5.336415e-05	627717.4	272110.4	-0.00030762574	272111.12	627716.25	-0.00017912251
0	0.642392	0.64239067	-6.737091e-10	0.03995151	0.03995151	0	97804.195	97803.984	-0.00010354736	627976.25	271371.9	-0.00056526443	271372.6	627975.1	-0.00043799344
0	0.6420469	0.6420456	-1.0126423e-10	0.039597988	0.039597988	0	97751.65	97751.45	-1.7120023e-05	628235.2	270629.88	5.2034102e-05	270630.62	628234	-0.00022334224
0	0.64169866	0.64169735	-6.0851235e-10	0.03924446	0.03924446	0	97698.625	97698.414	-9.154147e-05	628495.5	269881.78	-0.00061658194	269882.56	628494.44	-0.00030187482
0	0.64134705	0.6413457	-1.2798185e-10	0.03889085	0.03889085	0	97645.086	97644.88	-2.5092033e-05	628758.1	269126.94	-0.00016577796	269127.72	628757.06	-4.415108e-05
0	0.640995	0.6409936	-7.052193e-10	0.03853732	0.03853732	0	97591.484	97591.29	-0.000110059795	629018.5	268373.78	-0.0006130375	268374.56	629017.3	-0.000428845
0	0.64063793	0.6406365	-2.9905067e-10	0.03818373	0.03818373	0	97537.13	97536.93	-4.2534695e-05	629282.4	267610.12	-0.00014876456	267610.88	629281.25	-0.0002547158
0	0.6402805	0.64027905	-4.0758502e-10	0.0378302	0.0378302	0	97482.7	97482.48	-5.8194004e-05	629543.75	266848.16	-0.00045134473	266848.94	629542.6	-0.00010708913
0	0.6399195	0.639918	-4.3997367e-10	0.03747659	0.03747659	0	97427.74	97427.52	-6.50106e-05	629806.4	266080.22	-0.0004666654	266081.03	629805.1	-0.00015439939
0	0.63955414	0.63955265	-4.6044568e-10	0.037123155	0.037123155	0	97372.11	97371.91	-7.0157024e-05	630070.4	265304.56	-0.0006082186	265305.44	630069.1	-6.776336e-05
0	0.63919157	0.63919014	-2.1207816e-10	0.036769558	0.036769558	0	97316.914	97316.695	-2.7832859e-05	630333.56	264533.8	-0.00010379265	264534.62	630332.3	-0.00018425994
0	0.63882166	0.6388202	-3.1746175e-10	0.036416043	0.036416043	0	97260.59	97260.37	-4.66571e-05	630599.44	263750	-0.0003938425	263750.88	630598.25	-6.15285e-05
0	0.6384514	0.63844985	-1.3213902e-10	0.036062438	0.036062438	0	97204.21	97203.984	-2.2368782e-05	630863.94	262967.03	-0.00029584975	262967.84	630862.8	7.608622e-05
0	0.6380767	0.6380753	-1.3324807e-10	0.035708897	0.035708897	0	97147.195	97146.96	-1.934471e-05	631130.06	262176.6	-0.00016367066	262177.44	631128.6	-1.47898645e-05
0	0.637702	0.63770044	-6.445274e-10	0.035355352	0.035355352	0	97090.12	97089.89	-9.608211e-05	631394.56	261387.33	-0.00059537636	261388.19	631393.3	-0.00030657457
0	0.63732076	0.6373192	-2.3844807e-10	0.03500176	0.03500176	0	97032.08	97031.85	-3.3857512e-05	631662.9	260585.34	-0.00031883342	260586.25	631661.6	-8.495743e-06
0	0.6369404	0.6369388	-3.3744169e-10	0.034648214	0.034648214	0	96974.17	96973.94	-5.2640324e-05	631928.6	259786.95	-0.00035750278	259787.86	631927.4	-0.00015287372
0	0.6365576	0.6365561	-6.23076e-10	0.034294646	0.034294646	0	96915.91	96915.67	-9.489784e-05	632194.1	258985.64	-0.0005016104	258986.56	632192.8	-0.00041227145
0	0.63617027	0.6361687	-2.2761303e-10	0.033941098	0.033941098	0	96856.93	96856.695	-3.618088e-05	632461.56	258175.92	-0.00031731476	258176.88	632460.2	-8.30553e-06
0	0.6357785	0.6357768	-1.815275e-11	0.03358751	0.03358751	0	96797.28	96797.03	-4.5710467e-06	632732.25	257356.7	-9.336081e-05	257357.61	632730.94	4.714635e-05
0	0.63538754	0.63538593	-5.004201e-10	0.033234067	0.033234067	0	96737.74	96737.516	-7.262083e-05	632999.3	256542.36	-0.0003243586	256543.31	632997.94	-0.00039825324
0	0.6349893	0.6349877	-4.4804294e-10	0.032880493	0.032880493	0	96677.125	96676.88	-6.4758715e-05	633270.75	255713.44	-0.00039349514	255714.4	633269.44	-0.00023788924
0	0.63459116	0.6345895	-2.3430644e-10	0.03252695	0.03252695	0	96616.484	96616.24	-3.4320907e-05	633540.25	254886.33	-0.00025978516	254887.28	633538.94	-7.476111e-05
0	0.63419247	0.6341908	-3.2889322e-10	0.03217338	0.03217338	0	96555.79	96555.555	-5.043401e-05	633808.06	254060.48	-0.00019808185	254061.47	633806.7	-0.000304018
0	0.6337888	0.63378733	-3.8857403e-10	0.03181982	0.03181982	0	96494.37	96494.11	-5.9012316e-05	634077.94	253225.62	-0.00023569634	253226.62	634076.6	-0.00032034106
0	0.6333806	0.63337886	-3.8473713e-10	0.03146625	0.03146625	0	96432.195	96431.945	-5.5904053e-05	634348.8	252382.98	-0.00039877708	252384.03	634347.5	-0.00014095443
0	0.63296914	0.6329675	-2.5326768e-10	0.031112673	0.031112673	0	96369.555	96369.29	-3.6139005e-05	634623	251532.88	-0.00019723794	251533.9	634621.56	-0.00014089613
0	0.63255686	0.6325551	-2.0351348e-10	0.030759111	0.030759111	0	96306.77	96306.516	-2.985759e-05	634894.5	250683.97	-0.00025030915	250685.08	634893	-9.360807e-06
0	0.6321438	0.632142	-3.8576733e-10	0.030405568	0.030405568	0	96243.88	96243.62	-5.9839298e-05	635163.7	249836.5	-0.0003135123	249837.55	635162.3	-0.00025216796
0	0.6317221	0.63172024	-6.9743084e-10	0.030052004	0.030052004	0	96179.68	96179.41	-0.000105894134	635439.6	248970.2	-0.00063314696	248971.25	635438.2	-0.00034235633
0	0.6313024	0.63130057	-6.912413e-11	0.029698437	0.029698437	0	96115.79	96115.516	-1.3687648e-05	635710	248112.25	-7.2573246e-05	248113.33	635708.6	-2.6246391e-05
0	0.6308773	0.6308755	-1.6915974e-10	0.02934497	0.02934497	0	96051.07	96050.8	-2.6420452e-05	635984.3	247242.67	-0.00023308267	247243.78	635982.94	-2.1559239e-05
0	0.63044775	0.63044596	-3.2387812e-10	0.028991407	0.028991407	0	95985.68	95985.4	-5.2206167e-05	636260.2	246365.6	-0.0003214473	246366.72	636258.75	-0.00013475274
0	0.63001645	0.63001454	-4.79541e-10	0.028637834	0.028637834	0	95920.016	95919.72	-7.89416e-05	636532.94	245488.95	-0.00028179938	245490.08	636531.56	-0.00044814972
0	0.6295833	0.62958145	6.541521e-11	0.0282843	0.0282843	0	95854.05	95853.77	1.12359e-05	636807.2	244608.19	7.2619216e-05	244609.33	636805.9	4.698045e-05
0	0.6291441	0.62914217	-2.587512e-10	0.02793073	0.02793073	0	95787.19	95786.9	-4.0289782e-05	637085.5	243714.95	-0.00029409296	243716.12	637084	-7.5702694e-05
0	0.6287028	0.628701	-4.1045142e-10	0.027577164	0.027577164	0	95720.016	95719.71	-6.005481e-05	637359.7	242823.17	-0.00034063123	242824.34	637358.2	-0.0002473314
0	0.62825906	0.62825716	9.881477e-11	0.02722359	0.02722359	0	95652.445	95652.14	1.5128367e-05	637635.7	241925.86	-6.443796e-05	241927.06	637634.2	0.00018953462
0	0.6278121	0.6278101	-5.0977783e-10	0.026870027	0.026870027	0	95584.38	95584.09	-7.793777e-05	637912.9	241022.86	-0.00028359747	241024.08	637911.25	-0.00044096538
0	0.62736166	0.6273596	-3.5562355e-11	0.026516493	0.026516493	0	95515.805	95515.51	-7.835321e-06	638192.1	240112.88	-0.00015123055	240114.14	638190.56	9.2795904e-05
0	0.6269079	0.626906	-4.9415916e-10	0.02616292	0.02616292	0	95446.72	95446.43	-7.321981e-05	638469.7	239200.12	-0.0004388499	239201.36	638468.2	-0.00023009376
0	0.6264536	0.62645143	-4.344253e-10	0.025809359	0.025809359	0	95377.555	95377.24	-6.187029e-05	638744.8	238288.9	-0.000375125	238290.14	638743.25	-0.00023029152
0	0.6259915	0.62598956	-3.9064962e-10	0.025455875	0.025455875	0	95307.23	95306.914	-6.207608e-05	639023.8	237363.1	-0.0003939641	237364.36	639022.4	-0.00019075723
0	0.6255287	0.62552667	-2.8435454e-10	0.025102314	0.025102314	0	95236.734	95236.43	-4.6061574e-05	639302.2	236436.6	-0.0004475267	236437.89	639300.7	1.9037347e-05
0	0.62506133	0.6250593	-5.9738625e-10	0.024748746	0.024748746	0	95165.586	95165.27	-9.399289e-05	639581.8	235502.75	-0.00049263804	235504.03	639580.3	-0.00039896206
0	0.6245874	0.6245853	-6.2588473e-10	0.024395214	0.024395214	0	95093.43	95093.12	-9.0861016e-05	639865.2	234555.88	-0.0006297936	234557.22	639863.56	-0.00027102197
0	0.62411475	0.62411267	-5.901944e-10	0.024041645	0.024041645	0	95021.47	95021.15	-9.2652524e-05	640142.44	233616.81	-0.00042626855	233618.17	640140.9	-0.00043870613
0	0.62363786	0.62363577	-3.5035852e-10	0.023688078	0.023688078	0	94948.87	94948.55	-5.390335e-05	640423.2	232668.48	-0.00029471455	232669.86	640421.5	-0.00021686591
0	0.6231539	0.62315184	-6.1641003e-10	0.023334507	0.023334507	0	94875.19	94874.86	-9.407622e-05	640705.5	231708.58	-0.00058558735	231709.98	640703.94	-0.00031946754
0	0.6226711	0.6226689	-2.4203814e-10	0.022980943	0.022980943	0	94801.69	94801.34	-3.4002056e-05	640985.9	230752.23	-0.00012325445	230753.67	640984.25	-0.00019293082
0	0.622182	0.62217975	-3.636249e-10	0.022627415	0.022627415	0	94727.22	94726.875	-5.6072688e-05	641268.5	229784.88	-0.00041375475	229786.33	641266.8	-0.00012567965
0	0.6216871	0.6216848	-3.7374495e-10	0.022273848	0.022273848	0	94651.84	94651.516	-5.939541e-05	641554.25	228806.12	-0.00024298944	228807.58	641552.56	-0.00032703555
0	0.6211901	0.62118775	-1.9926324e-10	0.02192029	0.02192029	0	94576.18	94575.84	-3.4169585e-05	641837.7	227826.84	-0.00021389931	227828.36	641836	-0.00011900266
0	0.6206907	0.6206884	-1.7122172e-10	0.02156678	0.02156678	0	94500.16	94499.805	-2.6377038e-05	642120.9	226844.56	-0.00031159725	226846.1	642119.2	5.6274886e-05
0	0.6201865	0.62018424	-5.1842836e-10	0.02121321	0.02121321	0	94423.39	94423.04	-7.8728786e-05	642405.1	225854.48	-0.00028831945	225856	642403.4	-0.00047216006
0	0.6196812	0.6196788	-6.8840483e-10	0.020859648	0.020859648	0	94346.46	94346.086	-0.00010347225	642686.5	224865.52	-0.00046825843	224867.08	642684.8	-0.00052050955
0	0.6191687	0.6191663	-3.3780978e-10	0.020506121	0.020506121	0	94268.42	94268.06	-5.2195413e-05	642971.56	223862.95	-0.00040089877	223864.5	642969.9	-6.4552354e-05
0	0.61865485	0.61865246	-4.751576e-10	0.020152563	0.020152563	0	94190.21	94189.83	-7.43375e-05	643256.44	222858.84	-0.00046658318	222860.45	643254.7	-0.00023163533
0	0.61813444	0.61813205	-4.281958e-10	0.019798994	0.019798994	0	94110.97	94110.61	-6.645529e-05	643542.7	221843.9	-0.00040443073	221845.5	643541.06	-0.00022650657
0	0.6176107	0.61760825	-4.8417614e-10	0.019445425	0.019445425	0	94031.22	94030.85	-7.108437e-05	643829.25	220824.02	-0.0003439952	220825.67	643827.44	-0.00034207833
0	0.61708134	0.6170789	-2.4059602e-10	0.019091865	0.019091865	0	93950.63	93950.27	-3.8941926e-05	644119.4	219792.81	-0.00029618328	219794.47	644117.6	-5.099371e-05
0	0.6165501	0.6165476	8.579471e-11	0.018738296	0.018738296	0	93869.76	93869.375	8.35602e-06	644404.06	218764.44	2.290997e-05	218766.12	644402.25	8.8984794e-05
0	0.616015	0.6160125	-2.3468796e-10	0.018384779	0.018384779	0	93788.3	93787.91	-3.7868598e-05	644691.4	217727.89	-0.00025039288	217729.58	644689.6	-0.00010317661
0	0.6154746	0.6154721	-3.746161e-10	0.018031219	0.018031219	0	93706	93705.62	-5.3190677e-05	644982.56	216680.06	-0.00029273037	216681.78	644980.75	-0.00020163432
0	0.61493284	0.61493033	-3.1683436e-10	0.017677676	0.017677676	0	93623.53	93623.13	-4.9820697e-05	645268.25	215636.03	-0.00046012818	215637.8	645266.4	-2.6294469e-05
0	0.6143845	0.61438185	-7.120331e-10	0.017324107	0.017324107	0	93540.03	93539.65	-0.0001068981	645557.2	214579.28	-0.000705534	214581.06	645555.44	-0.00033222153
0	0.6138295	0.6138269	-2.9098352e-10	0.016970549	0.016970549	0	93455.55	93455.13	-4.0961022e-05	645850.5	213508.98	-0.00040240612	213510.78	645848.56	2.6037436e-05
0	0.61327225	0.6132696	-4.0138529e-10	0.016617034	0.016617034	0	93370.7	93370.3	-6.0275757e-05	646141.06	212438.22	-0.0002489643	212440.06	646139.2	-0.0002800789
0	0.61271125	0.6127085	-4.4584675e-10	0.016263476	0.016263476	0	93285.28	93284.88	-6.7861154e-05	646431.5	211362.45	-0.0003040145	211364.28	646429.5	-0.00029815448
0	0.6121453	0.61214256	-5.2070703e-10	0.01590991	0.01590991	0	93199.11	93198.71	-8.003549e-05	646722.94	210278.55	-0.00040489752	210280.42	646721.1	-0.0003486135
0	0.61157775	0.611575	-4.933943e-10	0.015556336	0.015556336	0	93112.7	93112.29	-7.692988e-05	647011.2	209195.64	-0.00032112532	209197.55	647009.25	-0.00039687884
0	0.61100036	0.61099756	2.4495864e-11	0.015202784	0.015202784	0	93024.8	93024.38	4.3263185e-06	647307.06	208091.53	-6.562028e-05	208093.5	647305.06	0.000104410436
0	0.6104209	0.6104181	-6.4837197e-10	0.014849219	0.014849219	0	92936.58	92936.15	-9.812804e-05	647600.06	206987.19	-0.0005741956	206989.17	647598.06	-0.00035817843
0	0.60984	0.6098372	-3.236282e-10	0.014495703	0.014495703	0	92848.13	92847.695	-5.123572e-05	647889.56	205884.34	-0.000393399	205886.36	647887.5	-0.00011995803
0	0.6092476	0.6092447	-3.1275282e-10	0.01414215	0.01414215	0	92757.95	92757.52	-4.6162284e-05	648187.5	204757.12	-0.00047794482	204759.16	648185.5	4.7847185e-05
0	0.6086553	0.6086524	-6.535005e-10	0.013788582	0.013788582	0	92667.76	92667.32	-9.9002005e-05	648481.4	203633.88	-0.0006249103	203635.95	648479.44	-0.0003201206
0	0.60805696	0.60805404	-3.564187e-10	0.013435014	0.013435014	0	92576.68	92576.23	-5.3604806e-05	648776.6	202501.1	-0.00024594305	202503.19	648774.5	-0.00028014896
0	0.6074564	0.60745347	-7.6596346e-10	0.01308146	0.01308146	0	92485.24	92484.78	-0.000117725736	649068.44	201368.34	-0.00045912465	201370.48	649066.4	-0.00067108177
0	0.6068459	0.60684294	-1.5567247e-10	0.012727938	0.012727938	0	92392.29	92391.84	-2.6042178e-05	649365.6	200216.6	-0.000113571994	200218.77	649363.5	-0.00013209743
0	0.606233	0.60622996	-5.268672e-10	0.012374373	0.012374373	0	92298.99	92298.52	-8.0822036e-05	649664.9	199059.12	-0.00040287635	199061.3	649662.8	-0.0003468499
0	0.6056169	0.6056138	-3.277577e-10	0.012020823	0.012020823	0	92205.16	92204.695	-5.26032e-05	649959.44	197902.05	-0.00020159922	197904.28	649957.1	-0.00028237992
0	0.6049938	0.60499066	-3.402287e-10	0.011667253	0.011667253	0	92110.3	92109.82	-5.311782e-05	650256.75	196732.33	-0.00037078865	196734.61	650254.56	-0.00014234557
0	0.60436326	0.6043601	-3.983744e-10	0.011313708	0.011313708	0	92014.305	92013.82	-6.214083e-05	650559	195547.3	-0.000302022	195549.61	650556.8	-0.00027070945
0	0.60373014	0.6037269	-7.211044e-10	0.010960145	0.010960145	0	91917.92	91917.43	-0.000109184446	650858.1	194361.75	-0.0006534626	194364.06	650855.94	-0.00040654038
0	0.60309386	0.6030907	-4.0896586e-10	0.010606605	0.010606605	0	91821.04	91820.56	-6.0476334e-05	651154.56	193174.52	-0.00030219852	193176.92	651152.3	-0.00027229823
0	0.602447	0.60244364	-1.2808703e-10	0.010253061	0.010253061	0	91722.56	91722.05	-1.5643403e-05	651458.6	191964.7	-0.00021194627	191967.12	651456.44	5.024663e-05
0	0.60179764	0.60179436	-5.703064e-10	0.009899497	0.009899497	0	91623.69	91623.195	-8.525533e-05	651759.6	190754.62	-0.0005650394	190757.06	651757.56	-0.0002625359
0	0.60114515	0.60114187	-1.3720153e-10	0.0095459325	0.0095459325	0	91524.35	91523.84	-2.1165584e-05	652058.2	189542.53	-0.00022895704	189544.97	652056	4.1459185e-05
0	0.6004838	0.60048044	1.1694952e-10	0.009192389	0.009192389	0	91423.664	91423.14	1.6478292e-05	652360.25	188314.67	2.6687449e-05	188317.19	652357.94	0.00012682859
0	0.59981775	0.5998143	-1.2036665e-10	0.008838838	0.008838838	0	91322.26	91321.73	-2.0838015e-05	652663.6	187078.69	-5.3215575e-05	187081.28	652661.3	-0.00011796005
0	0.5991462	0.59914285	-4.5695175e-10	0.008485274	0.008485274	0	91220.01	91219.484	-6.962579e-05	652967.75	185834.45	-0.0005469776	185837.05	652965.4	-0.000112290305
0	0.5984682	0.5984647	-9.141618e-11	0.008131738	0.008131738	0	91116.79	91116.26	-1.57967e-05	653272.6	184580.25	-0.00026257028	184582.88	653270.4	0.0001386402
0	0.5977848	0.59778124	-3.9847525e-10	0.007778168	0.007778168	0	91012.75	91012.2	-6.0550585e-05	653578.3	183317.84	-0.0004958161	183320.55	653575.94	-8.526193e-05
0	0.59709466	0.5970911	-3.4278078e-10	0.0074246093	0.0074246093	0	90907.66	90907.1	-5.1137227e-05	653884.6	182045.08	-0.0003797137	182047.81	653882.3	-0.00012109742
0	0.59639883	0.59639525	-4.142522e-10	0.007071075	0.007071075	0	90801.734	90801.17	-5.974748e-05	654191.94	180763.77	-0.0004651736	180766.53	654189.6	-0.000111874804
0	0.5956943	0.59569055	-3.2846348e-10	0.006717507	0.006717507	0	90694.445	90693.9	-5.035515e-05	654504.4	179464.8	-0.00026547437	179467.62	654501.94	-0.00018526457