# t (s)	mx ()	my ()	mz ()	B_extx (T)	B_exty (T)	B_extz (T)	m_fullx (A/m)	m_fully (A/m)	m_fullz (A/m)	m_full.region1x (A/m)	m_full.region1y (A/m)	m_full.region1z (A/m)	m_full.region2x (A/m)	m_full.region2y (A/m)	m_full.region2z (A/m)
0	0.652751	0.65275097	-1.3730912e-10	0.07071067	0.07071067	0	178107.78	178107.77	-3.5714285e-05	619150.7	294700.72	-9.653141e-05	294700.7	619150.7	-5.235602e-05
0	0.6526722	0.652672	-1.9972236e-10	0.07056918	0.07056918	0	178086.27	178086.22	-6.122449e-05	619214.6	294526.28	-0.0002045157	294526.38	619214.5	-0.00010471204
0	0.65258837	0.6525881	-4.2441003e-10	0.07042789	0.07042789	0	178063.38	178063.31	-0.000105867344	619282.9	294340.72	-0.00021596858	294340.8	619282.7	-0.0003304974
0	0.6525049	0.6525047	-1.9348105e-10	0.070286386	0.070286386	0	178040.62	178040.56	-4.4642857e-05	619351.25	294155.5	-6.2172774e-05	294155.6	619351	-0.00018324607
0	0.65242124	0.6524211	-5.3051254e-11	0.07014502	0.07014501	0	178017.8	178017.77	-1.4030612e-05	619419.75	293970	-4.090314e-05	293970.1	619419.6	-4.5811517e-05
0	0.65233773	0.6523375	-1.02981845e-10	0.07000351	0.07000352	0	177995	177994.94	-2.8061224e-05	619487.94	293784.7	3.2722513e-05	293784.78	619487.75	-0.00017015707
0	0.65225303	0.65225285	-3.0894554e-10	0.06986222	0.069862224	0	177971.9	177971.83	-8.0357146e-05	619556.8	293597.28	-0.00015052356	293597.4	619556.7	-0.0002290576
0	0.65216845	0.6521682	-2.21567e-10	0.069720745	0.069720745	0	177948.84	177948.75	-6.122449e-05	619625.8	293409.94	-0.00017342932	293410.03	619625.7	-0.00011780105
0	0.65208465	0.65208435	-3.7447944e-11	0.06957926	0.06957926	0	177925.94	177925.89	-6.377551e-06	619694.3	293224	1.7997381e-05	293224.12	619694.1	-8.5078536e-05
0	0.6519995	0.6519993	-2.1844634e-10	0.06943794	0.06943794	0	177902.72	177902.66	-5.994898e-05	619762.9	293036.3	-6.708115e-05	293036.4	619762.6	-0.00019633508
0	0.6519149	0.65191466	-2.5589428e-10	0.0692964	0.0692964	0	177879.62	177879.56	-6.696428e-05	619831.6	292849.1	-0.00022578533	292849.2	619831.44	-0.000111256544
0	0.65182906	0.6518289	-2.371703e-10	0.0691551	0.0691551	0	177856.22	177856.16	-6.377551e-05	619900.6	292659.94	-0.00019633508	292660.03	619900.56	-0.0001145288
0	0.6517447	0.65174454	-2.3092898e-10	0.0690136	0.0690136	0	177833.2	177833.17	-6.377551e-05	619969.4	292473.2	-4.908377e-05	292473.3	619969.2	-0.00024214659
0	0.65165997	0.6516597	3.120662e-11	0.068872124	0.068872124	0	177810.08	177810	-1.2755102e-06	620037.75	292286.06	2.1269634e-05	292286.12	620037.5	-2.2905759e-05
0	0.6515734	0.6515732	-3.0582487e-10	0.06873082	0.06873082	0	177786.47	177786.4	-8.67347e-05	620106.94	292095.7	-0.0002045157	292095.78	620106.75	-0.00020942408
0	0.65148723	0.65148705	-3.2454886e-10	0.06858932	0.06858932	0	177762.95	177762.89	-8.418367e-05	620176.1	291905.88	-0.00029450262	291906	620175.94	-0.00015379582
0	0.65140194	0.65140176	-4.3689267e-11	0.068447955	0.068447955	0	177739.69	177739.61	-3.8265307e-06	620244.94	291717.75	-3.1086387e-05	291717.88	620244.6	-6.5445024e-06
0	0.6513154	0.65131515	-1.02981845e-10	0.06830648	0.06830648	0	177716.06	177716	-2.9336734e-05	620313.9	291527.53	-3.2722513e-05	291527.62	620313.7	-8.5078536e-05
0	0.65122944	0.65122926	-1.1858516e-10	0.06816515	0.06816515	0	177692.62	177692.56	-3.3163265e-05	620383.2	291338.1	-2.9450262e-05	291338.2	620382.9	-0.0001341623
0	0.65114284	0.65114266	-2.5589428e-10	0.068023674	0.068023674	0	177668.97	177668.9	-6.8877554e-05	620452	291147.84	-0.00015379582	291147.97	620451.8	-0.00017342932
0	0.65105635	0.65105623	-7.1775225e-11	0.067882195	0.06788219	0	177645.38	177645.31	-1.9770408e-05	620521.2	290957.66	-1.9633508e-05	290957.75	620521	-9.489529e-05
0	0.6509696	0.6509694	-1.5915376e-10	0.06774088	0.06774088	0	177621.7	177621.66	-4.0816325e-05	620590.6	290766.72	8.180628e-06	290766.84	620590.4	-0.00016361257
0	0.65088224	0.650882	-3.869621e-10	0.067599334	0.067599334	0	177597.88	177597.81	-0.00010459184	620659.44	290575.72	-0.00025687172	290575.78	620659.25	-0.0002879581
0	0.6507959	0.6507956	-3.8072076e-10	0.06745803	0.06745803	0	177574.31	177574.22	-0.000117346935	620728.3	290385.72	-0.00031577225	290385.8	620728.1	-0.00027486912
0	0.65070784	0.6507076	-2.4029098e-10	0.06731653	0.06731653	0	177550.27	177550.2	-7.142857e-05	620797.7	290193.12	-0.00014397905	290193.25	620797.56	-0.00021269634
0	0.65062064	0.65062046	-3.9320341e-10	0.06717506	0.06717506	0	177526.48	177526.42	-0.000112882655	620866.94	290001.84	-0.0002290576	290001.9	620866.8	-0.0003566754
0	0.6505325	0.65053225	-1.6227443e-10	0.06703376	0.06703376	0	177502.42	177502.39	-4.336735e-05	620936.4	289809.03	-7.526178e-05	289809.16	620936.06	-0.0001407068
0	0.6504445	0.6504444	-3.1830752e-10	0.066892266	0.066892266	0	177478.42	177478.39	-9.119898e-05	621005.94	289616.28	-0.00016361257	289616.38	621005.75	-0.00029777488
0	0.650357	0.6503568	1.2482648e-10	0.066750884	0.066750884	0	177454.56	177454.5	4.655612e-05	621074.75	289424.97	8.998691e-05	289425.06	621074.56	0.00014725131
0	0.65026814	0.65026784	8.425787e-11	0.06660941	0.06660941	0	177430.28	177430.23	2.614796e-05	621144.56	289230.7	0.000111256544	289230.78	621144.4	4.908377e-05
0	0.6501801	0.65017986	-1.02981845e-10	0.06646809	0.06646809	0	177406.28	177406.22	-3.0612246e-05	621214.06	289037.94	-6.544503e-05	289038.03	621213.8	-0.00010471204
0	0.6500914	0.6500912	-6.5533905e-11	0.06632662	0.06632662	0	177382.1	177382.03	-1.4668367e-05	621283.56	288844.28	-8.835078e-05	288844.4	621283.4	3.9267015e-05
0	0.6500028	0.65000254	-1.7163641e-10	0.06618514	0.06618514	0	177357.89	177357.84	-4.336735e-05	621353	288650.8	-0.000111256544	288650.84	621352.9	-0.0001341623
0	0.6499136	0.6499133	-5.7732247e-10	0.066043824	0.066043824	0	177333.58	177333.5	-0.00015816327	621422.1	288456.78	-0.0003697644	288456.88	621421.9	-0.0004581152
0	0.6498235	0.6498233	-2.371703e-10	0.06590227	0.06590227	0	177308.98	177308.9	-6.122449e-05	621492.2	288260.6	-0.0001145288	288260.7	621492	-0.00019306282
0	0.6497349	0.64973474	-9.361986e-12	0.06576097	0.06576097	0	177284.83	177284.77	-5.1020406e-06	621561.75	288067.12	-3.5994763e-05	288067.22	621561.44	1.3089005e-05
0	0.64964557	0.6496454	-1.560331e-10	0.065619476	0.065619476	0	177260.44	177260.38	-3.9540817e-05	621631.1	287872.53	-8.5078536e-05	287872.66	621630.94	-0.00010143979
0	0.6495557	0.64955556	-2.5589428e-10	0.06547816	0.06547816	0	177235.92	177235.86	-8.0357146e-05	621700.7	287677.16	-0.00017506545	287677.25	621700.56	-0.00020942408
0	0.6494656	0.6494655	-3.276695e-10	0.0653367	0.0653367	0	177211.34	177211.28	-8.5459185e-05	621770.44	287481.4	-0.00024214659	287481.53	621770.25	-0.00022251309
0	0.64937544	0.64937526	-4.993059e-11	0.06519521	0.06519521	0	177186.73	177186.69	-1.4030612e-05	621840.3	287285.22	-8.017015e-05	287285.3	621840.1	5.8900525e-05
0	0.6492844	0.6492841	-2.6525626e-10	0.0650539	0.0650539	0	177161.89	177161.83	-7.780612e-05	621910.4	287087.7	-0.00021596858	287087.78	621910.1	-0.00018979057
0	0.6491944	0.6491942	-9.04992e-11	0.06491235	0.06491236	0	177137.33	177137.25	-2.9336734e-05	621980.25	286891.84	-9.816754e-06	286891.94	621979.94	-7.853403e-05
0	0.6491039	0.64910364	-1.3418847e-10	0.06477103	0.06477103	0	177112.62	177112.56	-3.5714285e-05	622049.9	286695.4	-0.00015379582	286695.5	622049.6	-6.5445024e-06
0	0.64901304	0.6490129	-3.276695e-10	0.06462956	0.06462956	0	177087.86	177087.8	-8.290816e-05	622119.56	286498.66	-0.0002045157	286498.78	622119.3	-0.00023887435
0	0.6489209	0.6489206	-3.5575548e-10	0.06448808	0.06448809	0	177062.69	177062.6	-9.757653e-05	622189.9	286299.12	-0.00020124346	286299.25	622189.7	-0.00030759163
0	0.6488305	0.64883024	-2.6525626e-10	0.06434676	0.06434675	0	177038.02	177037.95	-7.270408e-05	622259.6	286102.9	-0.00017015707	286103.03	622259.44	-0.00020615183
0	0.64873886	0.6487386	-3.682381e-10	0.06420529	0.06420529	0	177013.03	177012.97	-0.000105867344	622329.5	285904.75	-0.00024378272	285904.88	622329.3	-0.0002814136
0	0.6486466	0.6486464	-1.9036038e-10	0.06406391	0.06406391	0	176987.88	176987.78	-5.484694e-05	622399.3	285705.88	-9.816754e-05	285705.97	622399.06	-0.00015706806
0	0.6485545	0.64855427	-3.432728e-11	0.06392241	0.06392241	0	176962.73	176962.67	-7.653061e-06	622469.6	285506.5	-2.2905759e-05	285506.6	622469.56	-9.816754e-06
0	0.64846325	0.648463	-1.5291243e-10	0.063781105	0.063781105	0	176937.81	176937.75	-4.7831632e-05	622539.6	285308.75	-9.980366e-05	285308.88	622539.4	-0.00015379582
0	0.6483701	0.64837	-1.0922317e-10	0.06363964	0.06363964	0	176912.42	176912.36	-2.614796e-05	622609.9	285108.3	-9.1623035e-05	285108.44	622609.6	-3.9267015e-05
0	0.6482786	0.6482784	-1.4355045e-10	0.06349814	0.06349815	0	176887.44	176887.38	-3.8265305e-05	622679.8	284910.06	-0.00012434555	284910.2	622679.6	-5.8900525e-05
0	0.64818597	0.64818573	-2.9646288e-10	0.06335683	0.06335683	0	176862.19	176862.11	-8.4821426e-05	622749.9	284710.4	-0.00022578533	284710.5	622749.7	-0.00018979057
0	0.6480937	0.64809346	-2.7773892e-10	0.06321529	0.06321529	0	176836.98	176836.9	-8.418367e-05	622819.2	284511.75	-0.00014234293	284511.84	622819.1	-0.0002617801
0	0.6480002	0.64799994	-1.1858516e-10	0.06307396	0.06307396	0	176811.45	176811.4	-2.869898e-05	622890	284310.12	-0.00010798429	284310.25	622889.7	-5.235602e-05
0	0.64790624	0.64790606	-2.5277364e-10	0.06293249	0.06293249	0	176785.84	176785.78	-6.8877554e-05	622960.56	284108.22	-0.00017997382	284108.28	622960.25	-0.00015379582
0	0.647813	0.6478128	-1.2482648e-11	0.06279103	0.06279103	0	176760.44	176760.33	-8.928571e-06	623030.75	283907.3	-5.5628272e-05	283907.4	623030.7	-7.771597e-06
0	0.64771926	0.647719	-6.5533905e-11	0.06264969	0.06264969	0	176734.83	176734.75	-2.6785714e-05	623101.1	283705.7	-0.0002110602	283705.8	623100.9	8.180628e-05
0	0.6476256	0.6476254	-1.3106781e-10	0.062508225	0.062508225	0	176709.28	176709.22	-4.0816325e-05	623171.5	283504.16	-3.435864e-05	283504.25	623171.3	-0.00015706806
0	0.64753085	0.6475307	-2.871009e-10	0.06236684	0.06236684	0	176683.42	176683.39	-8.4821426e-05	623241.9	283301.28	-0.0002617801	283301.4	623241.7	-0.00015379582
0	0.64743674	0.6474365	-4.1192738e-10	0.062225346	0.062225346	0	176657.77	176657.67	-0.00010331633	623312.06	283099.28	-0.00028304974	283099.38	623311.94	-0.00024214659
0	0.6473428	0.64734244	-2.6837693e-10	0.062084038	0.062084038	0	176632.08	176632.02	-6.8877554e-05	623382.75	282896.94	-0.00018651833	282897.06	623382.5	-0.00018979057
0	0.64724815	0.6472479	-2.465323e-10	0.061942574	0.061942577	0	176606.27	176606.2	-6.568878e-05	623453.3	282694.03	-0.00015706806	282694.1	623453	-0.00019633508
0	0.64715326	0.647153	-1.9972236e-10	0.061801083	0.06180108	0	176580.38	176580.31	-5.484694e-05	623523.8	282490.6	-8.5078536e-05	282490.75	623523.6	-0.00020287959
0	0.6470586	0.64705837	-1.9036038e-10	0.061659772	0.061659772	0	176554.56	176554.47	-5.3571428e-05	623594	282287.9	-0.00014397905	282288	623593.8	-9.489529e-05
0	0.64696276	0.6469625	-1.7787774e-10	0.061518237	0.061518237	0	176528.4	176528.34	-4.5280613e-05	623664.56	282083.25	-0.000111256544	282083.34	623664.4	-0.00015052356
0	0.6468675	0.64686733	-1.560331e-10	0.061376892	0.061376892	0	176502.45	176502.36	-3.5714285e-05	623735.1	281879.38	-6.2172774e-05	281879.47	623734.9	-0.000111256544
0	0.6467719	0.6467716	-2.0284303e-10	0.06123543	0.06123543	0	176476.33	176476.25	-5.8673468e-05	623805.94	281674.53	-0.000103075916	281674.62	623805.8	-0.00020287959
0	0.64667624	0.646676	-2.4341165e-10	0.061093967	0.061093967	0	176450.22	176450.16	-6.441327e-05	623876.44	281470.1	-0.0002045157	281470.25	623876.3	-0.0001341623
0	0.64658	0.6465797	-1.5915376e-10	0.060952656	0.060952656	0	176423.95	176423.89	-4.336735e-05	623947.1	281264.72	-0.00013907067	281264.88	623946.9	-0.00010143979
0	0.64648294	0.64648277	-1.5915376e-10	0.060811166	0.060811166	0	176397.5	176397.44	-4.0816325e-05	624018	281058.12	-0.00014725131	281058.25	624017.75	-5.8900525e-05
0	0.6463872	0.64638704	-4.993059e-11	0.060669772	0.060669772	0	176371.38	176371.31	-2.0408163e-05	624088.56	280853.6	-6.3808904e-05	280853.72	624088.25	-3.2722513e-05
0	0.6462905	0.6462902	-1.5915376e-10	0.060528316	0.060528316	0	176344.97	176344.88	-5.1020408e-05	624159.1	280647.34	-0.00013743456	280647.53	624158.9	-0.000111256544
0	0.6461933	0.6461931	-3.7447944e-11	0.060386974	0.060386974	0	176318.47	176318.42	-1.8494899e-05	624230.4	280440.1	-7.1989525e-05	280440.2	624230.3	2.2905759e-05
0	0.64609677	0.6460965	-4.0880674e-10	0.06024551	0.06024551	0	176292.11	176292.05	-0.00011926021	624300.9	280234.53	-0.00027814135	280234.7	624300.56	-0.00031740838
0	0.64599866	0.6459984	-1.3418847e-10	0.06010405	0.060104053	0	176265.34	176265.25	-3.3163265e-05	624371.8	280026.1	-0.0001341623	280026.25	624371.6	-5.8900525e-05
0	0.64590156	0.64590126	-2.9022157e-10	0.059962712	0.059962705	0	176238.84	176238.78	-8.737245e-05	624442.94	279819.06	-0.00025850785	279819.2	624442.75	-0.00017015707
0	0.64580417	0.64580387	-1.9660171e-10	0.05982117	0.05982117	0	176212.27	176212.2	-5.2933672e-05	624513.6	279612.03	-9.1623035e-05	279612.2	624513.44	-0.00020942408
0	0.6457061	0.6457058	-5.6171918e-11	0.05967985	0.05967985	0	176185.53	176185.45	-1.6581633e-05	624584.4	279404.12	9.653141e-05	279404.22	624584.06	-0.00016361257
0	0.6456073	0.645607	-2.1220502e-10	0.059538368	0.059538364	0	176158.55	176158.52	-5.6122448e-05	624655.3	279194.7	-0.0001652487	279194.84	624655.1	-0.00015052356
0	0.64550877	0.6455085	-7.801655e-11	0.059396908	0.059396908	0	176131.67	176131.61	-1.7219389e-05	624726.5	278985.62	-8.998691e-05	278985.75	624726.4	1.3089005e-05
0	0.6454109	0.64541054	-2.371703e-10	0.059255596	0.059255596	0	176104.95	176104.86	-5.8673468e-05	624797.8	278777.22	-0.000121073295	278777.34	624797.5	-0.00015706806
0	0.64531255	0.6453123	2.1220502e-10	0.059114102	0.059114102	0	176078.14	176078.05	6.0586735e-05	624868.3	278569.12	0.0001783377	278569.25	624868.06	0.00010143979
0	0.6452135	0.6452131	-1.3418847e-10	0.058972705	0.058972713	0	176051.1	176051.02	-3.0612246e-05	624939.5	278359.22	-0.000121073295	278359.34	624939.2	-5.235602e-05
0	0.6451143	0.64511406	-8.7378535e-11	0.05883125	0.058831252	0	176024.05	176023.95	-2.0408163e-05	625010.5	278149.3	-3.2722512e-06	278149.47	625010.25	-0.0001145288
0	0.6450141	0.6450139	-7.801655e-11	0.0586899	0.0586899	0	175996.72	175996.64	-2.1045918e-05	625081.94	277937.78	-1.6361257e-05	277937.88	625081.7	-8.835078e-05
0	0.64491475	0.6449145	-7.1775225e-11	0.05854845	0.05854845	0	175969.6	175969.55	-1.6581633e-05	625153.3	277727.28	-3.2722513e-05	277727.4	625153.06	-6.871728e-05
0	0.6448152	0.64481497	-2.371703e-10	0.058406986	0.058406986	0	175942.42	175942.36	-6.377551e-05	625224.06	277517.1	-0.000111256544	277517.25	625223.8	-0.00020287959
0	0.64471537	0.64471513	4.0568608e-11	0.05826565	0.05826565	0	175915.2	175915.14	1.1479592e-05	625295.25	277306.16	0.00013252618	277306.3	625295	-7.526178e-05
0	0.6446149	0.6446146	-1.2794714e-10	0.058124106	0.058124106	0	175887.8	175887.72	-3.4438777e-05	625366.1	277094.66	-0.00013907067	277094.78	625365.94	-4.5811517e-05
0	0.6445131	0.6445128	-1.9660171e-10	0.05798278	0.05798278	0	175860	175859.92	-5.6122448e-05	625438.2	276880.06	-0.00015379582	276880.22	625437.9	-0.0001603403
0	0.64441377	0.6444135	-1.2170583e-10	0.05784131	0.05784131	0	175832.88	175832.81	-3.0612246e-05	625509.1	276669.94	-5.5628272e-05	276670.06	625508.94	-0.000111256544
0	0.6443122	0.64431185	-2.371703e-10	0.057699848	0.057699848	0	175805.19	175805.11	-5.994898e-05	625580.4	276456.53	-0.00015379582	276456.7	625580.1	-0.0001603403
0	0.64421177	0.64421153	-3.526348e-10	0.05755853	0.05755853	0	175777.8	175777.7	-0.000100765305	625651.6	276244.7	-0.00029123036	276244.84	625651.4	-0.00025850785
0	0.64410955	0.6441093	-2.8085959e-10	0.05741706	0.05741706	0	175749.92	175749.83	-8.0357146e-05	625723.3	276030.03	-0.00014725131	276030.16	625723	-0.0002617801
0	0.6440083	0.6440081	-1.2170583e-10	0.057275645	0.057275645	0	175722.28	175722.2	-3.6989797e-05	625794.6	275817.03	-8.835078e-05	275817.16	625794.3	-0.00013743456
0	0.6439068	0.64390653	-2.6525626e-10	0.05713419	0.05713419	0	175694.56	175694.5	-7.653061e-05	625866.25	275603.12	-0.00019306282	275603.25	625866	-0.00016361257
0	0.6438048	0.6438045	-1.0922317e-10	0.056992844	0.056992844	0	175666.73	175666.67	-3.1887754e-05	625937.7	275388.94	-0.00016688481	275389.03	625937.5	-1.6361257e-05
0	0.64370286	0.64370257	-1.560331e-11	0.056851387	0.056851387	0	175638.92	175638.84	-3.1887755e-06	626008.9	275174.9	5.72644e-05	275175.03	626008.7	-3.9267015e-05
0	0.64360005	0.6435998	-6.241324e-11	0.056709927	0.056709927	0	175610.86	175610.8	-1.5306123e-05	626080.44	274959.5	-0.00012434555	274959.62	626080.25	1.6361257e-05
0	0.6434977	0.6434974	-1.3106781e-10	0.056568585	0.056568585	0	175582.94	175582.86	-3.0612246e-05	626151.94	274744.66	-9.489529e-05	274744.84	626151.7	-4.5811517e-05
0	0.64339465	0.6433944	-1.4979178e-10	0.056427047	0.056427047	0	175554.83	175554.77	-3.3163265e-05	626223.3	274529.12	3.5994763e-05	274529.2	626223.1	-0.00020287959
0	0.6432917	0.6432915	7.489589e-11	0.05628571	0.05628571	0	175526.75	175526.66	2.1683674e-05	626295	274313.22	5.5628272e-05	274313.34	626294.8	4.908377e-05
0	0.643188	0.6431877	-2.3092898e-10	0.05614424	0.05614424	0	175498.42	175498.34	-5.229592e-05	626366.5	274096.53	-0.0001603403	274096.7	626366.2	-0.00013743456
0	0.6430846	0.6430842	-6.5533905e-11	0.056002792	0.056002792	0	175470.22	175470.16	-1.1479592e-05	626438.25	273880	-0.00010798429	273880.16	626437.94	3.2722512e-06
0	0.64298135	0.64298105	-1.4355045e-10	0.05586147	0.05586147	0	175442.05	175441.94	-3.762755e-05	626509.5	273664.16	-7.526178e-05	273664.34	626509.25	-0.000121073295
0	0.64287615	0.64287597	-2.3092898e-10	0.055719994	0.055719994	0	175413.36	175413.27	-6.632653e-05	626581.8	273444.75	-7.1989525e-05	273444.9	626581.5	-0.00027486912
0	0.6427725	0.64277226	-9.361986e-11	0.055578664	0.055578664	0	175385.1	175385.02	-2.0408163e-05	626653.1	273228.3	-8.3442406e-05	273228.44	626652.8	-2.617801e-05
0	0.6426683	0.642668	-2.5901495e-10	0.055437125	0.055437125	0	175356.64	175356.55	-7.142857e-05	626724.94	273010.53	-7.526178e-05	273010.66	626724.7	-0.0002814136
0	0.6425638	0.6425635	-2.465323e-10	0.05529578	0.05529578	0	175328.11	175328.05	-6.3137755e-05	626796.7	272792.47	-0.00017670156	272792.6	626796.44	-0.00014725131
0	0.64245814	0.64245784	-1.7475707e-10	0.055154327	0.055154327	0	175299.27	175299.19	-4.9744896e-05	626868.5	272572.7	-0.00016361257	272572.78	626868.3	-8.5078536e-05
0	0.6423534	0.6423531	-2.4341165e-10	0.05501287	0.05501287	0	175270.72	175270.62	-6.441327e-05	626940.5	272354.12	-9.1623035e-05	272354.2	626940.3	-0.0002290576
0	0.64224833	0.64224815	-1.8723972e-10	0.054871522	0.054871522	0	175242.08	175241.98	-5.3571428e-05	627012.1	272135.5	-0.00019633508	272135.66	627011.94	-9.489529e-05
0	0.6421426	0.64214236	-1.2482648e-10	0.05473008	0.05473008	0	175213.19	175213.11	-3.507653e-05	627084	271915.5	-1.6361257e-05	271915.66	627083.75	-0.00012761781
0	0.6420362	0.64203596	-2.4965296e-10	0.05458865	0.05458865	0	175184.14	175184.1	-6.760204e-05	627155.75	271694.72	-9.1623035e-05	271694.88	627155.5	-0.00021924084
0	0.64193106	0.64193076	-8.7378535e-11	0.054447185	0.054447185	0	175155.47	175155.39	-3.5714285e-05	627227.25	271476.03	-6.708115e-05	271476.22	627227	-5.5628272e-05
0	0.641824	0.64182377	-2.1844634e-10	0.054305855	0.054305855	0	175126.28	175126.19	-6.0586735e-05	627299.56	271253.9	-0.00014561518	271254.06	627299.3	-0.00016361257
0	0.64171785	0.6417176	-1.6851574e-10	0.054164406	0.054164406	0	175097.33	175097.25	-4.4642857e-05	627371.7	271033.28	-0.00011780105	271033.44	627371.4	-9.1623035e-05
0	0.6416113	0.6416111	-1.1546449e-10	0.054022938	0.054022938	0	175068.22	175068.16	-4.2091837e-05	627443.5	270812.2	-9.1623035e-05	270812.28	627443.3	-9.489529e-05
0	0.64150333	0.6415031	-3.2454886e-10	0.0538816	0.0538816	0	175038.78	175038.69	-9.0561225e-05	627515.8	270588.7	-0.0002356021	270588.8	627515.6	-0.00024214659
0	0.6413968	0.6413966	-1.5915376e-10	0.05374007	0.05374007	0	175009.7	175009.62	-4.4642857e-05	627587.94	270367.47	-8.835078e-05	270367.6	627587.7	-0.0001407068
0	0.64128935	0.641289	-2.465323e-10	0.05359871	0.05359871	0	174980.38	174980.28	-6.505102e-05	627660.1	270144.8	-0.000111256544	270144.97	627659.8	-0.0002486911
0	0.6411824	0.6411821	-2.1844634e-10	0.053457264	0.053457264	0	174951.19	174951.12	-6.505102e-05	627731.5	269923.7	-0.00017179319	269923.8	627731.25	-0.00012761781
0	0.6410736	0.6410733	-2.3404964e-10	0.053315822	0.05331583	0	174921.5	174921.42	-5.994898e-05	627803.8	269699.1	-0.0002110602	269699.22	627803.56	-0.00012434555
0	0.64096606	0.6409657	-1.0610251e-10	0.053174462	0.053174462	0	174892.14	174892.08	-3.4438777e-05	627875.9	269476.34	-9.489529e-05	269476.47	627875.56	-8.835078e-05
0	0.64085716	0.64085686	-2.0596369e-10	0.053033024	0.053033024	0	174862.45	174862.38	-6.760204e-05	627948.44	269251.4	-6.2172774e-05	269251.6	627948.2	-0.00025196336
0	0.6407491	0.64074874	7.1775225e-11	0.052891586	0.052891586	0	174832.95	174832.88	2.2959184e-05	628020.2	269028.28	0.00015706806	269028.4	628020	-5.235602e-05
0	0.64064014	0.6406398	-2.7773892e-10	0.052750126	0.052750126	0	174803.23	174803.16	-7.780612e-05	628092.5	268803.47	-0.00024051048	268803.62	628092.25	-0.00017015707
0	0.64053077	0.64053047	-2.9022157e-10	0.052608777	0.052608777	0	174773.39	174773.31	-7.653061e-05	628164.75	268578.16	-0.0001783377	268578.3	628164.5	-0.00020615183
0	0.640421	0.6404207	-2.5589428e-10	0.05246734	0.05246734	0	174743.45	174743.38	-6.632653e-05	628236.6	268352.56	-0.00011289267	268352.72	628236.4	-0.00021269634
0	0.64031214	0.64031184	-2.4341165e-10	0.052325882	0.052325882	0	174713.73	174713.66	-5.6122448e-05	628308.94	268127.84	-0.00013743456	268128.03	628308.7	-0.0001603403
0	0.6402029	0.64020264	-3.4951414e-10	0.05218454	0.05218454	0	174683.9	174683.84	-9.438775e-05	628380.8	267903.1	-0.00021596858	267903.22	628380.56	-0.00025523562
0	0.640092	0.6400917	-2.8866123e-10	0.052043002	0.052043002	0	174653.69	174653.6	-7.780612e-05	628453.94	267674.78	-0.00013743456	267674.9	628453.6	-0.00020615183
0	0.63998187	0.63998157	-1.560331e-10	0.051901635	0.051901635	0	174623.62	174623.53	-4.2091837e-05	628526.1	267448.38	-0.00013743456	267448.5	628525.8	-0.00010143979
0	0.6398718	0.6398714	-7.489589e-11	0.0517602	0.0517602	0	174593.58	174593.5	-1.9132653e-05	628598.06	267222.22	-5.5628272e-05	267222.38	628597.8	-6.2172774e-05
0	0.63976043	0.6397602	-7.957688e-11	0.051618766	0.051618766	0	174563.22	174563.16	-2.6785714e-05	628670.5	266994.06	-8.3442406e-05	266994.22	628670.2	-3.5994763e-05
0	0.63965005	0.6396497	-1.0922317e-10	0.05147742	0.05147742	0	174533.06	174533	-3.6989797e-05	628742.7	266767.2	-7.1989525e-05	266767.34	628742.4	-8.5078536e-05
0	0.6395386	0.6395383	-1.4355045e-10	0.05133596	0.05133596	0	174502.66	174502.6	-3.6989797e-05	628815	266538.94	-6.3808904e-05	266539.06	628814.6	-0.00012761781
0	0.6394269	0.6394266	-1.6851574e-10	0.051194515	0.051194515	0	174472.2	174472.12	-4.7193877e-05	628887.4	266310.12	-0.00015543193	266310.28	628887.06	-7.526178e-05
0	0.6393151	0.6393148	3.7447944e-11	0.05105309	0.05105309	0	174441.69	174441.61	5.1020406e-06	628960.25	266080.7	1.9633508e-05	266080.84	628960	5.8900525e-05
0	0.6392033	0.6392031	-1.8411905e-10	0.050911706	0.050911706	0	174411.19	174411.11	-4.7193877e-05	629032.5	265851.94	-0.00012761781	265852.12	629032.25	-0.00010143979
0	0.6390909	0.63909054	-1.4199013e-10	0.05077028	0.05077028	0	174380.52	174380.4	-3.507653e-05	629105.06	265622	-5.5628272e-05	265622.16	629104.8	-6.544503e-05
0	0.63897794	0.6389777	-1.9660171e-10	0.050628845	0.050628845	0	174349.7	174349.61	-5.2933672e-05	629177.3	265391.72	-0.00011289267	265391.84	629177	-0.00015052356
0	0.6388665	0.6388661	-2.1220502e-10	0.050487474	0.050487474	0	174319.27	174319.19	-4.9107144e-05	629249.2	265163.66	-0.00014397905	265163.8	629248.94	-0.00013089005
0	0.63875264	0.63875234	-1.2482648e-10	0.050345946	0.050345946	0	174288.22	174288.12	-3.4438777e-05	629322.75	264930.78	-8.835078e-05	264930.94	629322.44	-0.0001145288
0	0.63863957	0.6386393	-2.1532567e-10	0.05020459	0.05020459	0	174257.36	174257.28	-5.484694e-05	629395.25	264699.97	-0.000121073295	264700.12	629394.94	-0.00016361257
0	0.63852614	0.63852584	-2.3404964e-10	0.050063137	0.050063137	0	174226.4	174226.34	-5.6122448e-05	629467.4	264469.03	-4.2539268e-05	264469.22	629467.2	-0.00025850785
0	0.6384125	0.6384122	-3.1830752e-10	0.04992171	0.04992171	0	174195.4	174195.31	-9.311224e-05	629539.8	264237.47	-0.00022087696	264237.62	629539.56	-0.00021269634
0	0.6382987	0.6382984	-2.871009e-10	0.049780354	0.049780354	0	174164.34	174164.27	-8.290816e-05	629612.7	264005.3	-0.0002290576	264005.47	629612.4	-0.00015706806
0	0.6381842	0.6381839	-1.4511078e-10	0.049638905	0.0496389	0	174133.11	174133.02	-4.2729593e-05	629685.56	263772.12	-9.1623035e-05	263772.28	629685.25	-0.0001145288
0	0.63807	0.6380697	-2.21567e-10	0.049497455	0.049497455	0	174101.94	174101.88	-5.994898e-05	629757.94	263539.84	-0.00018160995	263540.03	629757.75	-0.0001603403
0	0.63795507	0.6379547	-1.9192072e-10	0.04935602	0.04935602	0	174070.6	174070.52	-4.5280613e-05	629830.9	263306.1	-0.00014234293	263306.28	629830.44	-9.816754e-05
0	0.6378396	0.63783926	-1.9972236e-10	0.04921464	0.04921464	0	174039.08	174039	-5.1658164e-05	629903.1	263072.06	-0.00012270942	263072.2	629902.94	-0.00016361257
0	0.6377253	0.63772494	-1.4355045e-10	0.04907321	0.04907321	0	174007.9	174007.8	-3.9540817e-05	629975.8	262839.34	-0.00011780105	262839.53	629975.5	-7.526178e-05
0	0.63760984	0.6376095	-2.5589428e-10	0.04893179	0.04893179	0	173976.39	173976.3	-7.142857e-05	630048.3	262605.16	-0.00015870419	262605.3	630048	-0.00019633508
0	0.63749355	0.6374933	-7.489589e-11	0.048790414	0.048790418	0	173944.69	173944.6	-2.4234694e-05	630121.44	262369.38	-6.871728e-05	262369.56	630121.1	-4.5811517e-05
0	0.637378	0.6373776	-3.0894554e-10	0.048648883	0.048648883	0	173913.12	173913.05	-9.183674e-05	630194.2	262134.81	-0.0001848822	262134.94	630193.94	-0.00025850785
0	0.6372617	0.6372614	-7.489589e-11	0.04850753	0.04850753	0	173881.4	173881.31	-2.1045918e-05	630266.9	261899.36	-9.489529e-05	261899.53	630266.56	0
0	0.63714534	0.637145	-5.929258e-11	0.048366077	0.048366077	0	173849.66	173849.56	-1.7857143e-05	630339.56	261663.8	2.2905759e-05	261663.95	630339.25	-8.5078536e-05
0	0.63702834	0.637028	-3.120662e-12	0.048224654	0.048224654	0	173817.73	173817.64	3.8265307e-06	630412.6	261426.94	1.3089005e-05	261427.1	630412.4	-6.5445024e-06
0	0.6369108	0.63691056	-8.1137215e-11	0.04808329	0.04808329	0	173785.66	173785.56	-2.8061224e-05	630484.94	261189.97	-4.908377e-05	261190.12	630484.7	-9.1623035e-05
0	0.63679415	0.63679385	-2.7461824e-10	0.04794185	0.04794185	0	173753.84	173753.75	-7.3979594e-05	630557.8	260953.98	-0.0001783377	260954.12	630557.5	-0.00019306282
0	0.63667667	0.6366763	-1.9972236e-10	0.047800384	0.047800384	0	173721.78	173721.69	-5.739796e-05	630630.8	260716.3	-0.00017015707	260716.48	630630.56	-0.00011780105
0	0.6365586	0.6365583	-2.5901495e-10	0.047658965	0.047658965	0	173689.55	173689.47	-7.52551e-05	630704	260477.86	-0.00019633508	260478.05	630703.75	-0.00015379582
0	0.63644063	0.63644034	-1.9972236e-10	0.04751758	0.04751758	0	173657.38	173657.3	-5.1020408e-05	630776.8	260240	-8.180628e-05	260240.17	630776.5	-0.00019960733
0	0.6363226	0.6363223	-2.3092898e-10	0.047376156	0.047376156	0	173625.17	173625.08	-6.760204e-05	630849.44	260002.08	-7.689791e-05	260002.23	630849.1	-0.0002290576
0	0.6362043	0.636204	-3.1830752e-10	0.047234733	0.047234733	0	173592.88	173592.8	-9.183674e-05	630922.2	259763.7	-0.00025196336	259763.89	630921.9	-0.0002356021
0	0.6360848	0.6360845	4.680993e-12	0.047093347	0.047093347	0	173560.3	173560.19	9.566326e-06	630995.4	259523.25	-3.9267015e-05	259523.42	630994.94	5.235602e-05
0	0.6359658	0.63596547	-3.1830752e-10	0.046951823	0.04695183	0	173527.81	173527.72	-8.163265e-05	631068.44	259283.45	-0.00020942408	259283.61	631068.2	-0.00020942408
0	0.635847	0.6358466	-1.1858516e-10	0.046810463	0.046810456	0	173495.38	173495.3	-4.0816325e-05	631141.06	259044.61	-6.544503e-05	259044.8	631140.6	-0.000121073295
0	0.6357266	0.6357262	-2.1844634e-10	0.04666902	0.04666902	0	173462.55	173462.45	-5.8673468e-05	631214.3	258802.78	-0.00021269634	258802.97	631214	-8.5078536e-05
0	0.63560736	0.635607	-1.8255873e-10	0.046527658	0.046527658	0	173430.02	173429.92	-5.484694e-05	631286.9	258563.25	-0.00014725131	258563.44	631286.56	-0.0001603403
0	0.6354873	0.63548696	-1.9660171e-10	0.046386234	0.046386234	0	173397.27	173397.17	-4.4642857e-05	631359.9	258322.23	-0.00010471204	258322.39	631359.56	-0.00015706806
0	0.63536644	0.6353661	-2.2780833e-10	0.0462448	0.0462448	0	173364.28	173364.19	-5.994898e-05	631432.94	258079.98	-0.00021596858	258080.14	631432.6	-0.000111256544
0	0.6352451	0.6352448	-8.7378535e-11	0.04610342	0.04610342	0	173331.19	173331.06	-2.1683674e-05	631505.94	257837.03	-4.908377e-05	257837.22	631505.6	-6.544503e-05
0	0.63512486	0.6351245	-2.6213562e-10	0.045961898	0.045961898	0	173298.36	173298.27	-7.3979594e-05	631579	257595.6	-0.00020615183	257595.75	631578.6	-0.00020615183
0	0.6350037	0.63500327	-2.4965296e-10	0.045820512	0.045820512	0	173265.28	173265.19	-5.484694e-05	631652.2	257352.7	-0.0001341623	257352.86	631651.94	-0.00018324607
0	0.63488215	0.6348818	-2.7461824e-10	0.0456791	0.0456791	0	173232.12	173232.03	-7.015306e-05	631725.3	257109.52	-0.00022578533	257109.64	631725	-0.00013089005
0	0.63476074	0.6347604	-2.5589428e-10	0.045537677	0.045537677	0	173199	173198.9	-6.760204e-05	631798.2	256866.7	-0.00017015707	256866.86	631797.94	-0.00016688481
0	0.63463837	0.634638	-3.120662e-10	0.045396283	0.045396283	0	173165.61	173165.52	-8.67347e-05	631871.4	256622.12	-0.00019306282	256622.25	631871.1	-0.00024214659
0	0.63451636	0.634516	-5.024266e-10	0.04525487	0.04525487	0	173132.33	173132.23	-0.00013137756	631944.3	256378.48	-0.00033704189	256378.67	631944.06	-0.0003206806
0	0.6343936	0.6343932	-1.02981845e-10	0.045113385	0.045113385	0	173098.8	173098.7	-3.0612246e-05	632017.6	256133.14	-0.00011780105	256133.33	632017.3	-3.2722513e-05