# t (s)	mx ()	my ()	mz ()	B_extx (T)	B_exty (T)	B_extz (T)	m_fullx (A/m)	m_fully (A/m)	m_fullz (A/m)	m_full.region1x (A/m)	m_full.region1y (A/m)	m_full.region1z (A/m)	m_full.region2x (A/m)	m_full.region2y (A/m)	m_full.region2z (A/m)
0	0.64279133	0.64279115	-3.1677397e-10	0.07071087	0.07071087	0	94400.336	94400.3	-4.25e-05	646373.06	253534.81	-0.00019065777	253534.94	646372.7	-0.00023832222
0	0.6426886	0.6426876	-2.684766e-10	0.070569105	0.07056911	0	94385.26	94385.11	-4.1875e-05	646459.6	253303.73	-0.00019065777	253304.44	646459	-0.00018469972
0	0.6425819	0.6425809	-5.639429e-10	0.07042788	0.07042789	0	94369.586	94369.44	-8.53125e-05	646550.4	253063.6	-0.00041706386	253064.33	646549.6	-0.00041706386
0	0.6424739	0.6424728	-3.2671754e-10	0.07028652	0.07028653	0	94353.7	94353.54	-4.5e-05	646642.06	252820.5	-0.00033365109	252821.25	646641.44	-0.00014895138
0	0.64236706	0.642366	-2.045536e-10	0.070144884	0.070144884	0	94338.03	94337.875	-2.84375e-05	646733.2	252579.92	-0.00014299333	252580.67	646732.44	-0.00011916111
0	0.64225966	0.6422586	-4.0484566e-10	0.07000352	0.07000352	0	94322.25	94322.09	-5.5625e-05	646824.3	252338.33	-0.0003574833	252339.08	646823.6	-0.00023236415
0	0.64215106	0.64215004	-2.826817e-10	0.06986229	0.06986229	0	94306.305	94306.164	-4.125e-05	646916.56	252094.2	-0.0002264061	252094.94	646915.9	-0.00018469972
0	0.6420434	0.64204234	-2.7842018e-10	0.069720544	0.069720544	0	94290.5	94290.35	-3.5625e-05	647007.44	251852.67	-0.00011916111	251853.44	647006.7	-0.0002502383
0	0.6419351	0.64193404	-3.4802522e-10	0.06957919	0.06957919	0	94274.59	94274.44	-5.0625e-05	647098.94	251609.53	-0.00026215444	251610.27	647098.2	-0.0002561964
0	0.64182615	0.641825	-2.8694325e-10	0.069437966	0.069437966	0	94258.586	94258.42	-4.09375e-05	647190.6	251365.06	-0.00015490943	251365.81	647190	-0.00025470686
0	0.641717	0.641716	-1.8892797e-10	0.069296576	0.069296576	0	94242.57	94242.41	-2.625e-05	647282.6	251120.5	-0.00014299333	251121.27	647281.94	-9.532888e-05
0	0.6416082	0.6416071	-3.352406e-10	0.06915496	0.06915496	0	94226.56	94226.414	-4.6875e-05	647374.6	250876.05	-0.00026215444	250876.83	647373.94	-0.00023832222
0	0.6414991	0.64149815	-3.3239958e-10	0.069013596	0.069013596	0	94210.56	94210.414	-5e-05	647466	250631.95	-0.00026215444	250632.77	647465.25	-0.00020853193
0	0.64138937	0.6413883	-2.6421507e-10	0.068872236	0.068872236	0	94194.445	94194.28	-4.0625e-05	647558.06	250386.19	-0.00019065777	250386.98	647557.4	-0.00020257388
0	0.641279	0.64127797	-4.3325588e-10	0.06873064	0.06873064	0	94178.234	94178.08	-6.1875e-05	647650.4	250139.48	-0.0003455672	250140.28	647649.6	-0.00028598667
0	0.6411687	0.64116764	-3.451842e-10	0.06858927	0.06858927	0	94162.04	94161.88	-4.875e-05	647742.5	249892.97	-0.00030981886	249893.78	647741.8	-0.00018097593
0	0.6410589	0.64105785	-1.2216396e-10	0.068448015	0.068448015	0	94145.914	94145.75	-2.15625e-05	647834.2	249647.52	-4.766444e-05	249648.27	647833.44	-0.00013703527
0	0.6409468	0.64094573	-3.1393294e-10	0.06830665	0.06830664	0	94129.46	94129.3	-4.71875e-05	647927.8	249397.06	-0.00023832222	249397.89	647927.06	-0.0002502383
0	0.64083713	0.6408361	-4.6734816e-10	0.068165034	0.06816504	0	94113.33	94113.18	-6.5625e-05	648018.75	249152.53	-0.00027407054	249153.33	648017.94	-0.0004148296
0	0.64072526	0.6407241	-2.6563557e-10	0.068023674	0.068023674	0	94096.91	94096.766	-3.96875e-05	648111.25	248903.23	-0.00026215444	248904.05	648110.56	-0.00010128694
0	0.6406145	0.64061344	-5.11384e-11	0.06788232	0.06788232	0	94080.66	94080.49	-7.5e-06	648203.5	248656.14	-0.00019065777	248656.92	648202.8	8.341277e-05
0	0.64050275	0.64050174	-4.1905077e-10	0.067740716	0.067740716	0	94064.24	94064.086	-6.375e-05	648295.94	248407.08	-0.00026215444	248407.88	648295.25	-0.00033365109
0	0.6403908	0.64038974	-1.6619979e-10	0.06759932	0.06759932	0	94047.8	94047.63	-2.71875e-05	648388.5	248157.83	-0.00017874165	248158.61	648387.8	-5.9580554e-05
0	0.64027745	0.64027643	-5.880916e-10	0.06745809	0.06745809	0	94031.15	94030.99	-8.9375e-05	648481.44	247906.16	-0.00029790276	247906.95	648480.75	-0.00055409916
0	0.64016515	0.6401641	-1.676203e-10	0.067316726	0.067316726	0	94014.66	94014.484	-2.34375e-05	648574.2	247656.23	-3.5748333e-05	247657.03	648573.44	-0.0001608675
0	0.6400534	0.6400523	-3.6791237e-10	0.067174986	0.067174986	0	93998.24	93998.08	-5.125e-05	648666.3	247407.72	-0.000321735	247408.5	648665.56	-0.00019661583
0	0.63993937	0.63993824	-2.8410221e-10	0.06703377	0.06703377	0	93981.5	93981.33	-4e-05	648759.3	247155	-0.00014299333	247155.83	648758.6	-0.00023236415
0	0.6398255	0.6398244	-3.9916362e-10	0.066892385	0.066892385	0	93964.766	93964.6	-5.875e-05	648853.6	246901.23	-0.00027407054	246902.06	648852.9	-0.0003038608
0	0.63971335	0.6397123	-2.2444074e-10	0.066750765	0.066750765	0	93948.305	93948.14	-3.15625e-05	648945.06	246652.8	-0.00013107722	246653.62	648944.3	-0.00020853193
0	0.63959867	0.63959754	-2.3154331e-10	0.0666094	0.0666094	0	93931.46	93931.305	-3.375e-05	649038.1	246399.17	-0.00020257388	246400.03	649037.44	-0.00014299333
0	0.6394856	0.6394844	-3.1677397e-10	0.06646817	0.06646817	0	93914.85	93914.69	-4.5625e-05	649131.1	246147.86	-0.0002502383	246148.69	649130.4	-0.00021970329
0	0.6393712	0.6393702	-2.2159972e-10	0.06632643	0.06632643	0	93898.055	93897.89	-2.9375e-05	649224.2	245894.72	-0.00011916111	245895.55	649223.44	-0.00011916111
0	0.63925695	0.6392558	-2.187587e-10	0.06618507	0.06618507	0	93881.27	93881.11	-3.375e-05	649317.1	245641.73	-0.00026215444	245642.56	649316.4	-9.532888e-05
0	0.639142	0.6391409	-4.2047127e-10	0.06604384	0.06604384	0	93864.38	93864.23	-6.28125e-05	649410.2	245387.78	-0.00026215444	245388.61	649409.5	-0.0003038608
0	0.63902617	0.6390251	-1.676203e-10	0.065902434	0.065902434	0	93847.39	93847.23	-2.5625e-05	649503.9	245131.94	-0.00011916111	245132.77	649503.06	-9.532888e-05
0	0.63891155	0.6389104	-3.6507133e-10	0.06576085	0.06576085	0	93830.555	93830.38	-5.625e-05	649596.94	244878.33	-0.00028598667	244879.17	649596.2	-0.00019065777
0	0.6387951	0.63879395	-4.2757384e-10	0.06561948	0.06561948	0	93813.45	93813.28	-6.34375e-05	649690.44	244621.78	-0.00030981886	244622.67	649689.75	-0.00029790276
0	0.6386791	0.6386781	-4.3041484e-10	0.06547824	0.06547824	0	93796.42	93796.25	-6.125e-05	649784.3	244365.64	-0.0002502383	244366.52	649783.6	-0.00035152526
0	0.638564	0.63856274	-3.068304e-10	0.065336525	0.065336525	0	93779.5	93779.336	-4.5e-05	649877.3	244111.34	-0.0002561964	244112.2	649876.5	-0.00020853193
0	0.6384472	0.6384461	-1.6619979e-10	0.06519514	0.06519514	0	93762.37	93762.19	-2.4375e-05	649970.94	243854.38	-8.341277e-05	243855.2	649970.2	-0.0001608675
0	0.6383302	0.638329	-2.3438432e-10	0.065053925	0.065053925	0	93745.18	93745.01	-3.75e-05	650064.9	243596.52	-0.00015490943	243597.34	650064.2	-0.00019065777
0	0.63821334	0.6382122	-4.4319945e-10	0.064912505	0.064912505	0	93728.01	93727.84	-6.5625e-05	650158.75	243339.03	-0.0003574833	243339.9	650157.94	-0.00028598667
0	0.63809615	0.63809496	-3.19615e-10	0.06477093	0.06477093	0	93710.8	93710.625	-4.78125e-05	650252.56	243081.16	-0.00020257388	243082.03	650251.8	-0.00023236415
0	0.6379788	0.6379776	-2.7273814e-10	0.06462956	0.06462956	0	93693.56	93693.39	-4.125e-05	650346	242823.39	-0.00013107722	242824.22	650345.25	-0.00026215444
0	0.63786054	0.6378594	-4.1194823e-10	0.06448818	0.06448818	0	93676.2	93676.03	-5.875e-05	650440.2	242563.7	-0.0003455672	242564.6	650439.4	-0.0002502383
0	0.63774186	0.6377407	-1.7188184e-10	0.0643466	0.0643466	0	93658.766	93658.6	-2.59375e-05	650534.6	242303.05	-0.00011916111	242303.95	650533.8	-0.00013703527
0	0.63762295	0.6376218	-3.4092265e-10	0.06420524	0.06420522	0	93641.305	93641.14	-5.21875e-05	650628.7	242042.61	-0.00019065777	242043.48	650628	-0.0002800286
0	0.6375039	0.6375026	-9.659475e-11	0.064063966	0.064063966	0	93623.805	93623.64	-1.53125e-05	650723.1	241781.36	-1.191611e-05	241782.22	650722.4	-0.00010128694
0	0.637386	0.63738495	-2.940458e-10	0.06392258	0.06392258	0	93606.52	93606.35	-4.125e-05	650817.1	241522.53	-0.0002502383	241523.44	650816.3	-0.00019661583
0	0.6372669	0.63726574	-7.244606e-11	0.06378101	0.06378101	0	93589.02	93588.836	-1.0625e-05	650911.06	241261.72	-7.1496666e-05	241262.6	650910.3	-7.7454715e-05
0	0.63714767	0.63714653	-3.068304e-10	0.06363963	0.06363963	0	93571.52	93571.336	-4.375e-05	651005.3	241000.58	-0.00020257388	241001.45	651004.56	-0.0002502383
0	0.63702756	0.63702637	-4.0342515e-10	0.06349824	0.06349825	0	93553.87	93553.69	-5.71875e-05	651100	240737.67	-0.0003455672	240738.55	651099.25	-0.00020853193
0	0.6369075	0.6369063	-3.3950215e-10	0.06335668	0.06335668	0	93536.234	93536.06	-5.03125e-05	651194.4	240475.27	-0.00021448999	240476.16	651193.56	-0.00024428027
0	0.6367879	0.6367867	-1.9603053e-10	0.06321527	0.06321527	0	93518.664	93518.5	-3.09375e-05	651288.3	240213.75	-3.5748333e-05	240214.69	651287.5	-0.00021448999
0	0.63666594	0.63666475	-8.523067e-12	0.06307404	0.06307404	0	93500.766	93500.58	4.6875e-07	651383.56	239947.8	-2.383222e-05	239948.73	651382.9	-3.5748333e-05
0	0.6365459	0.6365448	-2.6705607e-10	0.062932655	0.062932655	0	93483.14	93482.97	-4.15625e-05	651477.9	239685.58	-0.00021448999	239686.48	651477.1	-0.00019661583
0	0.6364224	0.63642114	-4.9717885e-10	0.062790945	0.062790945	0	93464.984	93464.81	-7.75e-05	651574.75	239415.6	-0.00040514776	239416.52	651574	-0.00033365109
0	0.6363031	0.636302	-3.579688e-10	0.062649705	0.062649705	0	93447.484	93447.31	-5.25e-05	651667.44	239156.11	-0.00020257388	239157	651666.6	-0.00028598667
0	0.6361806	0.6361794	-3.7785594e-10	0.06250833	0.06250833	0	93429.48	93429.31	-5.328125e-05	651762.6	238889.27	-0.0002264061	238890.22	651761.9	-0.0003455672
0	0.6360595	0.63605833	-4.7018917e-10	0.06236674	0.06236674	0	93411.7	93411.55	-6.5625e-05	651857.06	238625.48	-0.00028598667	238626.39	651856.3	-0.00033960916
0	0.63593626	0.635935	-1.0795884e-10	0.062225346	0.062225346	0	93393.59	93393.42	-1.65625e-05	651952.44	238357.33	-0.00015490943	238358.25	651951.6	-1.191611e-05
0	0.6358128	0.6358116	-4.1194823e-10	0.06208412	0.06208412	0	93375.48	93375.28	-6.296875e-05	652047.75	238089.28	-0.00039323166	238090.16	652047	-0.00016682554
0	0.63569057	0.6356893	-2.2444074e-10	0.061942413	0.061942417	0	93357.52	93357.34	-3.09375e-05	652142.56	237823.27	-9.532888e-05	237824.22	652141.8	-0.00022044804
0	0.6355676	0.63556635	-1.8324593e-10	0.06180102	0.06180102	0	93339.46	93339.28	-2.546875e-05	652237.6	237556.1	-0.00011916111	237557.02	652236.9	-0.000121767756
0	0.6354443	0.635443	-3.8069697e-10	0.06165979	0.06165979	0	93321.336	93321.164	-5.3125e-05	652332.9	237288.08	-0.00028598667	237289.02	652332.25	-0.0002264061
0	0.6353209	0.6353196	-2.698971e-10	0.061518367	0.061518367	0	93303.21	93303.03	-3.984375e-05	652428	237020.22	-0.00019661583	237021.17	652427.1	-0.00020257388
0	0.63519615	0.6351949	-1.2216396e-10	0.061376818	0.061376818	0	93284.91	93284.734	-1.875e-05	652523.75	236749.97	-0.00013107722	236750.92	652522.94	-6.553861e-05
0	0.6350714	0.63507015	-3.0398936e-10	0.061235435	0.061235435	0	93266.586	93266.4	-4.515625e-05	652619.1	236479.92	-0.00026215444	236480.86	652618.3	-0.00018469972
0	0.63494676	0.6349455	-4.0484566e-10	0.061094042	0.061094042	0	93248.266	93248.09	-6.15625e-05	652714.6	236209.83	-0.0003455672	236210.78	652713.9	-0.00024428027
0	0.63482225	0.63482094	-2.3864585e-10	0.0609525	0.0609525	0	93229.984	93229.8	-3.8125e-05	652810.25	235939.84	-7.1496666e-05	235940.8	652809.5	-0.00029790276
0	0.6346967	0.63469553	-2.5000996e-10	0.060811102	0.060811102	0	93211.56	93211.38	-3.703125e-05	652906	235668.47	-0.00020257388	235669.42	652905.25	-0.00018469972
0	0.6345712	0.63456994	-4.0484566e-10	0.06066984	0.06066984	0	93193.13	93192.95	-6e-05	653001.4	235397.39	-0.00036344136	235398.38	653000.56	-0.00019661583
0	0.6344456	0.6344443	-3.5228676e-10	0.060528446	0.060528446	0	93174.68	93174.51	-5.4375e-05	653096.8	235126.05	-0.00028598667	235127	653096.06	-0.0002681125
0	0.63431823	0.634317	-4.5740456e-10	0.060386896	0.060386896	0	93155.96	93155.78	-6.53125e-05	653193.2	234851.28	-0.00030981886	234852.23	653192.4	-0.00032769304
0	0.63419235	0.6341911	-3.4376368e-10	0.060245506	0.060245506	0	93137.48	93137.3	-5.09375e-05	653288.8	234579.47	-0.00023832222	234580.44	653288.06	-0.00023236415
0	0.6340659	0.6340647	-1.5057418e-10	0.060104124	0.060104124	0	93118.92	93118.73	-2.5625e-05	653384.7	234306.62	-0.00015490943	234307.58	653383.9	-9.495651e-05
0	0.6339377	0.6339364	-3.2813807e-10	0.05996258	0.05996258	0	93100.086	93099.91	-4.859375e-05	653481.25	234030.48	-0.0002502383	234031.44	653480.5	-0.00018469972
0	0.6338114	0.63381004	-2.7842018e-10	0.059821147	0.059821147	0	93081.54	93081.34	-4e-05	653576.56	233758.44	-0.0002502383	233759.44	653575.7	-0.00014299333
0	0.6336825	0.63368124	-2.954663e-10	0.059679918	0.059679918	0	93062.62	93062.42	-4.34375e-05	653673.3	233481.17	-0.00021448999	233482.16	653672.56	-0.0002264061
0	0.63355523	0.633554	-2.684766e-10	0.05953851	0.05953851	0	93043.914	93043.734	-4.1875e-05	653769.06	233207.27	-0.00021448999	233208.23	653768.25	-0.00019661583
0	0.6334271	0.63342583	-2.4858943e-10	0.059396826	0.059396826	0	93025.11	93024.914	-3.40625e-05	653865.2	232931.73	-0.00019065777	232932.77	653864.44	-0.00014299333
0	0.63329685	0.63329554	-1.4915366e-10	0.059255596	0.059255596	0	93005.98	93005.78	-1.65625e-05	653963.3	232651.27	-3.5748333e-05	232652.27	653962.5	-0.00011916111
0	0.6331691	0.63316786	-1.3921009e-10	0.059114188	0.059114188	0	92987.22	92987.02	-1.96875e-05	654058.25	232377.5	-0.000107244996	232378.5	654057.44	-7.7454715e-05
0	0.6330387	0.6330374	1.0937935e-10	0.058972627	0.058972627	0	92968.06	92967.875	1.6875e-05	654155.2	232097.89	0.00016682554	232098.88	654154.44	1.191611e-05
0	0.6329107	0.6329094	-1.4773315e-10	0.058831234	0.05883124	0	92949.28	92949.07	-2.1875e-05	654250.94	231823.11	-0.00015490943	231824.12	654250.06	-2.9790277e-05
0	0.6327786	0.63277733	-1.8892797e-10	0.058689985	0.05868999	0	92929.875	92929.68	-2.765625e-05	654349.5	231539.61	-0.00021448999	231540.62	654348.7	-7.1496666e-05
0	0.63265014	0.6326488	-1.8040491e-10	0.0585483	0.0585483	0	92911.016	92910.82	-2.84375e-05	654444.3	231264.94	-0.00011022402	231265.95	654443.5	-0.00011916111
0	0.6325198	0.6325184	-2.5285096e-10	0.058406904	0.058406904	0	92891.85	92891.67	-3.625e-05	654541.06	230985.61	-0.00016682554	230986.62	654540.2	-0.00020853193
0	0.6323884	0.63238704	-1.2642548e-10	0.058265664	0.058265664	0	92872.56	92872.36	-1.53125e-05	654637.9	230704.73	-0.00015490943	230705.77	654637.1	-1.7874167e-05
0	0.63225615	0.6322548	-3.6933287e-10	0.05812423	0.05812423	0	92853.15	92852.94	-5.21875e-05	654736.25	230421.36	-0.00033365109	230422.38	654735.4	-0.00019661583
0	0.6321258	0.63212436	-2.0739462e-10	0.057982713	0.057982713	0	92833.984	92833.79	-3.40625e-05	654831.9	230143.1	-0.00011916111	230144.12	654831	-0.00022193756
0	0.6319943	0.63199294	-3.977431e-10	0.057841305	0.057841305	0	92814.69	92814.5	-5.84375e-05	654928.56	229862.5	-0.00023832222	229863.55	654927.7	-0.0003455672
0	0.6318605	0.6318592	-1.8750747e-10	0.057699904	0.057699904	0	92795.05	92794.836	-2.890625e-05	655027.1	229576.61	-7.447569e-05	229577.66	655026.3	-0.00018469972
0	0.6317294	0.6317281	-5.255891e-10	0.057558395	0.057558388	0	92775.79	92775.6	-7.703125e-05	655122.75	229297.52	-0.0004647283	229298.56	655121.8	-0.0002800286
0	0.631597	0.63159555	-4.616661e-10	0.057416987	0.057416983	0	92756.336	92756.13	-6.890625e-05	655219.75	229014.94	-0.00030981886	229015.98	655218.9	-0.0003455672
0	0.63146317	0.6314618	-1.6193827e-10	0.05727571	0.05727571	0	92736.68	92736.484	-2.640625e-05	655317.2	228730.17	-0.00017874165	228731.23	655316.3	-0.00012511916
0	0.63133025	0.6313289	-2.187587e-10	0.0571343	0.0571343	0	92717.16	92716.95	-3.09375e-05	655414.2	228447.11	-0.00013107722	228448.16	655413.4	-0.00014299333
0	0.63119626	0.63119483	-5.241686e-10	0.05699279	0.05699279	0	92697.48	92697.27	-7.515625e-05	655511.5	228162.16	-0.0005243089	228163.2	655510.6	-0.00023832222
0	0.6310615	0.6310602	-3.4234318e-10	0.05685139	0.05685139	0	92677.68	92677.49	-4.90625e-05	655609.56	227875.45	-0.000321735	227876.52	655608.7	-0.00017874165
0	0.6309278	0.63092643	-2.762894e-10	0.056709986	0.05670998	0	92658.055	92657.85	-3.96875e-05	655706.56	227591.34	-0.00019065777	227592.39	655705.7	-0.00020257388
0	0.63079256	0.6307912	-2.3580485e-10	0.05656847	0.05656847	0	92638.195	92637.99	-3.421875e-05	655804.4	227304.16	-0.000107244996	227305.2	655803.5	-0.00023236415
0	0.63065785	0.63065636	-4.3041484e-10	0.05642703	0.05642703	0	92618.39	92618.195	-6.3125e-05	655902.06	227017.83	-0.00028300763	227018.89	655901.06	-0.0003574833
0	0.6305214	0.63052005	-4.3041484e-10	0.056285787	0.056285787	0	92598.38	92598.19	-5.9375e-05	656000.6	226728.36	-0.0003574833	226729.44	655999.75	-0.00022044804
0	0.6303856	0.6303842	-2.954663e-10	0.056144364	0.056144364	0	92578.43	92578.22	-4.0625e-05	656098.44	226440.27	-0.00029790276	226441.34	656097.56	-0.00016682554
0	0.630251	0.6302496	-3.5370726e-10	0.056002706	0.0560027	0	92558.664	92558.46	-5.25e-05	656194.5	226155.8	-0.00021448999	226156.89	656193.7	-0.00029790276
0	0.63011396	0.63011247	-2.2159972e-10	0.05586147	0.055861466	0	92538.53	92538.33	-3.09375e-05	656292.8	225865.5	-0.00016682554	225866.58	656292	-0.00013703527
0	0.62997735	0.629976	-2.7699967e-10	0.055720054	0.05572005	0	92518.484	92518.27	-4.0859373e-05	656390.75	225576.48	-0.00023832222	225577.58	656389.9	-0.00013703527
0	0.6298408	0.62983936	-2.9120478e-10	0.05557856	0.05557856	0	92498.414	92498.2	-4.359375e-05	656488.2	225287.77	-0.00026215444	225288.86	656487.3	-0.00017874165
0	0.6297026	0.62970126	-4.2899434e-10	0.055437103	0.055437103	0	92478.13	92477.92	-6.625e-05	656586.6	224995.95	-0.0002502383	224997.08	656585.75	-0.0004111058
0	0.6295653	0.62956387	-4.716097e-10	0.05529586	0.05529586	0	92457.96	92457.75	-6.765625e-05	656684.5	224705.81	-0.00033365109	224706.92	656683.6	-0.0003455672
0	0.629427	0.6294255	-1.8892797e-10	0.055154454	0.055154454	0	92437.64	92437.43	-3.171875e-05	656782.56	224414.06	-0.00017874165	224415.17	656781.7	-0.00013107722
0	0.6292885	0.6292871	-2.2302024e-10	0.05501279	0.05501279	0	92417.29	92417.09	-3.25e-05	656881.06	224121.7	-0.00019065777	224122.84	656880.2	-0.00012511916
0	0.629149	0.6291476	-4.4035844e-11	0.054871544	0.054871544	0	92396.83	92396.625	-6.875e-06	656979.44	223828.05	-3.5748333e-05	223829.14	656978.56	-4.1706386e-05
0	0.62901103	0.6290096	-2.3722535e-10	0.05473012	0.05473012	0	92376.555	92376.34	-3.46875e-05	657077.25	223537.05	-0.00019065777	223538.17	657076.44	-0.00020257388
0	0.628871	0.6288696	-3.082509e-10	0.054588605	0.054588605	0	92356.016	92355.79	-4.6875e-05	657176.06	223242.34	-0.00020257388	223243.5	657175.1	-0.0002502383
0	0.62873167	0.62873024	-2.9262529e-10	0.05444718	0.05444719	0	92335.53	92335.33	-4.609375e-05	657274.2	222949.02	-0.00015490943	222950.12	657273.3	-0.0002800286
0	0.6285908	0.6285894	-4.076867e-10	0.05430595	0.05430595	0	92314.85	92314.64	-6.21875e-05	657373.2	222652.77	-0.00023832222	222653.86	657372.4	-0.0003574833
0	0.6284506	0.6284491	-6.44912e-10	0.054164287	0.054164287	0	92294.25	92294.03	-9.1875e-05	657471.8	222357.94	-0.0005243089	222359.1	657470.94	-0.00041706386
0	0.6283097	0.62830836	-1.8750747e-10	0.05402286	0.05402286	0	92273.57	92273.36	-2.78125e-05	657570.3	222062.19	-0.00011916111	222063.33	657569.44	-0.00014299333
0	0.6281688	0.62816745	-2.5000996e-10	0.053881623	0.053881623	0	92252.875	92252.664	-3.375e-05	657668.75	221766.55	-0.00027407054	221767.7	657667.9	-9.532888e-05
0	0.6280271	0.6280256	-1.6051775e-10	0.053740162	0.053740162	0	92232.06	92231.84	-2.28125e-05	657767.6	221469.14	-0.00013107722	221470.31	657766.75	-0.00011916111
0	0.6278848	0.6278834	-3.352406e-10	0.053598683	0.053598683	0	92211.17	92210.96	-4.9375e-05	657866.8	221170.84	-0.00021448999	221172	657865.94	-0.00029790276
0	0.62774295	0.6277415	-8.274477e-11	0.053457264	0.053457264	0	92190.33	92190.12	-1.1875e-05	657965.25	220873.75	5.9580554e-05	220874.89	657964.44	-0.00022044804
0	0.62760025	0.6275988	-2.1023563e-10	0.05331584	0.05331584	0	92169.38	92169.16	-3.3125e-05	658064.25	220574.92	-0.00017874165	220576.06	658063.4	-0.00011916111
0	0.62745744	0.627456	-1.1364089e-10	0.053174376	0.053174376	0	92148.4	92148.18	-1.71875e-05	658163.1	220276.11	2.383222e-05	220277.28	658162.2	-0.00016682554
0	0.62731403	0.62731254	-4.6734816e-10	0.053032946	0.053032946	0	92127.34	92127.12	-6.71875e-05	658262.06	219976.44	-0.00028747617	219977.61	658261.1	-0.0003455672
0	0.62717015	0.62716866	-5.397942e-10	0.052891657	0.052891657	0	92106.195	92105.98	-7.96875e-05	658361.5	219675.44	-0.00047664443	219676.62	658360.56	-0.00030981886
0	0.6270249	0.6270234	-3.3239958e-10	0.052750226	0.052750226	0	92084.87	92084.66	-4.765625e-05	658461.94	219371.62	-0.00021448999	219372.81	658461.06	-0.00024428027
0	0.62688065	0.6268791	-5.298506e-10	0.05260877	0.052608766	0	92063.68	92063.48	-7.921875e-05	658561.06	219070.64	-0.00039323166	219071.81	658560.2	-0.0003574833
0	0.62673694	0.6267354	-1.2358446e-10	0.052467342	0.052467342	0	92042.586	92042.375	-1.828125e-05	658658.94	218771.55	-0.00016682554	218772.72	658658.06	-3.5748333e-05
0	0.6265919	0.6265904	-4.0626616e-10	0.052325904	0.052325904	0	92021.28	92021.055	-6.09375e-05	658758.4	218469.08	-0.0003574833	218470.28	658757.44	-0.0002561964
0	0.6264462	0.62644476	-8.2389644e-11	0.05218445	0.05218445	0	91999.89	91999.664	-8.59375e-06	658858	218165.47	-6.255958e-05	218166.64	658857.1	-5.3622498e-05
0	0.6262996	0.6262981	-2.0171258e-10	0.052042987	0.052042987	0	91978.36	91978.14	-2.9375e-05	658957.56	217860.69	-0.00015490943	217861.86	658956.7	-0.00016682554
0	0.6261531	0.62615156	-1.4347162e-10	0.051901728	0.051901728	0	91956.85	91956.625	-2.09375e-05	659058.25	217554.97	-0.000107244996	217556.17	659057.3	-8.937083e-05
0	0.6260074	0.6260059	-1.5199468e-10	0.051760294	0.051760297	0	91935.445	91935.234	-2.65625e-05	659156.8	217252.31	-8.043375e-05	217253.52	659155.8	-0.00014299333
0	0.6258605	0.625859	-4.8297377e-10	0.051618665	0.051618665	0	91913.88	91913.66	-7.25e-05	659256.25	216947.28	-0.000321735	216948.5	659255.3	-0.000321735
0	0.62571317	0.6257117	-1.6051775e-10	0.05147743	0.05147743	0	91892.234	91892.01	-2.796875e-05	659355.9	216641.31	-0.00015490943	216642.53	659355.06	-0.00012511916
0	0.62556577	0.6255642	-3.7501494e-10	0.051335983	0.051335983	0	91870.586	91870.375	-5.4375e-05	659455.25	216335.56	-0.00026215444	216336.8	659454.44	-0.00027407054
0	0.625417	0.6254155	-3.2671754e-10	0.051194496	0.051194493	0	91848.74	91848.52	-4.96875e-05	659555.6	216026.9	-0.00021448999	216028.16	659554.7	-0.0002561964
0	0.6252691	0.62526757	-2.5853303e-10	0.051053066	0.051053066	0	91827.02	91826.8	-3.71875e-05	659655.3	215720.27	-0.00016682554	215721.47	659654.4	-0.00015490943
0	0.6251199	0.62511843	1.27846e-11	0.050911807	0.050911807	0	91805.1	91804.89	9.375e-07	659755.44	215411.16	-2.2342707e-05	215412.39	659754.6	4.766444e-05
0	0.6249708	0.6249693	-4.957584e-10	0.050770186	0.050770186	0	91783.21	91782.984	-7.15625e-05	659855.5	215102.38	-0.0003455672	215103.6	659854.56	-0.0003574833
0	0.6248211	0.6248195	-2.4148689e-10	0.050628755	0.050628755	0	91761.23	91761	-3.625e-05	659955.56	214792.72	-0.00026215444	214793.95	659954.6	-7.7454715e-05
0	0.624671	0.6246695	-4.3467638e-10	0.05048749	0.050487496	0	91739.195	91738.96	-6.46875e-05	660055.9	214482.31	-0.00044089608	214483.53	660055	-0.00019065777
0	0.62452066	0.62451905	-4.602456e-10	0.050346017	0.050346017	0	91717.1	91716.875	-6.375e-05	660156.06	214171.6	-0.00030981886	214172.88	660155.1	-0.00036418613
0	0.6243701	0.62436855	-2.4148689e-10	0.050204586	0.05020459	0	91695	91694.77	-3.671875e-05	660256.06	213860.89	-0.00015490943	213862.16	660255.1	-0.0001727836
0	0.6242188	0.6242172	-4.1478923e-10	0.050063144	0.05006314	0	91672.78	91672.55	-6.09375e-05	660356.6	213548.52	-0.00038131553	213549.78	660355.7	-0.00027407054
0	0.62406754	0.624066	-2.826817e-10	0.0499217	0.0499217	0	91650.56	91650.33	-4.21875e-05	660456.7	213236.53	-0.00011916111	213237.78	660455.8	-0.0002502383
0	0.6239156	0.62391406	-4.2757384e-10	0.04978028	0.04978028	0	91628.25	91628.02	-6.34375e-05	660557.1	212923.47	-0.0002800286	212924.72	660556.2	-0.0002919447
0	0.62376297	0.62376136	-4.3183537e-10	0.049638826	0.049638826	0	91605.81	91605.586	-6.90625e-05	660657.94	212608.92	-0.00032620353	212610.17	660656.94	-0.0003038608
0	0.62360936	0.62360775	-3.0967143e-10	0.04949753	0.04949753	0	91583.27	91583.04	-4.875e-05	660759.56	212292.27	-0.0002502383	212293.53	660758.6	-0.00020257388
0	0.6234574	0.6234558	-2.3580485e-10	0.049356084	0.049356084	0	91560.95	91560.734	-3.6875e-05	660858.8	211980.33	-0.00012511916	211981.6	660857.94	-0.0002264061
0	0.6233042	0.6233026	-3.2955857e-10	0.049214657	0.049214657	0	91538.45	91538.22	-4.78125e-05	660959.4	211665.14	-0.00015490943	211666.47	660958.5	-0.0002800286
0	0.6231499	0.6231483	-4.8865584e-10	0.04907321	0.04907321	0	91515.805	91515.56	-7.078125e-05	661060.3	211348.33	-0.0003574833	211349.62	661059.4	-0.000321735
0	0.6229945	0.6229928	-1.6335877e-10	0.048931774	0.048931774	0	91492.95	91492.734	-2.421875e-05	661162.56	211028.39	-8.937083e-05	211029.7	661161.56	-0.00014299333
0	0.6228413	0.62283975	-1.9603053e-10	0.04879036	0.04879036	0	91470.47	91470.234	-2.59375e-05	661261.9	210714.66	-0.00012511916	210715.97	661260.94	-0.00014783425
0	0.62268627	0.6226847	-3.9064055e-10	0.048648857	0.048648857	0	91447.7	91447.47	-5.59375e-05	661362.6	210396.81	-0.00042302193	210398.12	661361.75	-0.00010128694
0	0.62253064	0.62252915	-3.7785594e-10	0.04850761	0.04850761	0	91424.85	91424.625	-5.3203126e-05	661463.75	210078	-0.0002681125	210079.28	661462.8	-0.0002502383
0	0.6223749	0.6223732	-1.9176899e-10	0.048366148	0.048366144	0	91401.98	91401.734	-2.875e-05	661564.6	209758.81	-0.00016682554	209760.11	661563.7	-0.00011916111
0	0.62221724	0.62221557	-2.301228e-10	0.04822455	0.04822455	0	91378.81	91378.58	-3.0625e-05	661666.3	209436.5	-0.00015490943	209437.84	661665.3	-0.00013703527
0	0.6220617	0.62206006	-4.1905077e-10	0.048083294	0.048083294	0	91355.98	91355.74	-6.4375e-05	661767.06	209117.98	-0.000321735	209119.3	661766.1	-0.00030981886
0	0.6219045	0.62190276	-2.940458e-10	0.04794183	0.04794183	0	91332.9	91332.65	-4.09375e-05	661868.2	208796.77	-0.00019959486	208798.1	661867.25	-0.00020853193
0	0.6217474	0.62174577	-6.108198e-11	0.047800392	0.047800396	0	91309.836	91309.586	-1.09375e-05	661969.25	208475.73	-0.000107244996	208477.08	661968.4	1.191611e-05
0	0.6215874	0.6215857	-1.5909724e-10	0.047658946	0.047658946	0	91286.336	91286.086	-2.125e-05	662072.4	208148.64	-0.000107244996	208149.97	662071.44	-8.937083e-05
0	0.621431	0.6214294	-2.826817e-10	0.047517676	0.047517676	0	91263.37	91263.12	-4.1875e-05	662172.2	207829.9	-0.00016682554	207831.27	662171.25	-0.0002502383
0	0.6212724	0.62127084	-1.4205111e-10	0.047376227	0.047376227	0	91240.06	91239.81	-2.03125e-05	662273.4	207506.64	-0.00013703527	207507.98	662272.4	-8.937083e-05
0	0.6211125	0.62111086	-2.4574842e-10	0.047234632	0.047234632	0	91216.586	91216.34	-3.328125e-05	662375.06	207181.05	-0.000321735	207182.4	662374.1	-1.7874167e-05
0	0.62095404	0.6209524	-4.091072e-10	0.047093365	0.047093365	0	91193.31	91193.08	-6.03125e-05	662476.2	206858.11	-0.00028300763	206859.42	662475.4	-0.000321735
0	0.6207931	0.62079144	-5.11384e-10	0.046951856	0.046951856	0	91169.67	91169.44	-7.5625e-05	662578.25	206530.75	-0.00044089608	206532.11	662577.3	-0.00028598667
0	0.6206328	0.62063116	-3.3808165e-10	0.04681048	0.046810478	0	91146.15	91145.89	-4.875e-05	662679.75	206204.9	-0.000321735	206206.27	662678.75	-0.00017874165
0	0.6204728	0.6204711	-5.08543e-10	0.046669014	0.046669014	0	91122.64	91122.39	-7.46875e-05	662781.4	205879.17	-0.00047962344	205880.55	662780.5	-0.0002919447
0	0.6203102	0.6203085	-2.2728178e-10	0.046527762	0.046527762	0	91098.75	91098.51	-3.3125e-05	662883.75	205549.16	-0.00021448999	205550.55	662882.75	-0.00012511916
0	0.6201494	0.6201477	-3.1677397e-10	0.04638618	0.04638618	0	91075.13	91074.89	-4.4375e-05	662985.06	205222.69	-0.00036344136	205224.05	662984.2	-0.00013107722
0	0.6199879	0.61998624	-2.1591769e-10	0.04624471	0.04624471	0	91051.43	91051.18	-3.171875e-05	663086.7	204895.11	-0.00017874165	204896.47	663085.7	-0.00014299333
0	0.6198246	0.6198229	-4.1478923e-10	0.04610345	0.04610345	0	91027.44	91027.19	-6.1875e-05	663188.94	204564.03	-0.00024428027	204565.42	663188	-0.0003574833
0	0.619661	0.61965925	-2.2586126e-10	0.045961935	0.045961928	0	91003.414	91003.16	-3.5625e-05	663291.44	204232.6	-0.00012511916	204233.94	663290.3	-0.00021597951
0	0.6194992	0.6194976	-1.4347162e-10	0.04582056	0.04582056	0	90979.66	90979.41	-1.90625e-05	663392.7	203904.86	-0.00013107722	203906.25	663391.7	-7.7454715e-05
0	0.6193341	0.6193324	-7.67076e-11	0.045679096	0.045679096	0	90955.41	90955.164	-6.71875e-06	663495.4	203570.98	-0.000107244996	203572.38	663494.4	1.7874167e-05
0	0.6191711	0.61916935	-4.0342515e-10	0.04553762	0.04553762	0	90931.45	90931.21	-5.609375e-05	663596.9	203241.14	-0.0002681125	203242.58	663595.94	-0.00030460558
0	0.6190069	0.61900514	-4.3467638e-10	0.045396265	0.045396265	0	90907.34	90907.09	-6.34375e-05	663698.94	202909.17	-0.00039323166	202910.55	663698.06	-0.00022044804
0	0.6188413	0.6188396	-5.454763e-10	0.04525479	0.04525479	0	90883.03	90882.77	-7.8125e-05	663801.6	202574.77	-0.00037833652	202576.19	663800.6	-0.00042897998
0	0.6186749	0.6186732	-1.1932293e-10	0.045113478	0.04511347	0	90858.6	90858.34	-1.4375e-05	663904.2	202239.3	-2.383222e-05	202240.73	663903.25	-0.00011916111
0	0.61851037	0.61850864	-1.1364089e-10	0.04497199	0.04497199	0	90834.42	90834.18	-1.296875e-05	664005.94	201907.11	-8.341277e-05	201908.55	664004.94	-5.3622498e-05
0	0.6183443	0.61834264	-2.2728177e-11	0.04483065	0.04483065	0	90810.04	90809.8	-4.6875e-06	664108	201572.5	1.7874167e-05	201573.95	664107.1	-3.5748333e-05
0	0.6181772	0.61817545	-2.4326252e-10	0.044689175	0.044689175	0	90785.51	90785.25	-3.5e-05	664210.8	201235.83	-0.00021448999	201237.28	664209.8	-0.00011618208