# t (s)	mx ()	my ()	mz ()	B_extx (T)	B_exty (T)	B_extz (T)	m_fullx (A/m)	m_fully (A/m)	m_fullz (A/m)	m_full.region1x (A/m)	m_full.region1y (A/m)	m_full.region1z (A/m)	m_full.region2x (A/m)	m_full.region2y (A/m)	m_full.region2z (A/m)
0	0.6409338	0.6409342	-1.7064729e-10	0.070709854	0.070709854	0	15375.919	15375.927	-4.4457884e-06	634957.1	262350.6	-0.00021681174	262350.2	634957.25	-4.263544e-05
0	0.6408321	0.6408316	-4.0023027e-10	0.07056971	0.07056971	0	15373.481	15373.466	-6.395027e-06	635030.9	262133.72	-0.00023131723	262134.17	635030.5	-0.00014188356
0	0.6407266	0.640726	-1.5130762e-10	0.07042712	0.07042712	0	15370.947	15370.932	-3.7609902e-06	635108.44	261908.31	-2.631587e-05	261908.83	635108.06	-0.00019316789
0	0.640619	0.6406184	-2.1537673e-10	0.070287034	0.070287034	0	15368.365	15368.352	-6.3252655e-06	635186.6	261679.53	-0.00016755756	261680.05	635186.1	-0.0002015721
0	0.6405126	0.6405118	-2.49991e-10	0.0701447	0.0701447	0	15365.8125	15365.795	-1.1869619e-05	635265	261452	-0.000279424	261452.53	635264.5	-0.00041326284
0	0.6404065	0.64040583	-3.091785e-10	0.0700046	0.0700046	0	15363.268	15363.252	-8.616729e-06	635342.9	261225.78	-0.00020691431	261226.25	635342.5	-0.00029594052
0	0.64029837	0.6402977	-1.8967297e-10	0.06986236	0.06986236	0	15360.674	15360.658	-7.0621913e-06	635421.25	260995.92	-0.0002410706	260996.48	635420.9	-0.00017106454
0	0.6401908	0.6401902	-5.1030995e-11	0.069720015	0.069720015	0	15358.094	15358.078	-5.0329777e-06	635499.94	260766.75	-0.00014606724	260767.28	635499.5	-0.00014764712
0	0.64008427	0.6400836	-3.3125397e-10	0.06957992	0.06957992	0	15355.537	15355.521	-7.568428e-06	635577.7	260539.81	-0.0001910243	260540.34	635577.3	-0.0002506538
0	0.6399759	0.63997525	-3.83554e-10	0.069437355	0.069437355	0	15352.9375	15352.922	-5.654168e-06	635655.94	260309.83	-0.00016022533	260310.33	635655.5	-0.00016974044
0	0.6398679	0.63986725	-1.2019122e-10	0.069297224	0.069297224	0	15350.347	15350.331	-4.2205315e-06	635734.25	260080.3	-0.0002118403	260080.81	635733.9	-3.4461358e-05
0	0.63975894	0.6397583	-1.9336477e-10	0.06915493	0.06915493	0	15347.731	15347.717	-6.36811e-06	635813.3	259848.69	-0.00014464634	259849.19	635812.9	-0.00022698366
0	0.6396519	0.6396511	-2.0958646e-10	0.06901481	0.06901481	0	15345.162	15345.148	-4.8513657e-06	635891.25	259620.72	-0.000103337276	259621.27	635890.94	-0.00017977857
0	0.6395421	0.6395413	-1.4634324e-10	0.06887121	0.06887121	0	15342.531	15342.514	-8.013526e-06	635969.8	259388.6	-0.00023963203	259389.14	635969.4	-0.00022802106
0	0.63943297	0.6394324	-2.6872068e-10	0.06873101	0.06873101	0	15339.912	15339.898	-8.22609e-06	636048.8	259156.89	-0.000106352774	259157.42	636048.3	-0.00037370514
0	0.63932484	0.6393242	-1.5717164e-10	0.068588786	0.068588786	0	15337.318	15337.305	-9.251565e-06	636126.7	258927.56	-0.0001416597	258928.06	636126.44	-0.00039824285
0	0.6392146	0.63921386	-2.4751873e-10	0.068448305	0.068448305	0	15334.675	15334.656	-1.4297779e-06	636205.44	258694.4	-3.0270954e-05	258694.9	636205.06	-5.316798e-05
0	0.63910633	0.6391057	-3.406177e-10	0.0683061	0.0683061	0	15332.076	15332.061	-8.592988e-06	636283.25	258465.12	-0.000156834	258465.62	636282.94	-0.0003446353
0	0.6389959	0.63899523	-1.7576868e-10	0.068165876	0.068165876	0	15329.428	15329.412	-1.0365497e-05	636361.94	258231.81	-0.00019836111	258232.33	636361.5	-0.0004065482
0	0.6388849	0.63888425	-3.6058864e-10	0.068023674	0.068023674	0	15326.766	15326.748	-8.963472e-06	636441.4	257996.94	-0.00026689726	257997.48	636440.94	-0.00025619275
0	0.6387756	0.6387749	-1.4413074e-10	0.067881495	0.067881495	0	15324.143	15324.128	-3.3173687e-06	636519.75	257765.61	-9.717445e-05	257766.16	636519.4	-9.642047e-05
0	0.638665	0.63866425	-3.1270075e-10	0.06774126	0.06774126	0	15321.49	15321.474	-6.8782624e-06	636598.4	257532.03	-0.00016889242	257532.58	636598	-0.00023250903
0	0.638554	0.6385533	-2.538194e-10	0.06759908	0.06759908	0	15318.826	15318.8125	-6.9109274e-06	636677.3	257297.84	-6.928084e-05	257298.38	636676.9	-0.00033402684
0	0.63844293	0.6384422	-4.9565047e-10	0.06745857	0.06745857	0	15316.162	15316.1455	-1.0511514e-05	636756.2	257063.34	-0.00034375497	257063.92	636755.75	-0.00026967566
0	0.63833225	0.63833153	-3.7418474e-10	0.0673164	0.0673164	0	15313.506	15313.489	-7.22002e-06	636834.2	256830.42	-0.00027496324	256831.03	636833.75	-0.00014638247
0	0.6382201	0.6382194	-5.1056925e-10	0.06717612	0.06717612	0	15310.814	15310.8	-4.03587e-06	636913.2	256594.39	-0.00018623236	256594.95	636912.75	-4.929282e-05
0	0.63810784	0.6381072	-2.0636443e-10	0.06703257	0.06703257	0	15308.123	15308.106	-8.164651e-06	636992.1	256358.36	-0.00019885218	256358.95	636991.7	-0.00027762027
0	0.63799673	0.63799614	-9.302958e-11	0.06689235	0.06689235	0	15305.461	15305.443	-5.1394113e-06	637070.75	256124.36	-9.711688e-05	256124.86	637070.25	-0.00020280873
0	0.6378831	0.6378825	-6.1540474e-11	0.06675015	0.06675015	0	15302.734	15302.717	-1.5156068e-06	637150.4	255885.56	-7.784538e-05	255886.06	637149.94	-1.0602344e-05
0	0.6377717	0.63777107	-1.7933692e-10	0.06660991	0.06660991	0	15300.0625	15300.044	-6.143078e-06	637229.25	255650.72	-0.00026618395	255651.31	637228.75	-9.231363e-05
0	0.63765913	0.6376584	-3.1378053e-10	0.06646746	0.06646746	0	15297.361	15297.344	-6.394951e-06	637307.9	255414.42	-0.00020602091	255414.97	637307.44	-0.00016717546
0	0.6375456	0.6375449	-4.1715614e-10	0.066327125	0.066327125	0	15294.633	15294.617	-9.753045e-06	637386.75	255176.52	-0.00023664722	255177.08	637386.3	-0.00033252066
0	0.6374322	0.6374316	-2.80802e-10	0.066185005	0.066185005	0	15291.917	15291.9	-4.959044e-06	637466.2	254938.44	-0.00017404166	254938.98	637465.8	-0.000115358074
0	0.6373197	0.63731897	-2.2425566e-10	0.06604292	0.06604292	0	15289.216	15289.198	-6.6091366e-06	637545.06	254701.95	-0.00016522057	254702.5	637544.6	-0.00022047524
0	0.637206	0.63720536	-3.2967679e-10	0.065902665	0.065902665	0	15286.487	15286.472	-6.3272746e-06	637623.56	254464.23	-0.00019656308	254464.78	637623.2	-0.00017268384
0	0.6370917	0.637091	-9.984873e-11	0.06576051	0.06576051	0	15283.748	15283.731	-2.9187154e-06	637703.2	254224.69	-0.00015930267	254225.28	637702.8	-1.1027634e-05
0	0.63697785	0.6369772	-3.6277464e-10	0.065620236	0.065620236	0	15281.016	15280.997	-8.131736e-06	637782.56	253985.89	-0.0002582871	253986.42	637782.06	-0.00021626447
0	0.6368631	0.6368624	-2.9103175e-10	0.06547782	0.06547782	0	15278.263	15278.247	-1.1530277e-05	637861.25	253746.56	-0.00021086156	253747.11	637860.8	-0.000462022
0	0.6367479	0.6367473	-3.5662456e-10	0.06533745	0.06533745	0	15275.5	15275.481	-6.4649785e-06	637940.94	253505.56	-0.00025425205	253506.11	637940.5	-0.00012303096
0	0.6366342	0.6366334	-3.278529e-10	0.065195374	0.065195374	0	15272.769	15272.752	-9.889716e-06	638020	253267.25	-0.00021888429	253267.8	638019.6	-0.0003582595
0	0.63651776	0.63651705	-2.8957234e-10	0.06505365	0.06505365	0	15269.977	15269.963	-7.156217e-06	638100.2	253024.17	-0.0001923439	253024.75	638099.75	-0.00022527842
0	0.6364034	0.6364026	-4.659749e-10	0.06491158	0.06491158	0	15267.232	15267.216	-7.994136e-06	638178.9	252785.3	-0.00011739689	252785.89	638178.4	-0.00034912463
0	0.63628775	0.636287	-2.0253374e-10	0.0647712	0.0647712	0	15264.456	15264.44	-7.879035e-06	638258.1	252544.1	-0.0002195404	252544.66	638257.7	-0.00024026411
0	0.63617176	0.6361709	-3.4211842e-10	0.06462915	0.06462915	0	15261.675	15261.658	-8.341517e-06	638337	252302.81	-0.00019012397	252303.39	638336.6	-0.00029666998
0	0.6360555	0.6360547	-3.0107655e-10	0.06448846	0.06448846	0	15258.888	15258.872	-7.5791672e-06	638416.56	252060.56	-0.00024026375	252061.11	638416.1	-0.00020204105
0	0.6359393	0.6359386	-3.3500147e-10	0.06434636	0.06434636	0	15256.1	15256.083	-6.2369204e-06	638496.2	251818.23	-0.00017011944	251818.83	638495.75	-0.00019385456
0	0.6358226	0.6358219	-3.147256e-10	0.06420602	0.06420602	0	15253.302	15253.283	-1.0009751e-05	638575.9	251575.22	-0.00028497598	251575.77	638575.5	-0.00029917283
0	0.63570607	0.6357053	-3.2694444e-10	0.06406402	0.06406402	0	15250.502	15250.486	-6.072783e-06	638655.2	251332.8	-0.00016101901	251333.38	638654.6	-0.00019337628
0	0.63558733	0.6355866	-2.2088453e-10	0.063922	0.063922	0	15247.656	15247.638	-4.0622317e-06	638735.56	251086.14	-0.0001299817	251086.72	638735.1	-0.00010708191
0	0.6354713	0.6354705	-1.3844477e-10	0.06378159	0.06378159	0	15244.872	15244.8545	-7.6401875e-06	638814.4	250844.8	-0.000283677	250845.34	638814	-0.00016218884
0	0.63535416	0.6353533	-2.8751412e-10	0.06363921	0.06363921	0	15242.061	15242.044	-4.5969755e-06	638893.6	250601.48	-0.00016352528	250602.06	638893.2	-0.00010474486
0	0.63523525	0.6352346	-1.8594919e-10	0.06349885	0.06349885	0	15239.213	15239.193	-8.088332e-06	638973.06	250355.78	-0.00017171401	250356.34	638972.56	-0.00030030464
0	0.6351175	0.63511676	-2.45636e-10	0.06335679	0.06335679	0	15236.383	15236.364	-1.1613484e-05	639052.8	250110.95	-0.00030897395	250111.55	639052.44	-0.00036876538
0	0.6349997	0.6349989	-1.8518734e-10	0.0632164	0.0632164	0	15233.558	15233.541	-6.389888e-06	639132.44	249866.62	-0.00021579649	249867.19	639131.94	-0.00015710438
0	0.6348803	0.63487965	-2.520075e-10	0.06307295	0.06307295	0	15230.695	15230.68	-6.6298935e-06	639212.1	249619.81	-0.00022736921	249620.38	639211.6	-0.00015953791
0	0.6347621	0.63476145	-2.48476e-10	0.06293256	0.06293256	0	15227.859	15227.841	-5.7192838e-06	639291.5	249374.9	-0.00026535263	249375.5	639290.94	-6.841318e-05
0	0.6346429	0.6346422	-4.3218742e-10	0.0627905	0.0627905	0	15225	15224.981	-7.4256227e-06	639371	249128.44	-0.00027676366	249129.06	639370.6	-0.00015658059
0	0.63452286	0.63452214	-2.702573e-10	0.062649734	0.062649734	0	15222.12	15222.104	-8.971161e-06	639451.2	248880.23	-0.00024375944	248880.83	639450.8	-0.00027977934
0	0.6344038	0.6344031	-1.9648677e-10	0.06250778	0.06250778	0	15219.264	15219.247	-1.9636598e-06	639531.1	248633.62	-9.5725525e-05	248634.22	639530.7	-1.8869674e-05
0	0.63428354	0.63428277	-2.3735255e-10	0.06236728	0.06236728	0	15216.378	15216.357	-5.0338813e-06	639610.75	248385.58	-0.00012083462	248386.2	639610.25	-0.00017293249
0	0.63416374	0.634163	-6.931751e-11	0.06222535	0.06222535	0	15213.506	15213.487	-5.616659e-06	639690.5	248138.25	-0.00020690697	248138.86	639689.94	-0.00012086985
0	0.6340431	0.63404244	-2.2998481e-10	0.06208344	0.06208344	0	15210.611	15210.594	-7.3461874e-06	639770.2	247889.61	-0.0001813511	247890.2	639769.7	-0.00024735747
0	0.63392204	0.6339213	-7.839114e-11	0.061942905	0.061942905	0	15207.705	15207.6875	-1.2798774e-08	639850.44	247639.73	-5.2709678e-05	247640.31	639849.94	5.196277e-05
0	0.6338014	0.6338007	-1.5602288e-10	0.061800998	0.061800998	0	15204.811	15204.794	-5.7465513e-06	639930.06	247391.33	-0.00020211918	247391.95	639929.5	-0.0001332379
0	0.63368016	0.63367933	-3.031805e-10	0.06166019	0.06166019	0	15201.903	15201.885	-4.697845e-06	640010.5	247141.17	-0.00026388996	247141.77	640009.9	-1.0266733e-05
0	0.63355905	0.63355833	-2.8971056e-10	0.06151828	0.06151828	0	15199	15198.981	-4.9447103e-06	640090.2	246892.05	-0.0002383757	246892.69	640089.6	-5.018756e-05
0	0.6334371	0.63343626	-2.6093996e-10	0.06137774	0.06137774	0	15196.072	15196.055	-3.1561656e-06	640169.94	246641.36	-3.1489468e-05	246641.98	640169.44	-0.00015269795
0	0.63331497	0.63331413	-1.131574e-10	0.061235856	0.061235856	0	15193.141	15193.122	-4.4838825e-06	640250.4	246389.9	-0.0001196073	246390.55	640249.9	-0.000142063
0	0.633193	0.6331921	-3.5012063e-10	0.061093815	0.061093815	0	15190.214	15190.195	-8.978024e-06	640330.2	246139.28	-0.00035686092	246139.88	640329.75	-0.00016707831
0	0.63307023	0.6330695	-2.9351593e-10	0.06095187	0.06095187	0	15187.271	15187.253	-6.76466e-06	640410.5	245887.25	-0.00015042261	245887.86	640410.06	-0.00024434918
0	0.6329477	0.63294697	-2.3858912e-10	0.06081137	0.06081137	0	15184.334	15184.3125	-6.7431947e-06	640490.4	245635.89	-0.00017954964	245636.48	640489.8	-0.00021396953
0	0.63282406	0.6328233	-5.2439213e-11	0.060669135	0.060669135	0	15181.367	15181.346	-4.8269285e-06	640570.5	245382.56	-0.00014491603	245383.16	640570.06	-0.00013677371
0	0.6327015	0.63270056	-2.8140565e-10	0.060528617	0.060528617	0	15178.424	15178.406	-5.652889e-06	640650.1	245131.28	-0.00012419095	245131.92	640649.7	-0.00020570015
0	0.6325782	0.63257736	-2.5522112e-10	0.0603867	0.0603867	0	15175.466	15175.447	-4.291833e-06	640730.2	244878.55	-0.00019328365	244879.11	640729.75	-5.717902e-05
0	0.6324536	0.63245285	-4.03815e-10	0.060244866	0.060244866	0	15172.477	15172.459	-6.407662e-06	640810.75	244623.66	-0.00025286246	244624.28	640810.4	-0.000121075704
0	0.6323299	0.6323291	-1.3377288e-10	0.06010433	0.06010433	0	15169.508	15169.49	-1.0833465e-05	640890.9	244370.34	-0.00029934014	244370.94	640890.4	-0.00033287887
0	0.63220483	0.63220406	-2.1467988e-10	0.05996244	0.05996244	0	15166.513	15166.489	-7.796598e-06	640971.3	244114.81	-0.00029373894	244115.42	640970.8	-0.00016125469
0	0.6320808	0.6320801	-3.881714e-10	0.059821885	0.059821885	0	15163.537	15163.518	-5.0758945e-06	641051.4	243861.17	-0.00023003918	243861.81	641050.9	-6.617973e-05
0	0.63195515	0.6319544	-3.4630368e-10	0.059679706	0.059679706	0	15160.5205	15160.502	-6.0754855e-06	641132.1	243604.45	-0.00028062065	243605.1	641131.6	-7.393235e-05
0	0.6318306	0.63182974	-3.411032e-10	0.059539147	0.059539147	0	15157.531	15157.513	-7.88047e-06	641212.2	243349.95	-0.0002187997	243350.55	641211.56	-0.00024108852
0	0.63170516	0.63170445	-2.58718e-10	0.05939726	0.05939726	0	15154.525	15154.506	-7.277324e-06	641292.3	243094.31	-0.0002310517	243094.94	641291.8	-0.00019363817
0	0.6315792	0.6315784	-2.2239832e-10	0.059255093	0.059255093	0	15151.503	15151.482	-9.73508e-06	641372.6	242837.66	-0.00024877503	242838.27	641372.1	-0.00031934446
0	0.63145316	0.6314523	-1.3850956e-10	0.059113316	0.059113316	0	15148.479	15148.461	-4.2640863e-06	641452.7	242581.17	-7.256661e-05	242581.8	641452.2	-0.00017627681
0	0.6313265	0.6313257	-2.7137723e-10	0.058972638	0.058972638	0	15145.44	15145.422	-4.1315357e-06	641533.56	242322.92	-0.00026531727	242323.56	641533.06	2.420923e-05
0	0.6312005	0.6311997	-9.133077e-11	0.058830876	0.058830876	0	15142.416	15142.396	-7.2833825e-07	641613.75	242066.31	-8.900085e-05	242066.94	641613.3	4.6496505e-05
0	0.63107306	0.6310721	-2.5508523e-10	0.058689874	0.058689874	0	15139.357	15139.339	-7.4247773e-06	641694.2	241807.44	-0.00026407267	241808.08	641693.6	-0.00016922224
0	0.63094676	0.6309459	-2.6763547e-10	0.058548026	0.058548026	0	15136.33	15136.311	-9.411051e-06	641774.56	241550.34	-0.0002962655	241551	641774.06	-0.00025294433
0	0.63081867	0.6308179	-3.2878375e-10	0.058407396	0.058407396	0	15133.256	15133.239	-9.334717e-06	641855.4	241290.22	-0.0001967168	241290.88	641854.9	-0.0003480383
0	0.63069046	0.63068956	-1.4318449e-10	0.05826568	0.05826568	0	15130.178	15130.158	-1.0025406e-06	641935.75	241030.2	-0.00012407759	241030.81	641935.2	6.557135e-05
0	0.63056356	0.63056266	-2.6809194e-10	0.058123965	0.058123965	0	15127.135	15127.115	-7.5180687e-06	642016.25	240772.08	-0.000255556	240772.73	642015.75	-0.00018318326
0	0.63043535	0.63043463	-3.8235587e-10	0.05798323	0.05798323	0	15124.061	15124.041	-7.196115e-06	642096.6	240512.25	-0.00030206837	240512.9	642096.1	-0.0001178823
0	0.630307	0.6303062	-3.774784e-10	0.057841532	0.057841532	0	15120.981	15120.963	-3.667085e-06	642176.94	240252.22	-0.00014624874	240252.83	642176.44	-6.775487e-05
0	0.6301775	0.6301768	-3.9967513e-10	0.057700448	0.057700448	0	15117.877	15117.856	-8.759266e-06	642257.94	239990.06	-0.00025030953	239990.72	642257.4	-0.00026086348
0	0.6300488	0.63004804	-2.329168e-10	0.057558686	0.057558686	0	15114.787	15114.768	-4.563671e-06	642338.1	239729.66	-0.00024730677	239730.3	642337.5	-1.9019815e-05
0	0.6299198	0.629919	-2.6032165e-10	0.057418007	0.057418007	0	15111.692	15111.674	-5.017535e-06	642418.5	239468.56	-0.00015284875	239469.17	642418	-0.0001399644
0	0.6297901	0.62978923	-1.2381783e-10	0.05727468	0.05727468	0	15108.581	15108.5625	-5.252785e-06	642499.2	239206.28	-0.00022917993	239206.97	642498.75	-7.7361925e-05
0	0.6296595	0.62965864	-1.5623304e-10	0.05713398	0.05713398	0	15105.45	15105.428	-5.1092097e-06	642580.5	238942.11	-0.00015772111	238942.77	642580.1	-0.000140442
0	0.6295298	0.629529	-3.6872483e-10	0.056992244	0.056992244	0	15102.338	15102.317	-5.1708084e-06	642661.2	238679.97	-6.7413865e-05	238680.62	642660.56	-0.00023434401
0	0.6293996	0.62939876	-3.242319e-10	0.056851108	0.056851108	0	15099.213	15099.192	-2.8226584e-06	642741.7	238417.06	-0.00010788325	238417.75	642741.2	-5.6841367e-05
0	0.62926877	0.62926793	-2.123773e-10	0.05670946	0.05670946	0	15096.076	15096.055	-1.0687605e-05	642822.2	238153.42	-0.00024476787	238154.1	642821.75	-0.00037893906
0	0.62913764	0.62913686	-1.0534905e-10	0.05656864	0.05656864	0	15092.932	15092.908	-3.035838e-06	642902.94	237889.08	-5.2022206e-05	237889.77	642902.5	-0.00012514312
0	0.6290065	0.6290056	-1.6107599e-10	0.05642701	0.05642701	0	15089.781	15089.763	-2.6413193e-06	642983.75	237624.72	-5.783977e-05	237625.4	642983.2	-9.6302254e-05
0	0.6288747	0.62887377	-6.250509e-11	0.056285422	0.056285422	0	15086.62	15086.6	-5.0102317e-06	643064.5	237359.44	-0.00013619023	237360.1	643063.9	-0.00015619674
0	0.6287427	0.6287419	-2.001696e-10	0.056144662	0.056144662	0	15083.456	15083.435	-5.6260164e-06	643145.4	237093.77	-0.00016728492	237094.45	643144.9	-0.00016103797
0	0.6286108	0.6286099	-3.090237e-10	0.056002956	0.056002956	0	15080.289	15080.269	-6.4679566e-06	643226	236828.45	-0.00022133275	236829.11	643225.44	-0.00015612405
0	0.62847817	0.62847733	-1.278696e-10	0.055861782	0.055861782	0	15077.109	15077.091	1.2271505e-06	643306.9	236561.98	-7.136478e-05	236562.67	643306.25	0.0001429788
0	0.6283452	0.6283443	-2.7431993e-10	0.055720203	0.055720203	0	15073.917	15073.896	-6.68383e-06	643388.1	236294.36	-0.00018152567	236295.06	643387.7	-0.00020852909
0	0.62821215	0.6282114	-2.0631553e-10	0.055579327	0.055579327	0	15070.727	15070.706	-5.5520454e-06	643468.8	236027.48	-0.00012233872	236028.17	643468.3	-0.00020166738
0	0.62807864	0.6280778	-1.5936906e-10	0.055437762	0.055437762	0	15067.525	15067.505	-3.789895e-06	643549.75	235759.7	-0.00022102383	235760.36	643549.25	-1.4674525e-07
0	0.627945	0.6279441	-2.7709185e-10	0.05529525	0.05529525	0	15064.315	15064.295	-7.787808e-06	643630.8	235491.45	-0.00021340397	235492.14	643630.25	-0.00024107663
0	0.6278109	0.62780994	-1.638313e-10	0.055153705	0.055153705	0	15061.1	15061.08	-5.50534e-06	643711.75	235222.73	-0.00012449238	235223.45	643711.3	-0.00019678811
0	0.6276773	0.6276764	-1.9541245e-10	0.055012755	0.055012755	0	15057.896	15057.875	-2.3767e-06	643792.25	234955.27	-0.00011048353	234955.95	643791.7	-2.821585e-05
0	0.6275422	0.62754124	-2.431878e-10	0.05487082	0.05487082	0	15054.653	15054.635	-1.0418449e-05	643873.44	234684.94	-0.00025796183	234685.6	643872.94	-0.0003500377
0	0.62740636	0.62740546	-2.6797115e-10	0.05472997	0.05472997	0	15051.3955	15051.375	-7.1156073e-06	643954.44	234413.8	-0.00021139199	234414.48	643953.9	-0.00020386041
0	0.6272716	0.6272707	-2.4449198e-10	0.054588366	0.054588366	0	15048.162	15048.143	3.2155404e-07	644035.25	234144.2	-8.339935e-05	234144.88	644034.8	0.00010216459
0	0.6271375	0.6271365	-3.7332332e-10	0.05444749	0.05444749	0	15044.943	15044.922	-7.6169695e-06	644116	233875.72	-0.00029606718	233876.4	644115.44	-0.0001484437
0	0.6270014	0.6270005	-1.9910902e-10	0.05430601	0.05430601	0	15041.68	15041.661	-3.7401928e-06	644197.06	233604.17	-0.00013852897	233604.86	644196.56	-7.97411e-05
0	0.62686574	0.6268649	-2.1034496e-10	0.05416443	0.05416443	0	15038.428	15038.406	-7.4625304e-06	644278.3	233333.12	-0.00023359974	233333.81	644277.7	-0.00020189838
0	0.62672865	0.6267278	-4.0116288e-10	0.054023527	0.054023527	0	15035.138	15035.115	-7.794146e-06	644359.6	233059.83	-0.00013798678	233060.52	644359	-0.00031686376
0	0.6265924	0.62659156	-1.4013404e-10	0.053881653	0.053881653	0	15031.869	15031.849	-3.1693555e-06	644440.75	232787.94	-0.000119904165	232788.62	644440.3	-6.5052984e-05
0	0.6264553	0.6264545	-2.711914e-10	0.053740732	0.053740732	0	15028.581	15028.558	-1.2821725e-06	644521.56	232515.11	-0.00016758022	232515.84	644521	9.275523e-05
0	0.6263185	0.6263176	-1.6948913e-10	0.05359921	0.05359921	0	15025.297	15025.276	-6.3668094e-06	644602.7	232242.53	-0.00027781373	232243.25	644602.06	-9.3740324e-05
0	0.62618095	0.62618005	-3.9871917e-10	0.053458266	0.053458266	0	15022	15021.977	-8.929698e-06	644683.75	231968.92	-0.00030057455	231969.62	644683.1	-0.00022054453
0	0.6260432	0.62604237	-4.6751014e-10	0.053315062	0.053315062	0	15018.693	15018.672	-1.2047671e-05	644764.94	231694.89	-0.0003832001	231695.6	644764.3	-0.0003198775
0	0.6259045	0.6259035	-2.9820138e-10	0.05317402	0.05317402	0	15015.367	15015.346	-7.2857147e-06	644846.2	231419.42	-0.00031127667	231420.12	644845.6	-0.00011390285
0	0.6257671	0.6257662	-2.2695652e-10	0.053032607	0.053032607	0	15012.072	15012.05	-6.6382986e-06	644926.8	231146.45	-0.00023193056	231147.17	644926.25	-0.00015546709
0	0.6256274	0.62562644	-3.2101352e-10	0.052891202	0.052891202	0	15008.719	15008.697	-4.9859204e-06	645008.5	230869.12	-0.00014859269	230869.88	645008	-0.0001423755
0	0.6254887	0.62548774	-4.3125042e-10	0.052749805	0.052749805	0	15005.391	15005.369	-6.822168e-06	645089.8	230593.62	-0.00027723017	230594.36	645089.25	-0.00012089771
0	0.6253487	0.62534785	-1.6750176e-10	0.05260872	0.05260872	0	15002.031	15002.013	-4.63099e-06	645171	230316.52	-9.589193e-05	230317.23	645170.5	-0.00017436326
0	0.62521005	0.6252092	-3.1358635e-10	0.05246734	0.05246734	0	14998.708	14998.6875	-1.3171668e-05	645251.8	230041.62	-0.0003058644	230042.36	645251.3	-0.00046280737
0	0.6250697	0.6250688	-3.2308642e-10	0.052325986	0.052325986	0	14995.339	14995.318	-7.065516e-06	645333.56	229763.27	-0.00017890366	229764.02	645333	-0.0002334255
0	0.6249301	0.62492913	-2.2701994e-10	0.052184872	0.052184872	0	14991.99	14991.969	-8.649918e-06	645414.25	229487.12	-0.00029287516	229487.86	645413.7	-0.00021191646
0	0.62478906	0.62478817	-4.72134e-10	0.05204354	0.05204354	0	14988.606	14988.583	-4.082548e-06	645495.56	229208.4	-0.00025724457	229209.16	645494.94	1.8995359e-05
0	0.624648	0.62464696	-3.8604908e-10	0.051902063	0.051902063	0	14985.224	14985.2	-1.00160505e-05	645577.3	228929.12	-0.00023808888	228929.88	645576.75	-0.0003464275
0	0.6245071	0.6245062	-4.705732e-10	0.05176075	0.05176075	0	14981.844	14981.822	-7.436759e-06	645658.25	228651.03	-0.0002376572	228651.77	645657.6	-0.000196337
0	0.62436557	0.6243647	-1.8372756e-10	0.05161957	0.05161957	0	14978.448	14978.425	-5.294313e-06	645739.3	228371.73	-0.00016844318	228372.45	645738.75	-0.00014052217
0	0.6242235	0.6242226	-2.8609465e-10	0.05147645	0.05147645	0	14975.037	14975.016	-8.72933e-06	645821.06	228090.98	-0.00026858711	228091.72	645820.5	-0.00024083885
0	0.62408185	0.62408096	-4.1745557e-10	0.051335365	0.051335365	0	14971.643	14971.619	-8.887035e-06	645902	227811.92	-0.00023751163	227812.64	645901.44	-0.0002811177
0	0.6239393	0.6239384	-2.6180516e-10	0.051193982	0.051193982	0	14968.224	14968.198	-4.9112145e-06	645983.3	227531	-0.00025187607	227531.78	645982.75	-3.4732428e-05
0	0.62379646	0.6237955	-2.6472302e-10	0.051052876	0.051052876	0	14964.795	14964.773	-6.6189887e-06	646064.6	227249.72	-0.00017240313	227250.45	646064.1	-0.00021386762
0	0.62365335	0.6236524	-8.916917e-11	0.05091117	0.05091117	0	14961.361	14961.339	-4.9093082e-06	646145.94	226968	-0.00015547276	226968.73	646145.25	-0.00013102448
0	0.6235102	0.6235093	-3.4046282e-10	0.050769925	0.050769925	0	14957.927	14957.904	-5.1130796e-06	646227.3	226686.22	-0.00021805135	226686.92	646226.7	-8.0337595e-05
0	0.6233662	0.62336516	-2.2404481e-10	0.05062868	0.05062868	0	14954.471	14954.45	-8.6725395e-06	646308.7	226403.16	-0.00020299862	226403.94	646308.1	-0.0003031132
0	0.623222	0.623221	-2.627221e-10	0.050487477	0.050487477	0	14951.013	14950.992	-4.986982e-06	646390.4	226119.62	-0.00019867845	226120.38	646389.8	-9.235168e-05
0	0.6230778	0.6230768	-2.9867178e-10	0.050346322	0.050346322	0	14947.553	14947.529	-6.375804e-06	646471.9	225836.22	-0.00017589415	225836.95	646471.3	-0.00019618482
0	0.62293273	0.6229318	-2.1060784e-10	0.050205022	0.050205022	0	14944.073	14944.05	-3.6983504e-06	646553.5	225551.55	-0.00024388917	225552.28	646552.94	2.8060955e-05
0	0.6227876	0.62278676	-3.6794e-10	0.05006385	0.05006385	0	14940.594	14940.568	-6.105382e-06	646635	225266.89	-0.00026078013	225267.67	646634.4	-9.551757e-05
0	0.62264276	0.6226418	-2.1621244e-10	0.04992218	0.04992218	0	14937.119	14937.097	-7.637593e-06	646715.94	224983.17	-0.00025493742	224983.88	646715.4	-0.00019077699
0	0.6224956	0.62249464	-3.3258352e-10	0.049780898	0.049780898	0	14933.586	14933.564	-7.921639e-06	646798.5	224694.6	-0.0002223324	224695.38	646797.9	-0.00023995839
0	0.6223484	0.6223475	-2.540483e-10	0.049639706	0.049639706	0	14930.057	14930.031	-5.6109643e-06	646880.4	224406.6	-0.0001512442	224407.39	646879.75	-0.0001762003
0	0.6222046	0.62220365	-2.377476e-10	0.049496647	0.049496647	0	14926.606	14926.581	-5.1650727e-06	646960.7	224124.95	-0.00023040661	224125.75	646960.1	-7.101655e-05
0	0.6220582	0.62205714	3.6294863e-11	0.049355462	0.049355462	0	14923.094	14923.07	-3.4432292e-06	647042	223838.72	-0.0001483208	223839.47	647041.4	-5.2619045e-05
0	0.6219111	0.6219101	-1.6178205e-10	0.049214177	0.049214177	0	14919.564	14919.541	-8.318158e-06	647123.56	223551.03	-0.00023992053	223551.86	647123	-0.00024551025
0	0.62176377	0.6217628	-3.7161035e-10	0.049072508	0.049072508	0	14916.031	14916.008	-5.056103e-06	647204.3	223264.14	-0.00033176382	223264.94	647203.75	3.66999e-05
0	0.6216166	0.6216157	-2.6634556e-10	0.048931316	0.048931316	0	14912.503	14912.479	-5.971705e-06	647286.1	222976.4	-0.00021203706	222977.23	647285.56	-0.0001364595
0	0.62146795	0.62146693	-1.6225586e-10	0.04879003	0.04879003	0	14908.932	14908.908	-4.165755e-06	647367.56	222686.67	-0.00015805525	222687.45	647366.94	-8.5049745e-05
0	0.62132025	0.6213193	-3.7848374e-10	0.048648838	0.048648838	0	14905.393	14905.369	-4.991866e-06	647449.2	222398.42	-0.00017652774	222399.22	647448.5	-0.0001147874
0	0.6211717	0.62117064	-2.519574e-10	0.04850767	0.04850767	0	14901.828	14901.805	-1.9206786e-06	647530.75	222108.88	-0.00014650953	222109.69	647530.2	3.4422632e-05
0	0.6210225	0.62102157	-3.9368245e-10	0.04836648	0.04836648	0	14898.25	14898.225	-1.067235e-05	647612.3	221818.48	-0.00033086154	221819.28	647611.7	-0.00029195513
0	0.6208726	0.6208717	-7.909765e-11	0.04822517	0.04822517	0	14894.653	14894.631	-7.72892e-06	647693.5	221527.45	-0.0002870535	221528.27	647692.9	-0.00016399054
0	0.62072366	0.6207227	-2.6535094e-10	0.048083518	0.048083518	0	14891.08	14891.057	-5.414005e-06	647775.56	221236.89	-0.00016116399	221237.7	647774.8	-0.00015478635
0	0.6205724	0.6205714	-2.497874e-10	0.04794232	0.04794232	0	14887.45	14887.428	-5.2153637e-06	647858	220942.56	-0.00011801603	220943.34	647857.5	-0.00018634202
0	0.62042165	0.6204206	-8.3968534e-11	0.04780102	0.04780102	0	14883.833	14883.81	-6.3839443e-06	647938.7	220650.78	-0.000233021	220651.6	647938.1	-0.000139533
0	0.6202711	0.62027	-2.0565234e-10	0.04765983	0.04765983	0	14880.219	14880.195	-7.846046e-06	648021.3	220357.25	-0.0002548763	220358.05	648020.7	-0.00020300304
0	0.6201218	0.6201207	-2.4655997e-10	0.047516864	0.047516864	0	14876.638	14876.614	-5.218677e-06	648101.56	220068.1	-0.0001798913	220068.9	648100.94	-0.00012466009
0	0.6199694	0.6199684	-1.1673829e-10	0.04737567	0.04737567	0	14872.984	14872.961	-4.234009e-06	648183.1	219773.28	-0.00019291199	219774.05	648182.6	-5.4176173e-05
0	0.61981905	0.61981803	-1.3978571e-10	0.04723435	0.04723435	0	14869.375	14869.354	-3.0238e-06	648264.75	219481.06	-8.3605686e-05	219481.89	648264.2	-9.285714e-05
0	0.6196674	0.61966646	-1.620648e-11	0.047092684	0.047092684	0	14865.739	14865.717	-4.175952e-06	648346.1	219187.42	-0.00010529758	219188.22	648345.56	-0.00013840251
0	0.6195133	0.6195123	-2.9371586e-10	0.046951488	0.046951488	0	14862.042	14862.018	-5.157729e-06	648429.2	218888.55	-0.00021378986	218889.34	648428.56	-8.7204724e-05
0	0.61936283	0.6193619	-3.228658e-10	0.046810202	0.046810202	0	14858.433	14858.408	-5.5203923e-06	648509.3	218597.9	-0.00017676696	218598.7	648508.6	-0.00014539194
0	0.61920965	0.6192085	-4.311197e-10	0.04666901	0.04666901	0	14854.756	14854.731	-7.0310853e-06	648591.2	218301.34	-0.00020506943	218302.17	648590.56	-0.00020525041
0	0.6190545	0.61905336	-2.7555053e-10	0.04652784	0.04652784	0	14851.036	14851.011	-8.183505e-06	648673.94	218001.55	-0.00024784848	218002.38	648673.25	-0.00022972426
0	0.6189017	0.61890066	-2.6560318e-10	0.046386525	0.046386525	0	14847.37	14847.346	-4.9902164e-06	648754	217707.58	-0.00023243383	217708.39	648753.4	-5.8785063e-05
0	0.6187485	0.6187475	-2.5157668e-10	0.046245333	0.046245333	0	14843.695	14843.67	-5.267605e-06	648835.9	217411.3	-0.00032881796	217412.14	648835.2	2.141122e-05
0	0.6185938	0.6185927	-2.0143204e-10	0.04610365	0.04610365	0	14839.982	14839.959	-5.171275e-06	648917.5	217112.98	-9.065399e-05	217113.81	648916.9	-0.00021113109
0	0.61843944	0.6184384	-7.6437766e-11	0.04596245	0.04596245	0	14836.281	14836.256	2.734114e-06	648999.06	216815.36	-0.00011194312	216816.17	648998.44	0.00027150047
0	0.618285	0.61828405	-1.9185009e-10	0.04582115	0.04582115	0	14832.576	14832.553	-8.339843e-06	649080.5	216517.78	-0.00021365774	216518.64	649079.9	-0.00027303857
0	0.6181274	0.6181264	-3.9182915e-10	0.045679953	0.045679953	0	14828.794	14828.769	-6.5963395e-06	649163.7	216213.86	-0.00021575716	216214.7	649163	-0.00016919184
0	0.61797273	0.6179716	-3.250211e-10	0.04553704	0.04553704	0	14825.083	14825.058	-1.2651474e-05	649244	215916.98	-0.00029416132	215917.83	649243.25	-0.00044415306
0	0.6178157	0.61781466	-2.7375494e-10	0.04539575	0.04539575	0	14821.317	14821.294	-8.483656e-06	649325.9	215615.28	-0.00020834056	215616.12	649325.3	-0.00028674837
0	0.61766076	0.6176598	-2.0429594e-10	0.045254562	0.045254562	0	14817.602	14817.575	-1.7038635e-06	649407.56	215316.77	-0.0001393297	215317.64	649406.9	3.9895687e-05