# t (s)	mx ()	my ()	mz ()	B_extx (T)	B_exty (T)	B_extz (T)	m_fullx (A/m)	m_fully (A/m)	m_fullz (A/m)	m_full.region1x (A/m)	m_full.region1y (A/m)	m_full.region1z (A/m)	m_full.region2x (A/m)	m_full.region2y (A/m)	m_full.region2z (A/m)
0	0.65138566	0.6513853	-3.475701e-10	0.070710704	0.070710704	0	136506.02	136505.95	-7.049036e-05	623128.94	288810.9	-0.00029911782	288810.9	623128.56	-0.00018475359
0	0.6511678	0.6511675	-2.3891164e-10	0.07035722	0.07035722	0	136460.36	136460.27	-5.047311e-05	623309.3	288325.4	-0.00012467674	288325.6	623309	-0.00021215143
0	0.65094405	0.65094376	-4.5146073e-10	0.07000352	0.07000352	0	136413.47	136413.39	-9.321845e-05	623495	287826.53	-0.0003388145	287826.72	623494.75	-0.00029673672
0	0.6507193	0.65071905	-2.7957583e-10	0.06965005	0.06965005	0	136366.39	136366.28	-5.9365928e-05	623681.5	287325.34	-0.00025406302	287325.53	623681.2	-0.00012647707
0	0.6504934	0.65049297	-2.550647e-10	0.06929643	0.06929643	0	136319.02	136318.92	-5.1722698e-05	623867.94	286822.6	-5.500237e-05	286822.78	623867.6	-0.0002673607
0	0.65026647	0.65026605	-1.9672029e-10	0.068942994	0.068942994	0	136271.45	136271.38	-4.1547835e-05	624053.8	286319	-0.00011908207	286319.2	624053.4	-0.00012971414
0	0.65003794	0.6500376	-2.262674e-10	0.06858929	0.06858929	0	136223.56	136223.48	-4.713074e-05	624240.9	285812.03	-7.4993695e-05	285812.2	624240.56	-0.00022753181
0	0.649806	0.64980555	-9.1191395e-11	0.06823583	0.06823583	0	136174.95	136174.88	-1.2739494e-05	624429.56	285298.62	-2.2265507e-05	285298.84	624429.2	-6.412798e-05
0	0.64957803	0.6495777	-3.5121647e-10	0.067882195	0.067882195	0	136127.22	136127.14	-7.416924e-05	624615	284794.1	-0.00022617854	284794.28	624614.6	-0.00026223733
0	0.64934474	0.6493444	-4.1130568e-11	0.06752872	0.06752872	0	136078.3	136078.22	-1.2167729e-05	624803.3	284279.2	1.8487694e-05	284279.4	624802.9	-8.740082e-05
0	0.6491119	0.64911145	-1.8297759e-10	0.06717502	0.06717502	0	136029.5	136029.42	-3.789715e-05	624991.06	283765.3	-0.000120786484	283765.5	624990.75	-0.00012456664
0	0.64887595	0.6488755	-1.0039355e-10	0.066821605	0.066821605	0	135980.05	135979.97	-2.0075895e-05	625179.4	283246.72	-0.00014367267	283246.9	625178.94	7.118064e-06
0	0.6486412	0.6486408	-2.9227634e-10	0.066468135	0.066468135	0	135930.86	135930.78	-6.216599e-05	625367.4	282730.03	-0.00018362411	282730.25	625367.06	-0.00023093386
0	0.6484018	0.6484013	5.991303e-11	0.06611443	0.06611443	0	135880.7	135880.62	1.2344867e-05	625556.5	282205.88	9.513857e-05	282206.06	625556.06	1.0320538e-05
0	0.6481654	0.648165	4.882877e-10	0.065760985	0.065760985	0	135831.17	135831.08	9.992077e-05	625744.94	281686.4	0.00031998	281686.6	625744.6	0.00040332085
0	0.6479252	0.6479248	-1.0288303e-10	0.06540732	0.06540732	0	135780.81	135780.72	-1.9478563e-05	625934.3	281160.72	-0.00014297252	281160.9	625933.9	2.0644087e-05
0	0.6476848	0.6476844	-3.2677736e-10	0.0650539	0.0650539	0	135730.44	135730.36	-6.934108e-05	626123.44	280635	-0.00018506222	280635.2	626123.06	-0.00028135563
0	0.64744276	0.6474422	-3.3893446e-10	0.064700216	0.064700216	0	135679.72	135679.61	-7.020525e-05	626313.25	280106.38	-0.00021400955	280106.56	626312.8	-0.0002594964
0	0.64719695	0.6471965	-2.224964e-10	0.06434676	0.06434676	0	135628.19	135628.1	-4.9444134e-05	626504.25	279571.16	-8.527212e-05	279571.4	626503.8	-0.00021936197
0	0.64695454	0.64695406	-8.8971115e-11	0.0639931	0.0639931	0	135577.4	135577.31	-1.8534105e-05	626692.9	279043.34	-1.8463503e-05	279043.6	626692.4	-0.00010070338
0	0.64670545	0.6467051	-4.781873e-10	0.06363964	0.06363964	0	135525.22	135525.12	-9.846372e-05	626883.5	278503.9	-0.00033281403	278504.1	626883.1	-0.00030736352
0	0.6464603	0.6464599	-2.393317e-10	0.06328595	0.06328595	0	135473.84	135473.73	-4.73584e-05	627073.75	277970.38	-0.00019772396	277970.62	627073.4	-0.00012195887
0	0.64621085	0.64621043	-1.3083734e-10	0.0629325	0.0629325	0	135421.56	135421.47	-2.9575329e-05	627264.2	277430.78	-6.302986e-05	277431	627263.75	-0.0001462913
0	0.64596033	0.6459599	-4.1844628e-10	0.06257904	0.06257904	0	135369.06	135368.95	-8.734626e-05	627455.7	276888.53	-0.0001914279	276888.75	627455.25	-0.00038151682
0	0.64570886	0.6457084	-2.0174584e-10	0.062225346	0.062225346	0	135316.36	135316.25	-4.1368556e-05	627646.9	276345.16	-7.42258e-05	276345.34	627646.56	-0.00018417159
0	0.64545614	0.64545566	-2.0602196e-10	0.06187191	0.06187191	0	135263.39	135263.3	-4.1407962e-05	627838.3	275800.06	-0.00015978771	275800.28	627837.9	-0.00011531822
0	0.64520156	0.6452012	-3.6735215e-10	0.061518222	0.061518222	0	135210.05	135209.95	-7.493462e-05	628030.06	275252	-0.0002729092	275252.2	628029.56	-0.00023479733
0	0.6449423	0.64494187	-1.7547695e-10	0.061164826	0.061164826	0	135155.73	135155.61	-3.798179e-05	628223.75	274695.28	-0.00012837524	274695.56	628223.3	-0.00011224708
0	0.6446884	0.64468795	-1.652426e-10	0.060811136	0.060811136	0	135102.53	135102.42	-3.1639353e-05	628413.94	274149.66	-9.101513e-05	274149.88	628413.5	-0.00010238585
0	0.6444296	0.6444291	9.0137585e-11	0.060457677	0.060457677	0	135048.28	135048.17	1.8417964e-05	628606.3	273594.94	0.0001432355	273595.16	628605.8	-7.411209e-06
0	0.6441693	0.64416873	-1.7426856e-10	0.06010401	0.06010401	0	134993.73	134993.62	-3.3981178e-05	628798.6	273038.12	-0.00017911335	273038.34	628798.2	-2.9050309e-05
0	0.64390737	0.6439069	-4.4895762e-10	0.05975055	0.05975055	0	134938.83	134938.73	-8.967304e-05	628991.8	272478.34	-0.00028872603	272478.56	628991.3	-0.00034071985
0	0.64364254	0.64364207	-4.3286666e-10	0.059396874	0.059396874	0	134883.34	134883.23	-9.1050395e-05	629184.9	271914.53	-0.00035232847	271914.78	629184.4	-0.00024755707
0	0.64338	0.64337957	-2.4895333e-10	0.059043404	0.059043404	0	134828.31	134828.22	-4.719905e-05	629378.3	271353.4	-0.00028449442	271353.7	629377.94	-5.2214527e-05
0	0.64311445	0.643114	-2.4829194e-10	0.05868994	0.05868994	0	134772.67	134772.6	-5.0363822e-05	629571.4	270788.56	-0.00019759564	270788.84	629571	-0.00015927413
0	0.64284635	0.6428458	-3.8218786e-11	0.05833627	0.05833627	0	134716.48	134716.38	-1.088969e-05	629765.7	270218.94	-4.906601e-05	270219.2	629765.2	-1.582975e-05
0	0.6425779	0.6425774	-4.3565537e-10	0.057982814	0.057982814	0	134660.22	134660.11	-9.050079e-05	629958.8	269649.97	-0.00039077885	269650.2	629958.4	-0.0002041831
0	0.6423074	0.642307	-3.5376035e-10	0.057629142	0.057629142	0	134603.55	134603.45	-7.627435e-05	630153.4	269076.9	-0.00021563152	269077.16	630152.8	-0.00028977668
0	0.6420344	0.6420338	-4.0897366e-10	0.057275668	0.057275668	0	134546.34	134546.2	-8.166137e-05	630346.8	268500.97	-0.00030692914	268501.25	630346.3	-0.00024374921
0	0.64176214	0.64176166	7.0701e-11	0.056922063	0.056922063	0	134489.28	134489.19	1.1888194e-05	630542.1	267924.75	6.898766e-05	267924.94	630541.56	7.749029e-05
0	0.6414873	0.64148676	-3.2258e-10	0.0565686	0.0565686	0	134431.7	134431.58	-6.7626024e-05	630736.7	267345.28	-0.0003290471	267345.56	630736.25	-0.00011706249
0	0.6412075	0.64120704	-6.9885003e-10	0.056214936	0.056214936	0	134373.08	134372.95	-0.00014419052	630932	266758.34	-0.00052846526	266758.56	630931.5	-0.0004352244
0	0.6409314	0.6409309	-6.224142e-11	0.05586146	0.05586146	0	134315.2	134315.1	-1.2476041e-05	631126.9	266176.88	-4.8891383e-05	266177.16	631126.44	-2.8221095e-05
0	0.6406533	0.64065284	-3.19584e-10	0.055507805	0.055507805	0	134256.9	134256.78	-6.686038e-05	631322	265592.4	-0.00016380411	265592.7	631321.44	-0.00027334053
0	0.64036924	0.6403687	-5.340138e-10	0.055154327	0.055154327	0	134197.38	134197.25	-0.00011248275	631517.8	264998.8	-0.00032271413	264999.06	631517.25	-0.00043025933
0	0.6400896	0.64008904	-3.9084538e-10	0.054800846	0.054800846	0	134138.77	134138.64	-8.406351e-05	631713	264412.03	-0.00028612712	264412.28	631712.6	-0.00025232785
0	0.63980174	0.63980126	2.8447422e-10	0.05444718	0.05444718	0	134078.47	134078.36	5.5387463e-05	631910.56	263811.62	0.0001473971	263811.97	631910.06	0.00025831783
0	0.63951874	0.63951814	-3.5651575e-11	0.054093722	0.054093722	0	134019.14	134019.03	-9.6411295e-06	632105.06	263220.88	-3.2516935e-05	263221.2	632104.5	-2.699426e-05
0	0.6392322	0.6392317	-1.7237077e-10	0.053740054	0.053740054	0	133959.11	133958.97	-3.7745842e-05	632301.06	262623.72	-0.00020957246	262624	632300.6	-4.11839e-05
0	0.63894296	0.6389423	-1.055662e-10	0.053386588	0.053386588	0	133898.47	133898.36	-2.0120378e-05	632497.75	262022.05	-0.000111565285	262022.33	632497.25	-9.802165e-06
0	0.6386513	0.6386508	-1.9422373e-10	0.053032987	0.053032987	0	133837.38	133837.25	-3.9883365e-05	632694.1	261417.47	-9.875619e-05	261417.73	632693.6	-0.00014171188
0	0.63836	0.6383594	-7.6395966e-11	0.05267951	0.05267951	0	133776.34	133776.2	-1.1836592e-05	632891.06	260812.69	-7.36962e-05	260812.98	632890.5	6.937881e-06
0	0.63806593	0.63806534	-4.742197e-10	0.05232584	0.05232584	0	133714.7	133714.56	-9.617743e-05	633087.7	260204.36	-0.0003361916	260204.6	633087.2	-0.00032706486
0	0.6377692	0.6377686	3.715437e-12	0.05197238	0.05197238	0	133652.52	133652.39	8.044252e-07	633285	259591.6	-1.8357329e-06	259591.9	633284.5	2.2578593e-05
0	0.63747233	0.63747174	-1.5967364e-10	0.051618718	0.051618718	0	133590.28	133590.17	-3.272257e-05	633482.3	258978.69	-0.000107777654	258978.98	633481.75	-0.000102652055
0	0.6371733	0.6371727	-4.897032e-10	0.05126525	0.05126525	0	133527.61	133527.48	-0.000101038975	633679.5	258362.62	-0.00041340364	258362.95	633679.06	-0.00027374137
0	0.6368708	0.6368702	1.285085e-10	0.05091175	0.05091175	0	133464.23	133464.12	2.6153852e-05	633877.56	257741.33	0.00018778483	257741.66	633877.06	1.9666297e-05
0	0.63656795	0.6365673	-6.896792e-11	0.0505581	0.0505581	0	133400.77	133400.62	-1.2907515e-05	634075.7	257119.12	-1.50542855e-05	257119.45	634075.06	-7.6351906e-05
0	0.6362664	0.6362657	-4.0058662e-10	0.050204627	0.050204627	0	133337.56	133337.42	-8.2974046e-05	634273.3	256499.2	-0.00023292727	256499.55	634272.75	-0.0003048888
0	0.63596165	0.63596106	-4.673286e-10	0.049850974	0.049850974	0	133273.72	133273.58	-9.180645e-05	634471.1	255874.78	-0.00030156132	255875.1	634470.6	-0.00033965654
0	0.63565195	0.63565135	-8.3173385e-11	0.049497493	0.049497493	0	133208.81	133208.69	-2.1418982e-05	634669.2	255243.22	-1.677428e-05	255243.55	634668.6	-0.00011047251
0	0.63534385	0.6353432	-5.244669e-10	0.049143914	0.049143914	0	133144.25	133144.11	-0.00011230387	634867.44	254613.56	-0.00038439475	254613.9	634866.94	-0.000406205
0	0.63503134	0.6350307	-6.406999e-10	0.04879043	0.04879043	0	133078.75	133078.62	-0.00013570154	635067.2	253976.3	-0.0005874221	253976.61	635066.7	-0.0003311049
0	0.63472086	0.63472027	-1.3327468e-10	0.04843677	0.04843677	0	133013.7	133013.56	-2.6671241e-05	635265.25	253343.69	6.311455e-05	253344.02	635264.7	-0.0002406865
0	0.63440675	0.6344062	-6.223019e-11	0.04808329	0.04808329	0	132947.88	132947.73	-1.1555124e-05	635463.5	252705.64	-0.00013303073	252705.97	635463	6.0183655e-05
0	0.6340904	0.63408977	-3.6608253e-10	0.04772965	0.04772965	0	132881.58	132881.44	-7.8571065e-05	635662.56	252063.72	-0.00032190344	252064.1	635661.94	-0.00017693378
0	0.633771	0.63377035	-3.1543537e-10	0.047376156	0.047376156	0	132814.64	132814.52	-6.3151914e-05	635862	251417.14	-0.0002534802	251417.52	635861.4	-0.00016375694
0	0.6334519	0.6334512	-5.6262654e-11	0.04702266	0.04702266	0	132747.78	132747.64	-8.881178e-06	636060.6	250771.78	5.3755425e-06	250772.1	636060.1	-7.906786e-05
0	0.6331303	0.6331296	-3.3884895e-10	0.046669014	0.046669014	0	132680.36	132680.22	-7.230976e-05	636260.4	250121.67	-0.00020230966	250122.02	636259.75	-0.00027499016
0	0.6328063	0.63280565	-3.9905257e-10	0.046315536	0.046315536	0	132612.45	132612.31	-8.3361185e-05	636460.06	249468.34	-0.00024900647	249468.69	636459.56	-0.00029697458
0	0.6324819	0.6324812	-1.7122742e-10	0.045961887	0.045961887	0	132544.48	132544.34	-3.7078804e-05	636659.25	248815.08	-9.047542e-05	248815.44	636658.6	-0.00013469545
0	0.632153	0.6321523	-3.8250111e-10	0.045608394	0.045608394	0	132475.56	132475.42	-7.884964e-05	636859.56	248154.22	-0.00021392896	248154.56	636859	-0.00032194264
0	0.63182503	0.6318243	-2.9303412e-10	0.04525483	0.04525483	0	132406.83	132406.69	-5.8818274e-05	637059.06	247495.61	-0.00022473061	247495.98	637058.5	-0.00015900847
0	0.6314939	0.6314932	-3.2669129e-10	0.044901334	0.044901334	0	132337.47	132337.31	-6.746742e-05	637258.2	246832.98	-0.00015297854	246833.36	637257.56	-0.0002965574
0	0.6311599	0.6311592	-1.5877238e-10	0.044547696	0.044547696	0	132267.42	132267.28	-3.4594148e-05	637459.25	246164.12	-0.00013039577	246164.5	637458.6	-9.342365e-05
0	0.6308257	0.63082504	-3.7480263e-10	0.04419421	0.04419421	0	132197.4	132197.25	-8.0401696e-05	637659.25	245496.4	-0.00026743964	245496.77	637658.56	-0.00025516274
0	0.6304894	0.63048875	-1.2556284e-10	0.04384058	0.04384058	0	132126.94	132126.78	-2.4831981e-05	637859.25	244825.58	-5.2078733e-05	244825.95	637858.56	-9.722182e-05
0	0.6301503	0.63014966	-1.5260676e-10	0.043487065	0.043487065	0	132055.89	132055.75	-3.404997e-05	638060	244150.06	-0.00014344235	244150.44	638059.44	-6.3561645e-05
0	0.62980914	0.6298084	-3.361611e-10	0.04313356	0.04313356	0	131984.38	131984.22	-6.4251704e-05	638260.7	243471.69	-0.00015524444	243472.06	638260.1	-0.00027120375
0	0.62946707	0.6294663	-2.3649802e-10	0.042779934	0.042779934	0	131912.69	131912.56	-5.0657414e-05	638461	242792.52	-0.00020794933	242792.89	638460.4	-0.00013016681
0	0.6291216	0.6291209	-1.7604701e-10	0.04242642	0.04242642	0	131840.27	131840.12	-3.864636e-05	638661.56	242108.23	-0.00010093174	242108.64	638660.94	-0.00014309074
0	0.62877256	0.6287718	-5.555781e-11	0.04207281	0.04207281	0	131767.14	131766.98	-1.34367865e-05	638863.6	241417.56	-4.8267815e-05	241417.97	638862.94	-2.3568275e-05
0	0.62842697	0.6284262	-4.4391886e-11	0.041719295	0.041719295	0	131694.73	131694.58	-9.492559e-06	639063.5	240733.84	2.729869e-05	240734.28	639062.9	-9.3097064e-05
0	0.62807584	0.6280751	-3.2094125e-10	0.041365758	0.041365758	0	131621.17	131621.02	-6.911452e-05	639264.5	240041.53	-0.00025917473	240041.92	639263.75	-0.00020569906
0	0.6277231	0.6277223	-2.646622e-10	0.041012242	0.041012242	0	131547.22	131547.08	-5.6814766e-05	639465.3	239346.53	-0.00015557959	239346.94	639464.7	-0.00024097832
0	0.62736875	0.6273679	-1.1994673e-10	0.040658627	0.040658627	0	131472.95	131472.78	-2.521211e-05	639666.56	238649.16	-0.0001224478	238649.6	639666	-3.1885298e-05
0	0.62701184	0.627011	-1.4285746e-10	0.040305126	0.040305126	0	131398.16	131398.02	-3.106408e-05	639867.6	237948.55	-0.000137946	237948.98	639866.9	-5.0789648e-05
0	0.62665284	0.62665206	-3.984425e-10	0.03995151	0.03995151	0	131322.94	131322.77	-8.41848e-05	640068.4	237245.19	-0.00025517342	237245.62	640067.7	-0.00031863584
0	0.62629175	0.62629086	-6.02459e-10	0.039597988	0.039597988	0	131247.27	131247.1	-0.00012843627	640270.1	236537.8	-0.00044705882	236538.2	640269.5	-0.00042294175
0	0.62592876	0.6259279	-1.578414e-10	0.03924446	0.03924446	0	131171.2	131171.05	-3.5052064e-05	640470.94	235828.94	-8.800723e-05	235829.36	640470.2	-0.00016306095
0	0.625564	0.62556314	-4.1889836e-10	0.03889085	0.03889085	0	131094.75	131094.58	-8.809862e-05	640672.6	235116.47	-0.0002499708	235116.92	640672	-0.00034228008
0	0.6251965	0.6251957	-2.983389e-10	0.03853732	0.03853732	0	131017.75	131017.58	-6.392338e-05	640874.3	234400.39	-0.00023301253	234400.88	640873.6	-0.00017704688
0	0.6248264	0.62482554	-2.0683426e-10	0.03818373	0.03818373	0	130940.19	130940.016	-4.569218e-05	641075.94	233680.47	-0.0002116332	233680.92	641075.3	-9.229455e-05
0	0.6244552	0.6244543	-3.0260652e-10	0.0378302	0.0378302	0	130862.39	130862.21	-6.42706e-05	641276.9	232959.84	-0.00030509572	232960.3	641276.25	-0.0001209219
0	0.62408155	0.6240806	2.7629397e-11	0.03747659	0.03747659	0	130784.08	130783.91	6.1405276e-06	641478.6	232235.02	-7.749764e-06	232235.5	641477.94	5.1348157e-05
0	0.6237057	0.6237048	-2.488146e-10	0.037123155	0.037123155	0	130705.31	130705.15	-5.3585718e-05	641680.1	231507.31	-0.00016220206	231507.78	641679.5	-0.00020265169
0	0.62332404	0.6233232	-3.3577538e-10	0.036769558	0.036769558	0	130625.34	130625.16	-7.177755e-05	641881.94	230771.17	-0.00024677982	230771.62	641881.4	-0.00023513265
0	0.622947	0.62294614	-1.9358122e-10	0.036416043	0.036416043	0	130546.33	130546.16	-3.9413488e-05	642083.5	230041.84	-0.00016720274	230042.34	642082.75	-8.5140106e-05
0	0.6225644	0.6225635	7.0354875e-11	0.036062438	0.036062438	0	130466.13	130465.95	1.457761e-05	642285.25	229304.28	7.4831216e-05	229304.73	642284.56	4.3166205e-05
0	0.62217945	0.62217855	-2.368217e-10	0.035708897	0.035708897	0	130385.484	130385.31	-4.8205813e-05	642486.75	228564.05	-0.00017768244	228564.52	642486.06	-0.00013872478
0	0.62178993	0.6217891	-1.5476177e-10	0.035355352	0.035355352	0	130303.87	130303.68	-2.7144208e-05	642689.25	227816.19	-0.000117466945	227816.7	642688.56	-5.592553e-05
0	0.6214025	0.6214017	-1.2551839e-10	0.03500176	0.03500176	0	130222.69	130222.49	-2.5804036e-05	642890.3	227072.72	-8.147412e-05	227073.23	642889.56	-9.480597e-05
0	0.6210075	0.6210066	-4.2202367e-10	0.034648214	0.034648214	0	130139.88	130139.695	-8.709705e-05	643093.4	226316.69	-0.00029375314	226317.2	643092.7	-0.0002596389
0	0.62061644	0.62061554	-2.8318498e-10	0.034294646	0.034294646	0	130057.94	130057.734	-5.867818e-05	643293.94	225568.55	-0.00022623519	225569.08	643293.1	-0.00013742216
0	0.62022	0.6202191	-9.8095636e-11	0.033941098	0.033941098	0	129974.85	129974.664	-2.180201e-05	643495.44	224812.03	-7.802229e-05	224812.55	643494.75	-4.740791e-05
0	0.6198216	0.6198207	-5.9151656e-11	0.03358751	0.03358751	0	129891.36	129891.17	-1.2662372e-05	643697.1	224052.6	-7.520915e-05	224053.11	643696.3	7.5929006e-06
0	0.61941624	0.6194154	-3.2189912e-10	0.033234067	0.033234067	0	129806.44	129806.24	-6.979271e-05	643899.3	223283.05	-0.00023969088	223283.6	643898.5	-0.00018363852
0	0.6190164	0.61901546	-4.0134054e-10	0.032880493	0.032880493	0	129722.625	129722.42	-8.2324885e-05	644100.56	222521.83	-0.00029245464	222522.39	644099.7	-0.00024897157
0	0.6186098	0.6186089	-5.1291354e-10	0.03252695	0.03252695	0	129637.42	129637.23	-0.00010172062	644302.2	221750.95	-0.0003244347	221751.5	644301.5	-0.00038208594
0	0.61820173	0.6182007	-1.0531347e-10	0.03217338	0.03217338	0	129551.875	129551.68	-1.8280933e-05	644504.3	220977.52	-7.9465426e-05	220978.08	644503.44	-3.291758e-05
0	0.6177875	0.61778647	-1.5982535e-10	0.03181982	0.03181982	0	129465.086	129464.9	-3.2486754e-05	644707.1	220194.77	-0.00011418321	220195.34	644706.3	-0.00011747958
0	0.61737764	0.6173767	-5.250081e-10	0.03146625	0.03146625	0	129379.2	129378.99	-0.000108507025	644907.5	219420.61	-0.0005060962	219421.19	644906.7	-0.00022729095
0	0.6169596	0.6169587	-2.8281488e-10	0.031112673	0.031112673	0	129291.6	129291.39	-5.618451e-05	645109.7	218633.19	-0.00017601172	218633.75	645108.9	-0.00018568564
0	0.61654377	0.61654276	-1.8070714e-10	0.030759111	0.030759111	0	129204.445	129204.234	-3.8221806e-05	645310.5	217850.17	-8.422277e-05	217850.77	645309.6	-0.0001617355
0	0.61612296	0.61612195	-2.9844438e-10	0.030405568	0.030405568	0	129116.26	129116.055	-6.282678e-05	645511.94	217059.56	-0.0002645126	217060.16	645511.06	-0.00017701373
0	0.6157	0.61569893	2.5205593e-10	0.030052004	0.030052004	0	129027.625	129027.414	5.6852252e-05	645712.8	216266.55	6.85893e-05	216267.14	645711.94	0.00032472823
0	0.6152716	0.6152706	-1.2516023e-10	0.029698437	0.029698437	0	128937.87	128937.65	-2.4713609e-05	645915.44	215464.34	-7.982157e-05	215464.92	645914.6	-7.19375e-05
0	0.6148452	0.61484414	-7.663302e-11	0.02934497	0.02934497	0	128848.516	128848.28	-1.8278266e-05	646116	214666.67	-0.00016474302	214667.3	646115.1	5.0723906e-05
0	0.6144137	0.6144127	-4.5108398e-10	0.028991407	0.028991407	0	128758.06	128757.86	-9.4660354e-05	646316.9	213861.66	-0.00027667574	213862.25	646316.06	-0.00033973297
0	0.6139774	0.61397636	2.2896189e-10	0.028637834	0.028637834	0	128666.64	128666.414	5.0571376e-05	646519.5	213048.28	8.117764e-05	213048.89	646518.6	0.00027813998
0	0.6135446	0.6135435	-2.6651162e-10	0.0282843	0.0282843	0	128575.94	128575.71	-5.5791326e-05	646719.06	212242.66	-7.916844e-05	212243.27	646718.2	-0.00029398204
0	0.61310554	0.6131044	-2.6212008e-10	0.02793073	0.02793073	0	128483.93	128483.68	-5.4105683e-05	646919.94	211427.08	-0.00017763865	211427.7	646919.1	-0.00018869396
0	0.61266476	0.6126637	1.8641734e-11	0.027577164	0.027577164	0	128391.555	128391.31	2.881009e-06	647120.6	210609.28	-4.841806e-05	210609.9	647119.8	8.881968e-05
0	0.61221945	0.61221826	-3.892931e-10	0.02722359	0.02722359	0	128298.24	128298	-8.3487335e-05	647320.5	209785.95	-0.0003356534	209786.62	647319.7	-0.00023013349
0	0.6117727	0.6117715	-5.495204e-11	0.026870027	0.026870027	0	128204.625	128204.38	-1.1293262e-05	647521.8	208959.33	-0.00019836184	208960.03	647520.9	0.00014079317
0	0.6113237	0.61132264	-2.021231e-10	0.026516493	0.026516493	0	128110.53	128110.29	-4.2514213e-05	647722.75	208129.75	-0.00016882998	208130.42	647721.9	-9.724942e-05
0	0.6108709	0.6108697	-7.783593e-11	0.02616292	0.02616292	0	128015.63	128015.38	-1.2915205e-05	647923.5	207295.03	-5.8880055e-06	207295.75	647922.6	-8.319288e-05
0	0.61041546	0.6104144	-9.269004e-11	0.025809359	0.025809359	0	127920.195	127919.95	-2.114049e-05	648123.06	206457.9	-0.000106199426	206458.61	648122.1	-2.303895e-05
0	0.60995615	0.609955	1.0739241e-11	0.025455875	0.025455875	0	127823.945	127823.695	5.67751e-07	648324.7	205613.25	-8.7419125e-05	205613.95	648323.8	8.55019e-05
0	0.60949767	0.6094964	-4.3865442e-10	0.025102314	0.025102314	0	127727.84	127727.6	-9.269324e-05	648523.3	204772.64	-0.00034012715	204773.33	648522.4	-0.00026631827
0	0.60903406	0.60903287	-2.161905e-10	0.024748746	0.024748746	0	127630.7	127630.46	-4.4542267e-05	648723.9	203923.08	-0.00021401526	203923.8	648722.94	-8.017869e-05
0	0.60856783	0.60856676	-3.071324e-10	0.024395214	0.024395214	0	127533.01	127532.75	-6.274703e-05	648923.75	203070.55	-0.00026315785	203071.23	648922.8	-0.00014409443
0	0.60809875	0.6080975	-3.764615e-10	0.024041645	0.024041645	0	127434.67	127434.42	-7.5967124e-05	649123.1	202214.3	-0.00025740662	202215	649122.1	-0.00025993786
0	0.60762334	0.6076222	-3.501275e-10	0.023688078	0.023688078	0	127335.086	127334.84	-7.089402e-05	649324.1	201347.97	-0.00019523627	201348.72	649323.1	-0.0002591068
0	0.6071515	0.60715026	-1.790673e-10	0.023334507	0.023334507	0	127236.18	127235.93	-3.6878988e-05	649522.3	200489	-0.00019486982	200489.8	649521.3	-4.6782916e-05
0	0.6066738	0.6066726	-5.863363e-10	0.022980943	0.022980943	0	127136.08	127135.82	-0.00012361105	649721.2	199621.27	-0.00042867204	199622.02	649720.4	-0.00039555063
0	0.60619354	0.6061923	2.10673e-10	0.022627415	0.022627415	0	127035.42	127035.17	4.3784206e-05	649919.7	198750.52	0.00015362685	198751.3	649918.6	0.00017334982
0	0.6057093	0.6057081	-1.4280219e-10	0.022273848	0.022273848	0	126933.97	126933.7	-2.7726184e-05	650118.06	197874.23	-4.4408047e-05	197875.05	650117.06	-0.00011959688
0	0.60522205	0.60522085	-1.9299694e-10	0.02192029	0.02192029	0	126831.875	126831.61	-4.0550105e-05	650317.56	196992.69	-0.00020497573	196993.45	650316.56	-3.99431e-05
0	0.60473174	0.6047305	-2.418146e-10	0.02156678	0.02156678	0	126729.09	126728.81	-5.0181803e-05	650516.3	196107.25	-0.00016208763	196108.05	650515.4	-0.00016831566
0	0.60423994	0.60423857	-8.0383006e-11	0.02121321	0.02121321	0	126626.03	126625.76	-1.4215246e-05	650714.1	195221	-0.00012225109	195221.78	650713	3.3433404e-05
0	0.60374093	0.6037396	-5.728476e-10	0.020859648	0.020859648	0	126521.46	126521.19	-0.000119722594	650913.6	194322.88	-0.00042490187	194323.69	650912.56	-0.00035753482
0	0.6032445	0.6032431	-2.4756436e-10	0.020506121	0.020506121	0	126417.41	126417.13	-5.158393e-05	651110.5	193430.95	-0.00020329817	193431.78	651109.5	-0.00014326707
0	0.6027429	0.60274154	-8.378877e-11	0.020152563	0.020152563	0	126312.32	126312.03	-1.9403364e-05	651307.3	192531.88	-7.14043e-05	192532.73	651306.25	-3.093792e-05
0	0.60223705	0.6022357	-2.1822402e-10	0.019798994	0.019798994	0	126206.32	126206.016	-4.6252866e-05	651504.4	191626.69	-7.292714e-05	191627.55	651503.25	-0.00020211181
0	0.60172975	0.6017284	-2.4976832e-10	0.019445425	0.019445425	0	126099.984	126099.695	-5.252082e-05	651701.7	190719.03	-0.00018473035	190719.86	651700.56	-0.00015741908
0	0.6012179	0.60121644	-1.9773058e-10	0.019091865	0.019091865	0	125992.71	125992.44	-4.3052423e-05	651899.3	189804.78	-0.00012881495	189805.69	651898.3	-0.00013518443
0	0.6007005	0.60069907	1.0435673e-10	0.018738296	0.018738296	0	125884.305	125884	2.7093327e-05	652097	188882.78	8.539082e-05	188883.64	652096	0.00010914283
0	0.6001848	0.60018337	-1.6380458e-10	0.018384779	0.018384779	0	125776.22	125775.94	-3.3364446e-05	652292.56	187965.25	-7.3351206e-05	187966.14	652291.44	-0.00012739659
0	0.59966105	0.5996595	1.451176e-10	0.018031219	0.018031219	0	125666.45	125666.15	2.9244464e-05	652489.94	187034.56	0.00010911923	187035.48	652488.9	0.000105936626
0	0.5991392	0.5991378	-4.667203e-10	0.017677676	0.017677676	0	125557.13	125556.82	-0.000100934165	652684.56	186109.44	-0.00023553026	186110.36	652683.5	-0.00039968302
0	0.59861076	0.5986093	-4.6225614e-11	0.017324107	0.017324107	0	125446.36	125446.05	-1.2414437e-05	652879.06	185175.02	-2.9237957e-05	185175.94	652877.94	-2.5019754e-05
0	0.598079	0.59807754	-4.990539e-10	0.016970549	0.016970549	0	125334.93	125334.62	-0.00010399448	653074.6	184235.11	-0.00039072862	184236.03	653073.44	-0.0003319989
0	0.597546	0.59754455	-1.9286502e-10	0.016617034	0.016617034	0	125223.234	125222.914	-3.8773556e-05	653270.7	183292.77	-9.74096e-05	183293.73	653269.56	-0.00016256016
0	0.5970062	0.59700453	-2.9822295e-10	0.016263476	0.016263476	0	125110.1	125109.766	-6.126592e-05	653464.8	182342.89	-0.00023778401	182343.86	653463.5	-0.00017689141
0	0.5964659	0.5964644	-1.32448e-10	0.01590991	0.01590991	0	124996.9	124996.57	-3.0595103e-05	653660.4	181390.92	-0.0001185146	181391.9	653659.25	-7.0003654e-05
0	0.59592086	0.5959194	-1.9572574e-10	0.015556336	0.015556336	0	124882.67	124882.34	-3.853549e-05	653854.75	180433.53	-0.00013846275	180434.53	653853.56	-9.1694965e-05
0	0.5953726	0.5953711	-2.817492e-10	0.015202784	0.015202784	0	124767.78	124767.445	-5.9210863e-05	654048.7	179472.06	-0.0003293915	179473.08	654047.44	-6.160736e-05
0	0.5948216	0.5948201	-1.2945812e-10	0.014849219	0.014849219	0	124652.3	124651.97	-2.4166558e-05	654241.9	178507.34	-8.7115135e-05	178508.38	654240.6	-5.9743914e-05
0	0.59426665	0.594265	3.753543e-11	0.014495703	0.014495703	0	124535.984	124535.65	6.461978e-06	654435.2	177537.02	-8.261756e-05	177538.05	654433.94	0.00014783998
0	0.5937084	0.5937069	-1.2369633e-10	0.01414215	0.01414215	0	124419.02	124418.69	-2.6788783e-05	654627.6	176563.14	-0.00012576075	176564.2	654626.44	-3.590071e-05
0	0.5931467	0.5931451	-2.3935912e-10	0.013788582	0.013788582	0	124301.31	124300.96	-4.9403236e-05	654819.06	175585.38	-0.00017462135	175586.42	654817.7	-0.00013663851
0	0.5925781	0.5925765	-2.1904152e-10	0.013435014	0.013435014	0	124182.17	124181.805	-4.3943568e-05	655013.44	174594.94	-0.0001561177	174596.02	655012.2	-0.00014785312
0	0.59200835	0.5920067	-1.3424445e-10	0.01308146	0.01308146	0	124062.74	124062.38	-2.7584498e-05	655205.44	173605.14	-0.00018505234	173606.27	655204.1	2.4169155e-06
0	0.59143454	0.5914329	-5.495822e-10	0.012727938	0.012727938	0	123942.516	123942.15	-0.000114958064	655397.2	172610.12	-0.0004298811	172611.22	655395.9	-0.0003388174
0	0.5908601	0.59085846	-2.0017832e-10	0.012374373	0.012374373	0	123822.12	123821.76	-4.0401515e-05	655587.1	171615.95	-0.00011347766	171617.06	655585.8	-0.00016329027
0	0.5902792	0.5902775	-2.1018597e-11	0.012020823	0.012020823	0	123700.4	123700.02	-3.1092493e-06	655778.06	170611.69	-2.065742e-05	170612.8	655776.75	2.1958144e-06
0	0.5896945	0.58969265	-2.9817826e-10	0.011667253	0.011667253	0	123577.83	123577.47	-6.223023e-05	655968.6	169602.38	-0.00032992885	169603.55	655967.4	-7.3588795e-05
0	0.58910555	0.5891037	-3.0442726e-10	0.011313708	0.011313708	0	123454.41	123454.05	-6.6208035e-05	656159	168587.47	-0.00019323766	168588.62	656157.7	-0.00024327602
0	0.5885141	0.5885123	-1.7822085e-10	0.010960145	0.010960145	0	123330.47	123330.11	-3.902349e-05	656346.94	167571.56	-0.00010334776	167572.75	656345.7	-0.00014077994
0	0.587917	0.5879151	-2.100646e-10	0.010606605	0.010606605	0	123205.35	123204.984	-4.3126067e-05	656538.1	166544.47	-0.00012760043	166545.66	656536.8	-0.00014082667
0	0.58731747	0.5873156	-1.4668383e-10	0.010253061	0.010253061	0	123079.73	123079.33	-2.6328098e-05	656726.8	165516.47	-0.00018259563	165517.7	656725.44	9.920378e-06
0	0.5867144	0.5867125	-1.5611971e-10	0.009899497	0.009899497	0	122953.336	122952.94	-2.5727353e-05	656914.94	164484.02	-0.00012746885	164485.28	656913.44	-5.6829394e-05
0	0.586107	0.58610517	-1.643392e-10	0.0095459325	0.0095459325	0	122826.05	122825.66	-3.3700962e-05	657102.75	163445.69	-0.00016456193	163446.95	657101.5	-8.404234e-05
0	0.5854946	0.5854927	-4.3599055e-11	0.009192389	0.009192389	0	122697.71	122697.31	-1.0782542e-05	657290.5	162400.64	-5.4289943e-05	162401.9	657289.1	1.812087e-06
0	0.58487916	0.58487725	-3.954432e-10	0.008838838	0.008838838	0	122568.76	122568.35	-7.910895e-05	657477.4	161352.23	-0.00031872874	161353.55	657475.94	-0.00021807927
0	0.5842601	0.5842582	-3.0715228e-10	0.008485274	0.008485274	0	122439.01	122438.59	-6.315903e-05	657663.44	160299.42	-0.00035841655	160300.72	657661.94	-6.77029e-05
0	0.58363503	0.5836331	-2.911304e-10	0.008131738	0.008131738	0	122308.01	122307.6	-5.9737333e-05	657850.44	159237.27	-0.00017817593	159238.6	657849	-0.00021757527
0	0.5830061	0.583004	-1.7307343e-10	0.007778168	0.007778168	0	122176.2	122175.77	-3.4008794e-05	658036.4	158170.7	-0.00026873013	158172.03	658035	3.549387e-05
0	0.58237654	0.5823745	-4.929829e-10	0.0074246093	0.0074246093	0	122044.29	122043.86	-0.00010356583	658219.06	157106.67	-0.0004345423	157108.03	658217.75	-0.00026346912
0	0.5817389	0.58173686	-1.7994865e-10	0.007071075	0.007071075	0	121910.66	121910.23	-3.8842554e-05	658405.8	156027.2	-0.00012559367	156028.58	658404.4	-0.00012722878