# t (s)	mx ()	my ()	mz ()	B_extx (T)	B_exty (T)	B_extz (T)	m_fullx (A/m)	m_fully (A/m)	m_fullz (A/m)	m_full.region1x (A/m)	m_full.region1y (A/m)	m_full.region1z (A/m)	m_full.region2x (A/m)	m_full.region2y (A/m)	m_full.region2z (A/m)
0	0.65506554	0.65506077	-4.4585594e-10	0.07071067	0.07071067	0	147857.61	147856.58	-9.650032e-05	634845.1	282242.6	-0.00024525318	282246.47	634842.56	-0.0003579905
0	0.65497565	0.6549738	-3.3975592e-10	0.07056918	0.07056919	0	147837.36	147836.95	-7.653061e-05	634934.4	282030.1	-0.00022547468	282031.47	634933.25	-0.00025712026
0	0.654884	0.65488255	-4.6212462e-10	0.07042789	0.07042789	0	147816.67	147816.33	-0.000105707906	635029.06	281807.56	-0.0003045886	281808.7	635028	-0.00034018987
0	0.6547916	0.6547901	-1.2967783e-11	0.070286386	0.070286386	0	147795.81	147795.48	-2.2321428e-06	635124.56	281582.56	-7.9113925e-06	281583.66	635123.6	2.1756328e-05
0	0.6546992	0.6546978	-3.0603967e-10	0.07014501	0.07014502	0	147774.97	147774.61	-6.632653e-05	635219.94	281357.78	-0.00023536393	281358.9	635218.94	-0.00018196202
0	0.6546059	0.65460443	-2.64307e-10	0.07000352	0.07000352	0	147753.9	147753.6	-5.883291e-05	635315.9	281131.3	-0.00023931962	281132.47	635314.9	-0.00014438291
0	0.6545136	0.65451205	2.5935566e-11	0.06986222	0.06986222	0	147733.06	147732.72	4.4642857e-06	635410.8	280907.06	8.9003166e-05	280908.2	635409.8	-7.318038e-05
0	0.65442014	0.6544186	-2.8293344e-12	0.069720745	0.069720745	0	147711.98	147711.64	-3.86639e-06	635506.7	280680.34	-5.9335443e-06	280681.47	635505.8	-7.9113925e-06
0	0.65432644	0.65432495	-2.2540364e-10	0.06957926	0.06957926	0	147690.81	147690.48	-5.3093114e-05	635602.9	280453	-4.7468355e-05	280454.1	635601.9	-0.0002709652
0	0.65423316	0.65423167	-2.64307e-10	0.06943794	0.06943794	0	147669.77	147669.44	-5.8673468e-05	635698.3	280227	-0.00021558545	280228.16	635697.3	-0.00011669304
0	0.6541393	0.65413773	-5.8472914e-11	0.0692964	0.0692964	0	147648.58	147648.22	-1.5425701e-05	635794.25	279999.5	0	280000.66	635793.25	-9.098101e-05
0	0.6540451	0.65404373	-2.803399e-10	0.0691551	0.0691551	0	147627.34	147627	-6.25e-05	635890.2	279771.94	-0.00025118672	279773.06	635889.3	-0.00012856013
0	0.6539507	0.65394914	-5.2814243e-11	0.0690136	0.0690136	0	147606.02	147605.67	-7.653061e-06	635986.44	279543.38	-1.483386e-05	279544.5	635985.44	-6.724684e-05
0	0.65385544	0.65385395	-1.7447563e-10	0.068872124	0.068872124	0	147584.52	147584.19	-3.6989797e-05	636083.3	279313.25	-0.000120648736	279314.4	636082.3	-0.00010482595
0	0.65376073	0.6537592	3.1594234e-11	0.06873082	0.06873082	0	147563.14	147562.8	7.3341835e-06	636179.4	279084.47	9.889241e-06	279085.62	636178.4	7.9113925e-05
0	0.65366614	0.6536646	-1.801343e-10	0.06858932	0.06858932	0	147541.78	147541.44	-4.2091837e-05	636275.4	278856.06	-5.5379747e-05	278857.25	636274.4	-0.00021162974
0	0.65357053	0.653569	-1.1034404e-10	0.068447955	0.068447955	0	147520.2	147519.84	-2.4035395e-05	636372.1	278625.44	-3.5601264e-05	278626.6	636371.1	-0.000120648736
0	0.6534748	0.65347326	-8.488003e-12	0.06830648	0.06830648	0	147498.6	147498.25	-3.1887755e-06	636468.8	278394.72	-6.724684e-05	278395.88	636468	3.362342e-05
0	0.65337807	0.6533765	-1.3627961e-10	0.06816515	0.06816515	0	147476.77	147476.42	-3.376116e-05	636566.06	278162.2	-4.7468355e-05	278163.38	636565	-0.00015031645
0	0.653283	0.6532814	-5.564358e-10	0.068023674	0.068023674	0	147455.3	147454.94	-0.000121890946	636662.25	277932.7	-0.0003204114	277933.88	636661.25	-0.00045886077
0	0.6531868	0.65318525	-1.1270182e-10	0.06788219	0.067882195	0	147433.6	147433.23	-2.1045918e-05	636759.1	277701.34	-5.34019e-05	277702.47	636758.06	-0.00010087025
0	0.65309006	0.65308845	-3.3574768e-10	0.06774088	0.06774088	0	147411.77	147411.4	-7.6052296e-05	636856.06	277468.8	-0.00025118672	277469.97	636855	-0.00022151899
0	0.6529935	0.65299195	-5.3450844e-10	0.067599334	0.067599334	0	147389.97	147389.61	-0.00012149235	636952.9	277236.75	-0.00035007912	277237.88	636951.94	-0.000403481
0	0.6528961	0.65289456	-3.376339e-10	0.06745803	0.06745803	0	147367.98	147367.62	-7.780612e-05	637050.44	277003.03	-0.0003490902	277004.2	637049.44	-0.000120648736
0	0.65279907	0.6527976	-5.3002863e-10	0.06731653	0.06731653	0	147346.08	147345.75	-0.00012117347	637147.4	276770.2	-0.0003045886	276771.38	637146.44	-0.00044501582
0	0.6527014	0.6526998	-4.1001771e-10	0.06717506	0.06717506	0	147324.03	147323.66	-8.8329085e-05	637244.75	276536.03	-0.00022151899	276537.2	637243.7	-0.00033030062
0	0.65260386	0.6526023	-3.206579e-10	0.06703376	0.06703376	0	147302.02	147301.66	-7.29831e-05	637341.75	276302.4	-0.00029865507	276303.66	637340.75	-0.00012262659
0	0.65250534	0.65250367	-5.885016e-10	0.066892266	0.066892266	0	147279.75	147279.4	-0.00013392857	637440	276066.2	-0.00044699368	276067.38	637438.94	-0.0004113924
0	0.6524073	0.6524057	-4.581164e-10	0.066750884	0.066750884	0	147257.64	147257.3	-0.000103635204	637537.25	275831.78	-0.00047468353	275832.97	637536.25	-0.00016613925
0	0.6523089	0.6523073	-3.1193412e-10	0.06660941	0.06660941	0	147235.45	147235.06	-7.366071e-05	637634.7	275596.6	-0.0002017405	275597.84	637633.6	-0.00024920885
0	0.6522101	0.65220845	-1.03742265e-10	0.06646809	0.06646809	0	147213.14	147212.78	-1.8494899e-05	637732.5	275360.53	-7.318038e-05	275361.72	637731.4	-6.1313294e-05
0	0.6521109	0.6521092	-2.5558322e-10	0.06632662	0.06632662	0	147190.73	147190.39	-5.8992347e-05	637830.5	275123.53	-9.196994e-05	275124.72	637829.4	-0.0002848101
0	0.6520122	0.6520106	-3.8809037e-10	0.06618514	0.06618514	0	147168.47	147168.11	-8.7691325e-05	637927.94	274887.94	-0.00017207279	274889.16	637926.9	-0.0004193038
0	0.6519121	0.6519105	-2.0371207e-10	0.066043824	0.066043824	0	147145.86	147145.52	-4.6914858e-05	638026.4	274649.28	-0.00016218354	274650.5	638025.44	-9.098101e-05
0	0.65181273	0.65181106	-1.2543383e-10	0.06590227	0.06590227	0	147123.47	147123.1	-3.0293368e-05	638124.25	274412.38	-0.00011471519	274413.6	638123.25	-6.724684e-05
0	0.6517122	0.6517106	-5.8260713e-10	0.06576097	0.06576097	0	147100.78	147100.4	-0.00013456633	638222.7	274173.22	-0.0003322785	274174.44	638221.75	-0.00048259494
0	0.6516125	0.65161085	-9.666892e-11	0.065619476	0.065619476	0	147078.23	147077.89	-2.742347e-05	638320.5	273935.75	-5.933544e-05	273936.94	638319.5	-8.109177e-05
0	0.6515113	0.65150964	-1.5844273e-10	0.06547816	0.06547816	0	147055.4	147055.03	-3.6073023e-05	638419.7	273694.9	-3.2634493e-05	273696.16	638418.6	-0.00018591773
0	0.6514112	0.6514095	-3.678135e-11	0.0653367	0.0653367	0	147032.81	147032.44	-1.1160714e-05	638517.4	273456.97	-1.5822785e-05	273458.22	638516.4	-2.7689874e-05
0	0.65130955	0.6513079	-1.7353251e-10	0.06519521	0.06519521	0	147009.88	147009.48	-3.511639e-05	638616.56	273215.5	-0.00013844937	273216.75	638615.5	-8.702531e-05
0	0.65120834	0.65120673	-2.1597253e-10	0.0650539	0.0650539	0	146987.02	146986.62	-4.559949e-05	638715.1	272975.16	-0.00025118672	272976.4	638714.2	-3.164557e-05
0	0.6511072	0.6511054	-3.2136524e-10	0.06491236	0.06491235	0	146964.19	146963.81	-7.114955e-05	638813.44	272735.28	-0.00030854432	272736.53	638812.4	-0.00012460443
0	0.651005	0.65100336	-2.5652633e-10	0.06477103	0.06477103	0	146941.14	146940.77	-5.2654657e-05	638912.56	272493.25	-0.00011273734	272494.53	638911.5	-0.00022745253
0	0.65090334	0.65090173	-3.4046324e-10	0.06462956	0.06462956	0	146918.19	146917.8	-7.716837e-05	639011.06	272252.3	-0.00022349684	272253.6	639010	-0.00027689873
0	0.6508012	0.6507995	1.0374226e-11	0.06448809	0.06448809	0	146895.12	146894.75	5.739796e-06	639109.75	272010.47	-2.966772e-05	272011.72	639108.8	5.7357596e-05
0	0.65069824	0.6506966	-1.9781764e-10	0.06434676	0.06434676	0	146871.89	146871.5	-4.846939e-05	639209.2	271767.12	-0.00015822785	271768.4	639208.1	-0.00010482595
0	0.6505957	0.65059406	-1.1411649e-10	0.06420529	0.06420529	0	146848.75	146848.38	-2.873884e-05	639308	271524.72	-0.00013053797	271526	639307	-4.2523734e-05
0	0.6504925	0.6504908	-2.7892522e-10	0.06406391	0.06406391	0	146825.45	146825.06	-6.329719e-05	639407.25	271281.03	-0.00015723893	271282.3	639406.2	-0.00022547468
0	0.65038884	0.65038717	-4.8829596e-10	0.06392241	0.06392241	0	146802.08	146801.7	-0.00010969388	639506.56	271036.56	-0.00026898735	271037.84	639505.56	-0.00043908227
0	0.650286	0.6502844	-3.0556813e-10	0.063781105	0.063781105	0	146778.86	146778.48	-6.8239795e-05	639605.4	270793.84	-0.00027887657	270795.16	639604.3	-0.00012262659
0	0.6501812	0.6501795	-4.0459483e-10	0.06363964	0.06363964	0	146755.17	146754.8	-8.84088e-05	639705.75	270546.62	-0.00027887657	270547.9	639704.7	-0.00029272152
0	0.6500774	0.6500757	-3.0934055e-10	0.06349814	0.06349814	0	146731.73	146731.36	-6.409439e-05	639805.3	270301.7	-0.0002304193	270303	639804.25	-0.0001483386
0	0.6499725	0.6499708	-4.805153e-10	0.06335683	0.06335683	0	146708.08	146707.7	-0.000110012756	639905.2	270055.06	-0.0003006329	270056.38	639904.06	-0.00041732594
0	0.6498685	0.64986676	-3.3291836e-10	0.06321529	0.06321529	0	146684.58	146684.22	-7.222577e-05	640004.3	269810.16	-0.00026503165	269811.47	640003.3	-0.00018987342
0	0.6497631	0.6497613	-4.2251394e-10	0.06307396	0.06307396	0	146660.8	146660.42	-9.4108735e-05	640104.4	269562.72	-0.00033623417	269564	640103.2	-0.00023931962
0	0.6496582	0.6496565	-2.501603e-10	0.06293249	0.06293249	0	146637.12	146636.75	-5.9630103e-05	640204.1	269315.97	-0.00018987342	269317.28	640203.1	-0.00017009494
0	0.6495521	0.6495504	-2.612419e-10	0.06279103	0.06279103	0	146613.19	146612.8	-5.8035715e-05	640304.6	269067.03	-0.00021261867	269068.3	640303.5	-0.00016613925
0	0.6494469	0.6494452	-2.0677719e-10	0.06264969	0.06264969	0	146589.44	146589.06	-4.5280613e-05	640404.44	268819.9	-0.00021459651	268821.25	640403.4	-8.504747e-05
0	0.6493406	0.64933884	1.4146672e-11	0.062508225	0.062508225	0	146565.45	146565.06	4.4642857e-06	640504.6	268570.9	7.9113925e-05	268572.22	640503.56	-2.3734177e-05
0	0.6492348	0.6492331	-3.866757e-11	0.06236684	0.06236684	0	146541.56	146541.19	-1.0084503e-05	640604.5	268322.8	-0.00014438291	268324.16	640603.4	7.9113925e-05
0	0.64912724	0.64912546	-4.9253995e-10	0.062225346	0.062225346	0	146517.28	146516.9	-0.00011220504	640705.4	268071.4	-0.000377769	268072.78	640704.4	-0.00032634495
0	0.6490206	0.6490189	-3.5649614e-10	0.062084038	0.062084038	0	146493.22	146492.83	-8.254943e-05	640806.1	267821.44	-0.00026503165	267822.75	640805	-0.00024525318
0	0.6489142	0.64891255	-2.0512675e-10	0.061942577	0.061942577	0	146469.2	146468.83	-4.3845663e-05	640905.94	267572.7	-0.00019778482	267574.03	640904.9	-9.493671e-05
0	0.64880675	0.648805	-2.640712e-10	0.061801083	0.061801083	0	146444.95	146444.56	-5.8673468e-05	641006.6	267321.56	-0.00015328322	267322.9	641005.44	-0.00022151899
0	0.64869845	0.6486967	-4.1685527e-10	0.061659772	0.061659772	0	146420.53	146420.12	-9.390944e-05	641107.9	267068.75	-0.00026898735	267070.12	641106.7	-0.00035354035
0	0.64859104	0.64858925	-4.526935e-11	0.061518237	0.061518237	0	146396.25	146395.88	-8.769132e-06	641208.2	266817.88	-3.164557e-05	266819.22	641207.06	-9.889241e-06
0	0.64848095	0.64847916	-2.6595742e-10	0.061376892	0.061376892	0	146371.4	146371.02	-6.0746173e-05	641310	266561.97	-0.00025712026	266563.3	641309	-9.6914555e-05
0	0.6483739	0.6483721	-4.0553794e-10	0.06123543	0.06123543	0	146347.23	146346.84	-9.518495e-05	641410.44	266311.6	-0.0003125	266312.97	641409.4	-0.0002749209
0	0.64826566	0.64826393	-1.810774e-10	0.061093967	0.061093967	0	146322.83	146322.44	-4.049745e-05	641510.8	266059.8	-0.00015031645	266061.22	641509.75	-8.9003166e-05
0	0.64815617	0.6481544	-2.2446053e-10	0.060952656	0.060952656	0	146298.12	146297.7	-5.3770727e-05	641612	265805.22	-0.0001483386	265806.6	641610.9	-0.00015427216
0	0.6480464	0.64804465	-2.6548588e-10	0.060811166	0.060811166	0	146273.33	146272.94	-5.739796e-05	641713.44	265550.1	-0.00022547468	265551.5	641712.4	-0.00015822785
0	0.64793724	0.64793545	-7.049758e-11	0.060669772	0.060669776	0	146248.69	146248.28	-1.7857143e-05	641814.9	265295.8	-3.164557e-05	265297.2	641813.7	-7.318038e-05
0	0.64782655	0.64782476	-2.9990946e-10	0.060528316	0.060528316	0	146223.7	146223.3	-7.142857e-05	641916.75	265038.97	-0.0002136076	265040.34	641915.7	-0.00024129747
0	0.64771706	0.6477152	-4.121397e-10	0.060386974	0.060386974	0	146199	146198.6	-9.406888e-05	642017.9	264784.66	-0.00035106804	264786.03	642016.75	-0.00023140822
0	0.6476068	0.64760494	-3.5885392e-10	0.06024551	0.06024551	0	146174.08	146173.69	-8.3386476e-05	642119.25	264528.75	-0.00032733387	264530.12	642118.1	-0.00020371836
0	0.64749616	0.64749444	-4.036517e-10	0.06010405	0.060104053	0	146149.14	146148.73	-8.88074e-05	642220.5	264272.8	-0.00035106804	264274.22	642219.4	-0.00018987342
0	0.6473841	0.6473823	-2.9142144e-10	0.059962712	0.059962712	0	146123.83	146123.42	-6.329719e-05	642323	264013.3	-0.00022151899	264014.7	642321.9	-0.00021855222
0	0.6472734	0.6472717	-5.205975e-10	0.059821166	0.059821166	0	146098.86	146098.45	-0.00011910077	642424.6	263756.88	-0.0003293117	263758.25	642423.44	-0.0004193038
0	0.6471618	0.64716	-3.9233436e-10	0.05967986	0.05967985	0	146073.66	146073.25	-9.2394774e-05	642526.3	263498.78	-0.00023338608	263500.2	642525.2	-0.0003579905
0	0.64704967	0.6470479	-2.7939678e-10	0.059538368	0.059538364	0	146048.36	146047.94	-5.9151786e-05	642628.5	263239.56	-0.000120648736	263240.97	642627.44	-0.00029272152
0	0.64693797	0.6469362	-4.724988e-10	0.059396908	0.059396908	0	146023.14	146022.75	-0.000102439415	642730.06	262981.6	-0.00036392405	262983.06	642729	-0.00031052215
0	0.6468244	0.6468226	-2.716161e-10	0.059255596	0.059255596	0	145997.52	145997.1	-6.186224e-05	642833.1	262719.62	-0.0002056962	262721.03	642832	-0.00017009494
0	0.6467129	0.64671105	-3.206579e-10	0.059114102	0.059114102	0	145972.33	145971.92	-7.5414544e-05	642934.25	262462.3	-0.00022349684	262463.75	642933.2	-0.0002175633
0	0.6465986	0.6465967	-3.2301567e-10	0.058972705	0.058972713	0	145946.53	145946.14	-6.6804845e-05	643037.3	262199.28	-0.00022053007	262200.72	643036.25	-0.00020371836
0	0.64648575	0.64648384	3.772446e-12	0.058831252	0.058831252	0	145921.06	145920.64	1.9132654e-06	643139.6	261938.9	-0.0001522943	261940.33	643138.5	0.0001483386
0	0.6463718	0.64637	-2.6359964e-10	0.0586899	0.0586899	0	145895.34	145894.92	-5.7158803e-05	643241.94	261677.14	-9.493671e-05	261678.58	643240.75	-0.00030854432
0	0.64625746	0.6462556	-4.75564e-10	0.05854845	0.05854845	0	145869.56	145869.16	-0.00010419324	643344.9	261414.2	-0.00028678798	261415.66	643343.7	-0.00034810125
0	0.64614415	0.64614224	-6.0359134e-11	0.058406986	0.058406986	0	145843.95	145843.55	-2.0567602e-05	643447.06	261153.23	-9.196994e-05	261154.69	643445.94	3.9556962e-06
0	0.6460286	0.64602673	-3.0934055e-10	0.05826565	0.05826565	0	145817.89	145817.47	-6.879783e-05	643550.5	260888.1	-0.00033030062	260889.56	643549.25	-0.00011471519
0	0.6459142	0.64591235	-3.7158593e-10	0.058124106	0.058124106	0	145792.06	145791.64	-8.083546e-05	643653.4	260625.11	-0.00027689873	260626.56	643652.1	-0.00024327531
0	0.6457994	0.64579755	5.1871132e-11	0.05798278	0.05798278	0	145766.17	145765.73	1.1798469e-05	643755.75	260362	4.153481e-05	260363.47	643754.6	0.00010482595
0	0.6456834	0.6456816	-2.4638788e-10	0.05784131	0.05784131	0	145739.97	145739.56	-5.7557398e-05	643859.3	260096.1	-0.00027689873	260097.58	643858.06	-9.493671e-05
0	0.64556783	0.645566	-2.7892522e-10	0.057699848	0.057699848	0	145713.86	145713.44	-6.090561e-05	643962.25	259831.19	-0.0002709652	259832.64	643961.1	-0.00010482595
0	0.64545125	0.6454494	-4.1308282e-10	0.05755853	0.05755853	0	145687.58	145687.16	-9.008291e-05	644065.6	259564.72	-0.00034612342	259566.17	644064.5	-0.00023338608
0	0.64533573	0.6453339	-5.205975e-10	0.05741706	0.05741706	0	145661.5	145661.08	-0.000114875635	644168.2	259300.3	-0.0003896361	259301.8	644167.2	-0.00032436708
0	0.6452186	0.64521676	-1.9805341e-10	0.057275645	0.057275645	0	145635.06	145634.62	-3.9859693e-05	644271.75	259032.78	-0.00017108386	259034.23	644270.7	-6.329114e-05
0	0.64510196	0.6451001	-1.0845782e-10	0.057134192	0.05713419	0	145608.72	145608.3	-2.614796e-05	644375.06	258766.12	1.5822785e-05	258767.64	644374	-0.00017800633
0	0.64498365	0.6449816	-5.8755845e-10	0.056992844	0.056992844	0	145582	145581.6	-0.00013185586	644479.25	258496.28	-0.00052511867	258497.78	644478.1	-0.00032436708
0	0.64486665	0.64486474	-1.310925e-10	0.056851387	0.056851387	0	145555.61	145555.17	-2.614796e-05	644582.75	258229.02	-0.00018987342	258230.52	644581.56	2.7689874e-05
0	0.64474887	0.64474696	-2.1125697e-10	0.056709927	0.056709927	0	145529.03	145528.61	-4.8867983e-05	644686.4	257960.52	-0.000120648736	257962.03	644685.2	-0.00016613925
0	0.64463085	0.6446289	-3.0745434e-10	0.056568585	0.056568585	0	145502.39	145501.94	-7.079082e-05	644789.9	257691.72	-0.00022349684	257693.25	644788.7	-0.00019580696
0	0.6445123	0.64451027	-3.8478948e-10	0.056427047	0.056427047	0	145475.62	145475.2	-8.211097e-05	644893.56	257422.05	-0.0002917326	257423.55	644892.44	-0.00024920885
0	0.6443924	0.64439046	1.768334e-11	0.05628571	0.05628571	0	145448.56	145448.14	0	644998.25	257149.61	4.9446204e-05	257151.12	644997.06	1.5822785e-05
0	0.64427227	0.64427036	-2.7515276e-10	0.05614424	0.05614424	0	145421.45	145421.03	-5.3571428e-05	645103.5	256876.28	-0.0002709652	256877.8	645102.25	-0.00010482595
0	0.6441548	0.6441529	-2.610061e-10	0.056002792	0.056002792	0	145394.95	145394.52	-5.947066e-05	645205.7	256609.47	-0.00023931962	256611.02	645204.56	-0.00011471519
0	0.64403445	0.6440326	-1.7023162e-10	0.05586147	0.05586147	0	145367.8	145367.34	-4.1135205e-05	645310.1	256336.58	-0.00017009494	256338.12	645308.94	-8.306962e-05
0	0.6439139	0.64391196	-3.8761883e-10	0.05572	0.055719994	0	145340.56	145340.11	-8.705357e-05	645414.6	256063.27	-0.00027689873	256064.81	645413.4	-0.00026107594
0	0.6437936	0.6437916	-9.5254256e-11	0.055578664	0.055578664	0	145313.42	145312.98	-2.1683674e-05	645519.4	255790.14	-0.00016218354	255791.69	645518.2	6.724684e-05
0	0.6436729	0.643671	-4.786291e-10	0.055437125	0.055437125	0	145286.17	145285.73	-0.00010841837	645623.8	255516.64	-0.00044106014	255518.2	645622.7	-0.00025316456
0	0.64355195	0.64355004	-2.0937074e-10	0.05529578	0.05529578	0	145258.89	145258.44	-4.950574e-05	645728.2	255243.02	-0.00022349684	255244.58	645727	-6.922468e-05
0	0.64343035	0.6434284	-1.0515693e-10	0.055154327	0.055154327	0	145231.42	145230.98	-2.869898e-05	645833.06	254967.94	-0.0001483386	254969.48	645831.9	1.9778481e-06
0	0.64330876	0.6433069	-7.02618e-10	0.05501287	0.05501287	0	145204	145203.55	-0.00016007652	645937.1	254693.6	-0.0007525712	254695.14	645935.94	-0.00027887657
0	0.64318603	0.6431841	-1.3392183e-10	0.054871522	0.054871522	0	145176.28	145175.84	-3.0452806e-05	646042.44	254416.52	-7.120253e-05	254418.06	646041.2	-8.109177e-05
0	0.6430644	0.6430625	-5.894447e-11	0.05473008	0.05473008	0	145148.81	145148.39	-1.4668367e-05	646147.1	254141.5	-5.142405e-05	254143.06	646145.94	-5.933544e-05
0	0.6429418	0.6429398	-2.2304586e-10	0.05458865	0.05458865	0	145121.16	145120.7	-5.1498726e-05	646252.1	253864.83	-9.988133e-05	253866.39	646250.94	-0.00021558545
0	0.6428187	0.64281666	-4.2440015e-10	0.054447185	0.054447185	0	145093.34	145092.9	-9.614158e-05	646357.3	253587.28	-0.00022943038	253588.89	646356.06	-0.00037579113
0	0.6426953	0.6426934	-4.423193e-10	0.054305855	0.054305855	0	145065.53	145065.08	-0.00010267857	646462.4	253309.61	-0.0003619462	253311.17	646461.2	-0.00026898735
0	0.64257145	0.6425695	-2.951939e-10	0.05416441	0.054164406	0	145037.56	145037.12	-6.489158e-05	646567.75	253030.67	-0.0002848101	253032.27	646566.56	-0.00011867088
0	0.6424478	0.64244586	-3.4800812e-10	0.054022938	0.054022938	0	145009.66	145009.2	-7.493622e-05	646672.8	252752.62	-0.00014636076	252754.22	646671.56	-0.00032832279
0	0.64232135	0.6423193	5.658669e-12	0.0538816	0.0538816	0	144981.1	144980.64	-6.377551e-07	646779.25	252469.02	2.0767406e-05	252470.64	646778.06	-4.153481e-05
0	0.64219874	0.6421967	-5.701109e-10	0.05374007	0.05374007	0	144953.4	144952.95	-0.00012755101	646883.6	252193	-0.00042227056	252194.6	646882.4	-0.000377769
0	0.64207315	0.64207107	-3.272597e-10	0.05359871	0.05359871	0	144925.06	144924.62	-7.653061e-05	646989.5	251911.19	-0.00016416139	251912.8	646988.4	-0.00029469936
0	0.64194775	0.6419457	-3.1782857e-10	0.053457264	0.053457264	0	144896.77	144896.31	-7.589286e-05	647095.2	251630	-0.00026700948	251631.61	647094.06	-0.00019580696
0	0.6418221	0.6418201	-3.0179567e-10	0.053315822	0.05331583	0	144868.42	144867.97	-6.8877554e-05	647200.9	251348.42	-0.00015625	251350.05	647199.7	-0.00027887657
0	0.6416961	0.64169407	-4.644824e-10	0.053174462	0.053174462	0	144839.98	144839.52	-0.00010251913	647306.8	251066.19	-0.00024723102	251067.81	647305.5	-0.00040150317
0	0.6415698	0.64156777	-4.923042e-10	0.053033024	0.053033024	0	144811.47	144811	-0.00010275829	647412.25	250783.83	-0.00035205696	250785.42	647411.06	-0.00033623417
0	0.64144284	0.64144075	-4.4986417e-10	0.052891586	0.052891586	0	144782.81	144782.34	-0.000102040816	647518.4	250499.94	-0.0003125	250501.58	647517.06	-0.00032436708
0	0.64131546	0.64131343	-2.5746943e-10	0.052750126	0.052750126	0	144754.06	144753.6	-5.835459e-05	647624.94	250215.06	-0.0001483386	250216.72	647623.7	-0.0002175633
0	0.6411871	0.64118505	-3.7158593e-10	0.052608777	0.052608777	0	144725.08	144724.61	-8.2589286e-05	647731.3	249928.86	-0.00028283228	249930.55	647730.2	-0.00026503165
0	0.64105934	0.6410572	5.75298e-11	0.05246734	0.05246734	0	144696.25	144695.78	1.2436224e-05	647838.5	249642.94	7.515823e-05	249644.58	647837.3	3.9556962e-05
0	0.6409332	0.6409312	-3.0839745e-10	0.052325882	0.052325882	0	144667.8	144667.31	-6.760204e-05	647943.1	249361.73	-0.0002175633	249363.4	647941.9	-0.0002175633
0	0.6408047	0.6408026	-3.5838235e-10	0.05218454	0.05218454	0	144638.78	144638.31	-8.4422834e-05	648049.56	249075.33	-0.0002136076	249077	648048.3	-0.00030656645
0	0.64067566	0.6406736	-1.2118982e-10	0.052043002	0.052043002	0	144609.64	144609.17	-2.4234694e-05	648156.2	248788.1	-7.515823e-05	248789.75	648154.94	-6.724684e-05
0	0.6405467	0.64054465	-3.3527614e-10	0.051901635	0.051901635	0	144580.55	144580.08	-7.692921e-05	648262.56	248501.25	-0.00026700948	248502.92	648261.3	-0.00023338608
0	0.6404172	0.640415	-7.7712387e-10	0.0517602	0.0517602	0	144551.3	144550.84	-0.00017610013	648369.25	248213.06	-0.00054588605	248214.73	648368.06	-0.0005795095
0	0.6402867	0.6402846	1.1694583e-10	0.051618766	0.051618766	0	144521.86	144521.38	2.8061224e-05	648476.2	247923.61	-8.306962e-05	247925.31	648474.9	0.00026503165
0	0.6401566	0.64015454	-2.4850988e-10	0.05147742	0.05147742	0	144492.48	144492.02	-5.5325254e-05	648583.4	247634.17	-0.00016416139	247635.84	648582.2	-0.0002175633
0	0.64002705	0.64002496	-4.8947485e-10	0.05133596	0.05133596	0	144463.27	144462.78	-0.00011176658	648689.5	247346.8	-0.0004647943	247348.5	648688.2	-0.00023931962
0	0.6398948	0.6398927	-4.2251394e-10	0.051194515	0.051194515	0	144433.4	144432.9	-9.630102e-05	648797.2	247053.8	-0.00032832279	247055.53	648795.9	-0.00027294303
0	0.6397632	0.63976103	-2.2446053e-10	0.05105309	0.05105309	0	144403.69	144403.2	-4.9984057e-05	648904.5	246762.14	-0.00018591773	246763.84	648903.4	-0.00011669304
0	0.639633	0.6396309	-1.3014938e-10	0.050911706	0.050911706	0	144374.31	144373.83	-2.8061224e-05	649011	246473.53	-0.00014636076	246475.23	649009.7	-4.7468355e-05
0	0.63950056	0.6394984	-1.9239474e-10	0.05077028	0.05077028	0	144344.39	144343.94	-4.2091837e-05	649118.4	246180.7	-0.0001602057	246182.44	649117.1	-7.664161e-05
0	0.6393688	0.6393666	-1.2732004e-10	0.050628845	0.050628845	0	144314.66	144314.19	-2.7822067e-05	649225.5	245888.97	-0.000110759494	245890.69	649224.3	-7.614715e-05
0	0.63923556	0.63923347	-1.438245e-10	0.050487474	0.050487474	0	144284.6	144284.12	-2.997449e-05	649332.9	245595.19	-2.966772e-05	245596.9	649331.6	-0.00016416139
0	0.6391021	0.6390999	-1.556134e-10	0.050345946	0.050345946	0	144254.47	144253.98	-3.0532527e-05	649440.75	245300.47	5.9335443e-06	245302.19	649439.44	-0.00019778482
0	0.6389693	0.6389672	-2.0088274e-10	0.05020459	0.05020459	0	144224.5	144224.02	-4.3686225e-05	649548.2	245007.1	-0.00013647151	245008.84	649546.94	-0.00014240506
0	0.6388334	0.6388312	-7.606194e-10	0.050063133	0.050063133	0	144193.81	144193.33	-0.00017490433	649657.7	244707.3	-0.0006190665	244709.02	649656.44	-0.00050039554
0	0.63870186	0.63869977	-5.3097177e-10	0.04992171	0.04992171	0	144164.14	144163.66	-0.00012372449	649763.2	244417.67	-0.000377769	244419.42	649761.9	-0.0003896361
0	0.6385666	0.6385644	-3.6828504e-10	0.049780354	0.049780354	0	144133.6	144133.12	-8.609694e-05	649871.1	244120.3	-0.00019778482	244122.1	649869.9	-0.00031843354
0	0.6384313	0.63842916	1.1411649e-10	0.049638905	0.049638905	0	144103.06	144102.58	2.8220664e-05	649979.25	243822.77	0.00019580696	243824.55	649978.06	1.9778481e-06
0	0.63829577	0.63829356	-4.2015616e-10	0.049497455	0.049497455	0	144072.47	144071.97	-9.518495e-05	650087.56	243524.67	-0.0002551424	243526.44	650086.25	-0.00031052215
0	0.63816154	0.6381592	-4.941904e-10	0.04935602	0.04935602	0	144042.16	144041.67	-0.00010698342	650195	243229.27	-0.00044106014	243231.02	650193.75	-0.00025316456
0	0.63802534	0.63802314	-4.602384e-10	0.04921464	0.04921464	0	144011.42	144010.92	-0.000102040816	650303.4	242930.33	-0.000377769	242932.08	650302.06	-0.00027294303
0	0.6378882	0.63788617	-6.6725137e-10	0.049073216	0.04907321	0	143980.5	143980	-0.0001505102	650411.9	242629.98	-0.00045490506	242631.78	650410.56	-0.00051226263
0	0.6377524	0.6377502	-5.205975e-10	0.04893179	0.04893179	0	143949.83	143949.33	-0.00012436224	650519.56	242331.98	-0.00048655062	242333.75	650518.4	-0.0003164557
0	0.6376147	0.6376126	-1.0610004e-10	0.048790418	0.048790418	0	143918.75	143918.27	-2.8220664e-05	650628.3	242030.48	-0.00022943038	242032.28	650627.1	7.318038e-05
0	0.6374781	0.6374759	-3.7158593e-10	0.048648883	0.048648883	0	143887.9	143887.4	-8.721301e-05	650736.25	241731.22	-0.00021162974	241733	650734.94	-0.0003164557
0	0.6373398	0.63733745	-2.140863e-10	0.04850753	0.04850753	0	143856.69	143856.19	-4.7193877e-05	650844.94	241428.78	-0.00017009494	241430.61	650843.7	-0.00010878165
0	0.6372011	0.6371989	-2.3672098e-10	0.048366077	0.048366077	0	143825.38	143824.89	-5.1339284e-05	650953.7	241125.98	-0.00018591773	241127.8	650952.44	-0.0001483386
0	0.6370627	0.63706046	-1.2590538e-10	0.048224654	0.048224654	0	143794.16	143793.64	-2.869898e-05	651062.56	240823.4	-5.7357596e-05	240825.25	651061.2	-9.493671e-05
0	0.636924	0.6369217	-5.385167e-10	0.04808329	0.04808329	0	143762.84	143762.36	-0.00011894132	651171.2	240520.64	-0.00037579113	240522.45	651169.94	-0.00037183546
0	0.6367845	0.6367823	-2.0276897e-10	0.04794185	0.04794185	0	143731.36	143730.86	-4.6875e-05	651280.2	240216.28	-0.00017009494	240218.11	651278.8	-0.00014636076
0	0.6366447	0.63664234	-3.3574768e-10	0.047800384	0.047800384	0	143699.8	143699.28	-7.52551e-05	651389.25	239911.45	-0.00026503165	239913.28	651388	-0.00022943038
0	0.63650453	0.6365023	-3.9987927e-10	0.047658965	0.047658965	0	143668.16	143667.66	-8.856824e-05	651498.25	239606.27	-0.0003579905	239608.1	651496.9	-0.0002175633
0	0.6363642	0.6363619	-3.3197523e-10	0.04751758	0.04751758	0	143636.48	143635.98	-7.653061e-05	651607.06	239300.92	-0.00024525318	239302.78	651605.75	-0.0002551424
0	0.63622314	0.6362208	-5.5360644e-10	0.047376156	0.047376156	0	143604.64	143604.14	-0.0001200574	651716.06	238994.47	-0.00023931962	238996.33	651714.75	-0.0005300633
0	0.6360811	0.63607883	-3.3952013e-10	0.047234733	0.047234733	0	143572.58	143572.08	-8.075574e-05	651825.6	238685.98	-0.0002056962	238687.86	651824.4	-0.00030854432
0	0.6359399	0.63593763	-3.814886e-10	0.047093347	0.047093347	0	143540.72	143540.2	-8.976403e-05	651935.06	238378.94	-0.000403481	238380.81	651933.75	-0.00018196202
0	0.6357983	0.63579595	-6.752678e-10	0.04695183	0.046951823	0	143508.75	143508.23	-0.00014732142	652044	238071.69	-0.00042325948	238073.56	652042.7	-0.00051621837
0	0.6356558	0.6356536	-4.3383128e-10	0.046810456	0.046810456	0	143476.61	143476.1	-9.8373726e-05	652153.25	237763.06	-0.00037974684	237764.92	652152	-0.0002136076
0	0.6355121	0.63550985	-4.2534326e-10	0.04666902	0.04666902	0	143444.17	143443.66	-9.103954e-05	652263.4	237451.72	-0.0003322785	237453.61	652262	-0.0002175633
0	0.63536894	0.6353666	-1.8579296e-10	0.046527658	0.046527658	0	143411.84	143411.33	-4.3845663e-05	652373.3	237141.31	-0.00012856013	237143.19	652372	-0.00011471519
0	0.63522595	0.63522375	-2.0088274e-10	0.046386234	0.046386234	0	143379.58	143379.06	-4.4642857e-05	652482.4	236832.17	-0.000120648736	236834.08	652481.06	-0.00015427216
0	0.63508135	0.6350791	-7.639203e-11	0.0462448	0.0462448	0	143346.94	143346.42	-2.2799744e-05	652592.3	236519.75	-9.2958864e-05	236521.62	652591	-3.5601264e-05
0	0.6349367	0.63493437	-4.2062773e-10	0.04610342	0.04610342	0	143314.28	143313.77	-9.885204e-05	652702.2	236207.19	-0.00037183546	236209.1	652701	-0.0002096519
0	0.63479114	0.6347889	-2.782179e-10	0.045961898	0.045961898	0	143281.44	143280.9	-6.25e-05	652812.56	235893.14	-0.00038370254	235895.05	652811.25	1.3844937e-05
0	0.6346459	0.6346436	-2.0182585e-10	0.045820512	0.045820512	0	143248.64	143248.12	-4.6396683e-05	652922.75	235579.66	-0.00013647151	235581.56	652921.3	-0.0001483386
0	0.6345015	0.6344992	-1.2449071e-10	0.0456791	0.0456791	0	143216.03	143215.53	-2.614796e-05	653032	235268.11	-0.00015822785	235270.03	653030.75	-3.9556962e-06
0	0.63435423	0.6343519	-4.7674287e-10	0.045537677	0.045537677	0	143182.81	143182.28	-0.000107780616	653142.6	234951.28	-0.00039161392	234953.19	653141.3	-0.0002848101
0	0.6342088	0.63420653	-4.781575e-10	0.045396283	0.045396283	0	143149.98	143149.45	-0.00010953444	653252.5	234637.83	-0.0003204114	234639.78	653251.2	-0.0003738133
0	0.63406104	0.63405865	-1.7777652e-10	0.04525487	0.04525487	0	143116.62	143116.1	-3.7308673e-05	653363.1	234320.33	-0.00019185127	234322.27	653361.75	-2.3734177e-05
0	0.63391393	0.63391155	-2.9047834e-10	0.045113385	0.045113385	0	143083.44	143082.9	-6.281888e-05	653473.8	234003.8	-0.00015822785	234005.75	653472.5	-0.00024920885