# t (s)	mx ()	my ()	mz ()	B_extx (T)	B_exty (T)	B_extz (T)	m_fullx (A/m)	m_fully (A/m)	m_fullz (A/m)	m_full.region1x (A/m)	m_full.region1y (A/m)	m_full.region1z (A/m)	m_full.region2x (A/m)	m_full.region2y (A/m)	m_full.region2z (A/m)
0	0.62717843	0.6271772	9.7256994e-11	0.07071087	0.07071087	0	113005.01	113004.79	2.25e-05	665483.2	212565.16	0.00014083138	212566.62	665482.94	1.5782829e-05
0	0.6270607	0.6270591	-1.2504471e-10	0.07056911	0.07056911	0	112983.8	112983.5	-2.75e-05	665560.4	212322.73	-0.00010198135	212324.61	665560	-0.00011897824
0	0.6269393	0.6269376	-4.6312856e-11	0.07042789	0.07042788	0	112961.94	112961.62	-6.875e-06	665640.1	212073.05	-1.45687645e-05	212074.97	665639.6	-3.8850038e-05
0	0.6268177	0.62681603	-2.0377657e-10	0.07028652	0.07028653	0	112940.01	112939.7	-4e-05	665719.56	211823.23	-0.00014568765	211825.14	665719.2	-0.00015297203
0	0.62669575	0.6266941	-1.9335616e-10	0.070144884	0.070144884	0	112918.04	112917.75	-3.875e-05	665799.25	211573	-0.00010198135	211574.9	665798.8	-0.00018696582
0	0.626574	0.6265723	-3.3345257e-10	0.07000352	0.07000352	0	112896.09	112895.78	-5.3125e-05	665878.6	211322.97	-0.00021367522	211324.88	665878.2	-0.00023795648
0	0.6264512	0.62644947	-2.0840785e-10	0.06986229	0.06986229	0	112873.984	112873.68	-4.1875e-05	665958.4	211071.39	-0.00014083138	211073.3	665957.94	-0.00017603923
0	0.62632877	0.6263271	-1.9914528e-10	0.069720544	0.069720544	0	112851.93	112851.61	-3.375e-05	666037.9	210820.5	-0.00018453768	210822.42	666037.44	-0.00010926573
0	0.6262058	0.62620413	-2.0146092e-10	0.06957919	0.06957919	0	112829.766	112829.46	-3.46875e-05	666117.5	210568.69	-0.00015297203	210570.61	666117.06	-0.00012869075
0	0.62608254	0.6260809	-8.5678784e-11	0.069437966	0.069437966	0	112807.55	112807.25	-1.53125e-05	666197.25	210316.36	0	210318.27	666196.8	-0.00014325952
0	0.6259597	0.625958	-1.12308676e-10	0.069296576	0.069296576	0	112785.43	112785.125	-2.375e-05	666276.56	210065.12	-4.613442e-05	210067.06	666276.1	-9.9553225e-05
0	0.625836	0.62583435	-2.5703634e-10	0.06915496	0.06915496	0	112763.125	112762.82	-3.96875e-05	666356.25	209812.31	-0.00016875485	209814.2	666355.8	-0.00015782828
0	0.6257118	0.62571007	-1.8525143e-10	0.069013596	0.069013596	0	112740.74	112740.445	-3.53125e-05	666436.06	209558.48	-0.00014083138	209560.39	666435.7	-0.00015964938
0	0.6255879	0.6255862	-2.4661595e-10	0.068872236	0.068872236	0	112718.43	112718.13	-4.125e-05	666515.7	209305.56	-0.00018817988	209307.52	666515.1	-0.00017968143
0	0.6254638	0.62546206	-2.4314248e-10	0.06873064	0.06873064	0	112696.055	112695.75	-3.875e-05	666595.1	209052.2	-0.00019789238	209054.1	666594.75	-0.00014750875
0	0.625339	0.6253373	-2.6282546e-10	0.06858927	0.06858927	0	112673.59	112673.29	-4.78125e-05	666674.8	208797.92	-0.00013597513	208799.83	666674.3	-0.00023977758
0	0.62521464	0.6252131	-2.1882825e-10	0.06844801	0.06844801	0	112651.18	112650.88	-3.375e-05	666754.06	208544.48	-0.00012262043	208546.4	666753.75	-0.00016511267
0	0.6250889	0.6250872	-1.4241203e-10	0.06830665	0.06830665	0	112628.52	112628.23	-1.75e-05	666834.1	208288.39	-7.7700075e-05	208290.3	666833.75	-7.041569e-05
0	0.6249639	0.62496215	-4.168157e-11	0.06816504	0.06816504	0	112605.984	112605.695	-7.1875e-06	666913.7	208033.8	-7.7700075e-05	208035.7	666913.3	2.306721e-05
0	0.62483853	0.6248368	-2.709302e-10	0.068023674	0.068023674	0	112583.41	112583.09	-4.875e-05	666993.25	207778.7	-0.00014568765	207780.62	666992.8	-0.0002743784
0	0.62471235	0.6247106	-2.2924863e-10	0.06788232	0.06788232	0	112560.664	112560.35	-4.375e-05	667073.1	207522.16	-0.00014204545	207524.08	667072.7	-0.0002039627
0	0.6245864	0.62458473	-1.9335616e-10	0.067740716	0.067740716	0	112537.98	112537.68	-3.53125e-05	667152.8	207266.33	-7.7700075e-05	207268.27	667152.3	-0.00018635878
0	0.62446004	0.6244583	-2.6861455e-10	0.06759932	0.06759932	0	112515.195	112514.91	-4.75e-05	667232.4	207009.72	-0.00024038462	207011.64	667231.94	-0.00016511267
0	0.62433314	0.6243315	-9.609918e-11	0.06745809	0.06745809	0	112492.35	112492.04	-1.375e-05	667312.2	206752.28	0	206754.19	667311.75	-0.0001104798
0	0.62420654	0.6242049	-2.0609221e-10	0.067316726	0.067316726	0	112469.55	112469.234	-3.65625e-05	667391.75	206495.5	-0.00017482518	206497.39	667391.4	-0.0001220134
0	0.6240794	0.62407774	-1.5283243e-10	0.067174986	0.067174986	0	112446.64	112446.34	-2.875e-05	667471.5	206237.75	-8.498446e-05	206239.69	667471.06	-0.00015540015
0	0.6239523	0.62395066	-7.4100566e-11	0.06703377	0.06703377	0	112423.734	112423.445	-1.25e-05	667551	205980.4	-1.3354701e-05	205982.33	667550.6	-9.469697e-05
0	0.62382495	0.62382334	-9.957264e-11	0.066892385	0.066892385	0	112400.8	112400.484	-2.1875e-05	667630.56	205722.56	-9.226884e-05	205724.48	667630.1	-8.3163366e-05
0	0.62369657	0.6236949	-1.4820113e-10	0.06675076	0.06675076	0	112377.64	112377.34	-3.25e-05	667710.44	205462.78	-0.00021124708	205464.67	667710.06	-2.4281275e-05
0	0.62356853	0.62356687	-1.5051679e-11	0.0666094	0.0666094	0	112354.59	112354.28	-5e-06	667790.1	205203.94	5.8275058e-05	205205.84	667789.6	-0.00010137432
0	0.6234399	0.62343824	-8.220532e-11	0.06646816	0.06646817	0	112331.41	112331.12	-1.84375e-05	667870	204944.02	-1.9425019e-05	204945.94	667869.56	-0.0001086587
0	0.6233116	0.62330997	-1.3314946e-10	0.06632643	0.06632643	0	112308.29	112307.98	-2.625e-05	667949.56	204684.77	-9.9553225e-05	204686.69	667949.1	-8.9840716e-05
0	0.6231827	0.62318105	-2.6398328e-10	0.06618507	0.06618507	0	112285.07	112284.77	-4.625e-05	668029.25	204424.66	-0.00018939393	204426.56	668028.8	-0.0002057838
0	0.6230534	0.62305164	-1.3199164e-10	0.06604384	0.06604384	0	112261.766	112261.46	-2.0625e-05	668109	204163.77	-0.00010198135	204165.67	668108.6	-5.7060995e-05
0	0.6229243	0.62292266	9.262571e-12	0.065902434	0.065902434	0	112238.51	112238.21	3.75e-06	668188.5	203903.66	5.584693e-05	203905.6	668188.06	-3.6421912e-05
0	0.6227944	0.62279266	-1.3199164e-10	0.06576085	0.06576085	0	112215.08	112214.8	-2.25e-05	668268.44	203641.78	-0.00010198135	203643.69	668268	-9.044775e-05
0	0.6226646	0.6226629	-2.0377657e-10	0.065619476	0.065619476	0	112191.71	112191.4	-3.9375e-05	668348	203380.48	-0.0001505439	203382.4	668347.6	-0.00013415403
0	0.6225342	0.62253255	1.1578214e-11	0.06547825	0.06547825	0	112168.23	112167.92	-3.75e-06	668427.75	203118.25	-1.45687645e-05	203120.2	668427.3	-2.6709402e-05
0	0.6224036	0.62240195	-2.558785e-10	0.06533652	0.06533652	0	112144.69	112144.39	-4.5e-05	668507.56	202855.67	-0.00022338772	202857.58	668507.06	-0.00015904235
0	0.6222732	0.62227154	-7.525839e-11	0.06519514	0.06519515	0	112121.19	112120.89	-1.34375e-05	668587.1	202593.47	-6.798757e-05	202595.38	668586.7	-3.4600816e-05
0	0.62214184	0.62214017	-1.9914528e-10	0.06505392	0.06505392	0	112097.52	112097.22	-3.75e-05	668667.06	202329.69	-0.00015175797	202331.62	668666.56	-0.00010683761
0	0.6220104	0.62200874	-1.5051678e-10	0.064912505	0.064912505	0	112073.83	112073.53	-2.875e-05	668746.8	202065.88	-7.527195e-05	202067.8	668746.3	-0.00014325952
0	0.6218798	0.6218781	-2.5703634e-10	0.06477093	0.06477093	0	112050.29	112049.99	-4.09375e-05	668826.06	201803.67	-0.00017968143	201805.64	668825.6	-0.00017421815
0	0.62174743	0.62174577	-3.0103357e-11	0.06462956	0.06462956	0	112026.44	112026.16	-3.75e-06	668906	201538.42	1.6996892e-05	201540.34	668905.6	-6.798757e-05
0	0.6216158	0.6216141	-1.1115085e-10	0.06448818	0.06448818	0	112002.74	112002.445	-1.765625e-05	668985.56	201274.7	-7.041569e-05	201276.64	668985.2	-8.012821e-05
0	0.62148345	0.6214818	-2.6861455e-10	0.0643466	0.0643466	0	111978.88	111978.58	-4.90625e-05	669065.3	201009.67	-0.00019910645	201011.6	669064.9	-0.0002057838
0	0.6213509	0.6213492	-1.5746371e-10	0.06420524	0.06420524	0	111955.01	111954.71	-3.375e-05	669144.94	200744.44	-0.00017239705	200746.38	669144.44	-8.9840716e-05
0	0.6212176	0.62121594	-1.9451399e-10	0.064063966	0.064063966	0	111930.984	111930.69	-3.5e-05	669224.8	200477.88	-8.37704e-05	200479.83	669224.44	-0.00020942598
0	0.62108487	0.6210832	-1.5399024e-10	0.063922584	0.06392258	0	111907.07	111906.766	-2.25e-05	669304.4	200212.47	-0.00010198135	200214.42	669304	-9.9553225e-05
0	0.6209516	0.6209499	-2.5472072e-10	0.06378101	0.063781016	0	111883.05	111882.75	-4.5e-05	669384	199946.3	-0.000108051674	199948.25	669383.56	-0.0002646659
0	0.62081796	0.62081623	-3.5545117e-10	0.06363963	0.06363963	0	111858.98	111858.68	-6e-05	669463.7	199679.5	-0.0001942502	199681.45	669463.4	-0.0003010878
0	0.6206837	0.6206821	-1.5514806e-10	0.06349825	0.06349824	0	111834.79	111834.49	-3.09375e-05	669543.5	199411.86	-0.00012626263	199413.8	669543.06	-8.9840716e-05
0	0.6205494	0.6205477	-1.9335616e-10	0.06335668	0.06335668	0	111810.58	111810.3	-3.75e-05	669623.2	199143.94	-0.00016996892	199145.88	669622.9	-0.000121406374
0	0.6204155	0.6204139	-1.7135757e-10	0.06321528	0.063215286	0	111786.48	111786.17	-3.25e-05	669702.6	198877.16	-6.920163e-05	198879.1	669702.2	-0.00017482518
0	0.6202802	0.62027854	-1.9104053e-10	0.06307404	0.06307404	0	111762.09	111761.77	-3.234375e-05	669782.56	198607.75	-0.00011169386	198609.67	669782.25	-0.00015782828
0	0.62014586	0.6201442	-2.3966903e-10	0.06293266	0.062932655	0	111737.875	111737.57	-4.25e-05	669862	198340.25	-0.0001808955	198342.17	669861.56	-0.0001505439
0	0.6200101	0.6200084	-1.3430727e-10	0.062790945	0.062790945	0	111713.42	111713.12	-2.5e-05	669941.9	198070.28	-7.2843824e-05	198072.25	669941.44	-0.0001238345
0	0.6198748	0.61987317	-1.9451399e-10	0.062649705	0.062649705	0	111689.04	111688.74	-3.34375e-05	670021.44	197801.4	-0.00016511267	197803.34	670020.94	-0.00014204545
0	0.61973846	0.6197368	-4.3534085e-10	0.06250833	0.06250833	0	111664.47	111664.18	-7.875e-05	670101.1	197530.69	-0.00049048173	197532.64	670100.75	-0.0001675408
0	0.619603	0.6196013	-2.6282546e-10	0.06236674	0.06236674	0	111640.06	111639.766	-5.125e-05	670180.56	197261.62	-0.0002573815	197263.58	670180.25	-0.00014568765
0	0.61946625	0.6194646	-2.605098e-10	0.062225346	0.062225346	0	111615.43	111615.13	-4.5625e-05	670260.44	196990.34	-0.00023310023	196992.28	670260.06	-0.00016511267
0	0.6193293	0.61932755	2.8019279e-10	0.06208412	0.06208412	0	111590.734	111590.44	4.5e-05	670340.25	196718.73	0.0002610237	196720.69	670339.8	0.00012869075
0	0.6191928	0.6191911	-1.8293578e-10	0.061942417	0.061942413	0	111566.164	111565.87	-2.875e-05	670419.6	196448.36	-0.00011169386	196450.28	670419.25	-0.00012019231
0	0.6190557	0.6190541	-2.5935198e-10	0.06180102	0.06180102	0	111541.46	111541.16	-4.40625e-05	670499.2	196176.89	-0.00016996892	196178.84	670498.8	-0.00019182207
0	0.6189179	0.6189163	-2.2809081e-10	0.06165979	0.06165979	0	111516.61	111516.32	-4.375e-05	670578.94	195904.11	-0.00019910645	195906.06	670578.6	-0.00013597513
0	0.61878055	0.61877894	-2.107235e-10	0.061518367	0.061518367	0	111491.88	111491.586	-3.28125e-05	670658.44	195632.53	-6.798757e-05	195634.48	670658	-0.00020639083
0	0.6186424	0.6186407	-9.494135e-11	0.06137681	0.061376818	0	111466.984	111466.68	-1.875e-05	670738	195359.34	-7.7700075e-05	195361.3	670737.56	-6.555944e-05
0	0.61850435	0.61850274	-1.1462432e-10	0.061235435	0.061235435	0	111442.12	111441.82	-2e-05	670817.4	195086.69	-2.1853148e-05	195088.62	670817.06	-0.0001675408
0	0.6183654	0.6183637	-9.0310065e-11	0.061094042	0.061094042	0	111417.08	111416.76	-2.4375e-05	670897.1	194812.38	-0.00013233295	194814.33	670896.8	-4.3706295e-05
0	0.6182264	0.6182248	-1.1115085e-10	0.060952503	0.06095251	0	111392.04	111391.74	-2.3125e-05	670976.8	194538.23	-0.00013597513	194540.23	670976.44	-8.862665e-05
0	0.61808753	0.6180858	-2.003031e-10	0.060811102	0.060811102	0	111367.016	111366.72	-3.625e-05	671056.25	194264.39	-0.00012747668	194266.33	671055.94	-0.0001675408
0	0.6179479	0.61794615	-2.3503774e-10	0.06066984	0.06066984	0	111341.84	111341.55	-4.3125e-05	671135.9	193989.16	-0.0001675408	193991.1	671135.5	-0.0001772533
0	0.6178081	0.61780643	-1.6672629e-10	0.060528446	0.060528446	0	111316.66	111316.36	-3.09375e-05	671215.5	193713.89	-3.3993783e-05	193715.84	671215.06	-0.000190608
0	0.6176682	0.61766654	-2.6166763e-10	0.060386896	0.060386896	0	111291.45	111291.164	-4e-05	671295	193438.53	-0.00014568765	193440.52	671294.7	-0.00020153458
0	0.6175277	0.6175262	-1.2504471e-10	0.060245506	0.060245506	0	111266.164	111265.85	-2.0625e-05	671374.56	193162.39	-6.0703187e-05	193164.31	671374.2	-0.00011169386
0	0.61738706	0.6173854	-2.8945535e-10	0.060104124	0.060104124	0	111240.805	111240.5	-5.125e-05	671454.25	192885.73	-0.00022824398	192887.69	671453.8	-0.00013840327
0	0.6172466	0.61724496	-2.1303913e-10	0.05996258	0.05996258	0	111215.49	111215.2	-4.5e-05	671533.5	192609.83	-0.00013476107	192611.78	671533.1	-0.0001772533
0	0.61710507	0.61710334	-1.5630588e-10	0.059821147	0.059821147	0	111189.984	111189.69	-3e-05	671613.2	192331.9	-8.498446e-05	192333.88	671612.8	-0.00015540015
0	0.6169639	0.61696225	-2.5935198e-10	0.059679918	0.059679918	0	111164.56	111164.25	-4.6875e-05	671692.6	192054.95	-0.0001942502	192056.9	671692.2	-0.00018939393
0	0.6168224	0.61682075	-3.184009e-10	0.05953851	0.05953851	0	111139.055	111138.76	-5.25e-05	671771.75	191777.6	-0.00023917055	191779.56	671771.4	-0.00021367522
0	0.6166803	0.61667866	-1.7714667e-10	0.059396826	0.059396826	0	111113.45	111113.16	-2.9375e-05	671851.25	191499.22	-0.00012869075	191501.14	671850.9	-0.00010440948
0	0.6165375	0.61653584	-2.0725002e-10	0.059255596	0.059255596	0	111087.72	111087.42	-3.578125e-05	671931.06	191219.45	-0.00013597513	191221.39	671930.7	-0.00015479312
0	0.61639506	0.6163934	-1.9682964e-10	0.059114188	0.059114188	0	111062.07	111061.76	-3e-05	672010.44	190940.67	-0.00014811577	190942.62	672010.06	-0.00013111888
0	0.6162521	0.61625046	-2.443003e-10	0.058972627	0.058972627	0	111036.3	111036.01	-4.5e-05	672089.9	190661.05	-0.00013961733	190663.02	672089.56	-0.00020942598
0	0.6161092	0.61610746	-2.6977237e-10	0.058831234	0.05883124	0	111010.55	111010.25	-4.96875e-05	672169.2	190381.62	-0.00026223777	190383.58	672168.9	-0.00012079934
0	0.61596537	0.6159638	-3.2187433e-10	0.058689985	0.058689985	0	110984.66	110984.36	-6e-05	672248.7	190100.95	-0.00026223777	190102.89	672248.3	-0.00020881896
0	0.6158214	0.61581975	-1.6209499e-10	0.0585483	0.0585483	0	110958.7	110958.41	-2.875e-05	672328.2	189819.88	-9.71251e-05	189821.83	672327.9	-0.00015175797
0	0.6156776	0.6156759	-9.841482e-11	0.058406904	0.058406904	0	110932.8	110932.49	-1.953125e-05	672407.56	189539.17	-0.000116550116	189541.17	672407.06	-2.4888306e-05
0	0.6155332	0.6155315	-3.0566485e-10	0.058265664	0.058265664	0	110906.766	110906.46	-4.875e-05	672486.9	189257.56	-0.00017239705	189259.5	672486.5	-0.00025009713
0	0.6153884	0.6153868	-1.6904192e-10	0.05812423	0.05812423	0	110880.695	110880.375	-3e-05	672566.3	188975.5	-0.00013840327	188977.45	672565.9	-0.00011897824
0	0.61524385	0.61524224	-2.3156428e-10	0.057982713	0.057982713	0	110854.65	110854.35	-4.46875e-05	672645.5	188694.05	-0.00016025642	188695.98	672645.06	-0.00018939393
0	0.6150981	0.61509645	-2.2809081e-10	0.05784131	0.057841305	0	110828.37	110828.07	-3.375e-05	672725.06	188410.4	-0.00016996892	188412.38	672724.6	-0.00012626263
0	0.6149529	0.61495125	-6.831146e-11	0.057699904	0.057699904	0	110802.23	110801.93	-1.296875e-05	672804.1	188128	1.2140637e-05	188129.97	672803.8	-0.000121406374
0	0.6148069	0.6148052	-1.2504471e-10	0.057558388	0.057558395	0	110775.9	110775.6	-2.390625e-05	672883.6	187844.05	-9.226884e-05	187846.02	672883.2	-9.773213e-05
0	0.6146607	0.6146591	-1.9451399e-10	0.057416987	0.057416987	0	110749.57	110749.27	-4.25e-05	672962.75	187560.23	-0.00020153458	187562.2	672962.44	-8.012821e-05
0	0.6145145	0.61451286	2.3156427e-12	0.0572757	0.05727571	0	110723.23	110722.94	5e-06	673041.94	187276.44	-2.4281275e-05	187278.4	673041.56	2.8530498e-05
0	0.6143674	0.6143658	-2.9408664e-10	0.0571343	0.0571343	0	110696.734	110696.44	-5.53125e-05	673121.4	186991.19	-0.00027195027	186993.16	673121	-0.00018575175
0	0.6142204	0.6142187	-2.5819416e-10	0.05699279	0.05699279	0	110670.23	110669.94	-4.75e-05	673200.7	186705.88	-0.00015782828	186707.83	673200.2	-0.0002039627
0	0.61407304	0.6140714	4.6312854e-12	0.056851387	0.056851383	0	110643.695	110643.38	6.25e-06	673279.8	186420.5	-2.5495337e-05	186422.44	673279.5	3.6421912e-05
0	0.6139255	0.6139239	-2.605098e-10	0.05670998	0.056709986	0	110617.11	110616.81	-4.34375e-05	673359	186134.88	-0.00018939393	186136.83	673358.6	-0.00018150253
0	0.6137777	0.613776	-2.5935198e-10	0.05656847	0.056568477	0	110590.46	110590.164	-4.625e-05	673438	185848.78	-0.0002209596	185850.75	673437.7	-0.0001505439
0	0.6136291	0.61362743	-3.1029612e-10	0.05642703	0.05642703	0	110563.69	110563.4	-5.625e-05	673517.44	185561.4	-0.0002209596	185563.34	673517	-0.00024463385
0	0.6134806	0.61347896	-1.5051678e-10	0.056285787	0.056285787	0	110536.93	110536.64	-2.6875e-05	673596.5	185274.38	-0.00013597513	185276.33	673596.2	-0.00013172592
0	0.6133318	0.6133301	-3.3345257e-10	0.05614437	0.056144364	0	110510.12	110509.82	-6.375e-05	673675.6	184986.89	-0.00028651903	184988.86	673675.4	-0.00022338772
0	0.6131826	0.61318105	-1.8062013e-10	0.056002706	0.0560027	0	110483.234	110482.945	-3.25e-05	673754.7	184699.05	-0.00016996892	184701.02	673754.4	-8.4377425e-05
0	0.61303276	0.6130311	-1.4009639e-10	0.05586147	0.055861466	0	110456.25	110455.95	-2.75e-05	673834	184409.95	-2.4281275e-05	184411.92	673833.7	-0.00021549631
0	0.61288315	0.61288154	-2.0261874e-10	0.05572005	0.055720054	0	110429.29	110428.98	-3.625e-05	673912.94	184121.45	-0.00010198135	184123.42	673912.6	-0.00014568765
0	0.612733	0.61273146	-1.736732e-10	0.05557856	0.05557856	0	110402.25	110401.95	-3.15625e-05	673992	183832.36	-0.0001238345	183834.34	673991.7	-0.00012869075
0	0.61258274	0.61258113	-2.0609221e-10	0.0554371	0.055437103	0	110375.16	110374.87	-3.1875e-05	674070.94	183542.92	-9.71251e-05	183544.9	674070.6	-0.00021124708
0	0.61243206	0.6124304	-1.4820113e-10	0.05529586	0.05529586	0	110348	110347.71	-3e-05	674149.94	183252.89	-0.0002573815	183254.89	674149.56	1.2140637e-05
0	0.61228085	0.6122791	-1.2041343e-10	0.055154447	0.055154454	0	110320.74	110320.45	-1.75e-05	674229.06	182962.03	-7.405788e-05	182964	674228.8	-7.2843824e-05
0	0.6121297	0.612128	-2.2461735e-10	0.05501279	0.05501279	0	110293.53	110293.234	-3.734375e-05	674308	182671.66	-9.71251e-05	182673.64	674307.7	-0.00019667832
0	0.61197823	0.6119766	-1.8525143e-10	0.054871544	0.054871544	0	110266.24	110265.94	-3.5e-05	674386.75	182380.78	-9.226884e-05	182382.73	674386.44	-0.00016268453
0	0.61182606	0.6118244	-1.7598885e-10	0.05473012	0.05473013	0	110238.81	110238.52	-3.09375e-05	674465.8	182088.69	-0.00012504857	182090.62	674465.6	-0.00013111888
0	0.61167365	0.61167204	-1.0536175e-10	0.054588605	0.054588605	0	110211.36	110211.055	-1.71875e-05	674544.8	181796.36	-5.8275058e-05	181798.31	674544.5	-6.920163e-05
0	0.61152095	0.6115193	-2.3503774e-10	0.05444718	0.05444718	0	110183.836	110183.55	-4.25e-05	674623.75	181503.56	-0.00011533605	181505.52	674623.44	-0.00021853147
0	0.61136824	0.6113665	-2.8019279e-10	0.05430595	0.05430595	0	110156.32	110156.02	-5.09375e-05	674702.56	181211	-0.0002440268	181212.97	674702.25	-0.00016511267
0	0.6112149	0.6112132	-1.7251539e-10	0.054164287	0.054164287	0	110128.69	110128.39	-3.109375e-05	674781.4	180917.47	-0.00017968143	180919.44	674781.06	-5.8275058e-05
0	0.6110614	0.6110597	-6.4837996e-11	0.05402286	0.05402286	0	110101.055	110100.75	-1.25e-05	674860.2	180623.83	-8.012821e-05	180625.78	674859.8	-9.712509e-06
0	0.6109072	0.6109056	-1.4356985e-10	0.053881623	0.053881623	0	110073.266	110072.98	-2.125e-05	674939.2	180329	-0.000116550116	180331	674938.9	-7.527195e-05
0	0.61075336	0.6107517	-6.599582e-11	0.053740162	0.053740162	0	110045.53	110045.24	-1.28125e-05	675017.7	180034.97	9.712509e-06	180036.94	675017.4	-0.000116550116
0	0.6105986	0.610597	-2.7324584e-10	0.053598683	0.053598687	0	110017.65	110017.36	-5e-05	675096.6	179739.48	-0.00026223777	179741.45	675096.3	-0.000121406374
0	0.6104439	0.6104422	-1.8525143e-10	0.053457264	0.053457264	0	109989.766	109989.48	-3.171875e-05	675175.3	179444.11	-0.00016996892	179446.05	675175	-0.00011412199
0	0.61028856	0.610287	-1.4356985e-10	0.05331584	0.05331584	0	109961.79	109961.516	-2.046875e-05	675254	179148.06	-7.2843824e-05	179150.03	675253.7	-0.00013233295
0	0.61013323	0.6101317	-2.1998606e-11	0.05317437	0.053174376	0	109933.82	109933.52	-8.75e-06	675332.6	178852.11	-6.555944e-05	178854.08	675332.3	7.2843823e-06
0	0.6099774	0.6099758	-1.6209499e-10	0.053032946	0.053032946	0	109905.734	109905.445	-2.375e-05	675411.3	178555.2	-0.000103195416	178557.14	675411	-0.00010198135
0	0.6098214	0.6098197	-7.06271e-11	0.05289166	0.052891657	0	109877.62	109877.32	-7.8125e-06	675490	178258.02	-3.8850038e-05	178259.95	675489.6	-7.891414e-05
0	0.6096652	0.60966367	-3.5545117e-10	0.052750226	0.052750226	0	109849.48	109849.18	-6.5e-05	675568.4	177961	-0.00023674243	177962.97	675568.06	-0.0002646659
0	0.6095083	0.60950667	-3.1261177e-10	0.052608766	0.05260877	0	109821.2	109820.914	-5.65625e-05	675646.9	177662.7	-0.00026587996	177664.67	675646.7	-0.00022338772
0	0.60935116	0.6093496	-2.4314249e-11	0.052467342	0.052467342	0	109792.89	109792.62	3.125e-07	675725.56	177364.23	3.8850038e-05	177366.19	675725.25	-4.916958e-05
0	0.60919344	0.60919183	-2.4777377e-10	0.052325908	0.052325908	0	109764.46	109764.18	-4.125e-05	675804.2	177064.6	-0.00018939393	177066.56	675803.9	-0.00014568765
0	0.6090356	0.60903394	-3.9365927e-11	0.05218446	0.05218446	0	109736.04	109735.75	-7.5e-06	675882.8	176765.11	-5.584693e-05	176767.06	675882.5	-1.5782829e-05
0	0.6088777	0.6088761	-2.7787714e-10	0.052042987	0.052042987	0	109707.58	109707.28	-5.03125e-05	675961.2	176465.72	-0.0002573815	176467.66	675960.75	-0.0001657197
0	0.60871935	0.60871774	-1.4241203e-10	0.051901728	0.051901728	0	109679.055	109678.76	-2.75e-05	676039.5	176165.55	-0.00014811577	176167.53	676039.25	-7.041569e-05
0	0.60856074	0.60855913	-1.9914528e-10	0.051760294	0.051760294	0	109650.48	109650.18	-3.75e-05	676117.8	175865.16	-0.0001942502	175867.11	676117.6	-0.000114729024
0	0.60840154	0.6083999	9.262571e-12	0.051618665	0.051618665	0	109621.805	109621.51	5.9375e-06	676196.4	175563.97	1.9425019e-05	175565.89	676196	2.1853148e-05
0	0.6082422	0.60824054	-2.6282546e-10	0.05147742	0.05147742	0	109593.08	109592.78	-4.625e-05	676274.56	175262.5	-0.00012990482	175264.44	676274.25	-0.0002209596
0	0.60808194	0.6080803	-2.825084e-10	0.051335976	0.051335976	0	109564.2	109563.92	-4.5e-05	676353.2	174959.67	-3.6421912e-05	174961.66	676352.9	-0.0003411519
0	0.6079212	0.6079196	-3.253478e-10	0.051194493	0.051194496	0	109535.234	109534.945	-5.796875e-05	676431.6	174655.98	-0.00015540015	174657.95	676431.3	-0.00028287683
0	0.60776186	0.6077602	-1.9798746e-10	0.051053062	0.051053066	0	109506.54	109506.25	-3.875e-05	676509.56	174355.1	-0.00017239705	174357.05	676509.25	-0.00010198135
0	0.60760134	0.6075997	-1.412542e-10	0.050911807	0.050911807	0	109477.6	109477.31	-2.375e-05	676587.7	174052.23	-0.00012626263	174054.2	676587.4	-7.9521174e-05
0	0.6074402	0.60743856	-7.8731854e-11	0.050770186	0.050770186	0	109448.58	109448.3	-1.5625e-05	676665.9	173748.47	-5.8275058e-05	173750.44	676665.56	-3.581488e-05
0	0.6072788	0.60727715	-1.7598885e-10	0.050628755	0.050628755	0	109419.48	109419.195	-3.375e-05	676744	173444.31	-0.00012990482	173446.27	676743.7	-0.00011169386
0	0.60711706	0.60711545	-7.6416214e-11	0.050487496	0.050487496	0	109390.36	109390.06	-1.5e-05	676822.1	173139.73	-3.8850038e-05	173141.69	676821.8	-8.680556e-05
0	0.6069552	0.6069535	-3.033492e-10	0.050346017	0.050346017	0	109361.17	109360.88	-5.296875e-05	676900.1	172835.02	-0.00025252526	172837	676899.94	-0.00017118298
0	0.60679245	0.6067908	-3.3808384e-10	0.05020459	0.05020459	0	109331.87	109331.58	-6.125e-05	676978.44	172529.08	-0.00025252526	172531.08	676978.1	-0.0002573815
0	0.60662967	0.60662806	-5.210196e-11	0.050063144	0.05006314	0	109302.53	109302.25	-8.59375e-06	677056.4	172223.22	6.0703187e-06	172225.19	677056.06	-9.226884e-05
0	0.6064665	0.60646486	-2.7324584e-10	0.049921695	0.049921695	0	109273.13	109272.84	-5.453125e-05	677134.44	171916.67	-0.00021367522	171918.62	677134.2	-0.0001942502
0	0.6063032	0.6063016	-1.8756706e-10	0.04978028	0.04978028	0	109243.72	109243.42	-3.375e-05	677212.3	171610.23	-0.00011412199	171612.22	677212	-0.00017482518
0	0.60613954	0.6061379	-1.6904192e-10	0.049638826	0.049638826	0	109214.22	109213.92	-3.8125e-05	677290.25	171303.12	-0.00011533605	171305.11	677289.94	-0.00016268453
0	0.60597533	0.6059737	-2.7903496e-10	0.04949753	0.04949753	0	109184.65	109184.35	-5.28125e-05	677368.1	170995.4	-0.00018453768	170997.38	677367.8	-0.00021974553
0	0.60581076	0.6058091	-2.871397e-10	0.049356084	0.049356084	0	109154.98	109154.695	-5.375e-05	677445.94	170687.17	-0.00028530497	170689.14	677445.7	-0.0001238345
0	0.605646	0.60564446	-8.336314e-11	0.049214657	0.049214657	0	109125.305	109125.016	-1.59375e-05	677523.75	170378.72	-8.741259e-05	170380.67	677523.44	-2.9137529e-05
0	0.6054808	0.6054791	-2.3387992e-10	0.049073208	0.04907321	0	109095.516	109095.23	-4.21875e-05	677601.56	170069.47	-0.00014083138	170071.42	677601.3	-0.00020517677
0	0.60531527	0.6053137	-2.8829752e-10	0.048931766	0.048931766	0	109065.72	109065.42	-4.75e-05	677679.4	169760.11	-0.00019182207	169762.05	677679.06	-0.00020881896
0	0.6051494	0.6051478	-3.1724307e-10	0.04879036	0.04879036	0	109035.805	109035.52	-5.5e-05	677757.06	169450.1	-0.00026345183	169452.1	677756.7	-0.00022338772
0	0.60498315	0.6049815	-2.825084e-10	0.048648857	0.048648857	0	109005.87	109005.57	-4.8125e-05	677834.75	169139.62	-0.0001942502	169141.56	677834.56	-0.00017968143
0	0.60481685	0.60481524	-2.1882825e-10	0.04850761	0.04850761	0	108975.89	108975.61	-4e-05	677912.25	168829.3	-0.00014083138	168831.27	677912	-0.00018696582
0	0.60464984	0.6046483	-2.9640226e-10	0.048366148	0.048366148	0	108945.805	108945.53	-5.375e-05	677989.94	168517.95	-0.00021974553	168519.9	677989.7	-0.0002173174
0	0.60448265	0.60448104	-1.9567181e-10	0.048224546	0.04822455	0	108915.67	108915.38	-3.0625e-05	678067.5	168206.22	-8.741259e-05	168208.19	678067.2	-0.0001808955
0	0.6043149	0.60431325	-3.2303216e-10	0.048083294	0.048083294	0	108885.445	108885.164	-5.625e-05	678145	167893.84	-0.0003010878	167895.81	678144.75	-0.00018210955
0	0.60414696	0.60414535	-1.5977936e-10	0.04794183	0.04794183	0	108855.2	108854.91	-2.125e-05	678222.5	167581.27	-0.0001238345	167583.23	678222.25	-0.00010380245
0	0.6039788	0.6039772	-2.8019279e-10	0.047800392	0.047800392	0	108824.91	108824.62	-5.03125e-05	678299.94	167268.48	-0.00026223777	167270.44	678299.7	-0.00015843532
0	0.6038101	0.6038085	-2.1767042e-10	0.047658946	0.047658946	0	108794.5	108794.23	-4.25e-05	678377.3	166954.86	-0.00022581585	166956.83	678377.06	-9.71251e-05
0	0.6036412	0.60363954	-1.8293578e-10	0.047517676	0.047517676	0	108764.07	108763.78	-3.25e-05	678454.7	166641.05	-9.469697e-05	166643.02	678454.3	-0.00013779623
0	0.6034718	0.6034703	-2.003031e-10	0.04737623	0.047376227	0	108733.56	108733.27	-3.65625e-05	678531.94	166326.78	-0.00012626263	166328.73	678531.7	-0.00017786033
0	0.60330164	0.6033001	-4.492347e-10	0.047234632	0.047234632	0	108702.89	108702.62	-8.25e-05	678609.3	166011	-0.0002913753	166012.95	678609.1	-0.00035936286
0	0.603132	0.6031304	-3.56609e-10	0.047093365	0.047093365	0	108672.305	108672.02	-5.75e-05	678686.5	165696.31	-0.00024281275	165698.27	678686.2	-0.0002513112
0	0.6029614	0.6029599	-2.8019279e-10	0.046951856	0.046951856	0	108641.59	108641.32	-5.28125e-05	678763.7	165380.47	-0.00024281275	165382.44	678763.4	-0.00017482518
0	0.60278976	0.60278815	4.8628497e-11	0.04681048	0.04681048	0	108610.664	108610.375	1e-05	678841.1	165062.6	-0.00011412199	165064.58	678840.9	0.00018939393
0	0.60261905	0.60261744	-4.168157e-11	0.046669014	0.046669014	0	108579.9	108579.62	-1.25e-05	678918.06	164746.69	-0.00018210955	164748.62	678917.8	0.00010562354
0	0.6024457	0.6024441	-1.192556e-10	0.046527762	0.046527762	0	108548.66	108548.38	-2.34375e-05	678995.9	164426.19	-0.000116550116	164428.14	678995.56	-6.0703187e-05
0	0.6022761	0.6022746	-1.5283243e-10	0.04638618	0.04638618	0	108518.1	108517.83	-2.5e-05	679072	164112.62	-8.862665e-05	164114.61	679071.7	-0.000121406374
0	0.602104	0.60210246	-6.599582e-11	0.04624471	0.046244707	0	108487.09	108486.81	-1.1875e-05	679148.9	163794.8	-3.1565658e-05	163796.75	679148.56	-4.856255e-05
0	0.6019315	0.60192996	-2.755615e-10	0.046103448	0.04610345	0	108456.04	108455.75	-5.375e-05	679225.75	163476.5	-0.0001942502	163478.47	679225.5	-0.00024888307
0	0.60175824	0.6017567	-1.5977936e-10	0.045961928	0.045961928	0	108424.8	108424.52	-2.75e-05	679302.75	163156.77	-0.00013354702	163158.72	679302.5	-0.00010440948
0	0.6015849	0.6015833	-1.0883521e-10	0.04582056	0.045820568	0	108393.58	108393.29	-2e-05	679379.6	162837.3	-9.469697e-05	162839.25	679379.4	-6.798757e-05
0	0.60141116	0.60140955	-2.0261874e-10	0.0456791	0.045679096	0	108362.26	108361.98	-4.296875e-05	679456.4	162517.25	-0.0002039627	162519.22	679456.1	-0.00012262043
0	0.60123634	0.6012347	-1.8872488e-10	0.04553762	0.04553762	0	108330.75	108330.48	-3.75e-05	679533.4	162195.5	-7.891414e-05	162197.45	679533.06	-0.00021367522
0	0.6010622	0.6010606	-1.3430727e-10	0.04539626	0.04539626	0	108299.4	108299.11	-2.375e-05	679609.94	161875.25	-7.891414e-05	161877.19	679609.6	-0.0001104798
0	0.60088784	0.6008863	-1.3778075e-10	0.04525479	0.04525479	0	108267.97	108267.7	-2.5e-05	679686.4	161554.6	-5.3418804e-05	161556.56	679686.25	-0.00012747668
0	0.6007129	0.6007113	-1.7714667e-10	0.04511347	0.04511347	0	108236.445	108236.16	-3.375e-05	679762.94	161233.08	-9.469697e-05	161235.02	679762.8	-0.00014568765
0	0.6005371	0.60053563	-1.898827e-10	0.04497199	0.04497199	0	108204.79	108204.516	-3e-05	679839.56	160910.52	-0.00018210955	160912.48	679839.3	-6.191725e-05
0	0.6003613	0.60035974	-1.1115085e-10	0.04483065	0.04483065	0	108173.09	108172.82	-1.65625e-05	679916.1	160587.81	-6.3131316e-05	160589.75	679915.8	-8.19493e-05
0	0.6001849	0.6001833	-3.357682e-11	0.044689175	0.044689175	0	108141.305	108141.04	-6.25e-06	679992.56	160264.3	-3.8850038e-05	160266.25	679992.3	-2.4281275e-05