//mumax 3.10 [windows_amd64 go1.11.6(gc) CUDA-11.0]
//GPU info: NVIDIA GeForce RTX 3090(24575MB), CUDA Driver 12.1, cc=8.6, using cc=80 PTX
//(c) Arne Vansteenkiste, Dynamat LAB, Ghent University, Belgium
//This is free software without any warranty. See license.txt
//********************************************************************//
//  If you use mumax in any work or publication,                      //
//  we kindly ask you to cite the references in references.bib        //
//********************************************************************//
//output directory: r1;p0.5;a4.2e-07;l1.8000000000000002e-07;s2.out/
randSeed(2)
ThermSeed(2)
resolution := 2e-09
zResolution := 5e-09
a := 4.2e-07
gridSize := 420
gridDepth := 5
SetCellsize(resolution, resolution, zResolution)
SetGridsize(gridSize, gridSize, gridDepth)
SetPBC(16, 16, 0)
//resizing...
Msat = 700e3
Aex = 13e-12
alpha = 0.2
Bmax := 0.1
Bstep := Bmax / 500.0
TableAdd(B_ext)
TableAdd(m_full)
islandWidth := 8e-08
islandLength := 1.8000000000000002e-07
ellipseConstant := 4.5000000000000006e-08
hIsland := Universe().Inverse()
vIsland := Universe().Inverse()
vIslands := Universe().Inverse()
hIslands := Universe().Inverse()
hIsland = rect(islandLength-2*ellipseConstant, islandWidth)
hIsland = hIsland.add(ellipse(ellipseConstant*2, islandWidth).transl(islandLength/2-ellipseConstant, 0, 0))
hIsland = hIsland.add(ellipse(ellipseConstant*2, islandWidth).transl(-islandLength/2+ellipseConstant, 0, 0))
hIsland = hIsland.add(rect(3.0070303837133798e-09, 7.341244433113124e-11).transl(7.652211418343864e-08, -2.8546432678906898e-08, 0))
hIsland = hIsland.sub(rect(5.773309627872475e-09, -1.7791096256137382e-09).transl(2.0545577752567047e-08, -4e-08, 0))
hIsland = hIsland.add(rect(5.864812994886524e-09, 3.519198554699444e-09).transl(-5.3818466891384217e-08, -3.9224428182831074e-08, 0))
hIsland = hIsland.add(rect(9.320264693754752e-09, 2.0461886443829543e-09).transl(5.4057788239866805e-09, -4e-08, 0))
hIsland = hIsland.sub(rect(6.732706004403002e-09, -1.200244670553241e-09).transl(-6.854323931218518e-08, -3.4088812199701406e-08, 0))
hIsland = hIsland.sub(rect(4.285157858659069e-09, -5.2494851356397565e-11).transl(-3.84663791026904e-09, -4e-08, 0))
hIsland = hIsland.add(rect(4.2709856219423755e-09, 1.2439499011361082e-09).transl(8.435557292011842e-08, -1.9396094913149286e-08, 0))
hIsland = hIsland.add(rect(2.1497190111922227e-09, 2.171033191794267e-09).transl(4.416197610884478e-08, -4e-08, 0))
hIsland = hIsland.add(rect(5.421459117380745e-09, 9.388011931490915e-10).transl(-3.728501960668819e-09, -4e-08, 0))
hIsland = hIsland.add(rect(5.758121908013393e-09, 3.2091966361454996e-09).transl(3.770306457796255e-08, -4e-08, 0))
hIsland = hIsland.sub(rect(6.374513814609344e-09, -3.473781765362215e-09).transl(2.0237620874365983e-08, -4e-08, 0))
hIsland = hIsland.add(rect(2.1633327036522305e-09, 6.228071075473905e-10).transl(5.8914964932942626e-08, -3.8039602505121375e-08, 0))
hIsland = hIsland.add(rect(3.490983746962554e-09, 1.9743345724485928e-09).transl(-7.625467068714564e-08, -2.8777845528714136e-08, 0))
hIsland = hIsland.sub(rect(6.4626015150086405e-09, -2.629155995724499e-09).transl(-6.72782695235813e-08, -3.475406313402347e-08, 0))
hIsland = hIsland.add(rect(7.083070485185208e-09, 4.724858956950436e-09).transl(-7.249506333595519e-09, -4e-08, 0))
hIsland = hIsland.add(rect(2.3188500826135856e-09, 9.656139104908403e-10).transl(-7.812610753789685e-08, -2.7073358040065613e-08, 0))
hIsland = hIsland.sub(rect(5.47251931316928e-09, -7.581222067302447e-10).transl(6.733000622946313e-08, -3.47278186769337e-08, 0))
hIsland = hIsland.sub(rect(8.986891145687021e-09, -3.875405197007276e-10).transl(-3.94034394784932e-08, -4e-08, 0))
hIsland = hIsland.sub(rect(7.671277838737484e-09, -1.0894629591533174e-09).transl(-7.67002409766655e-08, -2.8390152659273596e-08, 0))
hIsland = hIsland.add(rect(6.5969650012699645e-09, 3.428466635363462e-09).transl(-4.544827282514558e-08, -3.999801527396311e-08, 0))
hIsland = hIsland.sub(rect(3.2392157821695174e-09, -3.461972230275552e-09).transl(6.890283429356214e-08, -3.389050794220048e-08, 0))
hIsland = hIsland.sub(rect(4.974801685903241e-09, -4.0506925941766313e-10).transl(-2.522685240974758e-08, -4e-08, 0))
hIsland = hIsland.add(rect(5.333497346955333e-09, 2.994569455197375e-10).transl(7.557990065770327e-08, -2.934504380071995e-08, 0))
hIsland = hIsland.add(rect(5.872119010896877e-09, 2.449201878900756e-09).transl(-2.4872208197157294e-08, -4e-08, 0))
hIsland = hIsland.add(rect(3.6049176116712013e-09, 2.818932218667965e-09).transl(-4.20703919416768e-09, -4e-08, 0))
hIsland = hIsland.add(rect(2.798691494967896e-09, 2.7666528656582195e-09).transl(2.0671654790006167e-08, -4e-08, 0))
hIsland = hIsland.add(rect(2.4826361784530812e-09, 2.9544636980148406e-10).transl(8.2272888792607e-08, -2.2412197050606648e-08, 0))
hIsland = hIsland.add(rect(6.3509150019291815e-09, 1.333903053696021e-10).transl(-1.8675752822021866e-08, -4e-08, 0))
hIsland = hIsland.add(rect(7.329322407895701e-09, 2.4527646798821494e-09).transl(-7.655642439582819e-08, -2.8516465479391685e-08, 0))
hIsland = hIsland.sub(rect(6.026521187290074e-09, -9.145584318780895e-10).transl(-7.950569631187864e-08, -2.5675766306636537e-08, 0))
hIsland = hIsland.sub(rect(2.1180962827215722e-09, -1.0068161835702093e-09).transl(6.508350765338389e-08, -3.579533283970635e-08, 0))
hIsland = hIsland.sub(rect(4.026750523229361e-09, -3.6804791125534822e-09).transl(-3.211268405808912e-08, -4e-08, 0))
hIsland = hIsland.add(rect(2.217692305759467e-09, 3.757456278491416e-09).transl(4.9267339688793586e-08, -3.9819740120864585e-08, 0))
hIsland = hIsland.sub(rect(4.398076454353811e-09, -2.736038277154985e-09).transl(7.834448735674682e-08, -2.6860703875255658e-08, 0))
hIsland = hIsland.add(rect(7.542134533160705e-09, 1.1578045410268542e-09).transl(4.698194790425371e-08, -3.996118494521946e-08, 0))
hIsland = hIsland.add(rect(4.8775926489832874e-09, 1.0290499111200647e-10).transl(-8.169425055645485e-08, -2.315435230143256e-08, 0))
hIsland = hIsland.add(rect(3.1393866289559747e-09, 8.354256297819238e-10).transl(-2.7267674106454398e-08, -4e-08, 0))
hIsland = hIsland.add(rect(3.445749308762344e-09, 5.603356045451464e-10).transl(3.782921274323829e-09, -4e-08, 0))
hIsland = hIsland.add(rect(2.8296787962868922e-09, 2.2403938600756632e-09).transl(7.077866248309658e-08, -3.278615257931532e-08, 0))
hIsland = hIsland.sub(rect(8.718511007438504e-09, -6.633400957466439e-10).transl(-1.070749418708468e-08, -4e-08, 0))
hIsland = hIsland.add(rect(6.574583619347015e-09, 8.525026544391497e-10).transl(-1.2015600482938017e-08, -4e-08, 0))
hIsland = hIsland.sub(rect(9.81324355052502e-09, -9.438765456130544e-10).transl(-5.611300898055363e-08, -3.8761070264097185e-08, 0))
hIsland = hIsland.add(rect(6.60900994476354e-09, 1.4132183284304415e-09).transl(4.462196630840604e-08, -4e-08, 0))
hIsland = hIsland.add(rect(7.866305854131744e-09, 5.473098604404517e-10).transl(-7.125716317675795e-08, -3.248474066126153e-08, 0))
hIsland = hIsland.add(rect(9.289148104210949e-09, 3.878224713607671e-09).transl(5.4890143714635795e-08, -3.9021969701069553e-08, 0))
hIsland = hIsland.sub(rect(3.3058586663266266e-09, -1.5932008439909552e-09).transl(2.5220585045354804e-08, -4e-08, 0))
hIsland = hIsland.add(rect(8.166391026511298e-09, 3.063182135648642e-09).transl(-3.525960197757021e-08, -4e-08, 0))
hIsland = hIsland.sub(rect(5.369844467009392e-09, -8.50077090775546e-10).transl(5.889854924982303e-08, -3.8044344015965516e-08, 0))
hIsland = hIsland.add(rect(2.2520507430258886e-09, 6.241566013065306e-10).transl(2.8818867370177825e-08, -4e-08, 0))
hIsland = hIsland.add(rect(9.500315707440862e-09, 4.5331370772495676e-10).transl(4.198681436036162e-08, -4e-08, 0))
hIsland = hIsland.sub(rect(7.314638769681736e-09, -2.304683108048441e-09).transl(1.4226239108481473e-08, -4e-08, 0))
hIsland = hIsland.add(rect(4.774394377811965e-09, 1.1845359109888505e-09).transl(-4.293942364954152e-08, -4e-08, 0))
hIsland = hIsland.add(rect(6.051889328395114e-09, 1.3671688224991526e-09).transl(-2.3116735163209828e-08, -4e-08, 0))
hIsland = hIsland.add(rect(7.399871352691281e-09, 1.4548079225881763e-09).transl(-4.8764502191492934e-08, -3.985978905868247e-08, 0))
hIsland = hIsland.add(rect(3.419042335454065e-09, 7.957200755034758e-10).transl(8.253912050434349e-08, -2.2058318783709618e-08, 0))
hIsland = hIsland.add(rect(8.339931366172866e-09, 6.939783883103096e-10).transl(-3.199681641355694e-08, -4e-08, 0))
hIsland = hIsland.sub(rect(5.792456610036466e-09, -1.5770315849151257e-09).transl(4.678675776515858e-08, -3.99684566658236e-08, 0))
hIsland = hIsland.sub(rect(5.5219328269755954e-09, -7.651147055257211e-10).transl(-1.7088048549925185e-08, -4e-08, 0))
hIsland = hIsland.sub(rect(9.223469023679603e-09, -4.115929890906298e-10).transl(-2.451040445373682e-09, -4e-08, 0))
hIsland = hIsland.sub(rect(8.49579330035877e-09, -1.1556954567872629e-09).transl(7.08192147195444e-08, -3.2760930073365595e-08, 0))
hIsland = hIsland.sub(rect(6.785174897364191e-09, -2.5196518088278653e-09).transl(-8.087154710988513e-08, -2.4151490741600483e-08, 0))
hIsland = hIsland.sub(rect(6.34801139628084e-09, -2.7310621215416333e-09).transl(5.109950062981401e-08, -3.9630850604772496e-08, 0))
hIsland = hIsland.sub(rect(3.764771771277785e-09, -2.125674862467407e-09).transl(7.120349131582988e-08, -3.251896516794557e-08, 0))
hIsland = hIsland.sub(rect(4.778934491055755e-09, -2.4824782244602764e-09).transl(-8.418585294366219e-08, -1.966572862200173e-08, 0))
hIsland = hIsland.add(rect(4.51109530252957e-09, 8.110234838628785e-11).transl(-6.732953259638126e-08, -3.472805930274581e-08, 0))
hIsland = hIsland.add(rect(2.149894188625395e-09, 2.2994063688259174e-09).transl(-9.711220235534098e-09, -4e-08, 0))
hIsland = hIsland.sub(rect(5.797816139452396e-09, -4.339679959709173e-10).transl(9.323590689999517e-09, -4e-08, 0))
hIsland = hIsland.add(rect(7.095738724562612e-09, 4.22205795151504e-09).transl(6.4971715468303956e-09, -4e-08, 0))
hIsland = hIsland.sub(rect(2.6890862372382396e-09, -1.5302421718018383e-09).transl(-8.744953589422757e-10, -4e-08, 0))
hIsland = hIsland.add(rect(4.7444281096973e-09, 6.292430304985132e-10).transl(8.33059240938017e-08, -2.099088440501292e-08, 0))
hIsland = hIsland.add(rect(8.855008619722105e-09, 1.5432564802444198e-09).transl(-8.136142818473234e-08, -2.3565558301627406e-08, 0))
hIsland = hIsland.sub(rect(6.190398079986721e-09, -2.439198087828909e-09).transl(3.131652739736888e-08, -4e-08, 0))
hIsland = hIsland.sub(rect(2.0482366433839598e-09, -2.37914603979334e-09).transl(-5.901175644564873e-08, -3.8011519307253246e-08, 0))
hIsland = hIsland.add(rect(2.199756101325803e-09, 2.719330108241533e-09).transl(-4.0068348116202614e-08, -4e-08, 0))
hIsland = hIsland.sub(rect(6.788094349033092e-09, -5.127626950355204e-10).transl(4.2624429579992754e-08, -4e-08, 0))
hIsland = hIsland.add(rect(4.020808349685072e-09, 5.451521523519327e-10).transl(3.292121321889045e-08, -4e-08, 0))
hIsland = hIsland.sub(rect(8.677723946289419e-09, -2.2977079774524055e-10).transl(4.287226798116943e-08, -4e-08, 0))
hIsland = hIsland.sub(rect(9.352828987828321e-09, -4.728662324539446e-10).transl(-7.243094662849132e-08, -3.170908712145368e-08, 0))
hIsland = hIsland.add(rect(7.859502267607436e-09, 1.1662438449938964e-09).transl(8.13816980473039e-08, -2.354082637516203e-08, 0))
hIsland = hIsland.sub(rect(2.5495749473702686e-09, -1.0388816892496669e-09).transl(1.830312272034511e-08, -4e-08, 0))
hIsland = hIsland.sub(rect(2.2551668116765696e-09, -1.514184136176808e-09).transl(-7.887842828265782e-08, -2.6327503858788388e-08, 0))
hIsland = hIsland.add(rect(9.863759127232467e-09, 3.162546018282801e-10).transl(-3.593118809846457e-08, -4e-08, 0))
hIsland = hIsland.sub(rect(3.2284654462482383e-09, -3.074185770481734e-09).transl(5.1870690865619354e-08, -3.9531014679656725e-08, 0))
hIsland = hIsland.add(rect(2.9078737268800866e-09, 3.4151519324260085e-09).transl(-6.258936652405826e-08, -3.6817754013430164e-08, 0))
hIsland = hIsland.add(rect(6.3759059583100576e-09, 1.9176527948439177e-09).transl(-5.979510502322163e-08, -3.777626002024956e-08, 0))
hIsland = hIsland.sub(rect(2.1182645830659493e-09, -2.1898432499128195e-09).transl(7.860401313666241e-08, -2.660393066454221e-08, 0))
hIsland = hIsland.sub(rect(7.59359300790411e-09, -2.3662963067310102e-09).transl(2.065838664605668e-08, -4e-08, 0))
hIsland = hIsland.add(rect(9.215648212068034e-09, 1.36172181890218e-09).transl(-3.321768140441632e-08, -4e-08, 0))
hIsland = hIsland.add(rect(3.3326497227496808e-09, 1.1543504495031877e-09).transl(-5.499220948365979e-09, -4e-08, 0))
hIsland = hIsland.sub(rect(9.397528411456486e-09, -1.0043594497036707e-09).transl(7.126898754548507e-08, -3.247718644184546e-08, 0))
hIsland = hIsland.add(rect(4.276086432251142e-09, 2.536295044449763e-09).transl(7.642465565244962e-08, -2.8631206555775463e-08, 0))
hIsland = hIsland.sub(rect(9.306711389844506e-09, -4.061359676254653e-09).transl(7.4657483261647e-08, -3.008378340515861e-08, 0))
hIsland = hIsland.add(rect(8.427293638514022e-09, 1.8800652026539224e-09).transl(8.737272862816161e-08, -1.3467528204320304e-08, 0))
hIsland = hIsland.sub(rect(5.930339995881128e-09, -2.1169618809045925e-09).transl(6.373296074462981e-08, -3.636931205902231e-08, 0))
hIsland = hIsland.sub(rect(3.4976106514547953e-09, -2.146294564315427e-09).transl(2.849295677013714e-09, -4e-08, 0))
hIsland = hIsland.add(rect(4.569405770856032e-09, 1.143676052759496e-09).transl(-5.0443239658225436e-08, -3.970629099166233e-08, 0))
hIsland = hIsland.add(rect(5.213847472770697e-09, 2.4830097690637106e-09).transl(2.7755331255153226e-08, -4e-08, 0))
hIsland = hIsland.sub(rect(4.665406900377473e-09, -1.1128536344694659e-09).transl(2.9079703084174178e-08, -4e-08, 0))
hIsland = hIsland.sub(rect(9.698701275817931e-09, -1.1998052088428831e-11).transl(4.5611655354678865e-08, -3.999630479452406e-08, 0))
hIsland = hIsland.add(rect(2.3908828849250465e-09, 3.565111944189897e-09).transl(-5.35975252759104e-08, -3.926316462159897e-08, 0))
hIsland = hIsland.add(rect(6.8527630335835535e-09, 9.633333012237546e-10).transl(3.6012346943512835e-09, -4e-08, 0))
hIsland = hIsland.add(rect(9.557323355404451e-09, 3.5784570270632066e-10).transl(-1.448448210480982e-08, -4e-08, 0))
hIsland = hIsland.sub(rect(9.026889193913989e-09, -2.406350505209941e-09).transl(-6.865820662642251e-08, -3.402586390811451e-08, 0))
hIsland = hIsland.sub(rect(4.889435527005948e-09, -4.683850757292504e-09).transl(5.702213277738592e-08, -3.8546103981266894e-08, 0))
hIsland = hIsland.add(rect(9.189879359709167e-09, 2.384723579372526e-10).transl(-5.063177988781831e-08, -3.9685509925046886e-08, 0))
hIsland = hIsland.add(rect(5.598835226209989e-09, 5.81820765086083e-11).transl(8.801230401211739e-08, -1.1756935976726362e-08, 0))
hIsland = hIsland.add(rect(8.203041653093162e-09, 1.2049226838003535e-09).transl(5.144397782762749e-08, -3.958775368448359e-08, 0))
hIsland = hIsland.add(rect(2.269886510424158e-09, 8.268060840525042e-11).transl(-9.342262922230801e-09, -4e-08, 0))
hIsland = hIsland.sub(rect(9.848613345686926e-09, -7.389736215240059e-10).transl(-8.752117277958518e-08, -1.3092638299382282e-08, 0))
hIsland = hIsland.add(rect(3.334619536135792e-09, 8.902793183078286e-10).transl(-4.828191267573049e-09, -4e-08, 0))
hIsland = hIsland.add(rect(3.929218754217254e-09, 1.8026985573968715e-09).transl(6.593751902018736e-10, -4e-08, 0))
hIsland = hIsland.sub(rect(9.47751452478249e-09, -1.2650820881190218e-09).transl(-4.744744573025721e-09, -4e-08, 0))
hIsland = hIsland.sub(rect(9.707011720588793e-09, -9.682390635679082e-10).transl(-6.264104245833596e-08, -3.679821381583757e-08, 0))
hIsland = hIsland.add(rect(9.554338696134331e-09, 1.9006273757600994e-09).transl(2.0954818901099834e-08, -4e-08, 0))
hIsland = hIsland.add(rect(9.14395612822451e-09, 8.874422390380286e-10).transl(4.295167221975817e-08, -4e-08, 0))
hIsland = hIsland.sub(rect(3.321772774404621e-09, -6.599800991959556e-10).transl(6.133292013846621e-08, -3.7272285746129445e-08, 0))
hIsland = hIsland.add(rect(5.936686223865809e-09, 2.521576074206069e-10).transl(2.4323563858405797e-11, -4e-08, 0))
hIsland = hIsland.add(rect(9.243304389179083e-09, 1.0509623084881062e-09).transl(1.9974462599629657e-08, -4e-08, 0))
hIsland = hIsland.add(rect(8.539415638036332e-09, 2.6402635205027688e-09).transl(-4.16825478088732e-09, -4e-08, 0))
hIsland = hIsland.sub(rect(9.896579347036045e-09, -2.1021458935286014e-09).transl(7.953967684686211e-09, -4e-08, 0))
hIsland = hIsland.add(rect(7.168314785874567e-09, 4.944730283172541e-10).transl(2.5447987655700126e-09, -4e-08, 0))
hIsland = hIsland.add(rect(2.426843952527668e-09, 4.311846862686023e-10).transl(-3.922275912071509e-08, -4e-08, 0))
hIsland = hIsland.add(rect(8.353611059624871e-09, 9.037963003310392e-10).transl(-6.149303470390226e-08, -3.721653482260504e-08, 0))
hIsland = hIsland.sub(rect(3.0482728251415897e-09, -5.195486015092639e-09).transl(-5.182923431721507e-08, -3.953669021926071e-08, 0))
hIsland = hIsland.sub(rect(9.833228891372706e-09, -5.175641180323182e-10).transl(4.2776245340180926e-08, -4e-08, 0))
hIsland = hIsland.add(rect(8.729259544428547e-09, 1.323707711908199e-09).transl(6.527924047850517e-08, -3.5708033117603495e-08, 0))
hIsland = hIsland.add(rect(5.217112401649197e-09, 1.0424996661960523e-10).transl(1.7237018619665782e-08, -4e-08, 0))
hIsland = hIsland.add(rect(9.577740414720723e-09, 9.161855902726492e-10).transl(-8.909194452392774e-08, -7.99508135701494e-09, 0))
hIsland = hIsland.add(rect(4.548482896285503e-09, 3.252984843648403e-09).transl(6.062955839982297e-08, -3.750981466139319e-08, 0))
hIsland = hIsland.add(rect(4.415275256121947e-09, 3.9845110048654725e-09).transl(-7.430712355888379e-08, -3.03538637394735e-08, 0))
hIsland = hIsland.add(rect(7.245624659547476e-09, 3.034927398630224e-09).transl(5.961338209158115e-08, -3.7832108005301585e-08, 0))
hIsland = hIsland.add(rect(6.106752455297685e-09, 9.900936021682043e-10).transl(4.844747015386316e-08, -3.988244404302494e-08, 0))
hIsland = hIsland.add(rect(5.655192808026044e-09, 1.744783119633137e-09).transl(-6.181986432871143e-08, -3.7100780081259985e-08, 0))
hIsland = hIsland.sub(rect(8.904298206283948e-09, -2.105427031779852e-09).transl(1.1688620929827087e-08, -4e-08, 0))
hIsland = hIsland.sub(rect(9.861402922619794e-09, -2.3514465791739574e-10).transl(-6.463269255110666e-08, -3.5992398464325664e-08, 0))
hIsland = hIsland.add(rect(3.7110623345359157e-09, 2.9852582419139064e-10).transl(1.1044571435508326e-08, -4e-08, 0))
hIsland = hIsland.add(rect(8.300314541719193e-09, 9.801316103645155e-10).transl(-7.812534868669878e-08, -2.7074091656414807e-08, 0))
hIsland = hIsland.add(rect(2.8843281716655336e-09, 2.1299534332807065e-09).transl(5.613388181501564e-08, -3.8756337155515757e-08, 0))
hIsland = hIsland.sub(rect(9.754713606833374e-09, -2.402176118775979e-09).transl(-4.973779798256689e-08, -3.977768611064681e-08, 0))
hIsland = hIsland.add(rect(9.240161022987156e-09, 1.0842469830580324e-09).transl(8.940695287290643e-08, -6.47258448083191e-09, 0))
hIsland = hIsland.sub(rect(2.7101518045353626e-09, -3.8445532604135866e-09).transl(8.11791609475546e-08, -2.3786180249651096e-08, 0))
hIsland = hIsland.sub(rect(6.777385485967857e-09, -1.35879311174597e-09).transl(-9.101049158080716e-09, -4e-08, 0))
hIsland = hIsland.add(rect(3.6934972899119134e-09, 2.1207223122088277e-09).transl(-3.2918970649384296e-08, -4e-08, 0))
hIsland = hIsland.add(rect(6.3990331973358164e-09, 2.4798760280323315e-11).transl(2.0668195403747813e-08, -4e-08, 0))
hIsland = hIsland.sub(rect(9.779132139403525e-09, -1.796191562738105e-09).transl(1.86650194706676e-09, -4e-08, 0))
hIsland = hIsland.sub(rect(4.508456677638143e-09, -5.275819559100293e-10).transl(-2.4284043311755338e-08, -4e-08, 0))
hIsland = hIsland.sub(rect(9.846276418503216e-09, -3.608693053994353e-11).transl(-8.793527578564888e-08, -1.1977331451928346e-08, 0))
hIsland = hIsland.sub(rect(3.5456402859287775e-09, -2.4137667823771315e-09).transl(-8.491636569661241e-08, -1.8468444884553006e-08, 0))
hIsland = hIsland.sub(rect(2.4683046848872573e-09, -8.458370185304317e-10).transl(-2.6249374102431674e-08, -4e-08, 0))
hIsland = hIsland.sub(rect(7.40285509000898e-09, -2.345520425217828e-09).transl(-8.527904219659204e-08, -1.7835434498028317e-08, 0))
hIsland = hIsland.sub(rect(5.531729633393288e-09, -2.1984548724932253e-10).transl(7.45834716405583e-08, -3.0141306132312916e-08, 0))
hIsland = hIsland.add(rect(6.597599344561704e-09, 1.4743093781919782e-09).transl(5.618769691939927e-08, -3.87440904309319e-08, 0))
hIsland = hIsland.add(rect(9.697084307729025e-09, 1.3419822241327398e-09).transl(-5.2986959590445254e-08, -3.9364918657844845e-08, 0))
hIsland = hIsland.add(rect(9.362367589654061e-09, 1.7229964861413938e-09).transl(3.661784029229936e-08, -4e-08, 0))
hIsland = hIsland.add(rect(3.956623944165887e-09, 4.103767774882059e-09).transl(-5.742636179787908e-10, -4e-08, 0))
hIsland = hIsland.add(rect(5.8911957132838076e-09, 1.4097627217641897e-09).transl(3.7920370526074194e-08, -4e-08, 0))
hIsland = hIsland.add(rect(5.502349057190889e-09, 1.611020348213989e-09).transl(6.107150072242611e-08, -3.736196642223933e-08, 0))
hIsland = hIsland.sub(rect(3.842159171132805e-09, -7.639095080703303e-10).transl(-9.534973944211509e-09, -4e-08, 0))
hIsland = hIsland.sub(rect(8.090174858529531e-09, -5.119011148991979e-10).transl(2.6618397933195076e-08, -4e-08, 0))
hIsland = hIsland.sub(rect(6.599951141756391e-09, -4.5063168870875814e-10).transl(-8.444164741664357e-09, -4e-08, 0))
hIsland = hIsland.add(rect(4.518797376841499e-09, 2.234117275603587e-09).transl(2.4064892773630835e-08, -4e-08, 0))
hIsland = hIsland.add(rect(2.979513111774698e-09, 1.068942757218756e-09).transl(3.6387057666577596e-08, -4e-08, 0))
hIsland = hIsland.add(rect(3.1379742124018463e-09, 1.0181117786683759e-09).transl(-2.4369879956397987e-09, -4e-08, 0))
hIsland = hIsland.sub(rect(3.4791680811965025e-09, -2.4563780520161967e-11).transl(6.618697794377433e-08, -3.5289134794665415e-08, 0))
hIsland = hIsland.sub(rect(8.910688600640112e-09, -7.573691669288325e-10).transl(-4.640850089669722e-08, -3.998040137372498e-08, 0))
hIsland = hIsland.add(rect(7.524237464706536e-09, 1.5682529982306844e-09).transl(8.806801984122308e-08, -1.1594657499605103e-08, 0))
hIsland = hIsland.add(rect(5.333897610981513e-09, 2.028464882054999e-09).transl(3.3267746136512974e-08, -4e-08, 0))
hIsland = hIsland.add(rect(5.405301530416294e-09, 8.48882305013123e-10).transl(-7.40939982446297e-08, -3.0515430833049125e-08, 0))
hIsland = hIsland.add(rect(8.625577231047782e-09, 1.807859696386822e-09).transl(4.3851080183636676e-08, -4e-08, 0))
hIsland = hIsland.add(rect(7.829617708894705e-09, 1.4800076752827964e-10).transl(-2.8827663583104092e-08, -4e-08, 0))
hIsland = hIsland.add(rect(3.3041939990993864e-09, 1.103236505535247e-09).transl(5.966224211928e-08, -3.781716802407963e-08, 0))
hIsland = hIsland.sub(rect(2.56488974206897e-09, -1.9635314892365768e-09).transl(-5.75986760317076e-08, -3.840034323147095e-08, 0))
hIsland = hIsland.add(rect(8.635375583075888e-09, 1.7279184600677264e-10).transl(-2.347816519296444e-08, -4e-08, 0))
hIsland = hIsland.sub(rect(8.905617302641826e-09, -4.594712178174605e-10).transl(-6.062489241583753e-08, -3.751135057315355e-08, 0))
hIsland = hIsland.sub(rect(5.6280860492969926e-09, -2.5188137368560553e-09).transl(4.5863005372149256e-09, -4e-08, 0))
hIsland = hIsland.sub(rect(3.762794673941626e-09, -1.131204000696068e-09).transl(-4.140368710803853e-08, -4e-08, 0))
hIsland = hIsland.sub(rect(4.702365910876783e-09, -2.9165309526094748e-09).transl(5.536726211983189e-08, -3.892399559395822e-08, 0))
hIsland = hIsland.add(rect(6.934972973509262e-09, 1.3847807136446458e-09).transl(3.271056017819604e-08, -4e-08, 0))
hIsland = hIsland.add(rect(5.740931241592318e-09, 1.1251234075426123e-09).transl(2.1246591715528717e-08, -4e-08, 0))
hIsland = hIsland.add(rect(9.120905408190002e-09, 1.4532685575298593e-10).transl(-8.961190359714293e-08, -5.242037672921409e-09, 0))
hIsland = hIsland.sub(rect(7.056885338669779e-09, -8.249259632780273e-10).transl(8.181518030633959e-08, -2.3002179160520996e-08, 0))
hIsland = hIsland.add(rect(5.937287726108648e-09, 3.7973397154686165e-09).transl(-5.630595917639032e-08, -3.871695618177733e-08, 0))
hIsland = hIsland.sub(rect(6.647261812489576e-09, -1.2082040491279933e-09).transl(1.2502755844449326e-08, -4e-08, 0))
hIsland = hIsland.sub(rect(6.875498645563772e-09, -2.463302256485739e-10).transl(-1.1241776947539425e-08, -4e-08, 0))
hIsland = hIsland.add(rect(5.258475630278804e-09, 4.5716611113792365e-10).transl(-6.122527879749475e-08, -3.7309413797074556e-08, 0))
hIsland = hIsland.add(rect(9.624871145298863e-09, 1.1592915986847672e-09).transl(-3.3728961838653146e-08, -4e-08, 0))
hIsland = hIsland.add(rect(4.370058998605166e-09, 6.490772139244807e-10).transl(-2.3500458712224e-08, -4e-08, 0))
hIsland = hIsland.add(rect(4.025776993269055e-09, 1.9164135947082497e-09).transl(-4.87083459777367e-08, -3.986394808131343e-08, 0))
hIsland = hIsland.sub(rect(3.6239824989890216e-09, -1.2298058675101482e-09).transl(6.209614278151163e-08, -3.7000867812249886e-08, 0))
hIsland = hIsland.sub(rect(2.0739342073499946e-09, -7.430210676150783e-10).transl(5.488034059864338e-08, -3.9023931824406044e-08, 0))
hIsland = hIsland.sub(rect(7.045889790407312e-09, -6.053536309113153e-10).transl(4.411120391158497e-08, -4e-08, 0))
hIsland = hIsland.add(rect(2.4755884321197243e-09, 5.1544142742432335e-09).transl(-7.035240446738987e-09, -4e-08, 0))
hIsland = hIsland.add(rect(2.2133476631265652e-09, 1.5077409294835549e-10).transl(1.4507608540910576e-08, -4e-08, 0))
hIsland = hIsland.sub(rect(4.8454407301444314e-09, -1.1091191862610546e-09).transl(4.424386208818792e-08, -4e-08, 0))
hIsland = hIsland.sub(rect(4.085740366466571e-09, -2.9495543742222845e-09).transl(-3.592620003393209e-08, -4e-08, 0))
hIsland = hIsland.sub(rect(4.144426013683419e-09, -1.8014265988371276e-09).transl(7.094945569756627e-08, -3.2679522779356125e-08, 0))
hIsland = hIsland.add(rect(4.049597293899727e-09, 1.396107491769861e-09).transl(9.7709650228121e-09, -4e-08, 0))
hIsland = hIsland.add(rect(8.344269342077594e-09, 1.7910031858109012e-09).transl(-4.733470854467794e-08, -3.994612802891966e-08, 0))
hIsland = hIsland.sub(rect(9.602895063108474e-09, -2.3292116425539525e-10).transl(-8.754175078506556e-08, -1.3039713399603623e-08, 0))
hIsland = hIsland.add(rect(2.083273947375955e-09, 2.2566327382281048e-09).transl(5.829382474707692e-08, -3.821471992102228e-08, 0))
hIsland = hIsland.add(rect(7.671170433530713e-09, 2.371215320499888e-09).transl(-3.2507709144712607e-08, 4e-08, 0))
hIsland = hIsland.add(rect(5.616845876956315e-09, 1.7675150140287092e-09).transl(-7.0239882107969405e-09, 4e-08, 0))
hIsland = hIsland.sub(rect(6.434137788791724e-09, -1.782336594671397e-09).transl(5.324094902490639e-08, 3.93235318275547e-08, 0))
hIsland = hIsland.sub(rect(4.5068321450284225e-09, -2.4754855226096176e-10).transl(-3.126222171525994e-09, 4e-08, 0))
hIsland = hIsland.add(rect(2.735939579946047e-09, 1.8313793432459744e-10).transl(7.467638271219397e-08, 3.006905381499234e-08, 0))
hIsland = hIsland.add(rect(2.77701380058826e-09, 9.664427294954465e-10).transl(8.811398524652694e-08, 1.1458887151267695e-08, 0))
hIsland = hIsland.sub(rect(6.954179082785664e-09, -8.273669993291891e-10).transl(-4.444643680000074e-08, 4e-08, 0))
hIsland = hIsland.sub(rect(4.303735447271767e-09, -8.183334403621705e-10).transl(7.748863760237033e-08, 2.7676985873741533e-08, 0))
hIsland = hIsland.add(rect(9.974339685478114e-09, 6.872922876009984e-10).transl(-5.72126779925998e-08, 3.8498746453849416e-08, 0))
hIsland = hIsland.sub(rect(2.8167238291129353e-09, -9.06555356272197e-11).transl(5.302160937703273e-10, 4e-08, 0))
hIsland = hIsland.add(rect(4.2870295860424365e-09, 6.709457382455631e-10).transl(5.845485671823186e-08, 3.8170164349562004e-08, 0))
hIsland = hIsland.sub(rect(5.858056693695461e-09, -1.2257622717546783e-09).transl(-2.0817326313441576e-08, 4e-08, 0))
hIsland = hIsland.sub(rect(8.13149130174461e-09, -1.0095587737965142e-09).transl(3.812997462881809e-08, 4e-08, 0))
hIsland = hIsland.sub(rect(8.054665879673942e-09, -2.6461652570509284e-09).transl(-1.581564064739781e-08, 4e-08, 0))
hIsland = hIsland.add(rect(4.472781568332102e-09, 3.4891143658713228e-09).transl(1.4994536412806636e-08, 4e-08, 0))
hIsland = hIsland.sub(rect(4.190458838101972e-09, -1.3033596826410743e-09).transl(-9.16535240871396e-09, 4e-08, 0))
hIsland = hIsland.add(rect(5.188874119405806e-09, 9.925798423282758e-10).transl(5.836102356384509e-08, 3.819619836892311e-08, 0))
hIsland = hIsland.add(rect(7.604481383550357e-09, 8.119974350764986e-10).transl(-1.7133104384120725e-08, 4e-08, 0))
hIsland = hIsland.sub(rect(7.929881670539571e-09, -9.501758254844127e-10).transl(2.5769303063451117e-08, 4e-08, 0))
hIsland = hIsland.sub(rect(2.0918885945682543e-09, -7.657065052586721e-10).transl(-7.476627293710602e-08, 2.9998768638876786e-08, 0))
hIsland = hIsland.sub(rect(3.1033040083658705e-09, -8.176804230932538e-10).transl(-1.6338178778920508e-08, 4e-08, 0))
hIsland = hIsland.add(rect(3.036042308513387e-09, 5.763045658085355e-09).transl(3.2894025491334155e-08, 4e-08, 0))
hIsland = hIsland.add(rect(4.6496538164100176e-09, 1.0251740923421256e-09).transl(8.484055458459083e-08, 1.8597336018273802e-08, 0))
hIsland = hIsland.sub(rect(3.110953704808963e-09, -3.543427823420773e-09).transl(8.656634004861278e-08, 1.532500578923129e-08, 0))
hIsland = hIsland.sub(rect(4.910587274973444e-09, -1.2927988843402333e-09).transl(1.0575414254052491e-08, 4e-08, 0))
hIsland = hIsland.sub(rect(4.16665765978039e-09, -1.1528242775922997e-09).transl(2.773723707876074e-08, 4e-08, 0))
hIsland = hIsland.add(rect(8.1312550176354e-09, 3.162758612396921e-09).transl(-8.685643449975432e-08, 1.4687900883707044e-08, 0))
hIsland = hIsland.add(rect(4.039893154240573e-09, 3.4688670237824697e-09).transl(2.2715453105272117e-08, 4e-08, 0))
hIsland = hIsland.sub(rect(5.797515270553218e-09, -1.153396937317872e-09).transl(2.5295806873394242e-08, 4e-08, 0))
hIsland = hIsland.sub(rect(2.0095689066771084e-09, -8.934878765302895e-10).transl(-6.044846374691122e-09, 4e-08, 0))
hIsland = hIsland.sub(rect(8.648120272909178e-09, -7.267139872542281e-10).transl(-8.452454922624539e-08, 1.912268400939433e-08, 0))
hIsland = hIsland.sub(rect(8.286209650954401e-09, -2.0203067488053326e-09).transl(5.9290019448616084e-08, 3.79295809551545e-08, 0))
hIsland = hIsland.add(rect(2.603929405893852e-09, 2.8650499683733597e-10).transl(7.302367846108188e-08, 3.129688591628888e-08, 0))
hIsland = hIsland.sub(rect(2.587790852332508e-09, -2.0963702997245994e-10).transl(6.738774037048263e-08, 3.4698436509168965e-08, 0))
hIsland = hIsland.add(rect(3.844760723309381e-09, 1.0523169207845317e-09).transl(8.617726061338961e-08, 1.6133595550412545e-08, 0))
hIsland = hIsland.add(rect(7.239039447735291e-09, 2.11640260725813e-09).transl(-7.39760479662875e-08, 3.0603976428543395e-08, 0))
hIsland = hIsland.sub(rect(8.620208276726033e-09, -3.443801699554657e-10).transl(7.855888451276885e-08, 2.6648901790207298e-08, 0))
hIsland = hIsland.sub(rect(9.818692156952607e-09, -3.898524787377402e-09).transl(-3.78527665267182e-08, 4e-08, 0))
hIsland = hIsland.add(rect(9.992139779064677e-09, 2.1171773829943457e-09).transl(5.5606314075648065e-08, 3.8873074643383844e-08, 0))
hIsland = hIsland.add(rect(3.0700335119152946e-09, 2.6982509678590964e-09).transl(-6.924800611003546e-08, 3.369620793773182e-08, 0))
hIsland = hIsland.add(rect(3.921223300275894e-09, 6.891644582056403e-10).transl(1.8948116317616288e-08, 4e-08, 0))
hIsland = hIsland.add(rect(3.1506771218047266e-09, 7.22075988849606e-10).transl(-2.153597385816661e-08, 4e-08, 0))
hIsland = hIsland.sub(rect(2.955498372133934e-09, -1.8149604630019067e-10).transl(6.015647251717912e-08, 3.766289817489015e-08, 0))
hIsland = hIsland.add(rect(9.105814896527371e-09, 3.1713585722793043e-10).transl(-7.256708001616593e-08, 3.16156685565461e-08, 0))
hIsland = hIsland.sub(rect(9.569338770136035e-09, -6.558762695968906e-10).transl(-3.237538314412288e-08, 4e-08, 0))
hIsland = hIsland.sub(rect(2.5642174454421083e-09, -4.575858676059116e-10).transl(5.6204610366422596e-08, 3.874022843236634e-08, 0))
hIsland = hIsland.sub(rect(4.630969509782098e-09, -1.1520392763551291e-09).transl(1.0395785005927533e-08, 4e-08, 0))
hIsland = hIsland.sub(rect(7.083240520872029e-09, -1.551345570943767e-09).transl(4.5598977955915015e-08, 3.999645639027812e-08, 0))
hIsland = hIsland.add(rect(5.943453113795127e-09, 2.362397634278513e-09).transl(5.150731796385242e-08, 3.957956637463088e-08, 0))
hIsland = hIsland.add(rect(7.287621338524061e-09, 3.0566445456677723e-10).transl(-3.26821292526538e-08, 4e-08, 0))
hIsland = hIsland.add(rect(6.316304977818555e-09, 3.935830443092537e-09).transl(-7.396540781553904e-08, 3.0611933766943115e-08, 0))
hIsland = hIsland.sub(rect(7.3096737586093645e-09, -8.124607591683268e-10).transl(1.4571481751572006e-08, 4e-08, 0))
hIsland = hIsland.sub(rect(4.6233671387007185e-09, -1.7546218618067179e-09).transl(9.43887817981803e-09, 4e-08, 0))
hIsland = hIsland.sub(rect(6.392016707443545e-09, -1.7995382704184222e-09).transl(-6.377324752552404e-08, 3.63528950653306e-08, 0))
hIsland = hIsland.add(rect(3.894388961520865e-09, 3.4221292921206425e-09).transl(7.466596339249094e-08, 3.0077176331815484e-08, 0))
hIsland = hIsland.sub(rect(5.354788995687563e-09, -1.1798410629167862e-09).transl(-8.808309078087654e-09, 4e-08, 0))
hIsland = hIsland.sub(rect(8.318342239668413e-09, -1.3236540574313467e-09).transl(2.250253186423843e-08, 4e-08, 0))
hIsland = hIsland.sub(rect(6.5427174431535505e-09, -5.726707788659215e-10).transl(3.242249380073239e-08, 4e-08, 0))
hIsland = hIsland.sub(rect(2.14669192868963e-09, -2.321100034636345e-09).transl(4.919929099541587e-08, 3.98254557728436e-08, 0))
hIsland = hIsland.add(rect(2.6775269903679126e-09, 1.5681785546911905e-11).transl(8.429546302960495e-09, 4e-08, 0))
hIsland = hIsland.add(rect(9.098930142337928e-09, 1.704096247769973e-09).transl(-5.7361253378608604e-08, 3.846126198539262e-08, 0))
hIsland = hIsland.add(rect(6.733880705114625e-09, 2.723429460192421e-10).transl(8.430121201832686e-08, 1.9482991306123544e-08, 0))
hIsland = hIsland.sub(rect(9.697470628082583e-09, -2.4011745641236694e-09).transl(-3.666068322848805e-08, 4e-08, 0))
hIsland = hIsland.add(rect(4.002840274934543e-09, 1.667855452262235e-09).transl(2.9549374174575266e-09, 4e-08, 0))
hIsland = hIsland.sub(rect(8.356067966257734e-09, -2.9219980386130857e-09).transl(6.517376231747463e-08, 3.575520959940959e-08, 0))
hIsland = hIsland.sub(rect(2.9930423400512355e-09, -2.1498465638656077e-09).transl(4.594776459070995e-08, 3.999112733476835e-08, 0))
hIsland = hIsland.add(rect(8.139785403139397e-09, 2.09523999948323e-09).transl(6.512479011051641e-08, 3.577700838932741e-08, 0))
hIsland = hIsland.sub(rect(4.067098365056113e-09, -1.5317651428561962e-09).transl(-1.2246746275221673e-08, 4e-08, 0))
hIsland = hIsland.add(rect(8.108622451730753e-09, 3.2038868151497943e-09).transl(2.783449519803586e-09, 4e-08, 0))
hIsland = hIsland.sub(rect(2.2251682397370303e-09, -9.317989772296659e-11).transl(2.8196988546218613e-08, 4e-08, 0))
hIsland = hIsland.add(rect(9.497087086937288e-09, 1.877342869254475e-09).transl(-3.770726135458802e-08, 4e-08, 0))
hIsland = hIsland.sub(rect(2.2286608795021413e-09, -1.3165234729765866e-09).transl(-6.765952293882432e-08, 3.455876106815525e-08, 0))
hIsland = hIsland.sub(rect(9.950835574196559e-09, -1.8477702383433427e-09).transl(-2.587620570559024e-08, 4e-08, 0))
hIsland = hIsland.sub(rect(2.527108528749527e-09, -1.352604972985171e-09).transl(6.415835024113406e-08, 3.61938006127498e-08, 0))
hIsland = hIsland.add(rect(7.90764302325375e-09, 4.1263157702973236e-10).transl(-4.573674236320804e-08, 3.999463875864208e-08, 0))
hIsland = hIsland.sub(rect(5.923090219090383e-09, -1.0957607634458802e-09).transl(-8.692103768303126e-08, 1.454159736712084e-08, 0))
hIsland = hIsland.sub(rect(3.1417803901716993e-09, -2.8612915166942594e-09).transl(1.3596557156857671e-08, 4e-08, 0))
hIsland = hIsland.add(rect(2.95902698313457e-09, 7.75157772548995e-10).transl(-4.523471602253055e-08, 3.999945588162035e-08, 0))
hIsland = hIsland.sub(rect(8.454752250344254e-09, -3.683034188151023e-10).transl(4.478866634057678e-08, 4e-08, 0))
hIsland = hIsland.add(rect(8.830933924113215e-09, 5.204130440965241e-10).transl(-6.916035445435522e-08, 3.374591798797736e-08, 0))
hIsland = hIsland.add(rect(2.030171580105529e-09, 2.0201032772511806e-09).transl(8.683444513029746e-08, 1.4737316723524914e-08, 0))
hIsland = hIsland.add(rect(9.904359675437976e-09, 1.880996942651801e-09).transl(7.754445210293676e-08, 2.762512561581584e-08, 0))
hIsland = hIsland.sub(rect(5.025217871550097e-09, -1.1449424811211044e-09).transl(3.5412894266058753e-09, 4e-08, 0))
hIsland = hIsland.add(rect(6.0803929714443555e-09, 9.46332985153994e-10).transl(9.023692922229392e-09, 4e-08, 0))
hIsland = hIsland.add(rect(7.0794356002033516e-09, 2.4734007118842536e-09).transl(-3.867104263441223e-08, 4e-08, 0))
hIsland = hIsland.add(rect(5.4980393466967816e-09, 2.4917750160546305e-09).transl(-9.085165066915399e-09, 4e-08, 0))
hIsland = hIsland.sub(rect(5.576598492754243e-09, -1.1132356487426921e-09).transl(-1.476087750207997e-08, 4e-08, 0))
hIsland = hIsland.sub(rect(8.758331855436265e-09, -2.4358403211523386e-09).transl(-5.992334214891601e-08, 3.773638369145552e-08, 0))
hIsland = hIsland.sub(rect(6.007682036317497e-09, -1.040712462217703e-09).transl(9.794712376629524e-10, 4e-08, 0))
hIsland = hIsland.sub(rect(9.684704676520404e-09, -2.184465951271791e-09).transl(-3.007274527508759e-08, 4e-08, 0))
hIsland = hIsland.add(rect(4.6747525300907646e-09, 5.073580537194626e-10).transl(-4.473378372262973e-08, 4e-08, 0))
hIsland = hIsland.add(rect(6.693512117084068e-09, 1.0130617465440224e-09).transl(-1.1740038954336726e-08, 4e-08, 0))
hIsland = hIsland.sub(rect(5.76052625829769e-09, -1.5433273371771424e-09).transl(-5.754607348665183e-09, 4e-08, 0))
hIsland = hIsland.sub(rect(3.0065611205206288e-09, -3.096188237233992e-09).transl(2.818928558105538e-08, 4e-08, 0))
hIsland = hIsland.sub(rect(9.09273630935584e-09, -1.3025674598095632e-09).transl(4.306452834238406e-08, 4e-08, 0))
hIsland = hIsland.sub(rect(9.419782695625863e-09, -5.983638935494894e-11).transl(5.8794667189528096e-08, 3.807420598238734e-08, 0))
hIsland = hIsland.sub(rect(5.148356701596991e-09, -4.547200584785904e-10).transl(-6.36980495489059e-08, 3.638350398770081e-08, 0))
hIsland = hIsland.add(rect(8.554616083332626e-09, 7.552517257348748e-10).transl(4.867986459387197e-08, 3.9866033405804315e-08, 0))
hIsland = hIsland.add(rect(4.17352519648457e-09, 1.130806641192308e-09).transl(-6.91053628826023e-08, 3.377697636824799e-08, 0))
hIsland = hIsland.add(rect(2.9622375780153806e-09, 1.0262057359560025e-09).transl(5.564435441958241e-08, 3.8864858292118124e-08, 0))
hIsland = hIsland.add(rect(4.2295488915796775e-09, 5.267936361011153e-10).transl(3.3308215877073615e-08, 4e-08, 0))
hIsland = hIsland.add(rect(2.3066907123843734e-09, 6.575725508574151e-10).transl(-6.968601951402457e-08, 3.3443969763225104e-08, 0))
hIsland = hIsland.add(rect(2.377050050545652e-09, 6.710049016822957e-11).transl(-5.537960543950748e-08, 3.892139635291061e-08, 0))
hIsland = hIsland.add(rect(2.8083962869220714e-09, 1.9819568428016033e-09).transl(-3.0525859370958056e-08, 4e-08, 0))
hIsland = hIsland.add(rect(2.2477526976762237e-09, 2.1614411269049067e-09).transl(-4.678328940728865e-08, 3.9968579055496064e-08, 0))
hIsland = hIsland.sub(rect(4.172262655623147e-09, -2.5811808152438967e-09).transl(-1.456414177525051e-08, 4e-08, 0))
hIsland = hIsland.add(rect(6.3087509157231455e-09, 3.3053931116078984e-09).transl(-6.309447217318606e-08, 3.662384113761311e-08, 0))
hIsland = hIsland.sub(rect(3.269973131526549e-09, -9.555753005086603e-12).transl(3.872887841172663e-08, 4e-08, 0))
hIsland = hIsland.add(rect(2.6515610514138405e-09, 9.937426001501737e-10).transl(-8.431494349790361e-08, 1.946108936352559e-08, 0))
hIsland = hIsland.sub(rect(6.434398308896137e-09, -1.280115470404338e-09).transl(-9.419681680876683e-09, 4e-08, 0))
hIsland = hIsland.sub(rect(5.387697184494335e-09, -1.8067107136533736e-09).transl(4.304727104157201e-08, 4e-08, 0))
hIsland = hIsland.sub(rect(2.1241888421992368e-09, -3.0158543030424053e-09).transl(4.1132600812951207e-10, 4e-08, 0))
hIsland = hIsland.sub(rect(8.770143654334852e-09, -2.4729874889416757e-09).transl(3.436472028376659e-08, 4e-08, 0))
hIsland = hIsland.add(rect(4.583255286844485e-09, 1.7260477175443082e-09).transl(8.826437470736792e-08, 1.1001912513622517e-08, 0))
hIsland = hIsland.add(rect(7.476962539855197e-09, 1.5217932547782344e-09).transl(2.4843775503073023e-09, 4e-08, 0))
hIsland = hIsland.sub(rect(4.977116077362078e-09, -1.3750131625979886e-09).transl(7.313765353039947e-08, 3.1215981393558987e-08, 0))
hIsland = hIsland.add(rect(5.892633524819963e-09, 3.972517837158408e-09).transl(-5.412342170862158e-08, 3.9169281754290375e-08, 0))
hIsland = hIsland.add(rect(4.911913542479784e-09, 5.881237086656302e-10).transl(2.797986726011872e-08, 4e-08, 0))
hIsland = hIsland.sub(rect(5.384759945654081e-09, -4.580216969069854e-10).transl(2.9460204944016128e-08, 4e-08, 0))
hIsland = hIsland.add(rect(5.653761965781429e-09, 1.0757947281703535e-09).transl(2.7484248502876178e-08, 4e-08, 0))
hIsland = hIsland.sub(rect(6.2226574746312744e-09, -1.7898021153034022e-09).transl(2.9604169837248164e-09, 4e-08, 0))
hIsland = hIsland.sub(rect(2.3488984799123402e-09, -1.2577581334043348e-09).transl(-2.5780914601714157e-08, 4e-08, 0))
hIsland = hIsland.sub(rect(5.815757533616216e-09, -1.5593003213733849e-09).transl(7.937928273006601e-08, 2.5809404643889945e-08, 0))
hIsland = hIsland.add(rect(8.64624677654558e-09, 6.269888558028968e-10).transl(8.2159772367365e-08, 2.256012113802723e-08, 0))
hIsland = hIsland.sub(rect(9.5461572359104e-09, -5.444972580116886e-09).transl(2.103797819729677e-08, 4e-08, 0))
hIsland = hIsland.add(rect(2.5180397902402077e-09, 2.1142559539168198e-09).transl(-3.484005482493872e-08, 4e-08, 0))
hIsland = hIsland.add(rect(9.719035153630184e-09, 1.1253585412181544e-09).transl(8.473201491437005e-08, 1.8779910271427967e-08, 0))
hIsland = hIsland.add(rect(4.142925916305761e-09, 1.4652533446217195e-09).transl(2.36538716382933e-08, 4e-08, 0))
hIsland = hIsland.add(rect(8.818901414846852e-09, 8.762417532911679e-10).transl(3.879980826143002e-08, 4e-08, 0))
hIsland = hIsland.add(rect(6.388447418287903e-09, 2.18214500564071e-09).transl(-2.85282442380992e-10, 4e-08, 0))
hIsland = hIsland.add(rect(9.652417616240115e-09, 1.1080964681144432e-09).transl(-2.1779061719378884e-08, 4e-08, 0))
hIsland = hIsland.add(rect(8.934620204512823e-09, 1.5189400989836473e-09).transl(3.4222770288061785e-08, 4e-08, 0))
hIsland = hIsland.add(rect(2.213408273884209e-09, 5.285615866358055e-09).transl(-3.555427660908609e-09, 4e-08, 0))
hIsland = hIsland.sub(rect(6.585760954258568e-09, -7.806849065946422e-10).transl(4.7761090649183186e-08, 3.9924633971640574e-08, 0))
hIsland = hIsland.add(rect(7.164320879110522e-09, 1.5243156142576705e-09).transl(8.915655663234333e-09, 4e-08, 0))
hIsland = hIsland.add(rect(2.674592715668288e-09, 1.5428515754345639e-09).transl(-4.929860553683562e-08, 3.981708290684808e-08, 0))
hIsland = hIsland.add(rect(9.892288939037662e-09, 2.244903775695674e-11).transl(6.18946914199668e-08, 3.707390711936881e-08, 0))
hIsland = hIsland.add(rect(3.1530356253721435e-09, 2.767452635010343e-10).transl(1.0494980435898172e-08, 4e-08, 0))
hIsland = hIsland.add(rect(7.832655675752174e-09, 6.684611380353191e-11).transl(9.925648355450626e-09, 4e-08, 0))
hIsland = hIsland.add(rect(6.303104745254607e-09, 5.093990834193107e-10).transl(3.768279722028088e-08, 4e-08, 0))
hIsland = hIsland.sub(rect(7.544446153226339e-09, -3.4943380156591716e-09).transl(-7.194509994369439e-08, 3.203654196316276e-08, 0))
hIsland = hIsland.add(rect(9.360767936563038e-09, 1.972118079702182e-09).transl(6.338807637795563e-09, 4e-08, 0))
hIsland = hIsland.add(rect(9.256265930746445e-09, 1.1444091753202321e-09).transl(4.474614815003016e-08, 4e-08, 0))
hIsland = hIsland.add(rect(2.7795486511124363e-09, 3.2781274381394792e-09).transl(-4.2305357909186086e-08, 4e-08, 0))
hIsland = hIsland.sub(rect(2.2985969032013335e-09, -1.1526020654381722e-09).transl(-6.95045869591954e-08, 3.3549229342842616e-08, 0))
hIsland = hIsland.sub(rect(9.043746678294832e-09, -3.102245340268791e-09).transl(8.725988106856808e-08, 1.3744833791535065e-08, 0))
hIsland = hIsland.add(rect(8.652476927387924e-09, 6.171958916595131e-10).transl(-5.6692533765308876e-08, 3.862613102989295e-08, 0))
hIsland = hIsland.add(rect(4.829412383331111e-09, 1.4484033747937193e-09).transl(2.8023659131875374e-08, 4e-08, 0))
hIsland = hIsland.add(rect(5.275118654182851e-09, 7.669058517635383e-09).transl(-8.617564799218098e-08, 1.6136847182054805e-08, 0))
hIsland = hIsland.add(rect(6.801627312745042e-09, 7.916037514015875e-10).transl(3.1716841510159524e-08, 4e-08, 0))
hIsland = hIsland.add(rect(2.315844831673796e-09, 4.868019076660967e-09).transl(7.675870555065513e-08, 2.8338477918951357e-08, 0))
hIsland = hIsland.sub(rect(9.021273480175122e-09, -2.5439745600128514e-09).transl(-2.747573334882921e-08, 4e-08, 0))
hIsland = hIsland.add(rect(5.797043428841111e-09, 1.1265562877769843e-09).transl(2.2869331019953834e-08, 4e-08, 0))
hIsland = hIsland.add(rect(2.281473176487068e-09, 5.760289974976168e-10).transl(5.238709379494055e-08, 3.9457364722272946e-08, 0))
hIsland = hIsland.sub(rect(7.398911389170115e-09, -2.2675589473686438e-10).transl(-5.774750348751958e-08, 3.8361515229906676e-08, 0))
hIsland = hIsland.sub(rect(7.724234851008538e-09, -2.875890460677919e-09).transl(2.1435446935457625e-08, 4e-08, 0))
hIsland = hIsland.sub(rect(9.015781387355103e-09, -1.7418044314142987e-09).transl(-1.1175194985472973e-08, 4e-08, 0))
hIsland = hIsland.add(rect(2.254107129728066e-09, 6.285803740963935e-10).transl(-2.514712116949224e-08, 4e-08, 0))
hIsland = hIsland.add(rect(4.818746765596162e-09, 2.756582666772247e-09).transl(8.697957999971438e-08, 1.4407538850938382e-08, 0))
hIsland = hIsland.sub(rect(5.567713596116345e-09, -4.1201852126768863e-10).transl(-3.664899905209358e-08, 4e-08, 0))
hIsland = hIsland.sub(rect(5.00171314900814e-09, -2.847402691160915e-09).transl(-5.99718643551744e-08, 3.772119451631256e-08, 0))
hIsland = hIsland.sub(rect(7.113971075302886e-09, -1.9875714715961477e-09).transl(-4.1254826666205295e-08, 4e-08, 0))
hIsland = hIsland.sub(rect(2.8799009247832272e-09, -2.5836626221955696e-09).transl(4.4240090031987154e-08, 4e-08, 0))
hIsland = hIsland.sub(rect(9.528651385319705e-09, -1.1504157855742137e-09).transl(8.941760158755949e-09, 4e-08, 0))
hIsland = hIsland.add(rect(7.99630386993048e-09, 1.1647689961204588e-09).transl(-5.895642690809517e-08, 3.8027599053126935e-08, 0))
hIsland = hIsland.add(rect(7.499702098270508e-09, 1.4909016080379674e-11).transl(8.600926464128596e-08, 1.6468216177351433e-08, 0))
hIsland = hIsland.sub(rect(7.0966386994065835e-09, -3.1103102084927554e-10).transl(-1.940489228600774e-08, 4e-08, 0))
hIsland = hIsland.sub(rect(4.704582098041113e-09, -8.135157216179272e-10).transl(-8.932513981390865e-08, 6.901464105318406e-09, 0))
hIsland = hIsland.add(rect(7.141838954518912e-09, 2.462260812588124e-09).transl(-5.301813215077309e-09, 4e-08, 0))
hIsland = hIsland.add(rect(8.195218354012452e-09, 6.342747137118939e-10).transl(-1.0184227498419978e-08, 4e-08, 0))
hIsland = hIsland.sub(rect(5.278885436979296e-09, -1.6144918779328363e-09).transl(-8.032078730793096e-08, 2.4784574795842064e-08, 0))
hIsland = hIsland.sub(rect(4.9785798464343994e-09, -5.58552393220346e-10).transl(3.652298259255802e-08, 4e-08, 0))
hIsland = hIsland.sub(rect(8.207533560268194e-09, -1.1178510140824682e-09).transl(3.3439368771688464e-08, 4e-08, 0))
hIsland = hIsland.add(rect(5.1283593266551285e-09, 5.290487599947736e-10).transl(-8.324977711819782e-08, 2.107162717797228e-08, 0))
hIsland = hIsland.add(rect(9.884705373113977e-09, 9.094873270994835e-10).transl(-4.568951510141053e-08, 3.9995304108801295e-08, 0))
hIsland = hIsland.sub(rect(7.925878870432888e-09, -2.6723131429510003e-10).transl(4.9426668537214206e-08, 3.980599476571598e-08, 0))
hIsland = hIsland.sub(rect(3.065096883178779e-09, -1.4449736634264166e-09).transl(-6.437275315075432e-08, 3.6103515759008004e-08, 0))
hIsland = hIsland.add(rect(7.935814439706604e-09, 1.1460488082332525e-09).transl(2.888947280278415e-08, 4e-08, 0))
hIsland = hIsland.sub(rect(7.709557525847064e-09, -3.54431468043184e-09).transl(-5.956858821458607e-10, 4e-08, 0))
hIsland = hIsland.sub(rect(2.084465173371837e-09, -1.3784334271677968e-09).transl(6.834006683220496e-08, 3.419902567689543e-08, 0))
hIsland = hIsland.sub(rect(5.2047977533891916e-09, -3.201257949458775e-09).transl(-6.218329972581615e-08, 3.696895418799787e-08, 0))
hIsland = hIsland.add(rect(5.328184662813834e-09, 1.1981852570516673e-09).transl(8.501128481254295e-08, 1.8305437905395848e-08, 0))
hIsland = hIsland.sub(rect(7.56981436016065e-09, -1.4394429462803057e-09).transl(-7.371198255743612e-08, 3.0799994325752046e-08, 0))
hIsland = hIsland.add(rect(6.4271816225536975e-09, 9.460423429752291e-10).transl(-4.605279377915585e-08, 3.998905159062769e-08, 0))
hIsland = hIsland.sub(rect(5.498357407428973e-09, -3.114755739310767e-09).transl(7.131190981097352e-08, 3.244972136203082e-08, 0))
hIsland = hIsland.sub(rect(3.1319393866339872e-09, -3.8690647750462516e-10).transl(7.153626123716979e-08, 3.230505019789534e-08, 0))
hIsland = hIsland.add(rect(9.004599149038165e-09, 5.889432423931492e-10).transl(7.763847306837485e-08, 2.753734273761478e-08, 0))
hIsland = hIsland.sub(rect(9.605991384552032e-09, -1.7928559121623948e-09).transl(2.388746999725068e-08, 4e-08, 0))
hIsland = hIsland.add(rect(2.308911235076299e-09, 2.8275563197771087e-10).transl(4.949386420410362e-09, 4e-08, 0))
hIsland = hIsland.add(rect(2.8706381245883707e-09, 1.0582975484856987e-09).transl(-7.32066389126216e-08, 3.1166750516859045e-08, 0))
hIsland = hIsland.sub(rect(2.2751150582246034e-09, -1.141679763313242e-09).transl(-7.456061713706871e-09, 4e-08, 0))
hIsland = hIsland.add(rect(7.623876300600865e-09, 1.6264864244080856e-10).transl(3.7681735341240244e-08, 4e-08, 0))
hIsland = hIsland.add(rect(4.130309445084226e-09, 4.396311405403603e-09).transl(-2.3937032260995383e-08, 4e-08, 0))
hIsland = hIsland.sub(rect(9.353774739878134e-09, -1.4277751630265837e-09).transl(7.822915085099957e-08, 2.6973399369707562e-08, 0))
hIsland = hIsland.add(rect(4.487950239948153e-09, 1.8331406229173027e-09).transl(-5.8552239127032457e-08, 3.814293393410134e-08, 0))
hIsland = hIsland.sub(rect(5.250757196847087e-09, -1.6564340681958442e-09).transl(1.421131824111576e-08, 4e-08, 0))
hIsland = hIsland.add(rect(4.533374364289071e-09, 1.4373011574464033e-09).transl(3.7906702880580694e-08, 4e-08, 0))
hIsland = hIsland.add(rect(3.036064469882826e-09, 7.128532484232779e-10).transl(-3.348040624309684e-08, 4e-08, 0))
hIsland = hIsland.add(rect(2.067739138985022e-09, 1.7209456290177916e-09).transl(-1.0473920974161137e-08, 4e-08, 0))
hIsland = hIsland.add(rect(6.530728009845244e-09, 1.7533909913493482e-09).transl(-8.648699105542608e-08, 1.5493962457221057e-08, 0))
vIsland = hIsland.rotz(pi / 2)
hIslands = hIslands.add(hIsland.transl(-a/2, a, 0))
hIsland = rect(islandLength-2*ellipseConstant, islandWidth)
hIsland = hIsland.add(ellipse(ellipseConstant*2, islandWidth).transl(islandLength/2-ellipseConstant, 0, 0))
hIsland = hIsland.add(ellipse(ellipseConstant*2, islandWidth).transl(-islandLength/2+ellipseConstant, 0, 0))
hIsland = hIsland.sub(rect(6.870632847851636e-09, -2.924960200084031e-10).transl(-3.23871353534214e-08, -4e-08, 0))
hIsland = hIsland.sub(rect(2.357238996058504e-09, -2.9846420583691905e-09).transl(7.2257427919535365e-09, -4e-08, 0))
hIsland = hIsland.add(rect(9.191059440493436e-09, 1.8745354492744594e-09).transl(7.53611527075022e-09, -4e-08, 0))
hIsland = hIsland.add(rect(8.46428581200873e-09, 5.03096688931788e-10).transl(6.715528751054263e-08, -3.481612494673016e-08, 0))
hIsland = hIsland.add(rect(8.746936151748704e-09, 2.5727972167166084e-10).transl(7.884162922702269e-08, -2.636487197166995e-08, 0))
hIsland = hIsland.add(rect(7.220236530075179e-09, 6.20235036074035e-11).transl(-8.423735974587951e-08, -1.9584415072104955e-08, 0))
hIsland = hIsland.sub(rect(8.68422754714113e-09, -1.4401958430911838e-09).transl(-2.359625592307392e-08, -4e-08, 0))
hIsland = hIsland.add(rect(6.807461500663241e-09, 6.597787517644707e-10).transl(5.657698449187991e-09, -4e-08, 0))
hIsland = hIsland.sub(rect(4.633149928758359e-09, -1.476642120759031e-09).transl(6.4065350947073425e-09, -4e-08, 0))
hIsland = hIsland.add(rect(8.014089767472314e-09, 1.2263419859876514e-09).transl(-8.069286465573608e-08, -2.4359763021285344e-08, 0))
hIsland = hIsland.add(rect(8.510067387022806e-09, 1.6975557164915782e-09).transl(-4.870573004795679e-08, -3.9864140287216164e-08, 0))
hIsland = hIsland.add(rect(8.114335289822254e-09, 9.60751056229975e-10).transl(-6.277488072159827e-08, -3.674729038155782e-08, 0))
hIsland = hIsland.sub(rect(3.41337766864962e-09, -1.622245170099235e-09).transl(1.6861487954570504e-08, -4e-08, 0))
hIsland = hIsland.add(rect(3.249824582998734e-09, 6.759678537338513e-10).transl(-5.1478541582481823e-08, -3.958329612999413e-08, 0))
hIsland = hIsland.sub(rect(3.778376123112332e-09, -1.1645453377863474e-09).transl(1.6890893492067854e-08, -4e-08, 0))
hIsland = hIsland.sub(rect(6.084038708347316e-09, -2.786090119473154e-09).transl(-8.502405202555779e-08, -1.8283371857600942e-08, 0))
hIsland = hIsland.add(rect(2.0248329175929074e-09, 6.771500557071717e-10).transl(-6.226337018436903e-08, -3.6939467867349076e-08, 0))
hIsland = hIsland.add(rect(5.59653118612834e-09, 2.39159955545332e-09).transl(1.1932628634319408e-08, -4e-08, 0))
hIsland = hIsland.sub(rect(3.278040257243385e-09, -9.772554749987026e-10).transl(-1.3027622033129372e-08, -4e-08, 0))
hIsland = hIsland.sub(rect(5.973408585563167e-09, -4.383965738725644e-10).transl(7.90494486812557e-08, -2.6152601279433285e-08, 0))
hIsland = hIsland.sub(rect(7.363340685283638e-09, -3.089089257123034e-09).transl(6.229806834007682e-08, -3.6926640192586124e-08, 0))
hIsland = hIsland.add(rect(9.058506204940404e-09, 4.472537911338547e-10).transl(-2.0933462476356243e-08, -4e-08, 0))
hIsland = hIsland.sub(rect(7.019058092482563e-09, -8.644700409782582e-10).transl(-8.767305654317941e-08, -1.2696191563122286e-08, 0))
hIsland = hIsland.add(rect(4.028955578265554e-09, 2.4156731928538117e-09).transl(-5.258225024425817e-08, -3.942810409567665e-08, 0))
hIsland = hIsland.add(rect(9.617748362784383e-09, 3.222585519714713e-09).transl(-2.4451256359308756e-08, -4e-08, 0))
hIsland = hIsland.add(rect(6.667286880890404e-09, 4.4139832226794696e-09).transl(-5.99426612841415e-08, -3.7730342755432334e-08, 0))
hIsland = hIsland.sub(rect(2.705075317896708e-09, -8.720593303267288e-10).transl(-1.1788132082424672e-08, -4e-08, 0))
hIsland = hIsland.add(rect(5.3360929676086665e-09, 6.576350817974477e-10).transl(3.8061398734435614e-08, -4e-08, 0))
hIsland = hIsland.sub(rect(3.103229240725318e-09, -4.6104929998317635e-10).transl(-4.632533481010318e-08, -3.9982647966125434e-08, 0))
hIsland = hIsland.sub(rect(9.428918398033095e-09, -2.333037683510616e-09).transl(7.090197642577832e-08, -3.270927068782069e-08, 0))
hIsland = hIsland.add(rect(6.07779761414053e-09, 6.945813944382005e-11).transl(3.495309496093051e-09, -4e-08, 0))
hIsland = hIsland.sub(rect(8.419357111022576e-09, -8.469534145843648e-10).transl(8.160362040574193e-08, -2.3267419674833363e-08, 0))
hIsland = hIsland.add(rect(8.438007232167843e-09, 2.8048245542571843e-11).transl(2.329658924688475e-08, -4e-08, 0))
hIsland = hIsland.sub(rect(5.490068486897661e-09, -1.1330705425950778e-09).transl(6.339474913439926e-08, -3.65054579166555e-08, 0))
hIsland = hIsland.add(rect(2.9863073072795523e-09, 2.7191764920392202e-09).transl(-3.731801233061835e-08, -4e-08, 0))
hIsland = hIsland.sub(rect(4.808659253693412e-09, -7.214105968942715e-10).transl(6.117984247981675e-08, -3.732500115832936e-08, 0))
hIsland = hIsland.sub(rect(7.057844708603442e-09, -2.050596890986247e-10).transl(-6.906201815204695e-08, -3.380138686555647e-08, 0))
hIsland = hIsland.add(rect(4.034076233010815e-09, 1.1269859863514792e-09).transl(5.60879267476378e-08, -3.8766745381929764e-08, 0))
hIsland = hIsland.add(rect(6.073064881483587e-09, 2.914719195970332e-10).transl(-1.6445392756002825e-08, -4e-08, 0))
hIsland = hIsland.add(rect(4.940652909660543e-09, 4.926063857078148e-09).transl(7.450594191244236e-08, -3.020129199243811e-08, 0))
hIsland = hIsland.add(rect(8.429857666842617e-09, 7.069978302053572e-10).transl(6.278479673348357e-08, -3.6743499354427686e-08, 0))
hIsland = hIsland.add(rect(3.822303953445067e-09, 2.3416155364123324e-09).transl(-3.1058233583393e-08, -4e-08, 0))
hIsland = hIsland.sub(rect(6.909874048271299e-09, -2.2945905033892226e-09).transl(-6.018285026291277e-08, -3.765450274014492e-08, 0))
hIsland = hIsland.add(rect(5.4607915621360265e-09, 1.6639623297950122e-09).transl(-2.4952011309797282e-08, -4e-08, 0))
hIsland = hIsland.sub(rect(6.982229743565187e-09, -4.695732138919991e-10).transl(1.5359655042370023e-08, -4e-08, 0))
hIsland = hIsland.add(rect(3.3537044192286453e-09, 1.072759723921766e-09).transl(-6.296754903927036e-08, -3.667318117505492e-08, 0))
hIsland = hIsland.add(rect(9.895018146647227e-09, 1.111238762270106e-09).transl(-1.217946468213331e-08, -4e-08, 0))
hIsland = hIsland.sub(rect(4.307017628653047e-09, -3.4566464875445763e-09).transl(-2.2265493396509473e-08, -4e-08, 0))
hIsland = hIsland.sub(rect(7.29037809658412e-09, -3.2770803009695005e-09).transl(-5.639931258931891e-08, -3.869532192343562e-08, 0))
hIsland = hIsland.add(rect(3.3421257921764317e-09, 1.3466189189888306e-09).transl(1.8638383434368512e-08, -4e-08, 0))
hIsland = hIsland.sub(rect(8.979498582072168e-09, -6.421588005669162e-10).transl(2.3350949792495946e-08, -4e-08, 0))
hIsland = hIsland.sub(rect(5.813673886814614e-09, -1.061349717704837e-09).transl(-8.155857032555188e-08, -2.3323315280115024e-08, 0))
hIsland = hIsland.sub(rect(3.597041439252846e-09, -1.990936965536069e-09).transl(7.977654180503186e-08, -2.5385398973684334e-08, 0))
hIsland = hIsland.sub(rect(5.506214702420292e-09, -7.813395328626428e-10).transl(-1.2517990722890909e-08, -4e-08, 0))
hIsland = hIsland.add(rect(6.226113476170565e-09, 2.7904418290061502e-11).transl(-5.67887453462219e-08, -3.860301768450452e-08, 0))
hIsland = hIsland.add(rect(5.211776207652105e-09, 2.464295896039142e-09).transl(5.3111449227598937e-08, -3.934480075325771e-08, 0))
hIsland = hIsland.add(rect(7.178510951418978e-09, 3.6464170165404774e-10).transl(7.261570867018376e-08, -3.1582118830784734e-08, 0))
hIsland = hIsland.add(rect(8.620104015106466e-09, 2.9274936306551788e-09).transl(-2.12206186581339e-08, -4e-08, 0))
hIsland = hIsland.sub(rect(4.011321968667273e-09, -3.9709236461508237e-10).transl(-7.851499780870706e-08, -2.669250484350675e-08, 0))
hIsland = hIsland.add(rect(5.7442178874813485e-09, 3.436905815124974e-09).transl(-8.644956183950624e-08, -1.5572912813017224e-08, 0))
hIsland = hIsland.add(rect(9.254458771114402e-09, 1.1336568961687123e-10).transl(8.160793911816389e-09, -4e-08, 0))
hIsland = hIsland.add(rect(7.282047095059589e-09, 3.495786194909757e-09).transl(-7.153359722496806e-08, -3.23067790866807e-08, 0))
hIsland = hIsland.add(rect(8.060673741988754e-09, 1.8161942296229429e-09).transl(-7.343832343124685e-08, -3.099995075003396e-08, 0))
hIsland = hIsland.add(rect(6.402922328045399e-09, 3.2663267056523295e-09).transl(3.2688968881551524e-08, -4e-08, 0))
hIsland = hIsland.add(rect(2.335795835800041e-09, 7.879429445961159e-10).transl(4.1001854711247595e-08, -4e-08, 0))
hIsland = hIsland.sub(rect(4.14871619417771e-09, -2.968501719107564e-09).transl(2.541414571191882e-08, -4e-08, 0))
hIsland = hIsland.sub(rect(4.40721090046445e-09, -1.7993617484777108e-09).transl(6.593427022448066e-09, -4e-08, 0))
hIsland = hIsland.add(rect(8.040987021047738e-09, 1.4139406862083291e-09).transl(5.943513145127761e-08, -3.788613980235287e-08, 0))
hIsland = hIsland.sub(rect(5.338148864468974e-09, -2.5160327042600936e-09).transl(7.158287442586321e-09, -4e-08, 0))
hIsland = hIsland.sub(rect(6.530542033439093e-09, -3.4197437038656375e-09).transl(1.9957736738600363e-09, -4e-08, 0))
hIsland = hIsland.add(rect(2.547176161920752e-09, 2.106378951501603e-10).transl(6.988112132656972e-09, -4e-08, 0))
hIsland = hIsland.add(rect(6.065418908767731e-09, 1.0847151129108108e-09).transl(-6.680634168340229e-08, -3.4989758923721074e-08, 0))
hIsland = hIsland.add(rect(2.791451220643329e-09, 1.9083996812285236e-10).transl(-3.270718869425493e-08, -4e-08, 0))
hIsland = hIsland.add(rect(6.05776076748466e-09, 6.263023779507766e-11).transl(2.0677607604460074e-08, -4e-08, 0))
hIsland = hIsland.add(rect(6.9817860029363825e-09, 3.456507828123703e-09).transl(4.305206308361417e-08, -4e-08, 0))
hIsland = hIsland.sub(rect(8.970967377490205e-09, -9.083940319191395e-10).transl(-6.857709824714474e-08, -3.407031727335033e-08, 0))
hIsland = hIsland.add(rect(3.6502146614854704e-09, 1.3949771028747618e-09).transl(-4.36124627268727e-08, -4e-08, 0))
hIsland = hIsland.add(rect(8.931368592879455e-09, 2.0982272405546372e-09).transl(-1.096320302599098e-08, -4e-08, 0))
hIsland = hIsland.sub(rect(4.15762343839285e-09, -2.3876356623798238e-09).transl(9.012414793081125e-09, -4e-08, 0))
hIsland = hIsland.sub(rect(4.143656379419625e-09, -1.9563491832622254e-10).transl(-4.726646826969932e-08, -3.9949233182473126e-08, 0))
hIsland = hIsland.sub(rect(3.7182429241181707e-09, -1.1497873074877398e-09).transl(6.333902282104522e-08, -3.6527604221983586e-08, 0))
hIsland = hIsland.add(rect(9.137567882151459e-09, 5.689253926520086e-10).transl(7.111923495552717e-08, -3.257247876064571e-08, 0))
hIsland = hIsland.add(rect(5.107398966389012e-09, 1.8607853889260514e-09).transl(3.330054817153075e-08, -4e-08, 0))
hIsland = hIsland.sub(rect(4.8994698915121415e-09, -1.3739560386859541e-09).transl(-3.2566030886754853e-09, -4e-08, 0))
hIsland = hIsland.add(rect(6.198112882873908e-09, 3.0771094805785335e-09).transl(4.383542440276999e-08, -4e-08, 0))
hIsland = hIsland.add(rect(7.8452362911607e-09, 5.403587107833702e-10).transl(5.052118607559411e-08, -3.969778677731565e-08, 0))
hIsland = hIsland.add(rect(5.873491919514592e-09, 1.1898888831485187e-09).transl(-9.144028408850669e-09, -4e-08, 0))
hIsland = hIsland.add(rect(7.866499635833179e-09, 2.5651459507369012e-09).transl(6.133007249472204e-08, -3.727327160515697e-08, 0))
hIsland = hIsland.sub(rect(4.16915531195426e-09, -3.4362626961105115e-09).transl(-4.430957774421179e-08, -4e-08, 0))
hIsland = hIsland.sub(rect(6.429169669902815e-09, -1.1122958784302513e-09).transl(-6.170412384285654e-08, -3.714207354169662e-08, 0))
hIsland = hIsland.add(rect(5.0363236837024055e-09, 2.4955451703871196e-09).transl(6.671772402262902e-08, -3.503328041186458e-08, 0))
hIsland = hIsland.add(rect(7.053149497098639e-09, 3.802762409779398e-10).transl(-4.477854527232866e-08, -4e-08, 0))
hIsland = hIsland.sub(rect(6.155096104860321e-09, -2.3751329248567132e-09).transl(-7.677608589719579e-08, -2.8323079487365652e-08, 0))
hIsland = hIsland.add(rect(4.345415163140081e-09, 1.925200507488949e-09).transl(3.687550439592085e-08, -4e-08, 0))
hIsland = hIsland.sub(rect(8.503267911545077e-09, -5.765263203649658e-09).transl(-8.769340762113368e-08, -1.2642017207242986e-08, 0))
hIsland = hIsland.sub(rect(6.679694226476593e-09, -1.4574628726557258e-09).transl(-2.061416692919363e-08, -4e-08, 0))
hIsland = hIsland.add(rect(5.376472009321733e-09, 7.744541168998658e-10).transl(2.526502208677181e-09, -4e-08, 0))
hIsland = hIsland.add(rect(9.47683115421534e-09, 1.6355964385776144e-10).transl(6.280144034024751e-08, -3.6737130642606504e-08, 0))
hIsland = hIsland.add(rect(9.77731223822762e-09, 2.0426546793571482e-09).transl(-1.1278704568331886e-08, -4e-08, 0))
hIsland = hIsland.add(rect(7.63851499299498e-09, 1.5801400837666828e-09).transl(7.005111697837747e-08, -3.3228772754554836e-08, 0))
hIsland = hIsland.sub(rect(7.000405755227926e-09, -2.6676333454624884e-09).transl(7.327860708167852e-08, -3.111517918190427e-08, 0))
hIsland = hIsland.sub(rect(6.847805113362635e-09, -2.111650529800717e-09).transl(6.69098858878438e-08, -3.493861311960328e-08, 0))
hIsland = hIsland.add(rect(9.616213283208406e-09, 2.181901277814144e-10).transl(6.952703744253418e-09, -4e-08, 0))
hIsland = hIsland.sub(rect(7.651132577632837e-09, -1.6717746110961078e-09).transl(4.682644273824844e-08, -3.996703932781648e-08, 0))
hIsland = hIsland.sub(rect(3.1670682882078697e-09, -1.8120147611115158e-09).transl(1.787619508898261e-08, -4e-08, 0))
hIsland = hIsland.sub(rect(4.083511664671487e-09, -2.092085920340896e-09).transl(8.29271842158233e-08, -2.1527426273080522e-08, 0))
hIsland = hIsland.add(rect(9.917027378237372e-09, 1.924876066948632e-09).transl(-8.432334480444036e-08, -1.9447673197656328e-08, 0))
hIsland = hIsland.sub(rect(3.79582631975085e-09, -3.1751020965572344e-11).transl(-6.703051900350919e-08, -3.487862532613358e-08, 0))
hIsland = hIsland.add(rect(6.060781546701685e-09, 1.9502054484501457e-10).transl(-7.212840960809212e-08, -3.1914074664438704e-08, 0))
hIsland = hIsland.sub(rect(8.661086838193209e-09, -8.135290069162484e-10).transl(4.6501661114776766e-08, -3.997772232862678e-08, 0))
hIsland = hIsland.add(rect(3.328587237124758e-09, 1.6212152263192077e-09).transl(-4.0449364602967124e-08, -4e-08, 0))
hIsland = hIsland.sub(rect(4.709001114611582e-09, -2.060158659742173e-10).transl(7.263186831614029e-08, -3.157094902608239e-08, 0))
hIsland = hIsland.sub(rect(6.296930154622924e-09, -6.255082539868844e-10).transl(4.196583636554912e-09, -4e-08, 0))
hIsland = hIsland.add(rect(6.779483335920112e-09, 5.298622112874803e-11).transl(1.0610838296868606e-08, -4e-08, 0))
hIsland = hIsland.add(rect(9.238981734919064e-09, 1.2208896375470182e-09).transl(-5.913220944284715e-08, -3.797626971858958e-08, 0))
hIsland = hIsland.sub(rect(9.221926976042103e-09, -1.0186888073116427e-09).transl(5.1713411664489476e-08, -3.955236045845473e-08, 0))
hIsland = hIsland.add(rect(7.982179460200882e-09, 3.6107319987139205e-09).transl(6.306433912824571e-08, -3.6635592509286024e-08, 0))
hIsland = hIsland.add(rect(3.672970980058363e-09, 3.4640489901740054e-09).transl(1.7495820704139557e-08, -4e-08, 0))
hIsland = hIsland.add(rect(8.916033622300234e-09, 3.3982302903076996e-10).transl(4.2051624814220265e-08, -4e-08, 0))
hIsland = hIsland.add(rect(8.765205073223343e-09, 7.682506682139696e-11).transl(4.503841571558654e-08, -3.999998542451879e-08, 0))
hIsland = hIsland.add(rect(3.654494812529274e-09, 2.574841111877888e-11).transl(8.951376530790438e-08, -5.8642889533719016e-09, 0))
hIsland = hIsland.add(rect(6.81060570793765e-09, 1.7484911797060094e-09).transl(-7.55760019529478e-08, -2.9348253506135777e-08, 0))
hIsland = hIsland.sub(rect(2.140109982337622e-09, -1.7172559550295442e-09).transl(-5.8939644960324884e-08, -3.8032462270728566e-08, 0))
hIsland = hIsland.sub(rect(4.095750448845632e-09, -2.8099854461237733e-09).transl(-6.849501290944463e-08, -3.411509198208612e-08, 0))
hIsland = hIsland.sub(rect(5.5452438594394305e-09, -1.4697022879813663e-09).transl(1.7496544093037558e-08, -4e-08, 0))
hIsland = hIsland.add(rect(9.62145821952781e-09, 2.1709182964184912e-09).transl(7.601307821938553e-08, -2.8983625577068925e-08, 0))
hIsland = hIsland.sub(rect(5.376682965662895e-09, -2.4286900363795864e-10).transl(-4.397419760114464e-08, -4e-08, 0))
hIsland = hIsland.sub(rect(6.325989796355906e-09, -3.882862348661069e-10).transl(8.113290891304363e-08, -2.384166525763543e-08, 0))
hIsland = hIsland.add(rect(3.620871025956487e-09, 3.2384731440431424e-09).transl(-8.474395264273508e-08, -1.8759941105638844e-08, 0))
hIsland = hIsland.add(rect(3.3089434019227356e-09, 2.4978385264856773e-09).transl(-8.35681302609503e-09, -4e-08, 0))
hIsland = hIsland.add(rect(3.1291458284807024e-09, 1.922321410816221e-09).transl(4.793412707553588e-10, -4e-08, 0))
hIsland = hIsland.sub(rect(9.092603442940324e-09, -4.043670120879513e-09).transl(3.134798929137185e-08, -4e-08, 0))
hIsland = hIsland.sub(rect(3.95420771808451e-09, -5.853061891984964e-09).transl(-4.778241795202508e-08, -3.9923464065445116e-08, 0))
hIsland = hIsland.sub(rect(2.2565859215421728e-09, -1.0209639050842625e-09).transl(5.281821100032702e-08, -3.9391676270639423e-08, 0))
hIsland = hIsland.sub(rect(7.278877481877727e-09, -3.570694749437129e-12).transl(2.1608884259187007e-08, -4e-08, 0))
hIsland = hIsland.add(rect(3.8812339620223095e-09, 4.639598711903222e-09).transl(-6.355803263501947e-08, -3.644010190624233e-08, 0))
hIsland = hIsland.sub(rect(5.122202136914874e-09, -1.231281836270089e-09).transl(-8.222347581864129e-08, -2.2476990229147843e-08, 0))
hIsland = hIsland.add(rect(9.361405837342869e-09, 1.7014706986429845e-09).transl(-8.153036704463844e-08, -2.3358205302003915e-08, 0))
hIsland = hIsland.sub(rect(2.5939913742224966e-09, -1.3868844514001765e-09).transl(-3.676114146915348e-08, -4e-08, 0))
hIsland = hIsland.add(rect(7.822681186170673e-09, 2.115859661046926e-10).transl(-2.3813252350134837e-08, -4e-08, 0))
hIsland = hIsland.sub(rect(6.805941928874908e-09, -3.1638907875115225e-10).transl(-6.327418952098183e-08, -3.655326839019894e-08, 0))
hIsland = hIsland.sub(rect(7.706079299628778e-09, -1.5781075403972877e-09).transl(-1.0537380385853417e-08, -4e-08, 0))
hIsland = hIsland.sub(rect(3.956014449329908e-09, -1.163073308751959e-09).transl(-7.271348015654297e-08, -3.151437710845083e-08, 0))
hIsland = hIsland.sub(rect(6.361607598714069e-09, -5.116148865967473e-09).transl(-4.083627768491551e-08, -4e-08, 0))
hIsland = hIsland.add(rect(4.0121560585378e-09, 1.2777337320822985e-09).transl(-3.283046951312233e-08, -4e-08, 0))
hIsland = hIsland.add(rect(2.411236325551513e-09, 1.9158104711141098e-09).transl(8.507670028747024e-08, -1.8192020371298935e-08, 0))
hIsland = hIsland.add(rect(6.015610087436594e-09, 2.3713165906226564e-09).transl(-5.766146421912591e-10, -4e-08, 0))
hIsland = hIsland.sub(rect(6.014914869924487e-09, -9.985224274827505e-10).transl(4.130693212387336e-08, -4e-08, 0))
hIsland = hIsland.add(rect(3.7147502430126034e-09, 4.41058092813223e-10).transl(6.768490056390911e-08, -3.454560384208484e-08, 0))
hIsland = hIsland.sub(rect(3.55202089499373e-09, -5.927688890283642e-10).transl(5.32796794743265e-08, -3.931710307002785e-08, 0))
hIsland = hIsland.sub(rect(7.574570194150518e-09, -3.054474053415738e-09).transl(-4.5287507893620606e-08, -3.9999183588815134e-08, 0))
hIsland = hIsland.add(rect(7.875580638160152e-09, 2.40463936204648e-09).transl(3.575554018975313e-08, -4e-08, 0))
hIsland = hIsland.sub(rect(2.8074320184251598e-09, -6.387864765433645e-10).transl(-1.7230227802431705e-08, -4e-08, 0))
hIsland = hIsland.add(rect(6.648398108580087e-09, 1.6871335971741863e-09).transl(4.689407066191383e-08, -3.9964552158096017e-08, 0))
hIsland = hIsland.add(rect(8.277697654343954e-09, 1.8267418063816322e-09).transl(3.005251179892567e-08, -4e-08, 0))
hIsland = hIsland.sub(rect(2.2151240162546017e-09, -3.650411672385802e-10).transl(-1.1945573821418637e-08, -4e-08, 0))
hIsland = hIsland.add(rect(2.3168900982852305e-09, 1.95989834820824e-09).transl(3.719761934096997e-08, -4e-08, 0))
hIsland = hIsland.add(rect(3.766813312982724e-09, 1.5105842900384708e-09).transl(-8.022940968792523e-08, -2.4887122049037933e-08, 0))
hIsland = hIsland.sub(rect(9.298686828081092e-09, -3.4730314727503127e-10).transl(1.0141573184537985e-08, -4e-08, 0))
hIsland = hIsland.sub(rect(3.030159140044197e-09, -1.7113315599956272e-09).transl(5.758811503575823e-08, -3.840307971031431e-08, 0))
hIsland = hIsland.sub(rect(2.7323537170183096e-09, -4.0310122594997835e-09).transl(5.07326109830937e-08, -3.967410122738387e-08, 0))
hIsland = hIsland.sub(rect(2.2117080394823834e-09, -1.7754650973404899e-10).transl(2.4628811957641055e-08, -4e-08, 0))
hIsland = hIsland.add(rect(4.4350939208530485e-09, 1.9130636509011305e-09).transl(-2.1421666265747797e-08, -4e-08, 0))
hIsland = hIsland.add(rect(6.255263678700059e-09, 7.62880321764938e-11).transl(-7.855592570283983e-08, -2.6651845514222287e-08, 0))
hIsland = hIsland.sub(rect(8.276744888794125e-09, -5.190603967023231e-10).transl(5.8356794367535e-08, -3.819736705267457e-08, 0))
hIsland = hIsland.add(rect(2.335468377455231e-09, 1.0828512478619427e-09).transl(7.111404970194415e-08, -3.257576356561694e-08, 0))
hIsland = hIsland.add(rect(8.057662138812969e-09, 1.2933509997701524e-09).transl(2.976756909842653e-09, -4e-08, 0))
hIsland = hIsland.add(rect(7.5442698896895e-09, 1.6171263225971423e-09).transl(7.869583004427862e-08, -2.6512011349187178e-08, 0))
hIsland = hIsland.sub(rect(8.395218095922924e-09, -2.6033765400081536e-09).transl(3.591563721187634e-09, -4e-08, 0))
hIsland = hIsland.add(rect(4.881821609302487e-09, 1.8100336621650853e-09).transl(1.619640552456546e-08, -4e-08, 0))
hIsland = hIsland.sub(rect(7.428847268216978e-09, -3.1683672162634927e-09).transl(1.1232141375766155e-08, -4e-08, 0))
hIsland = hIsland.add(rect(3.1080228077113684e-09, 1.7490266468405056e-09).transl(-2.7712872772085e-08, -4e-08, 0))
hIsland = hIsland.add(rect(3.3892143561017187e-09, 1.5070967648988628e-09).transl(-5.694883121835775e-08, -3.856410851033892e-08, 0))
hIsland = hIsland.sub(rect(9.131612686414595e-09, -2.9605585543937956e-09).transl(-7.09055528800156e-08, -3.2707032716536146e-08, 0))
hIsland = hIsland.add(rect(6.4168981380525245e-09, 2.243284610381956e-09).transl(7.06439737481811e-08, -3.286950312036724e-08, 0))
hIsland = hIsland.sub(rect(9.477284805101462e-09, -1.3683788971644582e-09).transl(-4.72904451741825e-08, -3.9948152678724923e-08, 0))
hIsland = hIsland.sub(rect(5.994267308850124e-09, -2.4600230121861953e-09).transl(6.978691716581896e-08, -3.338495247539761e-08, 0))
hIsland = hIsland.sub(rect(9.170111915189082e-09, -1.7305148616678534e-09).transl(-4.734986157499404e-08, -3.994542598655201e-08, 0))
hIsland = hIsland.add(rect(3.6943704864594795e-09, 3.1637877856575708e-09).transl(5.697425888438178e-08, -3.8557876322543185e-08, 0))
hIsland = hIsland.sub(rect(5.12205215633504e-09, -5.322838485966335e-10).transl(-4.9991660599999335e-08, -3.975314767645707e-08, 0))
hIsland = hIsland.sub(rect(5.3171825525565895e-09, -2.7711528660794597e-09).transl(7.418184424083059e-08, -3.044908275069447e-08, 0))
hIsland = hIsland.sub(rect(3.8789886040628994e-09, -2.147413003331324e-10).transl(-5.589177318140745e-08, -3.8810656823015704e-08, 0))
hIsland = hIsland.add(rect(2.5397411888198687e-09, 1.1449189005798802e-09).transl(1.8820835112553623e-08, -4e-08, 0))
hIsland = hIsland.sub(rect(4.5839382091248e-09, -2.239049779125128e-09).transl(8.210484342740212e-08, -2.2631442682880888e-08, 0))
hIsland = hIsland.add(rect(5.28747249539369e-09, 3.4624925680013924e-09).transl(7.335469202476346e-08, -3.106042143783553e-08, 0))
hIsland = hIsland.sub(rect(7.115553508216162e-09, -3.2083150180722445e-09).transl(4.079296693243284e-09, -4e-08, 0))
hIsland = hIsland.add(rect(6.3824531138136476e-09, 1.3251146538290102e-09).transl(6.483922844219251e-08, -3.590280448284139e-08, 0))
hIsland = hIsland.sub(rect(4.1809443820708925e-09, -6.847578933137237e-10).transl(-1.6888049134188565e-08, -4e-08, 0))
hIsland = hIsland.sub(rect(2.5908199755157934e-09, -1.3795031884600771e-09).transl(8.717379211109541e-08, -1.3952193762673892e-08, 0))
hIsland = hIsland.sub(rect(8.441134650891726e-09, -2.325494454265295e-09).transl(-5.552568677108005e-09, -4e-08, 0))
hIsland = hIsland.add(rect(4.9918550985894605e-09, 1.5988999235518436e-09).transl(-2.8352129227389587e-08, -4e-08, 0))
hIsland = hIsland.sub(rect(7.225681163595822e-09, -9.547188787858882e-10).transl(-4.343393518355759e-09, -4e-08, 0))
hIsland = hIsland.sub(rect(7.568731032477478e-09, -1.0961669637876648e-09).transl(5.050200028132149e-08, -3.9699891399216706e-08, 0))
hIsland = hIsland.add(rect(9.653300100435218e-09, 4.855842624534377e-10).transl(7.47776144786245e-08, -2.998987385925053e-08, 0))
hIsland = hIsland.add(rect(9.469732566882356e-09, 6.020365655011143e-10).transl(-4.210072554079184e-08, -4e-08, 0))
hIsland = hIsland.sub(rect(6.033508073574598e-09, -1.37730219197576e-09).transl(-7.235641225465633e-08, -3.17599229846787e-08, 0))
hIsland = hIsland.add(rect(8.881217410613854e-09, 7.589047977681019e-10).transl(5.5331440736626744e-08, -3.893152032618434e-08, 0))
hIsland = hIsland.add(rect(5.078768280188928e-09, 3.913916939555675e-09).transl(7.886125086111229e-08, -2.6344958560926726e-08, 0))
hIsland = hIsland.sub(rect(7.64815865941807e-09, -4.298104449464067e-10).transl(-7.97536234499368e-08, -2.541018607226565e-08, 0))
hIsland = hIsland.add(rect(8.052173417591905e-09, 1.4015523175003638e-09).transl(4.493503636997168e-08, -4e-08, 0))
hIsland = hIsland.add(rect(3.4619979610463035e-09, 6.078847488817473e-10).transl(-4.151434043117452e-08, 4e-08, 0))
hIsland = hIsland.sub(rect(9.446201792909392e-09, -1.5003346106445925e-09).transl(7.87730911283482e-08, 2.6434221226674548e-08, 0))
hIsland = hIsland.add(rect(4.8844213540974396e-09, 1.327792388318182e-09).transl(-6.8150911005008275e-09, 4e-08, 0))
hIsland = hIsland.add(rect(5.431081498773656e-09, 1.6780297667713257e-10).transl(6.121342068186165e-08, 3.731348668017358e-08, 0))
hIsland = hIsland.sub(rect(7.392991821505204e-09, -2.2610071530365942e-09).transl(-8.543386858626828e-08, 1.755645052342422e-08, 0))
hIsland = hIsland.add(rect(6.611640987519388e-09, 3.017543560184369e-10).transl(7.987407944942148e-08, 2.5279452761000495e-08, 0))
hIsland = hIsland.add(rect(5.221276277392418e-09, 3.965923608081482e-10).transl(8.332112949296656e-08, 2.096894417369735e-08, 0))
hIsland = hIsland.sub(rect(9.847140785365991e-09, -2.6039733144088707e-09).transl(1.8710485007970817e-08, 4e-08, 0))
hIsland = hIsland.add(rect(3.918111409271941e-09, 1.4900847355740964e-10).transl(-1.490113425612146e-08, 4e-08, 0))
hIsland = hIsland.add(rect(6.731312147555583e-09, 6.148914777155246e-10).transl(-8.279233807638678e-08, 2.1713996082087423e-08, 0))
hIsland = hIsland.sub(rect(2.102775854158006e-09, -3.8256955783409726e-10).transl(-3.465853778287629e-08, 4e-08, 0))
hIsland = hIsland.sub(rect(6.67887384759559e-09, -1.6019860125099048e-09).transl(-2.996009048702667e-08, 4e-08, 0))
hIsland = hIsland.sub(rect(6.494399004456165e-09, -8.459251869354816e-11).transl(3.538180152502507e-08, 4e-08, 0))
hIsland = hIsland.add(rect(2.7602473231393017e-09, 1.0908314509197352e-09).transl(8.133210697265068e-08, 2.3601263877902082e-08, 0))
hIsland = hIsland.sub(rect(9.32287108631513e-09, -1.109901161455721e-09).transl(-2.2188848964068805e-08, 4e-08, 0))
hIsland = hIsland.sub(rect(2.7147471527488385e-09, -1.602649734082203e-09).transl(8.476353019954306e-08, 1.8727133094306612e-08, 0))
hIsland = hIsland.sub(rect(2.550365913802425e-09, -2.6330955678741932e-09).transl(2.590134912081052e-08, 4e-08, 0))
hIsland = hIsland.sub(rect(3.835970060764237e-09, -3.109140414255939e-09).transl(1.1998590196035024e-08, 4e-08, 0))
hIsland = hIsland.sub(rect(2.2971472225258457e-09, -7.270544557448271e-10).transl(5.191054687917201e-08, 3.952552509816963e-08, 0))
hIsland = hIsland.add(rect(3.247274710954299e-09, 5.335230587408922e-10).transl(-7.952828086931404e-08, 2.5651765875109216e-08, 0))
hIsland = hIsland.add(rect(6.066985026604801e-09, 1.300861149106078e-10).transl(-5.2622341528282034e-08, 3.9421995836766765e-08, 0))
hIsland = hIsland.add(rect(5.137040899729857e-09, 1.0565278485147476e-09).transl(-6.438024489371682e-08, 3.6100338718532015e-08, 0))
hIsland = hIsland.add(rect(9.874251500764807e-09, 2.2375352553145397e-09).transl(3.071935595631829e-08, 4e-08, 0))
hIsland = hIsland.sub(rect(5.072624557819943e-09, -3.3002185227958916e-09).transl(4.75169389640298e-08, 3.9937383268337115e-08, 0))
hIsland = hIsland.sub(rect(8.31135664864253e-09, -2.1900363761783975e-09).transl(7.107508229037623e-08, 3.260041758181523e-08, 0))
hIsland = hIsland.add(rect(3.3827027462841185e-09, 5.713508544520742e-10).transl(2.5551016641764432e-08, 4e-08, 0))
hIsland = hIsland.add(rect(4.804986354016718e-09, 1.963493639623942e-09).transl(-1.4493470249918256e-08, 4e-08, 0))
[...]
hIsland = hIsland.sub(rect(2.354232413731171e-09, -2.401865901502846e-10).transl(1.1734610822710191e-08, 4e-08, 0))
hIsland = hIsland.sub(rect(3.9357953110721026e-09, -1.120380061991103e-09).transl(-5.7536348082425284e-08, 3.841645713968754e-08, 0))
hIsland = hIsland.add(rect(4.197807336508643e-09, 2.1813415610140551e-10).transl(-7.925144174259124e-08, 2.594335692877715e-08, 0))
hIsland = hIsland.add(rect(3.1812174892470093e-09, 1.8407207619350642e-10).transl(2.228382481350778e-08, 4e-08, 0))
hIsland = hIsland.add(rect(6.4074298694984664e-09, 3.5969105712991794e-09).transl(6.12540826326981e-08, 3.729950634453773e-08, 0))
hIsland = hIsland.sub(rect(3.673010836399801e-09, -1.2114762310937414e-09).transl(4.763140662981421e-08, 3.9931553281526795e-08, 0))
hIsland = hIsland.add(rect(4.427088050762214e-09, 3.7692555617540407e-10).transl(-3.1117352063460343e-08, 4e-08, 0))
hIsland = hIsland.sub(rect(9.91288919589055e-09, -9.111911761116374e-10).transl(1.2049034212991565e-08, 4e-08, 0))
hIsland = hIsland.sub(rect(4.446988479537923e-09, -2.045472420050747e-09).transl(-1.8542332978646245e-08, 4e-08, 0))
hIsland = hIsland.add(rect(7.534882641110003e-09, 4.018812203156994e-09).transl(3.0415972131989098e-09, 4e-08, 0))
hIsland = hIsland.add(rect(3.4895356863084467e-09, 1.9515025591386113e-09).transl(4.2148645513493976e-08, 4e-08, 0))
hIsland = hIsland.add(rect(3.2872989376627663e-09, 2.9615516868380327e-10).transl(-6.399281577421315e-08, 3.62626680689651e-08, 0))
hIsland = hIsland.add(rect(8.206277312904166e-09, 1.2350036637106331e-09).transl(-1.455674174918193e-08, 4e-08, 0))
hIsland = hIsland.add(rect(8.586785759213399e-09, 1.2871447939753593e-09).transl(-5.999954298734677e-08, 3.771250528604162e-08, 0))
hIsland = hIsland.sub(rect(3.956595661909593e-09, -1.5757088672760838e-11).transl(-3.690259882397012e-08, 4e-08, 0))
hIsland = hIsland.add(rect(7.816202966977457e-09, 1.7385411143682414e-09).transl(5.01803131508349e-09, 4e-08, 0))
hIsland = hIsland.sub(rect(7.630026225301425e-09, -7.447513132368758e-10).transl(4.8163072664365503e-08, 3.99010625441733e-08, 0))
hIsland = hIsland.add(rect(9.89857692298978e-09, 1.5665750444838417e-09).transl(-7.466673797811708e-08, 3.007657266707305e-08, 0))
hIsland = hIsland.add(rect(4.037244697590267e-09, 1.5534159142612755e-09).transl(-1.1084808591123609e-08, 4e-08, 0))
hIsland = hIsland.sub(rect(9.725497791242416e-09, -7.393871480360253e-10).transl(-5.479676528041104e-08, 3.904057670127106e-08, 0))
hIsland = hIsland.sub(rect(4.649575054187333e-09, -9.979369978007344e-10).transl(-4.107030509607127e-08, 4e-08, 0))
hIsland = hIsland.sub(rect(7.185982645282241e-09, -8.232720114492402e-10).transl(5.383697594356511e-09, 4e-08, 0))
hIsland = hIsland.sub(rect(3.2369369524014683e-09, -2.9872851251558264e-10).transl(4.073377344044069e-08, 4e-08, 0))
hIsland = hIsland.add(rect(7.43523862621168e-09, 8.791784506744113e-10).transl(-4.707391426179935e-09, 4e-08, 0))
hIsland = hIsland.sub(rect(5.493415084810243e-09, -2.8998031738949624e-09).transl(-2.3440573393912822e-08, 4e-08, 0))
hIsland = hIsland.sub(rect(7.977101535745641e-09, -1.8933119292924244e-09).transl(-7.48078718787933e-08, 2.9966114513035404e-08, 0))
hIsland = hIsland.sub(rect(4.990305384045346e-09, -4.481966819946915e-09).transl(-6.85271908337311e-08, 3.409756565190881e-08, 0))
hIsland = hIsland.sub(rect(8.754895835547299e-09, -1.3198065085049916e-09).transl(5.568253056377269e-08, 3.88565812796745e-08, 0))
hIsland = hIsland.sub(rect(5.5934730155777336e-09, -1.3266218173412272e-09).transl(-3.5114882310899317e-09, 4e-08, 0))
hIsland = hIsland.add(rect(7.139053001604824e-09, 6.441019929974666e-10).transl(7.523500508602799e-08, 2.962607416746418e-08, 0))
hIsland = hIsland.sub(rect(6.285476609592944e-09, -6.769570203946992e-10).transl(-7.409659056941718e-08, 3.0513477836322043e-08, 0))
hIsland = hIsland.sub(rect(7.640661050765864e-09, -4.0769221355652874e-10).transl(-3.100115458010398e-08, 4e-08, 0))
hIsland = hIsland.sub(rect(6.621548630695102e-09, -1.4261146793246071e-09).transl(-2.0603228203476196e-08, 4e-08, 0))
hIsland = hIsland.sub(rect(2.741384355073956e-09, -3.5978452049121396e-11).transl(7.017565111282721e-08, 3.315432337353159e-08, 0))
hIsland = hIsland.sub(rect(7.995455329563226e-09, -8.600575601675056e-10).transl(1.3401344766019943e-08, 4e-08, 0))
hIsland = hIsland.sub(rect(6.074833329785573e-09, -5.031584549147452e-09).transl(8.065049055688737e-08, 2.4408741976628132e-08, 0))
hIsland = hIsland.add(rect(9.957778582484491e-09, 1.97417431235491e-09).transl(1.8472500435998678e-08, 4e-08, 0))
hIsland = hIsland.sub(rect(7.557200062756392e-09, -3.6325501999428707e-10).transl(-2.0320726675789288e-08, 4e-08, 0))
hIsland = hIsland.sub(rect(2.6553127453224087e-09, -8.480607075440141e-10).transl(8.41249279713979e-09, 4e-08, 0))
hIsland = hIsland.sub(rect(9.953377204770633e-09, -1.7753197666945256e-11).transl(1.8197566855253312e-08, 4e-08, 0))
hIsland = hIsland.add(rect(3.406280540752578e-09, 3.742012840189983e-10).transl(-3.7142637574478296e-08, 4e-08, 0))
hIsland = hIsland.sub(rect(6.399672087310034e-09, -1.2669823545989673e-09).transl(-5.153960241524852e-08, 3.9575361835306545e-08, 0))
hIsland = hIsland.sub(rect(8.285495330182706e-09, -7.162944376731783e-10).transl(5.8752764501518084e-08, 3.8086181348764674e-08, 0))
hIsland = hIsland.sub(rect(5.944576408505835e-09, -6.891988652331515e-10).transl(-7.608921544292046e-08, 2.891910465145692e-08, 0))
hIsland = hIsland.sub(rect(3.395736951853227e-09, -1.7779440258303992e-09).transl(-7.851748434786401e-08, 2.6690037802868902e-08, 0))
hIsland = hIsland.add(rect(4.39525968777078e-09, 4.676217630328436e-09).transl(-1.2464170282208475e-08, 4e-08, 0))
hIsland = hIsland.add(rect(8.507868255575976e-09, 2.855162978987019e-09).transl(-4.428236488831302e-08, 4e-08, 0))
hIsland = hIsland.sub(rect(4.432608377002613e-09, -2.4371253763830115e-10).transl(4.822190819667825e-08, 3.989734291171599e-08, 0))
hIsland = hIsland.sub(rect(2.9930512707502096e-09, -3.7807398095076953e-10).transl(1.0791498059118996e-08, 4e-08, 0))
hIsland = hIsland.sub(rect(3.5182421849825814e-09, -6.254578442113181e-10).transl(7.643898726044582e-08, 2.8618772463430383e-08, 0))
hIsland = hIsland.sub(rect(2.5618524884067686e-09, -6.301101540091098e-10).transl(4.788150801171282e-08, 3.991790995373278e-08, 0))
hIsland = hIsland.sub(rect(2.5542311083502743e-09, -2.18844951880766e-09).transl(-2.3283374686457236e-08, 4e-08, 0))
hIsland = hIsland.sub(rect(6.670453384504995e-09, -5.36160701630375e-10).transl(-5.650499905152688e-08, 3.867060002292222e-08, 0))
hIsland = hIsland.add(rect(3.104379643227411e-09, 1.0816716282367333e-09).transl(7.039518046262637e-08, 3.3021771305677355e-08, 0))
hIsland = hIsland.sub(rect(3.7280728887887245e-09, -1.4275037106468218e-09).transl(7.877374516814611e-08, 2.6433560969618162e-08, 0))
hIsland = hIsland.add(rect(2.8183610770848828e-09, 1.3951275673092028e-09).transl(8.990366815725187e-08, 2.6158998770291783e-09, 0))
hIsland = hIsland.sub(rect(3.5777859715015677e-09, -2.590758354303189e-09).transl(3.2028451617532966e-08, 4e-08, 0))
hIsland = hIsland.sub(rect(6.578321693493585e-09, -8.546829752226983e-10).transl(-1.713273304356032e-10, 4e-08, 0))
hIsland = hIsland.add(rect(2.1513028330434045e-09, 1.3485821375677132e-09).transl(-6.584453976915363e-08, 3.544990037353517e-08, 0))
hIsland = hIsland.sub(rect(4.795844928783547e-09, -1.1106716044055854e-09).transl(-3.209866549843889e-08, 4e-08, 0))
hIsland = hIsland.add(rect(7.33204689595031e-09, 1.9873544016009133e-09).transl(2.2695004852081813e-08, 4e-08, 0))
hIsland = hIsland.add(rect(8.34890037104641e-09, 8.319266703373895e-10).transl(-5.827151347720689e-08, 3.822084679720945e-08, 0))
hIsland = hIsland.sub(rect(4.339987894392513e-09, -3.825195585491216e-09).transl(-8.5809635137118e-08, 1.685549165681125e-08, 0))
hIsland = hIsland.add(rect(9.513590701355953e-09, 3.878564985099941e-10).transl(5.893578654937446e-09, 4e-08, 0))
hIsland = hIsland.sub(rect(2.7753441124170213e-09, -2.1434126720338016e-09).transl(-8.630058304279308e-08, 1.5882577526933246e-08, 0))
hIsland = hIsland.sub(rect(7.91207267756834e-09, -1.000564708662017e-09).transl(7.044552383626892e-08, 3.2991136158750754e-08, 0))
hIsland = hIsland.add(rect(9.940396190183499e-09, 1.2772154520505047e-09).transl(3.756176974423908e-08, 4e-08, 0))
hIsland = hIsland.add(rect(5.527429578386682e-09, 1.7835420637840571e-09).transl(3.5471930619830334e-08, 4e-08, 0))
hIsland = hIsland.add(rect(6.749093704935055e-09, 5.844598602456319e-10).transl(4.9340852720793735e-08, 3.981346131463519e-08, 0))
hIsland = hIsland.add(rect(5.362977267469881e-09, 1.0195218064310676e-09).transl(-3.3496349324349906e-08, 4e-08, 0))
hIsland = hIsland.add(rect(2.4004896311422136e-09, 9.291232429822207e-10).transl(-2.451737905617359e-09, 4e-08, 0))
hIsland = hIsland.add(rect(2.042042192432266e-09, 1.3483546410853826e-09).transl(-6.564450090802485e-08, 3.5542270654335296e-08, 0))
hIsland = hIsland.sub(rect(3.4601844831840263e-09, -4.3644979096507594e-10).transl(-6.651868405434027e-08, 3.513019157019505e-08, 0))
hIsland = hIsland.sub(rect(8.964830898204679e-09, -1.4607266935191424e-09).transl(-4.178963505542392e-08, 4e-08, 0))
hIsland = hIsland.add(rect(8.76932696908392e-09, 2.596015850680925e-09).transl(1.1019597285737482e-08, 4e-08, 0))
hIsland = hIsland.add(rect(3.035339510851782e-09, 8.42069857099145e-10).transl(-7.610504167594824e-08, 2.8905655064129563e-08, 0))
hIsland = hIsland.add(rect(4.1929718959031705e-09, 3.7871298203288333e-10).transl(4.057025536960666e-08, 4e-08, 0))
hIsland = hIsland.add(rect(3.1966551814597546e-09, 2.9506666376966155e-09).transl(6.977711379073897e-08, 3.3390701829288684e-08, 0))
hIsland = hIsland.add(rect(3.3478022857422003e-09, 2.113124819509763e-09).transl(3.878305241901668e-08, 4e-08, 0))
hIsland = hIsland.sub(rect(2.4317115224400693e-09, -1.975766039328041e-10).transl(7.923170789978309e-08, 2.596392824263661e-08, 0))
hIsland = hIsland.sub(rect(3.2326694931160375e-09, -2.3072194879393846e-09).transl(-4.7130636771415567e-08, 3.995513915935089e-08, 0))
hIsland = hIsland.sub(rect(4.379551375209087e-09, -2.9118148949828925e-10).transl(1.9267433918559896e-08, 4e-08, 0))
hIsland = hIsland.add(rect(9.318373891491203e-09, 1.0251933609156502e-09).transl(1.0868550411452261e-09, 4e-08, 0))
hIsland = hIsland.add(rect(8.769708160333353e-09, 2.187644805347622e-09).transl(-3.423941992004003e-08, 4e-08, 0))
hIsland = hIsland.add(rect(4.950720440739985e-09, 3.0073353619874942e-09).transl(-2.771234060997788e-09, 4e-08, 0))
hIsland = hIsland.add(rect(7.482367755204646e-09, 2.5963851716463832e-09).transl(7.915537092662725e-08, 2.60432405768713e-08, 0))
hIsland = hIsland.sub(rect(2.3597329908143597e-09, -3.262754289262359e-09).transl(4.4765789140320266e-08, 4e-08, 0))
hIsland = hIsland.add(rect(9.870011697972644e-09, 2.583522255349036e-09).transl(2.6370213094096224e-08, 4e-08, 0))
hIsland = hIsland.add(rect(8.342720358902032e-09, 9.77240072544093e-10).transl(5.677098277284193e-08, 3.8607300168752606e-08, 0))
hIsland = hIsland.add(rect(8.666976301447528e-09, 8.425905590949944e-10).transl(2.2360911620593478e-08, 4e-08, 0))
hIsland = hIsland.add(rect(4.661571747606612e-09, 2.606277947020947e-09).transl(3.8530142846577323e-08, 4e-08, 0))
hIsland = hIsland.sub(rect(4.3495955466519015e-09, -9.81509452189841e-10).transl(-2.2251006029175825e-08, 4e-08, 0))
hIsland = hIsland.sub(rect(9.522604617238525e-09, -3.7135777277050576e-09).transl(2.7190706706206494e-08, 4e-08, 0))
hIsland = hIsland.sub(rect(5.3464130426312705e-09, -2.183624957789321e-09).transl(-6.2200314268408e-08, 3.696270193820045e-08, 0))
hIsland = hIsland.add(rect(5.021492641653407e-09, 3.0282070994774726e-09).transl(6.294895833136381e-08, 3.6680373409184476e-08, 0))
hIsland = hIsland.add(rect(6.4911378047527475e-09, 2.9966956574995375e-09).transl(1.3447256913234081e-09, 4e-08, 0))
hIsland = hIsland.sub(rect(3.920960914433758e-09, -1.3153269920551328e-09).transl(-1.4959460919995872e-08, 4e-08, 0))
hIsland = hIsland.add(rect(7.449198328085455e-09, 2.2144405791700626e-09).transl(-3.340893504103872e-08, 4e-08, 0))
hIsland = hIsland.add(rect(5.107702893813813e-09, 3.19864091067161e-09).transl(-2.268006416930436e-08, 4e-08, 0))
hIsland = hIsland.add(rect(4.3581673107200775e-09, 2.63759955001327e-10).transl(-5.0791836574617156e-08, 3.9667304112828195e-08, 0))
hIsland = hIsland.sub(rect(8.430902574026295e-09, -6.795817306439969e-10).transl(-1.1793267352151136e-09, 4e-08, 0))
hIsland = hIsland.sub(rect(8.373388964998122e-09, -3.443613705922689e-10).transl(8.001630952369212e-08, 2.5123624293722822e-08, 0))
hIsland = hIsland.add(rect(2.336719962897698e-09, 2.0606734563993272e-09).transl(-3.807103562384221e-08, 4e-08, 0))
hIsland = hIsland.add(rect(8.952300591093814e-09, 2.5520513403110854e-10).transl(-7.938189058118635e-08, 2.5806659683125512e-08, 0))
hIsland = hIsland.add(rect(2.265107757998826e-09, 1.5080466225840535e-09).transl(-1.5260791251434984e-09, 4e-08, 0))
hIsland = hIsland.sub(rect(4.369875711354411e-09, -1.7262712513990336e-09).transl(-6.810869274638927e-08, 3.4322949247972485e-08, 0))
hIsland = hIsland.add(rect(9.53066193532403e-09, 1.5470224113401907e-10).transl(-1.3899271837047065e-08, 4e-08, 0))
hIsland = hIsland.add(rect(6.325656867668193e-09, 2.564380469589981e-11).transl(7.509973295096631e-09, 4e-08, 0))
hIsland = hIsland.add(rect(6.137995518381971e-09, 1.0038453750601358e-09).transl(-6.6389220183597e-08, 3.519260595671733e-08, 0))
hIsland = hIsland.add(rect(5.6481406620447255e-09, 1.9167382365394721e-10).transl(3.9402604320371516e-08, 4e-08, 0))
hIsland = hIsland.add(rect(9.249073450160862e-09, 1.3290916770121151e-09).transl(5.794991651526224e-08, 3.830791079438178e-08, 0))
hIsland = hIsland.sub(rect(5.961181283697661e-09, -3.81299436680944e-10).transl(8.218669160808465e-08, 2.252504721188056e-08, 0))
hIsland = hIsland.add(rect(9.854926863506948e-09, 3.014670479061195e-09).transl(8.534836924491136e-08, 1.7711188607694205e-08, 0))
hIsland = hIsland.add(rect(5.251970996744157e-09, 6.046702691478397e-10).transl(7.793303090789395e-08, 2.725883941218918e-08, 0))
hIsland = hIsland.sub(rect(4.9576413009155535e-09, -1.8035624126356019e-09).transl(-2.2851510801141094e-08, 4e-08, 0))
hIsland = hIsland.sub(rect(7.2159974823212105e-09, -8.321898697709298e-10).transl(2.309246189812281e-08, 4e-08, 0))
hIsland = hIsland.add(rect(9.81177614592123e-09, 3.960362381931337e-09).transl(2.6940396401063386e-09, 4e-08, 0))
hIsland = hIsland.add(rect(8.63984596871391e-09, 2.5655883876503377e-09).transl(4.66989349373155e-08, 3.9971482378303505e-08, 0))
hIsland = hIsland.sub(rect(4.325962313154616e-09, -3.400215248653036e-09).transl(8.576503232666179e-08, 1.6940555809529362e-08, 0))
hIsland = hIsland.sub(rect(6.275425837085142e-09, -3.8049529451896725e-09).transl(2.7823579938497345e-08, 4e-08, 0))
hIsland = hIsland.sub(rect(6.590057388324246e-09, -9.84013932458924e-10).transl(6.879132471889042e-08, 3.3952447421684095e-08, 0))
hIsland = hIsland.sub(rect(4.084290487766121e-09, -1.6536805178880448e-09).transl(-4.55043324781288e-08, 3.999748781001502e-08, 0))
hIsland = hIsland.add(rect(4.181238869968674e-09, 2.4101771574111016e-10).transl(6.066305435076995e-08, 3.749877341498659e-08, 0))
hIsland = hIsland.sub(rect(8.24613137828494e-09, -1.0010650359366872e-09).transl(2.4239334487778776e-08, 4e-08, 0))
hIsland = hIsland.sub(rect(6.7652375363839695e-09, -2.357353285911032e-09).transl(8.351488415710938e-08, 2.0686560525182315e-08, 0))
hIsland = hIsland.add(rect(7.499889198778423e-09, 1.0351391929327698e-09).transl(4.571083560366613e-08, 3.999500919723685e-08, 0))
hIsland = hIsland.add(rect(6.98936406571056e-09, 1.3870682357304575e-09).transl(-6.702600605465888e-08, 3.488087729421281e-08, 0))
hIsland = hIsland.add(rect(9.176283833830397e-09, 1.3072574392298372e-09).transl(6.597700623997304e-08, 3.538810803068753e-08, 0))
hIsland = hIsland.add(rect(8.363816248998352e-09, 2.2348949533538066e-10).transl(-7.102053201611485e-08, 3.263483756800466e-08, 0))
hIsland = hIsland.add(rect(9.378511387516044e-09, 3.3739472580949035e-09).transl(-3.5926946321758466e-08, 4e-08, 0))
hIsland = hIsland.sub(rect(3.778983087857116e-09, -4.954192118446492e-10).transl(1.73472634534689e-08, 4e-08, 0))
hIsland = hIsland.sub(rect(8.403706420057852e-09, -5.690364675650318e-10).transl(-4.015156954127314e-08, 4e-08, 0))
hIsland = hIsland.add(rect(5.244570831883842e-09, 2.141261039358898e-09).transl(-7.096591356663701e-08, 3.2669192133971874e-08, 0))
hIsland = hIsland.add(rect(3.070879168911624e-09, 1.476182442375533e-09).transl(4.594601377546504e-08, 3.9991160089240515e-08, 0))
hIsland = hIsland.sub(rect(2.9585661171729466e-09, -3.9419245013091944e-10).transl(-6.870249277437937e-09, 4e-08, 0))
hIsland = hIsland.sub(rect(8.896749835632191e-09, -2.0415185209607205e-09).transl(-4.235831891564378e-08, 4e-08, 0))
hIsland = hIsland.sub(rect(6.512099427650538e-09, -1.0490939238636163e-09).transl(-3.850161040464832e-08, 4e-08, 0))
hIsland = hIsland.add(rect(4.37080760957402e-09, 3.779511639735503e-09).transl(-2.1281098605613048e-08, 4e-08, 0))
hIsland = hIsland.sub(rect(2.751509781465217e-09, -5.481076308020638e-10).transl(6.490953965331433e-08, 3.5872038488466316e-08, 0))
hIsland = hIsland.sub(rect(8.935066555269762e-09, -2.442965660847148e-09).transl(6.102703897532608e-09, 4e-08, 0))
hIsland = hIsland.sub(rect(3.359342528129953e-09, -3.393399531094772e-09).transl(-2.6521171148551912e-08, 4e-08, 0))
hIsland = hIsland.sub(rect(6.29136081731476e-09, -1.4768379179000183e-09).transl(9.759846508044366e-09, 4e-08, 0))
hIsland = hIsland.add(rect(3.810726582475326e-09, 5.088362947893399e-10).transl(7.492236192511176e-08, 2.9875822099675434e-08, 0))
hIsland = hIsland.sub(rect(7.499912004424234e-09, -2.0467971697351794e-09).transl(-5.495801345102482e-09, 4e-08, 0))
hIsland = hIsland.add(rect(4.2476443682668695e-09, 2.3147088890195043e-09).transl(-8.728471298062019e-08, 1.3684358504196137e-08, 0))
hIsland = hIsland.add(rect(7.905980109933443e-09, 6.548459388348632e-10).transl(3.8133190698784595e-08, 4e-08, 0))
hIsland = hIsland.add(rect(6.5108989140290274e-09, 3.5052745797763267e-10).transl(-4.4428883875012675e-08, 4e-08, 0))
hIsland = hIsland.sub(rect(9.864121668300143e-09, -8.041918454183649e-10).transl(-1.5700549981071485e-08, 4e-08, 0))
hIsland = hIsland.add(rect(5.9626707401416866e-09, 1.615596499536834e-09).transl(-6.745970354753306e-08, 3.4661671623692455e-08, 0))
hIsland = hIsland.sub(rect(5.627355133830364e-09, -1.1924721220602641e-10).transl(-7.157834903298609e-08, 3.227770074796109e-08, 0))
hIsland = hIsland.sub(rect(3.3565462423444103e-09, -8.948303051413352e-10).transl(-1.1996591961147129e-08, 4e-08, 0))
hIsland = hIsland.add(rect(4.511017621688062e-09, 1.909478491748648e-09).transl(1.8009806911346582e-08, 4e-08, 0))
hIsland = hIsland.sub(rect(4.210993522883363e-09, -1.7888294727080996e-09).transl(-1.4540496444551262e-08, 4e-08, 0))
hIsland = hIsland.add(rect(4.607970256372927e-09, 1.46970756010315e-09).transl(3.6083011389113205e-09, 4e-08, 0))
hIsland = hIsland.add(rect(6.453201321121527e-09, 2.0049883240970645e-11).transl(7.778651412657456e-08, 2.7398037113476743e-08, 0))
vIsland = hIsland.rotz(pi / 2)
vIslands = vIslands.add(vIsland.transl(0, -a/2, 0))
DefRegion(1, hIslands)
DefRegion(2, vIslands)
TableAdd(m_full.Region(1))
TableAdd(m_full.Region(2))
setgeom(hIslands.add(vIslands))
save(geom)
r2o2 := sqrt(2) / 2
m = RandomMagSeed(4)
B_ext = vector(Bmax*r2o2, Bmax*r2o2, 0)
relax()
minimize()
for B := Bmax; B >= -Bmax; B -= Bstep {
	B_ext = vector(B*r2o2, B*r2o2, 0)
	minimize()
	tablesave()
}
//********************************************************************//
//Please cite the following references, relevant for your simulation. //
//See bibtex file in output folder for justification.                 //
//********************************************************************//
//   * Vansteenkiste et al., AIP Adv. 4, 107133 (2014).
//   * Exl et al., J. Appl. Phys. 115, 17D118 (2014).
