//mumax 3.10 [windows_amd64 go1.11.6(gc) CUDA-11.0]
//GPU info: NVIDIA GeForce RTX 3090(24575MB), CUDA Driver 12.0, cc=8.6, using cc=80 PTX
//(c) Arne Vansteenkiste, Dynamat LAB, Ghent University, Belgium
//This is free software without any warranty. See license.txt
//********************************************************************//
//  If you use mumax in any work or publication,                      //
//  we kindly ask you to cite the references in references.bib        //
//********************************************************************//
//output directory: r1;p0.1;a3.2e-07;l2.3000000000000002e-07;s2.out/
randSeed(2)
ThermSeed(2)
resolution := 2e-09
zResolution := 5e-09
a := 3.2e-07
gridSize := 320
gridDepth := 5
SetCellsize(resolution, resolution, zResolution)
SetGridsize(gridSize, gridSize, gridDepth)
SetPBC(16, 16, 0)
//resizing...
Msat = 700e3
Aex = 13e-12
alpha = 0.2
Bmax := 0.1
Bstep := Bmax / 500.0
TableAdd(B_ext)
TableAdd(m_full)
islandWidth := 8e-08
islandLength := 2.3000000000000002e-07
ellipseConstant := 1.1500000000000002e-08
hIsland := Universe().Inverse()
vIsland := Universe().Inverse()
vIslands := Universe().Inverse()
hIslands := Universe().Inverse()
hIsland = rect(islandLength-2*ellipseConstant, islandWidth)
hIsland = hIsland.add(ellipse(ellipseConstant*2, islandWidth).transl(islandLength/2-ellipseConstant, 0, 0))
hIsland = hIsland.add(ellipse(ellipseConstant*2, islandWidth).transl(-islandLength/2+ellipseConstant, 0, 0))
hIsland = hIsland.add(rect(9.791925917522452e-09, 8.625596969703896e-10).transl(8.763882407656495e-08, -4e-08, 0))
hIsland = hIsland.add(rect(8.65939772459407e-09, 7.069640173842396e-10).transl(7.07320190550984e-09, -4e-08, 0))
hIsland = hIsland.add(rect(6.8945089806969675e-09, 8.258025472036418e-10).transl(6.638017886090579e-08, -4e-08, 0))
hIsland = hIsland.add(rect(9.569235291106566e-09, 1.6012934067768496e-09).transl(1.1246966839735749e-07, -2.5032618138353022e-08, 0))
hIsland = hIsland.add(rect(7.027782781068904e-09, 6.263686659639068e-10).transl(5.943397290914035e-08, -4e-08, 0))
hIsland = hIsland.add(rect(5.179715456569315e-09, 3.598714501511065e-10).transl(-5.248859549227043e-08, -4e-08, 0))
hIsland = hIsland.add(rect(7.7658442046144e-09, 1.9722829550734948e-09).transl(-7.699974204644964e-08, -4e-08, 0))
hIsland = hIsland.sub(rect(9.985085582791797e-09, -5.6575559338854e-10).transl(5.0770180885137004e-08, -4e-08, 0))
hIsland = hIsland.sub(rect(3.610567374513007e-09, -3.0378744126999904e-11).transl(1.506895882788396e-08, -4e-08, 0))
hIsland = hIsland.sub(rect(9.558213765101762e-09, -1.3889685433744801e-09).transl(-9.165144285942053e-09, -4e-08, 0))
hIsland = hIsland.add(rect(2.4027071512941065e-09, 2.0714202280290709e-10).transl(4.494726639405637e-09, -4e-08, 0))
hIsland = hIsland.sub(rect(3.839131849098257e-09, -7.515153581320244e-10).transl(2.1486832350101175e-08, -4e-08, 0))
hIsland = hIsland.add(rect(5.190003839133031e-09, 2.6839425525560792e-09).transl(1.0011279218726297e-07, -4e-08, 0))
hIsland = hIsland.sub(rect(4.4793236170315435e-09, -7.41864559498708e-12).transl(8.168273849321019e-08, -4e-08, 0))
hIsland = hIsland.sub(rect(4.3790412983984235e-09, -2.9219143926416557e-09).transl(3.4133536913292196e-08, -4e-08, 0))
hIsland = hIsland.add(rect(9.651677938814176e-09, 1.3577482240597933e-09).transl(-2.5563561434273314e-08, -4e-08, 0))
hIsland = hIsland.sub(rect(6.640943453663215e-09, -3.554965673881815e-09).transl(4.5261901642575774e-08, -4e-08, 0))
hIsland = hIsland.sub(rect(5.495990518225366e-09, -2.40643002851171e-09).transl(4.946697573113755e-08, -4e-08, 0))
hIsland = hIsland.sub(rect(5.7114576003797786e-09, -1.4555208887427171e-10).transl(8.026821345193508e-08, -4e-08, 0))
hIsland = hIsland.sub(rect(5.7774582875406035e-09, -2.1703008327207716e-09).transl(5.4424573916904535e-08, -4e-08, 0))
hIsland = hIsland.sub(rect(8.051616013105381e-09, -1.3094996239859787e-09).transl(3.642451679680593e-08, -4e-08, 0))
hIsland = hIsland.sub(rect(4.6722252701334225e-09, -8.035010642967097e-10).transl(3.6037015842576146e-08, -4e-08, 0))
hIsland = hIsland.add(rect(6.186536786205955e-09, 1.4866874940258814e-09).transl(2.202471194886621e-09, -4e-08, 0))
hIsland = hIsland.sub(rect(9.07250875733241e-09, -4.654052714032244e-09).transl(1.5696691581971062e-08, -4e-08, 0))
hIsland = hIsland.sub(rect(6.0442367418647345e-09, -1.6110791169549937e-09).transl(-8.977369420615058e-08, -4e-08, 0))
hIsland = hIsland.sub(rect(2.9510299278051133e-09, -8.530571189458505e-10).transl(-1.3089731907267972e-08, -4e-08, 0))
hIsland = hIsland.add(rect(9.236131512906113e-09, 1.398244873978429e-09).transl(-6.982064079205785e-08, -4e-08, 0))
hIsland = hIsland.sub(rect(2.6633617985408045e-09, -2.0947634677019718e-10).transl(5.991854069830857e-08, -4e-08, 0))
hIsland = hIsland.add(rect(6.414607393976454e-09, 6.523534171170082e-10).transl(-5.245418215352497e-08, -4e-08, 0))
hIsland = hIsland.add(rect(9.476117263966316e-09, 1.2488810779584514e-10).transl(-1.0994027258509603e-07, -3.31390634030624e-08, 0))
hIsland = hIsland.sub(rect(3.190986248698079e-09, -1.1709968809569937e-09).transl(-8.910742166360019e-08, -4e-08, 0))
hIsland = hIsland.add(rect(2.664680976747405e-09, 1.3124354188757326e-09).transl(1.8991211398304047e-08, -4e-08, 0))
hIsland = hIsland.add(rect(3.542523963631438e-09, 4.741976833845572e-10).transl(-4.2599640367167225e-09, -4e-08, 0))
hIsland = hIsland.sub(rect(9.070378896330358e-09, -1.1233802702570766e-09).transl(8.530130450742506e-08, -4e-08, 0))
hIsland = hIsland.add(rect(9.894383882968665e-09, 3.210598897159092e-10).transl(1.2885741616825897e-08, -4e-08, 0))
hIsland = hIsland.add(rect(9.082715768068555e-09, 1.1453832478420432e-09).transl(6.835436252942086e-08, -4e-08, 0))
hIsland = hIsland.add(rect(9.735942908645747e-09, 2.9823759151021277e-09).transl(-6.749986235095364e-09, -4e-08, 0))
hIsland = hIsland.add(rect(2.2049257529166095e-09, 1.7827191404738081e-09).transl(-2.439533350781358e-09, -4e-08, 0))
hIsland = hIsland.add(rect(5.251009617425787e-09, 9.514922119933737e-10).transl(-8.539069241824978e-08, -4e-08, 0))
hIsland = hIsland.add(rect(7.542998435807897e-09, 5.090593889331917e-11).transl(-1.0182163901535983e-07, -4e-08, 0))
hIsland = hIsland.sub(rect(7.055911113769822e-09, -1.0477846981658392e-09).transl(7.980981633271655e-08, -4e-08, 0))
hIsland = hIsland.sub(rect(4.105463996776975e-09, -1.0498896963817169e-09).transl(-1.1132907935742776e-07, -2.9299164328574303e-08, 0))
hIsland = hIsland.sub(rect(8.982780355070518e-09, -4.47488782820779e-09).transl(-6.919604689206568e-08, -4e-08, 0))
hIsland = hIsland.add(rect(7.81682669430612e-09, 3.0265311109497013e-10).transl(-1.2612400174217435e-08, -4e-08, 0))
hIsland = hIsland.sub(rect(4.3095799975908525e-09, -1.2168533826558312e-09).transl(8.391335194686994e-08, -4e-08, 0))
hIsland = hIsland.sub(rect(7.493850922279396e-09, -1.2368266854445727e-09).transl(8.30064983462729e-09, -4e-08, 0))
hIsland = hIsland.add(rect(6.440301446463126e-09, 2.2563093315847984e-09).transl(-1.1853674447099965e-08, -4e-08, 0))
hIsland = hIsland.add(rect(9.209456316830746e-09, 7.793048297292153e-10).transl(4.5068580666430756e-08, -4e-08, 0))
hIsland = hIsland.add(rect(5.234622187506921e-09, 4.430621775761e-09).transl(-1.015478408084285e-07, -4e-08, 0))
hIsland = hIsland.add(rect(2.437782667282779e-09, 9.022798944112474e-10).transl(-1.1477854063789878e-07, -7.812177846037271e-09, 0))
hIsland = hIsland.sub(rect(6.757224519838718e-09, -1.7773116358856897e-09).transl(7.150900467834141e-08, -4e-08, 0))
hIsland = hIsland.sub(rect(5.709694375830443e-09, -2.9571588202201726e-09).transl(1.1270501365329353e-07, -2.3976730658460054e-08, 0))
hIsland = hIsland.add(rect(6.8434925377783e-09, 1.1550642621775214e-09).transl(-7.938224752668997e-08, -4e-08, 0))
hIsland = hIsland.sub(rect(6.246363452885304e-09, -6.3862672728618e-11).transl(-3.7103680247614336e-08, -4e-08, 0))
hIsland = hIsland.add(rect(2.014639914717302e-09, 1.1301240183593403e-09).transl(-1.2164850036827128e-08, -4e-08, 0))
hIsland = hIsland.sub(rect(3.6793497302902456e-09, -2.095247933539633e-09).transl(-7.334830757655024e-08, -4e-08, 0))
hIsland = hIsland.add(rect(6.7329695930864915e-09, 1.0980605303293508e-09).transl(6.236665133665814e-08, -4e-08, 0))
hIsland = hIsland.add(rect(5.613043609922327e-09, 7.441204617204248e-10).transl(-9.411573645585656e-08, -4e-08, 0))
hIsland = hIsland.sub(rect(7.749927230327227e-09, -4.867182984172219e-10).transl(-1.9604601126699603e-08, -4e-08, 0))
hIsland = hIsland.add(rect(8.781975608717337e-09, 3.3041517155676857e-09).transl(-9.47339825379972e-09, -4e-08, 0))
hIsland = hIsland.sub(rect(5.995158514388285e-09, -1.1754823730183568e-09).transl(8.233886197620294e-08, -4e-08, 0))
hIsland = hIsland.add(rect(4.423109329918153e-09, 1.63885379659994e-10).transl(-8.104270312148613e-08, -4e-08, 0))
hIsland = hIsland.sub(rect(8.12776878406726e-09, -1.5652725623029934e-09).transl(3.719278196302072e-08, -4e-08, 0))
hIsland = hIsland.sub(rect(6.5177322344060315e-09, -2.660498796582555e-09).transl(-4.411837771713878e-08, -4e-08, 0))
hIsland = hIsland.add(rect(5.782890939661934e-09, 1.4244250516706247e-09).transl(-1.9789609920868602e-08, -4e-08, 0))
hIsland = hIsland.sub(rect(4.835610311221406e-09, -6.254109037292175e-10).transl(5.2578608128979895e-08, -4e-08, 0))
hIsland = hIsland.add(rect(3.5962063034057367e-09, 2.4725665807416605e-10).transl(-6.726792300721768e-08, -4e-08, 0))
hIsland = hIsland.add(rect(9.96493098473647e-09, 1.242540130019781e-10).transl(3.501252116529375e-08, -4e-08, 0))
hIsland = hIsland.add(rect(2.021312547039239e-09, 2.142889667551723e-09).transl(9.1363295465489e-08, -4e-08, 0))
hIsland = hIsland.add(rect(2.3940529511512924e-09, 2.1666045948674665e-09).transl(-5.4749632851241165e-08, -4e-08, 0))
hIsland = hIsland.sub(rect(6.4610553351630195e-09, -1.4313100919549618e-09).transl(-1.1493402358358477e-07, -4.278550276570605e-09, 0))
hIsland = hIsland.add(rect(9.327471923508466e-09, 1.9673725156371447e-09).transl(2.3108208485778144e-08, -4e-08, 0))
hIsland = hIsland.sub(rect(9.759166613187319e-09, -4.703776283383714e-09).transl(-3.2747365540413475e-08, -4e-08, 0))
hIsland = hIsland.add(rect(3.3195683838956623e-09, 3.500713545195048e-09).transl(-1.0229091953727538e-08, -4e-08, 0))
hIsland = hIsland.sub(rect(4.042626616336494e-09, -6.009698308739456e-09).transl(-3.956667547592204e-08, -4e-08, 0))
hIsland = hIsland.sub(rect(3.443611615801375e-09, -2.555090554067437e-09).transl(-6.331819136553433e-08, -4e-08, 0))
hIsland = hIsland.sub(rect(3.774297238489786e-09, -4.814554345024589e-10).transl(-1.0741638182549361e-07, -3.760898471214469e-08, 0))
hIsland = hIsland.sub(rect(2.9127549281697398e-09, -7.239178646189095e-10).transl(8.441670241661626e-08, -4e-08, 0))
hIsland = hIsland.sub(rect(2.2249834035490343e-09, -1.748709702382796e-09).transl(8.936555827594305e-09, -4e-08, 0))
hIsland = hIsland.sub(rect(6.450976234572487e-09, -5.749359823886962e-10).transl(7.540133324372583e-08, -4e-08, 0))
hIsland = hIsland.sub(rect(4.4396725621045535e-09, -3.4323108354927426e-09).transl(7.903264308337959e-09, -4e-08, 0))
hIsland = hIsland.sub(rect(4.4609246942667626e-09, -2.1948309627435204e-09).transl(6.360002285341991e-08, -4e-08, 0))
hIsland = hIsland.add(rect(2.3073067318907426e-09, 4.703627346491135e-10).transl(-1.8118375140043386e-08, -4e-08, 0))
hIsland = hIsland.sub(rect(5.4080398188498685e-09, -1.5278589427008603e-09).transl(-1.0577103954138092e-07, -3.9212262948442635e-08, 0))
hIsland = hIsland.add(rect(8.783605317314334e-09, 3.4892010987412973e-09).transl(1.6127851391852595e-08, -4e-08, 0))
hIsland = hIsland.add(rect(7.776091221650442e-09, 2.7284024535049435e-09).transl(-1.1198473588042707e-07, -2.7000638690622638e-08, 0))
hIsland = hIsland.sub(rect(4.613295259959258e-09, -4.3307729392366635e-09).transl(1.0706401753997918e-07, -3.8030576332447245e-08, 0))
hIsland = hIsland.add(rect(9.898416236047157e-09, 1.3456255687662867e-10).transl(7.466471996995201e-08, -4e-08, 0))
hIsland = hIsland.add(rect(2.5955872539781296e-09, 7.204173719851174e-10).transl(1.5350788395479724e-08, -4e-08, 0))
hIsland = hIsland.sub(rect(5.927877900246281e-09, -1.9627237044175328e-09).transl(-7.95094239210393e-08, -4e-08, 0))
hIsland = hIsland.sub(rect(7.995400151776652e-09, -2.254545280724639e-09).transl(-7.545970884775988e-08, -4e-08, 0))
hIsland = hIsland.sub(rect(4.842792368913548e-09, -1.8068851274594187e-09).transl(-3.622197816512483e-08, -4e-08, 0))
hIsland = hIsland.add(rect(8.45325037564764e-09, 1.695204238417309e-09).transl(4.122608053631254e-08, -4e-08, 0))
hIsland = hIsland.add(rect(9.449600163299088e-09, 3.2452846816095363e-09).transl(1.0491708562750914e-07, -3.9695151129643366e-08, 0))
hIsland = hIsland.add(rect(3.6845952799131195e-09, 2.410813489718903e-09).transl(4.88533697319216e-09, -4e-08, 0))
hIsland = hIsland.add(rect(5.39362178136867e-09, 1.2693584752415578e-09).transl(-1.0485204699554837e-07, -3.97225872020681e-08, 0))
hIsland = hIsland.add(rect(6.653659936971448e-09, 3.0757923481761645e-09).transl(2.9265043476282723e-08, -4e-08, 0))
hIsland = hIsland.sub(rect(5.079534205198851e-09, -3.867425201557126e-09).transl(6.387488608895145e-08, -4e-08, 0))
hIsland = hIsland.add(rect(7.369985981575246e-09, 6.053518719414693e-10).transl(-2.8921363890456916e-08, -4e-08, 0))
hIsland = hIsland.sub(rect(4.120132794268319e-09, -3.145536171009006e-11).transl(2.722238496046815e-08, -4e-08, 0))
hIsland = hIsland.sub(rect(9.455271478727738e-09, -1.9032623302863564e-09).transl(6.191423818857436e-08, -4e-08, 0))
hIsland = hIsland.sub(rect(2.327913675424321e-09, -1.578955463381321e-09).transl(2.373525811238383e-10, -4e-08, 0))
hIsland = hIsland.add(rect(9.272073865607624e-09, 1.150558400208478e-09).transl(2.559310988537737e-08, -4e-08, 0))
hIsland = hIsland.sub(rect(3.4223866318536996e-09, -2.539570418293647e-09).transl(8.392813747608099e-08, -4e-08, 0))
hIsland = hIsland.add(rect(9.955623831415336e-09, 4.6366114957062476e-09).transl(3.3040766822682295e-08, -4e-08, 0))
hIsland = hIsland.sub(rect(7.998808778187273e-09, -1.5593346276557745e-09).transl(4.447662500423564e-08, -4e-08, 0))
hIsland = hIsland.sub(rect(8.397849108531311e-09, -1.8593262909935207e-09).transl(-5.6103756315298286e-08, -4e-08, 0))
hIsland = hIsland.sub(rect(8.504688884315287e-09, -1.3904598340684116e-09).transl(-9.650984037318329e-08, -4e-08, 0))
hIsland = hIsland.add(rect(8.176149938305498e-09, 1.11292941527613e-09).transl(4.2111356505953366e-08, -4e-08, 0))
hIsland = hIsland.sub(rect(4.7063291617284615e-09, -5.4056008001479995e-11).transl(-9.23891400454813e-08, -4e-08, 0))
hIsland = hIsland.add(rect(5.986130665500062e-09, 2.524192834806041e-09).transl(9.348859771400856e-08, -4e-08, 0))
hIsland = hIsland.add(rect(5.298391662242379e-09, 2.5434036432584537e-09).transl(-6.162168549244088e-10, -4e-08, 0))
hIsland = hIsland.add(rect(6.359882133405562e-09, 1.9822970909751534e-09).transl(-1.5941813595304848e-08, -4e-08, 0))
hIsland = hIsland.sub(rect(9.80215058535105e-09, -2.636314319425267e-09).transl(-1.2719177033492348e-08, -4e-08, 0))
hIsland = hIsland.sub(rect(3.3483820531377866e-09, -4.243208294320507e-09).transl(-2.7978039143507985e-08, -4e-08, 0))
hIsland = hIsland.sub(rect(2.280224539004797e-09, -8.615915385859813e-10).transl(6.973194920022586e-08, -4e-08, 0))
hIsland = hIsland.add(rect(7.884056475812557e-09, 1.9103952799265422e-09).transl(-3.5323857904099876e-08, -4e-08, 0))
hIsland = hIsland.sub(rect(9.027800669734997e-09, -4.41914233808645e-09).transl(-7.705589118113905e-08, -4e-08, 0))
hIsland = hIsland.sub(rect(9.707645497805418e-09, -1.491129714070994e-09).transl(7.181190462961627e-08, -4e-08, 0))
hIsland = hIsland.add(rect(6.201396108845336e-09, 1.0788857281108632e-10).transl(-6.658190274162628e-08, -4e-08, 0))
hIsland = hIsland.sub(rect(9.051100491593673e-09, -1.2237196387867604e-09).transl(-1.1001395788775698e-07, -3.296436343766179e-08, 0))
hIsland = hIsland.sub(rect(7.003565090403929e-09, -1.5287687678049945e-09).transl(-1.083332401207054e-07, -3.629574632776334e-08, 0))
hIsland = hIsland.sub(rect(5.324039129506611e-09, -4.747708607881161e-09).transl(7.473728552876703e-08, -4e-08, 0))
hIsland = hIsland.add(rect(3.2504768945772508e-09, 2.2908920528308527e-09).transl(-5.071909093360938e-08, -4e-08, 0))
hIsland = hIsland.add(rect(5.381571028436917e-09, 2.5964688637901144e-09).transl(8.087299781604044e-08, -4e-08, 0))
hIsland = hIsland.sub(rect(8.840134090038293e-09, -2.3497021522601773e-09).transl(-9.678558251877695e-08, -4e-08, 0))
hIsland = hIsland.add(rect(6.341552682161487e-09, 1.7851193163240217e-10).transl(8.645808688365263e-08, -4e-08, 0))
hIsland = hIsland.add(rect(7.742379171842414e-09, 4.0635695701072093e-10).transl(7.539738384702409e-08, -4e-08, 0))
hIsland = hIsland.sub(rect(8.054110972969161e-09, -8.001422959871545e-10).transl(-2.98941574383913e-08, -4e-08, 0))
hIsland = hIsland.add(rect(2.4489463800463816e-09, 3.549372895883393e-09).transl(1.5480119766003564e-09, -4e-08, 0))
hIsland = hIsland.add(rect(9.86315070055775e-09, 1.3225520985111349e-09).transl(7.31935989081583e-08, -4e-08, 0))
hIsland = hIsland.sub(rect(2.6698784029217556e-09, -3.2278740188794193e-09).transl(-1.663112061876908e-08, -4e-08, 0))
hIsland = hIsland.add(rect(5.821383134813488e-09, 4.0258749433638035e-09).transl(-4.597208262642192e-08, -4e-08, 0))
hIsland = hIsland.add(rect(6.1500590061270784e-09, 1.1308308349582193e-09).transl(9.878253063328387e-08, -4e-08, 0))
hIsland = hIsland.add(rect(2.13739926522475e-09, 1.5104038588271002e-09).transl(2.5737835683261005e-08, -4e-08, 0))
hIsland = hIsland.add(rect(3.0828863110946972e-09, 2.619619150292035e-09).transl(-7.236683426176011e-08, -4e-08, 0))
hIsland = hIsland.sub(rect(2.0794321897067568e-09, -1.989390685657976e-09).transl(8.981377405264393e-08, -4e-08, 0))
hIsland = hIsland.sub(rect(5.283504755924609e-09, -7.419064623986674e-10).transl(-9.024627379869488e-08, -4e-08, 0))
hIsland = hIsland.sub(rect(6.837653548995318e-09, -3.1724884974242036e-10).transl(7.81895581723019e-08, -4e-08, 0))
hIsland = hIsland.sub(rect(8.497027922767629e-09, -3.0067709642967447e-09).transl(-3.216645218694026e-08, -4e-08, 0))
hIsland = hIsland.sub(rect(4.399275548767409e-09, -4.046828039677297e-09).transl(-1.522687551693361e-08, -4e-08, 0))
hIsland = hIsland.add(rect(6.781231278691847e-09, 3.882513471426143e-09).transl(-2.3508884278007177e-08, -4e-08, 0))
hIsland = hIsland.add(rect(5.969204237742198e-09, 9.867253162198462e-10).transl(4.3395415761648846e-08, -4e-08, 0))
hIsland = hIsland.sub(rect(3.510468813902497e-09, -1.6789743179846676e-09).transl(1.6706979243046967e-08, -4e-08, 0))
hIsland = hIsland.add(rect(2.121957207726732e-09, 1.242195419772895e-09).transl(-8.937473510133117e-08, -4e-08, 0))
hIsland = hIsland.add(rect(2.897686567699083e-09, 2.662994862055159e-09).transl(-2.285875477579508e-08, -4e-08, 0))
hIsland = hIsland.sub(rect(8.804723348168826e-09, -4.857360031954361e-10).transl(-4.572641328090688e-08, -4e-08, 0))
hIsland = hIsland.add(rect(5.490005750661555e-09, 1.4227616605339096e-09).transl(9.114408099533249e-08, -4e-08, 0))
hIsland = hIsland.sub(rect(3.42109222508348e-09, -1.02788948890791e-09).transl(1.853836819968004e-08, -4e-08, 0))
hIsland = hIsland.sub(rect(2.1471761676278538e-09, -1.3249650494884782e-10).transl(-7.104195151272732e-08, -4e-08, 0))
hIsland = hIsland.add(rect(8.874687044147569e-09, 1.3673002215964062e-09).transl(3.430131335229901e-08, -4e-08, 0))
hIsland = hIsland.sub(rect(3.6817154821860073e-09, -2.066869452103011e-09).transl(3.147884428174836e-08, -4e-08, 0))
hIsland = hIsland.add(rect(2.2574331801097832e-09, 2.236946292548822e-09).transl(-1.0785545372322309e-07, -3.702020462839193e-08, 0))
hIsland = hIsland.add(rect(9.106439809897433e-09, 2.438493153924e-10).transl(-1.462067791002495e-08, -4e-08, 0))
hIsland = hIsland.add(rect(4.239840980994538e-09, 1.5209903355265814e-09).transl(9.866733296197101e-08, -4e-08, 0))
hIsland = hIsland.sub(rect(8.574546548169348e-09, -4.899997296040753e-10).transl(1.0992850571134291e-07, -3.3166692804870264e-08, 0))
hIsland = hIsland.add(rect(2.182602497518663e-09, 1.6148988631027395e-10).transl(-3.202264224030369e-08, -4e-08, 0))
hIsland = hIsland.add(rect(8.341266618654963e-09, 1.1078762146013272e-09).transl(3.5474941936149855e-08, -4e-08, 0))
hIsland = hIsland.sub(rect(5.1503848676237026e-09, -2.011776107305387e-09).transl(6.443265314435622e-08, -4e-08, 0))
hIsland = hIsland.add(rect(4.293690108729107e-09, 4.5145274761701304e-10).transl(-4.732140329460524e-08, -4e-08, 0))
hIsland = hIsland.add(rect(8.731449531633995e-09, 2.06955851621477e-09).transl(1.0472871417169523e-08, -4e-08, 0))
hIsland = hIsland.sub(rect(8.997158880994434e-09, -1.2218369113038466e-10).transl(-8.774882827233209e-08, -4e-08, 0))
hIsland = hIsland.sub(rect(3.270185727260401e-09, -1.934665077205882e-09).transl(-1.0354507429628225e-07, -3.999969274858399e-08, 0))
hIsland = hIsland.add(rect(4.391660895670092e-09, 6.573456326137174e-10).transl(-1.0453567723340515e-07, -3.983745767705459e-08, 0))
hIsland = hIsland.add(rect(7.408571238038349e-09, 1.3404872987646218e-09).transl(-6.346841606773484e-08, -4e-08, 0))
hIsland = hIsland.add(rect(8.815420502010912e-09, 8.90138654181316e-10).transl(-5.3907522306687914e-08, -4e-08, 0))
hIsland = hIsland.sub(rect(8.124069225620213e-09, -3.2793047459319827e-09).transl(-4.705909999707569e-08, -4e-08, 0))
hIsland = hIsland.sub(rect(4.7205513421556955e-09, -2.2676970426739473e-09).transl(3.0313483669576335e-08, -4e-08, 0))
hIsland = hIsland.sub(rect(6.856285919826749e-09, -1.2082257337252142e-09).transl(-3.829808172724946e-08, -4e-08, 0))
hIsland = hIsland.sub(rect(9.453968738136823e-09, -8.329900548544566e-10).transl(1.0662424444805359e-07, -3.849557994965679e-08, 0))
hIsland = hIsland.sub(rect(9.293331356235612e-09, -2.3012592442789345e-09).transl(7.335081838446977e-08, -4e-08, 0))
hIsland = hIsland.add(rect(2.394692191758166e-09, 1.0353198422506908e-10).transl(8.87641164920067e-08, -4e-08, 0))
hIsland = hIsland.sub(rect(3.922300673626441e-09, -9.543119197764193e-10).transl(9.026359464545044e-08, -4e-08, 0))
hIsland = hIsland.add(rect(4.3902979662037665e-09, 9.2815648817693e-11).transl(8.219122261007898e-08, -4e-08, 0))
hIsland = hIsland.sub(rect(6.4193061733841215e-09, -8.642203420446397e-10).transl(-7.061641599512895e-08, -4e-08, 0))
hIsland = hIsland.sub(rect(8.772695682520588e-09, -1.2725393929534463e-09).transl(-5.231892877573535e-08, -4e-08, 0))
hIsland = hIsland.add(rect(5.722275926840336e-09, 1.4540950761354254e-09).transl(1.7001238595390574e-08, -4e-08, 0))
hIsland = hIsland.sub(rect(8.794974566853644e-09, -1.810113723066229e-09).transl(4.720917525883811e-08, -4e-08, 0))
hIsland = hIsland.add(rect(2.3898775690049966e-09, 5.733605648745646e-09).transl(2.986193886319502e-08, -4e-08, 0))
hIsland = hIsland.add(rect(4.206919546151346e-09, 9.297382984316822e-10).transl(-9.3875073769316e-08, -4e-08, 0))
hIsland = hIsland.add(rect(5.19933170195902e-09, 4.533907710049739e-10).transl(7.537059473845272e-08, -4e-08, 0))
hIsland = hIsland.add(rect(2.4980464208443486e-09, 1.2436123461584258e-10).transl(-9.470884578121806e-09, -4e-08, 0))
hIsland = hIsland.add(rect(8.324254429214503e-09, 3.8301709111108506e-09).transl(1.5398383570461235e-08, -4e-08, 0))
hIsland = hIsland.add(rect(8.376791674398053e-09, 8.715616873116256e-10).transl(1.0133674769246964e-07, -4e-08, 0))
hIsland = hIsland.add(rect(5.905146909491029e-09, 1.1948968365253115e-09).transl(-5.527500002191937e-08, -4e-08, 0))
hIsland = hIsland.sub(rect(3.981851464635501e-09, -2.4767152385756607e-09).transl(2.1203695729460077e-08, -4e-08, 0))
hIsland = hIsland.sub(rect(7.850311521092463e-09, -1.3853365432529138e-09).transl(-1.2712529413917448e-08, -4e-08, 0))
hIsland = hIsland.sub(rect(3.6685917922343595e-09, -1.5891230972381282e-09).transl(-8.558475149533534e-09, -4e-08, 0))
hIsland = hIsland.add(rect(9.580430471689095e-09, 3.790038809376297e-09).transl(-7.800369034617882e-08, -4e-08, 0))
hIsland = hIsland.add(rect(8.473730470591885e-09, 3.0782451551061643e-09).transl(2.145289332549717e-08, -4e-08, 0))
hIsland = hIsland.add(rect(7.677094035880837e-09, 1.0888698579969466e-10).transl(7.991197876807122e-08, -4e-08, 0))
hIsland = hIsland.add(rect(8.779146737286575e-09, 8.46794131804657e-10).transl(-6.932944567534473e-08, -4e-08, 0))
hIsland = hIsland.sub(rect(3.265451508947133e-09, -1.0932377389082708e-09).transl(-7.438592348045199e-08, -4e-08, 0))
hIsland = hIsland.add(rect(4.082005728950787e-09, 2.379506561775092e-10).transl(4.594997158164634e-08, -4e-08, 0))
hIsland = hIsland.sub(rect(2.6644993790969514e-09, -6.148314165379653e-10).transl(1.5545862753546002e-08, -4e-08, 0))
hIsland = hIsland.add(rect(6.551975621753837e-09, 8.436786636294301e-10).transl(2.984355681217422e-08, -4e-08, 0))
hIsland = hIsland.add(rect(5.389169111879419e-09, 7.5470586882466e-10).transl(-1.5227480497137866e-08, -4e-08, 0))
hIsland = hIsland.add(rect(4.290560184957658e-09, 3.9634833023207485e-09).transl(-8.114281542770842e-08, -4e-08, 0))
hIsland = hIsland.sub(rect(8.777829944022795e-09, -8.155973726877701e-10).transl(6.249491576396065e-08, -4e-08, 0))
hIsland = hIsland.add(rect(4.9608529378874065e-09, 3.616516384981153e-09).transl(-4.464117322011938e-08, -4e-08, 0))
hIsland = hIsland.add(rect(5.858187217330338e-09, 2.9875968212167395e-10).transl(5.941466528270133e-08, 4e-08, 0))
hIsland = hIsland.sub(rect(7.82455445355013e-09, -2.3763996304267077e-09).transl(6.259466625702526e-08, 4e-08, 0))
hIsland = hIsland.add(rect(9.062622300760834e-09, 5.641679672126471e-10).transl(-1.6687210975994352e-08, 4e-08, 0))
hIsland = hIsland.sub(rect(6.646741519275616e-09, -4.296641893477248e-09).transl(-3.012383206851567e-08, 4e-08, 0))
hIsland = hIsland.sub(rect(6.799954954761756e-09, -2.43020128199047e-10).transl(-9.671235538719818e-08, 4e-08, 0))
hIsland = hIsland.sub(rect(5.090774663786697e-09, -1.8234539610247992e-09).transl(2.7212648178779102e-08, 4e-08, 0))
hIsland = hIsland.sub(rect(9.132902434839498e-09, -2.3692846816756385e-09).transl(-6.81082632949528e-08, 4e-08, 0))
hIsland = hIsland.add(rect(7.433117077260944e-09, 2.061845561444158e-09).transl(9.71532717168217e-09, 4e-08, 0))
hIsland = hIsland.add(rect(9.718633482593316e-09, 1.7661178479764394e-09).transl(-1.7261760109165675e-08, 4e-08, 0))
hIsland = hIsland.sub(rect(8.685682919243143e-09, -2.7927200170251214e-09).transl(-1.0649126962550615e-07, 3.862315530679552e-08, 0))
hIsland = hIsland.add(rect(2.398244430316698e-09, 1.4160611085096616e-09).transl(6.069961032386061e-08, 4e-08, 0))
hIsland = hIsland.sub(rect(8.500021729160979e-09, -9.385196024063585e-11).transl(2.8114467021266042e-08, 4e-08, 0))
hIsland = hIsland.add(rect(4.7331109108776425e-09, 1.9757909317857606e-09).transl(-6.023953573971961e-09, 4e-08, 0))
hIsland = hIsland.add(rect(2.244831591350857e-09, 7.812207971710958e-10).transl(2.8536552500993468e-08, 4e-08, 0))
hIsland = hIsland.sub(rect(5.985104953656478e-09, -4.5370027267728587e-10).transl(-8.995966577640599e-08, 4e-08, 0))
hIsland = hIsland.add(rect(6.387262252598706e-09, 5.528516556695969e-10).transl(-1.0168374629241376e-07, 4e-08, 0))
hIsland = hIsland.add(rect(4.53056956083283e-09, 7.116840157248077e-10).transl(-1.4510654759185909e-08, 4e-08, 0))
hIsland = hIsland.add(rect(7.141662051981863e-09, 3.2614925773165285e-09).transl(-6.526356115521154e-08, 4e-08, 0))
hIsland = hIsland.add(rect(9.65973689528648e-09, 2.069492891529114e-09).transl(6.615804873165167e-08, 4e-08, 0))
hIsland = hIsland.sub(rect(9.232213520998716e-09, -1.7580207082920964e-09).transl(-3.0755074404111866e-08, 4e-08, 0))
hIsland = hIsland.sub(rect(2.6556217968141136e-09, -1.951894864621855e-09).transl(-5.432580333233239e-08, 4e-08, 0))
hIsland = hIsland.sub(rect(2.6578210615797107e-09, -4.601330692725751e-10).transl(-1.8084005819067132e-08, 4e-08, 0))
hIsland = hIsland.sub(rect(9.936006059807664e-09, -2.1247570387013942e-10).transl(-4.6367473128894595e-08, 4e-08, 0))
hIsland = hIsland.add(rect(5.612048196385843e-09, 1.0614763606340363e-09).transl(1.5841131958872334e-08, 4e-08, 0))
hIsland = hIsland.sub(rect(7.202119193740124e-09, -1.9906979631946362e-09).transl(2.9340415093808707e-08, 4e-08, 0))
hIsland = hIsland.sub(rect(3.1950507190503184e-09, -3.96784924944184e-09).transl(-3.1400294193356086e-08, 4e-08, 0))
hIsland = hIsland.add(rect(8.730654511277714e-09, 4.462646670404561e-10).transl(-6.482922923336224e-08, 4e-08, 0))
hIsland = hIsland.sub(rect(9.33148175575191e-09, -3.3077100976779154e-09).transl(-4.4845083027055184e-08, 4e-08, 0))
hIsland = hIsland.sub(rect(6.929242319122424e-09, -4.923704328794548e-10).transl(-1.2891758808414852e-08, 4e-08, 0))
hIsland = hIsland.sub(rect(5.308553942938852e-09, -9.582692687470903e-10).transl(-3.307289962725135e-09, 4e-08, 0))
hIsland = hIsland.sub(rect(2.9141334675036116e-09, -2.5916321659273804e-09).transl(9.712852657157404e-09, 4e-08, 0))
hIsland = hIsland.sub(rect(2.638403878838025e-09, -4.2552519236296996e-09).transl(-2.2825255219779738e-08, 4e-08, 0))
hIsland = hIsland.add(rect(9.829606328437018e-09, 8.257716213336332e-10).transl(-3.8549053017639094e-08, 4e-08, 0))
hIsland = hIsland.add(rect(6.962185534284367e-09, 1.831588397206691e-10).transl(1.100558908641515e-07, 3.286363783267532e-08, 0))
hIsland = hIsland.sub(rect(7.330687966452826e-09, -8.567688344662206e-10).transl(5.7729550289816357e-08, 4e-08, 0))
hIsland = hIsland.add(rect(5.4532177494408565e-09, 2.0906688352078963e-10).transl(9.615732265671471e-08, 4e-08, 0))
hIsland = hIsland.sub(rect(6.335066713021532e-09, -3.254742384451988e-09).transl(-6.170278248317111e-08, 4e-08, 0))
hIsland = hIsland.add(rect(9.270558886354803e-09, 3.0684387919842462e-09).transl(1.2189032077403076e-08, 4e-08, 0))
hIsland = hIsland.sub(rect(2.794907147657058e-09, -3.890994145892351e-09).transl(-1.4449311524590284e-08, 4e-08, 0))
hIsland = hIsland.sub(rect(9.624833884235344e-09, -8.703161900784472e-10).transl(9.565239357391925e-08, 4e-08, 0))
hIsland = hIsland.sub(rect(7.195362501617598e-09, -5.112208179494433e-10).transl(1.0176534602421389e-07, 4e-08, 0))
hIsland = hIsland.sub(rect(5.012805318846385e-09, -3.99133759815575e-09).transl(5.8269183552011484e-08, 4e-08, 0))
hIsland = hIsland.sub(rect(5.711372210582922e-09, -1.231355246776076e-09).transl(6.140644158573432e-08, 4e-08, 0))
hIsland = hIsland.add(rect(2.0177549220497353e-09, 2.279727146635686e-09).transl(-4.963656816405851e-09, 4e-08, 0))
hIsland = hIsland.add(rect(9.530320388374861e-09, 2.376675720603174e-09).transl(-7.455587426414356e-08, 4e-08, 0))
hIsland = hIsland.sub(rect(7.928058975104117e-09, -1.9609380928167283e-09).transl(7.172895476425163e-08, 4e-08, 0))
hIsland = hIsland.add(rect(3.18705267377086e-09, 9.681886712108167e-10).transl(6.679065072810895e-08, 4e-08, 0))
hIsland = hIsland.sub(rect(4.936524637374525e-09, -9.495148879110402e-10).transl(-6.209834348242439e-08, 4e-08, 0))
hIsland = hIsland.add(rect(9.389041997574515e-09, 8.467933733278684e-10).transl(1.1160206357338099e-07, 2.8387076769558757e-08, 0))
hIsland = hIsland.sub(rect(4.274749864778814e-09, -2.2821236293855514e-09).transl(-6.218753919250643e-08, 4e-08, 0))
hIsland = hIsland.add(rect(2.4576653077834528e-09, 6.570215803587184e-10).transl(3.6958114363843236e-08, 4e-08, 0))
hIsland = hIsland.sub(rect(2.4693889072294514e-09, -1.71870426788665e-09).transl(-3.9698089661619163e-08, 4e-08, 0))
hIsland = hIsland.add(rect(3.09608113997974e-09, 6.101740558425196e-09).transl(-3.714256207725118e-08, 4e-08, 0))
hIsland = hIsland.add(rect(7.852071102107035e-09, 1.3612059455911733e-09).transl(1.3442363297333647e-08, 4e-08, 0))
hIsland = hIsland.add(rect(4.0004202993491315e-09, 1.0679909077836004e-09).transl(-1.0178306813657907e-07, 4e-08, 0))
hIsland = hIsland.sub(rect(5.188903043548516e-09, -2.215833533254481e-09).transl(-5.070894694177572e-09, 4e-08, 0))
hIsland = hIsland.add(rect(3.4741385106113675e-09, 2.379555173752172e-09).transl(-9.83613787427529e-09, 4e-08, 0))
hIsland = hIsland.sub(rect(7.782028898519855e-09, -1.341387930234689e-09).transl(1.0087790109830248e-07, 4e-08, 0))
hIsland = hIsland.sub(rect(5.7044057970058515e-09, -4.858964222553792e-09).transl(3.666024343937753e-08, 4e-08, 0))
hIsland = hIsland.add(rect(7.051435004746684e-09, 1.4625212396329952e-09).transl(-1.0772871548667245e-07, 3.7197551043690495e-08, 0))
hIsland = hIsland.add(rect(7.347348723156765e-09, 1.1847987626715754e-09).transl(-7.534504778747581e-10, 4e-08, 0))
hIsland = hIsland.add(rect(7.864215446407963e-09, 3.983146236933445e-09).transl(6.344627510233216e-08, 4e-08, 0))
hIsland = hIsland.add(rect(6.102008937276683e-09, 3.068400705766245e-09).transl(7.304940968642902e-08, 4e-08, 0))
hIsland = hIsland.sub(rect(3.10575329138832e-09, -1.359587841834952e-09).transl(-5.824363062840062e-08, 4e-08, 0))
hIsland = hIsland.add(rect(6.312956118038944e-09, 3.6669888954313984e-09).transl(1.773449136145945e-08, 4e-08, 0))
hIsland = hIsland.add(rect(3.992673111161027e-09, 1.204878566209957e-09).transl(5.406373453092024e-09, 4e-08, 0))
hIsland = hIsland.sub(rect(7.65299630147463e-09, -9.45430069499298e-10).transl(-9.022932160468539e-08, 4e-08, 0))
hIsland = hIsland.sub(rect(4.8598610250570566e-09, -1.6150759559128375e-09).transl(2.588837618242587e-09, 4e-08, 0))
hIsland = hIsland.add(rect(5.2329433809873485e-09, 1.927324598131956e-09).transl(-6.345810801966859e-09, 4e-08, 0))
hIsland = hIsland.sub(rect(5.145258598813506e-09, -4.2623431073716703e-10).transl(-9.602028216161232e-08, 4e-08, 0))
hIsland = hIsland.sub(rect(4.8738385702856915e-09, -1.2963839163461934e-09).transl(-1.0693519905063137e-07, 3.817372011163152e-08, 0))
hIsland = hIsland.add(rect(9.144541131413498e-09, 2.196127822472682e-09).transl(2.4089360668709173e-08, 4e-08, 0))
hIsland = hIsland.sub(rect(3.3633027520115608e-09, -3.452172081887185e-09).transl(-5.858459311304668e-09, 4e-08, 0))
hIsland = hIsland.add(rect(6.801277048204273e-09, 3.028758082015183e-09).transl(-9.972760724167751e-08, 4e-08, 0))
hIsland = hIsland.sub(rect(3.784806265325678e-09, -1.2303862527781276e-09).transl(-7.814791498670659e-08, 4e-08, 0))
hIsland = hIsland.add(rect(9.432798298499034e-09, 2.7038232642833587e-09).transl(1.710243907898796e-08, 4e-08, 0))
hIsland = hIsland.sub(rect(7.521930351994163e-09, -1.019854801743431e-09).transl(1.1476678401615135e-07, 8.014790058741793e-09, 0))
hIsland = hIsland.add(rect(6.756431900508436e-09, 1.895753339569062e-09).transl(-4.344984757913184e-08, 4e-08, 0))
hIsland = hIsland.add(rect(7.571972253488454e-09, 2.0359393824973294e-09).transl(5.0214822772959777e-08, 4e-08, 0))
hIsland = hIsland.sub(rect(8.264264447113708e-09, -1.4877307831723637e-09).transl(-1.0946377604015753e-07, 3.420094080539167e-08, 0))
hIsland = hIsland.add(rect(8.386728692138006e-09, 2.0592174166402884e-09).transl(-4.8100172866477173e-08, 4e-08, 0))
hIsland = hIsland.sub(rect(5.091798098074864e-09, -1.7395624664060783e-09).transl(-3.1934789155280743e-08, 4e-08, 0))
hIsland = hIsland.add(rect(2.2664320898067268e-09, 1.537569390098964e-09).transl(-1.0999797044593942e-07, 3.3002515586528674e-08, 0))
hIsland = hIsland.sub(rect(7.603376920991822e-09, -1.0650678030589326e-09).transl(4.288338872864533e-08, 4e-08, 0))
hIsland = hIsland.sub(rect(3.9358806362333105e-09, -1.3477743544772837e-09).transl(5.761726595436072e-08, 4e-08, 0))
hIsland = hIsland.sub(rect(7.0454427687964205e-09, -4.208516059573037e-09).transl(1.847985448925141e-08, 4e-08, 0))
hIsland = hIsland.add(rect(4.516836827532033e-09, 1.8829573584278612e-11).transl(9.133878141996798e-08, 4e-08, 0))
hIsland = hIsland.add(rect(7.49606981185256e-09, 1.2364681984994168e-09).transl(7.024487733472019e-08, 4e-08, 0))
hIsland = hIsland.sub(rect(3.921779521021187e-09, -3.0791890792195907e-09).transl(6.34255706675193e-08, 4e-08, 0))
hIsland = hIsland.sub(rect(6.23161284842577e-09, -2.8431381473144895e-09).transl(-2.0875037039880702e-08, 4e-08, 0))
hIsland = hIsland.add(rect(7.368680051422993e-09, 1.3169308183065035e-09).transl(1.0775447116777654e-07, 3.716200268207916e-08, 0))
hIsland = hIsland.add(rect(5.0709853151067125e-09, 1.1778639562425083e-10).transl(-1.148699770371711e-07, 5.99798042805228e-09, 0))
hIsland = hIsland.sub(rect(4.187629031135766e-09, -3.3443600795272094e-09).transl(3.851724597799159e-08, 4e-08, 0))
hIsland = hIsland.sub(rect(2.8473092661796494e-09, -1.887983022502426e-09).transl(9.936263449181976e-08, 4e-08, 0))
hIsland = hIsland.add(rect(5.538305149199506e-09, 2.4278978469962677e-09).transl(9.739673358856849e-08, 4e-08, 0))
hIsland = hIsland.add(rect(5.587755180913651e-09, 3.2262608736599363e-10).transl(5.8053308625751204e-08, 4e-08, 0))
hIsland = hIsland.sub(rect(9.651852906747394e-09, -2.230121657732211e-09).transl(6.078159106945659e-08, 4e-08, 0))
hIsland = hIsland.add(rect(5.532947521930656e-09, 1.1634997971381973e-09).transl(8.769416322751255e-09, 4e-08, 0))
hIsland = hIsland.sub(rect(4.509389529477694e-09, -1.6500991829028514e-09).transl(-9.127226104240347e-10, 4e-08, 0))
hIsland = hIsland.add(rect(7.3466955031878284e-09, 1.4333343953276027e-09).transl(3.053437001683832e-08, 4e-08, 0))
hIsland = hIsland.add(rect(6.622946804393996e-09, 9.740559983036842e-10).transl(-2.1283521428999758e-08, 4e-08, 0))
hIsland = hIsland.add(rect(2.18783969824519e-09, 4.114867474458692e-10).transl(4.985654566960767e-08, 4e-08, 0))
hIsland = hIsland.add(rect(5.3252350365520154e-09, 4.881571901934324e-11).transl(-4.118079723532556e-08, 4e-08, 0))
hIsland = hIsland.add(rect(8.432006284313598e-09, 2.709548012564633e-09).transl(-4.429951855900869e-08, 4e-08, 0))
hIsland = hIsland.sub(rect(5.9024941834392925e-09, -2.6863232785520154e-09).transl(-5.055989809946577e-08, 4e-08, 0))
hIsland = hIsland.add(rect(8.784462510745951e-09, 1.9888730342604682e-09).transl(-7.573167036660401e-08, 4e-08, 0))
hIsland = hIsland.add(rect(5.237936141651964e-09, 1.2940036293664812e-10).transl(-5.5390113491135294e-08, 4e-08, 0))
hIsland = hIsland.sub(rect(6.555736884654776e-09, -1.087392555579479e-09).transl(-2.2801178828176727e-09, 4e-08, 0))
hIsland = hIsland.sub(rect(4.6390511463297566e-09, -1.022381651549727e-09).transl(-9.10057318334853e-08, 4e-08, 0))
hIsland = hIsland.add(rect(6.851360105636027e-09, 1.8440020478238854e-09).transl(1.1179024766031117e-07, 2.7721934150359866e-08, 0))
hIsland = hIsland.add(rect(7.377805255093238e-09, 1.2013206361038082e-09).transl(-1.0963375552416087e-07, 3.3835280864301065e-08, 0))
hIsland = hIsland.sub(rect(6.696325439310839e-09, -2.01324032208769e-09).transl(-8.702253059478742e-08, 4e-08, 0))
hIsland = hIsland.sub(rect(6.444150440666397e-09, -2.0434655874501907e-09).transl(-2.4463149335054387e-08, 4e-08, 0))
hIsland = hIsland.sub(rect(3.881211120731974e-09, -6.899359474485027e-10).transl(1.0368227806876567e-07, 3.999497506519157e-08, 0))
hIsland = hIsland.add(rect(8.508101450161703e-09, 1.8062352132410412e-09).transl(-5.965063866762306e-08, 4e-08, 0))
hIsland = hIsland.add(rect(9.399233760121975e-09, 1.1641310413708257e-11).transl(-6.647314803076804e-08, 4e-08, 0))
hIsland = hIsland.sub(rect(8.663822849240856e-09, -2.776184348598326e-09).transl(8.846825767048283e-08, 4e-08, 0))
hIsland = hIsland.sub(rect(8.52986247650071e-09, -1.017690763326779e-09).transl(-4.0453618835388974e-08, 4e-08, 0))
hIsland = hIsland.sub(rect(2.9812788327234713e-09, -1.4594391774357115e-09).transl(-7.056352145948115e-08, 4e-08, 0))
hIsland = hIsland.add(rect(5.827098037105908e-09, 8.953296863544493e-10).transl(2.4849368264331637e-08, 4e-08, 0))
hIsland = hIsland.add(rect(9.19490209826476e-09, 3.128128589368666e-09).transl(-2.3554941310030707e-09, 4e-08, 0))
hIsland = hIsland.add(rect(8.894349452721222e-09, 1.1941035962230288e-09).transl(-8.073771887428393e-08, 4e-08, 0))
hIsland = hIsland.add(rect(2.4746173932024285e-09, 8.470797064673372e-10).transl(-6.230388156391292e-08, 4e-08, 0))
hIsland = hIsland.sub(rect(3.6394321085323064e-09, -2.1666665898619525e-09).transl(5.2215017781954006e-08, 4e-08, 0))
hIsland = hIsland.sub(rect(7.27188064477019e-09, -5.895866094101662e-10).transl(9.645295555678162e-08, 4e-08, 0))
hIsland = hIsland.sub(rect(6.273669392023397e-09, -5.586290248288791e-11).transl(2.543938568449573e-08, 4e-08, 0))
hIsland = hIsland.add(rect(7.957383541759971e-09, 4.77780144947623e-09).transl(5.4664182970401196e-09, 4e-08, 0))
hIsland = hIsland.add(rect(9.469098921923273e-09, 2.972497641334996e-09).transl(7.27544939343531e-08, 4e-08, 0))
hIsland = hIsland.add(rect(4.141499578505144e-09, 3.251024275462987e-10).transl(2.9088425002637907e-08, 4e-08, 0))
hIsland = hIsland.sub(rect(8.15722521009275e-09, -2.1291916603008234e-09).transl(-1.0437897845823946e-07, 3.988298906268281e-08, 0))
hIsland = hIsland.sub(rect(2.553093399484583e-09, -2.3168345610618226e-09).transl(1.4212280863429207e-08, 4e-08, 0))
hIsland = hIsland.sub(rect(4.906590084995098e-09, -4.954429446725862e-09).transl(-9.772354328570777e-08, 4e-08, 0))
hIsland = hIsland.sub(rect(5.231459473300835e-09, -1.7981742237055921e-09).transl(4.853276188136116e-08, 4e-08, 0))
hIsland = hIsland.sub(rect(4.063978131198443e-09, -1.7428560678414275e-10).transl(-2.447507962803735e-08, 4e-08, 0))
hIsland = hIsland.sub(rect(7.3935928102004124e-09, -3.3334524216377207e-10).transl(3.2788692867179584e-08, 4e-08, 0))
hIsland = hIsland.add(rect(4.607954465123547e-09, 1.0161174368325088e-10).transl(-6.919877353834208e-08, 4e-08, 0))
hIsland = hIsland.add(rect(5.1428629067526784e-09, 2.4590729924714363e-09).transl(-1.0014859358877496e-07, 4e-08, 0))
hIsland = hIsland.add(rect(5.294340848377396e-09, 1.2910584438011133e-09).transl(4.228659542240739e-08, 4e-08, 0))
hIsland = hIsland.sub(rect(3.145303921013322e-09, -6.99388453566232e-10).transl(-4.902101057557097e-08, 4e-08, 0))
hIsland = hIsland.add(rect(3.2781292682217408e-09, 1.02959004647397e-09).transl(-3.136234646190046e-08, 4e-08, 0))
hIsland = hIsland.add(rect(9.923152420007838e-09, 7.086711752748284e-10).transl(3.9696555717403834e-08, 4e-08, 0))
hIsland = hIsland.add(rect(7.97844116307044e-09, 4.882102309901496e-11).transl(3.542704113762068e-08, 4e-08, 0))
hIsland = hIsland.add(rect(3.0810088883097297e-09, 1.1316646422578277e-09).transl(-4.947302132009974e-09, 4e-08, 0))
hIsland = hIsland.add(rect(4.612713040431083e-09, 4.894133485787463e-09).transl(9.72634803020266e-08, 4e-08, 0))
hIsland = hIsland.sub(rect(7.070459926342257e-09, -8.288747834883497e-10).transl(-9.181048388502184e-08, 4e-08, 0))
hIsland = hIsland.sub(rect(3.507464668339168e-09, -2.3893050661595882e-09).transl(-4.170864795952666e-08, 4e-08, 0))
hIsland = hIsland.add(rect(9.102907714802577e-09, 2.5597738416864127e-09).transl(3.208666646817382e-08, 4e-08, 0))
hIsland = hIsland.add(rect(3.301763227067431e-09, 2.9608106872932886e-09).transl(-6.604887127180839e-08, 4e-08, 0))
hIsland = hIsland.sub(rect(9.617174869576987e-09, -5.417051423213706e-10).transl(8.601671875855618e-08, 4e-08, 0))
hIsland = hIsland.sub(rect(9.72110323901103e-09, -1.253479867429332e-09).transl(5.030147276789629e-08, 4e-08, 0))
hIsland = hIsland.sub(rect(5.094673091035083e-09, -9.281734656823656e-10).transl(2.264856461142323e-08, 4e-08, 0))
hIsland = hIsland.add(rect(4.236105140673972e-09, 9.587673608248866e-10).transl(5.1909449266467704e-08, 4e-08, 0))
hIsland = hIsland.add(rect(8.24830825806993e-09, 2.979284936583715e-10).transl(-1.0506223145479271e-07, 3.962919744407684e-08, 0))
hIsland = hIsland.sub(rect(3.548040140251141e-09, -1.061005285997861e-09).transl(-3.91450992267627e-09, 4e-08, 0))
hIsland = hIsland.sub(rect(8.806505536664017e-09, -1.5785262434079826e-09).transl(1.0540027611052851e-07, 3.94501260717575e-08, 0))
hIsland = hIsland.add(rect(4.244369980467965e-09, 2.464508386620789e-09).transl(-7.022323865384053e-08, 4e-08, 0))
hIsland = hIsland.sub(rect(4.545962791361428e-09, -2.267266905609599e-09).transl(2.862850446522481e-08, 4e-08, 0))
hIsland = hIsland.add(rect(6.20499398387499e-09, 2.0405003726062678e-09).transl(1.6847789582732246e-08, 4e-08, 0))
hIsland = hIsland.add(rect(9.40261997197499e-09, 3.4478247307035576e-09).transl(-5.0311941938184577e-08, 4e-08, 0))
hIsland = hIsland.sub(rect(6.333160006567309e-09, -1.6911018993670535e-10).transl(9.37450551658471e-08, 4e-08, 0))
hIsland = hIsland.add(rect(8.36334938653068e-09, 3.02049296384086e-10).transl(-8.812395796104511e-08, 4e-08, 0))
hIsland = hIsland.add(rect(5.181546553574467e-09, 6.68988281891207e-10).transl(-3.1894665785627503e-08, 4e-08, 0))
hIsland = hIsland.add(rect(6.651644949580322e-09, 4.977435443737659e-10).transl(-7.72386511952745e-08, 4e-08, 0))
hIsland = hIsland.add(rect(5.310261743049134e-09, 4.1923833527388164e-10).transl(-1.4549567040275701e-08, 4e-08, 0))
hIsland = hIsland.sub(rect(2.712349248388332e-09, -3.4430181111861187e-09).transl(9.401423252324066e-08, 4e-08, 0))
hIsland = hIsland.sub(rect(8.674515664307745e-09, -1.1493257708039488e-09).transl(5.526257852379923e-08, 4e-08, 0))
hIsland = hIsland.sub(rect(3.857479251119644e-09, -3.169551920569819e-09).transl(-1.0946593968632896e-09, 4e-08, 0))
hIsland = hIsland.sub(rect(9.21831882449079e-09, -1.0940082519450868e-09).transl(8.57847925968033e-08, 4e-08, 0))
hIsland = hIsland.add(rect(7.936477495664064e-09, 9.515244077580163e-10).transl(7.764043350630665e-08, 4e-08, 0))
hIsland = hIsland.add(rect(2.465623365606767e-09, 3.2196987790604245e-09).transl(2.3283915434593648e-08, 4e-08, 0))
hIsland = hIsland.add(rect(9.4984311566089e-09, 1.0459707044506416e-09).transl(-5.714968424810915e-08, 4e-08, 0))
hIsland = hIsland.sub(rect(7.53127014882125e-09, -1.2915366802524677e-09).transl(-7.633414757714271e-08, 4e-08, 0))
hIsland = hIsland.sub(rect(9.18779511782746e-09, -3.0169384130017167e-09).transl(-1.0898911585169775e-07, 3.514930309770385e-08, 0))
hIsland = hIsland.add(rect(8.162807881646285e-09, 1.1201831661078983e-09).transl(-2.405813253035031e-08, 4e-08, 0))
hIsland = hIsland.add(rect(5.767216824175178e-09, 1.9262510711342247e-09).transl(-4.0065917929100725e-09, 4e-08, 0))
hIsland = hIsland.sub(rect(5.103150962691515e-09, -5.052976870687373e-10).transl(3.5077629602153865e-08, 4e-08, 0))
hIsland = hIsland.sub(rect(3.3016586121786223e-09, -1.0444851604530573e-09).transl(5.271101617126941e-09, 4e-08, 0))
hIsland = hIsland.sub(rect(4.120499126848258e-09, -8.493765806129168e-10).transl(1.0109403843916726e-07, 4e-08, 0))
hIsland = hIsland.add(rect(8.936666604927155e-09, 1.5916171564898596e-09).transl(-9.251872246854353e-10, 4e-08, 0))
hIsland = hIsland.add(rect(2.6752075188182584e-09, 1.1442870589591135e-09).transl(1.0317520661097535e-07, 4e-08, 0))
hIsland = hIsland.sub(rect(6.027366019259277e-09, -1.3525365284041385e-09).transl(1.0487860403973478e-07, 3.971154226869133e-08, 0))
hIsland = hIsland.add(rect(3.015152941808357e-09, 4.3065992923303756e-11).transl(7.098426230938825e-08, 4e-08, 0))
hIsland = hIsland.sub(rect(7.4835545481402e-09, -1.2018333940391711e-10).transl(-6.832505379495224e-08, 4e-08, 0))
hIsland = hIsland.sub(rect(5.735410358483849e-09, -5.15036433958313e-10).transl(9.511887659450103e-08, 4e-08, 0))
hIsland = hIsland.sub(rect(4.112870923486561e-09, -2.1453224937839913e-10).transl(-9.327293977448961e-09, 4e-08, 0))
hIsland = hIsland.sub(rect(7.689093517900142e-09, -1.5415939807296738e-09).transl(1.0424188578727813e-07, 3.991667775116658e-08, 0))
hIsland = hIsland.sub(rect(7.339457952344856e-09, -1.8265689581641383e-09).transl(-6.2214485079566294e-09, 4e-08, 0))
hIsland = hIsland.sub(rect(5.112027847376576e-09, -1.7388628185744281e-09).transl(-3.59368932658645e-08, 4e-08, 0))
hIsland = hIsland.sub(rect(9.272042719837784e-09, -2.3926635433675114e-09).transl(-7.906710910868047e-08, 4e-08, 0))
hIsland = hIsland.sub(rect(4.723036453968163e-09, -1.4792200069256342e-09).transl(2.764472261597364e-08, 4e-08, 0))
hIsland = hIsland.add(rect(6.425957915639513e-09, 2.4264736828385998e-09).transl(-1.692340111983258e-08, 4e-08, 0))
hIsland = hIsland.add(rect(3.019553281808464e-09, 7.928446266729112e-11).transl(5.4682300330697534e-08, 4e-08, 0))
hIsland = hIsland.sub(rect(4.347105611815539e-09, -9.891349638817275e-11).transl(-6.178378968387571e-08, 4e-08, 0))
hIsland = hIsland.sub(rect(5.324751563143084e-09, -1.897568107367325e-09).transl(9.223179069113514e-08, 4e-08, 0))
hIsland = hIsland.add(rect(7.861510571394633e-09, 8.710722711995535e-10).transl(9.433999616502647e-08, 4e-08, 0))
hIsland = hIsland.add(rect(3.9458515249805865e-09, 6.174214929810436e-10).transl(-2.1634692289522256e-08, 4e-08, 0))
hIsland = hIsland.sub(rect(7.931699572809625e-09, -1.466342724269937e-09).transl(-6.332486428189122e-08, 4e-08, 0))
hIsland = hIsland.add(rect(2.3295337115411182e-09, 3.3473561744559992e-09).transl(2.8168584785516907e-08, 4e-08, 0))
hIsland = hIsland.sub(rect(4.791040195017072e-09, -1.4785585048666214e-11).transl(8.037341506877513e-09, 4e-08, 0))
hIsland = hIsland.add(rect(7.405023172271406e-09, 1.1424146911483242e-09).transl(8.917028514932002e-08, 4e-08, 0))
vIsland = hIsland.rotz(pi / 2)
hIslands = hIslands.add(hIsland.transl(-a/2, a, 0))
hIsland = rect(islandLength-2*ellipseConstant, islandWidth)
hIsland = hIsland.add(ellipse(ellipseConstant*2, islandWidth).transl(islandLength/2-ellipseConstant, 0, 0))
hIsland = hIsland.add(ellipse(ellipseConstant*2, islandWidth).transl(-islandLength/2+ellipseConstant, 0, 0))
hIsland = hIsland.sub(rect(3.6737077296156486e-09, -1.3399470010307944e-09).transl(6.019003313274184e-08, -4e-08, 0))
hIsland = hIsland.sub(rect(6.522061475303512e-09, -2.795771170803556e-09).transl(-9.826884315773175e-08, -4e-08, 0))
hIsland = hIsland.add(rect(4.598390063398983e-09, 4.4721417364086756e-09).transl(1.1066251919194308e-07, -3.129435953212799e-08, 0))
hIsland = hIsland.add(rect(6.3408259581096145e-09, 5.738438717315869e-10).transl(2.391097380856393e-08, -4e-08, 0))
hIsland = hIsland.sub(rect(3.905833630625677e-09, -1.3952568126252682e-09).transl(-1.0940637167368799e-07, -3.432124869871458e-08, 0))
hIsland = hIsland.sub(rect(8.331530278857861e-09, -1.0600330026963578e-09).transl(-4.573401758930296e-08, -4e-08, 0))
hIsland = hIsland.add(rect(2.869998508071395e-09, 1.5465496712335218e-10).transl(-2.4259968389731595e-08, -4e-08, 0))
hIsland = hIsland.add(rect(9.54488769033342e-09, 3.246785906466007e-09).transl(5.853029891090802e-09, -4e-08, 0))
hIsland = hIsland.sub(rect(7.861650786494643e-09, -2.290532290647578e-09).transl(7.589049911896359e-08, -4e-08, 0))
hIsland = hIsland.sub(rect(6.073889878800431e-09, -1.1427933865746575e-10).transl(-6.075663033644525e-08, -4e-08, 0))
hIsland = hIsland.add(rect(9.219887873752054e-09, 3.545145945734338e-09).transl(6.343170804846369e-08, -4e-08, 0))
hIsland = hIsland.add(rect(9.293840604281048e-09, 3.7964710669362535e-09).transl(9.351808230541923e-08, -4e-08, 0))
hIsland = hIsland.sub(rect(6.972058460851466e-09, -1.6155774981102688e-09).transl(1.0376238914156473e-08, -4e-08, 0))
hIsland = hIsland.sub(rect(9.469761429710026e-09, -1.1362152770963565e-09).transl(-1.0438063132764825e-07, -3.988254793539973e-08, 0))
hIsland = hIsland.sub(rect(4.693615206259353e-09, -2.5776169852598366e-09).transl(1.4692541094758172e-08, -4e-08, 0))
hIsland = hIsland.add(rect(4.2949617770949494e-09, 3.0692004727521477e-09).transl(2.9237307561068286e-08, -4e-08, 0))
hIsland = hIsland.add(rect(8.265046426978194e-09, 8.648613548639075e-11).transl(3.1395223582998496e-08, -4e-08, 0))
hIsland = hIsland.add(rect(3.4624414236075663e-09, 6.027154953615668e-12).transl(-8.62336862795814e-08, -4e-08, 0))
hIsland = hIsland.sub(rect(2.351344101627089e-09, -3.2224307633360187e-09).transl(-4.9886494479811586e-08, -4e-08, 0))
hIsland = hIsland.sub(rect(3.937318530217869e-09, -2.692730737930656e-09).transl(3.8368070002096386e-09, -4e-08, 0))
hIsland = hIsland.add(rect(5.694845166416642e-09, 4.1339787413462935e-09).transl(-8.140407929010474e-08, -4e-08, 0))
hIsland = hIsland.add(rect(6.553345835780444e-09, 2.3670201471524043e-09).transl(-6.590583689830843e-08, -4e-08, 0))
hIsland = hIsland.add(rect(2.1361040043634817e-09, 1.6119602691203892e-09).transl(1.1086571232908426e-07, -3.071843605919314e-08, 0))
hIsland = hIsland.sub(rect(2.5256681997480026e-09, -2.751262612180576e-09).transl(-1.1238243655616244e-07, -2.5406147138982493e-08, 0))
hIsland = hIsland.add(rect(3.4797988849906498e-09, 1.4478193685863562e-10).transl(2.7457869163313598e-08, -4e-08, 0))
hIsland = hIsland.sub(rect(9.223001997146316e-09, -4.559302459731663e-09).transl(-1.0065121890481228e-07, -4e-08, 0))
hIsland = hIsland.sub(rect(9.149012385603385e-09, -1.2088732505171498e-09).transl(7.711787789045368e-08, -4e-08, 0))
hIsland = hIsland.sub(rect(4.227744943880551e-09, -6.401558156647681e-10).transl(1.1114717607346821e-07, -2.987473747537692e-08, 0))
hIsland = hIsland.add(rect(7.006112155132999e-09, 3.916064566143361e-10).transl(-6.870146524532858e-08, -4e-08, 0))
hIsland = hIsland.sub(rect(5.010755599095121e-09, -1.111293192495037e-09).transl(-1.0553694353895225e-07, -3.93675307500735e-08, 0))
hIsland = hIsland.sub(rect(7.494641464497223e-09, -9.313384156056313e-10).transl(6.411221801218918e-10, -4e-08, 0))
hIsland = hIsland.add(rect(8.058938898375642e-09, 7.330165354567035e-10).transl(1.1032696436203332e-08, -4e-08, 0))
hIsland = hIsland.add(rect(9.254480735564314e-09, 4.1943832892315736e-10).transl(9.107386948692773e-08, -4e-08, 0))
hIsland = hIsland.sub(rect(7.186802305104814e-09, -7.032913573083372e-10).transl(6.227815400160621e-08, -4e-08, 0))
hIsland = hIsland.sub(rect(8.22822389179989e-09, -1.7699185791683304e-09).transl(3.0048534546017644e-08, -4e-08, 0))
hIsland = hIsland.add(rect(6.912112822669732e-09, 2.093914324928644e-09).transl(1.9598672716909804e-08, -4e-08, 0))
hIsland = hIsland.add(rect(3.257944010906183e-09, 6.243541386948939e-10).transl(1.1205828078890914e-08, -4e-08, 0))
hIsland = hIsland.add(rect(3.9574305098206425e-09, 3.8060516124582565e-10).transl(-7.595044563743884e-08, -4e-08, 0))
hIsland = hIsland.add(rect(7.095827642034961e-09, 3.907350326214285e-09).transl(-2.6414829491551183e-08, -4e-08, 0))
hIsland = hIsland.add(rect(4.150995757463284e-09, 4.0934936128752375e-11).transl(3.0579601668875166e-08, -4e-08, 0))
hIsland = hIsland.sub(rect(6.088336691479458e-09, -7.784345384395437e-10).transl(7.69226999018697e-08, -4e-08, 0))
hIsland = hIsland.add(rect(5.939215533323951e-09, 4.850442983231274e-10).transl(7.10134465580561e-08, -4e-08, 0))
hIsland = hIsland.sub(rect(5.583786045925217e-09, -9.79410114202983e-10).transl(-6.250163095415206e-08, -4e-08, 0))
hIsland = hIsland.sub(rect(5.431109985472261e-09, -2.3208387093958073e-09).transl(-8.861864844784714e-08, -4e-08, 0))
hIsland = hIsland.add(rect(6.650140815773013e-09, 1.1748341662918e-09).transl(8.701932119255173e-08, -4e-08, 0))
hIsland = hIsland.sub(rect(2.6960951735732296e-09, -2.9249026751423637e-09).transl(-9.837411725841975e-08, -4e-08, 0))
hIsland = hIsland.sub(rect(8.962748177740473e-09, -2.852328480942957e-09).transl(-3.806256663794472e-08, -4e-08, 0))
hIsland = hIsland.sub(rect(3.345314109077724e-09, -5.34589151899761e-09).transl(9.138365778759444e-08, -4e-08, 0))
hIsland = hIsland.add(rect(9.111179658427142e-09, 3.5871600201166696e-09).transl(6.220244146815546e-08, -4e-08, 0))
hIsland = hIsland.sub(rect(7.651899358834764e-09, -4.62983967541476e-10).transl(3.644030837300878e-08, -4e-08, 0))
hIsland = hIsland.add(rect(9.239898814728048e-09, 3.174914996769984e-10).transl(2.102669502720924e-08, -4e-08, 0))
hIsland = hIsland.sub(rect(6.7746853206340634e-09, -2.2050544109785612e-09).transl(8.064355513205754e-08, -4e-08, 0))
hIsland = hIsland.add(rect(5.005851921742095e-09, 1.9481771297926746e-09).transl(-6.906543762652855e-08, -4e-08, 0))
hIsland = hIsland.sub(rect(9.139990963983863e-09, -1.528918229129349e-09).transl(-9.032613157701783e-09, -4e-08, 0))
hIsland = hIsland.sub(rect(5.138308589575442e-09, -1.6260593555060503e-10).transl(5.5080842731005896e-08, -4e-08, 0))
hIsland = hIsland.add(rect(5.2461126609019135e-09, 1.0072648982556405e-09).transl(1.0614087503854995e-07, -3.893101323721922e-08, 0))
hIsland = hIsland.add(rect(4.681724313416426e-09, 1.011563025418613e-09).transl(-7.936238221308803e-08, -4e-08, 0))
hIsland = hIsland.add(rect(4.348077201833913e-09, 1.299464069904807e-09).transl(-2.81017926757083e-08, -4e-08, 0))
hIsland = hIsland.add(rect(8.322922865981312e-09, 8.542658719515654e-10).transl(1.2198680225904103e-08, -4e-08, 0))
hIsland = hIsland.add(rect(7.806665420471004e-09, 7.570480920784451e-10).transl(-1.98960220215154e-08, -4e-08, 0))
hIsland = hIsland.sub(rect(9.151881996008725e-09, -1.1624009273591965e-10).transl(8.942447999341772e-08, -4e-08, 0))
hIsland = hIsland.add(rect(2.595934884749515e-09, 2.3609045317612943e-09).transl(-3.5776411884530246e-08, -4e-08, 0))
hIsland = hIsland.sub(rect(4.301296482488222e-09, -1.3032369138319033e-09).transl(7.397832957361784e-08, -4e-08, 0))
hIsland = hIsland.sub(rect(5.526076319556656e-09, -2.79836961000246e-09).transl(4.1743599407677786e-08, -4e-08, 0))
hIsland = hIsland.sub(rect(8.97332246621025e-09, -4.077064262304417e-09).transl(-3.572206865328925e-08, -4e-08, 0))
hIsland = hIsland.sub(rect(8.96284552618725e-09, -7.148338736727564e-10).transl(6.921854329094935e-08, -4e-08, 0))
hIsland = hIsland.sub(rect(7.466494792508734e-09, -2.999009585074712e-09).transl(2.1385503031311897e-08, -4e-08, 0))
hIsland = hIsland.sub(rect(3.7144505710746007e-09, -7.887558789785153e-10).transl(-1.9279034944078188e-08, -4e-08, 0))
hIsland = hIsland.sub(rect(6.3312974943437e-09, -3.2115422185850176e-09).transl(-9.267707224080702e-08, -4e-08, 0))
hIsland = hIsland.sub(rect(6.2243880894549225e-09, -8.217810373230988e-10).transl(1.6326339803785452e-08, -4e-08, 0))
hIsland = hIsland.add(rect(8.00335219315296e-09, 2.432467844671012e-09).transl(-7.888386968410207e-08, -4e-08, 0))
hIsland = hIsland.sub(rect(7.82741839302945e-09, -1.3108997981162405e-09).transl(8.098382671537519e-08, -4e-08, 0))
hIsland = hIsland.add(rect(7.528349644889525e-09, 1.8033667300535563e-09).transl(-1.902435410332604e-08, -4e-08, 0))
hIsland = hIsland.sub(rect(4.9758884878799505e-09, -9.697359372470618e-10).transl(-1.0275147010073575e-07, -4e-08, 0))
hIsland = hIsland.add(rect(4.540434414741111e-09, 2.3081885492496264e-09).transl(1.1079687565266899e-07, -3.09165556783223e-08, 0))
hIsland = hIsland.sub(rect(3.799423807344355e-09, -1.6521838512436772e-09).transl(-7.310844946157092e-08, -4e-08, 0))
hIsland = hIsland.sub(rect(6.473993782704345e-09, -4.649102573970938e-10).transl(9.776199061697161e-08, -4e-08, 0))
hIsland = hIsland.sub(rect(2.901928650356071e-09, -3.0589626760627484e-09).transl(8.475264772863585e-08, -4e-08, 0))
hIsland = hIsland.sub(rect(2.2546943273184085e-09, -2.1907876162504314e-09).transl(2.9423819722203734e-09, -4e-08, 0))
hIsland = hIsland.add(rect(4.924975194430476e-09, 2.052670768546219e-09).transl(3.3443565982500305e-08, -4e-08, 0))
hIsland = hIsland.sub(rect(9.474753280258734e-09, -2.9622410834810115e-09).transl(6.739521416049142e-08, -4e-08, 0))
hIsland = hIsland.add(rect(2.0706626272814373e-09, 1.973367250747374e-09).transl(-4.5253112849854795e-08, -4e-08, 0))
hIsland = hIsland.add(rect(2.9072767812789685e-09, 2.435020597531832e-09).transl(-5.412127737998103e-08, -4e-08, 0))
hIsland = hIsland.sub(rect(5.480456673045555e-09, -2.021383781087908e-09).transl(3.7263605927367145e-09, -4e-08, 0))
hIsland = hIsland.sub(rect(4.273019839998372e-09, -4.4311007543482223e-10).transl(-7.499657426831636e-09, -4e-08, 0))
hIsland = hIsland.add(rect(4.370403335840405e-09, 9.905531544006882e-10).transl(-1.0773321688714608e-07, -3.71913561575927e-08, 0))
hIsland = hIsland.add(rect(2.320341049007908e-09, 6.246613195759289e-09).transl(-2.5121912155773412e-08, -4e-08, 0))
hIsland = hIsland.sub(rect(2.4208672176472863e-09, -2.12825462735539e-09).transl(-8.239595296915778e-08, -4e-08, 0))
hIsland = hIsland.sub(rect(6.735691968875925e-09, -2.5992865383438553e-09).transl(-7.383566962148985e-08, -4e-08, 0))
hIsland = hIsland.sub(rect(8.761313583564448e-09, -4.123920924803462e-09).transl(4.1552921663990616e-08, -4e-08, 0))
hIsland = hIsland.add(rect(6.657181429675361e-09, 2.5725609305241474e-09).transl(-4.048109790242064e-08, -4e-08, 0))
hIsland = hIsland.sub(rect(3.1516735739034208e-09, -2.6936852374946247e-10).transl(-1.1380565424790468e-07, -1.7750547228973664e-08, 0))
hIsland = hIsland.add(rect(2.9511378711792444e-09, 1.8552873164726047e-09).transl(3.824480369710548e-08, -4e-08, 0))
hIsland = hIsland.add(rect(6.917933815957e-09, 2.868466545523782e-09).transl(5.647436419759418e-08, -4e-08, 0))
hIsland = hIsland.sub(rect(9.464226536893512e-09, -1.871953594184423e-09).transl(-4.6744556155696623e-08, -4e-08, 0))
hIsland = hIsland.sub(rect(6.991249635579218e-09, -9.110429794859472e-10).transl(-9.34930167872895e-09, -4e-08, 0))
hIsland = hIsland.add(rect(2.3628863753124617e-09, 4.5884134059897013e-10).transl(-2.895505029287446e-08, -4e-08, 0))
hIsland = hIsland.add(rect(2.388500811673561e-09, 2.9422016185196815e-09).transl(2.9649698112257006e-08, -4e-08, 0))
hIsland = hIsland.add(rect(6.771666417352074e-09, 2.9545289701946326e-10).transl(5.591189086792817e-08, -4e-08, 0))
hIsland = hIsland.sub(rect(2.795953955507173e-09, -7.845950323885619e-10).transl(3.999667133303076e-08, -4e-08, 0))
hIsland = hIsland.add(rect(7.156359281615608e-09, 3.804732168381774e-10).transl(-2.6033620070813216e-08, -4e-08, 0))
hIsland = hIsland.add(rect(7.621299895026147e-09, 1.1573651881843071e-09).transl(7.723546329388645e-08, -4e-08, 0))
hIsland = hIsland.sub(rect(3.8615836711380055e-09, -1.0570996743747301e-09).transl(-2.70184234977153e-08, -4e-08, 0))
hIsland = hIsland.add(rect(8.056834885354363e-09, 2.726882311208602e-09).transl(-7.11977738476242e-08, -4e-08, 0))
hIsland = hIsland.sub(rect(8.769642560391696e-09, -1.501242981494072e-09).transl(-2.3855728483875953e-08, -4e-08, 0))
hIsland = hIsland.sub(rect(4.238444919939697e-09, -1.352228356347091e-09).transl(-1.2507639978038341e-08, -4e-08, 0))
hIsland = hIsland.add(rect(7.1938784948013335e-09, 2.007148109039005e-09).transl(-1.016065920426409e-07, -4e-08, 0))
hIsland = hIsland.add(rect(8.895024766090584e-09, 2.105968868242042e-09).transl(1.8255871062190466e-09, -4e-08, 0))
hIsland = hIsland.add(rect(4.883522666095977e-09, 8.704684734703623e-10).transl(-4.588300594224307e-08, -4e-08, 0))
hIsland = hIsland.add(rect(3.4251865920591947e-09, 7.747766772876488e-10).transl(-2.7519370585206436e-08, -4e-08, 0))
hIsland = hIsland.add(rect(8.820636643497924e-09, 1.1348878001683494e-09).transl(3.761261346117236e-08, -4e-08, 0))
hIsland = hIsland.add(rect(2.8756188605292164e-09, 3.878448415315915e-11).transl(9.021523827143293e-09, -4e-08, 0))
hIsland = hIsland.add(rect(5.265882653678362e-09, 7.400124054790112e-10).transl(9.83803933245369e-08, -4e-08, 0))
hIsland = hIsland.add(rect(3.7680016308171554e-09, 1.2341822035477696e-09).transl(-8.263502690463545e-08, -4e-08, 0))
hIsland = hIsland.sub(rect(3.019751457239233e-09, -1.390498643711741e-09).transl(3.912650013272706e-08, -4e-08, 0))
hIsland = hIsland.add(rect(7.76473484285209e-09, 4.695517484463065e-09).transl(-1.3616586305859444e-08, -4e-08, 0))
hIsland = hIsland.sub(rect(2.296181084362658e-09, -1.8107151603280657e-09).transl(-4.2252124471631174e-08, -4e-08, 0))
hIsland = hIsland.sub(rect(5.437450028651245e-09, -6.653590592438694e-10).transl(-3.6201725791870076e-08, -4e-08, 0))
hIsland = hIsland.sub(rect(2.673889445496532e-09, -1.2749807927533545e-09).transl(1.0668709534178627e-07, -3.8433196627890006e-08, 0))
hIsland = hIsland.sub(rect(3.997977633386489e-09, -9.107268989677276e-10).transl(6.764447105334117e-08, -4e-08, 0))
hIsland = hIsland.sub(rect(9.956648159201637e-09, -1.623357442321642e-09).transl(6.911341902828879e-08, -4e-08, 0))
hIsland = hIsland.sub(rect(6.1056757119643936e-09, -9.806103546822628e-10).transl(-6.361981755473104e-08, -4e-08, 0))
hIsland = hIsland.sub(rect(4.773107091296588e-09, -2.2649505269110526e-09).transl(9.986992407118753e-08, -4e-08, 0))
hIsland = hIsland.add(rect(6.408047115555219e-09, 1.229925778630907e-09).transl(3.948505458642515e-08, -4e-08, 0))
hIsland = hIsland.add(rect(9.950380253829449e-09, 9.353891538271396e-11).transl(-5.641190106994708e-08, -4e-08, 0))
hIsland = hIsland.add(rect(6.9481951903037845e-09, 3.9673689772114915e-11).transl(-6.2654379620629e-08, -4e-08, 0))
hIsland = hIsland.sub(rect(3.509950504514911e-09, -1.4244617399837248e-09).transl(3.007768929873872e-08, -4e-08, 0))
hIsland = hIsland.add(rect(5.49184110596388e-09, 1.985459324152932e-09).transl(4.348494746868558e-08, -4e-08, 0))
hIsland = hIsland.add(rect(6.971505836790722e-09, 2.4273360279938938e-09).transl(-1.1386565760293086e-07, -1.732269683359175e-08, 0))
hIsland = hIsland.add(rect(7.025257796155052e-09, 1.945802349995775e-09).transl(-4.824304738820195e-08, -4e-08, 0))
hIsland = hIsland.add(rect(8.391201382784868e-09, 8.186996986457333e-10).transl(3.379100326112218e-08, -4e-08, 0))
hIsland = hIsland.add(rect(2.6733756400734372e-09, 1.6219284957586437e-10).transl(-6.546697002797822e-08, -4e-08, 0))
hIsland = hIsland.add(rect(9.013270571747638e-09, 3.477795147481606e-09).transl(-1.0198672601008644e-07, -4e-08, 0))
hIsland = hIsland.add(rect(4.2923960521429555e-09, 2.63256443477643e-10).transl(1.1349963695493669e-07, -1.9754948121489658e-08, 0))
hIsland = hIsland.sub(rect(2.573183782671752e-09, -4.502725035507621e-09).transl(-1.606493914102435e-08, -4e-08, 0))
hIsland = hIsland.sub(rect(7.419326952484884e-09, -2.505788621448743e-09).transl(8.929034345456238e-08, -4e-08, 0))
hIsland = hIsland.sub(rect(4.4235833602329024e-09, -1.5320726161658764e-10).transl(-9.205126050280851e-08, -4e-08, 0))
hIsland = hIsland.sub(rect(7.803699017312771e-09, -1.8138202939134443e-09).transl(-8.24707183899321e-08, -4e-08, 0))
hIsland = hIsland.sub(rect(5.1166809431793735e-09, -1.0485237692541472e-09).transl(-7.763282729811737e-08, -4e-08, 0))
hIsland = hIsland.sub(rect(4.594894813766878e-09, -1.5057737698640342e-10).transl(4.8201730924425736e-08, -4e-08, 0))
hIsland = hIsland.add(rect(4.109225473447766e-09, 1.040622593405163e-09).transl(-6.770619346807357e-08, -4e-08, 0))
hIsland = hIsland.add(rect(6.7877607990734105e-09, 6.006369755440205e-10).transl(7.124156187738885e-08, -4e-08, 0))
hIsland = hIsland.add(rect(5.224658673674227e-09, 1.5285298509368915e-09).transl(8.730581884378802e-08, -4e-08, 0))
hIsland = hIsland.sub(rect(6.537633771891931e-09, -4.709616545094644e-10).transl(4.056720268365322e-08, -4e-08, 0))
hIsland = hIsland.add(rect(8.806542862451498e-09, 5.23626450800197e-09).transl(2.3669983653932825e-08, -4e-08, 0))
hIsland = hIsland.sub(rect(4.499897366511279e-09, -4.05732580506079e-09).transl(5.5920229530151275e-08, -4e-08, 0))
hIsland = hIsland.add(rect(9.494520339092266e-09, 8.4735047040702e-10).transl(1.2461540277456728e-08, -4e-08, 0))
hIsland = hIsland.sub(rect(6.3944871139598936e-09, -1.2295702855068024e-10).transl(-9.214324743021709e-08, -4e-08, 0))
hIsland = hIsland.add(rect(8.359659404994076e-09, 8.164284131719607e-10).transl(-8.524443678454954e-08, -4e-08, 0))
hIsland = hIsland.add(rect(5.274593318205278e-09, 1.553719725392526e-09).transl(-8.467325257669172e-08, -4e-08, 0))
hIsland = hIsland.add(rect(8.568788995813716e-09, 3.738289391749653e-09).transl(-3.645888994530422e-08, -4e-08, 0))
hIsland = hIsland.add(rect(8.512268512933947e-09, 1.8732109885255684e-09).transl(5.153366950426421e-08, -4e-08, 0))
hIsland = hIsland.sub(rect(3.5139453788387294e-09, -1.583651445734254e-09).transl(3.4671124786394315e-08, -4e-08, 0))
hIsland = hIsland.sub(rect(3.1666820213850246e-09, -8.062472211553511e-10).transl(-1.0842803849594282e-07, -3.614119533499183e-08, 0))
hIsland = hIsland.sub(rect(6.097309981768922e-09, -4.60611434064639e-10).transl(-4.013067339060937e-08, -4e-08, 0))
hIsland = hIsland.add(rect(8.44039253715077e-09, 2.070589420758952e-09).transl(-1.008410553742787e-08, -4e-08, 0))
hIsland = hIsland.sub(rect(9.146646237734188e-09, -1.5297627910650247e-09).transl(-7.562799625310765e-08, -4e-08, 0))
hIsland = hIsland.sub(rect(7.3618368583396235e-09, -7.229286250311189e-10).transl(4.326138245480014e-08, -4e-08, 0))
hIsland = hIsland.sub(rect(8.640726816143771e-09, -2.980818923869887e-09).transl(-7.281878583724196e-08, -4e-08, 0))
hIsland = hIsland.sub(rect(4.073968129805857e-09, -6.447690459504534e-10).transl(-4.376756367300288e-09, -4e-08, 0))
hIsland = hIsland.sub(rect(2.4138473656290353e-09, -5.128447913562103e-09).transl(-5.664120708188823e-08, -4e-08, 0))
hIsland = hIsland.add(rect(6.747368052678943e-09, 4.225950606622174e-09).transl(8.538302142864914e-08, -4e-08, 0))
hIsland = hIsland.sub(rect(3.1802740972215697e-09, -3.561994720612202e-10).transl(2.3920246278618793e-08, -4e-08, 0))
hIsland = hIsland.sub(rect(5.508541388088126e-09, -8.916198089789345e-10).transl(-1.0892980810854563e-07, -3.5260574088398566e-08, 0))
hIsland = hIsland.add(rect(5.134668543113147e-09, 1.0014722271970446e-09).transl(-3.657214328845131e-08, -4e-08, 0))
hIsland = hIsland.sub(rect(5.006655263257972e-09, -1.0466408484155987e-09).transl(-2.01118198079427e-08, -4e-08, 0))
hIsland = hIsland.add(rect(3.946746326397762e-09, 2.5917342860805184e-09).transl(7.944690242536322e-08, -4e-08, 0))
hIsland = hIsland.add(rect(9.699978946478407e-09, 1.5392993601439558e-09).transl(-8.358552204084142e-08, -4e-08, 0))
hIsland = hIsland.sub(rect(8.452107142044301e-09, -3.59938186920387e-10).transl(-1.003500322292024e-07, -4e-08, 0))
hIsland = hIsland.sub(rect(5.899440372473735e-09, -1.7686561594365226e-10).transl(-4.164253019564227e-08, -4e-08, 0))
hIsland = hIsland.sub(rect(2.82006146898188e-09, -5.07331578849188e-09).transl(1.1276123838557737e-07, -2.3713338705264077e-08, 0))
hIsland = hIsland.add(rect(4.003877997644366e-09, 3.257894683000287e-09).transl(-3.885711334382047e-08, -4e-08, 0))
hIsland = hIsland.add(rect(7.380810289478372e-09, 2.884581538551179e-10).transl(3.041761928444208e-08, -4e-08, 0))
hIsland = hIsland.sub(rect(4.793901725604405e-09, -1.1915422515923807e-09).transl(5.115702903629238e-08, -4e-08, 0))
hIsland = hIsland.sub(rect(4.6295143108008734e-09, -5.2004057572225214e-09).transl(-9.234826241205209e-08, -4e-08, 0))
hIsland = hIsland.add(rect(4.767747541207746e-09, 8.807371568073928e-10).transl(-1.078546399403465e-07, -3.702136281908394e-08, 0))
hIsland = hIsland.sub(rect(6.8104010404365e-09, -7.824725038138505e-10).transl(3.968945707445239e-09, -4e-08, 0))
hIsland = hIsland.add(rect(4.548607607673766e-09, 6.178608091352863e-10).transl(3.9756193379922005e-08, -4e-08, 0))
hIsland = hIsland.add(rect(3.2647730195502957e-09, 5.90837627578555e-10).transl(3.382486243783996e-08, -4e-08, 0))
hIsland = hIsland.add(rect(7.769300930037881e-09, 2.670356492495285e-09).transl(-7.86988103710308e-08, -4e-08, 0))
hIsland = hIsland.sub(rect(2.4804489846960963e-09, -1.9464070795732206e-09).transl(-3.5822642872483827e-08, -4e-08, 0))
hIsland = hIsland.sub(rect(9.24534968314622e-09, -2.829291324046638e-09).transl(3.253415024462532e-08, -4e-08, 0))
hIsland = hIsland.sub(rect(3.744268863619814e-09, -2.5752112657449605e-09).transl(-2.740054443191054e-08, -4e-08, 0))
hIsland = hIsland.add(rect(5.867092565549108e-09, 1.0113586388341496e-09).transl(4.6460715433331554e-08, -4e-08, 0))
hIsland = hIsland.add(rect(6.114086087930378e-09, 2.000229008472024e-09).transl(-2.9757572407853078e-08, -4e-08, 0))
hIsland = hIsland.sub(rect(6.434645390324248e-09, -5.7878396338835095e-09).transl(-3.9283228190521375e-08, -4e-08, 0))
hIsland = hIsland.add(rect(3.449661666862346e-09, 2.2282774938070333e-09).transl(1.0056814980152739e-07, -4e-08, 0))
hIsland = hIsland.add(rect(9.191778483549875e-09, 3.3644518555890497e-10).transl(-9.151767589081919e-08, -4e-08, 0))
hIsland = hIsland.add(rect(4.575953470755061e-09, 1.915003529240757e-09).transl(9.178003504136542e-08, -4e-08, 0))
hIsland = hIsland.add(rect(8.927230828840425e-09, 1.947875781351213e-09).transl(9.525836703573913e-08, -4e-08, 0))
hIsland = hIsland.sub(rect(2.1184681168128263e-09, -1.7023812767428427e-09).transl(-5.9410754429532634e-08, -4e-08, 0))
hIsland = hIsland.sub(rect(4.3352565090323676e-09, -3.8303039257802215e-09).transl(-4.4130479505561874e-08, -4e-08, 0))
hIsland = hIsland.sub(rect(8.719407312480603e-09, -1.3137512059478855e-09).transl(6.1668605201174e-08, -4e-08, 0))
hIsland = hIsland.add(rect(7.309939725183807e-09, 2.118872131530925e-09).transl(9.430599706855992e-08, -4e-08, 0))
hIsland = hIsland.add(rect(3.740836086944435e-09, 3.419789493026585e-10).transl(4.466813624758501e-08, -4e-08, 0))
hIsland = hIsland.sub(rect(6.080724683920007e-09, -1.8992561917534592e-09).transl(-9.843300543110792e-08, -4e-08, 0))
hIsland = hIsland.sub(rect(2.2131267916688035e-09, -6.397715520783106e-10).transl(-1.2941353737867175e-08, -4e-08, 0))
hIsland = hIsland.add(rect(9.099861018472757e-09, 3.022445787174682e-10).transl(-3.826615286646334e-08, -4e-08, 0))
hIsland = hIsland.sub(rect(9.143676348391151e-09, -1.1232998682709883e-09).transl(1.5275913125695334e-08, -4e-08, 0))
hIsland = hIsland.add(rect(9.78218186925922e-09, 2.7574885335170674e-10).transl(-6.097791790697273e-08, -4e-08, 0))
hIsland = hIsland.sub(rect(5.969246745595086e-09, -4.989561755216684e-10).transl(-3.994992734847998e-08, 4e-08, 0))
hIsland = hIsland.sub(rect(7.080657976811582e-09, -1.4331266435217253e-09).transl(1.0574169511929702e-07, 3.923268619007834e-08, 0))
hIsland = hIsland.sub(rect(8.115306125926794e-09, -1.051978101948396e-09).transl(9.212910925102329e-08, 4e-08, 0))
hIsland = hIsland.sub(rect(8.851327276822414e-09, -3.0373068299669346e-09).transl(6.406189641565966e-08, 4e-08, 0))
hIsland = hIsland.sub(rect(8.901380166043333e-09, -7.84137049348547e-11).transl(3.11141114319962e-08, 4e-08, 0))
hIsland = hIsland.sub(rect(9.21698514104336e-09, -2.00128482829064e-09).transl(1.1716511558662405e-08, 4e-08, 0))
hIsland = hIsland.add(rect(4.151709649807548e-09, 2.608686171901005e-09).transl(-1.0635160299584225e-07, 3.8750754764678516e-08, 0))
hIsland = hIsland.add(rect(3.3603769483789735e-09, 8.757256706604094e-10).transl(2.5016473755591227e-08, 4e-08, 0))
hIsland = hIsland.sub(rect(7.651190356391076e-09, -2.8416603031616373e-09).transl(5.8366333347363975e-08, 4e-08, 0))
hIsland = hIsland.add(rect(7.906416422528782e-09, 1.9066818235631464e-09).transl(1.1390691825746097e-07, 1.7020766547158332e-08, 0))
hIsland = hIsland.sub(rect(8.72631693605508e-09, -3.4435490734140114e-10).transl(1.3558008900033649e-08, 4e-08, 0))
hIsland = hIsland.add(rect(5.5763295887634725e-09, 8.954571668856919e-10).transl(-1.2375757940870827e-08, 4e-08, 0))
hIsland = hIsland.add(rect(8.923480895261116e-09, 1.1803298678555874e-09).transl(-7.906755816398573e-08, 4e-08, 0))
hIsland = hIsland.add(rect(9.874516972861844e-09, 2.0496884280597755e-10).transl(-8.444167621342072e-08, 4e-08, 0))
hIsland = hIsland.add(rect(6.906947570294584e-09, 2.0540136693622165e-09).transl(-5.207425130032034e-08, 4e-08, 0))
hIsland = hIsland.sub(rect(4.695410387312021e-09, -3.427730833183989e-09).transl(-5.4275454720432604e-09, 4e-08, 0))
hIsland = hIsland.add(rect(2.5807561287544314e-09, 2.0791030538256517e-09).transl(-7.51053973707278e-08, 4e-08, 0))
hIsland = hIsland.sub(rect(7.207437401220112e-09, -2.390665605432689e-09).transl(-1.3723853609375203e-08, 4e-08, 0))
hIsland = hIsland.add(rect(5.130678968154503e-09, 2.6310000994912626e-09).transl(-1.0622080504425035e-07, 3.886436613978403e-08, 0))
hIsland = hIsland.add(rect(8.914123459175124e-09, 5.662124032117314e-10).transl(1.101283439430708e-07, 3.268733595853782e-08, 0))
hIsland = hIsland.add(rect(8.113211877156118e-09, 4.08959103775757e-11).transl(-9.008279029666242e-08, 4e-08, 0))
hIsland = hIsland.sub(rect(2.410724645983277e-09, -1.790258111755251e-09).transl(-3.384805890176975e-08, 4e-08, 0))
hIsland = hIsland.add(rect(6.578772198005226e-09, 3.622036691143438e-09).transl(-4.5747097350089914e-08, 4e-08, 0))
hIsland = hIsland.sub(rect(7.50921761759534e-09, -3.5148264028494263e-09).transl(5.41381972914327e-08, 4e-08, 0))
hIsland = hIsland.sub(rect(8.260791658121925e-09, -8.537255397485642e-10).transl(-6.523736934778819e-09, 4e-08, 0))
hIsland = hIsland.sub(rect(9.195323968730596e-09, -1.6100048736829146e-09).transl(1.1335738273856065e-07, 2.0601761605967908e-08, 0))
hIsland = hIsland.sub(rect(2.538481643375467e-09, -1.4888014400329614e-09).transl(2.4913226887985646e-08, 4e-08, 0))
hIsland = hIsland.add(rect(8.7995819757942e-09, 1.997046276904413e-09).transl(-7.818052830856813e-08, 4e-08, 0))
hIsland = hIsland.sub(rect(6.122631352599659e-09, -2.7601698356738765e-10).transl(-7.778447823032675e-08, 4e-08, 0))
hIsland = hIsland.sub(rect(8.738428575943035e-09, -2.8794620930835456e-09).transl(-8.629487688279421e-08, 4e-08, 0))
hIsland = hIsland.add(rect(7.0031584631505264e-09, 1.606272597553961e-09).transl(2.1697384868085106e-08, 4e-08, 0))
hIsland = hIsland.sub(rect(7.713105643565727e-09, -2.6274667437444805e-10).transl(3.145444484647984e-08, 4e-08, 0))
hIsland = hIsland.add(rect(2.8728412206427452e-09, 7.236705034855014e-10).transl(-4.369206827441849e-08, 4e-08, 0))
hIsland = hIsland.add(rect(9.254991308290404e-09, 1.2610378683231263e-09).transl(-1.1098557444250661e-07, 3.0365869860153187e-08, 0))
hIsland = hIsland.add(rect(4.133066519588094e-09, 6.26964398584904e-10).transl(-4.1998117684832415e-09, 4e-08, 0))
hIsland = hIsland.sub(rect(8.809722043383803e-09, -3.303716264932564e-09).transl(-8.015103986470326e-08, 4e-08, 0))
hIsland = hIsland.add(rect(8.712344242991109e-09, 3.3411857039232577e-09).transl(-4.7512169300905834e-08, 4e-08, 0))
hIsland = hIsland.add(rect(7.183110848414184e-09, 4.882323396047826e-10).transl(7.772909609132556e-08, 4e-08, 0))
hIsland = hIsland.sub(rect(3.4697587083060554e-09, -1.1044774173819884e-09).transl(4.19004082281263e-08, 4e-08, 0))
hIsland = hIsland.add(rect(6.829887930954636e-09, 1.5888741172553114e-09).transl(-7.8440966848411e-08, 4e-08, 0))
hIsland = hIsland.sub(rect(4.562110053191887e-09, -1.9720317832128075e-09).transl(1.0539246850351741e-07, 3.945466645451155e-08, 0))
hIsland = hIsland.sub(rect(2.8209573347702402e-09, -1.3871071739820288e-10).transl(-1.9614602058807188e-08, 4e-08, 0))
hIsland = hIsland.add(rect(6.90338024037394e-09, 9.41427541200307e-10).transl(1.771423711333463e-08, 4e-08, 0))
hIsland = hIsland.add(rect(8.460371843539257e-09, 1.3522754601299681e-09).transl(-3.7840958699995606e-08, 4e-08, 0))
hIsland = hIsland.add(rect(8.846792429554536e-09, 3.2468346632622466e-10).transl(-4.1223137959867416e-08, 4e-08, 0))
hIsland = hIsland.sub(rect(6.743770873215205e-09, -2.8629167355662497e-09).transl(1.109863558185277e-07, 3.0363539284951097e-08, 0))
hIsland = hIsland.add(rect(7.645896577898534e-09, 3.3786564652799205e-10).transl(-6.760426573911473e-08, 4e-08, 0))
hIsland = hIsland.add(rect(2.6810072102837037e-09, 4.266795735493939e-10).transl(2.4293271971679558e-08, 4e-08, 0))
hIsland = hIsland.sub(rect(5.386305547648139e-09, -1.3296851819467395e-10).transl(-3.172032555012812e-08, 4e-08, 0))
hIsland = hIsland.add(rect(9.574701416860822e-09, 1.624451948518535e-10).transl(1.1049898203119173e-08, 4e-08, 0))
hIsland = hIsland.add(rect(4.285604034121057e-09, 1.3630961407037323e-09).transl(-4.019610766741996e-08, 4e-08, 0))
hIsland = hIsland.add(rect(5.908334437072202e-09, 8.516813093542358e-10).transl(-9.392324101123663e-08, 4e-08, 0))
hIsland = hIsland.add(rect(6.768416901103511e-09, 3.08552565566925e-10).transl(-1.0473781031138181e-07, 3.976761618306561e-08, 0))
hIsland = hIsland.add(rect(3.4632035138562663e-09, 1.6895240353106546e-10).transl(1.0950318493132334e-07, 3.411742572219517e-08, 0))
hIsland = hIsland.add(rect(6.390083501271365e-09, 1.2759841619841828e-09).transl(6.39341632395913e-08, 4e-08, 0))
hIsland = hIsland.sub(rect(7.0903429822755745e-09, -1.3048820832555868e-09).transl(4.880971720366135e-08, 4e-08, 0))
hIsland = hIsland.sub(rect(2.8966480157317962e-09, -1.733954169111975e-09).transl(9.70276677418018e-08, 4e-08, 0))
hIsland = hIsland.sub(rect(2.6024922489681944e-09, -2.5377618702688746e-09).transl(-8.512801627300363e-08, 4e-08, 0))
hIsland = hIsland.sub(rect(2.124894720853873e-09, -1.1260582041858765e-09).transl(2.892232844055962e-08, 4e-08, 0))
hIsland = hIsland.sub(rect(5.490615133054721e-09, -1.487962597394757e-10).transl(-1.6886248921042077e-08, 4e-08, 0))
hIsland = hIsland.add(rect(9.141259111465129e-09, 7.058001940768836e-10).transl(-1.0024021451296872e-07, 4e-08, 0))
[...]
hIsland = hIsland.add(rect(5.991492371057177e-09, 3.9807969861888613e-11).transl(-4.722902869107927e-08, 4e-08, 0))
hIsland = hIsland.sub(rect(7.808711639830088e-09, -2.4397596164682397e-09).transl(-2.018968834064783e-09, 4e-08, 0))
hIsland = hIsland.sub(rect(4.2993205080891495e-09, -9.10210361930515e-10).transl(5.993695844828726e-08, 4e-08, 0))
hIsland = hIsland.sub(rect(4.561666319096978e-09, -3.1495014408405516e-10).transl(-1.7433713931686386e-08, 4e-08, 0))
hIsland = hIsland.add(rect(6.10040052829395e-09, 5.955151921463638e-10).transl(6.013416854476252e-08, 4e-08, 0))
hIsland = hIsland.add(rect(6.2229057559564054e-09, 1.9231599026337354e-09).transl(-7.341954071735732e-08, 4e-08, 0))
hIsland = hIsland.add(rect(6.021438951222309e-09, 5.73170222431871e-10).transl(-1.0952283353518164e-07, 3.407550405792128e-08, 0))
hIsland = hIsland.add(rect(9.085018815070289e-09, 1.124486380252298e-09).transl(-7.344559762355344e-08, 4e-08, 0))
hIsland = hIsland.add(rect(4.716464650788194e-09, 1.6713400393889366e-09).transl(-4.208164708979831e-09, 4e-08, 0))
hIsland = hIsland.sub(rect(7.673128337604436e-09, -1.0077452854668741e-09).transl(-1.1494482160190028e-07, 3.9137135668604034e-09, 0))
hIsland = hIsland.add(rect(2.2649909255608362e-09, 1.247676284730584e-09).transl(-9.895480392306714e-08, 4e-08, 0))
hIsland = hIsland.add(rect(3.6255039848648674e-09, 4.394146201777675e-10).transl(1.075864889274962e-07, 3.7389380455330284e-08, 0))
hIsland = hIsland.sub(rect(2.3335424500435764e-09, -1.3730815758974842e-09).transl(-3.649709165320114e-08, 4e-08, 0))
hIsland = hIsland.sub(rect(3.0121509198793625e-09, -4.970134721364532e-10).transl(4.88812515807492e-08, 4e-08, 0))
hIsland = hIsland.sub(rect(6.195540531459097e-09, -2.063537621422827e-09).transl(-4.925347200307366e-08, 4e-08, 0))
hIsland = hIsland.add(rect(7.774282868410675e-09, 3.1347854536597356e-09).transl(1.0082073154096781e-07, 4e-08, 0))
hIsland = hIsland.sub(rect(7.567156080366373e-09, -4.3510202778305124e-10).transl(9.207242038752098e-08, 4e-08, 0))
hIsland = hIsland.add(rect(2.9621355565681107e-09, 1.2454863221965042e-09).transl(-4.149353986379877e-08, 4e-08, 0))
hIsland = hIsland.sub(rect(4.489595354676669e-09, -2.985405609303951e-10).transl(-6.586680395421127e-09, 4e-08, 0))
hIsland = hIsland.sub(rect(6.017672016129363e-09, -4.32715471123753e-09).transl(1.0004344278315317e-07, 4e-08, 0))
hIsland = hIsland.add(rect(2.454265950382771e-09, 2.5608147535686117e-09).transl(-5.540596617947116e-10, 4e-08, 0))
hIsland = hIsland.add(rect(7.391619822879603e-09, 3.7614288204909834e-09).transl(-4.43718240696929e-08, 4e-08, 0))
hIsland = hIsland.add(rect(2.385126073828964e-09, 3.4737870337354158e-09).transl(-1.1437730261369786e-07, 1.2983881401861172e-08, 0))
hIsland = hIsland.add(rect(4.223042649857629e-09, 2.6302002969453116e-10).transl(-7.599742873216822e-08, 4e-08, 0))
hIsland = hIsland.sub(rect(2.5227973707162822e-09, -3.40768796321121e-09).transl(6.632192910653637e-08, 4e-08, 0))
hIsland = hIsland.add(rect(5.505219821874571e-09, 7.286465141784007e-10).transl(2.54743323927526e-08, 4e-08, 0))
hIsland = hIsland.sub(rect(8.909835065701426e-09, -1.7948687927212793e-09).transl(-9.870809381232898e-08, 4e-08, 0))
hIsland = hIsland.add(rect(2.729464827570089e-09, 2.1640808623308262e-10).transl(-9.535288227769295e-08, 4e-08, 0))
hIsland = hIsland.add(rect(6.409992694029815e-09, 9.649466483378066e-11).transl(-9.634249349630775e-08, 4e-08, 0))
hIsland = hIsland.sub(rect(3.4806318688288773e-09, -2.738046120826816e-09).transl(-3.772805650356672e-08, 4e-08, 0))
hIsland = hIsland.sub(rect(5.0483178608628695e-09, -6.134033162076017e-09).transl(-5.138645969137388e-08, 4e-08, 0))
hIsland = hIsland.sub(rect(3.4142317305272443e-09, -3.226184107425613e-09).transl(1.3254927163242646e-08, 4e-08, 0))
hIsland = hIsland.sub(rect(4.864118347339024e-09, -3.020415992019424e-11).transl(9.817576217316101e-08, 4e-08, 0))
hIsland = hIsland.sub(rect(2.772486182164249e-09, -1.5490119732355057e-09).transl(-7.0464525864402e-08, 4e-08, 0))
hIsland = hIsland.sub(rect(6.38783364511832e-09, -3.697006838474242e-10).transl(-1.4918275856273832e-08, 4e-08, 0))
hIsland = hIsland.add(rect(3.8877483830856916e-09, 1.080401228153077e-09).transl(1.1252165505124282e-07, 2.4805570479063864e-08, 0))
hIsland = hIsland.sub(rect(2.483452994848688e-09, -1.5053267285012022e-09).transl(1.727653758615783e-08, 4e-08, 0))
hIsland = hIsland.add(rect(5.668922280219514e-09, 1.0475456876515747e-09).transl(2.045174810077719e-08, 4e-08, 0))
hIsland = hIsland.sub(rect(2.9179133634408823e-09, -3.86193572820807e-10).transl(2.3322780919130803e-08, 4e-08, 0))
hIsland = hIsland.sub(rect(8.103472667251197e-09, -1.285377321482095e-09).transl(-2.8267014831369887e-08, 4e-08, 0))
hIsland = hIsland.sub(rect(8.377224651294515e-09, -1.0527295170779639e-09).transl(-7.127883097244151e-08, 4e-08, 0))
hIsland = hIsland.add(rect(7.506916595613563e-09, 2.0539009505483368e-09).transl(-8.188248512465357e-08, 4e-08, 0))
hIsland = hIsland.sub(rect(5.081722357196037e-09, -1.2253262366729031e-09).transl(-2.9219016815659307e-08, 4e-08, 0))
hIsland = hIsland.sub(rect(9.165436850252584e-09, -9.5175914313713e-10).transl(1.0679853706443037e-08, 4e-08, 0))
hIsland = hIsland.sub(rect(6.612168181102407e-09, -1.1171211011736602e-09).transl(-6.451564864704188e-08, 4e-08, 0))
hIsland = hIsland.sub(rect(9.695735431303492e-09, -1.3039495311384317e-09).transl(9.22447745339253e-09, 4e-08, 0))
hIsland = hIsland.add(rect(8.704261844648485e-09, 3.1615122726117675e-09).transl(-1.9872525828840247e-08, 4e-08, 0))
hIsland = hIsland.sub(rect(4.851967948239777e-09, -6.355311174422035e-10).transl(7.42372727195122e-09, 4e-08, 0))
hIsland = hIsland.add(rect(3.2400944100547582e-09, 2.599183574844996e-09).transl(-3.435589559022145e-08, 4e-08, 0))
hIsland = hIsland.add(rect(5.087829856793736e-09, 1.3605161312915928e-09).transl(-2.5556060953835583e-08, 4e-08, 0))
hIsland = hIsland.add(rect(6.3271289021336685e-09, 2.5887749970965004e-09).transl(9.077871794121314e-08, 4e-08, 0))
hIsland = hIsland.sub(rect(9.721059779865652e-09, -1.1651129572399833e-09).transl(-4.5127107697479906e-08, 4e-08, 0))
hIsland = hIsland.sub(rect(5.7186225192936456e-09, -1.999958538304304e-09).transl(1.3889776033880665e-08, 4e-08, 0))
hIsland = hIsland.sub(rect(8.802865107946069e-09, -2.0936513486427374e-10).transl(5.269984599552874e-08, 4e-08, 0))
hIsland = hIsland.sub(rect(3.0994409977104457e-09, -1.8799949803220134e-10).transl(8.917014142359793e-08, 4e-08, 0))
hIsland = hIsland.add(rect(6.771326670899866e-09, 5.111820831781399e-09).transl(2.1393478621062634e-08, 4e-08, 0))
hIsland = hIsland.add(rect(5.681487019307865e-09, 2.0711484627301084e-09).transl(1.0575204775572872e-07, 3.9225512458031935e-08, 0))
hIsland = hIsland.add(rect(2.1659138659336865e-09, 2.442153142484571e-09).transl(3.4109857382680793e-08, 4e-08, 0))
hIsland = hIsland.sub(rect(3.2180999554146075e-09, -2.1912587444000242e-09).transl(2.1316180506039236e-08, 4e-08, 0))
hIsland = hIsland.add(rect(2.3677588353264278e-09, 2.350865621979139e-09).transl(2.9433390309378e-09, 4e-08, 0))
hIsland = hIsland.add(rect(3.755755200570113e-09, 1.7224079023470123e-09).transl(1.4524251886937876e-08, 4e-08, 0))
hIsland = hIsland.add(rect(7.03764251514735e-09, 1.270677354203419e-09).transl(-3.447331635421764e-08, 4e-08, 0))
hIsland = hIsland.sub(rect(5.435231653672998e-09, -3.643701535248034e-09).transl(-9.249168365477518e-09, 4e-08, 0))
hIsland = hIsland.sub(rect(6.719931607509164e-09, -3.0970821442221497e-09).transl(-8.836342154336031e-08, 4e-08, 0))
hIsland = hIsland.add(rect(2.2672810813120697e-09, 2.091610499194073e-10).transl(4.72866448599012e-08, 4e-08, 0))
hIsland = hIsland.add(rect(6.033437058465029e-09, 3.280376727460337e-10).transl(-1.306598606732318e-09, 4e-08, 0))
hIsland = hIsland.sub(rect(7.672500994149337e-09, -1.499908814121657e-09).transl(6.09830696210423e-08, 4e-08, 0))
hIsland = hIsland.sub(rect(8.846168073736125e-09, -3.7620841315303775e-09).transl(6.32837262457519e-08, 4e-08, 0))
hIsland = hIsland.sub(rect(4.93957932267648e-09, -1.6104387020538414e-09).transl(1.0918438594039588e-07, 3.4771782050778254e-08, 0))
hIsland = hIsland.add(rect(5.754187223110777e-09, 1.176108016799912e-09).transl(1.358818739771338e-08, 4e-08, 0))
hIsland = hIsland.sub(rect(2.2436874105701466e-09, -2.819454015831815e-09).transl(-6.361712309045907e-08, 4e-08, 0))
hIsland = hIsland.sub(rect(3.9126072318419344e-09, -1.081207141289244e-09).transl(6.796167251877635e-08, 4e-08, 0))
hIsland = hIsland.sub(rect(2.251541793451099e-09, -1.10743189632475e-09).transl(-3.6118102997830414e-08, 4e-08, 0))
hIsland = hIsland.sub(rect(7.120156282901534e-09, -5.339883658876373e-10).transl(-4.283269832316083e-08, 4e-08, 0))
hIsland = hIsland.sub(rect(6.250611340267731e-09, -5.902205518748112e-10).transl(8.374014194163508e-08, 4e-08, 0))
hIsland = hIsland.add(rect(8.257248792974733e-09, 1.4579032996374462e-09).transl(-9.231118070480726e-08, 4e-08, 0))
hIsland = hIsland.add(rect(6.515151413365898e-09, 8.654805624348631e-10).transl(8.745629039368919e-08, 4e-08, 0))
hIsland = hIsland.sub(rect(2.9107891771505205e-09, -3.1433069071086833e-10).transl(1.060958172455192e-07, 3.8967658785046135e-08, 0))
hIsland = hIsland.sub(rect(6.4356804551306676e-09, -1.901853606244004e-09).transl(-2.7411726734240683e-08, 4e-08, 0))
hIsland = hIsland.add(rect(3.6475541076437e-09, 1.5651357575710372e-09).transl(3.481539346865606e-08, 4e-08, 0))
hIsland = hIsland.sub(rect(2.8754215408838315e-09, -2.0178787394649513e-09).transl(-3.3862528666308e-08, 4e-08, 0))
hIsland = hIsland.sub(rect(9.010729407245517e-09, -6.709150804422072e-10).transl(-2.147295087735142e-08, 4e-08, 0))
hIsland = hIsland.sub(rect(3.0130790206619375e-09, -8.096010775122909e-10).transl(-2.8171299188097186e-08, 4e-08, 0))
hIsland = hIsland.sub(rect(3.623104985929449e-09, -1.7707131065730104e-10).transl(-1.2923033551746823e-08, 4e-08, 0))
hIsland = hIsland.sub(rect(5.931630297430059e-09, -1.4699734976577687e-10).transl(8.056121584654989e-08, 4e-08, 0))
hIsland = hIsland.sub(rect(9.87064104823976e-09, -1.5331415528764597e-12).transl(-1.0994054143703108e-07, 3.313843126099137e-08, 0))
hIsland = hIsland.sub(rect(8.533229016989077e-09, -3.543056917236948e-11).transl(5.384266817932842e-09, 4e-08, 0))
hIsland = hIsland.add(rect(7.544006294687689e-09, 3.610237736877762e-09).transl(-9.345687905780294e-08, 4e-08, 0))
hIsland = hIsland.sub(rect(8.619162050144772e-09, -1.5518624691698145e-09).transl(1.133489144012547e-07, 2.0650703139722295e-08, 0))
hIsland = hIsland.sub(rect(9.774697286016668e-09, -1.2754816899693276e-09).transl(7.955368249934277e-08, 4e-08, 0))
hIsland = hIsland.add(rect(3.798245670997818e-09, 4.889690838859886e-10).transl(-1.2696686660277254e-08, 4e-08, 0))
hIsland = hIsland.add(rect(4.789434847898479e-09, 6.041500266106103e-10).transl(7.445517979082588e-08, 4e-08, 0))
hIsland = hIsland.add(rect(6.1993339043678895e-09, 3.5919067489406207e-09).transl(1.0147156842384702e-07, 4e-08, 0))
hIsland = hIsland.add(rect(9.6984347283451e-09, 2.1730492843524084e-11).transl(-1.0805253486359543e-08, 4e-08, 0))
hIsland = hIsland.sub(rect(6.701754824321906e-09, -9.902359221102681e-10).transl(-2.9466259513133784e-08, 4e-08, 0))
hIsland = hIsland.sub(rect(3.806916281756508e-09, -1.991129363797515e-09).transl(-1.0154001043239968e-07, 4e-08, 0))
hIsland = hIsland.sub(rect(3.0748444444744933e-09, -5.282051407994835e-10).transl(3.6468704216882434e-08, 4e-08, 0))
hIsland = hIsland.add(rect(9.727612239499079e-09, 2.3022821486309573e-09).transl(-1.2767241372330231e-08, 4e-08, 0))
hIsland = hIsland.add(rect(8.497825456900803e-09, 2.887602525634776e-10).transl(5.845268996945675e-08, 4e-08, 0))
hIsland = hIsland.add(rect(3.2223755474344514e-09, 3.845017242081264e-09).transl(7.131898956765021e-09, 4e-08, 0))
hIsland = hIsland.sub(rect(5.184561836679871e-09, -1.2202534017924506e-09).transl(-4.7833313842302254e-08, 4e-08, 0))
hIsland = hIsland.sub(rect(8.242744509715055e-09, -1.0253811334649881e-09).transl(-6.308174018281903e-08, 4e-08, 0))
hIsland = hIsland.sub(rect(3.771107895688086e-09, -2.717449907895444e-09).transl(9.48753829767883e-08, 4e-08, 0))
hIsland = hIsland.sub(rect(5.390829379742364e-09, -1.7438736375793614e-11).transl(-1.219817482893287e-08, 4e-08, 0))
hIsland = hIsland.add(rect(2.0608422549071125e-09, 1.2627319211519066e-09).transl(-6.241254617311727e-08, 4e-08, 0))
hIsland = hIsland.add(rect(4.141124939737778e-09, 4.2407917161743275e-10).transl(1.6119381460293658e-08, 4e-08, 0))
hIsland = hIsland.sub(rect(9.81129075992519e-09, -1.647696777764394e-09).transl(1.5813650818414284e-09, 4e-08, 0))
hIsland = hIsland.sub(rect(6.592059325370275e-09, -2.5456417291434817e-09).transl(2.2768059353725708e-08, 4e-08, 0))
hIsland = hIsland.add(rect(9.102414041534638e-09, 2.8218309779399437e-09).transl(2.3487470463533263e-08, 4e-08, 0))
hIsland = hIsland.add(rect(6.320798170671347e-09, 1.5356298511939374e-09).transl(-3.150998373427783e-08, 4e-08, 0))
hIsland = hIsland.sub(rect(4.504118296719007e-09, -9.471199824128394e-10).transl(5.87909628994644e-08, 4e-08, 0))
hIsland = hIsland.sub(rect(6.717290290653755e-09, -3.3357863247317377e-09).transl(1.1126681561428013e-07, 2.9498969299483426e-08, 0))
hIsland = hIsland.sub(rect(8.14232350664513e-09, -1.0943233253556366e-09).transl(2.2182702936527866e-08, 4e-08, 0))
hIsland = hIsland.add(rect(5.568986686399487e-09, 1.0793443064878322e-09).transl(-1.7772589166414103e-08, 4e-08, 0))
hIsland = hIsland.sub(rect(3.854339978040979e-09, -5.3507263743181e-09).transl(-1.0419796439584235e-07, 3.9926260303248846e-08, 0))
hIsland = hIsland.sub(rect(5.251906019509425e-09, -1.9964366098362536e-09).transl(-2.7015203685171664e-08, 4e-08, 0))
hIsland = hIsland.add(rect(6.159293001303609e-09, 7.03509809320063e-10).transl(2.0483702444673892e-08, 4e-08, 0))
hIsland = hIsland.add(rect(4.077589737459972e-09, 2.7007679786041528e-11).transl(-9.575674239048112e-08, 4e-08, 0))
hIsland = hIsland.add(rect(4.717021328002415e-09, 1.2331605926000438e-09).transl(-2.681289223708015e-08, 4e-08, 0))
hIsland = hIsland.sub(rect(3.379555934467731e-09, -5.278122658225034e-10).transl(-7.070144668326407e-08, 4e-08, 0))
hIsland = hIsland.add(rect(7.852546846198522e-09, 1.5532104788250964e-09).transl(1.445336083705507e-08, 4e-08, 0))
hIsland = hIsland.sub(rect(6.498974728059146e-09, -2.2385282516815827e-10).transl(1.1444250377510435e-07, 1.2303219432334725e-08, 0))
hIsland = hIsland.sub(rect(3.078778362617344e-09, -1.6397464897387572e-10).transl(2.2736326712142835e-08, 4e-08, 0))
hIsland = hIsland.sub(rect(7.631220495569855e-09, -4.764913566392494e-10).transl(-5.487079550734235e-08, 4e-08, 0))
hIsland = hIsland.add(rect(6.257649084937256e-09, 2.5368987093558393e-09).transl(-4.86190282612229e-08, 4e-08, 0))
hIsland = hIsland.sub(rect(5.54564752493087e-09, -1.4971727964103693e-09).transl(-3.437531685540956e-08, 4e-08, 0))
hIsland = hIsland.add(rect(2.201395504848323e-09, 2.7049272889421e-09).transl(-7.259326413183901e-08, 4e-08, 0))
hIsland = hIsland.sub(rect(7.592991292151367e-09, -1.0854895970740165e-09).transl(-7.144508808888689e-08, 4e-08, 0))
hIsland = hIsland.sub(rect(3.754941723823102e-09, -1.4251510922131415e-09).transl(7.161493448821631e-08, 4e-08, 0))
hIsland = hIsland.add(rect(5.202493070247549e-09, 1.3727160488804834e-09).transl(-2.377089051420303e-08, 4e-08, 0))
hIsland = hIsland.add(rect(4.987252798866946e-09, 2.800112416189577e-09).transl(-1.0980340103836119e-07, 3.3455940222574536e-08, 0))
hIsland = hIsland.add(rect(7.067941672761567e-09, 1.7969395621474516e-09).transl(-6.322914556354e-08, 4e-08, 0))
hIsland = hIsland.add(rect(4.61826387795018e-09, 2.705761675865192e-10).transl(6.696023901951935e-08, 4e-08, 0))
hIsland = hIsland.sub(rect(4.860903352535007e-09, -9.542735634857068e-10).transl(-1.0247354360310055e-07, 4e-08, 0))
hIsland = hIsland.add(rect(9.828705056300313e-09, 3.474396073415868e-09).transl(-9.25630981805016e-08, 4e-08, 0))
hIsland = hIsland.sub(rect(7.71688245838089e-09, -3.923612505605952e-09).transl(1.509809815684843e-08, 4e-08, 0))
hIsland = hIsland.sub(rect(6.104999449831523e-09, -1.7414411526825985e-09).transl(9.654664314885463e-08, 4e-08, 0))
hIsland = hIsland.sub(rect(6.7644016642313364e-09, -3.6134745095496204e-10).transl(5.413828971156262e-08, 4e-08, 0))
hIsland = hIsland.sub(rect(2.975489082817264e-09, -2.9316254231119e-09).transl(9.562972481714729e-08, 4e-08, 0))
hIsland = hIsland.add(rect(6.3102540565202394e-09, 3.5387567032623777e-09).transl(1.004970627822278e-07, 4e-08, 0))
hIsland = hIsland.sub(rect(4.324719517833861e-09, -4.89933499820628e-10).transl(-5.2756932499928605e-08, 4e-08, 0))
hIsland = hIsland.add(rect(3.4495822289142785e-09, 2.0232990838366435e-09).transl(8.196987928383036e-08, 4e-08, 0))
hIsland = hIsland.add(rect(4.9225519010385185e-09, 1.0469495765028704e-09).transl(-1.0651840223728068e-07, 3.859760873856662e-08, 0))
hIsland = hIsland.sub(rect(4.198588418084719e-09, -7.47655158596885e-10).transl(-2.3707502021118037e-08, 4e-08, 0))
hIsland = hIsland.add(rect(8.235943715736934e-09, 2.9278682149083903e-09).transl(-8.522292226125923e-08, 4e-08, 0))
hIsland = hIsland.add(rect(6.1053166083300015e-09, 4.166951036758529e-10).transl(-9.540211181777367e-08, 4e-08, 0))
hIsland = hIsland.add(rect(9.891002516131782e-09, 1.4242119327513978e-09).transl(1.281569083760739e-08, 4e-08, 0))
hIsland = hIsland.add(rect(5.4801241500754885e-09, 1.9833711062424416e-09).transl(1.5094329783376666e-08, 4e-08, 0))
hIsland = hIsland.add(rect(3.7378476040475e-09, 3.227682796096889e-09).transl(-6.961531860572e-10, 4e-08, 0))
hIsland = hIsland.add(rect(4.244345194136515e-09, 9.93866579594626e-10).transl(7.31517741502561e-08, 4e-08, 0))
hIsland = hIsland.sub(rect(4.723887192173814e-09, -2.5203503186115853e-09).transl(-4.6245451670264433e-08, 4e-08, 0))
hIsland = hIsland.sub(rect(9.910951492223986e-09, -2.5285584867953877e-10).transl(1.0510320846730085e-07, 3.960939303319633e-08, 0))
hIsland = hIsland.add(rect(6.553178483148163e-09, 1.1765098246823836e-09).transl(7.472718113834451e-08, 4e-08, 0))
hIsland = hIsland.add(rect(9.048612923753763e-09, 1.5491944019948398e-09).transl(9.766393945837838e-09, 4e-08, 0))
hIsland = hIsland.add(rect(3.9172492298901785e-09, 3.0486214596478097e-09).transl(-5.062917060996353e-08, 4e-08, 0))
hIsland = hIsland.sub(rect(9.330180013430906e-09, -2.7268540025362817e-09).transl(-6.503870916554329e-08, 4e-08, 0))
hIsland = hIsland.sub(rect(2.5312137327823265e-09, -3.437064978295464e-10).transl(-6.523203055722011e-08, 4e-08, 0))
hIsland = hIsland.add(rect(4.380545469721827e-09, 6.424855113063923e-10).transl(-1.1056668337540429e-07, 3.1556853331294324e-08, 0))
hIsland = hIsland.sub(rect(4.349940492029562e-09, -1.8860740332982246e-10).transl(-3.754574068899589e-08, 4e-08, 0))
hIsland = hIsland.add(rect(8.972177878938901e-09, 7.39082491849739e-10).transl(-8.517012537093904e-09, 4e-08, 0))
hIsland = hIsland.add(rect(4.622154020273379e-09, 3.567645808550833e-11).transl(7.485131689601527e-08, 4e-08, 0))
hIsland = hIsland.sub(rect(9.16533456880963e-09, -1.8205879774948623e-09).transl(2.0410410160282444e-08, 4e-08, 0))
hIsland = hIsland.sub(rect(5.427936624663871e-09, -2.7650582654861183e-09).transl(-5.480200149300231e-08, 4e-08, 0))
vIsland = hIsland.rotz(pi / 2)
vIslands = vIslands.add(vIsland.transl(0, -a/2, 0))
DefRegion(1, hIslands)
DefRegion(2, vIslands)
TableAdd(m_full.Region(1))
TableAdd(m_full.Region(2))
setgeom(hIslands.add(vIslands))
save(m)
r2o2 := sqrt(2) / 2
m = RandomMagSeed(4)
B_ext = vector(Bmax*r2o2, Bmax*r2o2, 0)
relax()
minimize()
for B := Bmax; B >= -Bmax; B -= Bstep {
	B_ext = vector(B*r2o2, B*r2o2, 0)
	minimize()
	tablesave()
}
//********************************************************************//
//Please cite the following references, relevant for your simulation. //
//See bibtex file in output folder for justification.                 //
//********************************************************************//
//   * Vansteenkiste et al., AIP Adv. 4, 107133 (2014).
//   * Exl et al., J. Appl. Phys. 115, 17D118 (2014).
