# t (s)	mx ()	my ()	mz ()	B_extx (T)	B_exty (T)	B_extz (T)	m_fullx (A/m)	m_fully (A/m)	m_fullz (A/m)	m_full.region1x (A/m)	m_full.region1y (A/m)	m_full.region1z (A/m)	m_full.region2x (A/m)	m_full.region2y (A/m)	m_full.region2z (A/m)
0	0.64804834	0.6480456	-1.2482648e-10	0.070710756	0.070710756	0	95938.07	95937.664	-1.7301038e-05	647040.06	260224.97	-0.00014725131	260227.62	647038.9	8.180628e-06
0	0.64794105	0.64793795	-5.149092e-10	0.07056913	0.070569135	0	95922.18	95921.72	-7.266436e-05	647140	259974.53	-0.00034358638	259977.5	647138.6	-0.0003803992
0	0.6478302	0.64782715	-7.333556e-10	0.07042789	0.07042789	0	95905.77	95905.305	-0.00010726644	647243.7	259715.58	-0.000507199	259718.56	647242.3	-0.000560373
0	0.64771837	0.64771533	-1.560331e-11	0.07028644	0.07028644	0	95889.22	95888.766	-3.4602076e-06	647347.94	259454.83	6.544503e-05	259457.83	647346.6	-2.4541885e-05
0	0.6476066	0.64760345	-2.8085959e-10	0.07014497	0.07014497	0	95872.664	95872.2	-4.1522493e-05	647451.94	259194.2	-0.00021269634	259197.22	647450.7	-0.00019633508
0	0.6474934	0.6474903	-5.149092e-10	0.07000352	0.07000352	0	95855.92	95855.45	-6.920415e-05	647557	258930.88	-0.00031086386	258933.88	647555.7	-0.00040085078
0	0.64738053	0.64737743	0	0.06986227	0.06986227	0	95839.195	95838.734	-3.4602076e-06	647661.75	258667.97	-8.180628e-05	258670.98	647660.44	4.908377e-05
0	0.64726794	0.64726484	-1.560331e-10	0.069720656	0.069720656	0	95822.52	95822.07	-2.0761247e-05	647766.1	258406	1.6361257e-05	258409.03	647764.7	-0.00019633508
0	0.6471547	0.6471516	-5.461159e-10	0.06957922	0.06957922	0	95805.77	95805.305	-7.958477e-05	647870.56	258142.92	-0.00032722513	258145.94	647869.3	-0.00044584423
0	0.6470411	0.64703786	-1.0922317e-10	0.06943796	0.06943796	0	95788.945	95788.48	-1.384083e-05	647975.56	257878.9	-0.0002290576	257881.9	647974.2	7.3625655e-05
0	0.6469274	0.6469242	-3.4327283e-10	0.06929647	0.06929648	0	95772.12	95771.64	-5.1903113e-05	648080.1	257615.12	-0.0001145288	257618.17	648078.75	-0.0003763089
0	0.6468131	0.64680994	-4.0568607e-10	0.069155045	0.06915505	0	95755.19	95754.734	-5.882353e-05	648185.2	257350.2	-0.0002617801	257353.25	648183.75	-0.00029859293
0	0.64669895	0.6466958	-6.241324e-10	0.0690136	0.0690136	0	95738.3	95737.836	-8.99654e-05	648289.8	257085.64	-0.000507199	257088.7	648288.5	-0.00040085078
0	0.6465842	0.64658105	-2.3404964e-10	0.06887216	0.06887216	0	95721.31	95720.84	-2.768166e-05	648394.8	256820.03	-0.00017997382	256823.11	648393.44	-9.816754e-05
0	0.6464685	0.6464653	1.2482648e-10	0.068730734	0.068730734	0	95704.17	95703.71	2.0761247e-05	648500.5	256552.33	8.180628e-05	256555.38	648499.2	0.00012270942
0	0.6463534	0.64635026	-2.4965296e-10	0.068589285	0.068589285	0	95687.14	95686.68	-3.114187e-05	648605.5	256286.17	-0.00014725131	256289.2	648604.1	-0.00019633508
0	0.64623773	0.64623463	-4.9930593e-10	0.06844799	0.06844799	0	95670.02	95669.55	-6.920415e-05	648710.6	256019.2	-0.00039267016	256022.25	648709.25	-0.0002535995
0	0.646122	0.6461189	-1.0922317e-10	0.06830654	0.06830654	0	95652.88	95652.414	-1.7301038e-05	648815.94	255751.83	0	255754.86	648814.56	-0.00015543193
0	0.6460059	0.6460028	-2.3404964e-10	0.06816512	0.06816512	0	95635.7	95635.234	-2.768166e-05	648921.1	255484.19	-0.00019633508	255487.27	648919.75	-4.090314e-05
0	0.64588857	0.64588547	-5.149092e-10	0.068023674	0.06802368	0	95618.32	95617.85	-7.266436e-05	649027.2	255213.72	-0.00035994765	255216.8	649025.9	-0.0003190445
0	0.6457724	0.64576924	-2.0284303e-10	0.06788223	0.06788223	0	95601.125	95600.65	-3.114187e-05	649132.25	254945.98	-0.00019633508	254949.06	649130.94	-8.998691e-05
0	0.64565486	0.64565176	-3.120662e-10	0.06774082	0.06774081	0	95583.73	95583.26	-4.49827e-05	649238.1	254675.62	-0.0002290576	254678.7	649236.75	-0.0002290576
0	0.64553785	0.64553463	-3.5887612e-10	0.06759933	0.06759933	0	95566.4	95565.93	-4.8442907e-05	649343.44	254406.5	-0.0001145288	254409.58	649342.06	-0.0003763089
0	0.6454196	0.64541644	-1.0922317e-10	0.06745807	0.06745807	0	95548.91	95548.445	-1.7301038e-05	649449.5	254134.95	-6.544503e-05	254138.06	649448.1	-6.953534e-05
0	0.6453017	0.6452985	-7.1775225e-10	0.067316614	0.067316614	0	95531.44	95530.97	-0.00011072664	649555.2	253864.03	-0.0006217277	253867.14	649553.8	-0.00041721205
0	0.64518315	0.6451799	-3.9008274e-10	0.06717501	0.06717501	0	95513.89	95513.414	-5.1903113e-05	649661.4	253591.9	-0.000286322	253595.03	649660.06	-0.00024541884
0	0.64506453	0.6450613	-4.5249599e-10	0.06703376	0.06703377	0	95496.33	95495.85	-6.228374e-05	649767.25	253319.94	-0.00029450262	253323.06	649765.94	-0.00029450262
0	0.64494526	0.64494216	-4.0568607e-10	0.0668923	0.0668923	0	95478.69	95478.21	-6.228374e-05	649873.3	253046.98	-0.0003763089	253050.12	649871.94	-0.0002535995
0	0.6448259	0.64482266	-5.9292576e-10	0.066750854	0.066750854	0	95461.01	95460.54	-9.34256e-05	649979.56	252773.56	-0.00040085078	252776.67	649978.2	-0.00049901835
0	0.6447065	0.6447032	-1.0922317e-10	0.06660941	0.066609405	0	95443.33	95442.85	-1.7301038e-05	650085.7	252500.25	-3.2722513e-05	252503.4	650084.25	-0.00017179319
0	0.64458674	0.6445835	-3.4327283e-10	0.06646814	0.06646814	0	95425.61	95425.13	-5.1903113e-05	650191.6	252226.62	-0.00029450262	252229.75	650190.3	-0.00014725131
0	0.64446586	0.64446265	-5.149092e-10	0.06632654	0.06632655	0	95407.71	95407.234	-8.3044986e-05	650298.5	251950.53	-0.00035176703	251953.66	650297.25	-0.00039267016
0	0.6443457	0.6443425	-1.560331e-10	0.066185094	0.066185094	0	95389.914	95389.445	-1.384083e-05	650404.44	251676.44	0	251679.58	650403.1	-0.00017179319
0	0.6442249	0.64422166	-7.9576884e-10	0.06604383	0.06604383	0	95372.04	95371.57	-0.00011418685	650510.8	251400.95	-0.0006053665	251404.1	650509.4	-0.000494928
0	0.6441029	0.64409965	-3.120662e-10	0.06590232	0.06590232	0	95353.97	95353.49	-4.1522493e-05	650618.2	251122.69	-0.00019633508	251125.86	650616.75	-0.00021269634
0	0.6439824	0.6439792	-2.1844634e-10	0.06576094	0.06576094	0	95336.125	95335.66	-3.114187e-05	650723.8	250848.31	-0.00031086386	250851.47	650722.5	3.6812828e-05
0	0.64385915	0.6438559	-1.8723972e-10	0.06561947	0.06561947	0	95317.88	95317.4	-2.768166e-05	650831.6	250567.88	-0.00016361257	250571.05	650830.3	-4.908377e-05
0	0.64373785	0.6437346	-2.1844634e-10	0.06547822	0.06547822	0	95299.92	95299.45	-2.768166e-05	650937.75	250291.98	-0.00024541884	250295.14	650936.4	-1.6361257e-05
0	0.64361537	0.64361215	-2.0284303e-10	0.06533663	0.06533663	0	95281.8	95281.31	-3.114187e-05	651044.56	250013.83	-0.00024541884	250017	651043.2	-5.72644e-05
0	0.64349216	0.64348894	-3.5887612e-10	0.06519517	0.06519517	0	95263.57	95263.09	-5.882353e-05	651151.7	249734.17	-0.00024541884	249737.36	651150.3	-0.00024541884
0	0.6433687	0.6433655	-1.0922317e-10	0.0650539	0.06505391	0	95245.29	95244.805	-2.0761247e-05	651258.94	249454.17	-0.00014725131	249457.34	651257.56	0
0	0.6432453	0.64324206	-3.7447945e-10	0.06491239	0.0649124	0	95227.01	95226.53	-5.536332e-05	651366.1	249174.11	-0.00029450262	249177.31	651364.8	-0.00022496728
0	0.6431218	0.64311844	-2.9646288e-10	0.06477102	0.06477102	0	95208.72	95208.234	-3.4602075e-05	651472.94	248894.22	-0.0002290576	248897.42	651471.6	-8.998691e-05
0	0.64299774	0.6429945	-1.8723972e-10	0.06462957	0.06462957	0	95190.37	95189.89	-3.114187e-05	651579.94	248613.77	-0.00021269634	248616.98	651578.56	-0.00010634817
0	0.64287275	0.6428695	-5.305125e-10	0.06448808	0.06448808	0	95171.87	95171.38	-8.3044986e-05	651687.56	248331.11	-0.00034358638	248334.34	651686.2	-0.00042539267
0	0.64274776	0.6427445	-2.1844634e-10	0.064346716	0.064346716	0	95153.34	95152.87	-3.4602075e-05	651794.9	248048.69	-0.00010634817	248051.89	651793.56	-0.0002290576
0	0.64262265	0.6426195	-6.241324e-10	0.064205244	0.064205244	0	95134.84	95134.36	-9.6885815e-05	651902.4	247766.1	-0.0005562827	247769.33	651901.06	-0.00034358638
0	0.64249724	0.6424939	-3.5887612e-10	0.064063944	0.064063944	0	95116.266	95115.77	-4.8442907e-05	652010	247482.86	-0.00039267016	247486.08	652008.6	-0.00012679974
0	0.64237136	0.64236814	-4.0568607e-10	0.06392247	0.06392247	0	95097.65	95097.16	-6.5743945e-05	652117.44	247199.27	-0.0004090314	247202.48	652116.2	-0.00018815444
0	0.6422444	0.6422411	-1.8723972e-10	0.063781105	0.063781105	0	95078.83	95078.34	-2.768166e-05	652225.6	246913.23	-0.00017179319	246916.47	652224.2	-6.544503e-05
0	0.642119	0.64211565	-4.2128936e-10	0.06363964	0.06363964	0	95060.26	95059.77	-5.882353e-05	652332.6	246630.6	-0.00029450262	246633.83	652331.3	-0.0002535995
0	0.6419917	0.64198834	-2.9646288e-10	0.063498154	0.063498154	0	95041.414	95040.94	-4.8442907e-05	652440.8	246344.3	-0.00019633508	246347.5	652439.44	-0.00022087696
0	0.6418652	0.64186186	-4.5249599e-10	0.063356794	0.0633568	0	95022.695	95022.21	-6.228374e-05	652547.9	246060.11	-0.0003763089	246063.36	652546.56	-0.00023723822
0	0.6417367	0.64173335	-2.0284303e-10	0.06321528	0.06321528	0	95003.67	95003.19	-3.114187e-05	652656.5	245771.56	-0.00016361257	245774.8	652655.2	-7.3625655e-05
0	0.64160836	0.641605	-7.0214895e-10	0.063074015	0.063074015	0	94984.66	94984.195	-0.00010034602	652764.8	245483.53	-0.0005808246	245486.75	652763.56	-0.0003763089
0	0.6414809	0.6414776	1.560331e-11	0.06293254	0.06293254	0	94965.805	94965.31	-6.920415e-06	652872.5	245197.5	-0.00013907067	245200.73	652871.2	4.090314e-05
0	0.6413529	0.6413496	-3.4327283e-10	0.062790975	0.062790975	0	94946.84	94946.37	-4.8442907e-05	652980.06	244910.66	-0.00016361257	244913.9	652978.8	-0.00029859293
0	0.64122355	0.6412202	-3.5887612e-10	0.06264971	0.06264971	0	94927.7	94927.22	-5.536332e-05	653088.44	244621.17	-0.0004090314	244624.44	653087.1	-0.00017179319
0	0.64109445	0.6410912	-5.305125e-10	0.06250823	0.06250823	0	94908.6	94908.11	-8.3044986e-05	653196.7	244332.31	-0.00039267016	244335.58	653195.3	-0.00036812827
0	0.64096415	0.64096093	0	0.062366836	0.062366836	0	94889.33	94888.83	0	653305.44	244041.25	-3.2722513e-05	244044.52	653304.06	1.6361257e-05
0	0.64083487	0.6408316	1.4042979e-10	0.062225346	0.062225346	0	94870.18	94869.67	1.7301038e-05	653413.44	243752.08	3.2722513e-05	243755.38	653412.1	0.00015543193
0	0.64070463	0.6407014	-6.7094236e-10	0.062084086	0.062084086	0	94850.9	94850.41	-0.00010034602	653521.8	243461.47	-0.00058900524	243464.73	653520.56	-0.00035994765
0	0.64057356	0.6405701	-2.4965296e-10	0.061942536	0.061942536	0	94831.48	94830.99	-3.114187e-05	653630.75	243168.88	-0.0002290576	243172.17	653629.3	-4.090314e-05
0	0.6404431	0.64043987	-1.8723972e-10	0.061801046	0.061801046	0	94812.18	94811.69	-3.114187e-05	653738.75	242878.36	-0.00013089005	242881.66	653737.4	-6.544503e-05
0	0.6403108	0.6403075	-4.9930593e-10	0.06165979	0.061659783	0	94792.59	94792.1	-7.266436e-05	653848	242583.86	-0.00031086386	242587.14	653846.6	-0.00038448954
0	0.64018005	0.6401767	-2.4965296e-10	0.061518256	0.061518256	0	94773.234	94772.734	-3.8062284e-05	653956.1	242292.58	-0.00035994765	242295.9	653954.8	-4.908377e-05
0	0.6400473	0.640044	-3.276695e-10	0.061376907	0.061376907	0	94753.57	94753.08	-4.1522493e-05	654065.4	241997.52	-0.00024541884	242000.8	654064.06	-0.0002290576
0	0.639915	0.6399118	-6.7094236e-10	0.061235435	0.061235435	0	94733.99	94733.51	-0.00010034602	654174.2	241703.55	-0.00053992146	241706.83	654172.8	-0.0004335733
0	0.63978225	0.6397788	-2.4965296e-10	0.061093953	0.061093953	0	94714.33	94713.85	-3.4602075e-05	654283	241408.73	-0.00013089005	241412.05	654281.7	-0.00017179319
0	0.63964933	0.639646	-4.0568607e-10	0.06095263	0.06095263	0	94694.66	94694.17	-5.536332e-05	654391.94	241113.83	-0.00039267016	241117.17	654390.56	-0.00013089005
0	0.63951576	0.63951236	-3.7447945e-10	0.060811136	0.060811136	0	94674.875	94674.39	-5.536332e-05	654501.1	240817.56	-0.00026996073	240820.89	654499.8	-0.0002617801
0	0.63938206	0.6393787	-5.9292576e-10	0.060669806	0.060669806	0	94655.09	94654.61	-9.34256e-05	654609.9	240521.66	-0.00053992146	240524.98	654608.56	-0.00034358638
0	0.6392472	0.63924384	-5.6171917e-10	0.060528323	0.060528323	0	94635.12	94634.625	-7.958477e-05	654719.6	240222.97	-0.0004090314	240226.34	654718.3	-0.00036403796
0	0.6391132	0.6391098	-2.1844634e-10	0.06038699	0.06038699	0	94615.29	94614.79	-3.114187e-05	654828.44	239926.67	-0.00013089005	239930.02	654827.06	-0.00014725131
0	0.6389775	0.63897425	9.361986e-11	0.060245514	0.060245506	0	94595.2	94594.72	2.0761247e-05	654938.1	239627.11	-1.6361257e-05	239630.45	654936.8	0.00014725131
0	0.6388427	0.6388393	-4.8370263e-10	0.060104024	0.060104024	0	94575.25	94574.76	-6.5743945e-05	655047.2	239329.19	-0.00029450262	239332.55	655045.8	-0.0003763089
0	0.6387069	0.6387036	-4.368927e-10	0.0599627	0.0599627	0	94555.14	94554.65	-6.228374e-05	655156.7	239029.61	-0.0002617801	239033	655155.3	-0.00031086386
0	0.638571	0.6385676	-3.7447945e-10	0.05982116	0.05982116	0	94535.02	94534.53	-5.536332e-05	655266.2	238729.94	-0.0002617801	238733.28	655264.8	-0.0002331479
0	0.638433	0.6384296	-3.120662e-10	0.059679892	0.059679892	0	94514.59	94514.086	-3.8062284e-05	655376.7	238426.16	-0.00024541884	238429.5	655375.4	-0.0001145288
0	0.6382977	0.6382942	1.2482648e-10	0.059538387	0.059538387	0	94494.54	94494.05	1.384083e-05	655485.3	238127.92	0	238131.28	655483.94	0.000143161
0	0.6381607	0.6381573	-1.0922317e-10	0.059396863	0.059396863	0	94474.28	94473.78	-1.384083e-05	655594.94	237826.66	-0.00014725131	237830.02	655593.56	2.86322e-05
0	0.6380226	0.6380192	-4.0568607e-10	0.05925559	0.05925559	0	94453.836	94453.336	-5.536332e-05	655705.06	237523.23	-0.00029450262	237526.6	655703.7	-0.00026996073
0	0.637885	0.63788164	-2.6525626e-10	0.059114084	0.059114084	0	94433.46	94432.97	-3.114187e-05	655814.56	237221.06	-0.0002535995	237224.44	655813.2	-5.72644e-05
0	0.63774663	0.63774323	-4.368927e-10	0.05897273	0.05897273	0	94412.984	94412.484	-5.536332e-05	655924.56	236917.38	-0.00029450262	236920.75	655923.25	-0.00035994765
0	0.637608	0.6376047	-3.7447945e-10	0.05883124	0.05883124	0	94392.46	94391.97	-5.1903113e-05	656034.3	236613.48	-0.00031086386	236616.88	656033.06	-0.00021269634
0	0.6374692	0.6374659	-3.4327283e-10	0.058689952	0.05868996	0	94371.914	94371.414	-5.1903113e-05	656144.2	236309.33	-0.000286322	236312.77	656142.8	-0.00014725131
0	0.6373296	0.6373262	-2.4965296e-10	0.058548428	0.058548428	0	94351.24	94350.734	-3.4602075e-05	656254.44	236003.58	-0.0002290576	236007	656253.06	-0.00013498036
0	0.6371901	0.6371867	-4.680993e-11	0.058406938	0.058406938	0	94330.586	94330.086	-3.4602076e-06	656364.3	235698.47	-1.6361257e-05	235701.86	656362.94	-8.180628e-06
0	0.6370502	0.63704675	-2.3404964e-10	0.05826566	0.05826566	0	94309.875	94309.375	-3.4602075e-05	656474.1	235392.7	-0.00029450262	235396.08	656472.8	-4.908377e-05
0	0.63690895	0.6369055	-3.5887612e-10	0.058124106	0.058124106	0	94288.97	94288.46	-4.8442907e-05	656584.9	235084.22	-0.0003763089	235087.64	656583.56	-9.407722e-05
0	0.6367681	0.63676465	-5.9292576e-10	0.057982814	0.057982814	0	94268.12	94267.61	-8.650519e-05	656695.06	234776.77	-0.00058900524	234780.2	656693.75	-0.00026996073
0	0.6366268	0.63662326	-6.085291e-10	0.057841312	0.057841305	0	94247.19	94246.695	-8.650519e-05	656805.44	234468.6	-0.000507199	234472.03	656804.06	-0.00033540576
0	0.63648546	0.63648206	-5.149092e-10	0.057699807	0.057699807	0	94226.27	94225.77	-6.920415e-05	656915.44	234160.84	-0.0003763089	234164.25	656914.1	-0.00038448954
0	0.6363421	0.6363387	-5.7732247e-10	0.057558525	0.057558525	0	94205.055	94204.555	-8.3044986e-05	657026.7	233848.84	-0.000507199	233852.28	657025.3	-0.00029450262
0	0.63620013	0.63619673	-2.0284303e-10	0.05741701	0.05741701	0	94184.04	94183.54	-3.4602075e-05	657137	233539.8	-0.00014725131	233543.23	657135.6	-0.00016361257
0	0.6360579	0.63605446	-3.7447945e-10	0.057275683	0.057275683	0	94162.97	94162.46	-5.882353e-05	657247	233230.61	-0.00031086386	233234.06	657245.6	-0.0002617801
0	0.6359136	0.63591015	-7.801655e-10	0.057134178	0.057134178	0	94141.62	94141.12	-0.00011072664	657358.2	232917.48	-0.0006053665	232920.94	657356.8	-0.0004581152
0	0.6357707	0.6357673	-4.5249599e-10	0.056992896	0.056992896	0	94120.46	94119.96	-7.612457e-05	657468.3	232607.22	-0.00031086386	232610.64	657467	-0.00040085078
0	0.6356262	0.63562274	-5.461159e-10	0.056851387	0.056851387	0	94099.07	94098.56	-7.958477e-05	657579.3	232293.97	-0.0004908377	232297.44	657577.94	-0.00023723822
0	0.635482	0.6354786	0	0.056709882	0.056709882	0	94077.72	94077.21	-3.4602076e-06	657689.8	231981.53	4.908377e-05	231985	657688.5	-0.0001145288
0	0.63533694	0.63533354	-4.680993e-10	0.056568604	0.056568604	0	94056.24	94055.74	-6.920415e-05	657800.94	231667.33	-0.0002290576	231670.8	657799.5	-0.00039267016
0	0.63519114	0.63518775	-6.085291e-10	0.05642703	0.056427035	0	94034.68	94034.17	-8.99654e-05	657912.25	231351.98	-0.00039267016	231355.45	657910.9	-0.000494928
0	0.6350462	0.6350428	-3.9008274e-10	0.056285758	0.056285758	0	94013.2	94012.695	-4.49827e-05	658022.7	231038.52	-0.00035994765	231042	658021.4	-0.00017997382
0	0.63490015	0.63489664	-1.8723972e-10	0.05614425	0.05614425	0	93991.57	93991.07	-2.768166e-05	658133.75	230722.86	-8.180628e-05	230726.34	658132.5	-0.00017179319
0	0.63475406	0.6347506	1.0922317e-10	0.056002736	0.056002736	0	93969.96	93969.45	1.0380623e-05	658244.56	230407.69	-1.6361257e-05	230411.17	658243.1	0.00017997382
0	0.6346068	0.6346035	-6.55339e-10	0.05586146	0.055861462	0	93948.164	93947.66	-0.00010034602	658355.75	230090.4	-0.00053992146	230093.94	658354.4	-0.00040085078
0	0.63445956	0.63445604	2.6525626e-10	0.055719953	0.055719953	0	93926.35	93925.84	3.8062284e-05	658467.1	229772.83	0.00016361257	229776.33	658465.7	0.00017997382
0	0.63431066	0.63430715	-9.361986e-10	0.05557868	0.05557868	0	93904.3	93903.8	-0.00014532873	658579.06	229452.28	-0.00073625654	229455.78	658577.75	-0.00064626965
0	0.6341633	0.63415986	-5.461159e-10	0.05543712	0.05543712	0	93882.49	93881.984	-8.3044986e-05	658689.9	229135.17	-0.00032722513	229138.7	658688.6	-0.0004908377
0	0.6340153	0.6340119	-6.241324e-10	0.05529583	0.05529583	0	93860.6	93860.086	-9.6885815e-05	658800.75	228817.22	-0.00036812827	228820.73	658799.5	-0.0005562827
0	0.63386637	0.63386285	-9.361986e-11	0.055154327	0.055154327	0	93838.55	93838.03	-1.7301038e-05	658912.2	228497.23	-0.00013089005	228500.73	658910.9	1.22709425e-05
0	0.6337169	0.63371336	-1.2482648e-10	0.055012815	0.055012815	0	93816.41	93815.91	-2.4221454e-05	659023.75	228176.36	-0.00017997382	228179.88	659022.5	-4.090314e-05
0	0.6335673	0.6335638	-1.2482648e-10	0.054871533	0.054871533	0	93794.27	93793.76	-1.7301038e-05	659135.1	227855.58	-8.998691e-05	227859.11	659133.8	-5.72644e-05
0	0.6334166	0.63341326	-5.9292576e-10	0.05473003	0.05473003	0	93771.97	93771.45	-8.99654e-05	659246.94	227532.86	-0.0004581152	227536.38	659245.5	-0.0004335733
0	0.6332655	0.63326204	-4.8370263e-10	0.054588694	0.054588694	0	93749.586	93749.086	-7.266436e-05	659358.8	227209.33	-0.0004581152	227212.89	659357.6	-0.0002617801
0	0.63311553	0.63311213	-1.7163641e-10	0.05444718	0.05444718	0	93727.39	93726.88	-2.768166e-05	659469.9	226888.38	-0.00022087696	226891.92	659468.56	-8.180628e-05
0	0.63296396	0.6329605	-3.120662e-10	0.054305915	0.054305915	0	93704.96	93704.43	-4.8442907e-05	659581.56	226564.4	-0.00013089005	226567.94	659580.25	-0.00032722513
0	0.63281196	0.63280857	1.560331e-10	0.054164402	0.054164402	0	93682.45	93681.93	2.4221454e-05	659693.5	226239.75	-4.908377e-05	226243.28	659692.2	0.00030268324
0	0.63266003	0.6326566	-7.801655e-11	0.054022882	0.054022882	0	93659.96	93659.445	-6.920415e-06	659805.06	225915.42	-8.998691e-05	225919	659803.75	-1.6361257e-05
0	0.6325074	0.6325039	-3.4327283e-10	0.053881615	0.053881615	0	93637.37	93636.86	-4.49827e-05	659916.9	225590	-0.00032722513	225593.55	659915.5	-0.00011861911
0	0.6323541	0.63235056	-4.8370263e-10	0.05374005	0.05374005	0	93614.664	93614.13	-6.920415e-05	660028.94	225263.22	-0.00034358638	225266.77	660027.56	-0.0003190445
0	0.63220096	0.63219744	-4.8370263e-10	0.053598765	0.053598765	0	93591.99	93591.48	-6.920415e-05	660140.44	224937.3	-0.00022087696	224940.89	660139.06	-0.0004090314
0	0.6320461	0.6320426	-2.6525626e-10	0.053457264	0.053457264	0	93569.055	93568.54	-4.1522493e-05	660253.06	224607.88	-0.00035994765	224611.44	660251.7	-2.4541885e-05
0	0.631892	0.6318885	6.241324e-11	0.05331577	0.05331577	0	93546.26	93545.734	1.7301038e-05	660364.9	224280.28	-6.544503e-05	224283.86	660363.7	0.00017997382
0	0.6317371	0.6317336	-4.2128936e-10	0.053174473	0.053174473	0	93523.32	93522.805	-6.5743945e-05	660477.2	223951.2	-0.00027814135	223954.77	660475.9	-0.00032722513
0	0.63158214	0.6315786	-3.4327283e-10	0.053032972	0.053032972	0	93500.39	93499.875	-5.536332e-05	660588.94	223622.5	-0.00039267016	223626.05	660587.7	-9.407722e-05
0	0.63142574	0.6314222	3.120662e-11	0.052891634	0.052891634	0	93477.23	93476.71	0	660701.56	223290.86	-4.908377e-05	223294.44	660700.25	3.2722513e-05
0	0.6312708	0.63126737	-4.2128936e-10	0.05275012	0.05275012	0	93454.3	93453.78	-6.228374e-05	660813	222962.6	-0.0002535995	222966.19	660811.75	-0.00029450262
0	0.6311132	0.6311097	1.560331e-11	0.052608836	0.052608836	0	93430.95	93430.44	1.0380623e-05	660925.9	222629.06	6.544503e-05	222632.67	660924.5	1.6361257e-05
0	0.63095653	0.6309531	0	0.052467342	0.052467342	0	93407.78	93407.26	-6.920415e-06	661038.1	222297.52	-0.00013089005	222301.12	661036.75	6.544503e-05
0	0.6307996	0.6307961	-6.241324e-11	0.052325826	0.052325826	0	93384.55	93384.016	-1.384083e-05	661150	221965.83	-0.00016361257	221969.42	661148.7	6.544503e-05
0	0.63064146	0.630638	-4.680993e-11	0.05218455	0.05218455	0	93361.12	93360.6	0	661262.5	221632	9.816754e-05	221635.61	661261.2	-0.0001145288
0	0.63048315	0.63047963	-3.7447945e-10	0.05204299	0.05204299	0	93337.69	93337.164	-5.536332e-05	661375.1	221297.78	-0.00029450262	221301.38	661373.75	-0.0002617801
0	0.6303235	0.63032	-2.8085959e-10	0.051901694	0.051901694	0	93314.06	93313.53	-4.1522493e-05	661488.06	220961.31	-0.00034358638	220964.92	661486.75	-5.72644e-05
0	0.63016427	0.6301608	-3.120662e-10	0.051760197	0.051760197	0	93290.47	93289.96	-4.8442907e-05	661600.56	220625.8	-0.00014725131	220629.42	661599.3	-0.00029450262
0	0.6300039	0.6300005	-1.0922317e-10	0.051618703	0.051618703	0	93266.75	93266.234	-1.384083e-05	661713.4	220288.61	-0.00029450262	220292.2	661712.1	0.00016361257
0	0.62984496	0.6298414	-3.4327283e-10	0.05147742	0.05147742	0	93243.2	93242.69	-4.8442907e-05	661825.44	219953.89	-0.0002617801	219957.55	661824.06	-0.00021269634
0	0.62968427	0.6296808	-3.120662e-10	0.051335912	0.051335912	0	93219.42	93218.91	-4.49827e-05	661938.1	219616.27	-0.00021269634	219619.88	661936.9	-0.0002617801
0	0.62952375	0.6295202	-4.680993e-10	0.051194567	0.051194567	0	93195.65	93195.125	-6.920415e-05	662050.7	219278.89	-0.00042539267	219282.52	662049.4	-0.00024541884
0	0.629362	0.6293585	-3.5887612e-10	0.051053073	0.051053073	0	93171.72	93171.195	-5.536332e-05	662163.56	218939.64	-0.00041721205	218943.3	662162.25	-0.0001145288
0	0.6292001	0.6291966	1.560331e-10	0.05091177	0.05091177	0	93147.74	93147.22	2.4221454e-05	662276.4	218600.12	-9.816754e-05	218603.78	662275	0.00029450262
0	0.6290366	0.6290331	-2.6525626e-10	0.050770275	0.050770275	0	93123.54	93123.016	-3.8062284e-05	662389.7	218257.89	-0.0002290576	218261.55	662388.44	-0.0001145288
0	0.62887496	0.62887144	-2.9646288e-10	0.05062879	0.05062879	0	93099.62	93099.086	-4.1522493e-05	662501.9	217919.47	-0.00015134162	217923.11	662500.5	-0.0002535995
0	0.6287119	0.62870836	-3.120662e-10	0.05048749	0.05048749	0	93075.47	93074.945	-4.49827e-05	662614.56	217578.4	-0.00032722513	217582.08	662613.3	-9.816754e-05
0	0.62854797	0.62854445	-4.2128936e-10	0.05034593	0.05034593	0	93051.195	93050.664	-5.882353e-05	662727.5	217235.94	-0.00027814135	217239.6	662726.25	-0.00029859293
0	0.628383	0.6283794	-1.7163641e-10	0.050204646	0.050204642	0	93026.77	93026.25	-2.4221454e-05	662841	216891.52	-0.00013089005	216895.17	662839.75	-0.0001145288
0	0.6282187	0.6282152	-7.801655e-11	0.050063137	0.050063137	0	93002.46	93001.93	-1.384083e-05	662953.9	216548.67	-0.00014725131	216552.36	662952.6	8.180628e-06
0	0.62805384	0.6280504	-3.4327283e-10	0.04992165	0.04992165	0	92978.06	92977.53	-4.49827e-05	663066.56	216205.2	-0.00029450262	216208.88	663065.3	-0.00016361257
0	0.6278884	0.62788486	-1.8723972e-10	0.04978036	0.04978036	0	92953.555	92953.04	-2.0761247e-05	663179.5	215860.53	-7.3625655e-05	215864.17	663178.2	-0.00010634817
0	0.62772155	0.62771803	-4.680993e-11	0.049638852	0.049638852	0	92928.85	92928.32	-6.920415e-06	663293	215513.45	-8.180628e-05	215517.16	663291.7	2.4541885e-05
0	0.6275548	0.62755126	-3.9008274e-10	0.049497508	0.049497508	0	92904.17	92903.64	-5.882353e-05	663406.3	215166.77	-0.00024541884	215170.47	663404.94	-0.000286322
0	0.6273877	0.6273842	-2.4965296e-10	0.04935601	0.04935601	0	92879.44	92878.91	-3.8062284e-05	663519.44	214819.58	-0.00014725131	214823.28	663518.25	-0.00018815444
0	0.6272208	0.62721723	-4.8370263e-10	0.049214706	0.049214706	0	92854.72	92854.19	-6.5743945e-05	663632.6	214472.78	-0.00034358638	214476.48	663631.25	-0.00033540576
0	0.6270526	0.627049	-5.305125e-10	0.049073216	0.049073216	0	92829.82	92829.3	-7.612457e-05	663745.7	214124.25	-0.0003763089	214127.95	663744.5	-0.00038448954
0	0.62688375	0.6268801	-4.680993e-10	0.048931725	0.048931725	0	92804.82	92804.305	-6.920415e-05	663859.1	213774.4	-0.000572644	213778.12	663857.9	-8.998691e-05
0	0.62671417	0.6267106	-4.368927e-10	0.048790433	0.048790433	0	92779.72	92779.19	-5.882353e-05	663973	213423.12	-0.00031086386	213426.83	663971.75	-0.00027814135
0	0.62654626	0.6265427	-3.7447945e-10	0.048648868	0.048648868	0	92754.86	92754.33	-4.8442907e-05	664085.44	213075.55	-0.00019633508	213079.27	664084.25	-0.00033540576
0	0.62637615	0.6263726	-1.0922317e-10	0.04850758	0.04850758	0	92729.68	92729.16	-1.7301038e-05	664199	212723.92	-9.816754e-05	212727.67	664197.6	-6.544503e-05
0	0.6262049	0.62620133	-9.361986e-11	0.04836608	0.04836608	0	92704.336	92703.8	-1.7301038e-05	664312.75	212370.4	-0.00013089005	212374.11	664311.5	8.180628e-06
0	0.6260338	0.62603027	0	0.04822459	0.04822459	0	92678.984	92678.47	3.4602076e-06	664426.3	212017.3	-9.816754e-05	212021.02	664425.06	8.180628e-05
0	0.6258626	0.6258591	-1.4042979e-10	0.04808329	0.04808329	0	92653.66	92653.125	-1.384083e-05	664539.8	211664.12	-1.6361257e-05	211667.86	664538.56	-0.00014725131
0	0.62569183	0.6256883	-1.2482648e-10	0.047941796	0.047941796	0	92628.38	92627.85	-2.4221454e-05	664652.7	211312.22	-9.816754e-05	211315.97	664651.4	-0.00010634817
0	0.6255182	0.62551475	-2.3404964e-10	0.047800433	0.047800433	0	92602.67	92602.15	-3.8062284e-05	664766.9	210954.95	-0.00026996073	210958.67	664765.6	-8.998691e-05
0	0.6253452	0.6253416	-2.6525626e-10	0.047658954	0.047658954	0	92577.05	92576.516	-3.4602075e-05	664880.5	210598.9	-8.998691e-05	210602.62	664879.3	-0.0002535995
0	0.6251731	0.6251696	-9.361986e-11	0.047517646	0.047517646	0	92551.58	92551.05	-2.0761247e-05	664993.5	210245.08	-0.0001145288	210248.83	664992.25	-2.045157e-05
0	0.6249988	0.62499523	-1.0922317e-10	0.047376156	0.047376156	0	92525.77	92525.24	-1.384083e-05	665107.3	209887.27	1.6361257e-05	209891	665106	-0.00018815444
0	0.6248242	0.62482065	-6.397357e-10	0.04723467	0.04723467	0	92499.93	92499.414	-8.650519e-05	665220.94	209529.33	-0.0005562827	209533.08	665219.7	-0.00031086386
0	0.62464875	0.6246452	-1.560331e-10	0.04709336	0.04709336	0	92473.95	92473.42	-2.768166e-05	665335.1	209169.34	-0.0001145288	209173.08	665334	-0.000143161
0	0.6244747	0.6244711	-2.9646288e-10	0.046951808	0.046951808	0	92448.19	92447.66	-4.49827e-05	665448.2	208812.66	-0.00044175392	208816.38	665446.94	2.4541885e-05
0	0.6242988	0.62429523	-3.4327283e-10	0.04681051	0.04681051	0	92422.16	92421.625	-4.8442907e-05	665561.75	208452.89	-0.0002290576	208456.67	665560.5	-0.00021269634
0	0.62412137	0.6241178	0	0.046669018	0.046669018	0	92395.87	92395.336	-3.4602076e-06	665676.3	208089.78	3.2722513e-05	208093.58	665675	-6.544503e-05
0	0.62394613	0.62394255	-5.9292576e-10	0.04652772	0.04652772	0	92369.93	92369.4	-8.99654e-05	665789.06	207731.64	-0.000572644	207735.38	665787.9	-0.00026996073
0	0.6237677	0.6237641	-2.1844634e-10	0.046386234	0.046386234	0	92343.516	92342.984	-3.114187e-05	665903.44	207367.56	-0.00042539267	207371.33	665902.25	0.00013089005
0	0.6235901	0.62358654	-2.4965296e-10	0.04624474	0.04624474	0	92317.23	92316.71	-3.633218e-05	666017.06	207005.4	-0.0002290576	207009.19	666015.8	-0.00016361257
0	0.62341124	0.62340766	-3.120662e-10	0.046103436	0.046103436	0	92290.74	92290.21	-4.8442907e-05	666131.2	206640.78	-0.00019633508	206644.58	666129.9	-0.00022087696
0	0.6232332	0.6232296	-4.0568607e-10	0.045961883	0.045961883	0	92264.38	92263.84	-5.7093424e-05	666244.7	206277.98	-0.0002290576	206281.78	666243.5	-0.00031086386
0	0.62305325	0.62304974	-3.7447945e-10	0.045820575	0.045820575	0	92237.76	92237.23	-6.0553633e-05	666358.9	205911.95	-0.00032722513	205915.73	666357.7	-0.0002331479
0	0.62287354	0.6228701	-3.5887612e-10	0.0456791	0.0456791	0	92211.15	92210.625	-5.363322e-05	666472.5	205546.67	-0.0002617801	205550.45	666471.3	-0.0002617801
0	0.6226933	0.6226897	-1.7163641e-10	0.045537613	0.045537613	0	92184.48	92183.94	-3.114187e-05	666586.3	205180.48	-0.00014725131	205184.3	666585.1	-0.00012270942
0	0.6225108	0.6225073	-7.1775225e-10	0.0453963	0.0453963	0	92157.45	92156.914	-0.00010726644	666701.2	204810.19	-0.0007526178	204813.97	666699.94	-0.00031086386
0	0.62233067	0.622327	-4.680993e-10	0.04525482	0.04525482	0	92130.78	92130.25	-7.612457e-05	666814.4	204444.77	-0.00047447643	204448.55	666813.2	-0.00024541884
0	0.6221475	0.6221439	-3.4327283e-10	0.045113444	0.045113444	0	92103.67	92103.15	-5.536332e-05	666928.9	204073.89	-0.0002617801	204077.69	666927.6	-0.0002290576
0	0.6219659	0.6219622	-2.1844634e-10	0.044971954	0.044971954	0	92076.766	92076.234	-3.114187e-05	667042.5	203705.77	-0.00016361257	203709.6	667041.3	-0.00017179319
0	0.621783	0.6217794	3.120662e-11	0.044830654	0.044830654	0	92049.7	92049.17	3.4602076e-06	667156.4	203336.06	-3.2722513e-05	203339.88	667155.1	8.998691e-05