# t (s)	mx ()	my ()	mz ()	B_extx (T)	B_exty (T)	B_extz (T)	m_fullx (A/m)	m_fully (A/m)	m_fullz (A/m)	m_full.region1x (A/m)	m_full.region1y (A/m)	m_full.region1z (A/m)	m_full.region2x (A/m)	m_full.region2y (A/m)	m_full.region2z (A/m)
0	0.62469065	0.62469	-1.1122156e-10	0.070710756	0.070710756	0	142714.8	142714.64	-2.4221454e-05	667030.1	207535.97	-6.361323e-05	207536.89	667030	-7.686599e-05
0	0.6244055	0.62440467	-8.088841e-11	0.07035723	0.070357226	0	142649.66	142649.45	-2.0761247e-05	667206.06	206960.55	-4.240882e-05	206961.69	667205.94	-7.686599e-05
0	0.6241158	0.624115	-5.561078e-11	0.07000352	0.07000352	0	142583.47	142583.28	-1.2110727e-05	667383.9	206377.14	-4.240882e-05	206378.3	667383.8	-2.3192324e-05
0	0.6238253	0.6238244	-1.06166034e-10	0.06965	0.06965001	0	142517.11	142516.9	-2.4221454e-05	667561.44	205792.81	-3.1806616e-05	205794	667561.4	-0.000111323156
0	0.62353283	0.62353194	-2.0222102e-10	0.06929647	0.06929648	0	142450.28	142450.06	-4.67128e-05	667739.44	205205.3	-0.00023059796	205206.47	667739.4	-5.831213e-05
0	0.6232398	0.62323886	-1.4155471e-10	0.068942994	0.068942994	0	142383.31	142383.11	-3.4602075e-05	667916.9	204617.67	-0.00010602205	204618.8	667916.75	-9.674512e-05
0	0.6229446	0.62294376	-2.1233207e-10	0.068589285	0.068589285	0	142315.9	142315.7	-4.49827e-05	668094.7	204026.66	-8.481764e-05	204027.83	668094.6	-0.0002120441
0	0.6226488	0.6226479	-5.561078e-11	0.06823578	0.06823578	0	142248.33	142248.11	-1.0380623e-05	668272.1	203435.06	-4.240882e-05	203436.2	668272.06	-3.710772e-05
0	0.6223512	0.6223503	-8.088841e-11	0.06788223	0.06788223	0	142180.34	142180.12	-1.5570935e-05	668449.8	202840.66	-2.120441e-05	202841.83	668449.8	-8.912479e-05
0	0.62205225	0.62205136	-1.06166034e-10	0.067528725	0.067528725	0	142112.03	142111.83	-2.5951556e-05	668627.4	202244.58	-7.421544e-05	202245.73	668627.4	-8.481764e-05
0	0.62175184	0.62175095	6.0666305e-11	0.06717501	0.06717501	0	142043.4	142043.2	1.384083e-05	668805.1	201646.34	1.0602205e-05	201647.48	668805.06	8.481764e-05
0	0.62145025	0.62144935	-1.7188787e-10	0.06682165	0.06682165	0	141974.5	141974.31	-3.633218e-05	668982.56	201046.55	-0.00011662426	201047.67	668982.56	-0.00012722646
0	0.62114686	0.621146	-5.561078e-11	0.06646814	0.06646814	0	141905.22	141905	-1.2110727e-05	669160.4	200444.17	3.1806616e-05	200445.31	669160.3	-6.8914334e-05
0	0.62084264	0.6208417	-1.16277085e-10	0.06611443	0.06611444	0	141835.67	141835.47	-2.9411765e-05	669337.75	199840.75	-3.710772e-05	199841.89	669337.7	-0.00011662426
0	0.62053674	0.6205358	-1.3144366e-10	0.06576094	0.06576094	0	141765.8	141765.6	-2.768166e-05	669515.2	199235.03	-8.481764e-05	199236.19	669515.1	-0.00010602205
0	0.6202293	0.62022835	-2.0222102e-10	0.065407366	0.065407366	0	141695.55	141695.36	-4.3252596e-05	669692.7	198627.1	-8.481764e-05	198628.23	669692.6	-0.00016963528
0	0.6199207	0.6199198	-1.16277085e-10	0.06505391	0.06505391	0	141625.05	141624.88	-3.2871973e-05	669870	198017.8	-3.1806616e-05	198018.97	669869.94	-0.00012987701
0	0.6196103	0.6196095	-9.099946e-11	0.06470021	0.06470021	0	141554.16	141553.97	-2.249135e-05	670047.4	197405.97	-2.120441e-05	197407.11	670047.3	-0.00011596162
0	0.61929864	0.6192978	-2.0222102e-11	0.064346716	0.064346716	0	141482.94	141482.75	-1.7301038e-06	670224.75	196792.16	-6.361323e-05	196793.3	670224.75	4.240882e-05
0	0.6189855	0.61898464	-1.3144366e-10	0.06399313	0.06399313	0	141411.42	141411.22	-3.2871973e-05	670402.06	196176.56	-4.240882e-05	196177.73	670401.94	-0.00017228583
0	0.6186711	0.61867034	-1.4155471e-10	0.06363964	0.06363964	0	141339.61	141339.39	-3.2871973e-05	670579.06	195559.38	-0.00014843087	195560.53	670579.06	-7.421544e-05
0	0.618355	0.61835414	-4.802749e-11	0.06328593	0.06328593	0	141267.36	141267.17	-1.2110727e-05	670756.3	194939.5	-5.3011026e-05	194940.67	670756.2	-1.5903308e-05
0	0.61803764	0.6180368	-2.3255417e-10	0.06293254	0.06293254	0	141194.88	141194.67	-5.363322e-05	670933.3	194318.27	-9.0118745e-05	194319.39	670933.25	-0.0002624046
0	0.61771864	0.6177178	-7.583288e-11	0.06257906	0.06257905	0	141122	141121.8	-1.7301038e-05	671110.3	193694.72	-0.00011662426	193695.88	671110.25	-5.3011026e-06
0	0.6173981	0.61739725	-1.3649919e-10	0.062225346	0.062225346	0	141048.77	141048.58	-2.9411765e-05	671287.3	193068.95	-0.00010602205	193070.1	671287.25	-0.00011397371
0	0.61707616	0.6170753	-1.6177681e-10	0.06187188	0.06187188	0	140975.2	140975.02	-3.4602075e-05	671464.2	192441.28	-6.361323e-05	192442.4	671464.1	-0.00016698473
0	0.61675256	0.61675173	-1.8199892e-10	0.061518256	0.061518256	0	140901.3	140901.1	-3.8062284e-05	671641	191811.48	-0.00015903308	191812.64	671640.94	-9.541985e-05
0	0.6164278	0.61642694	-1.1122156e-10	0.061164834	0.061164834	0	140827.08	140826.89	-2.5951556e-05	671817.6	191180.12	-7.421544e-05	191181.25	671817.5	-0.00010602205
0	0.61610126	0.6161005	-1.693601e-10	0.060811136	0.060811136	0	140752.48	140752.31	-3.8062284e-05	671994.25	190546.45	-9.541985e-05	190547.55	671994.1	-0.00014843087
0	0.6157731	0.61577225	-3.5388678e-11	0.060457654	0.060457654	0	140677.53	140677.33	-1.0380623e-05	672170.8	189910.44	0	189911.6	672170.7	-5.4336302e-05
0	0.61544365	0.6154428	-1.3144366e-10	0.060104024	0.060104024	0	140602.27	140602.05	-3.114187e-05	672347.2	189272.77	-5.3011026e-05	189273.88	672347.2	-0.0001033715
0	0.6151126	0.61511165	-6.319407e-11	0.059750553	0.059750553	0	140526.61	140526.42	-1.5570935e-05	672523.5	188632.83	-2.120441e-05	188633.95	672523.56	-6.096268e-05
0	0.6147797	0.6147789	-1.3902694e-10	0.059396856	0.059396863	0	140450.56	140450.38	-3.114187e-05	672699.8	187990.64	-5.3011026e-05	187991.77	672699.8	-0.00013782867
0	0.61444527	0.61444455	-2.8816494e-10	0.05904343	0.05904343	0	140374.17	140374	-6.747405e-05	672876.1	187346.2	-0.00022264631	187347.36	672876.06	-0.00018553859
0	0.6141098	0.614109	-1.3397142e-10	0.058689952	0.05868996	0	140297.53	140297.34	-2.9411765e-05	673051.94	186700.69	-2.7830789e-05	186701.83	673051.9	-0.00018023749
0	0.6137725	0.6137717	-1.7188787e-10	0.05833626	0.05833627	0	140220.45	140220.28	-3.9792387e-05	673227.8	186052.58	-0.00013782867	186053.67	673227.75	-0.00011927481
0	0.61343306	0.6134322	-1.9210997e-10	0.057982814	0.057982814	0	140142.92	140142.73	-4.49827e-05	673403.9	185401.33	-0.00010602205	185402.45	673403.8	-0.00015903308
0	0.61309254	0.6130917	-2.5783178e-10	0.05762915	0.05762915	0	140065.12	140064.95	-5.363322e-05	673579.5	184749.03	-0.00011662426	184750.14	673579.5	-0.00021999575
0	0.6127507	0.6127499	-1.2133261e-10	0.057275683	0.057275683	0	139987.02	139986.84	-2.5951556e-05	673754.9	184094.97	-0.00010072095	184096.1	673754.8	-7.951654e-05
0	0.61240655	0.6124057	-8.594393e-11	0.056922052	0.056922052	0	139908.4	139908.2	-2.0761247e-05	673930.5	183437.55	-2.120441e-05	183438.7	673930.5	-0.000108672604
0	0.6120611	0.61206025	-1.6177681e-10	0.056568604	0.056568604	0	139829.47	139829.3	-3.4602075e-05	674105.7	182778.61	-0.00011662426	182779.72	674105.8	-0.00012987701
0	0.61171436	0.61171347	-2.5277627e-10	0.05621492	0.05621492	0	139750.28	139750.08	-5.1903113e-05	674280.75	182118.16	-0.00012722646	182119.3	674280.75	-0.00020077926
0	0.6113652	0.6113643	0	0.05586146	0.05586146	0	139670.5	139670.3	1.7301038e-06	674456	181454.08	-1.0602205e-05	181455.2	674456.06	2.6505513e-06
0	0.61101454	0.61101377	-9.099946e-11	0.055507787	0.055507787	0	139590.4	139590.2	-2.0761247e-05	674631	180788.25	-2.3854962e-05	180789.38	674631	-9.0118745e-05
0	0.61066294	0.6106622	-1.8452667e-10	0.055154327	0.055154327	0	139510.1	139509.9	-3.9792387e-05	674805.56	180121.56	-0.00017493639	180122.66	674805.5	-0.0001245759
0	0.6103089	0.61030805	-1.7441562e-10	0.05480086	0.05480086	0	139429.19	139429	-3.8062284e-05	674980.25	179451.02	-4.240882e-05	179452.14	674980.25	-0.0001961408
0	0.6099538	0.609953	-1.2638814e-11	0.05444718	0.05444718	0	139348.06	139347.88	-6.920415e-06	675154.56	178779.67	2.7830789e-05	178780.8	675154.56	-3.975827e-05
0	0.60959625	0.6095955	-1.2386037e-10	0.054093737	0.054093737	0	139266.39	139266.2	-2.9411765e-05	675329	178104.66	-5.831213e-05	178105.78	675329	-0.0001033715
0	0.60923743	0.6092366	-4.0444204e-11	0.05374005	0.05374005	0	139184.39	139184.22	-6.920415e-06	675503.1	177428.12	-8.481764e-05	177429.23	675503.1	1.855386e-05
0	0.60887676	0.608876	-1.5672129e-10	0.0533866	0.0533866	0	139102	139101.81	-3.4602075e-05	675677.06	176749.22	-9.541985e-05	176750.33	675677.1	-0.00014312977
0	0.6085144	0.60851365	-1.6177681e-10	0.053032972	0.053032972	0	139019.22	139019.03	-3.633218e-05	675850.9	176068.16	-0.00010602205	176069.25	675850.94	-0.00013517811
0	0.6081502	0.6081494	-1.8199892e-10	0.052679513	0.052679513	0	138936.02	138935.84	-4.4117645e-05	676024.6	175384.6	-0.00010602205	175385.7	676024.6	-0.00017228583
0	0.607785	0.6077842	-1.8452667e-10	0.052325826	0.052325826	0	138852.58	138852.4	-3.9792387e-05	676197.8	174700.12	-0.00015770781	174701.25	676197.8	-9.80704e-05
0	0.60741717	0.60741633	-1.5672129e-10	0.05197238	0.05197238	0	138768.55	138768.38	-3.3737026e-05	676371.1	174011.77	-0.00010072095	174012.89	676371.1	-0.00010072095
0	0.60704803	0.60704726	-1.5924904e-10	0.051618703	0.051618703	0	138684.22	138684.05	-3.633218e-05	676544.2	173322.05	-0.00011662426	173323.14	676544.1	-0.000111323156
0	0.6066767	0.6066759	-6.572183e-11	0.051265247	0.051265247	0	138599.39	138599.22	-1.384083e-05	676717.06	172629.19	-4.240882e-05	172630.28	676717.06	-4.5059372e-05
0	0.60630363	0.6063028	-9.8582746e-11	0.05091177	0.05091177	0	138514.16	138513.97	-2.1626298e-05	676889.8	171934.06	-2.120441e-05	171935.17	676889.9	-0.000111323156
0	0.605929	0.6059283	-2.5783178e-10	0.0505581	0.0505581	0	138428.6	138428.4	-6.228374e-05	677062.25	171237.38	-0.00014843087	171238.47	677062.25	-0.00023059796
0	0.60555303	0.60555226	-2.3255417e-10	0.050204646	0.050204642	0	138342.67	138342.5	-5.449827e-05	677234.3	170538.84	-0.00012722646	170539.94	677234.3	-0.00020409244
0	0.605175	0.6051742	-4.549973e-11	0.04985097	0.04985097	0	138256.31	138256.12	-1.1245675e-05	677406.2	169837.7	-7.421544e-05	169838.8	677406.25	1.4578032e-05
0	0.6047946	0.60479385	-2.3760968e-10	0.049497508	0.049497508	0	138169.4	138169.23	-5.2768166e-05	677578.1	169133.25	-8.481764e-05	169134.36	677578.1	-0.00025445293
0	0.6044126	0.60441184	-1.9210997e-10	0.0491439	0.0491439	0	138082.14	138081.97	-4.4117645e-05	677749.6	168426.92	-0.00018023749	168428.02	677749.75	-6.626378e-05
0	0.6040288	0.60402805	-1.5672129e-10	0.048790433	0.048790433	0	137994.47	137994.3	-3.4602075e-05	677921.06	167718.28	-0.00010602205	167719.38	677921.06	-0.00012358195
0	0.60364324	0.60364246	-1.8705444e-10	0.048436753	0.048436753	0	137906.38	137906.2	-4.1522493e-05	678092.1	167007.36	-9.541985e-05	167008.44	678092.06	-0.00019349024
0	0.60325587	0.6032551	-1.9716549e-10	0.04808329	0.04808329	0	137817.88	137817.7	-4.7577854e-05	678262.9	166294.23	-6.096268e-05	166295.31	678262.9	-0.00024120016
0	0.6028662	0.6028655	-1.7188787e-10	0.04772963	0.04772963	0	137728.84	137728.69	-3.8927337e-05	678433.6	165578.02	-0.00012722646	165579.1	678433.6	-0.000100058314
0	0.6024753	0.6024745	-2.098043e-10	0.047376156	0.047376156	0	137639.53	137639.38	-4.67128e-05	678603.9	164860.44	-9.541985e-05	164861.53	678603.9	-0.00017493639
0	0.60208225	0.60208154	-1.0111051e-10	0.047022674	0.047022674	0	137549.77	137549.58	-2.249135e-05	678773.9	164140.25	-9.939567e-05	164141.34	678773.9	-4.7709924e-05
0	0.60168666	0.60168594	0	0.046669018	0.046669018	0	137459.36	137459.2	8.650519e-07	678944	163416.25	7.421544e-05	163417.33	678944	-3.4457167e-05
0	0.6012899	0.60128915	-1.8452667e-10	0.046315555	0.04631556	0	137368.75	137368.58	-4.1522493e-05	679113.4	162691.47	-0.00010602205	162692.56	679113.4	-0.00012722646
0	0.60089093	0.6008903	-2.5783178e-10	0.045961883	0.045961883	0	137277.6	137277.42	-5.536332e-05	679282.6	161963.7	-0.00018553859	161964.8	679282.7	-0.00015903308
0	0.6004902	0.6004895	-7.583288e-11	0.04560841	0.04560841	0	137186.05	137185.88	-2.1626298e-05	679451.56	161233.66	-4.240882e-05	161234.75	679451.7	-7.1564886e-05
0	0.6000873	0.60008657	-1.1880484e-10	0.04525482	0.04525482	0	137093.98	137093.8	-2.5951556e-05	679620.4	160500.77	-2.120441e-05	160501.84	679620.44	-0.00011927481
0	0.5996827	0.5996819	-8.088841e-11	0.044901337	0.044901337	0	137001.56	137001.38	-1.816609e-05	679788.75	159765.89	-5.3011026e-06	159766.97	679788.8	-0.000111323156
0	0.59927547	0.5992748	-4.0444204e-11	0.04454768	0.04454768	0	136908.53	136908.36	-1.1245675e-05	679957	159027.64	-6.8914334e-05	159028.72	679957.1	0
0	0.5988675	0.5988667	-1.7441562e-10	0.04419421	0.04419421	0	136815.33	136815.14	-4.065744e-05	680124.6	158288.78	-0.00011662426	158289.86	680124.6	-0.00012722646
0	0.59845674	0.59845597	-5.0555254e-11	0.04384056	0.04384056	0	136721.47	136721.33	-1.0380623e-05	680292.1	157546.31	2.120441e-05	157547.38	680292.1	-8.216709e-05
0	0.59804386	0.5980431	-1.7694339e-10	0.043487065	0.043487065	0	136627.16	136627	-3.9792387e-05	680459.3	156800.98	-0.00023324852	156802.05	680459.3	-3.8432994e-05
0	0.59762895	0.5976283	-1.5672129e-10	0.043133583	0.043133583	0	136532.38	136532.2	-4.1522493e-05	680626.25	156053.25	-8.481764e-05	156054.33	680626.25	-0.00014578032
0	0.597212	0.5972113	-1.0111051e-11	0.042779934	0.042779934	0	136437.11	136436.95	-5.1903116e-06	680792.8	155302.95	0	155304.05	680792.9	-5.3011026e-06
0	0.59679323	0.5967925	-1.5419352e-10	0.042426437	0.042426437	0	136341.42	136341.27	-3.200692e-05	680959.06	154550.4	-7.421544e-05	154551.48	680959.06	-0.00012192536
0	0.59637225	0.59637153	-2.0727654e-10	0.042072807	0.042072807	0	136245.27	136245.1	-4.67128e-05	681124.94	153795.16	-0.0001908397	153796.22	681125	-0.000111323156
0	0.5959494	0.5959487	-2.1485982e-10	0.04171931	0.04171931	0	136148.66	136148.5	-4.8442907e-05	681290.44	153037.75	-0.00011662426	153038.81	681290.44	-0.00019879134
0	0.5955243	0.59552366	-1.3649919e-10	0.041365743	0.041365743	0	136051.55	136051.39	-2.681661e-05	681455.56	152277.44	-8.481764e-05	152278.48	681455.6	-0.000111323156
0	0.5950968	0.5950961	-9.352722e-11	0.041012246	0.041012246	0	135953.88	135953.72	-2.0761247e-05	681620.6	151513.92	-8.481764e-05	151514.98	681620.6	-4.5059372e-05
0	0.5946676	0.59466684	-1.1122156e-10	0.040658608	0.040658608	0	135855.81	135855.67	-2.5951556e-05	681785	150748.58	-6.361323e-05	150749.66	681785	-9.541985e-05
0	0.5942365	0.5942358	-9.099946e-11	0.040305126	0.040305126	0	135757.34	135757.19	-2.249135e-05	681948.94	149981.1	-2.5180238e-05	149982.16	681949	-0.000108672604
0	0.593803	0.5938023	-1.2638814e-10	0.03995149	0.03995149	0	135658.3	135658.14	-2.8546712e-05	682112.7	149210.48	-4.240882e-05	149211.55	682112.7	-0.00013252757
0	0.59336704	0.5933663	-1.0111051e-10	0.039597988	0.039597988	0	135558.69	135558.55	-2.33564e-05	682276.06	148436.73	-2.120441e-05	148437.78	682276.1	-0.00012722646
0	0.5929297	0.592929	-1.06166034e-10	0.039244484	0.039244484	0	135458.78	135458.62	-2.4221454e-05	682438.9	147661.67	-3.1806616e-05	147662.7	682438.94	-8.7468194e-05
0	0.5924889	0.59248817	-6.572183e-11	0.03889085	0.03889085	0	135358.1	135357.94	-1.2110727e-05	682601.7	146881.7	1.0602205e-05	146882.75	682601.8	-8.216709e-05
0	0.59204674	0.5920461	-1.8199892e-10	0.03853734	0.03853734	0	135257.08	135256.92	-3.8062284e-05	682763.75	146100.64	-0.00015903308	146101.69	682763.9	-0.00010072095
0	0.59160256	0.59160185	-2.4519298e-10	0.03818373	0.03818373	0	135155.6	135155.44	-5.6228375e-05	682925.4	145317.12	-0.00015903308	145318.16	682925.5	-0.00019349024
0	0.5911558	0.5911552	-1.3902694e-10	0.037830215	0.037830215	0	135053.53	135053.38	-3.2871973e-05	683086.8	144530.34	-0.00010602205	144531.38	683086.9	-0.00010072095
0	0.5907068	0.59070617	-2.173876e-10	0.037476584	0.037476584	0	134950.97	134950.81	-4.8442907e-05	683247.8	143740.8	-0.00016433418	143741.83	683247.9	-0.00013252757
0	0.590256	0.59025526	-1.7188787e-10	0.037123162	0.03712316	0	134847.94	134847.8	-4.1522493e-05	683408.06	142949.2	-0.00012722646	142950.27	683408.2	-0.00010966656
0	0.58980244	0.5898017	-1.7947115e-10	0.036769543	0.03676954	0	134744.36	134744.2	-4.1522493e-05	683568.1	142154.22	-0.00010602205	142155.25	683568.25	-0.00013252757
0	0.5893472	0.58934647	-1.8199892e-10	0.036416043	0.036416043	0	134640.34	134640.19	-4.1522493e-05	683727.56	141357.38	-0.0001908397	141358.4	683727.75	-5.831213e-05
0	0.58888924	0.5888886	-1.3144366e-10	0.036062416	0.036062416	0	134535.7	134535.58	-2.9411765e-05	683886.75	140557.14	-0.00010602205	140558.17	683886.8	-9.210666e-05
0	0.5884292	0.5884285	-1.7947115e-10	0.0357089	0.035708897	0	134430.62	134430.47	-3.8927337e-05	684045.3	139754.52	-0.00011662426	139755.53	684045.44	-0.00013782867
0	0.5879665	0.58796585	-5.561078e-11	0.035355378	0.035355378	0	134324.92	134324.78	-1.7301038e-05	684203.6	138948.5	-3.4457167e-05	138949.53	684203.7	-5.0360475e-05
0	0.58750165	0.587501	-1.3270754e-10	0.035001762	0.03500176	0	134218.72	134218.58	-2.768166e-05	684361.4	138139.97	-0.00012192536	138141.02	684361.44	-2.9818702e-05
0	0.58703417	0.58703357	-2.780539e-11	0.034648236	0.034648236	0	134111.92	134111.78	-1.2110727e-05	684518.6	137328.25	-4.240882e-05	137329.28	684518.75	-5.3011026e-06
0	0.58656496	0.58656436	-7.709676e-11	0.034294643	0.034294643	0	134004.73	134004.6	-1.7301038e-05	684675.3	136514.69	-4.240882e-05	136515.72	684675.44	-5.831213e-05
0	0.58609277	0.5860921	-1.5419352e-10	0.03394112	0.033941116	0	133896.84	133896.69	-3.4602075e-05	684831.6	135697.17	-0.00015903308	135698.19	684831.75	-6.924565e-05
0	0.58561903	0.5856184	-1.4029083e-10	0.033587504	0.033587504	0	133788.62	133788.48	-3.200692e-05	684987.2	134878.4	-0.00010602205	134879.44	684987.4	-9.2769296e-05
0	0.585142	0.58514136	-8.720781e-11	0.03323407	0.03323407	0	133679.64	133679.5	-2.0761247e-05	685142.56	134055.25	-8.349236e-05	134056.28	685142.7	-4.7709924e-05
0	0.5846632	0.58466256	-1.4408247e-10	0.03288047	0.03288047	0	133570.25	133570.11	-3.3737026e-05	685297.2	133230.31	-0.00012722646	133231.33	685297.25	-7.7528624e-05
0	0.584182	0.58418137	-1.5419352e-10	0.032526955	0.03252695	0	133460.31	133460.19	-3.200692e-05	685451.25	132402.5	-0.00016963528	132403.5	685451.4	-3.710772e-05
0	0.58369756	0.58369696	-1.2638814e-10	0.032173358	0.032173354	0	133349.66	133349.5	-2.9411765e-05	685605.06	131570.55	-0.00017394243	131571.53	685605.2	2.6505513e-06
0	0.58321154	0.583211	-4.1708085e-11	0.03181982	0.03181982	0	133238.62	133238.47	-9.515571e-06	685758.06	130737.15	-0.00014312977	130738.13	685758.2	6.8914334e-05
0	0.5827226	0.582722	-9.099946e-11	0.03146627	0.03146627	0	133126.9	133126.78	-2.1626298e-05	685910.56	129900	0	129901	685910.75	-0.00011927481
0	0.5822308	0.5822302	5.0555254e-12	0.031112673	0.031112673	0	133014.55	133014.4	1.7301038e-06	686062.75	129059.37	-1.0602205e-05	129060.37	686062.9	7.951654e-06
0	0.58173764	0.581737	-1.2386037e-10	0.030759128	0.030759128	0	132901.88	132901.73	-2.681661e-05	686213.94	128217.71	-0.000111323156	128218.695	686214	-7.951654e-05
0	0.5812411	0.58124053	-1.06166034e-10	0.030405568	0.030405568	0	132788.47	132788.31	-2.5086505e-05	686364.8	127371.73	-5.831213e-05	127372.73	686364.94	-9.2769296e-05
0	0.58074266	0.58074206	-3.2860915e-11	0.030052012	0.030052012	0	132674.58	132674.44	-8.650519e-06	686514.94	126523.82	-9.541985e-05	126524.805	686515.06	3.1806616e-05
0	0.58024096	0.5802403	-6.8249593e-11	0.029698428	0.029698431	0	132559.95	132559.81	-1.384083e-05	686664.6	125671.68	-6.361323e-05	125672.66	686664.8	-7.951654e-06
0	0.5797374	0.57973677	1.0111051e-11	0.02934498	0.029344976	0	132444.9	132444.77	2.5951558e-06	686813.5	124817.83	-3.1806616e-05	124818.83	686813.7	5.831213e-05
0	0.57923055	0.57923	-1.1880484e-10	0.028991407	0.028991407	0	132329.12	132329	-2.8546712e-05	686962	123959.836	-0.00013716603	123960.82	686962.1	-4.5059372e-05
0	0.57872134	0.5787208	-9.352722e-11	0.028637841	0.028637841	0	132212.8	132212.66	-1.816609e-05	687109.8	123099.1	-5.3011026e-06	123100.086	687109.94	-0.00012722646
0	0.57820964	0.5782091	-3.2860915e-11	0.028284302	0.028284302	0	132095.89	132095.77	-6.0553634e-06	687256.94	122235.56	0	122236.54	687257.1	-4.5059372e-05
0	0.5776954	0.57769483	-7.583288e-11	0.02793073	0.02793073	0	131978.4	131978.28	-1.7301038e-05	687403.4	121369.21	-8.084181e-05	121370.17	687403.6	-1.3252757e-05
0	0.57717824	0.5771777	-1.7188787e-10	0.027577164	0.027577164	0	131860.28	131860.12	-4.1522493e-05	687549.3	120499.29	-7.421544e-05	120500.25	687549.5	-0.00017493639
0	0.5766587	0.5766582	-1.9400578e-10	0.02722359	0.02722359	0	131741.56	131741.44	-4.4117645e-05	687694.56	119626.695	-0.00014312977	119627.67	687694.7	-0.00012987701
0	0.57613635	0.57613575	-7.0777356e-11	0.026870025	0.026870025	0	131622.25	131622.1	-1.7733564e-05	687838.94	118750.99	-6.361323e-05	118751.94	687839.1	-2.9156065e-05
0	0.5756115	0.57561094	-2.098043e-10	0.026516486	0.026516486	0	131502.33	131502.19	-4.9307957e-05	687982.75	117872.31	-0.0001961408	117873.28	687982.94	-8.7468194e-05
0	0.57508373	0.57508314	2.5277627e-11	0.026162913	0.026162913	0	131381.77	131381.62	6.920415e-06	688125.94	116990.305	-9.0118745e-05	116991.266	688126.06	0.00012722646
0	0.57455325	0.5745527	-8.088841e-11	0.025809351	0.025809351	0	131260.6	131260.44	-1.9463669e-05	688268.4	116105.3	-6.162532e-05	116106.25	688268.5	-3.975827e-05
0	0.57402027	0.57401973	2.780539e-11	0.025455885	0.025455885	0	131138.81	131138.67	6.920415e-06	688410.06	115217.33	-4.5059372e-05	115218.28	688410.25	7.686599e-05
0	0.573484	0.57348347	-1.693601e-10	0.025102321	0.025102323	0	131016.29	131016.17	-3.8062284e-05	688551.2	114325.54	-0.00013782867	114326.49	688551.4	-0.000111323156
0	0.57294565	0.5729452	4.549973e-11	0.024748754	0.024748754	0	130893.29	130893.18	1.0380623e-05	688691.44	113431.59	-5.3011026e-06	113432.54	688691.56	6.096268e-05
0	0.5724036	0.5724031	-9.099946e-11	0.024395216	0.024395216	0	130769.49	130769.35	-2.032872e-05	688831.06	112533.1	-5.831213e-05	112534.05	688831.25	-7.686599e-05
0	0.5718601	0.5718595	-1.662004e-10	0.024041645	0.024041645	0	130645.3	130645.164	-3.6764704e-05	688969.56	111633.5	-9.541985e-05	111634.45	688969.8	-0.00012722646
0	0.57131225	0.5713118	-1.4661024e-10	0.023688078	0.023688078	0	130520.15	130520.016	-3.4602075e-05	689107.8	110728.41	-0.00022794741	110729.34	689108.06	3.710772e-05
0	0.5707628	0.5707622	-7.8360644e-11	0.023334509	0.023334509	0	130394.6	130394.484	-2.1193771e-05	689244.9	109822.03	-0.00010072095	109822.98	689245.06	-2.120441e-05
0	0.5702099	0.57020944	-1.3902694e-10	0.022980941	0.022980941	0	130268.305	130268.195	-3.2871973e-05	689381.4	108911.586	-0.00016433418	108912.516	689381.56	-2.6505513e-05
0	0.56965405	0.5696535	-1.895822e-10	0.02262741	0.02262741	0	130141.31	130141.17	-4.1089967e-05	689517.1	107997.61	-0.00016698473	107998.55	689517.25	-9.80704e-05
0	0.56909543	0.569095	-4.4235848e-11	0.02227384	0.02227384	0	130013.7	130013.56	-9.515571e-06	689651.94	107080.76	2.418628e-05	107081.69	689652.1	-8.216709e-05
0	0.5685337	0.56853324	-1.3397142e-10	0.02192028	0.02192028	0	129885.37	129885.25	-3.3737026e-05	689786.1	106160.21	-0.00012192536	106161.16	689786.3	-9.80704e-05
0	0.56796926	0.5679687	-5.0555254e-11	0.021566791	0.021566791	0	129756.41	129756.29	-1.3408305e-05	689919.3	105236.73	-1.5903308e-05	105237.66	689919.5	-5.5661578e-05
0	0.5674018	0.56740135	-7.583288e-12	0.021213219	0.021213219	0	129626.766	129626.664	-2.5951558e-06	690051.56	104310.055	-3.1806616e-05	104310.99	690051.8	1.5903308e-05
0	0.56683147	0.566831	-8.088841e-11	0.020859655	0.020859655	0	129496.484	129496.36	-1.5570935e-05	690183.2	103380.02	-1.0602205e-05	103380.93	690183.3	-9.2769296e-05
0	0.56625843	0.56625795	-1.2133261e-10	0.020506123	0.020506123	0	129365.57	129365.445	-2.5519032e-05	690313.75	102447.14	-5.5661578e-05	102448.06	690313.94	-0.00011662426
0	0.5656816	0.5656811	-4.1392115e-11	0.020152563	0.020152563	0	129233.76	129233.65	-9.515571e-06	690443.7	101509.57	-0.00012192536	101510.49	690443.9	5.831213e-05
0	0.56510186	0.5651013	-1.5419352e-10	0.019798994	0.019798994	0	129101.33	129101.21	-3.2871973e-05	690572.6	100568.984	-7.951654e-05	100569.88	690572.94	-0.00013517811
0	0.56451964	0.56451917	-1.4281859e-10	0.019445425	0.019445425	0	128968.31	128968.2	-3.114187e-05	690700.7	99625.914	-0.00010072095	99626.82	690700.9	-0.000111323156
0	0.56393385	0.5639334	-1.842107e-10	0.019091865	0.019091865	0	128834.49	128834.39	-4.3252596e-05	690827.8	98678.78	-2.120441e-05	98679.695	690827.94	-0.00025975402
0	0.5633457	0.56334513	-1.4313456e-10	0.018738292	0.018738292	0	128700.1	128699.99	-3.114187e-05	690953.9	97729.12	-0.00014843087	97730.016	690954.1	-4.240882e-05
0	0.56275386	0.56275344	-1.4321355e-10	0.01838477	0.01838477	0	128564.91	128564.81	-3.33045e-05	691079.1	96775.39	-0.000102708866	96776.28	691079.4	-9.0118745e-05
0	0.562159	0.5621585	-1.0821984e-10	0.018031208	0.018031208	0	128429.016	128428.914	-2.33564e-05	691203.44	95818.31	-3.710772e-05	95819.22	691203.6	-0.00012026876
0	0.56156045	0.56156	-1.2844194e-10	0.017677689	0.017677689	0	128292.27	128292.164	-2.5519032e-05	691326.9	94856.805	-1.0602205e-05	94857.7	691327.1	-0.00015638252
0	0.5609591	0.5609586	-1.6280371e-10	0.017324118	0.01732412	0	128154.88	128154.8	-3.50346e-05	691449.4	93892.52	-0.00016433418	93893.41	691449.6	-6.8914334e-05
0	0.5603549	0.56035435	-1.3776306e-10	0.016970558	0.016970558	0	128016.836	128016.75	-3.2439446e-05	691570.75	92925.19	-0.00011397371	92926.08	691571	-8.481764e-05
0	0.5597468	0.5597463	-2.843733e-11	0.016617035	0.016617035	0	127877.93	127877.83	-6.0553634e-06	691691.1	91953.49	-0.00018553859	91954.4	691691.4	0.00014843087
0	0.55913585	0.5591354	-1.6098689e-10	0.016263478	0.016263478	0	127738.35	127738.24	-3.654844e-05	691810.56	90978.664	-0.0001331902	90979.55	691810.8	-8.481764e-05
0	0.55852187	0.5585214	-2.9069271e-11	0.01590991	0.01590991	0	127598.08	127598	-7.839533e-06	691928.94	90000.8	-6.626378e-05	90001.69	691929.25	3.4457167e-05
0	0.55790395	0.5579036	-1.129594e-10	0.015556336	0.015556336	0	127456.91	127456.805	-2.4221454e-05	692046.4	89018.23	-5.3011026e-05	89019.1	692046.75	-0.000108672604
0	0.557283	0.55728245	-1.1406529e-10	0.015202784	0.015202784	0	127315.06	127314.96	-2.5735295e-05	692162.7	88032.52	-0.000111323156	88033.41	692163	-6.560115e-05
0	0.5566591	0.55665874	-7.962452e-11	0.014849214	0.014849216	0	127172.54	127172.44	-1.8382352e-05	692277.94	87043.98	-5.5661578e-05	87044.85	692278.2	-7.951654e-05
0	0.5560312	0.5560308	-1.2512426e-10	0.014495703	0.014495703	0	127029.09	127028.99	-2.9411765e-05	692392.2	86050.67	-0.00013252757	86051.54	692392.5	-4.7709924e-05
0	0.55540067	0.55540025	-1.2259649e-10	0.014142151	0.014142151	0	126885.04	126884.92	-2.7465398e-05	692505.25	85054.766	-6.8914334e-05	85055.63	692505.5	-0.00010602205
0	0.55476683	0.55476636	-2.098043e-10	0.013788582	0.013788582	0	126740.22	126740.12	-4.628028e-05	692617.1	84055.52	-0.00025180238	84056.38	692617.44	-4.5059372e-05
0	0.5541283	0.5541279	-1.0679797e-10	0.013435013	0.013435013	0	126594.35	126594.266	-2.5086505e-05	692728.1	83050.57	-5.831213e-05	83051.42	692728.44	-9.0118745e-05
0	0.5534875	0.5534871	2.5277627e-12	0.013081457	0.013081457	0	126447.95	126447.875	2.5951558e-06	692837.8	82043.87	-8.481764e-05	82044.734	692838.1	8.481764e-05
0	0.5528431	0.5528427	-2.4013746e-11	0.012727942	0.012727942	0	126300.74	126300.64	-3.6764707e-06	692946.5	81033.05	-6.361323e-05	81033.9	692946.75	4.5059372e-05
0	0.55219465	0.55219424	4.549973e-11	0.012374377	0.012374377	0	126152.59	126152.51	1.0380623e-05	693054	80017.7	-7.421544e-05	80018.55	693054.25	0.00016433418
0	0.5515429	0.55154246	-5.687466e-11	0.012020823	0.012020823	0	126003.7	126003.6	-1.1353806e-05	693160.2	78998.98	-9.541985e-05	78999.83	693160.5	2.120441e-05
0	0.55088794	0.5508876	-1.6304069e-10	0.011667254	0.011667254	0	125854.09	125853.98	-3.611592e-05	693265.1	77977.164	-0.00015638252	77978.016	693265.44	-7.686599e-05
0	0.5502288	0.5502284	-1.1690902e-10	0.011313705	0.011313705	0	125703.49	125703.41	-3.0060553e-05	693369.2	76950.305	-0.00012987701	76951.15	693369.5	-4.5059372e-05
0	0.5495667	0.5495663	-1.832628e-10	0.01096014	0.01096014	0	125552.22	125552.125	-4.2603806e-05	693471.75	75920.73	-0.00014047921	75921.555	693472.06	-0.00012987701
0	0.5489004	0.5489	-2.1865147e-10	0.010606609	0.010606609	0	125400	125399.92	-4.865917e-05	693573.25	74886.5	-0.00018553859	74887.336	693573.56	-0.00013782867
0	0.54823095	0.5482305	-1.4092277e-10	0.010253062	0.010253062	0	125247.05	125246.96	-3.3196367e-05	693673.44	73849.086	-0.00017891222	73849.92	693673.7	-2.9156065e-05
0	0.5475571	0.54755676	-1.0427021e-10	0.009899497	0.009899497	0	125093.13	125093.05	-2.5735295e-05	693772.3	72806.87	-0.00013252757	72807.7	693772.6	-2.120441e-05
0	0.54688025	0.5468799	3.5388678e-11	0.0095459325	0.0095459325	0	124938.48	124938.41	7.2448097e-06	693869.94	71761.6	6.4938504e-05	71762.42	693870.25	-2.3854962e-05
0	0.5461999	0.54619956	1.5166576e-11	0.009192386	0.009192386	0	124783.07	124782.97	3.6764707e-06	693966.25	70712.82	-4.5059372e-05	70713.63	693966.56	6.626378e-05
0	0.5455154	0.5455151	-8.341617e-11	0.0088388445	0.0088388445	0	124626.68	124626.61	-2.1518166e-05	694061.25	69659.62	-7.1564886e-05	69660.42	694061.6	-6.361323e-05
0	0.5448273	0.5448269	-5.43469e-11	0.00848528	0.008485279	0	124469.48	124469.375	-1.5300606e-05	694154.94	68602.42	1.1927481e-05	68603.23	694155.25	-8.7468194e-05
0	0.54413486	0.54413444	-1.5529943e-10	0.008131739	0.008131738	0	124311.27	124311.2	-3.265571e-05	694247.2	67540.68	-9.541985e-05	67541.49	694247.6	-0.00010072095
0	0.5434389	0.5434385	-1.693601e-10	0.007778168	0.007778168	0	124152.266	124152.195	-3.917063e-05	694338.25	66475.36	-0.0001524067	66476.16	694338.5	-9.80704e-05
0	0.54273945	0.5427391	-2.0854042e-10	0.007424608	0.007424607	0	123992.484	123992.4	-4.3847318e-05	694427.75	65406.566	-1.7891221e-05	65407.37	694428.1	-0.0002624046
0	0.5420358	0.54203546	-6.8249593e-11	0.0070710755	0.0070710755	0	123831.74	123831.664	-1.421929e-05	694515.9	64333.414	-0.00012192536	64334.21	694516.2	3.1806616e-05
0	0.5413277	0.5413274	-5.3083017e-11	0.0067175063	0.0067175063	0	123669.98	123669.91	-1.3029844e-05	694602.75	63255.28	0.00023589906	63256.074	694603.2	-0.00029686175