# t (s)	mx ()	my ()	mz ()	B_extx (T)	B_exty (T)	B_extz (T)	m_fullx (A/m)	m_fully (A/m)	m_fullz (A/m)	m_full.region1x (A/m)	m_full.region1y (A/m)	m_full.region1z (A/m)	m_full.region2x (A/m)	m_full.region2y (A/m)	m_full.region2z (A/m)
0	0.65395516	0.6539528	-3.6636424e-10	0.07071087	0.07071087	0	77454.445	77454.17	-4.125e-05	623990.4	291545.03	-0.00028073287	291546.84	623988.9	-0.00023455969
0	0.6538679	0.6538672	-3.1000053e-10	0.070569105	0.07056911	0	77444.125	77444.03	-3.4375e-05	624067.8	291346.94	-0.00029550827	291347.38	624067.1	-0.00013667258
0	0.6537752	0.65377456	-4.0863704e-10	0.07042788	0.07042789	0	77433.13	77433.055	-4.5e-05	624152.25	291132.66	-0.00023640662	291132.97	624151.75	-0.00028073287
0	0.65368193	0.65368134	-3.6636424e-10	0.07028652	0.07028653	0	77422.09	77422.016	-3.6875e-05	624238.1	290916.22	-0.00031397754	290916.53	624237.7	-0.00018838652
0	0.6535908	0.65359014	-1.2681839e-10	0.070144884	0.070144884	0	77411.29	77411.22	-2.125e-05	624322.56	290704.16	-0.00019208038	290704.53	624321.94	-3.509161e-05
0	0.653497	0.6534963	-3.5227332e-10	0.07000352	0.07000352	0	77400.18	77400.11	-3.5e-05	624407.94	290487.5	-0.00021793736	290487.8	624407.4	-0.00017730496
0	0.6534051	0.6534045	-1.1272746e-10	0.06986229	0.06986229	0	77389.29	77389.22	-3.75e-06	624492.56	290274.3	-0.00012559102	290274.66	624491.94	-3.6938534e-06
0	0.6533116	0.653311	-1.6909119e-10	0.069720544	0.069720544	0	77378.234	77378.15	-1.875e-05	624577.8	290058.2	-0.00021054964	290058.53	624577.2	-8.126478e-05
0	0.65321803	0.6532174	-3.8045517e-10	0.069579184	0.069579184	0	77367.15	77367.07	-4.5e-05	624663.25	289841.7	-0.0002068558	289842	624662.7	-0.0003324468
0	0.65312403	0.65312344	-5.213645e-10	0.069437966	0.069437966	0	77356.01	77355.94	-6.4375e-05	624748.5	289624.8	-0.00032875297	289625.12	624747.94	-0.0005319149
0	0.65303063	0.6530299	-1.1272746e-10	0.069296576	0.069296576	0	77344.945	77344.87	-2e-05	624833.9	289408.72	-8.495863e-05	289409.03	624833.25	-0.00013297872
0	0.65293735	0.6529368	-6.904557e-10	0.06915496	0.069154955	0	77333.91	77333.83	-7.75e-05	624918.6	289193.34	-0.00056146574	289193.66	624918	-0.00048020095
0	0.65284276	0.6528421	-4.5090984e-10	0.069013596	0.069013596	0	77322.695	77322.62	-5.375e-05	625004.44	288975.1	-0.00017730496	288975.44	625003.94	-0.00050236407
0	0.65274787	0.6527473	-2.9590957e-10	0.068872236	0.068872236	0	77311.46	77311.38	-3.5e-05	625089.75	288757	-0.00022532506	288757.34	625089.06	-0.00018838652
0	0.6526531	0.65265256	-2.9590957e-10	0.06873064	0.06873064	0	77300.24	77300.164	-3.75e-05	625175.44	288538.72	-0.00023640662	288539.06	625174.8	-0.00024748818
0	0.6525582	0.65255755	-4.650008e-10	0.06858927	0.06858927	0	77288.99	77288.91	-5.4375e-05	625261.6	288319.53	-0.0003324468	288319.8	625261	-0.0003730792
0	0.652464	0.65246326	-5.0727356e-10	0.06844801	0.06844801	0	77277.82	77277.75	-6e-05	625346.6	288102.47	-0.00029920213	288102.78	625346.06	-0.0004432624
0	0.65236807	0.65236735	-1.2681839e-10	0.06830665	0.06830665	0	77266.48	77266.38	-1.625e-05	625432.7	287882.2	-0.00014775414	287882.5	625432.06	-3.324468e-05
0	0.6522722	0.6522715	-1.8318212e-10	0.06816504	0.06816504	0	77255.125	77255.05	-2.375e-05	625519.06	287661.66	-0.00019577424	287662	625518.44	-0.0001108156
0	0.6521768	0.652176	-4.3681891e-10	0.068023674	0.068023674	0	77243.805	77243.73	-5e-05	625604.9	287442.22	-0.00031397754	287442.56	625604.3	-0.00035830378
0	0.6520808	0.6520801	-1.8318212e-10	0.06788232	0.06788232	0	77232.445	77232.37	-1.375e-05	625690.44	287222.28	-0.00019208038	287222.62	625689.8	-5.171395e-05
0	0.6519834	0.6519827	-4.790917e-10	0.067740716	0.067740716	0	77220.914	77220.84	-5.375e-05	625777	286999.47	-0.00030658985	286999.8	625776.3	-0.00036938535
0	0.6518868	0.6518861	4.7204624e-10	0.06759932	0.06759932	0	77209.47	77209.39	5.625e-05	625863	286778.2	0.00038416075	286778.5	625862.4	0.00028073287
0	0.6517912	0.6517907	-2.9590957e-10	0.06745809	0.06745809	0	77198.164	77198.08	-3.5e-05	625949.06	286558.47	-0.00028073287	286558.84	625948.44	-0.00013297872
0	0.65169406	0.6516934	-4.650008e-10	0.06731672	0.067316726	0	77186.64	77186.56	-5.8125e-05	626035.56	286335.78	-0.00050236407	286336.12	626034.94	-0.00023640662
0	0.65159655	0.65159595	-2.1136398e-10	0.067174986	0.067174986	0	77175.1	77175.016	-2.875e-05	626121.44	286113.5	-7.387707e-05	286113.84	626120.9	-0.00029550827
0	0.6514998	0.65149915	-3.2409145e-10	0.06703377	0.06703377	0	77163.64	77163.56	-3.5625e-05	626207.56	285891.8	-0.0003398345	285892.16	626207	-0.0001108156
0	0.6514018	0.65140104	-3.9454612e-10	0.066892385	0.066892385	0	77152.03	77151.945	-4.25e-05	626294.1	285668.06	-0.00025856975	285668.4	626293.5	-0.0003509161
0	0.65130395	0.6513033	-2.0431852e-10	0.06675076	0.06675075	0	77140.44	77140.36	-1.875e-05	626380.3	285444.84	-0.00023640662	285445.22	626379.7	-6.648936e-05
0	0.65120536	0.65120465	-2.8181865e-10	0.0666094	0.0666094	0	77128.76	77128.67	-2.75e-05	626467.4	285219.72	-0.00026595744	285220.06	626466.9	-9.973404e-05
0	0.65110826	0.6511076	-4.9318266e-10	0.06646816	0.06646817	0	77117.266	77117.19	-5.5e-05	626553.6	284997.6	-0.0004229462	284997.94	626553.06	-0.00028073287
0	0.6510092	0.6510085	-3.1704597e-10	0.06632643	0.06632643	0	77105.53	77105.445	-3.5e-05	626640.9	284771.66	-0.00034352837	284771.97	626640.25	-0.00017730496
0	0.6509108	0.6509102	-1.9727306e-10	0.06618507	0.06618507	0	77093.88	77093.805	-1.8125e-05	626727.3	284547.56	-0.0001034279	284547.88	626726.7	-0.00018469268
0	0.65081185	0.65081114	-9.863653e-11	0.06604384	0.06604385	0	77082.16	77082.07	-1.125e-05	626814.2	284322	-9.788712e-05	284322.38	626813.5	-6.648936e-05
0	0.65071225	0.6507116	-1.7613666e-10	0.065902434	0.065902434	0	77070.37	77070.28	-2.5e-05	626901.4	284095.53	-6.279551e-05	284095.88	626900.75	-0.00022532506
0	0.65061307	0.65061224	-9.440925e-10	0.06576085	0.06576085	0	77058.61	77058.52	-0.000111875	626987.94	283870.03	-0.00056146574	283870.38	626987.25	-0.0008348109
0	0.6505134	0.6505127	-3.8045517e-10	0.065619476	0.06561948	0	77046.805	77046.72	-4.625e-05	627074.6	283643.7	-0.00043402778	283644.1	627074	-0.00016991726
0	0.650413	0.65041226	-1.9727306e-10	0.06547825	0.06547825	0	77034.914	77034.83	-2.25e-05	627162.5	283415.38	-7.018322e-05	283415.66	627161.9	-0.00025118203
0	0.6503132	0.65031254	-7.045466e-11	0.06533652	0.065336525	0	77023.086	77023.016	-3.75e-06	627249.4	283188.72	-1.4775414e-05	283189.06	627248.75	-3.324468e-05
0	0.6502121	0.65021145	-7.1863754e-10	0.06519514	0.06519514	0	77011.125	77011.04	-8.0625e-05	627337	282959.66	-0.00044695626	282960	627336.4	-0.0004931294
0	0.65011173	0.65011114	-4.790917e-10	0.065053925	0.065053925	0	76999.25	76999.16	-6.25e-05	627423.94	282732.25	-0.00041925238	282732.6	627423.3	-0.00032136525
0	0.6500115	0.6500108	-3.5227332e-10	0.06491251	0.06491251	0	76987.36	76987.27	-3.625e-05	627510.75	282504.84	-0.00017730496	282505.22	627510.2	-0.00028812056
0	0.6499096	0.6499089	-4.650008e-10	0.06477093	0.06477092	0	76975.3	76975.22	-5.25e-05	627597.9	282275.25	-0.00041001773	282275.62	627597.2	-0.00025302896
0	0.6498083	0.6498075	-5.636373e-11	0.06462956	0.06462956	0	76963.29	76963.2	-1.375e-05	627686	282045.2	-2.216312e-05	282045.56	627685.44	-0.00013297872
0	0.649707	0.64970636	-3.6636424e-10	0.06448818	0.06448818	0	76951.3	76951.21	-4.1875e-05	627773.6	281815.84	-0.00026595744	281816.22	627772.9	-0.00027334515
0	0.6496048	0.6496042	-4.3681891e-10	0.0643466	0.0643466	0	76939.195	76939.11	-4.9375e-05	627860.9	281585.47	-0.0004765071	281585.84	627860.25	-0.0001588357
0	0.64950234	0.64950156	-5.636373e-11	0.06420524	0.06420524	0	76927.055	76926.97	-1.25e-06	627948.75	281354.16	-5.54078e-06	281354.53	627948.06	-1.4775414e-05
0	0.64940125	0.6494004	-8.454559e-11	0.064063966	0.064063966	0	76915.08	76914.984	-1e-05	628036.1	281125.2	-0.00013297872	281125.6	628035.44	4.432624e-05
0	0.64929783	0.6492971	-3.0295505e-10	0.06392258	0.06392258	0	76902.836	76902.75	-3.6875e-05	628124.25	280892.4	-0.00033059987	280892.7	628123.6	-0.00012559102
0	0.64919466	0.649194	-4.650008e-10	0.063781016	0.063781016	0	76890.625	76890.53	-5.875e-05	628212.4	280659.75	-0.0005097518	280660.12	628211.7	-0.0002142435
0	0.6490925	0.64909166	-2.8886413e-10	0.06363963	0.06363963	0	76878.51	76878.43	-3.6875e-05	628299.94	280429.06	-0.00025118203	280429.47	628299.4	-0.00013482565
0	0.6489889	0.6489881	-4.2272796e-10	0.06349824	0.06349824	0	76866.24	76866.16	-4.25e-05	628388.06	280195.97	-0.00021978428	280196.3	628387.44	-0.00031951832
0	0.6488854	0.6488848	-3.8750064e-10	0.06335669	0.06335668	0	76853.99	76853.9	-4.875e-05	628476.25	279963.1	-0.000302896	279963.44	628475.5	-0.0003176714
0	0.64878213	0.64878136	-2.2545492e-10	0.06321527	0.06321527	0	76841.75	76841.664	-2e-05	628563.75	279730.9	-0.00011820331	279731.25	628563.06	-0.0002142435
0	0.64867735	0.6486767	-4.650008e-10	0.06307404	0.06307404	0	76829.35	76829.26	-5.375e-05	628652.3	279495.66	-0.00027519208	279496.06	628651.56	-0.00036938535
0	0.6485728	0.648572	-4.051143e-10	0.06293266	0.062932655	0	76816.96	76816.875	-4.625e-05	628740.4	279261.2	-0.00027334515	279261.6	628739.7	-0.00025118203
0	0.648469	0.6484683	-4.0863704e-10	0.062790945	0.062790945	0	76804.664	76804.57	-5.625e-05	628828	279028.16	-0.0003398345	279028.53	628827.44	-0.00032136525
0	0.6483637	0.64836305	-9.511379e-11	0.062649705	0.062649705	0	76792.2	76792.12	-1.375e-05	628916.3	278792.6	-7.941785e-05	278792.97	628915.6	-0.0001034279
0	0.64825845	0.6482577	-2.1136398e-10	0.06250833	0.06250833	0	76779.73	76779.64	-2.75e-05	629004.8	278556.7	-0.00028073287	278557.1	629004.2	-0.00011450946
0	0.64815366	0.64815295	-3.3818237e-10	0.06236674	0.06236674	0	76767.31	76767.23	-4.5e-05	629093.94	278320.75	-0.0004137116	278321.16	629093.25	-0.00012189717
0	0.6480483	0.64804745	-1.3738659e-10	0.062225346	0.062225346	0	76754.836	76754.75	-1.125e-05	629182.44	278084.8	-9.973404e-05	278085.16	629181.75	-8.495863e-05
0	0.6479422	0.64794147	-6.6227385e-10	0.06208412	0.06208412	0	76742.27	76742.19	-7.5e-05	629271.1	277847.6	-0.00051344564	277847.97	629270.5	-0.0004137116
0	0.647836	0.6478353	-5.4954635e-10	0.061942413	0.061942413	0	76729.7	76729.61	-6.375e-05	629359.7	277610.34	-0.00036938535	277610.7	629359.06	-0.0004432624
0	0.64773005	0.6477293	1.4090933e-10	0.06180102	0.06180102	0	76717.14	76717.06	1.75e-05	629448.1	277373.56	0.00022532506	277373.94	629447.5	2.77039e-05
0	0.6476233	0.64762247	-4.5090984e-10	0.06165979	0.06165979	0	76704.5	76704.41	-5.875e-05	629537	277135.2	-0.00041555852	277135.62	629536.3	-0.00031397754
0	0.647517	0.64751625	-3.8750064e-10	0.061518367	0.061518367	0	76691.914	76691.83	-4.5e-05	629625.9	276897.56	-0.0003250591	276897.9	629625.2	-0.00023640662
0	0.64741	0.64740914	-1.4090932e-11	0.06137681	0.061376818	0	76679.23	76679.14	0	629714.75	276658.78	-0.00016068263	276659.22	629714.06	8.865248e-05
0	0.6473017	0.64730096	-3.6636424e-10	0.061235435	0.061235435	0	76666.42	76666.32	-4.25e-05	629803.4	276418.62	-0.00029550827	276419	629802.75	-0.0001662234
0	0.64719415	0.6471934	-9.863653e-11	0.061094042	0.061094042	0	76653.67	76653.586	-1.0625e-05	629893.2	276178.28	-0.00017730496	276178.7	629892.5	2.216312e-05
0	0.6470865	0.6470857	-5.636373e-11	0.060952503	0.060952503	0	76640.93	76640.83	-7.5e-06	629982.1	275938.66	-1.4775414e-05	275939.03	629981.4	-9.604019e-05
0	0.6469795	0.64697874	-3.1000053e-10	0.060811102	0.060811102	0	76628.26	76628.164	-3.4375e-05	630070.5	275700.4	-0.0003601507	275700.8	630069.9	-0.0001034279
0	0.6468704	0.6468696	-4.0863704e-10	0.06066984	0.06066984	0	76615.33	76615.24	-4.625e-05	630159.7	275458.38	-0.0003121306	275458.78	630159.06	-0.00027519208
0	0.6467618	0.64676106	-7.327285e-10	0.060528446	0.060528446	0	76602.47	76602.375	-0.0001	630248.56	275217.5	-0.0005577719	275217.9	630247.94	-0.0005947104
0	0.64665174	0.646651	-4.5090984e-10	0.060386896	0.060386896	0	76589.44	76589.336	-5.5e-05	630339.56	274972.53	-0.00029550827	274972.94	630338.8	-0.00034906916
0	0.6465441	0.64654344	-3.1000053e-10	0.060245506	0.060245506	0	76576.695	76576.6	-3.25e-05	630428.06	274733.38	-0.0003324468	274733.8	630427.4	-0.00013297872
0	0.6464349	0.6464342	-2.9238686e-10	0.060104124	0.060104124	0	76563.75	76563.664	-3.125e-05	630517.56	274490.9	-0.00013667258	274491.34	630516.9	-0.00019577424
0	0.6463249	0.646324	-3.9806886e-10	0.05996258	0.05996258	0	76550.71	76550.62	-4.25e-05	630607.4	274246.88	-0.00019023345	274247.25	630606.7	-0.00035830378
0	0.64621603	0.6462153	-3.2409145e-10	0.059821147	0.059821147	0	76537.836	76537.734	-3.125e-05	630696	274006.1	-0.00022901891	274006.47	630695.3	-0.00019208038
0	0.6461049	0.6461041	-3.5227332e-10	0.059679918	0.05967991	0	76524.664	76524.57	-4e-05	630785.94	273760.53	-0.00029550827	273760.97	630785.2	-0.00018099882
0	0.64599407	0.64599335	-3.9454612e-10	0.05953851	0.05953851	0	76511.54	76511.445	-4.8125e-05	630875.3	273516.03	-0.000277039	273516.44	630874.7	-0.0003324468
0	0.6458837	0.6458828	-6.481829e-10	0.059396826	0.059396826	0	76498.46	76498.36	-7.3125e-05	630966.25	273270.47	-0.0006501182	273270.9	630965.5	-0.00028073287
0	0.6457732	0.6457724	-2.219322e-10	0.059255596	0.059255596	0	76485.38	76485.28	-3.125e-05	631055.5	273026.47	-8.31117e-05	273026.9	631054.9	-0.00025118203
0	0.6456617	0.6456609	1.4090932e-11	0.059114188	0.059114188	0	76472.164	76472.08	-5e-06	631144.8	272781.03	-6.648936e-05	272781.47	631144.2	-6.648936e-05
0	0.64554995	0.645549	-2.5363678e-10	0.058972627	0.058972627	0	76458.93	76458.836	-3.1875e-05	631234.6	272534.8	-0.00019208038	272535.25	631233.94	-0.00017730496
0	0.64543796	0.64543724	-1.4795479e-10	0.058831234	0.058831234	0	76445.69	76445.586	-2e-05	631325.1	272287.78	-0.00021609043	272288.2	631324.4	-1.108156e-05
0	0.64532655	0.64532566	-1.5500026e-10	0.058689985	0.05868999	0	76432.47	76432.375	-1.125e-05	631415.5	272041.12	-9.049941e-05	272041.56	631414.9	-0.00012189717
0	0.6452141	0.64521325	-4.0863704e-10	0.0585483	0.0585483	0	76419.16	76419.055	-4.6875e-05	631504.94	271794.28	-0.00038600768	271794.75	631504.3	-0.0001865396
0	0.6451005	0.6450996	-2.7829591e-10	0.058406904	0.058406904	0	76405.695	76405.59	-3.875e-05	631596.3	271543.88	-0.00028812056	271544.3	631595.56	-0.00018099882
0	0.6449883	0.6449875	-2.8181865e-10	0.058265664	0.058265664	0	76392.414	76392.32	-2.875e-05	631686.44	271296.88	-0.00024564125	271297.3	631685.6	-0.00017730496
0	0.644876	0.6448752	-2.6068225e-10	0.05812423	0.05812423	0	76379.12	76379.016	-3.25e-05	631776.4	271049.66	-0.0002216312	271050.1	631775.56	-0.00020131501
0	0.64476275	0.6447618	-9.863653e-11	0.057982713	0.057982713	0	76365.695	76365.6	-8.75e-06	631866.56	270800.75	-6.833629e-05	270801.2	631865.9	-6.833629e-05
0	0.6446481	0.64464724	-3.6636424e-10	0.057841305	0.057841305	0	76352.125	76352.02	-3.875e-05	631957	270549.94	-0.00023825355	270550.38	631956.25	-0.00026595744
0	0.64453447	0.6445337	-3.1000053e-10	0.057699904	0.057699904	0	76338.664	76338.57	-2.8125e-05	632047.7	270300.2	-0.0002068558	270300.62	632047.06	-0.00016252956
0	0.64441997	0.6444192	-3.6636424e-10	0.057558388	0.057558395	0	76325.1	76325	-4.375e-05	632137.8	270049.7	-0.00019208038	270050.16	632137.1	-0.00031028368
0	0.6443062	0.6443053	-3.1000053e-10	0.057416987	0.057416987	0	76311.62	76311.52	-3.5e-05	632228.9	269799.3	-0.00027149823	269799.72	632228.06	-0.00025118203
0	0.6441912	0.6441903	-7.045466e-11	0.05727571	0.05727571	0	76298.01	76297.91	-1.25e-05	632319.75	269547.47	-0.00017730496	269547.9	632319.06	-6.648936e-05
0	0.6440767	0.6440759	8.454559e-11	0.057134308	0.0571343	0	76284.445	76284.34	1.125e-05	632410.1	269296.84	-0.00013297872	269297.25	632409.4	0.0002142435
0	0.6439606	0.64395976	-3.5579606e-10	0.05699279	0.05699279	0	76270.695	76270.59	-4.625e-05	632501.2	269043.16	-0.0003398345	269043.62	632500.5	-0.0002548759
0	0.64384556	0.6438448	-5.1784177e-10	0.05685139	0.056851387	0	76257.07	76256.98	-6.25e-05	632591.75	268791.6	-0.000428487	268792.03	632591.06	-0.00034722223
0	0.64372957	0.6437287	-3.2409145e-10	0.05670998	0.056709986	0	76243.32	76243.234	-4.5625e-05	632682.7	268538.25	-0.00031951832	268538.72	632681.94	-0.00021054964
0	0.6436115	0.6436106	-6.3409195e-10	0.05656847	0.05656847	0	76229.34	76229.25	-7.75e-05	632774.7	268280.9	-0.00047835402	268281.38	632774	-0.0004137116
0	0.6434972	0.6434963	-5.0727356e-10	0.05642703	0.05642703	0	76215.805	76215.7	-6.5e-05	632864.7	268030.84	-0.00035460992	268031.3	632863.94	-0.0004506501
0	0.6433799	0.64337903	-3.3465966e-10	0.056285787	0.056285787	0	76201.914	76201.81	-3.875e-05	632955.25	267776.16	-0.0002142435	267776.6	632954.5	-0.00029920213
0	0.6432631	0.64326227	-2.9590957e-10	0.056144364	0.056144364	0	76188.086	76187.984	-3.625e-05	633047.2	267520.72	-0.00040632387	267521.22	633046.4	-7.387707e-05
0	0.64314586	0.64314497	-4.650008e-10	0.056002706	0.0560027	0	76174.195	76174.09	-5.75e-05	633138.4	267265.44	-0.00025118203	267265.88	633137.56	-0.00044695626
0	0.6430286	0.6430277	-4.650008e-10	0.05586147	0.055861466	0	76160.305	76160.2	-5.25e-05	633229.6	267010	-0.0002641105	267010.44	633228.9	-0.00035830378
0	0.6429105	0.64290965	-2.6772773e-10	0.055720054	0.055720054	0	76146.31	76146.2	-2.875e-05	633321	266753.16	-0.00018099882	266753.6	633320.25	-0.00017361112
0	0.6427925	0.6427917	-2.1136398e-10	0.05557856	0.05557856	0	76132.35	76132.25	-2.1875e-05	633412.2	266496.88	-0.00014590721	266497.38	633411.44	-0.00018838652
0	0.642674	0.6426732	-5.0727356e-10	0.0554371	0.055437103	0	76118.31	76118.21	-5.8125e-05	633502.9	266240.3	-0.0003250591	266240.8	633502.1	-0.00039154847
0	0.64255536	0.6425544	-5.213645e-10	0.05529586	0.05529586	0	76104.26	76104.15	-6e-05	633594.94	265982.03	-0.000428487	265982.53	633594.25	-0.00038416075
0	0.642436	0.6424351	-4.2977344e-10	0.055154454	0.055154454	0	76090.125	76090.02	-4.1875e-05	633686.2	265723.72	-0.0003250591	265724.2	633685.44	-0.00029550827
0	0.6423176	0.6423167	-1.6909119e-10	0.05501279	0.05501279	0	76076.086	76075.984	-2e-05	633777.94	265466.16	2.9550827e-05	265466.7	633777.2	-0.00028812056
0	0.64219683	0.642196	-3.8045517e-10	0.054871544	0.054871544	0	76061.79	76061.69	-4.5e-05	633870.1	265205	-0.00025302896	265205.47	633869.3	-0.000302896
0	0.642078	0.6420771	-1.2681839e-10	0.05473012	0.05473012	0	76047.72	76047.61	-1.4375e-05	633961.1	264947.53	-2.9550827e-05	264948.03	633960.3	-7.757092e-05
0	0.6419576	0.6419566	9.863653e-11	0.054588605	0.054588605	0	76033.45	76033.34	1.375e-05	634053.56	264686.6	0.00017730496	264687.1	634052.8	-5.9101654e-05
0	0.6418372	0.6418362	-3.8045517e-10	0.05444719	0.05444719	0	76019.19	76019.086	-4.75e-05	634144.56	264426.88	-0.00035830378	264427.38	634143.75	-0.0002548759
0	0.6417158	0.64171493	-3.6636424e-10	0.05430595	0.05430595	0	76004.82	76004.72	-4.75e-05	634237.75	264163.9	-0.0003250591	264164.4	634236.94	-0.00024564125
0	0.6415953	0.6415944	-1.9727306e-10	0.054164287	0.054164287	0	75990.55	75990.445	-2.25e-05	634329.56	263903.38	-0.00021609043	263903.88	634328.8	-3.6938534e-05
0	0.6414743	0.64147335	-4.790917e-10	0.05402286	0.05402286	0	75976.23	75976.11	-5.625e-05	634421.25	263642.34	-0.00029920213	263642.88	634420.44	-0.00042479314
0	0.64135236	0.6413514	-1.5500026e-10	0.053881627	0.053881623	0	75961.77	75961.664	-2.5e-05	634512.7	263380.12	-0.0002216312	263380.6	634511.94	-7.018322e-05
0	0.6412295	0.64122856	-1.9022758e-10	0.053740162	0.053740162	0	75947.23	75947.11	-2.625e-05	634605.94	263114.84	-0.00026595744	263115.38	634605.2	-6.648936e-05
0	0.6411085	0.64110756	-4.2272796e-10	0.053598683	0.053598683	0	75932.89	75932.78	-4.625e-05	634697.7	262853.66	-0.00043402778	262854.2	634696.94	-0.00019946808
0	0.64098585	0.6409849	-1.9727306e-10	0.053457264	0.053457264	0	75918.37	75918.266	-2.3125e-05	634789.06	262590.66	-4.8020094e-05	262591.2	634788.25	-0.00019946808
0	0.64086276	0.64086187	-2.8181865e-10	0.05331584	0.05331584	0	75903.78	75903.68	-3.25e-05	634882.6	262324.78	-0.00027334515	262325.28	634881.8	-0.00013297872
0	0.64073956	0.64073867	-2.8181865e-10	0.053174376	0.053174376	0	75889.195	75889.086	-3.5e-05	634974.75	262060.12	-0.00035460992	262060.64	634974	-9.234634e-05
0	0.6406159	0.640615	-2.8181865e-10	0.053032946	0.053032946	0	75874.555	75874.44	-3.25e-05	635067.1	261794.64	-0.00014775414	261795.16	635066.25	-0.00022717199
0	0.64049226	0.6404913	-2.8181865e-10	0.05289166	0.052891657	0	75859.9	75859.78	-3.5625e-05	635159.9	261528.62	-0.0002825798	261529.2	635159.2	-0.00021609043
0	0.64036804	0.64036715	-3.2409145e-10	0.052750226	0.052750226	0	75845.195	75845.08	-2.25e-05	635252.44	261262.28	-0.0002548759	261262.77	635251.6	-0.000151448
0	0.64024377	0.6402429	-2.9590957e-10	0.052608766	0.052608766	0	75830.484	75830.37	-3.625e-05	635345.5	260995.36	-0.00029550827	260995.88	635344.7	-0.00012559102
0	0.64011973	0.64011884	-2.6772773e-10	0.052467342	0.052467342	0	75815.79	75815.67	-3.25e-05	635437.9	260729.25	-0.00028812056	260729.77	635437	-0.00012559102
0	0.6399944	0.6399935	-1.6909119e-10	0.052325908	0.052325908	0	75800.93	75800.82	-2.125e-05	635530.6	260460.94	-0.00021978428	260461.52	635529.8	-7.387707e-05
0	0.63986915	0.6398682	-8.454559e-11	0.05218446	0.05218445	0	75786.11	75785.99	-1.25e-05	635623.5	260192.77	-8.865248e-05	260193.28	635622.7	-8.865248e-05
0	0.6397431	0.6397422	-2.5363678e-10	0.052042987	0.052042987	0	75771.17	75771.055	-3.375e-05	635716.25	259923.52	-0.00023640662	259924.06	635715.44	-0.00012189717
0	0.639618	0.63961697	-1.9727306e-10	0.051901728	0.051901728	0	75756.35	75756.234	-2e-05	635809.3	259655.23	-0.00012928488	259655.78	635808.56	-0.00013667258
0	0.6394917	0.63949084	-6.3409195e-10	0.051760294	0.051760297	0	75741.41	75741.28	-7.9375e-05	635901.6	259386.25	-0.000605792	259386.77	635900.8	-0.00036199763
0	0.63936496	0.639364	-4.5090984e-10	0.051618665	0.051618673	0	75726.39	75726.27	-5.1875e-05	635994.9	259115.55	-0.00027888594	259116.1	635994.06	-0.0003509161
0	0.6392377	0.63923675	-1.4090933e-10	0.05147742	0.05147742	0	75711.31	75711.2	-1.875e-05	636088.94	258843.39	-0.00023640662	258843.94	636088.06	-3.6938534e-05
0	0.63911104	0.63911	-6.059101e-10	0.051335983	0.051335983	0	75696.31	75696.2	-7e-05	636181.3	258573.64	-0.0005171395	258574.16	636180.5	-0.0003250591
0	0.63898337	0.6389824	-2.1136398e-10	0.051194493	0.051194496	0	75681.19	75681.07	-2.1875e-05	636274.9	258301.28	-0.00015514184	258301.83	636274	-0.00012559102
0	0.63885635	0.63885534	-4.2977344e-10	0.051053066	0.051053066	0	75666.14	75666.03	-5e-05	636367.8	258030.45	-0.00028812056	258031	636367	-0.0003398345
0	0.6387282	0.63872725	-4.9318266e-10	0.050911807	0.05091181	0	75650.97	75650.86	-6.5e-05	636460.7	257758.3	-0.00045803783	257758.83	636459.8	-0.00026226358
0	0.6386	0.63859904	-1.9727306e-10	0.050770186	0.050770186	0	75635.78	75635.67	-2.375e-05	636554.6	257484.86	-0.00012743795	257485.44	636553.75	-0.00019208038
0	0.63847107	0.63847005	-4.5090984e-10	0.050628755	0.050628755	0	75620.516	75620.39	-5.0625e-05	636648.2	257210.8	-0.00035830378	257211.38	636647.3	-0.00023086584
0	0.6383419	0.63834095	-3.6636424e-10	0.050487496	0.050487496	0	75605.21	75605.09	-4.25e-05	636740.9	256937.25	-0.00037677304	256937.8	636740	-0.00016991726
0	0.63821304	0.63821197	-2.9590957e-10	0.050346017	0.050346017	0	75589.95	75589.83	-3.875e-05	636834.9	256662.84	-0.00024564125	256663.36	636834	-0.0002142435
0	0.63808304	0.6380821	-4.3681891e-10	0.050204586	0.05020459	0	75574.56	75574.44	-5.125e-05	636928.25	256387.52	-0.00031028368	256388.06	636927.4	-0.0003324468
0	0.6379533	0.6379523	-1.3738659e-10	0.050063144	0.05006314	0	75559.19	75559.07	-1.375e-05	637022	256112.08	-0.00010158097	256112.62	637021.1	-7.018322e-05
0	0.63782245	0.6378215	-5.7772825e-10	0.049921695	0.049921695	0	75543.695	75543.58	-6.75e-05	637116.25	255834.66	-0.0004432624	255835.23	637115.44	-0.00036199763
0	0.63769233	0.6376914	-5.0727356e-10	0.04978028	0.04978028	0	75528.28	75528.164	-6.75e-05	637209.8	255558.88	-0.00034722223	255559.4	637209	-0.00044695626
0	0.63756067	0.63755965	-1.2681839e-10	0.049638826	0.049638826	0	75512.69	75512.56	-2.375e-05	637304.44	255280	-0.00014775414	255280.53	637303.56	-0.0001108156
0	0.6374298	0.63742876	-2.6772773e-10	0.04949753	0.04949753	0	75497.18	75497.055	-3.625e-05	637397.6	255003.42	-0.00038970154	255003.98	637396.9	-1.2928487e-05
0	0.6372983	0.63729733	-2.8181865e-10	0.049356084	0.049356084	0	75481.62	75481.49	-3.125e-05	637491.56	254725.56	-0.00027334515	254726.17	637490.7	-0.00012559102
0	0.6371663	0.6371653	-1.0568199e-11	0.049214657	0.049214657	0	75465.984	75465.86	-2.5e-06	637585.8	254446.56	1.4775414e-05	254447.14	637584.9	-5.171395e-05
0	0.63703364	0.6370326	-5.213645e-10	0.049073208	0.04907321	0	75450.27	75450.14	-6.1875e-05	637680.25	254166.2	-0.00045803783	254166.78	637679.5	-0.0003324468
0	0.63690186	0.6369009	-2.6068225e-10	0.048931766	0.048931774	0	75434.664	75434.54	-2.875e-05	637773.5	253888.64	-0.00013297872	253889.2	637772.6	-0.0002142435
0	0.63676864	0.6367676	-4.650008e-10	0.04879036	0.04879036	0	75418.88	75418.76	-5.75e-05	637868.5	253606.95	-0.0003398345	253607.55	637867.7	-0.00036753842
0	0.63663626	0.63663524	-2.3954586e-10	0.048648857	0.048648857	0	75403.2	75403.08	-3e-05	637962	253328.28	-0.00028073287	253328.86	637961.06	-0.0001108156
0	0.6365015	0.63650054	1.4090932e-11	0.04850761	0.04850761	0	75387.25	75387.12	-1.25e-06	638056.56	253044.95	1.8469267e-05	253045.56	638055.75	-7.387707e-06
0	0.6363684	0.6363674	-4.3681891e-10	0.048366148	0.048366144	0	75371.48	75371.35	-5.125e-05	638150.94	252764.2	-0.00029550827	252764.81	638150.1	-0.0003250591
0	0.6362334	0.6362324	-4.0863704e-10	0.04822455	0.04822455	0	75355.484	75355.36	-5e-05	638246.06	252480.12	-0.00026780437	252480.7	638245.25	-0.0003656915
0	0.63609946	0.6360984	-1.4090933e-10	0.048083294	0.048083294	0	75339.62	75339.49	-1.375e-05	638340.2	252198.45	-4.617317e-05	252199.05	638339.4	-0.00015514184
0	0.63596505	0.635964	-1.162502e-10	0.04794183	0.04794183	0	75323.695	75323.58	-1e-05	638434.25	251916.27	-2.9550827e-05	251916.89	638433.3	-0.00017730496
0	0.6358293	0.6358283	-2.4659133e-10	0.047800392	0.047800396	0	75307.625	75307.5	-2.75e-05	638528.7	251631.75	-0.00015514184	251632.34	638527.9	-0.00017176419
0	0.6356931	0.63569206	-2.5363678e-10	0.047658946	0.047658946	0	75291.49	75291.37	-2.875e-05	638624.1	251345.53	-0.00015698877	251346.16	638623.3	-0.00024379433
0	0.6355579	0.6355568	-3.1704597e-10	0.047517676	0.047517676	0	75275.48	75275.36	-3.25e-05	638718.56	251061.95	-0.0003398345	251062.56	638717.6	-0.00011820331
0	0.6354218	0.6354206	-1.7613666e-10	0.04737622	0.047376227	0	75259.35	75259.23	-2.125e-05	638813.06	250776.77	-0.00016437648	250777.39	638812.2	-0.00011820331
0	0.63528347	0.6352823	-5.706828e-10	0.047234632	0.047234632	0	75242.97	75242.836	-6.125e-05	638908.94	250487.22	-0.0003324468	250487.86	638908.1	-0.00047281323
0	0.63514847	0.63514733	-8.595469e-10	0.047093365	0.047093365	0	75226.984	75226.85	-9.75e-05	639002.56	250204.72	-0.0006353428	250205.38	639001.6	-0.0005466903
0	0.6350105	0.63500947	-3.3818237e-10	0.046951856	0.046951856	0	75210.64	75210.52	-4.25e-05	639097.6	249916.53	-0.00030104906	249917.12	639096.75	-0.0002493351
0	0.6348731	0.634872	-4.579553e-10	0.04681048	0.04681048	0	75194.37	75194.24	-5.125e-05	639192.75	249628.98	-0.00035830378	249629.62	639191.8	-0.00027519208
0	0.634735	0.6347338	-5.882964e-10	0.046669014	0.046669014	0	75178.016	75177.875	-6.125e-05	639288.1	249340.16	-0.0004137116	249340.78	639287.2	-0.00039524233
0	0.6345968	0.6345957	-1.9727306e-10	0.046527762	0.046527762	0	75161.64	75161.516	-2.25e-05	639382.5	249052.33	-0.00017176419	249052.95	639381.7	-0.00015329492
0	0.63445854	0.6344574	-7.045466e-11	0.04638618	0.04638618	0	75145.266	75145.13	-6.25e-06	639478.06	248763.23	-0.00014406028	248763.86	639477.2	6.648936e-05
0	0.6343197	0.6343186	-3.3818237e-10	0.046244707	0.04624471	0	75128.83	75128.7	-3.625e-05	639573	248474	-0.0002068558	248474.64	639572.1	-0.00024379433
0	0.63417995	0.63417894	-2.1136398e-10	0.04610345	0.04610345	0	75112.27	75112.14	-3.0625e-05	639668.4	248183.05	-0.00018099882	248183.67	639667.4	-0.00021054964
0	0.6340399	0.6340388	-7.25683e-10	0.045961928	0.045961928	0	75095.69	75095.555	-8.25e-05	639764.2	247891.05	-0.00048943557	247891.69	639763.3	-0.000554078
0	0.6339006	0.63389945	-2.4659133e-10	0.04582056	0.04582056	0	75079.18	75079.055	-3.125e-05	639859.06	247601.17	-0.00028073287	247601.81	639858.1	-9.234634e-05
0	0.6337598	0.6337586	-4.2977344e-10	0.0456791	0.045679096	0	75062.51	75062.37	-4.875e-05	639954.9	247308.12	-0.00039524233	247308.77	639953.94	-0.00026595744
0	0.6336197	0.6336186	-4.4034165e-10	0.04553762	0.04553762	0	75045.914	75045.77	-4.875e-05	640049.75	247017.16	-0.00031397754	247017.81	640048.75	-0.00032136525
0	0.63347805	0.6334769	-6.904557e-10	0.045396265	0.045396265	0	75029.13	75029.01	-8.375e-05	640145.5	246723.11	-0.00047281323	246723.75	640144.5	-0.00049497635
0	0.63333666	0.63333553	-2.0784126e-10	0.04525479	0.04525479	0	75012.4	75012.26	-2.0625e-05	640240.9	246429.81	-0.00013113179	246430.48	640239.94	-0.00017176419
0	0.6331948	0.6331937	-3.1704597e-10	0.04511347	0.04511347	0	74995.59	74995.46	-4.875e-05	640336.4	246135.66	-0.00029366135	246136.31	640335.44	-0.00022532506
0	0.6330533	0.6330521	-1.6204572e-10	0.04497199	0.044972	0	74978.83	74978.695	-2.375e-05	640431	245842.89	-0.00013297872	245843.53	640430.1	-0.0001588357
0	0.63291043	0.6329093	-3.6988698e-10	0.04483065	0.04483065	0	74961.914	74961.77	-4.5e-05	640528	245545.95	-0.00020500887	245546.62	640527	-0.00034168144
0	0.6327678	0.63276654	-6.411374e-10	0.044689175	0.044689175	0	74945.01	74944.87	-7.75e-05	640623.5	245250.7	-0.00053560873	245251.38	640622.56	-0.00040632387
0	0.632624	0.6326229	-3.1000053e-10	0.044547684	0.044547684	0	74927.99	74927.84	-3.875e-05	640719.94	244953.05	-0.00035460992	244953.7	640719	-0.00012928488
0	0.63247997	0.63247883	-2.1840946e-10	0.04440636	0.04440635	0	74910.92	74910.79	-2.75e-05	640816.5	244654.84	-0.00013667258	244655.53	640815.44	-0.0002419474
0	0.63233566	0.63233453	-1.1977293e-10	0.04426482	0.044264823	0	74893.83	74893.7	-2e-05	640912.1	244357.06	-0.00014775414	244357.75	640911.25	-6.279551e-05