# t (s)	mx ()	my ()	mz ()	B_extx (T)	B_exty (T)	B_extz (T)	m_fullx (A/m)	m_fully (A/m)	m_fullz (A/m)	m_full.region1x (A/m)	m_full.region1y (A/m)	m_full.region1z (A/m)	m_full.region2x (A/m)	m_full.region2y (A/m)	m_full.region2z (A/m)
0	0.62887675	0.6288741	-3.9873926e-10	0.07071087	0.07071087	0	76333.055	76332.75	-5.015625e-05	664823.06	215601.06	-0.00038747117	215604.34	664822.8	-0.0001935103
0	0.6285596	0.6285571	-2.3116566e-10	0.070357256	0.070357256	0	76294.56	76294.266	-2.90625e-05	665035.6	214944.66	-0.00026402104	214947.86	665035.4	-8.019752e-05
0	0.62823784	0.62823534	-2.7585195e-10	0.07000352	0.07000352	0	76255.516	76255.22	-3.359375e-05	665250.3	214279.56	-0.00021986736	214282.77	665250.06	-0.00017931806
0	0.62791365	0.62791103	-5.293607e-10	0.06964992	0.06964992	0	76216.16	76215.85	-6.476563e-05	665465.56	213610.17	-0.00042351498	213613.39	665465.4	-0.00033070214
0	0.6275879	0.62758535	-2.8186742e-10	0.069296576	0.069296576	0	76176.62	76176.305	-3.421875e-05	665680.8	212939	-0.00018923011	212942.23	665680.56	-0.00022527394
0	0.6272608	0.6272583	-3.1624148e-10	0.06894301	0.068943	0	76136.91	76136.61	-3.8515624e-05	665895.75	212266.2	-0.00014057093	212269.4	665895.44	-0.00028497152
0	0.6269312	0.62692875	-4.0217668e-10	0.06858927	0.06858927	0	76096.914	76096.61	-4.8359376e-05	666111.2	211589.34	-0.00023518599	211592.56	666110.9	-0.00030727364
0	0.6266009	0.6265985	-3.2569436e-10	0.068235666	0.068235666	0	76056.82	76056.516	-3.78125e-05	666326	210912.03	-0.00022527394	210915.27	666325.7	-0.00022347174
0	0.62626797	0.62626547	-3.2569436e-10	0.06788232	0.067882314	0	76016.41	76016.11	-3.8671875e-05	666541.56	210230.44	-0.00043613033	210233.66	666541.25	-3.9197665e-05
0	0.6259337	0.62593114	-1.4608982e-10	0.06752871	0.06752872	0	75975.836	75975.52	-1.5703125e-05	666756.6	209547.27	-6.352725e-05	209550.45	666756.4	-0.00013538964
0	0.62559754	0.625595	-2.6811778e-10	0.067174986	0.067174986	0	75935.02	75934.73	-3.53125e-05	666972	208861.28	-0.00028114187	208864.47	666971.7	-0.00014327423
0	0.6252594	0.6252569	-2.6382102e-10	0.06682176	0.06682176	0	75893.984	75893.695	-2.875e-05	667187.4	208172.64	-0.00017481257	208175.86	667187.1	-0.0001944114
0	0.62491953	0.62491703	-3.265537e-10	0.06646816	0.06646817	0	75852.734	75852.43	-4.125e-05	667402.75	207481.44	-0.0002982627	207484.64	667402.44	-0.00019103229
0	0.62457645	0.62457407	-5.981089e-10	0.066114426	0.066114426	0	75811.09	75810.8	-7.171875e-05	667618.94	206784.94	-0.00044153692	206788.16	667618.7	-0.00041180075
0	0.6242345	0.6242321	-5.242046e-10	0.06576085	0.06576085	0	75769.586	75769.29	-6.328125e-05	667833.3	206091.83	-0.00042351498	206095.02	667833.1	-0.0003214659
0	0.62388927	0.6238868	-3.6436518e-10	0.06540747	0.06540747	0	75727.68	75727.38	-4.2265627e-05	668048.6	205393.1	-0.0003153835	205396.33	668048.44	-0.00019756524
0	0.62354183	0.62353945	-3.1366343e-10	0.065053925	0.065053925	0	75685.516	75685.22	-3.84375e-05	668264.2	204691.23	-0.00022166954	204694.44	668263.94	-0.00023608709
0	0.6231928	0.62319034	-3.1710085e-10	0.064700186	0.064700186	0	75643.13	75642.84	-3.75e-05	668479.6	203987.16	-0.00019463668	203990.39	668479.3	-0.00026492216
0	0.6228419	0.6228395	9.1091294e-11	0.0643466	0.0643466	0	75600.55	75600.26	9.84375e-06	668694.9	203280.72	-0.00013155998	203283.89	668694.7	0.00024870242
0	0.6224887	0.6224863	-4.107702e-10	0.063993216	0.063993216	0	75557.67	75557.38	-4.8984373e-05	668910.3	202570.6	-0.000338812	202573.8	668910.2	-0.00024419694
0	0.6221343	0.62213194	-3.4889686e-10	0.06363963	0.06363964	0	75514.664	75514.375	-4.1640626e-05	669125.44	201859.48	-0.00017841696	201862.67	669125.3	-0.00028677372
0	0.6217776	0.6217752	-2.6296168e-10	0.0632859	0.0632859	0	75471.37	75471.07	-3.03125e-05	669340.75	201144.67	-0.00018202134	201147.86	669340.6	-0.0002031971
0	0.6214192	0.6214169	-1.4694916e-10	0.062932655	0.062932655	0	75427.87	75427.586	-1.9453126e-05	669555.9	200427.94	-0.00013336216	200431.14	669555.7	-7.388985e-05
0	0.6210577	0.6210554	-2.2600954e-10	0.06257908	0.06257908	0	75383.984	75383.7	-2.609375e-05	669771.6	199706.05	-7.749423e-05	199709.22	669771.5	-0.0002437464
0	0.6206963	0.62069386	-2.4147787e-10	0.062225346	0.062225346	0	75340.12	75339.83	-2.625e-05	669986.2	198985.34	-0.00016219723	198988.53	669986.06	-0.00016512579
0	0.6203318	0.6203294	-1.7874519e-10	0.061871782	0.061871782	0	75295.875	75295.58	-1.984375e-05	670201.44	198259.9	-0.00018021914	198263.08	670201.25	-6.555471e-05
0	0.61996526	0.6199629	-2.8444547e-10	0.061518367	0.061518367	0	75251.38	75251.09	-3.609375e-05	670416.5	197531.64	-0.00024149366	197534.8	670416.44	-0.0001754884
0	0.6195969	0.6195946	-1.2632473e-10	0.061164834	0.061164834	0	75206.68	75206.39	-1.3828125e-05	670631.56	196801	-6.082396e-05	196804.17	670631.4	-9.281286e-05
0	0.61921924	0.61921686	-1.8218259e-10	0.060811102	0.060811102	0	75160.83	75160.55	-2.421875e-05	670850.75	196053	-0.00025771337	196056.17	670850.6	-1.0587875e-05
0	0.61885417	0.61885184	-2.9046093e-10	0.06045754	0.06045754	0	75116.516	75116.234	-3.5e-05	671061.2	195331.39	-0.00028654846	195334.56	671061.1	-0.00014462587
0	0.6184795	0.6184772	-1.0140352e-10	0.060104124	0.060104124	0	75071.05	75070.76	-1.1015625e-05	671276.2	194592.06	-0.00015408736	194595.22	671276.06	1.9373558e-05
0	0.6181029	0.6181006	-3.5405295e-10	0.059750553	0.059750553	0	75025.33	75025.05	-4.125e-05	671490.94	193849.97	-0.00034962513	193853.12	671490.9	-0.0001477797
0	0.61772025	0.6177179	-4.159263e-10	0.059396826	0.05939683	0	74978.875	74978.6	-5.203125e-05	671707.9	193097.25	-0.00018382353	193100.44	671707.8	-0.00042756993
0	0.61734366	0.61734134	-2.7843e-10	0.05904356	0.05904356	0	74933.18	74932.9	-3.21875e-05	671920.2	192357.84	-0.00022076846	192361	671920.06	-0.00018607627
0	0.61695373	0.6169514	-4.1420758e-10	0.05868999	0.05868999	0	74885.836	74885.56	-5.078125e-05	672138.7	191593.27	-0.00027753747	191596.4	672138.7	-0.000319889
0	0.61657655	0.61657435	-3.609278e-10	0.058336265	0.058336265	0	74840.07	74839.79	-4.3984375e-05	672348.75	190855.34	-0.0002937572	190858.48	672348.7	-0.00020499928
0	0.6161897	0.6161874	-5.843593e-11	0.057982713	0.057982713	0	74793.1	74792.83	-8.59375e-06	672563.06	190099.39	-8.785683e-05	190102.5	672562.94	-3.604383e-06
0	0.61580056	0.61579823	-4.2623852e-10	0.057629272	0.05762927	0	74745.87	74745.586	-4.953125e-05	672777.2	189340.36	-0.0003802624	189343.5	672777.2	-0.00021085641
0	0.6154095	0.61540717	-4.5373777e-10	0.05727571	0.0572757	0	74698.4	74698.125	-5.53125e-05	672991.3	188578.89	-0.00039287773	188582.02	672991.25	-0.0002662738
0	0.6150163	0.6150141	-2.5093075e-10	0.056922022	0.056922026	0	74650.67	74650.39	-2.859375e-05	673205.06	187814.58	-0.00016219723	187817.69	673205	-0.00017391148
0	0.614616	0.6146138	-1.5983945e-10	0.05656847	0.05656847	0	74602.086	74601.805	-2.09375e-05	673421.4	187037.88	-0.00013966984	187041	673421.4	-9.5516145e-05
0	0.6142228	0.61422056	-3.2913175e-10	0.056215018	0.056215018	0	74554.375	74554.09	-3.96875e-05	673632.7	186276.27	-0.00019103229	186279.4	673632.56	-0.00027753747
0	0.61382383	0.61382157	-4.2108242e-10	0.055861466	0.055861466	0	74505.94	74505.664	-5.09375e-05	673845.6	185504.62	-0.00023743873	185507.75	673845.56	-0.00032709775
0	0.6134169	0.6134147	-2.8874222e-10	0.05550775	0.05550775	0	74456.55	74456.28	-3.6875e-05	674061.5	184719.12	-0.00018562571	184722.23	674061.56	-0.00024149366
0	0.61301756	0.6130153	-1.8991676e-10	0.055154454	0.055154454	0	74408.07	74407.805	-2.4375e-05	674272.1	183949.3	-0.0002523068	183952.42	674272.2	-1.8472463e-05
0	0.6126109	0.6126086	-3.497562e-10	0.054800898	0.054800894	0	74358.71	74358.44	-4.203125e-05	674485.3	183166.86	-0.00037395474	183169.94	674485.3	-0.00014102148
0	0.61220205	0.6121998	-1.4780852e-10	0.05444719	0.05444719	0	74309.08	74308.81	-1.6875e-05	674698.2	182381.5	-0.00013516436	182384.61	674698.25	-7.839533e-05
0	0.6117863	0.61178416	-4.6662807e-10	0.05409365	0.05409365	0	74258.625	74258.35	-5.5625e-05	674913.2	181584.55	-0.00042531718	181587.66	674913.25	-0.0002532079
0	0.6113774	0.61137515	-2.3975916e-10	0.053740162	0.053740162	0	74208.98	74208.72	-3.140625e-05	675123.56	180801.66	-0.00017661476	180804.75	675123.6	-0.00021671352
0	0.6109595	0.6109572	-7.304491e-11	0.05338662	0.05338662	0	74158.26	74157.99	-1e-05	675337	180003.11	-0.00012074683	180006.17	675337	-2.3428489e-05
0	0.6105449	0.6105428	-1.873387e-10	0.053032946	0.053032946	0	74107.94	74107.68	-2.484375e-05	675547.56	179212.28	-5.4065746e-05	179215.36	675547.56	-0.00022527394
0	0.61012465	0.6101224	-3.2225694e-10	0.05267941	0.05267941	0	74056.92	74056.67	-3.96875e-05	675759.44	178411.94	-0.00032439447	178415	675759.44	-0.000114889706
0	0.609702	0.6096998	-5.7576575e-11	0.052325904	0.052325904	0	74005.62	74005.36	-8.75e-06	675971.25	177608.44	-7.2087656e-05	177611.47	675971.25	-9.010957e-06
0	0.60927755	0.6092754	-1.6327685e-10	0.051972378	0.05197238	0	73954.12	73953.85	-1.8125e-05	676182.5	176803.08	-0.00021626298	176806.12	676182.5	-1.1939518e-05
0	0.60885006	0.608848	-2.9217964e-10	0.051618665	0.051618665	0	73902.23	73901.97	-3.203125e-05	676393.9	175993.27	-0.00029916377	175996.3	676393.9	-9.776889e-05
0	0.60842043	0.60841835	-3.4374073e-11	0.051265337	0.051265337	0	73850.07	73849.81	-4.84375e-06	676604.94	175180.73	-9.731834e-05	175183.78	676605	4.054931e-05
0	0.6079888	0.6079867	-6.531074e-11	0.050911807	0.050911807	0	73797.67	73797.42	-9.53125e-06	676815.5	174365.72	-0.00010227437	174368.78	676815.56	-1.667027e-05
0	0.60755455	0.6075524	-3.1881953e-10	0.0505581	0.050558094	0	73744.97	73744.72	-3.890625e-05	677026	173547.39	-0.00023879037	173550.4	677026.06	-0.00020927949
0	0.60711795	0.6071158	-2.2343148e-10	0.05020459	0.050204586	0	73691.98	73691.72	-2.640625e-05	677236.2	172725.95	-0.00010993368	172728.95	677236.25	-0.00021491133
0	0.6066787	0.6066767	-4.967054e-10	0.049851045	0.04985105	0	73638.664	73638.414	-6.0625e-05	677446.2	171901.05	-0.00034692185	171904.08	677446.2	-0.0003343065
0	0.60623735	0.6062353	-3.6866193e-10	0.049497534	0.04949753	0	73585.09	73584.836	-4.4375e-05	677655.7	171073.53	-0.00024239476	171076.53	677655.8	-0.0002712298
0	0.6057931	0.6057911	-3.7295872e-10	0.049143866	0.049143866	0	73531.18	73530.93	-4.65625e-05	677865.2	170242.28	-0.00021851572	170245.28	677865.3	-0.00033160322
0	0.6053466	0.60534453	-2.0968186e-10	0.04879036	0.04879036	0	73476.97	73476.72	-2.4375e-05	678074.4	169407.9	-0.00019824106	169410.92	678074.5	-0.000118944634
0	0.60489726	0.6048952	-1.39215e-10	0.0484368	0.0484368	0	73422.43	73422.18	-1.671875e-05	678283.25	168569.89	-7.929643e-05	168572.9	678283.44	-9.912053e-05
0	0.6044457	0.60444367	-1.1687186e-10	0.048083294	0.048083294	0	73367.62	73367.375	-1.484375e-05	678491.75	167729.22	-0.00014057093	167732.22	678492	-2.9736158e-05
0	0.60399187	0.60398984	-3.3686592e-10	0.047729596	0.047729596	0	73312.53	73312.29	-4.03125e-05	678699.94	166885.73	-0.00023608709	166888.72	678700.06	-0.00021986736
0	0.60353476	0.60353273	-2.5780555e-10	0.04737622	0.047376227	0	73257.05	73256.805	-3.0625e-05	678908.06	166037.73	-0.00021581243	166040.7	678908.1	-0.00015679066
0	0.60307586	0.60307384	2.5780556e-12	0.04702272	0.047022715	0	73201.36	73201.11	-4.6875e-07	679115.4	165187.88	-8.830738e-05	165190.83	679115.5	8.560409e-05
0	0.6026141	0.6026121	-1.4179305e-10	0.046669014	0.046669014	0	73145.29	73145.05	-1.640625e-05	679322.7	164334.03	1.261534e-05	164336.98	679322.75	-0.0001806697
0	0.60214293	0.6021409	-6.256082e-10	0.046315532	0.04631553	0	73088.1	73087.86	-7.640625e-05	679532.6	163464.53	-0.0005280421	163467.5	679532.75	-0.00035368008
0	0.6016825	0.60168046	-2.698365e-10	0.045961928	0.045961928	0	73032.21	73031.97	-3.5e-05	679736.25	162616.28	-0.00020725201	162619.22	679736.4	-0.00021175749
0	0.6012131	0.6012112	-2.8874222e-10	0.04560844	0.04560844	0	72975.25	72975.02	-3.34375e-05	679942.2	161753.23	-0.00025771337	161756.19	679942.44	-0.00015679066
0	0.6007344	0.6007325	-3.5920908e-10	0.04525479	0.04525479	0	72917.14	72916.9	-4.46875e-05	680150.8	160874.31	-0.00032439447	160877.25	680151.06	-0.00019148285
0	0.60026556	0.6002636	-7.734167e-12	0.0449013	0.044901304	0	72860.234	72860	-2.03125e-06	680353.6	160015.16	-3.6043828e-05	160018.1	680353.9	8.1098615e-06
0	0.599788	0.5997861	-3.2397565e-10	0.044547684	0.044547684	0	72802.266	72802.03	-3.875e-05	680558.6	159141.67	-0.00027032872	159144.6	680558.9	-0.000185851
0	0.5993076	0.5993057	-5.534226e-10	0.04419421	0.04419421	0	72743.95	72743.734	-7.125e-05	680763.25	158264.52	-0.00035503172	158267.4	680763.5	-0.0004476193
0	0.59882456	0.59882265	7.390426e-11	0.043840516	0.043840524	0	72685.33	72685.09	8.59375e-06	680967.56	157384	4.1450403e-05	157386.88	680967.75	8.560409e-05
0	0.59833944	0.59833753	-2.0194768e-10	0.043487042	0.043487042	0	72626.445	72626.21	-2.53125e-05	681171	156501.28	-0.00028294406	156504.16	681171.4	1.4417532e-05
0	0.59785086	0.59784895	-4.855338e-10	0.043133624	0.043133624	0	72567.14	72566.914	-5.890625e-05	681374.44	155613.95	-0.00047667965	155616.8	681374.7	-0.00021491133
0	0.5973589	0.597357	-5.5600063e-10	0.04277993	0.04277993	0	72507.42	72507.18	-6.828125e-05	681577.6	154721.83	-0.00061634945	154724.7	681577.94	-0.00014913135
0	0.5968649	0.59686303	-3.4374073e-10	0.042426456	0.04242646	0	72447.46	72447.234	-4.09375e-05	681780.2	153827.81	-0.0002757353	153830.67	681780.4	-0.00020184544
0	0.5963682	0.59636635	-3.3085046e-10	0.042072807	0.042072807	0	72387.17	72386.945	-4.25e-05	681982.1	152930.52	-0.00036584487	152933.38	681982.4	-8.98843e-05
0	0.59586835	0.59586656	-1.8046389e-11	0.041719347	0.04171934	0	72326.51	72326.29	-2.8125e-06	682183.75	152029.17	-0.00025591117	152032.02	682184.06	0.00021806516
0	0.5953657	0.59536403	-2.4405591e-10	0.041365713	0.041365713	0	72265.5	72265.28	-3.03125e-05	682384.9	151124.44	4.865917e-05	151127.25	682385.1	-0.0003680976
0	0.5948602	0.59485835	-1.4780852e-10	0.041012257	0.041012257	0	72204.13	72203.91	-1.703125e-05	682585.44	150215.9	-0.000102724916	150218.75	682585.9	-0.00010768094
0	0.5943523	0.5943506	-5.499852e-11	0.04065857	0.04065857	0	72142.484	72142.266	-5.3125e-06	682785.5	149304.92	-2.523068e-05	149307.73	682785.75	-3.334054e-05
0	0.59384143	0.59383965	-5.534226e-10	0.04030513	0.04030513	0	72080.47	72080.26	-6.71875e-05	682985	148390.16	-0.00036224048	148392.97	682985.3	-0.0004190095
0	0.5933267	0.59332496	-3.8413028e-10	0.039951444	0.039951444	0	72017.99	72017.77	-4.6875e-05	683184.3	147470.2	-0.0004190095	147472.98	683184.6	-0.00012345011
0	0.5928099	0.5928082	-8.5075835e-11	0.039597984	0.039597984	0	71955.26	71955.055	-1.3125e-05	683382.8	146548.3	-0.00010993368	146551.08	683383.1	-3.2439446e-05
0	0.5922896	0.5922879	4.296759e-11	0.039244533	0.039244533	0	71892.12	71891.91	5.46875e-06	683580.94	145621.81	9.912053e-05	145624.56	683581.25	-2.8159242e-05
0	0.59176654	0.5917648	-1.7702648e-10	0.038890842	0.038890842	0	71828.625	71828.414	-2.09375e-05	683778.5	144691.98	-3.153835e-05	144694.73	683778.75	-0.00018427407
0	0.5912406	0.59123886	-5.499852e-11	0.03853738	0.038537383	0	71764.78	71764.57	-7.5e-06	683975.4	143758.72	9.731834e-05	143761.48	683975.75	-0.00019846634
0	0.5907116	0.59070987	-3.0249186e-10	0.038183715	0.038183715	0	71700.586	71700.375	-3.734375e-05	684171.8	142821.81	-0.00028474626	142824.55	684172.06	-0.00014417531
0	0.59018004	0.5901783	-4.8295573e-10	0.037830256	0.037830256	0	71636.055	71635.85	-5.703125e-05	684367.25	141881.98	-0.00026131776	141884.72	684367.7	-0.0004131524
0	0.5896445	0.5896429	-3.944425e-10	0.037476577	0.037476573	0	71571.055	71570.85	-4.8125e-05	684562.75	140936.97	-0.00022166954	140939.7	684563	-0.0003361087
0	0.5891069	0.58910525	-3.1710085e-10	0.03712317	0.03712317	0	71505.8	71505.59	-3.828125e-05	684757.06	139989.9	-0.00021085641	139992.64	684757.44	-0.00024554858
0	0.5885649	0.58856326	-3.3686592e-10	0.0367695	0.0367695	0	71440.01	71439.81	-3.859375e-05	684951.25	139036.9	-0.00019463668	139039.61	684951.6	-0.000268076
0	0.5880207	0.58801895	-3.0421055e-10	0.03641604	0.036416046	0	71373.945	71373.75	-3.84375e-05	685144.56	138081.66	-0.00022527394	138084.34	685145	-0.00020544983
0	0.5874731	0.58747154	-1.7015167e-10	0.036062367	0.03606237	0	71307.49	71307.29	-2.15625e-05	685337.3	137122.4	-0.00011353806	137125.1	685337.7	-0.00013246108
0	0.5869225	0.58692086	-2.4319657e-10	0.0357089	0.0357089	0	71240.66	71240.46	-3.171875e-05	685529.25	136159.62	-0.00021986736	136162.28	685529.75	-0.00014237313
0	0.5863688	0.5863672	-4.5545647e-11	0.035355434	0.035355434	0	71173.445	71173.25	-5.46875e-06	685720.6	135193.06	-3.424164e-05	135195.72	685721.06	-2.4329585e-05
0	0.58581126	0.5858095	-2.9733574e-10	0.03500176	0.03500176	0	71105.76	71105.57	-3.625e-05	685911.56	134221.5	-0.0002937572	134224.14	685911.94	-0.000117367716
0	0.5852511	0.58524954	1.5983945e-10	0.034648288	0.034648288	0	71037.78	71037.586	1.8125e-05	686101.5	133247.47	-0.000118944634	133250.1	686101.94	0.00029781213
0	0.5846874	0.58468586	-1.7015167e-10	0.034294635	0.034294635	0	70969.37	70969.17	-2.15625e-05	686290.9	132268.9	-0.00016219723	132271.53	686291.3	-0.00010813149
0	0.5841212	0.58411974	5.6459415e-10	0.03394116	0.03394116	0	70900.63	70900.445	6.90625e-05	686479.2	131287.86	0.0005514706	131290.47	686479.7	0.00023586181
0	0.5835503	0.5835488	-6.152959e-10	0.033587493	0.03358749	0	70831.33	70831.15	-7.234375e-05	686667.5	130300.4	-0.00045415224	130302.99	686667.9	-0.00038319096
0	0.58297694	0.58297545	-3.0077316e-10	0.03323408	0.033234082	0	70761.734	70761.56	-3.765625e-05	686854.56	129310.59	-0.00043973472	129313.17	686855	-2.8835064e-05
0	0.58240026	0.5823988	1.374963e-11	0.032880425	0.032880425	0	70691.75	70691.56	7.8125e-07	687040.94	128316.84	9.010957e-06	128319.4	687041.4	1.667027e-05
0	0.5818203	0.58181876	-3.8670833e-10	0.032526962	0.03252696	0	70621.336	70621.16	-4.71875e-05	687226.56	127319.18	-0.00028925174	127321.734	687227.06	-0.0002574881
0	0.5812361	0.5812347	-4.0045797e-10	0.0321733	0.0321733	0	70550.44	70550.266	-4.890625e-05	687411.7	126316.45	-0.00034061418	126318.99	687412.06	-0.00022977941
0	0.58064955	0.58064806	-2.6725844e-10	0.031819817	0.031819817	0	70479.24	70479.07	-3.296875e-05	687595.7	125311.19	-0.00020364764	125313.71	687596.2	-0.00020590037
0	0.5800595	0.5800581	-4.1420758e-10	0.031466328	0.031466328	0	70407.625	70407.46	-5.015625e-05	687778.75	124302.055	-0.0003973832	124304.59	687779.4	-0.00020094434
0	0.5794595	0.579458	-6.3592034e-11	0.031112673	0.031112673	0	70334.79	70334.61	-5.15625e-06	687963.2	123277.516	-9.3713956e-05	123280.01	687963.75	3.424164e-05
0	0.5788681	0.57886666	-3.377253e-10	0.030759184	0.030759184	0	70263.01	70262.836	-4.34375e-05	688143.06	122269.79	-0.00018382353	122272.28	688143.56	-0.00032033955
0	0.5782668	0.5782654	-6.264675e-10	0.030405551	0.030405551	0	70190.03	70189.87	-7.640625e-05	688323.94	121247.16	-0.00043973472	121249.63	688324.44	-0.00043928417
0	0.5776627	0.57766134	-2.732739e-10	0.030052062	0.030052062	0	70116.7	70116.53	-3.21875e-05	688503.8	120221.48	-0.0002955594	120223.93	688504.44	-8.560409e-05
0	0.57705474	0.5770534	-2.9132027e-10	0.029698413	0.029698413	0	70042.91	70042.75	-3.328125e-05	688682.94	119191.305	-0.00023428489	119193.74	688683.44	-0.00016062032
0	0.5764432	0.576442	6.187333e-11	0.029344995	0.029344993	0	69968.68	69968.516	8.90625e-06	688861.1	118156.96	7.839533e-05	118159.4	688861.7	1.6895545e-05
0	0.5758237	0.57582235	-3.0592925e-10	0.028991356	0.028991356	0	69893.48	69893.33	-3.640625e-05	689039.7	117111.19	-0.00037305363	117113.59	689040.25	-3.424164e-05
0	0.5752063	0.575205	-4.4858167e-10	0.028637854	0.028637854	0	69818.54	69818.38	-5.609375e-05	689215.7	116070.78	-0.0005046136	116073.18	689216.25	-0.00014890607
0	0.5745815	0.5745802	-3.763961e-10	0.028284235	0.028284235	0	69742.7	69742.54	-4.421875e-05	689391.9	115019.875	-0.0003361087	115022.27	689392.44	-0.00016805435
0	0.5739553	0.57395405	-2.767113e-10	0.027930735	0.027930733	0	69666.695	69666.54	-3.234375e-05	689566.25	113968.75	-0.00028294406	113971.125	689566.94	-0.0001252523
0	0.57333136	0.5733301	-5.173298e-10	0.027577227	0.027577223	0	69590.96	69590.805	-6.34375e-05	689738.3	112923.26	-0.00036224048	112925.62	689738.94	-0.00037147672
0	0.57269466	0.57269347	-2.2343148e-11	0.027223594	0.02722359	0	69513.68	69513.53	-1.875e-06	689911.6	111858.59	-0.000338812	111860.94	689912.3	0.00028384515
0	0.57206064	0.57205945	-1.7616714e-10	0.026870081	0.026870081	0	69436.72	69436.58	-2.0625e-05	690082.4	110800.15	-0.00019463668	110802.48	690083.06	-7.028547e-05
0	0.57141894	0.5714178	-3.033512e-10	0.026516473	0.026516473	0	69358.836	69358.69	-3.890625e-05	690253.1	109731.09	-0.00041450403	109733.41	690253.8	-2.5005407e-05
0	0.57077485	0.5707737	-1.8647936e-10	0.026162952	0.026162952	0	69280.65	69280.51	-2.4375e-05	690422.5	108660.04	-0.00028925174	108662.34	690423.06	4.415369e-05
0	0.5701262	0.5701251	-5.439697e-10	0.025809333	0.025809333	0	69201.92	69201.78	-6.453125e-05	690591.06	107583.44	-0.00048298732	107585.73	690591.6	-0.0002532079
0	0.5694743	0.56947315	-7.390426e-10	0.025455903	0.025455903	0	69122.8	69122.65	-8.828125e-05	690758.25	106503.44	-0.0007082613	106505.71	690758.94	-0.00031741097
0	0.5688175	0.5688164	-2.354624e-10	0.025102295	0.025102293	0	69043.07	69042.94	-2.96875e-05	690924.75	105417.54	-9.010957e-05	105419.77	690925.4	-0.00027032872
0	0.56815696	0.5681559	-1.7530778e-10	0.024748767	0.024748765	0	68962.89	68962.76	-2.21875e-05	691090.2	104327.4	-0.00013876874	104329.63	691090.8	-0.000117142445
0	0.56749284	0.5674917	-1.0432532e-09	0.02439518	0.02439518	0	68882.28	68882.15	-0.0001271875	691254.25	103233.484	-0.00087946944	103235.7	691254.94	-0.000611844
0	0.5668186	0.56681746	-3.6436518e-10	0.024041647	0.024041647	0	68800.43	68800.305	-4.421875e-05	691418.75	102125.02	-0.0004406358	102127.22	691419.44	-6.870855e-05
0	0.56615245	0.56615144	-6.892002e-10	0.02368811	0.023688113	0	68719.59	68719.46	-8.296875e-05	691579.25	101032.125	-0.00064518454	101034.3	691579.8	-0.00032529555
0	0.5654758	0.5654748	-1.3405889e-10	0.023334507	0.023334507	0	68637.46	68637.336	-1.5625e-05	691740	99923.97	-1.9824107e-05	99926.14	691740.8	-0.00015634012
0	0.56479585	0.56479484	-1.3062149e-10	0.022980964	0.022980964	0	68554.92	68554.805	-1.453125e-05	691899.56	98812.516	-0.00010362601	98814.664	691900.25	-9.033485e-05
0	0.5641114	0.5641104	-6.462326e-10	0.022627395	0.022627393	0	68471.836	68471.72	-7.8125e-05	692057.94	97695.87	-0.0006325692	97697.984	692058.7	-0.00026492216
0	0.56342363	0.5634227	-7.6826057e-10	0.022273842	0.022273842	0	68388.36	68388.24	-9.140625e-05	692214.94	96576.05	-0.00075331604	96578.15	692215.75	-0.00032439447
0	0.5627299	0.56272894	-5.7404703e-10	0.021920258	0.021920258	0	68304.16	68304.04	-7e-05	692371.2	95448.61	-0.00047487745	95450.7	692371.94	-0.00033993836
0	0.56203324	0.5620323	-3.5061556e-10	0.021566812	0.021566812	0	68219.59	68219.48	-4.28125e-05	692525.8	94318.586	-0.00022347174	94320.67	692526.6	-0.000254109
0	0.5613324	0.5613315	-5.3279814e-10	0.021213228	0.02121323	0	68134.53	68134.42	-6.328125e-05	692679.2	93184.125	-0.00037485582	93186.18	692679.9	-0.00036043828
0	0.56062716	0.5606263	-3.746774e-10	0.020859674	0.020859674	0	68048.93	68048.83	-4.609375e-05	692831.4	92044.77	-0.0002928561	92046.805	692832.06	-0.00022685085
0	0.55991757	0.5599167	-5.10455e-10	0.020506129	0.020506129	0	67962.79	67962.69	-5.984375e-05	692982.2	90900.34	-0.0005712947	90902.375	692982.94	-0.00011443916
0	0.55920446	0.55920357	-1.3749629e-10	0.020152565	0.020152565	0	67876.24	67876.13	-2.03125e-05	693131.56	89752.7	-0.00030457036	89754.7	693132.4	8.3801904e-05
0	0.5584857	0.55848485	-2.8702352e-10	0.019798992	0.019798992	0	67788.984	67788.88	-3.453125e-05	693279.8	88598.07	-0.0003216912	88600.05	693280.6	-6.668108e-05
0	0.5577629	0.5577621	-3.4889686e-10	0.019445421	0.019445421	0	67701.266	67701.164	-4.09375e-05	693426.7	87439.414	-0.00036764707	87441.37	693427.5	-0.00013065888
0	0.5570363	0.55703545	-4.8123703e-11	0.019091858	0.019091858	0	67613.06	67612.96	-5.46875e-06	693572.06	86276.66	0.00014237313	86278.6	693572.9	-0.00017684004
0	0.55630463	0.55630386	-4.9154925e-10	0.018738287	0.018738287	0	67524.26	67524.164	-5.875e-05	693716.2	85108.42	-0.00046856978	85110.34	693717	-0.00022166954
0	0.555569	0.5555683	-1.9936963e-10	0.01838475	0.01838475	0	67434.97	67434.875	-2.484375e-05	693858.75	83935.99	-0.00053705304	83937.89	693859.56	0.00025365845
0	0.55482906	0.5548283	-4.4514425e-10	0.018031185	0.018031184	0	67345.15	67345.06	-5.453125e-05	693999.75	82758.98	-0.00016670271	82760.87	694000.7	-0.00047037198
0	0.55408365	0.55408293	-3.9358314e-10	0.017677717	0.017677717	0	67254.68	67254.586	-4.625e-05	694139.7	81575.67	-0.00056678924	81577.54	694140.44	1.9373558e-05
0	0.5533346	0.5533338	-1.2890278e-10	0.017324144	0.017324144	0	67163.75	67163.664	-1.46875e-05	694277.75	80388.81	-0.00010813149	80390.64	694278.6	-9.821943e-05
0	0.5525805	0.5525797	-1.8905741e-10	0.01697058	0.01697058	0	67072.22	67072.125	-2.203125e-05	694414.5	79196.31	-0.00048298732	79198.13	694415.3	0.00021446079
0	0.55182236	0.5518217	-2.835861e-10	0.016617043	0.016617041	0	66980.195	66980.125	-3.40625e-05	694549.56	77999.96	-0.00036224048	78001.75	694550.4	-1.9373558e-05
0	0.5510586	0.55105793	-1.4093371e-10	0.016263481	0.016263481	0	66887.49	66887.414	-1.671875e-05	694683.3	76796.94	-0.00020364764	76798.71	694684.1	1.667027e-05
0	0.5502908	0.5502902	-1.03122226e-10	0.015909908	0.015909908	0	66794.305	66794.23	-1.203125e-05	694815.3	75590.22	-0.00018742791	75591.97	694816.06	4.820862e-05
0	0.54951763	0.549517	-4.6748744e-10	0.015556336	0.015556336	0	66700.445	66700.37	-5.859375e-05	694945.75	74377.09	-0.0005785035	74378.836	694946.7	-7.4340394e-05
0	0.5487402	0.54873955	-2.1999408e-10	0.015202776	0.015202776	0	66606.08	66606.01	-2.546875e-05	695074.56	73159.94	-0.00032889994	73161.65	695075.56	3.784602e-05
0	0.547958	0.54795736	-3.231163e-10	0.014849206	0.014849206	0	66511.13	66511.07	-3.828125e-05	695201.7	71937.695	-0.00018472463	71939.39	695202.7	-0.00027055398
0	0.54717124	0.5471707	-7.5622966e-11	0.014495678	0.014495678	0	66415.65	66415.58	-8.125e-06	695327.2	70710.88	-0.0003775591	70712.56	695328.1	0.0002550101
0	0.5463798	0.54637927	-4.9154925e-10	0.014142117	0.014142119	0	66319.586	66319.516	-6.15625e-05	695450.9	69479.14	-0.00024870242	69480.79	695451.9	-0.00045144896
0	0.5455825	0.545582	5.070176e-10	0.0137886135	0.013788612	0	66222.805	66222.74	6e-05	695573.1	68240.78	-0.00020004326	68242.41	695574	0.00088712876
0	0.5447802	0.5447797	2.0624445e-11	0.013435041	0.013435041	0	66125.42	66125.37	3.75e-06	695693.5	66997.164	-2.7032873e-05	66998.77	695694.5	5.9922866e-05
0	0.54397357	0.5439732	-2.1311926e-10	0.013081477	0.013081477	0	66027.51	66027.46	-2.65625e-05	695812.1	65749.41	-0.00035503172	65750.984	695813	4.9109716e-05
0	0.54316175	0.5431613	-5.10455e-10	0.012727952	0.012727952	0	65928.98	65928.92	-6.5e-05	695928.94	64495.953	-0.0006749207	64497.516	695929.9	-7.096129e-05
0	0.54234475	0.5423443	2.9905445e-10	0.0123743825	0.0123743825	0	65829.8	65829.74	3.671875e-05	696044	63237.062	0.00020184544	63238.605	696044.9	0.00024554858
0	0.54151803	0.5415177	-3.3514722e-10	0.012020824	0.012020824	0	65729.45	65729.414	-4.25e-05	696157.75	61966.01	-0.00010993368	61967.523	696158.75	-0.0003680976
0	0.5406963	0.540696	-2.9389832e-10	0.011667253	0.011667253	0	65629.72	65629.67	-3.6796875e-05	696268.25	60705.11	-0.00061634945	60706.594	696269.25	0.00019824106
0	0.5398639	0.5398635	-5.517039e-10	0.011313697	0.011313697	0	65528.67	65528.633	-6.6875e-05	696377.6	59430.25	-0.0006541955	59431.71	696378.7	-9.731834e-05
0	0.53902596	0.5390256	8.593518e-11	0.010960129	0.010960131	0	65426.97	65426.934	7.8125e-06	696485.25	58149.652	-0.00020815311	58151.086	696486.25	0.00033160322
0	0.53818315	0.5381828	-2.9217965e-11	0.010606614	0.010606615	0	65324.668	65324.633	-2.96875e-06	696590.8	56864.168	-0.00015498846	56865.57	696591.75	0.00013426326
0	0.53733534	0.53733504	-3.5061556e-10	0.010253064	0.010253064	0	65221.76	65221.73	-4.046875e-05	696694.4	55573.754	-0.00035503172	55575.15	696695.4	-0.000118944634
0	0.5364815	0.5364812	-3.5233427e-10	0.009899496	0.009899496	0	65118.12	65118.09	-4.21875e-05	696796	54276.688	-0.00047307526	54278.06	696796.94	-3.1763626e-05
0	0.5356226	0.5356225	-2.1999408e-10	0.009545929	0.009545929	0	65013.88	65013.848	-2.484375e-05	696895.56	52974.875	-7.929643e-05	52976.227	696896.56	-0.00021829044
0	0.5347583	0.5347581	1.1515315e-10	0.009192375	0.009192374	0	64908.957	64908.938	1.359375e-05	696993.06	51667.277	6.668108e-05	51668.586	696994.06	0.00011038423
0	0.53388894	0.5338887	-1.9421352e-10	0.008838858	0.008838858	0	64803.43	64803.41	-2.203125e-05	697088.44	50354.74	-0.0003144824	50356.03	697089.5	5.7670128e-05
0	0.53301316	0.53301305	-8.593518e-11	0.00848529	0.00848529	0	64697.14	64697.125	-1.140625e-05	697181.75	49035.434	-0.00021986736	49036.695	697182.8	7.929643e-05
0	0.5321326	0.5321325	-1.9936963e-10	0.008131741	0.008131741	0	64590.254	64590.24	-2.3125e-05	697272.9	47711.53	-0.0001261534	47712.766	697273.94	-0.0001425984
0	0.53124565	0.5312455	-7.9575985e-10	0.007778168	0.007778168	0	64482.59	64482.582	-9.554688e-05	697361.94	46380.734	-0.000687536	46381.945	697362.94	-0.00040819636
0	0.5303542	0.53035414	-2.0452574e-10	0.007424603	0.007424603	0	64374.395	64374.38	-2.65625e-05	697448.7	45045.977	-8.650519e-05	45047.16	697449.75	-0.0002031971
0	0.52945614	0.529456	-3.5405295e-10	0.0070710587	0.0070710587	0	64265.387	64265.375	-4.3125e-05	697533.3	43704.094	-0.00033160322	43705.25	697534.4	-0.0001779664
0	0.5285525	0.5285524	-3.6092778e-11	0.0067175203	0.0067175203	0	64155.7	64155.695	-6.09375e-06	697615.6	42356.668	-0.00030276817	42357.793	697616.7	0.00026762544
0	0.52764297	0.52764297	-2.9217964e-10	0.006363976	0.006363976	0	64045.31	64045.312	-3.421875e-05	697695.7	41003.406	-0.00026402104	41004.504	697696.8	-0.00013876874
0	0.5267278	0.5267278	-1.1515315e-10	0.006010412	0.006010412	0	63934.22	63934.223	-1.46875e-05	697773.3	39644.445	-5.4065746e-05	39645.516	697774.4	-0.0001218732