# t (s)	mx ()	my ()	mz ()	B_extx (T)	B_exty (T)	B_extz (T)	m_fullx (A/m)	m_fully (A/m)	m_fullz (A/m)	m_full.region1x (A/m)	m_full.region1y (A/m)	m_full.region1z (A/m)	m_full.region2x (A/m)	m_full.region2y (A/m)	m_full.region2z (A/m)
0	0.6297706	0.6297691	-3.1584596e-10	0.07071087	0.07071087	0	116469.78	116469.516	-5.671875e-05	662751.2	218926.2	-0.00018688494	218927.67	662750.6	-0.00024099876
0	0.62965554	0.6296539	-3.023097e-10	0.07056911	0.07056911	0	116448.5	116448.195	-5.140625e-05	662830.06	218685.94	-0.0002495742	218687.7	662829.44	-0.00018215367
0	0.6295371	0.6295354	-2.6621302e-10	0.07042789	0.07042788	0	116426.6	116426.27	-4.96875e-05	662911.4	218438.77	-0.00017505678	218440.52	662910.75	-0.00019132049
0	0.62941843	0.62941676	-2.0755592e-10	0.07028653	0.07028653	0	116404.66	116404.336	-4.125e-05	662992.7	218191.34	-0.00017032551	218193.08	662992.1	-0.00016086298
0	0.6292989	0.6292972	-2.2560426e-10	0.070144884	0.070144884	0	116382.555	116382.23	-4.25e-05	663074.44	217942.31	-0.00015376609	217944.08	663073.8	-0.00017446537
0	0.62918	0.6291783	-1.3536255e-10	0.07000352	0.07000352	0	116360.56	116360.234	-2e-05	663155.75	217694.52	-4.7312642e-05	217696.28	663155.1	-0.000114141745
0	0.6290604	0.6290586	-1.4889881e-10	0.06986229	0.06986229	0	116338.42	116338.09	-2.5e-05	663237.2	217445.52	-0.00011355034	217447.3	663236.56	-9.6990916e-05
0	0.6289404	0.6289386	-1.6694715e-10	0.069720544	0.069720544	0	116316.24	116315.914	-3.125e-05	663318.75	217196.02	-0.0001253785	217197.78	663318.1	-0.00011266323
0	0.62882006	0.6288183	-1.08290044e-10	0.06957919	0.06957919	0	116293.98	116293.664	-1.890625e-05	663400.56	216945.81	-9.935655e-05	216947.6	663399.94	-7.570023e-05
0	0.62870014	0.62869835	-1.7145924e-10	0.069437966	0.069437966	0	116271.8	116271.49	-3.375e-05	663481.9	216696.58	-0.00012301287	216698.34	663481.1	-0.00016559425
0	0.6285792	0.62857753	-2.4816468e-10	0.069296576	0.069296576	0	116249.445	116249.12	-5.625e-05	663563.6	216445.53	-0.00020935843	216447.33	663563	-0.00020374007
0	0.6284585	0.6284567	-3.338943e-10	0.06915496	0.069154955	0	116227.11	116226.79	-6.25e-05	663645.2	216194.95	-0.00019398183	216196.7	663644.56	-0.00026258515
0	0.62833756	0.62833583	1.35362554e-11	0.069013596	0.069013596	0	116204.74	116204.43	-2.5e-06	663726.56	215944.17	-1.18281605e-05	215945.98	663725.94	2.6021953e-05
0	0.6282158	0.628214	-1.218263e-10	0.068872236	0.068872236	0	116182.234	116181.914	-1.875e-05	663808.4	215692	-3.5484481e-06	215693.78	663807.6	-0.00017091692
0	0.6280941	0.6280924	-1.7145924e-10	0.06873064	0.06873064	0	116159.73	116159.4	-3.25e-05	663890	215439.9	-0.00015613172	215441.69	663889.44	-0.00010941048
0	0.627973	0.62797123	-8.572962e-11	0.06858927	0.06858927	0	116137.32	116136.99	-1.875e-05	663971.44	215188.9	-7.451741e-05	215190.72	663970.8	-4.2581378e-05
0	0.62785053	0.6278488	-9.02417e-11	0.068448015	0.06844801	0	116114.68	116114.36	-2e-05	664053.4	214935.61	-4.6129826e-05	214937.39	664052.7	-9.55124e-05
0	0.6277286	0.62772685	-2.9328553e-10	0.06830665	0.06830665	0	116092.13	116091.805	-5.296875e-05	664134.75	214683.44	-0.00019398183	214685.25	664134.1	-0.00026081095
0	0.6276055	0.62760365	-2.2109217e-10	0.06816504	0.06816504	0	116069.36	116069.04	-4.0625e-05	664216.7	214429.12	-0.00011355034	214430.95	664216.06	-0.00019634746
0	0.6274829	0.62748116	-2.1658009e-10	0.068023674	0.068023674	0	116046.69	116046.375	-4e-05	664298.44	214175.8	-0.000100539364	214177.61	664297.8	-0.00019723458
0	0.62736	0.62735826	-2.1658009e-10	0.06788232	0.06788232	0	116023.96	116023.64	-3.71875e-05	664379.94	213922.22	-0.0001324754	213924.03	664379.25	-0.00017801381
0	0.6272367	0.62723494	-2.2109217e-10	0.067740716	0.067740716	0	116001.15	116000.836	-4.375e-05	664461.7	213667.81	-0.00015140045	213669.6	664461.1	-0.00018688494
0	0.62711346	0.6271117	-8.121753e-11	0.06759932	0.06759932	0	115978.36	115978.04	-1.25e-05	664543.2	213413.83	2.365632e-06	213415.62	664542.5	-0.00013750237
0	0.6269887	0.6269869	-1.1280213e-10	0.06745809	0.06745809	0	115955.28	115954.96	-2.625e-05	664625.44	213156.84	-0.00012301287	213158.64	664624.94	-9.521669e-05
0	0.6268653	0.6268635	-2.5267677e-10	0.067316726	0.067316726	0	115932.47	115932.15	-4.375e-05	664706.94	212902.64	-0.00016441142	212904.44	664706.25	-0.00018333648
0	0.62674093	0.62673926	-2.1658009e-10	0.067174986	0.067174986	0	115909.47	115909.14	-3.5e-05	664788.7	212646.81	-0.00015021763	212648.64	664788.06	-0.00012715273
0	0.6266162	0.62661445	-2.5718885e-10	0.06703377	0.06703377	0	115886.4	115886.08	-5.4375e-05	664870.44	212390.53	-0.00021763815	212392.33	664869.7	-0.00021468112
0	0.62649137	0.62648976	-2.12068e-10	0.066892385	0.066892385	0	115863.33	115863	-4e-05	664952.25	212133.84	-0.00017150832	212135.66	664951.75	-0.00016559425
0	0.6263662	0.62636447	-2.5718885e-10	0.06675076	0.06675076	0	115840.164	115839.84	-4.75e-05	665034.06	211876.75	-0.00016559425	211878.55	665033.5	-0.00021586393
0	0.6262408	0.62623906	-3.1584596e-11	0.0666094	0.0666094	0	115816.96	115816.66	2.1875e-06	665115.9	211619.33	4.7312642e-05	211621.16	665115.3	-3.6667298e-05
0	0.62611556	0.6261138	-2.1658009e-10	0.066468164	0.06646817	0	115793.805	115793.48	-4.125e-05	665197.7	211362.27	-0.00012419568	211364.06	665197.06	-0.00020551428
0	0.62598985	0.62598807	-2.2109217e-10	0.06632643	0.06632643	0	115770.555	115770.234	-3.875e-05	665279.4	211104.52	-0.00016559425	211106.34	665278.75	-0.00018511071
0	0.6258633	0.6258616	1.804834e-11	0.06618507	0.06618507	0	115747.164	115746.84	0	665361.4	210845.52	2.9570401e-05	210847.34	665360.7	-1.5672313e-05
0	0.6257373	0.6257356	-1.6243507e-10	0.06604384	0.06604384	0	115723.86	115723.53	-3.25e-05	665443.1	210587.31	-6.62377e-05	210589.12	665442.5	-0.00012774413
0	0.62561023	0.6256085	-5.4145022e-11	0.065902434	0.065902434	0	115700.37	115700.04	-8.75e-06	665525.1	210327.45	-6.7420515e-05	210329.27	665524.44	4.139856e-06
0	0.6254836	0.62548184	-3.5645473e-10	0.06576085	0.06576085	0	115676.94	115676.6	-6.75e-05	665607.06	210068.06	-0.00022710068	210069.9	665606.44	-0.00026849925
0	0.6253568	0.625355	-1.9401966e-10	0.065619476	0.065619476	0	115653.47	115653.15	-3.25e-05	665688.75	209808.9	-0.00011118471	209810.72	665688.1	-0.00014430356
0	0.6252286	0.6252268	-2.2560426e-10	0.06547825	0.06547824	0	115629.766	115629.42	-4.625e-05	665770.94	209547.19	-0.00016322861	209548.98	665770.3	-0.00019634746
0	0.6251016	0.6250999	-1.35362554e-11	0.065336525	0.065336525	0	115606.29	115605.96	-3.75e-06	665852.5	209288.05	1.0645344e-05	209289.89	665851.9	-2.2473505e-05
0	0.62497324	0.62497145	-4.9632937e-10	0.06519514	0.06519514	0	115582.55	115582.22	-8.75e-05	665934.56	209026.1	-0.0003465651	209027.94	665933.9	-0.00035011355
0	0.62484527	0.6248435	-3.609668e-11	0.065053925	0.065053925	0	115558.89	115558.555	-8.75e-06	666016.44	208765.11	2.6021953e-05	208766.94	666015.8	-7.5108816e-05
0	0.6247164	0.6247147	-1.7145924e-10	0.064912505	0.06491251	0	115535.055	115534.734	-3.203125e-05	666098.5	208502.56	-0.00010172218	208504.4	666098	-0.00012951836
0	0.6245883	0.6245865	-1.804834e-10	0.06477093	0.06477093	0	115511.36	115511.04	-3.4375e-05	666180.2	208241.6	-0.000112367525	208243.42	666179.7	-0.00017269114
0	0.6244586	0.62445694	-2.12068e-10	0.06462956	0.06462956	0	115487.38	115487.07	-4e-05	666262.3	207978	-0.0001407551	207979.83	666261.7	-0.0001845193
0	0.6243295	0.6243277	-5.4145022e-11	0.06448818	0.06448818	0	115463.51	115463.17	-8.125e-06	666344.4	207714.98	9.462528e-06	207716.83	666343.75	-1.6855129e-05
0	0.6242001	0.6241983	-2.391405e-10	0.0643466	0.0643466	0	115439.555	115439.234	-4.25e-05	666426.3	207451.94	-0.00017269114	207453.78	666425.8	-0.00017978804
0	0.6240706	0.62406886	-2.1658009e-10	0.06420524	0.06420524	0	115415.62	115415.29	-3.375e-05	666508.1	207188.83	-0.00016322861	207190.66	666507.5	-0.00012242146
0	0.62393975	0.62393796	-9.02417e-11	0.064063966	0.064063966	0	115391.43	115391.1	-1.875e-05	666590.4	206923.56	-4.2581378e-05	206925.4	666589.7	-9.55124e-05
0	0.6238098	0.623808	-2.0304383e-10	0.063922584	0.063922584	0	115367.375	115367.06	-4e-05	666672.2	206659.64	-0.00016322861	206661.5	666671.6	-0.00016618565
0	0.6236792	0.6236775	-4.4218434e-10	0.063781016	0.063781016	0	115343.25	115342.91	-8.25e-05	666754.25	206394.9	-0.00027441332	206396.73	666753.6	-0.00035040925
0	0.623548	0.62354624	-1.6243507e-10	0.06363963	0.06363963	0	115318.96	115318.64	-2.625e-05	666836.25	206129.1	-0.00011118471	206130.95	666835.6	-8.5162756e-05
0	0.6234171	0.62341535	-2.5718885e-10	0.06349825	0.06349824	0	115294.76	115294.43	-4.875e-05	666918.25	205863.77	-0.00022828349	205865.62	666917.7	-0.00017978804
0	0.62328625	0.62328446	-9.475379e-11	0.06335668	0.06335668	0	115270.56	115270.23	-2.375e-05	666999.94	205598.86	-3.311885e-05	205600.72	666999.3	-0.00013484103
0	0.62315434	0.6231526	-3.609668e-11	0.06321527	0.06321527	0	115246.164	115245.84	-1.5625e-06	667082.1	205332.14	4.731264e-06	205334	667081.5	-2.6613361e-05
0	0.6230217	0.62302005	-2.2109217e-10	0.063074045	0.06307404	0	115221.64	115221.32	-4.875e-05	667164.6	205064.05	-0.00020817562	205065.89	667163.9	-0.00014193793
0	0.6228902	0.6228884	-1.4438672e-10	0.062932655	0.06293266	0	115197.3	115196.98	-2.75e-05	667246.1	204798.22	-9.1076836e-05	204800.08	667245.56	-9.994795e-05
0	0.6227571	0.6227553	-1.4438672e-10	0.062790945	0.062790945	0	115172.7	115172.36	-2.125e-05	667328.4	204529.56	-8.043149e-05	204531.42	667327.9	-0.00010527063
0	0.6226244	0.62262255	-1.3085047e-10	0.062649705	0.062649705	0	115148.16	115147.83	-2.484375e-05	667410.56	204261.69	-0.00012892694	204263.55	667409.94	-7.215178e-05
0	0.6224917	0.62248987	-3.609668e-11	0.06250833	0.06250833	0	115123.61	115123.28	-7.5e-06	667492.4	203994.08	-4.7312642e-05	203995.94	667491.75	-2.069928e-05
0	0.6223582	0.6223565	-2.6621302e-10	0.06236674	0.06236674	0	115098.93	115098.6	-5.25e-05	667574.2	203725.4	-0.00017032551	203727.3	667573.7	-0.00023005772
0	0.6222238	0.62222207	-1.3085047e-10	0.062225346	0.062225346	0	115074.07	115073.74	-2e-05	667656.75	203454.72	-0.00010881908	203456.58	667656.1	-4.583412e-05
0	0.6220895	0.62208784	1.8950758e-10	0.06208412	0.06208412	0	115049.25	115048.92	3.25e-05	667739.06	203184.5	0.00025312262	203186.39	667738.4	2.1290689e-05
0	0.6219562	0.62195456	-2.752372e-10	0.061942413	0.061942413	0	115024.6	115024.27	-5.34375e-05	667820.7	202916.16	-0.00014193793	202918.06	667820.2	-0.00028505866
0	0.62182194	0.62182015	-5.4145022e-11	0.06180102	0.061801024	0	114999.734	114999.42	-8.75e-06	667902.75	202646	-0.00012064724	202647.88	667902.2	3.7850114e-05
0	0.6216872	0.6216854	-2.8877345e-10	0.06165979	0.06165979	0	114974.82	114974.49	-5.5e-05	667984.9	202375.25	-0.0001845193	202377.12	667984.2	-0.00024543432
0	0.6215524	0.62155056	-1.6243507e-10	0.061518367	0.061518367	0	114949.89	114949.56	-2.828125e-05	668066.75	202104.66	-6.62377e-05	202106.53	668066.1	-0.00016027158
0	0.6214165	0.6214147	-5.4145022e-11	0.061376818	0.06137681	0	114924.766	114924.445	-1e-05	668149.1	201832.1	-4.2581378e-05	201833.98	668148.5	-4.9678274e-05
0	0.6212814	0.6212796	-1.804834e-10	0.061235435	0.061235435	0	114899.78	114899.445	-4e-05	668230.94	201561.11	-0.00013720666	201562.97	668230.4	-0.00016411573
0	0.6211455	0.6211437	-2.2560426e-11	0.061094042	0.061094042	0	114874.64	114874.32	-6.875e-06	668312.94	201288.78	-2.8387585e-05	201290.66	668312.5	-8.87112e-06
0	0.6210092	0.6210074	-7.219336e-11	0.0609525	0.060952503	0	114849.45	114849.12	-1.5e-05	668395.2	201015.81	-6.505488e-05	201017.72	668394.6	-5.9140802e-05
0	0.62087303	0.62087125	-1.804834e-11	0.060811102	0.060811102	0	114824.25	114823.94	-2.5e-06	668477.1	200743.22	1.182816e-06	200745.11	668476.56	-1.0645344e-05
0	0.62073624	0.6207344	-1.2633838e-10	0.06066984	0.06066984	0	114798.96	114798.63	-2e-05	668559.2	200469.62	-6.1506435e-05	200471.53	668558.7	-7.3926e-05
0	0.62059927	0.6205975	-1.534109e-10	0.060528446	0.060528446	0	114773.65	114773.3	-2.375e-05	668641.3	200195.89	-1.4193793e-05	200197.78	668640.6	-0.0001916162
0	0.62046176	0.6204599	-2.6170094e-10	0.0603869	0.060386896	0	114748.19	114747.86	-5.125e-05	668723.5	199921.05	-0.00017269114	199922.94	668722.9	-0.00021734244
0	0.620324	0.6203223	-4.512085e-11	0.060245506	0.060245506	0	114722.71	114722.38	-6.25e-06	668805.7	199645.98	-3.311885e-05	199647.89	668805.1	-3.341455e-05
0	0.6201864	0.6201846	2.2560426e-11	0.060104124	0.060104124	0	114697.266	114696.93	5e-06	668887.6	199371.44	-7.451741e-05	199373.33	668886.94	9.6990916e-05
0	0.6200483	0.6200465	-1.4889881e-10	0.05996258	0.05996258	0	114671.73	114671.4	-2.75e-05	668969.56	199096.06	-0.0001336582	199097.94	668969.06	-0.00011355034
0	0.6199097	0.61990786	-1.08290044e-10	0.059821147	0.059821147	0	114646.1	114645.77	-1.78125e-05	669051.94	198819.78	-8.043149e-05	198821.66	669051.3	-7.599593e-05
0	0.61977124	0.61976945	-1.9853175e-10	0.059679918	0.059679918	0	114620.484	114620.17	-3.5e-05	669133.9	198544.03	-0.00013720666	198545.94	669133.25	-0.00016559425
0	0.61963147	0.61962974	-1.804834e-10	0.05953851	0.05953851	0	114594.65	114594.31	-3e-05	669216.2	198266.02	-0.00011709879	198267.9	669215.56	-0.00012301287
0	0.6194928	0.619491	-2.3011634e-10	0.059396826	0.059396826	0	114568.984	114568.664	-4.46875e-05	669298	197989.95	-0.00014666919	197991.83	669297.44	-0.00017801381
0	0.61935306	0.61935127	-2.752372e-10	0.059255596	0.059255596	0	114543.15	114542.83	-5e-05	669380.2	197712.19	-0.00016086298	197714.1	669379.56	-0.00023419758
0	0.619213	0.6192112	-3.1133388e-10	0.059114184	0.059114188	0	114517.26	114516.91	-5.5e-05	669462.2	197434.06	-0.00021290689	197436	669461.56	-0.00021113266
0	0.61907285	0.61907107	-1.3085047e-10	0.058972627	0.058972627	0	114491.33	114490.99	-2.4375e-05	669544.4	197155.66	-0.00010408781	197157.6	669543.75	-0.000102313585
0	0.6189326	0.61893076	-1.7597132e-10	0.05883123	0.058831234	0	114465.38	114465.06	-3.125e-05	669626.3	196877.4	-0.00012183005	196879.31	669625.7	-0.00013484103
0	0.61879194	0.6187901	-7.219336e-11	0.05868999	0.05868999	0	114439.375	114439.05	-1.375e-05	669708.3	196598.39	-2.2473505e-05	196600.28	669707.8	-5.5000946e-05
0	0.6186507	0.6186489	-2.6170094e-10	0.0585483	0.0585483	0	114413.24	114412.92	-4.78125e-05	669790.44	196318.6	-0.00021763815	196320.52	669789.8	-0.00018511071
0	0.6185092	0.6185073	-1.9401966e-10	0.058406904	0.058406904	0	114387.086	114386.74	-3.34375e-05	669872.44	196038.36	-0.00017742241	196040.25	669871.94	-7.570023e-05
0	0.6183673	0.6183655	-2.6170094e-10	0.058265664	0.058265664	0	114360.84	114360.516	-5.125e-05	669954.75	195757.52	-0.00012892694	195759.44	669954.1	-0.00025341834
0	0.6182258	0.61822397	-1.5792298e-10	0.05812423	0.05812423	0	114334.68	114334.34	-2.71875e-05	670036.6	195477.48	-0.00014193793	195479.4	670036	-9.994795e-05
0	0.61808354	0.6180818	-2.5267677e-10	0.057982713	0.057982713	0	114308.375	114308.03	-4.375e-05	670118.6	195196.45	-0.00016322861	195198.36	670118	-0.00015613172
0	0.6179406	0.6179388	-1.1731421e-10	0.057841305	0.057841305	0	114281.93	114281.59	-2.125e-05	670200.8	194914.08	-6.62377e-05	194916	670200.2	-0.000106453444
0	0.617798	0.6177961	-1.9401966e-10	0.057699904	0.057699904	0	114255.55	114255.22	-3.953125e-05	670282.9	194632.33	-0.00014666919	194634.27	670282.25	-0.00018511071
0	0.6176548	0.61765295	-3.2938222e-10	0.057558388	0.057558388	0	114229.086	114228.75	-5.25e-05	670364.8	194350.03	-0.00021763815	194351.97	670364.1	-0.00021527252
0	0.617511	0.6175092	-9.475379e-11	0.057416987	0.057416987	0	114202.484	114202.16	-1.5e-05	670447.06	194066.4	-5.677517e-05	194068.33	670446.44	-5.6183762e-05
0	0.6173674	0.61736566	-2.9328553e-10	0.05727571	0.05727571	0	114175.93	114175.59	-5.625e-05	670529	193783.5	-0.00021290689	193785.4	670528.44	-0.0001916162
0	0.61722386	0.6172221	-2.707251e-10	0.0571343	0.0571343	0	114149.375	114149.05	-5.125e-05	670610.7	193500.83	-0.00025785388	193502.75	670610.06	-0.00014903482
0	0.617079	0.61707723	-2.2560426e-10	0.05699279	0.05699279	0	114122.6	114122.27	-4.25e-05	670692.94	193215.8	-0.00015613172	193217.72	670692.3	-0.00016056727
0	0.6169345	0.6169327	-1.4438672e-10	0.05685139	0.056851387	0	114095.86	114095.55	-2.8125e-05	670774.8	192931.55	-0.00010408781	192933.45	670774.25	-8.9006906e-05
0	0.6167896	0.61678773	-2.6170094e-10	0.05670998	0.056709986	0	114069.055	114068.73	-5e-05	670856.9	192646.52	-0.00012301287	192648.45	670856.4	-0.00025312262
0	0.61664397	0.6166422	-4.0608766e-11	0.05656847	0.05656847	0	114042.13	114041.805	-1.375e-05	670939	192360.62	-5.3226722e-05	192362.55	670938.4	-2.8091881e-05
0	0.6164986	0.6164968	3.609668e-11	0.05642703	0.05642703	0	114015.266	114014.92	6.5625e-06	671020.8	192075.25	5.2043906e-05	192077.17	671020.3	2.4839137e-05
0	0.61635256	0.6163507	-1.804834e-10	0.05628579	0.056285787	0	113988.24	113987.914	-3.125e-05	671102.9	191788.83	-0.00016204579	191790.75	671102.3	-7.806586e-05
0	0.6162064	0.6162047	-1.4438672e-10	0.056144364	0.056144364	0	113961.22	113960.875	-3.375e-05	671184.8	191502.22	-8.279712e-05	191504.16	671184.25	-0.00017032551
0	0.61605984	0.616058	-9.926587e-11	0.0560027	0.056002706	0	113934.11	113933.77	-2.0625e-05	671266.94	191214.89	-8.043149e-05	191216.83	671266.3	-9.758232e-05
0	0.61591303	0.6159113	-1.9853175e-10	0.055861473	0.055861466	0	113906.96	113906.64	-3.375e-05	671348.8	190927.53	-0.00013129257	190929.48	671348.2	-0.0001395723
0	0.61576563	0.61576384	-3.338943e-10	0.05572005	0.055720054	0	113879.695	113879.375	-6.75e-05	671430.8	190639.17	-0.00024011165	190641.1	671430.2	-0.00026820353
0	0.6156183	0.61561656	-2.9779762e-10	0.05557856	0.05557856	0	113852.45	113852.13	-5.15625e-05	671512.7	190351.02	-0.00019398183	190352.95	671512.06	-0.0002285792
0	0.6154706	0.6154688	-2.6621302e-10	0.055437103	0.055437103	0	113825.13	113824.79	-5.25e-05	671594.6	190062.31	-0.00012774413	190064.22	671594	-0.00024839136
0	0.6153223	0.61532056	-1.804834e-10	0.05529586	0.05529586	0	113797.71	113797.38	-3.5e-05	671676.7	189772.6	-9.6990916e-05	189774.55	671676.2	-0.00017742241
0	0.615174	0.6151722	-2.752372e-10	0.055154454	0.055154454	0	113770.28	113769.95	-4.84375e-05	671758.5	189483.23	-0.0001987131	189485.17	671757.94	-0.00021290689
0	0.6150254	0.6150236	-1.6243507e-10	0.055012785	0.05501279	0	113742.805	113742.47	-2.875e-05	671840.4	189193.2	-0.00017505678	189195.16	671839.8	-6.62377e-05
0	0.61487645	0.61487466	-2.3011634e-10	0.054871544	0.054871544	0	113715.24	113714.914	-4.125e-05	671922.2	188902.89	-0.00017387395	188904.83	671921.7	-0.00016441142
0	0.6147274	0.61472553	-2.7974928e-10	0.05473013	0.05473012	0	113687.67	113687.34	-5.125e-05	672004	188612.42	-0.00020344436	188614.39	672003.4	-0.0001987131
0	0.6145774	0.6145756	-1.534109e-10	0.054588605	0.054588605	0	113659.945	113659.62	-2.75e-05	672086	188320.56	-8.5162756e-05	188322.5	672085.3	-0.00012774413
0	0.61442727	0.61442554	-2.6170094e-10	0.05444718	0.05444718	0	113632.195	113631.836	-4.5e-05	672167.94	188028.36	-0.00019516464	188030.31	672167.4	-0.0001549489
0	0.6142774	0.6142756	-3.2487013e-10	0.05430595	0.05430595	0	113604.45	113604.125	-5.84375e-05	672249.5	187736.88	-0.00021763815	187738.83	672248.94	-0.00025016558
0	0.61412615	0.61412436	-1.804834e-10	0.054164287	0.05416429	0	113576.49	113576.164	-3.625e-05	672331.75	187442.97	-0.00016086298	187444.94	672331.1	-0.00011118471
0	0.61397517	0.6139734	-1.804834e-10	0.05402286	0.05402286	0	113548.58	113548.25	-3.375e-05	672413.5	187149.84	-0.000147852	187151.81	672413	-0.00014312073
0	0.61382455	0.6138227	-1.8499549e-10	0.053881623	0.053881623	0	113520.7	113520.37	-3.40625e-05	672495.06	186857.33	-0.00015140045	186859.28	672494.5	-0.000112367525
0	0.6136726	0.6136708	-2.7974928e-10	0.053740162	0.053740162	0	113492.61	113492.27	-5.125e-05	672577	186562.7	-0.00025785388	186564.64	672576.4	-0.0001324754
0	0.61352074	0.6135189	-7.219336e-11	0.053598687	0.053598687	0	113464.52	113464.195	-1e-05	672658.75	186268.31	-4.139856e-05	186270.27	672658.25	-1.8925057e-05
0	0.61336875	0.6133669	-2.12068e-10	0.053457264	0.053457264	0	113436.414	113436.08	-3.65625e-05	672740.4	185973.86	-0.000118281605	185975.83	672739.8	-0.00016736847
0	0.61321616	0.6132144	-1.3085047e-10	0.05331584	0.053315833	0	113408.2	113407.87	-2.75e-05	672822.1	185678.56	-0.00012892694	185680.52	672821.56	-5.736658e-05
0	0.61306286	0.6130611	-1.9401966e-10	0.05317437	0.05317437	0	113379.84	113379.516	-3.25e-05	672904.1	185382.02	-9.935655e-05	185383.95	672903.5	-0.00013129257
0	0.61290944	0.61290765	-1.4438672e-10	0.053032946	0.053032946	0	113351.47	113351.14	-2.875e-05	672985.9	185085.39	-1.8925057e-05	185087.33	672985.25	-0.00016677706
0	0.61275584	0.612754	-1.0377796e-10	0.05289166	0.05289166	0	113323.06	113322.72	-2.25e-05	673067.5	184788.62	-3.311885e-05	184790.6	673067	-0.0001324754
0	0.6126024	0.6126006	-3.609668e-11	0.052750226	0.052750226	0	113294.69	113294.37	-6.5625e-06	673149.06	184492.39	4.731264e-06	184494.36	673148.5	-4.198997e-05
0	0.6124481	0.6124463	-2.12068e-10	0.052608766	0.05260877	0	113266.15	113265.805	-4.171875e-05	673230.94	184194.42	-0.00012774413	184196.38	673230.4	-0.00016855128
0	0.6122937	0.612292	-8.572962e-11	0.052467342	0.052467342	0	113237.61	113237.266	-2.25e-05	673312.4	183896.9	-7.096896e-05	183898.89	673311.8	-6.387207e-05
0	0.6121373	0.6121355	-2.5718885e-10	0.052325904	0.052325908	0	113208.68	113208.34	-5e-05	673394.6	183595.62	-0.00022355223	183597.58	673394.2	-0.00017387395
0	0.6119837	0.6119819	-1.7145924e-10	0.05218445	0.05218446	0	113180.266	113179.94	-2.5e-05	673475.6	183299.56	-8.989402e-05	183301.55	673475.1	-0.00011769019
0	0.6118281	0.61182624	-3.2487013e-10	0.052042987	0.052042987	0	113151.48	113151.14	-6.5e-05	673557.4	182999.92	-0.00030753217	183001.9	673556.8	-0.00022236942
0	0.61167216	0.6116704	-2.0755592e-10	0.051901728	0.051901728	0	113122.65	113122.33	-3.75e-05	673639	182700.05	-0.00013484103	182702.05	673638.4	-0.00017771812
0	0.6115158	0.611514	-4.24136e-10	0.051760297	0.051760294	0	113093.73	113093.38	-7.859375e-05	673720.5	182399.6	-0.00041161999	182401.55	673720	-0.00023183195
0	0.6113598	0.611358	-2.8426136e-10	0.051618673	0.051618665	0	113064.87	113064.54	-5.25e-05	673801.94	182099.8	-0.00016204579	182101.77	673801.4	-0.00024602574
0	0.611202	0.6112002	-2.436526e-10	0.05147742	0.05147742	0	113035.7	113035.375	-4.25e-05	673883.75	181797.05	-0.00014666919	181799.03	673883.3	-0.00020876703
0	0.6110451	0.6110433	-1.9401966e-10	0.051335983	0.051335983	0	113006.67	113006.336	-3.421875e-05	673965.2	181495.95	-0.00017032551	181497.95	673964.6	-0.00010881908
0	0.61088824	0.6108864	-2.752372e-10	0.051194493	0.051194496	0	112977.67	112977.336	-5e-05	674046.5	181195.16	-0.0002211866	181197.12	674045.94	-0.00020107873
0	0.6107301	0.6107284	-2.7974928e-10	0.051053062	0.051053066	0	112948.42	112948.1	-4.875e-05	674128.06	180892.08	-0.00017150832	180894.06	674127.56	-0.000176831
0	0.61057216	0.6105704	-1.1731421e-10	0.050911807	0.050911807	0	112919.23	112918.875	-2.203125e-05	674209.44	180589.64	-9.4625284e-05	180591.62	674208.8	-6.860333e-05
0	0.6104136	0.6104118	-1.3085047e-10	0.050770186	0.050770186	0	112889.89	112889.55	-2.625e-05	674290.8	180286.23	-6.62377e-05	180288.19	674290.25	-0.00014193793
0	0.6102546	0.61025274	-1.7145924e-10	0.050628755	0.050628755	0	112860.484	112860.14	-3.375e-05	674372.4	179982.03	-9.225965e-05	179984.03	674371.8	-0.00013454532
0	0.6100955	0.61009365	-3.384064e-10	0.050487496	0.050487496	0	112831.055	112830.73	-5.875e-05	674453.6	179678.1	-0.00020817562	179680.06	674453.06	-0.00026435938
0	0.6099357	0.60993385	-2.0755592e-10	0.050346017	0.050346017	0	112801.51	112801.18	-3.875e-05	674535	179373	-0.00017505678	179374.97	674534.44	-9.225965e-05
0	0.6097757	0.60977393	-2.707251e-10	0.050204586	0.050204586	0	112771.914	112771.586	-5.875e-05	674616.4	179067.56	-0.0002519398	179069.56	674615.9	-0.00021261118
0	0.60961413	0.6096123	-3.7450307e-10	0.05006314	0.050063144	0	112742.03	112741.695	-7.3125e-05	674698.25	178759.52	-0.000353662	178761.5	674697.7	-0.0002069928
0	0.6094552	0.6094534	-9.926587e-11	0.049921695	0.049921695	0	112712.64	112712.305	-2.75e-05	674779	178456.33	-0.00013129257	178458.31	674778.5	-4.9678274e-05
0	0.6092943	0.6092925	-1.7597132e-10	0.04978028	0.04978028	0	112682.9	112682.555	-3.25e-05	674860.2	178149.88	-9.935655e-05	178151.86	674859.6	-0.00015997587
0	0.6091315	0.6091297	-1.6694715e-10	0.049638826	0.049638826	0	112652.766	112652.445	-2.78125e-05	674941.94	177840.08	-8.989402e-05	177842.08	674941.44	-0.00011118471
0	0.6089699	0.60896814	-3.1584596e-11	0.04949753	0.04949753	0	112622.9	112622.56	-5e-06	675023.25	177532.64	-4.2581378e-05	177534.62	675022.75	7.0968963e-06
0	0.608809	0.60880727	-8.121753e-11	0.049356084	0.049356084	0	112593.14	112592.81	-2e-05	675104.06	177226.66	-0.00013484103	177228.64	675103.5	-3.0457513e-05
0	0.6086469	0.6086451	-2.7974928e-10	0.049214657	0.049214657	0	112563.16	112562.82	-5.125e-05	675185.1	176918.53	-0.00020817562	176920.53	675184.7	-0.00020314865
0	0.60848397	0.60848206	-1.6243507e-10	0.04907321	0.04907321	0	112533.02	112532.69	-3.25e-05	675266.44	176609.08	-0.00011946442	176611.06	675265.94	-0.0001395723
0	0.608319	0.60831714	-2.1658009e-10	0.048931766	0.048931766	0	112502.516	112502.17	-3.625e-05	675348.3	176296.25	-8.161431e-05	176298.23	675347.75	-0.00019398183
0	0.60815763	0.6081558	-2.6621302e-10	0.04879036	0.04879036	0	112472.67	112472.34	-4.96875e-05	675428.6	175990.03	-9.4625284e-05	175992.03	675428.06	-0.0002519398
0	0.6079941	0.60799223	-2.1658009e-10	0.048648857	0.048648857	0	112442.42	112442.08	-3.875e-05	675509.6	175680.06	-0.00018333648	175682.06	675509.2	-0.0001247871
0	0.6078301	0.6078282	-1.6694715e-10	0.04850761	0.04850761	0	112412.086	112411.75	-3e-05	675590.6	175369.38	-0.00017860522	175371.39	675590.06	-7.570023e-05
0	0.6076653	0.60766345	-1.4889881e-10	0.048366144	0.048366148	0	112381.625	112381.27	-2.75e-05	675671.9	175057.56	-0.00010408781	175059.58	675671.25	-0.00011355034
0	0.6075006	0.60749876	-1.218263e-10	0.04822455	0.04822455	0	112351.164	112350.82	-1.75e-05	675752.6	174746.16	-0.000118281605	174748.17	675752.1	-1.6559425e-05
0	0.60733557	0.60733384	2.7072511e-11	0.048083294	0.048083294	0	112320.65	112320.305	7.5e-06	675833.6	174434.27	5.9140802e-06	174436.27	675833	7.747445e-05
0	0.6071692	0.60716736	-1.8499549e-10	0.04794183	0.04794183	0	112289.875	112289.52	-3.625e-05	675914.9	174119.98	-7.3334595e-05	174121.97	675914.3	-0.00017742241
0	0.60700357	0.6070018	2.7072511e-11	0.047800396	0.047800392	0	112259.234	112258.9	2.5e-06	675995.5	173807.38	-2.3656321e-05	173809.39	675995.06	5.1452498e-05
0	0.6068375	0.6068357	-2.5267677e-10	0.04765895	0.047658946	0	112228.54	112228.19	-4.125e-05	676076.5	173494.02	-0.00020226154	173496.03	676075.94	-0.00016470713
0	0.60667133	0.60666955	-2.6170094e-10	0.047517676	0.047517676	0	112197.8	112197.47	-5.09375e-05	676157.25	173180.67	-0.00010881908	173182.66	676156.7	-0.0002803274
0	0.60650444	0.60650265	-2.752372e-10	0.047376227	0.04737623	0	112166.93	112166.6	-4.625e-05	676238	172866.28	-0.0001987131	172868.27	676237.44	-0.00017978804
0	0.60633695	0.6063351	-2.0304383e-10	0.047234632	0.047234632	0	112135.95	112135.625	-3.875e-05	676318.9	172550.86	-0.00014903482	172552.88	676318.4	-0.00011887301
0	0.6061681	0.6061662	-3.384064e-10	0.047093365	0.047093365	0	112104.71	112104.375	-5.765625e-05	676400.06	172233.2	-0.00022710068	172235.2	676399.5	-0.00024188588
0	0.60600126	0.60599947	-1.6694715e-10	0.046951856	0.046951856	0	112073.875	112073.55	-2.875e-05	676480.4	171919.48	-0.00014666919	171921.5	676479.8	-0.00011118471
0	0.605833	0.60583115	-3.4743056e-10	0.04681048	0.04681048	0	112042.75	112042.414	-6.375e-05	676560.94	171603.25	-0.00021054126	171605.27	676560.44	-0.00028565008
0	0.6056641	0.6056623	-2.2109217e-10	0.046669014	0.046669014	0	112011.51	112011.17	-3.59375e-05	676641.7	171286.05	-0.00015613172	171288.06	676641.1	-0.00011680309
0	0.60549295	0.60549116	-1.8950758e-10	0.04652776	0.046527762	0	111979.86	111979.53	-3.625e-05	676723	170965.11	-0.00022710068	170967.12	676722.44	-6.0915027e-05
0	0.6053251	0.6053233	-1.1731421e-10	0.04638618	0.04638618	0	111948.82	111948.5	-1.875e-05	676803.06	170650.12	-8.161431e-05	170652.12	676802.6	-6.446347e-05
0	0.6051558	0.60515404	-1.3536255e-10	0.04624471	0.04624471	0	111917.516	111917.18	-2.65625e-05	676883.3	170332.9	-4.2581378e-05	170334.94	676882.75	-0.0001407551
0	0.60498536	0.60498357	-1.8499549e-10	0.04610345	0.04610345	0	111886.01	111885.664	-3.375e-05	676964	170013.6	-0.0001324754	170015.61	676963.4	-0.00014193793
0	0.6048148	0.60481304	-7.670545e-11	0.045961928	0.045961928	0	111854.46	111854.12	-1.5e-05	677044.44	169694.3	-8.989402e-05	169696.33	677044	-3.9328632e-05
0	0.60464364	0.6046418	-1.804834e-10	0.04582056	0.04582056	0	111822.79	111822.46	-3.71875e-05	677125	169374.14	-7.096896e-05	169376.16	677124.44	-0.0001910248
0	0.6044722	0.6044704	-2.2109217e-10	0.045679096	0.045679096	0	111791.09	111790.766	-3.5e-05	677205.3	169053.78	-0.00021882096	169055.81	677204.75	-0.00011355034
0	0.6043005	0.60429865	-6.316919e-11	0.04553762	0.04553762	0	111759.33	111759	-2.25e-05	677285.75	168732.94	-0.00012419568	168734.97	677285.25	-1.24195685e-05
0	0.60412824	0.6041264	-1.08290044e-10	0.04539626	0.045396265	0	111727.47	111727.125	-2.171875e-05	677366.1	168411.25	-6.62377e-05	168413.3	677365.6	-9.758232e-05
0	0.60395616	0.6039543	-1.3536255e-10	0.04525479	0.04525479	0	111695.65	111695.31	-2.75e-05	677446.4	168090.2	-0.00012301287	168092.22	677445.8	-6.62377e-05
0	0.6037831	0.6037813	-1.534109e-10	0.04511347	0.04511347	0	111663.65	111663.32	-3.125e-05	677526.6	167767.73	-0.00013720666	167769.77	677526.1	-9.166824e-05
0	0.6036092	0.6036074	-1.0377796e-10	0.044972	0.044972	0	111631.5	111631.16	-2.25e-05	677607.1	167443.73	-4.7312642e-05	167445.77	677606.7	-0.00010556633
0	0.603436	0.60343415	-1.7145924e-10	0.04483065	0.04483065	0	111599.45	111599.12	-3.5e-05	677687.3	167121.06	-0.00011355034	167123.12	677686.75	-0.00014666919
0	0.6032622	0.6032604	-1.3536255e-10	0.044689175	0.044689175	0	111567.32	111566.97	-2.875e-05	677767.3	166797.78	-0.00014430356	166799.81	677766.8	-7.096896e-05