# t (s)	mx ()	my ()	mz ()	B_extx (T)	B_exty (T)	B_extz (T)	m_fullx (A/m)	m_fully (A/m)	m_fullz (A/m)	m_full.region1x (A/m)	m_full.region1y (A/m)	m_full.region1z (A/m)	m_full.region2x (A/m)	m_full.region2y (A/m)	m_full.region2z (A/m)
0	0.6267886	0.6267874	-1.7318823e-10	0.07071087	0.07071087	0	112496.02	112495.81	-2.75e-05	665846.1	211656.55	-8.775351e-05	211657.98	665845.9	-0.00016088143
0	0.62667066	0.62666893	-2.1270768e-10	0.07056911	0.07056911	0	112474.85	112474.54	-3.875e-05	665923.06	211413.92	-0.00015600624	211415.84	665922.6	-0.00015966264
0	0.62654936	0.62654763	3.13831e-11	0.07042788	0.07042788	0	112453.07	112452.77	9.6875e-06	666002.06	211165.05	0.0001901326	211167.02	666001.6	-0.000112129484
0	0.62642676	0.6264251	-1.8597393e-10	0.07028653	0.07028652	0	112431.086	112430.77	-2.765625e-05	666081.6	210913.9	-0.00010725429	210915.84	666081.2	-0.00016819422
0	0.626305	0.62630326	-1.0461034e-11	0.070144884	0.070144884	0	112409.21	112408.91	-1.25e-06	666160.75	210664.28	6.3377534e-05	210666.22	666160.3	-5.3017746e-05
0	0.62618226	0.62618065	-1.5459083e-10	0.07000352	0.07000352	0	112387.195	112386.89	-3.125e-05	666240	210413.23	-4.3876757e-05	210415.17	666239.6	-0.00017550703
0	0.62606007	0.6260584	-1.8597393e-10	0.06986229	0.06986229	0	112365.26	112364.95	-3.140625e-05	666319.06	210163.14	-0.00016088143	210165.08	666318.56	-9.26287e-05
0	0.62593675	0.625935	-1.1855839e-10	0.06972055	0.069720544	0	112343.11	112342.805	-2.5e-05	666398.44	209910.97	-0.00018281981	209912.9	666398	-1.7063183e-05
0	0.6258133	0.6258116	-5.927919e-11	0.06957919	0.06957919	0	112320.96	112320.664	-5e-06	666477.9	209658.81	-1.2187987e-06	209660.77	666477.44	-4.9361348e-05
0	0.62569004	0.6256884	-6.9740225e-12	0.069437966	0.069437966	0	112298.85	112298.55	-1.25e-06	666557.06	209407.05	-6.0939936e-05	209409	666556.6	5.850234e-05
0	0.6255669	0.6255652	-8.1363596e-11	0.069296576	0.069296576	0	112276.75	112276.44	-1.375e-05	666636	209155.67	-2.8032371e-05	209157.62	666635.56	-0.00011578588
0	0.6254423	0.62544066	-1.9411028e-10	0.06915496	0.06915496	0	112254.38	112254.086	-2.625e-05	666715.6	208901.73	-0.00013650546	208903.7	666715.1	-0.00013650546
0	0.6253187	0.62531704	-1.04610334e-10	0.069013596	0.069013596	0	112232.2	112231.91	-1.84375e-05	666794.6	208649.67	-4.753315e-05	208651.61	666794.2	-7.312792e-05
0	0.62519383	0.62519217	-2.2549339e-10	0.068872236	0.068872236	0	112209.8	112209.49	-4.5e-05	666874.1	208395.33	-0.00013772426	208397.28	666873.7	-0.0002065864
0	0.6250694	0.6250677	-1.9411028e-10	0.06873064	0.06873064	0	112187.45	112187.13	-3.453125e-05	666953.3	208141.78	-0.00014138066	208143.73	666952.94	-0.00013650546
0	0.6249443	0.62494266	-2.1851937e-10	0.06858927	0.06858927	0	112165.03	112164.72	-3.890625e-05	667032.7	207887.5	-0.000101160294	207889.45	667032.3	-0.00019257021
0	0.6248191	0.6248174	2.324674e-12	0.06844801	0.06844801	0	112142.52	112142.21	-1.25e-06	667112.06	207632.66	2.4375975e-06	207634.58	667111.7	2.925117e-05
0	0.6246939	0.6246921	-2.2549339e-10	0.06830665	0.06830665	0	112120.055	112119.75	-4e-05	667191.25	207378.19	-9.75039e-05	207380.12	667190.8	-0.00021268039
0	0.62456834	0.6245667	-1.2204539e-10	0.06816504	0.068165034	0	112097.52	112097.23	-2.3125e-05	667270.5	207123.27	-0.00012431748	207125.23	667270	-6.825273e-05
0	0.6244427	0.624441	-2.5222716e-10	0.068023674	0.068023674	0	112074.98	112074.67	-4.125e-05	667349.56	206868.27	-0.000193789	206870.22	667349.1	-0.00013163027
0	0.6243159	0.62431425	1.627272e-11	0.067882314	0.06788232	0	112052.23	112051.914	5e-06	667429.25	206611.1	-4.875195e-06	206613.05	667428.8	4.5704954e-05
0	0.6241897	0.62418795	-2.3595442e-10	0.067740716	0.067740716	0	112029.555	112029.26	-5.03125e-05	667508.56	206355.1	-0.00020963339	206357	667508.2	-0.00016819422
0	0.6240628	0.62406105	-6.27662e-11	0.06759932	0.06759932	0	112006.8	112006.484	-1e-05	667587.94	206098.02	-3.5345165e-05	206099.97	667587.56	-6.581513e-05
0	0.6239357	0.62393403	-4.486621e-10	0.06745809	0.06745809	0	111983.984	111983.664	-8e-05	667667.3	205840.69	-0.00035101405	205842.62	667666.9	-0.0002925117
0	0.62380904	0.6238074	-7.555191e-11	0.067316726	0.067316726	0	111961.24	111960.95	-1.125e-05	667746.4	205584.3	-0.00013163027	205586.27	667745.94	2.6813572e-05
0	0.62368166	0.62367994	-2.3711677e-10	0.067174986	0.067174986	0	111938.375	111938.07	-4.375e-05	667825.6	205326.64	-0.00011822348	205328.61	667825.25	-0.00021816498
0	0.6235535	0.62355185	-1.7667523e-10	0.06703377	0.06703377	0	111915.39	111915.08	-3.125e-05	667905.2	205067.83	-9.26287e-05	205069.78	667904.8	-0.00016514723
0	0.6234262	0.62342453	-8.252593e-11	0.066892385	0.066892385	0	111892.53	111892.234	-1.375e-05	667984.2	204810.5	-8.897231e-05	204812.48	667983.8	-6.3377534e-05
0	0.62329775	0.623296	-1.5459083e-10	0.06675076	0.06675076	0	111869.484	111869.19	-2.125e-05	668063.7	204551.23	-4.5095552e-05	204553.17	668063.3	-0.00013041147
0	0.62316936	0.62316763	-2.9523362e-10	0.0666094	0.0666094	0	111846.43	111846.125	-5e-05	668143	204292.08	-0.0001901326	204294.03	668142.7	-0.00025351014
0	0.6230407	0.623039	-1.7202588e-10	0.06646816	0.066468164	0	111823.336	111823.04	-2.90625e-05	668222.3	204032.67	-0.00010603549	204034.66	668222	-0.00012675507
0	0.6229115	0.6229098	-1.5459083e-10	0.06632643	0.06632643	0	111800.16	111799.85	-2.75e-05	668301.8	203772.36	-3.656396e-05	203774.33	668301.4	-0.0001901326
0	0.6227825	0.6227808	-4.1960369e-10	0.06618507	0.06618507	0	111777	111776.7	-7.625e-05	668381	203512.6	-0.0003705148	203514.56	668380.56	-0.00026082294
0	0.6226529	0.62265116	-1.1972072e-10	0.06604384	0.06604384	0	111753.73	111753.43	-2.40625e-05	668460.3	203251.72	-9.75039e-05	203253.67	668459.94	-0.0001023791
0	0.6225234	0.6225218	-3.0801933e-10	0.065902434	0.065902434	0	111730.5	111730.22	-5.375e-05	668539.56	202991.33	-0.00017550703	202993.28	668539.2	-0.00024375974
0	0.6223932	0.6223915	-2.1851937e-10	0.06576085	0.06576085	0	111707.13	111706.83	-4e-05	668618.94	202729.56	-3.4126366e-05	202731.48	668618.56	-0.00025838535
0	0.6222629	0.6222612	-3.0801933e-10	0.06561948	0.06561948	0	111683.76	111683.45	-5.75e-05	668698.25	202467.84	-0.00022669657	202469.83	668697.9	-0.00021572738
0	0.6221328	0.62213105	-3.1150632e-10	0.06547825	0.06547825	0	111660.38	111660.086	-5.75e-05	668777.5	202206.36	-0.00021694618	202208.31	668777.1	-0.00024985374
0	0.6220017	0.622	-2.7198688e-10	0.06533652	0.065336525	0	111636.86	111636.56	-4.25e-05	668857	201943.44	-0.00020963339	201945.42	668856.56	-0.00016453784
0	0.62187046	0.6218687	-1.7783758e-10	0.06519514	0.06519514	0	111613.32	111613.01	-3.21875e-05	668936.44	201680.23	-8.165951e-05	201682.23	668936	-0.00017550703
0	0.6217394	0.6217378	-6.741555e-11	0.06505392	0.06505392	0	111589.79	111589.48	-1.5e-05	669015.6	201417.61	-0.00012553627	201419.56	669015.25	1.2187987e-06
0	0.621608	0.62160635	-3.2196737e-10	0.064912505	0.06491251	0	111566.2	111565.91	-5.375e-05	669094.75	201154.45	-0.00025351014	201156.4	669094.44	-0.00019744539
0	0.621476	0.6214743	-2.603635e-10	0.06477093	0.06477093	0	111542.51	111542.22	-4.3125e-05	669174.2	200890.25	-0.00012797386	200892.22	669173.8	-0.0001950078
0	0.62134385	0.62134206	-1.5459083e-10	0.06462956	0.06462956	0	111518.79	111518.48	-2.625e-05	669253.6	200625.77	-0.00011944228	200627.73	669253.2	-9.080051e-05
0	0.6212115	0.6212099	-2.0573367e-10	0.06448818	0.06448818	0	111495.05	111494.75	-4e-05	669332.9	200361.3	-0.00013650546	200363.25	669332.5	-0.0001883044
0	0.6210792	0.6210776	-1.4645447e-10	0.0643466	0.0643466	0	111471.3	111471	-2.671875e-05	669412.06	200096.9	-0.00013041147	200098.89	669411.6	-8.044072e-05
0	0.62094593	0.62094426	-3.0685698e-10	0.06420524	0.06420524	0	111447.375	111447.08	-5e-05	669491.5	199830.84	-0.00018891381	199832.8	669491.1	-0.000199883
0	0.6208129	0.62081116	-1.6970121e-10	0.064063966	0.064063966	0	111423.5	111423.2	-3e-05	669570.8	199565.22	-0.00013650546	199567.22	669570.44	-0.00013223967
0	0.6206794	0.62067777	-9.996099e-11	0.063922584	0.06392258	0	111399.55	111399.24	-1.796875e-05	669650.1	199299.11	-0.000112129484	199301.08	669649.75	-5.850234e-05
0	0.6205459	0.6205442	-2.3944144e-10	0.063781016	0.063781016	0	111375.58	111375.29	-4.125e-05	669729.3	199032.98	-0.00023766575	199034.95	669728.94	-0.000116395284
0	0.6204118	0.6204101	-2.1387002e-10	0.06363963	0.06363963	0	111351.5	111351.2	-4e-05	669808.7	198765.83	-0.00016088143	198767.81	669808.3	-0.00016331903
0	0.62027735	0.6202756	-2.0573367e-10	0.06349824	0.06349824	0	111327.38	111327.08	-3.15625e-05	669888.06	198498.19	-0.0001023791	198500.16	669887.75	-0.00016575663
0	0.6201436	0.62014186	-2.5338948e-10	0.06335668	0.06335668	0	111303.36	111303.055	-5e-05	669967	198231.98	-0.00022425897	198233.95	669966.7	-0.00014625584
0	0.62000823	0.62000656	-3.6148684e-10	0.06321527	0.06321527	0	111279.086	111278.77	-6.375e-05	670046.56	197963.05	-0.000199883	197965.02	670046.2	-0.0003028715
0	0.6198735	0.6198719	-1.975973e-11	0.06307404	0.06307404	0	111254.91	111254.586	-9.375e-07	670125.75	197695.23	-1.5844384e-05	197697.22	670125.25	3.900156e-05
0	0.6197381	0.61973643	-3.6032448e-11	0.062932655	0.062932655	0	111230.586	111230.3	-1e-05	670204.94	197426.42	5.3627144e-05	197428.42	670204.6	-0.00012187987
0	0.6196023	0.61960065	-2.6385052e-10	0.062790945	0.062790945	0	111206.23	111205.93	-4.75e-05	670284.4	197156.9	-0.00023888456	197158.86	670283.94	-0.0001870856
0	0.6194668	0.619465	-1.4180512e-10	0.062649705	0.062649705	0	111181.88	111181.586	-2.84375e-05	670363.44	196887.98	-0.00013650546	196889.95	670363.1	-8.5315914e-05
0	0.61933005	0.6193284	-1.1739604e-10	0.06250833	0.06250833	0	111157.35	111157.055	-2.25e-05	670443.06	196617.05	-7.922192e-05	196619.02	670442.56	-0.00011944228
0	0.61919415	0.6191925	1.3948045e-11	0.06236674	0.06236674	0	111132.96	111132.67	3.75e-06	670522.06	196347.78	1.950078e-05	196349.78	670521.7	-1.3406786e-05
0	0.61905754	0.61905587	-3.3940242e-10	0.062225346	0.062225346	0	111108.445	111108.15	-6.25e-05	670601.25	196077.39	-0.00025716654	196079.34	670600.8	-0.00023888456
0	0.6189204	0.6189187	-2.603635e-10	0.062084112	0.06208412	0	111083.836	111083.54	-5e-05	670680.44	195806.1	-0.00017185062	195808.1	670680.1	-0.00021450857
0	0.6187831	0.61878145	-1.2088305e-10	0.061942417	0.061942413	0	111059.2	111058.88	-1.625e-05	670759.75	195534.64	-9.26287e-05	195536.58	670759.4	-8.2878316e-05
0	0.6186456	0.61864394	-3.2429204e-10	0.06180102	0.06180102	0	111034.5	111034.21	-5.34375e-05	670838.94	195262.88	-0.00024375974	195264.86	670838.6	-0.00015844384
0	0.6185075	0.61850584	-1.01123325e-10	0.06165979	0.06165979	0	111009.72	111009.42	-2e-05	670918.3	194990.2	-9.75039e-05	194992.2	670917.94	-6.459634e-05
0	0.61836994	0.61836827	-2.603635e-10	0.061518367	0.061518367	0	110985.03	110984.734	-5.5e-05	670997.3	194718.62	-0.000199883	194720.61	670996.94	-0.00022304017
0	0.6182316	0.6182299	-1.9875963e-10	0.06137681	0.061376818	0	110960.22	110959.92	-3.5e-05	671076.4	194445.89	-0.00012919267	194447.89	671076.06	-0.00014625584
0	0.6180926	0.618091	-1.2901942e-10	0.061235435	0.061235435	0	110935.266	110934.96	-2.25e-05	671155.75	194171.97	-9.99415e-05	194173.94	671155.5	-0.00010664489
0	0.6179535	0.61795175	-2.1851937e-10	0.061094042	0.061094042	0	110910.29	110909.99	-4e-05	671235.06	193897.78	-0.00015113104	193899.75	671234.7	-0.000193789
0	0.61781466	0.617813	-8.368827e-11	0.060952503	0.0609525	0	110885.375	110885.07	-1.5625e-05	671314.1	193624.42	-4.022036e-05	193626.4	671313.8	-6.825273e-05
0	0.6176755	0.6176738	-3.8008421e-10	0.060811114	0.060811102	0	110860.4	110860.09	-6.5e-05	671393	193350.69	-0.00025594773	193352.69	671392.7	-0.00024619733
0	0.6175353	0.6175337	-1.7435056e-10	0.06066984	0.06066984	0	110835.234	110834.94	-3.625e-05	671472.44	193075.06	-0.00011700468	193077.03	671472	-0.00016941303
0	0.6173956	0.6173939	-1.4180512e-10	0.060528446	0.060528446	0	110810.16	110809.87	-2.59375e-05	671551.44	192800.39	-7.1909126e-05	192802.39	671551	-0.00013650546
0	0.6172548	0.6172531	-1.5807784e-10	0.060386896	0.060386896	0	110784.9	110784.59	-2.875e-05	671630.75	192524	-0.00011578588	192525.98	671630.44	-0.00010847309
0	0.61711466	0.617113	-1.255324e-10	0.060245506	0.060245506	0	110759.734	110759.445	-2.5e-05	671709.6	192248.9	-2.925117e-05	192250.84	671709.3	-0.00015356865
0	0.61697334	0.6169717	-1.6272719e-10	0.060104124	0.060104124	0	110734.375	110734.08	-2.546875e-05	671789.06	191971.77	-0.00012553627	191973.77	671788.56	-8.044072e-05
0	0.6168324	0.61683065	-2.06896e-10	0.05996258	0.05996258	0	110709.06	110708.77	-3.5e-05	671867.94	191695.31	-0.00018647622	191697.3	671867.6	-0.000113957685
0	0.61669075	0.61668915	-1.13909035e-10	0.059821147	0.059821147	0	110683.66	110683.375	-1.875e-05	671947.1	191418.05	-6.825273e-05	191420	671946.75	-9.99415e-05
0	0.6165491	0.6165474	-2.1270768e-10	0.059679918	0.059679918	0	110658.22	110657.92	-4e-05	672026.2	191140.58	-0.00015600624	191142.58	672025.8	-0.00017306942
0	0.61640686	0.6164052	-2.9523362e-10	0.05953851	0.05953851	0	110632.695	110632.4	-5.625e-05	672105.4	190862.3	-0.00025107255	190864.28	672104.94	-0.00017063183
0	0.61626494	0.61626333	-1.2785707e-10	0.059396826	0.059396826	0	110607.25	110606.93	-2.25e-05	672184.1	190584.84	-3.900156e-05	190586.83	672183.8	-0.00014381825
0	0.61612207	0.61612034	-2.3014274e-10	0.059255596	0.059255596	0	110581.586	110581.29	-4.625e-05	672263.25	190305.53	-0.00017794462	190307.55	672262.94	-0.00017306942
0	0.61597943	0.61597776	-1.0228566e-10	0.059114188	0.059114188	0	110555.984	110555.695	-2.375e-05	672342.1	190027.12	-9.50663e-05	190029.12	672341.8	-9.8722696e-05
0	0.6158358	0.6158341	-1.5110382e-10	0.058972627	0.058972627	0	110530.21	110529.91	-2.625e-05	672421.3	189746.83	-0.000112129484	189748.81	672421	-0.00012187987
0	0.6156928	0.6156912	-1.3134409e-10	0.058831234	0.058831234	0	110504.55	110504.24	-2.0625e-05	672500.1	189467.81	-0.00010603549	189469.8	672499.75	-7.069033e-05
0	0.61554885	0.6155471	-1.2785707e-10	0.058689985	0.05868999	0	110478.7	110478.4	-2e-05	672579.2	189187.14	-0.00012675507	189189.11	672578.9	-8.409711e-05
0	0.6154051	0.61540335	-2.196817e-10	0.0585483	0.0585483	0	110452.89	110452.6	-3.875e-05	672657.94	188907.11	-0.00022425897	188909.1	672657.6	-8.470652e-05
0	0.6152603	0.6152586	-1.9992198e-10	0.058406904	0.058406904	0	110426.914	110426.62	-3.84375e-05	672737.2	188625.22	-0.00018891381	188627.19	672736.9	-0.00010725429
0	0.6151155	0.61511385	-4.1844136e-11	0.058265664	0.058265664	0	110400.945	110400.63	-7.5e-06	672816.2	188343.53	-7.556552e-05	188345.52	672815.9	1.6453783e-05
0	0.61497074	0.6149691	-1.6040251e-10	0.05812423	0.05812423	0	110374.945	110374.65	-2.875e-05	672895	188062	-9.75039e-05	188063.98	672894.7	-0.00012675507
0	0.6148257	0.6148241	-3.2080502e-10	0.057982713	0.057982713	0	110348.914	110348.62	-5.484375e-05	672973.75	187780.22	-0.00018281981	187782.2	672973.44	-0.00027057334
0	0.61468	0.6146783	-3.347531e-10	0.05784131	0.05784131	0	110322.77	110322.46	-5.75e-05	673052.75	187497.22	-0.0002864177	187499.22	673052.4	-0.000196836
0	0.6145338	0.6145322	-4.672595e-10	0.057699904	0.057699904	0	110296.53	110296.234	-8.25e-05	673131.75	187213.62	-0.00036076442	187215.61	673131.44	-0.00032237227
0	0.61438763	0.61438596	-1.6388953e-10	0.057558388	0.057558395	0	110270.28	110269.97	-2.859375e-05	673210.7	186929.86	-0.00013528667	186931.86	673210.4	-0.000112129484
0	0.61424154	0.61423993	-2.2665572e-10	0.057416987	0.057416987	0	110244.08	110243.78	-4.25e-05	673289.4	186646.8	-0.00021207098	186648.8	673289	-0.00012675507
0	0.61409473	0.6140931	-1.5110382e-10	0.05727571	0.0572757	0	110217.73	110217.43	-3.25e-05	673368.1	186362.56	-0.00014138066	186364.56	673367.8	-0.000105426094
0	0.61394745	0.6139459	-1.4877914e-10	0.057134308	0.0571343	0	110191.29	110190.99	-2.78125e-05	673447.1	186077.36	-7.800312e-05	186079.34	673446.75	-0.00011456708
0	0.61380035	0.61379874	-8.9499956e-11	0.05699279	0.05699279	0	110164.9	110164.6	-2e-05	673525.75	185792.8	-3.1688767e-05	185794.78	673525.44	-0.000113957685
0	0.61365247	0.6136509	-2.0224665e-10	0.05685139	0.056851387	0	110138.34	110138.06	-3.625e-05	673604.6	185506.95	-0.00013163027	185508.92	673604.3	-0.00013650546
0	0.61350477	0.6135031	-1.3599344e-10	0.056709986	0.056709986	0	110111.83	110111.53	-2.25e-05	673683.3	185221.33	-8.165951e-05	185223.33	673683	-0.0001023791
0	0.61335653	0.61335486	-3.7543488e-10	0.05656847	0.05656847	0	110085.22	110084.94	-7e-05	673761.94	184935.14	-0.00032298168	184937.14	673761.6	-0.00025655713
0	0.6132079	0.61320627	-1.4877914e-10	0.05642703	0.05642703	0	110058.555	110058.27	-3.375e-05	673840.8	184648.31	-0.000112129484	184650.3	673840.4	-0.00012187987
0	0.6130588	0.61305714	-1.7086355e-10	0.056285787	0.056285787	0	110031.8	110031.5	-2.828125e-05	673919.56	184360.78	-0.00012187987	184362.77	673919.3	-0.0001023791
0	0.6129097	0.612908	-3.545128e-10	0.056144364	0.056144364	0	110005.03	110004.734	-6.125e-05	673998.25	184073.28	-0.00021572738	184075.27	673997.94	-0.0002845895
0	0.61276025	0.61275864	-6.8577886e-11	0.056002706	0.056002706	0	109978.23	109977.914	-1e-05	674076.8	183785.47	-6.3377534e-05	183787.48	674076.5	-3.5345165e-05
0	0.6126104	0.61260873	-1.3018175e-10	0.05586147	0.055861466	0	109951.31	109951.016	-2.078125e-05	674155.5	183497.03	3.1688767e-05	183499.02	674155.2	-0.00021207098
0	0.61246043	0.6124588	-9.996099e-11	0.055720054	0.055720054	0	109924.39	109924.11	-1.75e-05	674234.1	183208.5	-0.00011091069	183210.5	674233.8	-1.2797387e-05
0	0.61231023	0.61230856	-7.2064896e-11	0.05557856	0.05557856	0	109897.43	109897.14	-1.125e-05	674312.6	182919.7	-4.3876757e-05	182921.67	674312.3	-7.861252e-05
0	0.61215955	0.61215794	9.996099e-11	0.0554371	0.055437103	0	109870.4	109870.11	1.75e-05	674391.1	182630.3	8.044072e-05	182632.28	674390.8	7.312792e-05
0	0.6120082	0.61200655	-2.568765e-10	0.05529586	0.05529586	0	109843.234	109842.94	-4.5e-05	674469.9	182339.6	-0.00012553627	182341.58	674469.7	-0.00021999318
0	0.6118573	0.6118557	-2.1270768e-10	0.055154454	0.055154454	0	109816.15	109815.86	-3.375e-05	674548.2	182050.05	-0.00013650546	182052.03	674547.94	-0.00012919267
0	0.6117054	0.61170375	-2.1154535e-10	0.05501279	0.05501279	0	109788.89	109788.59	-4.09375e-05	674626.94	181758.7	-0.00013406786	181760.7	674626.56	-0.00016088143
0	0.6115532	0.6115515	-5.2770105e-10	0.054871544	0.054871544	0	109761.57	109761.26	-9.5e-05	674705.44	181467.02	-0.0002888553	181469	674705.1	-0.0004728939
0	0.61140126	0.61139965	-9.996099e-11	0.05473013	0.054730132	0	109734.32	109734.01	-2.25e-05	674783.75	181176.03	-0.00010725429	181178.02	674783.44	-4.022036e-05
0	0.6112486	0.61124694	-3.545128e-10	0.054588605	0.054588605	0	109706.9	109706.6	-6.359375e-05	674862.25	180883.75	-0.00022060257	180885.72	674862	-0.0002925117
0	0.6110956	0.611094	-8.4850606e-11	0.05444718	0.05444719	0	109679.45	109679.16	-1.125e-05	674940.75	180591.12	-1.0969189e-05	180593.12	674940.44	-7.800312e-05
0	0.61094266	0.610941	-3.1848035e-10	0.05430595	0.05430595	0	109651.98	109651.7	-5.375e-05	675019.06	180298.72	-0.00026813571	180300.72	675018.6	-0.00017002242
0	0.6107888	0.61078715	-3.707855e-10	0.054164287	0.054164287	0	109624.36	109624.08	-6.4375e-05	675097.5	180004.77	-0.0002876365	180006.77	675097.25	-0.00026813571
0	0.6106352	0.61063355	-1.4645447e-10	0.05402286	0.05402286	0	109596.81	109596.51	-2.625e-05	675175.8	179711.52	-9.75039e-05	179713.5	675175.44	-9.26287e-05
0	0.61048096	0.61047935	-1.13909035e-10	0.053881623	0.053881623	0	109569.125	109568.83	-1.375e-05	675254.2	179417.16	-7.312792e-05	179419.17	675253.9	-8.044072e-05
0	0.6103268	0.61032516	-4.0333095e-10	0.053740162	0.053740162	0	109541.445	109541.164	-6.828125e-05	675332.3	179123.22	-0.00034126366	179125.22	675332.06	-0.00022913417
0	0.61017185	0.61017025	-1.2320774e-10	0.053598683	0.053598683	0	109513.63	109513.36	-2e-05	675410.56	178827.98	-7.4346724e-05	178829.95	675410.4	-9.81133e-05
0	0.6100169	0.6100153	-1.662142e-10	0.053457264	0.053457264	0	109485.82	109485.54	-2.875e-05	675488.8	178532.83	-0.00014138066	178534.8	675488.56	-0.00010847309
0	0.6098612	0.60985965	-2.4525312e-10	0.053315833	0.05331584	0	109457.89	109457.59	-4.1875e-05	675567.25	178236.55	-0.00016819422	178238.5	675566.94	-0.00017794462
0	0.60970545	0.6097038	-3.0685698e-10	0.05317437	0.053174376	0	109429.94	109429.64	-6e-05	675645.44	177940.25	-0.00018769501	177942.25	675645.1	-0.00027179212
0	0.60954934	0.6095477	-2.7896088e-10	0.05303295	0.053032946	0	109401.914	109401.62	-5e-05	675723.56	177643.55	-0.00015600624	177645.56	675723.25	-0.00022182138
0	0.6093929	0.6093913	-1.6156486e-10	0.05289166	0.052891657	0	109373.836	109373.54	-2.75e-05	675801.75	177346.36	-0.00018281981	177348.33	675801.44	-5.6064742e-05
0	0.60923624	0.60923463	-3.0918165e-10	0.052750226	0.052750226	0	109345.72	109345.44	-5.125e-05	675879.75	177049.05	-0.00020232059	177051.02	675879.44	-0.00022121197
0	0.6090794	0.6090778	-2.6849986e-10	0.05260877	0.052608766	0	109317.57	109317.3	-5e-05	675957.75	176751.47	-0.00020963339	176753.42	675957.44	-0.00015905323
0	0.60892195	0.6089203	-1.9643497e-10	0.052467342	0.052467342	0	109289.305	109289.01	-3.453125e-05	676035.9	176452.86	-0.00021207098	176454.84	676035.6	-7.800312e-05
0	0.6087642	0.60876256	-2.9058428e-10	0.052325908	0.052325908	0	109260.99	109260.71	-5.5e-05	676114	176153.92	-0.00022304017	176155.89	676113.6	-0.0001980548
0	0.6086062	0.60860467	-1.5226616e-10	0.05218446	0.05218445	0	109232.664	109232.37	-2.625e-05	676191.94	175854.9	-0.00012675507	175856.9	676191.6	-0.00011944228
0	0.6084478	0.6084461	-2.9290895e-10	0.052042987	0.052042987	0	109204.195	109203.914	-4.984375e-05	676269.94	175554.95	-0.0001950078	175556.95	676269.56	-0.00022913417
0	0.6082893	0.6082877	-2.4060376e-10	0.051901728	0.051901728	0	109175.766	109175.47	-4.25e-05	676347.75	175255.27	-0.00017794462	175257.23	676347.5	-0.00015539685
0	0.6081301	0.6081285	-2.917466e-10	0.051760294	0.051760297	0	109147.195	109146.9	-5.25e-05	676425.8	174954.44	-0.000199883	174956.4	676425.5	-0.00023096237
0	0.6079707	0.6079691	-2.7663621e-10	0.051618665	0.051618665	0	109118.586	109118.3	-5.421875e-05	676503.7	174653.34	-0.00015966264	174655.34	676503.44	-0.00026813571
0	0.60781085	0.6078092	9.996099e-11	0.05147742	0.05147742	0	109089.88	109089.59	1.75e-05	676581.6	174351.58	-6.459634e-05	174353.55	676581.3	0.00018221041
0	0.6076512	0.6076495	-2.0805833e-10	0.051335983	0.051335983	0	109061.22	109060.94	-3.75e-05	676659.25	174050.27	-0.00015600624	174052.27	676659.06	-0.00013284906
0	0.60749096	0.6074893	-2.2665572e-10	0.051194493	0.051194496	0	109032.47	109032.18	-4.28125e-05	676737.06	173748.2	-0.00022060257	173750.2	676736.8	-0.00011700468
0	0.6073303	0.6073287	-2.1154535e-10	0.051053066	0.051053066	0	109003.66	109003.37	-3.8125e-05	676814.7	173445.73	-0.00013772426	173447.7	676814.56	-0.00017367883
0	0.60716915	0.60716754	-1.8248691e-10	0.050911807	0.050911807	0	108974.73	108974.43	-3.125e-05	676892.6	173142.27	-0.00010725429	173144.27	676892.4	-0.00013589606
0	0.60700715	0.60700554	-2.3479207e-10	0.050770186	0.050770186	0	108945.64	108945.34	-4.375e-05	676970.5	172837.5	-0.00024375974	172839.48	676970.25	-0.00014625584
0	0.60684586	0.6068443	-2.5222716e-10	0.050628755	0.050628755	0	108916.7	108916.42	-4.4375e-05	677047.94	172534.3	-0.00024375974	172536.27	677047.7	-0.00011456708
0	0.6066842	0.6066826	-1.1972072e-10	0.050487496	0.050487496	0	108887.69	108887.41	-2.5e-05	677125.5	172230.4	-0.00012187987	172232.39	677125.25	-7.800312e-05
0	0.60652196	0.6065204	-1.13909035e-10	0.050346017	0.050346017	0	108858.57	108858.27	-1.53125e-05	677203.1	171925.72	-0.00013163027	171927.72	677202.75	-1.21879875e-05
0	0.6063592	0.6063576	-1.5691551e-10	0.050204586	0.050204586	0	108829.36	108829.06	-2.8125e-05	677280.7	171620.25	-0.00011822348	171622.22	677280.5	-0.00010603549
0	0.60619617	0.60619456	-2.2200639e-10	0.05006314	0.050063144	0	108800.08	108799.8	-4e-05	677358.2	171314.38	-0.00017063183	171316.38	677357.94	-0.00015966264
0	0.606033	0.6060315	-1.04610334e-10	0.049921695	0.049921695	0	108770.805	108770.53	-2.15625e-05	677435.5	171008.7	-7.800312e-05	171010.7	677435.4	-3.656396e-05
0	0.6058691	0.6058675	-1.05772675e-10	0.04978028	0.04978028	0	108741.41	108741.11	-1.4375e-05	677513.06	170701.7	-5.4845943e-05	170703.67	677512.9	-6.3377534e-05
0	0.6057053	0.6057037	-8.717528e-11	0.049638826	0.049638826	0	108712	108711.71	-1.875e-05	677590.4	170395.03	-9.75039e-06	170397.05	677590.1	-7.556552e-05
0	0.60554045	0.6055388	-4.6493483e-11	0.04949753	0.04949753	0	108682.39	108682.09	-1.109375e-05	677668	170086.48	-0.00012309867	170088.48	677667.8	5.3627144e-05
0	0.6053762	0.6053746	-1.1158436e-10	0.049356084	0.049356084	0	108652.914	108652.625	-1.5e-05	677745.2	169779.44	-5.4845943e-05	169781.42	677745	-9.080051e-05
0	0.60521084	0.60520923	-2.0922068e-11	0.049214657	0.049214657	0	108623.234	108622.96	-4.375e-06	677822.5	169470.66	4.875195e-05	169472.66	677822.3	-8.5315914e-05
0	0.605045	0.6050434	-1.05772675e-10	0.049073208	0.049073208	0	108593.48	108593.2	-1.484375e-05	677900	169161.03	-0.00012431748	169163.02	677899.75	-3.1688767e-05
0	0.60487986	0.6048783	-1.4761681e-10	0.048931766	0.048931766	0	108563.84	108563.54	-2.4375e-05	677977	168852.78	-9.26287e-05	168854.78	677976.8	-9.140991e-05
0	0.6047137	0.6047121	-1.09259685e-10	0.04879036	0.04879036	0	108534.016	108533.73	-2.375e-05	678054.25	168542.94	-0.000112129484	168544.9	678054.06	-5.850234e-05
0	0.6045477	0.60454607	-9.531164e-11	0.048648857	0.048648857	0	108504.22	108503.92	-2.109375e-05	678131.25	168233.5	-7.678432e-05	168235.47	678131.06	-7.556552e-05
0	0.6043806	0.604379	-1.4877914e-10	0.04850761	0.04850761	0	108474.23	108473.945	-2.8125e-05	678208.44	167922.4	-0.00010359789	167924.42	678208.25	-0.00014625584
0	0.6042133	0.6042117	-1.1855839e-10	0.048366148	0.048366144	0	108444.21	108443.914	-2.0625e-05	678285.6	167611.1	-0.00013650546	167613.06	678285.3	-3.778276e-05
0	0.60404575	0.60404414	-1.3715577e-10	0.04822455	0.04822455	0	108414.13	108413.85	-2.71875e-05	678362.7	167299.42	-3.900156e-05	167301.4	678362.4	-0.00015844384
0	0.6038781	0.60387653	-3.951946e-11	0.048083294	0.048083294	0	108384.03	108383.76	-3.75e-06	678439.6	166987.72	-7.678432e-05	166989.7	678439.4	3.900156e-05
0	0.6037101	0.60370857	-1.2669474e-10	0.04794183	0.04794183	0	108353.89	108353.62	-1.9375e-05	678516.4	166675.77	-1.950078e-05	166677.77	678516.1	-0.00010603549
0	0.6035414	0.60353976	-1.3948044e-10	0.047800392	0.047800392	0	108323.6	108323.32	-2.671875e-05	678593.44	166362.48	-0.00010359789	166364.45	678593.2	-0.00012187987
0	0.6033723	0.60337067	1.7435055e-11	0.047658946	0.047658946	0	108293.266	108292.984	-5e-06	678670.4	166048.92	1.21879875e-05	166050.89	678670.1	-7.922192e-06
0	0.6032032	0.60320157	-1.8946095e-10	0.047517676	0.047517676	0	108262.9	108262.62	-3.9375e-05	678747.2	165735.28	-0.00012187987	165737.25	678746.9	-0.00016636604
0	0.6030337	0.6030321	-1.8713626e-10	0.04737622	0.04737622	0	108232.49	108232.195	-3.390625e-05	678823.9	165421.31	-0.00015966264	165423.28	678823.7	-0.00012187987
0	0.60286367	0.602862	-1.255324e-10	0.047234632	0.047234632	0	108201.96	108201.68	-2.625e-05	678900.7	165106.4	-0.00014625584	165108.39	678900.5	-8.165951e-05
0	0.60269314	0.6026916	-2.4525312e-10	0.047093365	0.047093365	0	108171.37	108171.08	-4.4375e-05	678977.3	164791.02	-0.00032176287	164793.02	678977.25	-1.889138e-05
0	0.6025227	0.6025211	-2.8709726e-10	0.046951856	0.046951856	0	108140.766	108140.484	-5.15625e-05	679054	164475.81	-0.0002876365	164477.78	679053.75	-0.00013163027
0	0.6023516	0.60235006	-1.9062328e-10	0.04681048	0.04681048	0	108110.08	108109.8	-3.75e-05	679130.6	164159.72	-0.00017672582	164161.7	679130.4	-0.00012187987
0	0.60217935	0.60217774	-1.5110382e-10	0.046669014	0.046669014	0	108079.13	108078.86	-3.125e-05	679207.56	163841.56	-3.4126366e-05	163843.53	679207.3	-0.0001986642
0	0.60200864	0.60200715	-2.2084404e-10	0.046527762	0.046527762	0	108048.516	108048.23	-3.78125e-05	679283.7	163526.53	-0.00014381825	163528.5	679283.5	-0.00015113104
0	0.6018362	0.60183465	-2.6152583e-10	0.04638618	0.04638618	0	108017.56	108017.27	-4.5e-05	679360.25	163208.48	-0.00022913417	163210.47	679360	-0.00016758483
0	0.60166395	0.60166246	-5.811685e-11	0.046244707	0.04624471	0	107986.66	107986.36	-4.375e-06	679436.6	162891.05	2.4375975e-05	162893.05	679436.3	-6.276814e-05
0	0.60149103	0.6014894	-2.0224665e-10	0.046103448	0.04610345	0	107955.61	107955.32	-3.59375e-05	679513	162572.47	-8.775351e-05	162574.44	679512.9	-0.00023157176
0	0.6013166	0.60131496	-3.0453232e-10	0.045961928	0.045961928	0	107924.29	107924.01	-5.25e-05	679589.7	162251.38	-0.00026691693	162253.38	679589.5	-0.00015966264
0	0.60114455	0.601143	-2.9755828e-10	0.045820568	0.04582056	0	107893.42	107893.13	-5.75e-05	679665.56	161934.86	-0.00020963339	161936.81	679665.3	-0.00021694618
0	0.6009704	0.60096884	-1.8248691e-10	0.0456791	0.045679096	0	107862.17	107861.88	-3.578125e-05	679741.9	161614.73	-0.00010359789	161616.69	679741.7	-0.00016088143
0	0.6007956	0.60079414	-1.5924018e-10	0.04553762	0.04553762	0	107830.805	107830.516	-2.8125e-05	679818.2	161293.72	-0.00020353938	161295.69	679817.94	-1.8281982e-06
0	0.60062146	0.60062	-1.975973e-10	0.04539626	0.045396265	0	107799.555	107799.266	-3.5625e-05	679894.1	160973.95	-5.850234e-05	160975.94	679894	-0.00020232059
0	0.6004465	0.60044503	-6.974022e-11	0.04525479	0.04525479	0	107768.16	107767.86	-1e-05	679970.2	160652.97	-2.4375975e-05	160654.94	679970	-4.875195e-05
0	0.6002709	0.6002694	-1.8364926e-10	0.04511347	0.04511347	0	107736.625	107736.35	-3.4375e-05	680046.3	160330.97	-0.00017063183	160332.94	680046.25	-9.50663e-05
0	0.60009533	0.6000938	-2.8709726e-10	0.04497199	0.044972	0	107705.11	107704.83	-5.4375e-05	680122.2	160009.28	-0.00021938377	160011.27	680122.1	-0.00022182138
0	0.5999178	0.5999163	5.7884386e-10	0.04483065	0.04483065	0	107673.24	107672.98	9.953125e-05	680198.7	159684.3	0	159686.25	680198.56	0.00083609595
0	0.59974277	0.59974116	-1.0228566e-10	0.044689175	0.044689175	0	107641.83	107641.56	-1.8125e-05	680274.2	159363.75	-8.2878316e-05	159365.72	680273.94	-5.2408348e-05