# t (s)	mx ()	my ()	mz ()	B_extx (T)	B_exty (T)	B_extz (T)	m_fullx (A/m)	m_fully (A/m)	m_fullz (A/m)	m_full.region1x (A/m)	m_full.region1y (A/m)	m_full.region1z (A/m)	m_full.region2x (A/m)	m_full.region2y (A/m)	m_full.region2z (A/m)
0	0.6383907	0.6383884	-2.0270537e-10	0.07071097	0.07071097	0	55968.28	55968.086	-1.4812465e-05	653982.25	239762.66	-0.00024090931	239764.69	653981.2	4.3718437e-06
0	0.63827527	0.63827336	-4.7705007e-10	0.070569366	0.070569366	0	55958.164	55958	-3.9325252e-05	654074.44	239509.23	-0.00024680895	239510.86	654073.5	-0.00038116856
0	0.638156	0.6381542	-1.9757175e-10	0.07042761	0.07042761	0	55947.71	55947.543	-1.31232055e-05	654170.94	239245.8	1.3139374e-05	239247.39	654170	-0.00022270136
0	0.6380366	0.6380347	-1.9117578e-10	0.07028633	0.07028633	0	55937.242	55937.082	-1.7375769e-05	654267.56	238982.11	-0.000108639535	238983.69	654266.6	-0.00016883084
0	0.6379171	0.6379153	-1.9064103e-10	0.07014479	0.07014479	0	55926.76	55926.605	-1.813736e-05	654363.6	238718.66	-0.00021272614	238720.28	654362.75	-7.690593e-05
0	0.6377971	0.63779527	-3.9688275e-10	0.07000352	0.07000352	0	55916.242	55916.086	-3.3652956e-05	654460.3	238454.02	-0.00022821572	238455.64	654459.44	-0.00030918195
0	0.6376765	0.6376746	-3.854891e-10	0.06986232	0.06986232	0	55905.676	55905.51	-2.4116376e-05	654557.2	238188.28	-0.00021154595	238189.9	654556.3	-0.0001735639
0	0.6375561	0.6375542	-3.6772524e-10	0.0697207	0.0697207	0	55895.113	55894.96	-3.620862e-05	654653.75	237923.12	-0.0002465932	237924.75	654652.8	-0.00033161542
0	0.6374355	0.63743365	-2.5009203e-10	0.06957944	0.06957944	0	55884.54	55884.383	-2.872918e-05	654750.44	237657.58	-0.00024439266	237659.2	654749.5	-0.00021437817
0	0.63731515	0.63731337	-3.7105222e-10	0.0694377	0.0694377	0	55873.99	55873.824	-3.550604e-05	654846.6	237392.94	-0.0002413366	237394.6	654845.6	-0.00032565263
0	0.6371919	0.6371901	-2.4594474e-10	0.069296405	0.069296405	0	55863.188	55863.023	-1.7255832e-05	654945.2	237121.92	-0.00014167727	237123.55	654944.2	-0.00013387784
0	0.63707185	0.63706994	-3.4078024e-10	0.06915487	0.06915487	0	55852.664	55852.5	-3.0335137e-05	655040.5	236858.56	-0.00024956904	236860.16	655039.5	-0.00023484704
0	0.6369498	0.6369479	-1.0803719e-10	0.0690136	0.0690136	0	55841.957	55841.8	-8.75415e-06	655137.56	236590.45	-6.399327e-05	236592.08	655136.6	-7.58001e-05
0	0.6368276	0.6368258	-2.5140973e-10	0.06887232	0.06887232	0	55831.25	55831.086	-2.9893312e-05	655234.6	236322.39	-0.00029205505	236324.03	655233.75	-0.00018530562
0	0.6367039	0.6367021	-1.2460233e-10	0.06873079	0.06873079	0	55820.4	55820.242	-1.7546052e-05	655332.4	236051.4	-9.1365975e-05	236053.06	655331.44	-0.00018882361
0	0.63658243	0.6365806	-2.9595043e-10	0.0685895	0.0685895	0	55809.75	55809.586	-2.44955e-05	655428.56	235785.12	-0.00020247944	235786.8	655427.7	-0.0001886846
0	0.63645935	0.6364575	-3.286826e-10	0.068447776	0.068447776	0	55798.97	55798.805	-3.2193126e-05	655525.56	235515.89	-0.00026433307	235517.56	655524.7	-0.0002497529
0	0.63633424	0.63633233	-2.7266484e-10	0.0683065	0.0683065	0	55788	55787.832	-2.5867072e-05	655624.44	235241.84	-0.00028726857	235243.48	655623.56	-0.00012579783
0	0.6362118	0.6362099	-2.8366076e-10	0.06816496	0.06816496	0	55777.26	55777.1	-1.8632807e-05	655720.6	234974.31	-0.00021753869	234975.97	655719.7	-8.00051e-05
0	0.6360884	0.6360865	-2.7194919e-10	0.068023674	0.068023674	0	55766.438	55766.273	-2.4191493e-05	655817.44	234704.64	-0.00014495822	234706.34	655816.44	-0.00024135117
0	0.63596356	0.63596165	-4.199661e-10	0.067882404	0.067882404	0	55755.5	55755.332	-2.8068713e-05	655915.2	234432.12	-0.00023341711	234433.8	655914.2	-0.00021480687
0	0.6358394	0.6358375	-1.6931112e-10	0.067740865	0.067740865	0	55744.613	55744.457	-1.0869213e-05	656012.4	234161.12	-0.00015634928	234162.83	656011.44	-1.721912e-05
0	0.6357141	0.6357122	-3.4718922e-10	0.06759956	0.06759956	0	55733.625	55733.46	-1.638086e-05	656109.94	233888.03	-0.00020137812	233889.73	656109.06	-6.0204733e-05
0	0.6355893	0.6355874	-1.3117231e-10	0.06745787	0.06745787	0	55722.688	55722.523	-9.593387e-06	656207.3	233616.05	-0.00013297486	233617.72	656206.4	-2.0220126e-05
0	0.63546306	0.6354613	-4.400112e-10	0.067316584	0.067316584	0	55711.617	55711.46	-3.726921e-05	656305.44	233341.12	-0.00032284245	233342.83	656304.6	-0.00027230245
0	0.6353378	0.63533604	-1.6966582e-10	0.067174956	0.067174956	0	55700.637	55700.477	-1.4740988e-05	656402.8	233068.48	-0.0001792858	233070.16	656401.9	-5.6110257e-05
0	0.63521177	0.6352099	-1.5805508e-10	0.06703376	0.06703376	0	55689.586	55689.426	-1.6755443e-05	656500.5	232794.22	-0.00016189142	232795.95	656499.56	-0.00010567306
0	0.63508546	0.63508356	-1.6590485e-10	0.06689248	0.06689248	0	55678.51	55678.35	-1.6738366e-05	656598.2	232519.83	-0.00013116066	232521.5	656597.2	-0.00013613116
0	0.6349581	0.63495624	-1.0282108e-10	0.06675091	0.06675091	0	55667.344	55667.18	-5.761713e-06	656696.56	232243.16	-5.940803e-05	232244.84	656695.56	-3.2599673e-05
0	0.63483185	0.63482994	-1.7580674e-10	0.06660963	0.06660963	0	55656.273	55656.113	-1.6734797e-05	656793.7	231969.16	-0.00014241465	231970.86	656792.8	-0.00012482017
0	0.6347038	0.63470185	-1.0867894e-10	0.066467956	0.066467956	0	55645.05	55644.887	-1.0440378e-05	656891.94	231691.67	-8.617379e-05	231693.38	656890.94	-8.0546626e-05
0	0.634576	0.6345742	-1.5257268e-10	0.06632633	0.06632633	0	55633.85	55633.688	-1.3784617e-05	656989.94	231414.81	-0.00012452228	231416.52	656989	-9.560167e-05
0	0.6344477	0.6344458	-1.176138e-10	0.06618504	0.06618504	0	55622.6	55622.43	-1.5716938e-05	657088.5	231136.48	-0.00013218999	231138.23	657087.56	-0.00011879083
0	0.63432014	0.6343183	-3.4955713e-10	0.06604385	0.06604385	0	55611.414	55611.25	-2.963187e-05	657186.3	230860.2	-0.00018862418	230861.92	657185.4	-0.00028456154
0	0.6341912	0.6341893	-3.0282363e-11	0.06590254	0.06590254	0	55600.113	55599.95	-7.483614e-08	657284.56	230581.45	2.4449315e-05	230583.17	657283.6	-2.5644358e-05
0	0.6340627	0.6340609	-4.14768e-10	0.065760985	0.065760985	0	55588.85	55588.688	-3.0044223e-05	657382.56	230303.66	-0.00019994225	230305.39	657381.6	-0.0002798282
0	0.63393337	0.63393146	-5.442231e-11	0.0656197	0.0656197	0	55577.508	55577.336	-1.2675317e-05	657480.94	230023.95	-6.4680615e-05	230025.69	657480.06	-0.00013772912
0	0.6338036	0.6338017	-7.7556885e-11	0.06547804	0.06547804	0	55566.133	55565.96	-1.0806418e-05	657579.4	229743.98	-0.00014494343	229745.7	657578.44	-2.7622207e-05
0	0.63367397	0.63367206	-4.0716394e-10	0.06533641	0.06533641	0	55554.77	55554.594	-3.1346997e-05	657677.4	229464.38	-0.00027180242	229466.12	657676.44	-0.00022877182
0	0.63354385	0.6335419	-5.1510396e-10	0.06519513	0.06519513	0	55543.355	55543.188	-3.9835788e-05	657776	229183.53	-0.00036974903	229185.27	657775.1	-0.00026638113
0	0.63341224	0.63341033	-1.83248e-10	0.06505393	0.06505393	0	55531.824	55531.645	-7.5780918e-06	657875.2	228900.16	-0.00012286042	228901.92	657874.25	1.8473024e-06
0	0.633283	0.6332811	-3.4707476e-10	0.06491261	0.06491261	0	55520.5	55520.324	-2.8953064e-05	657972.6	228621.89	-0.00029587463	228623.64	657971.7	-0.00016647138
0	0.63315165	0.63314974	-3.380008e-10	0.064771056	0.064771056	0	55508.977	55508.805	-2.3794388e-05	658071.4	228339.2	-0.00022417284	228340.92	658070.44	-0.00015579525
0	0.6330202	0.63301826	-4.47243e-10	0.06462978	0.06462978	0	55497.45	55497.29	-4.285282e-05	658170.1	228056.4	-0.00039855277	228058.17	658169.2	-0.00028575578
0	0.63288885	0.6328868	1.5621058e-11	0.06448806	0.06448806	0	55485.93	55485.76	2.7815433e-06	658268.5	227774.08	2.0712905e-05	227775.83	658267.6	2.3705035e-05
0	0.63275576	0.6327538	-1.1179881e-10	0.0643465	0.0643465	0	55474.27	55474.094	-6.067453e-06	658367.94	227488.28	-9.1394766e-05	227490.08	658367	-5.495246e-06
0	0.632624	0.632622	-4.4725848e-10	0.064205214	0.064205214	0	55462.71	55462.54	-4.446178e-05	658466.3	227205.34	-0.0003776167	227207.16	658465.4	-0.00033238507
0	0.63249135	0.63248944	-2.9147804e-10	0.06406398	0.06406398	0	55451.086	55450.914	-2.7704305e-05	658565.2	226921.02	-0.0001922449	226922.8	658564.2	-0.00025015994
0	0.632358	0.63235605	-2.1970105e-10	0.063922696	0.063922696	0	55439.395	55439.22	-2.4068362e-05	658664.25	226635.16	-0.00016232661	226636.95	658663.3	-0.00022201649
0	0.63222396	0.63222206	9.167817e-11	0.06378113	0.06378113	0	55427.65	55427.477	1.0864404e-05	658763.5	226348.31	1.6412912e-05	226350.11	658762.6	0.00015707871
0	0.632091	0.632089	-3.2319644e-10	0.06363943	0.06363943	0	55415.99	55415.812	-2.6346204e-05	658862.25	226063.39	-0.00026671245	226065.17	658861.25	-0.00015400512
0	0.631957	0.631955	-3.0997993e-10	0.06349815	0.06349815	0	55404.24	55404.062	-3.1311698e-05	658961.2	225776.88	-0.00022391525	225778.67	658960.2	-0.00027609532
0	0.63182205	0.63182	-2.1778292e-10	0.063356586	0.063356586	0	55392.4	55392.23	-1.45565355e-05	659060.56	225488.47	-0.00012315997	225490.23	659059.6	-0.00010929059
0	0.6316878	0.63168585	-1.8661274e-10	0.06321526	0.06321526	0	55380.637	55380.47	-2.6130376e-05	659159.4	225201.78	-0.00014106781	225203.6	659158.4	-0.00027620324
0	0.6315524	0.63155043	-3.6808148e-10	0.06307407	0.06307407	0	55368.773	55368.594	-3.1871197e-05	659258.9	224912.77	-0.00027875445	224914.56	659257.8	-0.00023019068
0	0.63141775	0.6314158	-1.209455e-10	0.062932774	0.062932774	0	55356.96	55356.79	-1.3712175e-05	659357.75	224625.38	-0.00020868753	224627.17	659356.75	-1.0279606e-05
0	0.6312821	0.6312802	-3.6061404e-10	0.06279112	0.06279112	0	55345.074	55344.895	-3.0178198e-05	659457	224336.22	-0.00028523663	224338.05	659455.94	-0.0001966733
0	0.631145	0.63114303	-2.8102776e-10	0.06264953	0.06264953	0	55333.05	55332.875	-2.4389179e-05	659556.94	224044.19	-0.00024143716	224046.02	659555.94	-0.00014802902
0	0.6310095	0.6310075	-1.2191537e-10	0.06250824	0.06250824	0	55321.168	55321	-1.0225305e-05	659655.94	223755.55	-0.000104425104	223757.4	659654.94	-5.8860853e-05
0	0.63087237	0.63087034	-2.1713799e-10	0.062366635	0.062366635	0	55309.15	55308.97	-1.9587009e-05	659755.6	223463.88	-0.00020952564	223465.69	659754.6	-0.0001032556
0	0.63073564	0.63073367	-4.08161e-10	0.06222535	0.06222535	0	55297.164	55296.98	-3.517523e-05	659854.94	223173.14	-0.00034801924	223174.98	659853.94	-0.00021368737
0	0.6305984	0.63059646	-7.9486515e-11	0.06208415	0.06208415	0	55285.137	55284.96	-1.3852701e-05	659954.25	222881.7	-3.5663703e-05	222883.53	659953.4	-0.00018554747
0	0.6304607	0.63045865	-4.4942872e-10	0.061942477	0.061942477	0	55273.05	55272.875	-3.5087596e-05	660053.8	222589.25	-0.00029773999	222591.11	660052.9	-0.00026256716
0	0.63032126	0.63031924	-2.4074714e-10	0.061801177	0.061801177	0	55260.832	55260.656	-2.4931509e-05	660154.4	222293.53	-0.00021465633	222295.38	660153.5	-0.00018347021
0	0.6301829	0.6301809	-3.2594488e-10	0.061659623	0.061659623	0	55248.7	55248.53	-2.210715e-05	660254.06	222000.25	-0.00020462535	222002.12	660253.06	-0.00014839953
0	0.6300437	0.63004166	-4.3433124e-10	0.06151831	0.06151831	0	55236.492	55236.312	-2.9613791e-05	660354.6	221704.66	-0.00029811994	221706.53	660353.6	-0.00017477709
0	0.6299055	0.6299035	-9.292072e-11	0.06137672	0.06137672	0	55224.383	55224.207	-4.508285e-06	660453.44	221412.4	-5.2367082e-05	221414.25	660452.5	-1.962487e-05
0	0.6297664	0.6297644	-1.2841088e-10	0.061235435	0.061235435	0	55212.188	55212.008	-9.097295e-06	660553.1	221117.98	-0.00017752503	221119.83	660552.2	3.225204e-05
0	0.6296262	0.6296242	-2.9431332e-10	0.061094135	0.061094135	0	55199.9	55199.72	-2.204607e-05	660653.2	220821.69	-0.00013195042	220823.53	660652.2	-0.00022009911
0	0.62948674	0.6294848	-1.2341879e-10	0.06095255	0.06095255	0	55187.668	55187.5	-8.598703e-06	660752.5	220527.14	-0.00015592334	220528.98	660751.56	1.8612265e-05
0	0.6293452	0.62934315	-1.3290236e-10	0.06081125	0.06081125	0	55175.25	55175.082	-1.1879376e-05	660853.2	220228.14	-9.0431306e-05	220230.02	660852.25	-9.92682e-05
0	0.62920463	0.62920266	-2.7513725e-10	0.06066969	0.06066969	0	55162.93	55162.76	-2.384419e-05	660953.2	219931.38	-0.00017023993	219933.27	660952.25	-0.00021052342
0	0.62906384	0.62906176	-1.6535254e-10	0.060528405	0.060528405	0	55150.586	55150.414	-2.1957387e-05	661053.06	219634.3	-0.00013236397	219636.2	661052.2	-0.00021826937
0	0.6289221	0.6289201	-4.5500798e-10	0.060386807	0.060386807	0	55138.164	55137.99	-3.6382255e-05	661153.4	219335.73	-0.00026049925	219337.62	661152.4	-0.00032048207
0	0.6287803	0.6287782	-4.4123713e-10	0.060245506	0.060245506	0	55125.73	55125.55	-3.767999e-05	661253.56	219036.97	-0.0003343088	219038.84	661252.5	-0.00026739587
0	0.62863815	0.62863606	-7.7183454e-11	0.06010422	0.06010422	0	55113.27	55113.086	-3.950634e-06	661353.6	218737.92	-5.4558885e-05	218739.83	661352.6	-8.528042e-06
0	0.628495	0.62849295	-2.8119318e-10	0.05996261	0.05996261	0	55100.727	55100.55	-2.3321823e-05	661454.1	218436.97	-0.00019549132	218438.89	661453.2	-0.00017693048
0	0.628352	0.62834984	-2.6693905e-10	0.059821296	0.059821296	0	55088.176	55088	-2.0433088e-05	661554.6	218136.2	-0.0002215521	218138.12	661553.6	-0.00010474002
0	0.628209	0.62820685	-2.519598e-10	0.059679788	0.059679788	0	55075.645	55075.46	-2.5881178e-05	661654.7	217835.97	-0.00020855456	217837.89	661653.75	-0.00020473708
0	0.6280656	0.6280635	-2.4876798e-10	0.05953849	0.05953849	0	55063.074	55062.895	-2.253893e-05	661754.94	217535.05	-0.00020262045	217537	661753.94	-0.00015729947
0	0.6279217	0.6279197	-4.231133e-10	0.059396796	0.059396796	0	55050.46	55050.28	-4.1590545e-05	661855.1	217233.31	-0.00034357238	217235.27	661854.2	-0.0003205792
0	0.6277761	0.627774	-5.3625465e-10	0.059255593	0.059255593	0	55037.688	55037.51	-4.4758373e-05	661956.3	216928.23	-0.00042781216	216930.16	661955.4	-0.00028692585
0	0.6276316	0.6276296	-1.5184809e-10	0.05911429	0.05911429	0	55025.023	55024.844	-1.43993675e-05	662056.75	216625.66	-0.0001947898	216627.58	662055.75	-3.5150984e-05
0	0.62748706	0.627485	-4.9290555e-10	0.058972668	0.058972668	0	55012.35	55012.168	-3.890887e-05	662156.94	216322.94	-0.00026184242	216324.89	662156	-0.00035948594
0	0.6273416	0.62733966	-4.1075493e-10	0.058831364	0.058831364	0	54999.613	54999.426	-3.8627804e-05	662257.5	216018.9	-0.0003752444	216020.83	662256.5	-0.00024159564
0	0.6271947	0.6271926	-5.6808075e-10	0.05868988	0.05868988	0	54986.727	54986.54	-4.975524e-05	662358.8	215711.69	-0.00043380813	215713.66	662357.94	-0.00036072388
0	0.6270494	0.62704736	-3.412576e-10	0.05854817	0.05854817	0	54973.98	54973.8	-3.2692158e-05	662459.06	215408.11	-0.00025202378	215410.05	662458.1	-0.00027003113
0	0.62690246	0.6269004	-3.8652537e-10	0.05840688	0.05840688	0	54961.1	54960.918	-3.3685694e-05	662560.1	215101.45	-0.0003051273	215103.4	662559.1	-0.0002327932
0	0.6267547	0.6267526	-4.3836054e-10	0.05826568	0.05826568	0	54948.15	54947.96	-3.7222777e-05	662661.06	214793.5	-0.00035824734	214795.45	662660.2	-0.00023615616
0	0.6266073	0.6266052	-2.928575e-10	0.058124352	0.058124352	0	54935.24	54935.043	-2.5287885e-05	662762	214486.28	-0.0001976089	214488.23	662761.06	-0.00020620856
0	0.6264593	0.62645715	-3.500293e-10	0.057982735	0.057982735	0	54922.25	54922.062	-2.3515615e-05	662863.2	214177.83	-0.00029504267	214179.81	662862.25	-8.047375e-05
0	0.6263122	0.6263101	-3.9327402e-10	0.05784144	0.05784144	0	54909.355	54909.164	-2.7245009e-05	662963.6	213871.48	-0.0003207336	213873.42	662962.6	-0.00011433681
0	0.62616396	0.6261618	-1.8414602e-10	0.057699878	0.057699878	0	54896.355	54896.168	-1.6399228e-05	663064.4	213563.16	-0.00011878785	213565.12	663063.4	-0.00014308833
0	0.6260145	0.62601227	-1.276228e-10	0.057558257	0.057558257	0	54883.242	54883.055	-1.2304134e-05	663165.8	213252.36	-4.045012e-05	213254.36	663164.75	-0.00015603227
0	0.62586576	0.6258636	-1.8933793e-10	0.057416957	0.057416957	0	54870.21	54870.023	-1.9722303e-05	663266.56	212943.44	-0.00015344434	212945.44	663265.56	-0.0001614974
0	0.62571585	0.62571377	-4.238349e-10	0.05727573	0.05727573	0	54857.074	54856.887	-3.3012915e-05	663367.7	212632.53	-0.0003018377	212634.55	663366.7	-0.0002253393
0	0.62556505	0.6255629	-3.014514e-10	0.05713443	0.05713443	0	54843.85	54843.664	-3.1103285e-05	663469.4	212319.72	-0.0002644587	212321.7	663468.4	-0.00023222379
0	0.62541467	0.6254125	-9.5734955e-11	0.05699281	0.05699281	0	54830.668	54830.477	-7.8831445e-06	663570.6	212007.92	-3.769764e-05	212009.92	663569.7	-8.81868e-05
0	0.62526435	0.6252622	-1.3428396e-10	0.056851286	0.056851286	0	54817.49	54817.3	-1.4477492e-05	663671.44	211696.56	-0.00022233014	211698.55	663670.56	-8.858203e-06
0	0.62511337	0.6251113	-1.2974602e-10	0.056709964	0.056709964	0	54804.258	54804.062	-1.3524848e-05	663772.56	211384.17	-0.00016763793	211386.19	663771.6	-4.833781e-05
0	0.6249609	0.6249588	-5.360651e-11	0.056568343	0.056568343	0	54790.887	54790.7	-4.625182e-06	663874.6	211068.75	-5.142384e-05	211070.75	663873.7	-2.2434817e-05
0	0.62480956	0.6248075	-1.8056885e-10	0.05642702	0.05642702	0	54777.617	54777.43	-1.2254309e-05	663975.5	210755.92	-3.51676e-05	210757.9	663974.5	-0.00016051914
0	0.62465703	0.6246549	-2.6750122e-10	0.05628581	0.05628581	0	54764.24	54764.05	-2.2574623e-05	664077.25	210440.56	-0.00026275672	210442.58	664076.25	-9.7733166e-05
0	0.624505	0.62450284	-2.3241652e-10	0.056144506	0.056144506	0	54750.914	54750.73	-1.9597337e-05	664178.2	210126.84	-0.00025527424	210128.86	664177.1	-5.767192e-05
0	0.6243514	0.62434924	-3.4416628e-10	0.056002766	0.056002766	0	54737.45	54737.26	-3.0442025e-05	664279.94	209810.05	-0.000313749	209812.06	664278.94	-0.00017237394
0	0.62419826	0.62419605	-3.80954e-10	0.055861373	0.055861373	0	54724.02	54723.832	-3.5998564e-05	664381.3	209494.16	-0.0003207655	209496.17	664380.4	-0.00025408878
0	0.6240442	0.6240421	-3.5366926e-10	0.05572006	0.05572006	0	54710.52	54710.332	-3.4850233e-05	664483	209176.9	-0.00025137875	209178.95	664482	-0.00030513803
0	0.6238896	0.6238875	-2.8763733e-10	0.05557843	0.05557843	0	54696.96	54696.773	-2.5230449e-05	664584.44	208859	-0.00023508185	208861.03	664583.44	-0.00016781842
0	0.6237347	0.62373257	-5.6720434e-11	0.055437095	0.055437095	0	54683.383	54683.195	-7.179816e-06	664686.4	208540.19	-6.9792135e-05	208542.23	664685.4	-4.486099e-05
0	0.62358016	0.62357795	-1.0806357e-10	0.055295892	0.055295892	0	54669.836	54669.645	-3.8344524e-06	664787.8	208222.36	-0.00011880718	208224.4	664786.8	5.757553e-05
0	0.62342477	0.62342256	-2.4087843e-10	0.055154584	0.055154584	0	54656.207	54656.02	-2.0688141e-05	664889.4	207903.23	-0.00019531582	207905.3	664888.4	-0.00013504921
0	0.6232686	0.62326646	-3.8509765e-10	0.05501284	0.05501284	0	54642.52	54642.324	-3.8226648e-05	664991.1	207582.81	-0.00028975934	207584.86	664990.2	-0.00032067476
0	0.6231124	0.62311023	-4.2716494e-10	0.054871462	0.054871462	0	54628.82	54628.633	-4.1553267e-05	665093.06	207262.17	-0.0003725871	207264.23	665092.06	-0.00029096918
0	0.62295586	0.6229536	-6.0231514e-11	0.05473016	0.05473016	0	54615.1	54614.906	-7.1488075e-06	665194.7	206941.4	-0.00010712679	206943.47	665193.7	-7.031164e-06
0	0.62279844	0.62279624	-1.14284394e-10	0.054588504	0.054588504	0	54601.3	54601.113	-1.1014616e-05	665296.9	206618.94	-5.628839e-05	206621.02	665295.9	-0.000119601915
0	0.62264115	0.622639	7.486678e-11	0.05444718	0.05444718	0	54587.508	54587.32	9.727724e-06	665398.7	206296.8	-6.8539675e-06	206298.89	665397.75	0.00016219416
0	0.62248343	0.6224813	-4.6501086e-10	0.054305978	0.054305978	0	54573.688	54573.5	-3.6454745e-05	665500.4	205974.4	-0.0002990897	205976.48	665499.4	-0.00028304924
0	0.6223247	0.62232244	-2.504175e-10	0.054164223	0.054164223	0	54559.758	54559.574	-2.630851e-05	665602.6	205649.81	-0.00031051892	205651.9	665601.6	-0.0001095967
0	0.6221663	0.6221641	-4.3341944e-10	0.0540229	0.0540229	0	54545.875	54545.688	-3.576376e-05	665704.5	205326.2	-0.00026774537	205328.3	665703.56	-0.00030335932
0	0.62200665	0.6220045	-1.90526e-10	0.053881556	0.053881556	0	54531.883	54531.688	-2.3759903e-05	665806.8	205000.44	-0.00017790202	205002.52	665805.8	-0.00020151537
0	0.62184715	0.62184495	-2.0411738e-10	0.053740222	0.053740222	0	54517.9	54517.707	-9.294376e-06	665908.8	204675.14	-0.000105275365	204677.22	665907.9	-4.314477e-05
0	0.621686	0.6216838	-7.379943e-10	0.053598575	0.053598575	0	54503.77	54503.574	-6.367744e-05	666011.5	204346.78	-0.0004926407	204348.9	666010.56	-0.0005242124
0	0.6215257	0.6215234	-4.1553447e-10	0.053457268	0.053457268	0	54489.707	54489.52	-3.52798e-05	666113.7	204020.1	-0.00039036458	204022.19	666112.75	-0.00017301191
0	0.6213659	0.6213637	-4.6208845e-10	0.053315945	0.053315945	0	54475.707	54475.51	-4.1926636e-05	666215.25	203694.89	-0.0003544155	203697	666214.2	-0.000315103
0	0.621205	0.62120277	-7.8014775e-11	0.0531743	0.0531743	0	54461.594	54461.4	-1.2351162e-05	666317.4	203367.47	-0.00017556621	203369.56	666316.4	-2.1667183e-05
0	0.6210433	0.621041	-8.881585e-12	0.053032976	0.053032976	0	54447.418	54447.227	-3.3228994e-06	666419.7	203038.8	-6.0152473e-05	203040.9	666418.7	7.0897227e-06
0	0.6208812	0.620879	-1.9816426e-10	0.052891634	0.052891634	0	54433.21	54433.01	-1.8999102e-05	666521.9	202709.72	-0.00015702954	202711.84	666520.8	-0.00014636354
0	0.6207189	0.6207167	-2.9858577e-10	0.05275032	0.05275032	0	54418.992	54418.793	-3.4244935e-05	666623.94	202380.44	-0.00032659966	202382.56	666623	-0.00022025118
0	0.6205557	0.62055343	-1.0839116e-10	0.05260866	0.05260866	0	54404.676	54404.477	-8.041706e-06	666726.6	202049.2	-0.00011701365	202051.36	666725.6	-1.1402822e-05
0	0.620392	0.6203899	-2.3702493e-10	0.05246734	0.05246734	0	54390.324	54390.133	-2.4143546e-05	666829.2	201717.53	-0.00019415151	201719.66	666828.2	-0.00019139222
0	0.62022924	0.6202269	-4.2443468e-10	0.052326016	0.052326016	0	54376.043	54375.855	-3.764198e-05	666931.06	201387.67	-0.00039788548	201389.78	666930	-0.0002032122
0	0.62006396	0.6200618	-3.15525e-10	0.052184362	0.052184362	0	54361.562	54361.375	-1.8351633e-05	667034.06	201053.42	-0.00016664599	201055.55	667033.1	-0.00012640776
0	0.61990017	0.61989796	-3.9087367e-10	0.052043013	0.052043013	0	54347.207	54347.01	-2.3615483e-05	667136	200722.17	-0.0002371512	200724.31	667134.94	-0.00013995997
0	0.6197348	0.61973256	-1.8359722e-10	0.051901728	0.051901728	0	54332.707	54332.51	-1.5947027e-05	667238.6	200387.89	-0.00011195936	200390.06	667237.7	-0.0001426957
0	0.61956954	0.6195673	-1.6358645e-10	0.051760413	0.051760413	0	54318.21	54318.023	-1.5600166e-05	667341	200054.11	-0.00019511991	200056.28	667340.1	-5.3996184e-05
0	0.61940336	0.61940116	-1.9178464e-10	0.05161863	0.05161863	0	54303.65	54303.45	-1.6120692e-05	667443.8	199718.7	-0.00016087256	199720.88	667442.9	-9.655571e-05
0	0.6192372	0.619235	-3.7218695e-10	0.051477425	0.051477425	0	54289.082	54288.883	-2.9857221e-05	667546.2	199383.73	-0.00034538397	199385.88	667545.2	-0.00013140033
0	0.6190701	0.6190678	-2.0253993e-10	0.0513361	0.0513361	0	54274.43	54274.23	-2.1720934e-05	667649	199046.9	-0.00023128183	199049.06	667648	-0.00011557566
0	0.61890286	0.6189006	-1.2311875e-10	0.0511944	0.0511944	0	54259.773	54259.57	-9.2733635e-06	667751.6	198710.17	-0.00014283287	198712.33	667750.6	-5.2517153e-06
0	0.6187345	0.6187323	-2.7177882e-10	0.051053077	0.051053077	0	54245.008	54244.812	-2.6183377e-05	667854.7	198371.39	-0.00017512377	198373.6	667853.7	-0.00024299361
0	0.61856645	0.6185642	-4.733262e-10	0.050911825	0.050911825	0	54230.273	54230.074	-3.34078e-05	667957.3	198033.52	-0.00027010808	198035.69	667956.4	-0.00026337474
0	0.61839867	0.6183964	1.5305898e-10	0.050770037	0.050770037	0	54215.57	54215.363	1.4107578e-05	668059.6	197696.31	8.8260913e-07	197698.5	668058.7	0.00022439864
0	0.6182294	0.6182272	-2.939851e-10	0.050628714	0.050628714	0	54200.727	54200.53	-2.5597104e-05	668162.25	197356.72	-0.00031985465	197358.89	668161.4	-8.890066e-05
0	0.6180597	0.6180574	-4.4438053e-10	0.0504875	0.0504875	0	54185.85	54185.656	-3.31955e-05	668265.44	197015.92	-0.0002699642	197018.12	668264.5	-0.00026012852
0	0.61789024	0.6178879	-2.3458208e-10	0.050346155	0.050346155	0	54170.99	54170.793	-2.2710634e-05	668368	196676.11	-0.00021218484	196678.28	668367.06	-0.00015047698
0	0.61771935	0.61771697	-4.753289e-10	0.050204474	0.050204474	0	54156.01	54155.812	-4.562441e-05	668471	196333.88	-0.00030691453	196336.08	668470	-0.00042165307
0	0.6175486	0.6175463	-6.38529e-11	0.05006314	0.05006314	0	54141.043	54140.85	-2.3607827e-06	668573.94	195991.92	-0.000106453794	195994.11	668572.94	6.8754896e-05
0	0.61737746	0.61737525	-1.211179e-10	0.049921803	0.049921803	0	54126.04	54125.836	-1.2288525e-05	668676.8	195649.47	-2.5292726e-05	195651.69	668675.8	-0.0001709404
0	0.61720604	0.61720383	-2.7104602e-10	0.049780127	0.049780127	0	54111.01	54110.812	-2.193954e-05	668779.5	195306.88	-0.00027921438	195309.1	668778.5	-7.113402e-05
0	0.6170321	0.6170299	-2.5288246e-10	0.049638797	0.049638797	0	54095.76	54095.555	-2.1470547e-05	668883.25	194959.52	-0.00019769518	194961.73	668882.25	-0.00014516391
0	0.6168611	0.61685884	-3.500406e-10	0.04949756	0.04949756	0	54080.77	54080.57	-3.1089567e-05	668985.4	194617.97	-0.0002785019	194620.19	668984.4	-0.00021796153
0	0.61668813	0.6166858	-1.5757055e-10	0.04935623	0.04935623	0	54065.6	54065.4	-1.7907738e-05	669088.4	194272.8	-0.00016987488	194275.03	669087.4	-0.00011609042
0	0.61651397	0.6165117	-1.9025281e-10	0.04921455	0.04921455	0	54050.336	54050.137	-1.620382e-05	669191.56	193925.75	-0.00015908749	193927.97	669190.6	-9.9668265e-05
0	0.61634046	0.6163381	-1.5102353e-10	0.049073216	0.049073216	0	54035.117	54034.918	-2.04694e-05	669294.3	193580.05	-0.00021798357	193582.28	669293.3	-0.00010888842
0	0.61616474	0.6161624	-1.3584976e-10	0.04893189	0.04893189	0	54019.72	54019.51	-1.2706931e-05	669398	193230.39	-0.00011304611	193232.62	669397	-8.986847e-05
0	0.6159913	0.615989	-3.3955252e-10	0.048790213	0.048790213	0	54004.51	54004.305	-2.9626774e-05	669500.3	192885.22	-0.0002631369	192887.45	669499.3	-0.00020996747
0	0.6158145	0.61581224	-1.02298496e-10	0.048648853	0.048648853	0	53989.02	53988.812	-1.3643572e-05	669604.5	192533.64	-0.00018543628	192535.92	669603.5	-3.243534e-05
0	0.61563957	0.6156373	-5.437726e-10	0.04850764	0.04850764	0	53973.676	53973.47	-5.574891e-05	669706.8	192186.36	-0.0004358026	192188.62	669705.8	-0.00045444124
0	0.6154631	0.6154608	-1.2537239e-10	0.048366304	0.048366304	0	53958.2	53958	-6.126161e-06	669810	191836.02	-5.5258315e-05	191838.28	669809	-4.2569194e-05
0	0.61528635	0.6152841	-2.8481084e-10	0.048224516	0.048224516	0	53942.707	53942.5	-2.544109e-05	669913	191485.55	-0.00025999226	191487.83	669912.1	-0.0001462717
0	0.61510795	0.61510557	-1.8655216e-10	0.0480833	0.0480833	0	53927.062	53926.863	-1.2480077e-05	670017.06	191131.73	-0.00013548543	191133.98	670016.1	-6.3806576e-05
0	0.61493134	0.614929	-3.735434e-10	0.047941964	0.047941964	0	53911.582	53911.383	-3.7219987e-05	670119.5	190782.14	-0.00032263054	190784.4	670118.5	-0.0002717284
0	0.6147526	0.61475027	-3.8735035e-10	0.04780026	0.04780026	0	53895.914	53895.71	-3.5961664e-05	670222.8	190428.56	-0.00032650304	190430.81	670221.8	-0.000247762
0	0.6145741	0.6145718	-4.633512e-11	0.04765894	0.04765894	0	53880.26	53880.062	-5.0483623e-06	670325.75	190075.8	0.00010327512	190078.05	670324.7	-0.00018389146
0	0.614395	0.61439264	-1.4762253e-10	0.047517724	0.047517724	0	53864.562	53864.363	-1.5490885e-05	670429.2	189721.55	-0.00019284688	189723.83	670428.25	-5.4524146e-05
0	0.61421496	0.61421263	1.7578944e-11	0.047376387	0.047376387	0	53848.78	53848.574	-3.1697134e-06	670532.56	189366.12	-4.0542927e-05	189368.42	670531.56	-1.0073626e-05
0	0.61403525	0.6140329	-3.5331973e-10	0.047234587	0.047234587	0	53833.02	53832.82	-3.546723e-05	670635.44	189011.53	-0.00030212195	189013.83	670634.56	-0.00026424753
0	0.61385375	0.6138515	-1.8993673e-10	0.047093373	0.047093373	0	53817.113	53816.914	-2.0604686e-05	670739.06	188653.97	-0.00016502822	188656.25	670738.06	-0.0001640041
0	0.6136731	0.6136707	-2.5027702e-10	0.04695201	0.04695201	0	53801.27	53801.062	-2.4430501e-05	670842.2	188297.77	-0.00021579584	188300.08	670841.2	-0.00017433018
0	0.6134917	0.61348945	-4.7671794e-10	0.046810348	0.046810348	0	53785.367	53785.164	-4.088645e-05	670945.4	187940.73	-0.00030153434	187943.03	670944.44	-0.00035137363
0	0.613309	0.61330664	-1.9430123e-10	0.04666901	0.04666901	0	53769.35	53769.145	-2.2765093e-05	671048.94	187581.34	-0.00016391247	187583.66	671047.94	-0.000199619
0	0.61312664	0.6131244	-2.5553776e-11	0.046527795	0.046527795	0	53753.363	53753.164	1.218036e-06	671152.4	187222.61	-2.488839e-05	187224.92	671151.5	4.4338976e-05
0	0.61294377	0.61294144	-1.5941322e-10	0.046386022	0.046386022	0	53737.324	53737.133	-1.2618465e-05	671255.5	186863.44	-8.22463e-05	186865.78	671254.6	-0.00011925558
0	0.6127598	0.61275744	-5.123315e-10	0.046244673	0.046244673	0	53721.207	53721	-4.5801382e-05	671359.06	186502.4	-0.0003807536	186504.72	671358.1	-0.00035064
0	0.61257523	0.6125728	-3.662366e-10	0.046103455	0.046103455	0	53705.01	53704.812	-2.7515523e-05	671462.56	186140.34	-0.00023490572	186142.62	671461.6	-0.0002044845
0	0.6123912	0.61238885	5.993896e-11	0.045962088	0.045962088	0	53688.887	53688.68	5.581767e-06	671565.9	185779.5	5.122723e-06	185781.81	671564.9	8.401146e-05
0	0.61220634	0.61220396	-2.6065747e-10	0.045820434	0.045820434	0	53672.68	53672.477	-2.3562136e-05	671668.94	185417.55	-0.00022200905	185419.88	671668.06	-0.00015425021
0	0.6120204	0.612018	-9.2346075e-11	0.045679096	0.045679096	0	53656.375	53656.168	-4.0434415e-06	671772.6	185053.5	-0.00011961288	185055.84	671771.6	5.5043925e-05
0	0.61183393	0.61183155	1.5534475e-11	0.04553775	0.04553775	0	53640.03	53639.824	-1.2659526e-06	671876.1	184688.94	-6.30125e-05	184691.28	671875.25	4.279674e-05
0	0.6116477	0.61164534	-4.4659604e-10	0.045396097	0.045396097	0	53623.707	53623.492	-3.72416e-05	671979.4	184325.11	-0.00032542995	184327.44	671978.44	-0.00026927414
0	0.6114595	0.6114571	2.792408e-11	0.04525476	0.04525476	0	53607.2	53606.992	2.5402564e-06	672083.3	183957.53	-2.0688529e-05	183959.88	672082.3	6.1253406e-05
0	0.6112718	0.6112695	-4.3193196e-10	0.04511351	0.04511351	0	53590.758	53590.543	-3.2832595e-05	672186.9	183591.39	-0.0002954655	183593.75	672185.9	-0.00022883201