# t (s)	mx ()	my ()	mz ()	B_extx (T)	B_exty (T)	B_extz (T)	m_fullx (A/m)	m_fully (A/m)	m_fullz (A/m)	m_full.region1x (A/m)	m_full.region1y (A/m)	m_full.region1z (A/m)	m_full.region2x (A/m)	m_full.region2y (A/m)	m_full.region2z (A/m)
0	0.64036316	0.6403624	-3.7083314e-10	0.07071081	0.07071081	0	145876.3	145876.12	-8.719136e-05	634216.06	262291.75	-0.00027503795	262292.34	634215.6	-0.00030823218
0	0.6401242	0.64012396	-1.2662595e-10	0.070357226	0.070357226	0	145821.86	145821.83	-2.7777778e-05	634379.2	261794.53	-0.00012329286	261794.69	634379.06	-6.164643e-05
0	0.6398802	0.63988006	-1.8089422e-10	0.07000352	0.07000352	0	145766.28	145766.23	-3.7037036e-05	634546.8	261285.28	-0.00012329286	261285.42	634546.75	-0.00010432473
0	0.6396353	0.63963526	-3.6178845e-11	0.06964997	0.06964997	0	145710.52	145710.48	-6.1728397e-06	634714.1	260775.23	2.8452201e-05	260775.38	634714.06	-8.53566e-05
0	0.63938934	0.63938916	-2.3516247e-10	0.06929652	0.06929652	0	145654.47	145654.44	-4.9382717e-05	634881.94	260262.97	-0.00016122914	260263.08	634881.9	-0.00017545524
0	0.63914216	0.639142	-1.5376009e-10	0.068942994	0.068942994	0	145598.17	145598.14	-3.0864197e-05	635049.5	259749.42	-0.00018019727	259749.56	635049.44	-6.164643e-05
0	0.6388941	0.63889384	-6.331297e-11	0.06858927	0.06858927	0	145541.66	145541.6	-2.4691359e-05	635217.1	259234.44	-2.8452201e-05	259234.55	635217.06	-8.772762e-05
0	0.63864356	0.63864344	-1.8089422e-10	0.06823573	0.068235725	0	145484.58	145484.53	-4.3209875e-05	635385.4	258715.55	-0.00018968133	258715.66	635385.2	-8.53566e-05
0	0.6383933	0.63839304	-1.628048e-10	0.06788226	0.06788226	0	145427.55	145427.53	-3.7037036e-05	635553.3	258197.06	-0.00013277693	258197.17	635553.3	-9.484067e-05
0	0.63814086	0.6381407	-1.628048e-10	0.067528725	0.067528725	0	145370.08	145370.05	-3.2407406e-05	635721.94	257675.11	-4.7420333e-05	257675.27	635721.9	-0.0001849393
0	0.6378877	0.63788754	-9.949182e-11	0.067175	0.067175	0	145312.38	145312.36	-2.4691359e-05	635890.06	257152.58	-0.00012329286	257152.73	635889.94	-4.5049317e-05
0	0.6376328	0.6376326	-1.5376009e-10	0.066821694	0.066821694	0	145254.34	145254.3	-3.0864197e-05	636058.4	256627.48	-0.000113808805	256627.61	636058.25	-0.0001280349
0	0.63737655	0.63737625	-2.6229663e-10	0.06646815	0.06646815	0	145195.94	145195.89	-5.2469135e-05	636226.9	256100.06	-9.484067e-05	256100.22	636226.75	-0.00025132776
0	0.6371205	0.63712037	-1.9898364e-10	0.066114426	0.06611443	0	145137.61	145137.58	-4.0123457e-05	636395.3	255573.17	-0.00013277693	255573.33	636395.25	-0.00016122914
0	0.636862	0.6368618	-1.5376009e-10	0.06576091	0.06576091	0	145078.73	145078.69	-3.7037036e-05	636564.06	255042.58	-9.484067e-05	255042.73	636563.94	-0.00014226101
0	0.6366026	0.6366023	-8.14024e-11	0.06540741	0.06540741	0	145019.61	145019.6	-1.8518518e-05	636732.9	254510.45	-9.484067e-05	254510.6	636732.8	-4.7420333e-05
0	0.63634163	0.63634145	-1.628048e-10	0.06505392	0.06505392	0	144960.19	144960.14	-3.5493827e-05	636901.75	253976.34	-0.00016122914	253976.45	636901.7	-8.8913126e-05
0	0.6360786	0.6360784	-1.8089422e-10	0.0647002	0.0647002	0	144900.3	144900.25	-4.3209875e-05	637070.56	253439.38	-0.00010432473	253439.5	637070.5	-0.00014226101
0	0.635816	0.63581586	-1.5376009e-10	0.06434667	0.06434667	0	144840.47	144840.42	-3.395062e-05	637239.6	252902.66	-8.53566e-05	252902.77	637239.56	-0.00012329286
0	0.6355513	0.6355511	-1.9898364e-10	0.06399316	0.06399316	0	144780.16	144780.11	-4.9382717e-05	637408.9	252362.78	-0.00010432473	252362.89	637408.75	-0.00019323787
0	0.63528496	0.6352848	-2.8038605e-10	0.06363963	0.06363963	0	144719.47	144719.45	-5.5555556e-05	637577.7	251821.06	-0.00015174507	251821.2	637577.6	-0.0002133915
0	0.63501835	0.6350181	-1.5376009e-10	0.063285924	0.063285924	0	144658.75	144658.7	-3.7037036e-05	637747.2	251278.38	-2.8452201e-05	251278.52	637747.1	-0.0001849393
0	0.6347489	0.63474876	-2.0802834e-10	0.06293259	0.062932596	0	144597.39	144597.33	-4.0123457e-05	637916.06	250732.31	-7.587254e-05	250732.44	637915.94	-0.00022287556
0	0.63448006	0.63447994	-2.8943076e-10	0.062579066	0.062579066	0	144536.12	144536.08	-6.790124e-05	638085.75	250186.28	-0.0002560698	250186.4	638085.6	-0.00014700304
0	0.6342081	0.63420784	-1.9898364e-10	0.062225346	0.062225346	0	144474.16	144474.11	-4.3209875e-05	638255.1	249635.97	-0.00013277693	249636.12	638255.06	-0.00016597117
0	0.633936	0.63393575	-1.08536534e-10	0.06187184	0.06187184	0	144412.19	144412.14	-2.7777778e-05	638424.8	249085.36	-0.00010432473	249085.52	638424.8	-5.2162366e-05
0	0.63366175	0.6336616	-1.3567067e-10	0.0615183	0.0615183	0	144349.73	144349.69	-2.4691359e-05	638594.75	248531.72	-7.587254e-05	248531.89	638594.56	-7.824355e-05
0	0.633387	0.6333868	-8.14024e-11	0.061164834	0.061164834	0	144287.11	144287.1	-9.259259e-06	638763.9	247977.8	-9.484067e-05	247977.92	638763.75	-3.3194232e-05
0	0.63311	0.63310975	-1.08536534e-10	0.06081112	0.06081112	0	144224.02	144223.98	-3.0864197e-05	638934.1	247419.69	-7.587254e-05	247419.86	638934.06	-6.757398e-05
0	0.63282967	0.63282955	-1.9898364e-10	0.060457617	0.060457617	0	144160.16	144160.14	-4.3209875e-05	639104.1	246857.33	-0.00018968133	246857.45	639104.06	-0.00010432473
0	0.63255286	0.6325526	-1.9898364e-10	0.060104065	0.060104065	0	144097.1	144097.05	-4.3209875e-05	639273.56	246300.3	-0.00013277693	246300.47	639273.44	-0.00012329286
0	0.6322716	0.6322714	-1.1758124e-10	0.05975055	0.05975055	0	144033.03	144032.98	-3.0864197e-05	639443.7	245736.4	-7.587254e-05	245736.58	639443.56	-0.00010432473
0	0.63198984	0.6319896	-1.1758124e-10	0.059396844	0.059396844	0	143968.84	143968.8	-2.4691359e-05	639613.5	245172.08	-2.8452201e-05	245172.23	639613.4	-0.000109066765
0	0.63170636	0.6317062	-2.0802834e-10	0.059043482	0.059043482	0	143904.28	143904.23	-5.2469135e-05	639783.44	244605.3	-9.484067e-05	244605.44	639783.44	-0.00025132776
0	0.6314214	0.63142115	-2.532519e-10	0.058689967	0.05868997	0	143839.34	143839.3	-4.9382717e-05	639953.5	244036.27	-0.00010432473	244036.4	639953.44	-0.00022287556
0	0.6311345	0.63113433	-1.8089422e-10	0.05833626	0.05833626	0	143773.98	143773.95	-4.7839505e-05	640123.56	243464.55	-0.00018019727	243464.7	640123.44	-0.00010432473
0	0.6308468	0.6308465	-6.331297e-11	0.057982773	0.057982776	0	143708.45	143708.4	-1.697531e-05	640294.06	242891.2	-4.7420333e-05	242891.36	640294	-6.164643e-05
0	0.6305577	0.6305576	-1.8089422e-11	0.05762919	0.057629194	0	143642.61	143642.58	-1.5432099e-06	640464.2	242316.52	-3.793627e-05	242316.69	640464.06	4.7420335e-06
0	0.6302672	0.63026696	-8.14024e-11	0.057275698	0.057275698	0	143576.44	143576.38	-9.259259e-06	640634.25	241739.61	-4.7420333e-05	241739.8	640634.1	-1.8968134e-05
0	0.6299749	0.6299748	-2.2611778e-10	0.056922045	0.056922045	0	143509.84	143509.8	-4.3209875e-05	640804.5	241160.23	-0.00015174507	241160.39	640804.4	-0.00016597117
0	0.6296813	0.629681	-4.5223554e-11	0.05656855	0.05656855	0	143442.94	143442.9	-6.1728397e-06	640974.6	240578.94	-4.7420333e-05	240579.06	640974.56	-3.3194232e-05
0	0.62938684	0.6293866	-1.5376009e-10	0.05621496	0.05621495	0	143375.88	143375.83	-2.4691359e-05	641144.9	239996.58	-0.00013277693	239996.73	641144.75	-7.587254e-05
0	0.62908924	0.62908906	-7.235769e-11	0.055861466	0.055861462	0	143308.1	143308.03	-1.5432099e-05	641315.44	239409.39	-8.53566e-05	239409.61	641315.25	-3.793627e-05
0	0.62879145	0.6287913	-1.718495e-10	0.055507764	0.05550777	0	143240.25	143240.19	-4.0123457e-05	641485.56	238822.3	-0.00010432473	238822.44	641485.44	-0.0001564871
0	0.62849206	0.62849194	-2.7134134e-10	0.055154365	0.055154365	0	143172.06	143171.98	-5.8641974e-05	641656.4	238232.36	-0.0001991654	238232.53	641656.25	-0.00014700304
0	0.6281912	0.62819093	-7.235769e-11	0.05480088	0.05480088	0	143103.5	143103.44	-2.3148148e-05	641826.5	237640.97	-4.7420333e-05	237641.19	641826.44	-9.0098634e-05
0	0.6278888	0.6278885	-1.4471538e-10	0.05444718	0.05444719	0	143034.58	143034.53	-3.0864197e-05	641997	237047	-8.53566e-05	237047.19	641996.9	-7.587254e-05
0	0.6275844	0.62758416	-2.2611778e-10	0.054093715	0.054093715	0	142965.3	142965.23	-5.2469135e-05	642167.1	236450.97	-0.0001707132	236451.12	642167	-0.00014700304
0	0.62727946	0.6272792	-1.3567067e-10	0.053740077	0.053740077	0	142895.81	142895.77	-3.0864197e-05	642337.75	235853.34	-0.00010432473	235853.48	642337.6	-6.6388464e-05
0	0.62697196	0.6269717	-9.044711e-12	0.053386603	0.053386603	0	142825.75	142825.72	-9.259259e-06	642508.25	235252.27	3.793627e-05	235252.42	642508.1	-5.4533382e-05
0	0.6266633	0.62666315	-1.1758124e-10	0.05303296	0.05303296	0	142755.47	142755.4	-3.395062e-05	642678.4	234650.19	-8.53566e-05	234650.36	642678.2	-0.00012092185
0	0.6263532	0.626353	-2.7134133e-11	0.052679494	0.052679494	0	142684.81	142684.75	-1.2345679e-05	642849.1	234045.17	-4.7420333e-05	234045.34	642849	1.8968134e-05
0	0.6260412	0.62604094	-1.2662595e-10	0.05232584	0.052325834	0	142613.72	142613.69	-2.3148148e-05	643019.56	233437.89	-9.484067e-05	233438.05	643019.44	-0.00010669575
0	0.6257279	0.6257278	-2.1707307e-10	0.051972378	0.051972378	0	142542.38	142542.31	-5.2469135e-05	643189.8	232829.12	-0.00021813353	232829.31	643189.6	-8.53566e-05
0	0.62541157	0.6254113	-2.532519e-10	0.051618688	0.051618695	0	142470.28	142470.25	-6.1728395e-05	643360.3	232215.72	-0.00015174507	232215.92	643360.1	-0.00024658573
0	0.6250966	0.6250965	-2.4420718e-10	0.051265243	0.051265243	0	142398.56	142398.52	-5.5555556e-05	643530.7	231604.47	-0.00014226101	231604.62	643530.56	-0.00019442337
0	0.62477815	0.62477785	-1.628048e-10	0.050911777	0.050911777	0	142326	142325.95	-4.4753087e-05	643701.25	230988.02	-0.00015174507	230988.22	643701.06	-0.00011855084
0	0.6244574	0.6244571	-1.08536534e-10	0.050558098	0.050558098	0	142252.94	142252.89	-2.1604938e-05	643871.7	230368.45	-8.53566e-05	230368.66	643871.5	-7.1130504e-05
0	0.6241371	0.62413687	-9.044711e-11	0.050204653	0.050204657	0	142179.95	142179.9	-1.8518518e-05	644042.06	229749.69	9.484067e-06	229749.9	644041.9	-0.000113808805
0	0.62381345	0.62381315	-1.4471538e-10	0.04985097	0.049850967	0	142106.23	142106.17	-3.858025e-05	644211.5	229127.06	-9.484067e-05	229127.27	644211.3	-0.00014226101
0	0.6234895	0.6234893	-1.718495e-10	0.049497515	0.049497515	0	142032.45	142032.4	-3.2407406e-05	644382.56	228502.62	-9.484067e-05	228502.8	644382.44	-0.00012329286
0	0.6231615	0.6231612	-2.2611778e-10	0.049143884	0.049143884	0	141957.73	141957.66	-5.2469135e-05	644552.4	227873.55	-0.00014226101	227873.73	644552.2	-0.00020390743
0	0.6228351	0.6228348	-2.1707307e-10	0.048790433	0.048790433	0	141883.38	141883.31	-4.9382717e-05	644723	227246	-0.00014226101	227246.17	644722.8	-0.0001707132
0	0.62250596	0.62250566	-2.532519e-10	0.04843674	0.048436742	0	141808.39	141808.34	-6.0185186e-05	644892.56	226615.53	-0.00018019727	226615.72	644892.44	-0.0001849393
0	0.62217456	0.6221743	-2.1707307e-10	0.048083298	0.048083298	0	141732.9	141732.84	-5.0925926e-05	645062.9	225981.31	-0.00018968133	225981.5	645062.75	-0.00015885812
0	0.6218397	0.62183946	-3.1656489e-10	0.047729615	0.047729615	0	141656.62	141656.58	-7.407407e-05	645233.06	225342.4	-0.00020864946	225342.6	645232.9	-0.00022761761
0	0.6215063	0.621506	-2.3516247e-10	0.047376156	0.047376156	0	141580.64	141580.6	-4.9382717e-05	645402.56	224705.92	-0.00022761761	224706.14	645402.44	-0.00011855084
0	0.62117034	0.62117016	-1.4471538e-10	0.04702269	0.047022693	0	141504.12	141504.08	-3.0864197e-05	645573.1	224065.3	-9.484067e-05	224065.52	645572.9	-0.00011855084
0	0.62083197	0.62083167	-8.14024e-11	0.04666901	0.04666901	0	141427.05	141426.98	-2.4691359e-05	645742.6	223421.94	-5.6904402e-05	223422.11	645742.44	-7.1130504e-05
0	0.62049264	0.6204924	-2.8943076e-10	0.046315566	0.046315566	0	141349.75	141349.69	-6.9444446e-05	645912.25	222777.2	-0.0001991654	222777.39	645912.1	-0.00023710167
0	0.62015074	0.6201505	-2.3516247e-10	0.045961883	0.045961883	0	141271.9	141271.83	-4.9382717e-05	646082.44	222128.48	-0.0001707132	222128.72	646082.25	-0.00015174507
0	0.61980724	0.61980695	-9.949182e-11	0.045608424	0.045608424	0	141193.62	141193.56	-2.1604938e-05	646252.25	221477.7	-8.53566e-05	221477.89	646252.06	-7.1130504e-05
0	0.61946225	0.6194621	-9.949182e-11	0.04525481	0.04525481	0	141115.03	141114.97	-2.1604938e-05	646421.7	220825.3	-8.53566e-05	220825.48	646421.5	-5.6904402e-05
0	0.6191158	0.61911553	-1.08536534e-10	0.044901337	0.044901337	0	141036.11	141036.05	-3.0864197e-05	646590.9	220171.11	-0.00010432473	220171.33	646590.56	-4.1492793e-05
0	0.61876655	0.6187663	-1.2662595e-10	0.04454767	0.04454767	0	140956.55	140956.48	-2.6234567e-05	646760.06	219512.94	-0.00012329286	219513.12	646759.8	-5.3347874e-05
0	0.6184161	0.61841583	-4.5223554e-11	0.04419421	0.04419421	0	140876.72	140876.66	-9.259259e-06	646929.75	218852.61	-6.164643e-05	218852.83	646929.6	9.484067e-06
0	0.618064	0.6180637	-1.4471538e-10	0.043840546	0.043840542	0	140796.5	140796.42	-3.395062e-05	647099.06	218190.28	-7.587254e-05	218190.47	647098.9	-0.00010432473
0	0.61770964	0.61770934	-1.628048e-10	0.04348707	0.04348707	0	140715.78	140715.72	-4.3209875e-05	647268.25	217525	-0.00012329286	217525.2	647268.06	-9.484067e-05
0	0.6173539	0.6173537	-1.4471538e-10	0.043133598	0.043133598	0	140634.75	140634.69	-3.0864197e-05	647437	216858.28	-0.00010432473	216858.5	647436.8	-8.061457e-05
0	0.61699563	0.6169954	-1.3567067e-10	0.04277993	0.042779934	0	140553.12	140553.06	-3.395062e-05	647606.25	216187.47	-0.000113808805	216187.69	647606.06	-0.00012092185
0	0.616636	0.61663574	-2.2611778e-10	0.042426456	0.042426456	0	140471.2	140471.12	-5.2469135e-05	647775.1	215515.06	-0.00016122914	215515.3	647774.94	-0.00015885812
0	0.61627495	0.6162747	-1.8089422e-10	0.042072803	0.042072803	0	140388.95	140388.89	-3.7037036e-05	647943.44	214841.27	-0.0001280349	214841.47	647943.25	-9.95827e-05
0	0.61591154	0.6159112	-2.6229663e-10	0.04171932	0.04171932	0	140306.16	140306.08	-5.5555556e-05	648112.4	214163.48	-0.00020864946	214163.69	648112.2	-0.00013751897
0	0.6155458	0.6155455	-1.8993893e-10	0.04136573	0.04136573	0	140222.86	140222.8	-3.7037036e-05	648280.6	213483.31	-0.00010432473	213483.55	648280.44	-0.00013514796
0	0.61517763	0.6151773	-7.235769e-11	0.04101225	0.04101225	0	140138.98	140138.92	-1.5432099e-05	648448.56	212799.9	1.8968134e-05	212800.14	648448.4	-0.00013751897
0	0.61481005	0.61480975	-6.331297e-11	0.040658593	0.040658593	0	140055.25	140055.19	-9.259259e-06	648617.2	212116.7	-5.6904402e-05	212116.92	648617	-2.8452201e-05
0	0.61443865	0.61443835	-1.08536534e-10	0.040305126	0.040305126	0	139970.64	139970.58	-2.7777778e-05	648785.44	211428.45	-5.6904402e-05	211428.67	648785.3	-9.246965e-05
0	0.6140663	0.614066	-2.532519e-10	0.03995147	0.03995147	0	139885.83	139885.75	-5.5555556e-05	648953.06	210739.56	-0.00015174507	210739.8	648952.9	-0.00020390743
0	0.6136909	0.6136906	-8.14024e-11	0.03959798	0.039597984	0	139800.31	139800.23	-1.5432099e-05	649121.1	210045.92	-4.7420333e-05	210046.16	649121	-4.7420333e-05
0	0.61331433	0.61331403	-1.08536534e-10	0.0392445	0.0392445	0	139714.52	139714.45	-2.7777778e-05	649288.56	209351.28	-8.53566e-05	209351.5	649288.4	-5.808991e-05
0	0.6129334	0.6129331	-9.044711e-12	0.038890846	0.038890846	0	139627.75	139627.67	-3.0864198e-06	649456.7	208649.84	-9.484067e-06	208650.08	649456.44	-1.8968134e-05
0	0.61255455	0.6125542	-1.5376009e-10	0.03853735	0.038537353	0	139541.44	139541.36	-2.7777778e-05	649623.5	207952.61	-8.53566e-05	207952.83	649623.4	-0.00012092185
0	0.6121717	0.6121714	-1.08536534e-10	0.038183723	0.038183723	0	139454.22	139454.14	-2.4691359e-05	649790.06	207250.11	-4.7420333e-05	207250.31	649789.9	-9.95827e-05
0	0.611787	0.6117867	-9.044711e-11	0.037830234	0.037830234	0	139366.61	139366.52	-1.8518518e-05	649957.44	206544.14	-6.6388464e-05	206544.38	649957.25	-5.2162366e-05
0	0.6114001	0.6113998	-1.8993893e-10	0.03747658	0.037476584	0	139278.45	139278.39	-4.4753087e-05	650123.8	205836.12	-0.0001991654	205836.33	650123.56	-9.721168e-05
0	0.61101025	0.61100996	-1.4471538e-10	0.037123166	0.037123166	0	139189.66	139189.58	-3.0864197e-05	650290.5	205123.62	-6.6388464e-05	205123.89	650290.25	-0.00013277693
0	0.6106202	0.61061996	-9.044711e-11	0.036769524	0.036769528	0	139100.8	139100.73	-2.1604938e-05	650457.1	204410.98	-4.7420333e-05	204411.22	650456.94	-7.587254e-05
0	0.61022586	0.61022556	-8.14024e-11	0.03641604	0.036416043	0	139010.95	139010.88	-1.5432099e-05	650623.5	203692.48	-0.000113808805	203692.73	650623.3	-2.3710167e-05
0	0.60983247	0.6098321	-8.14024e-11	0.0360624	0.0360624	0	138921.36	138921.28	-1.5432099e-05	650789	202976.22	-3.793627e-05	202976.47	650788.75	-4.7420333e-05
0	0.60943574	0.60943544	-1.718495e-10	0.0357089	0.0357089	0	138830.97	138830.9	-3.395062e-05	650955.2	202254.67	-0.00016122914	202254.89	650955	-8.53566e-05
0	0.60903525	0.6090349	-9.044711e-11	0.0353554	0.035355397	0	138739.73	138739.66	-2.7777778e-05	651120.75	201528.4	-8.53566e-05	201528.66	651120.56	-6.6388464e-05
0	0.6086346	0.60863423	-1.3567067e-10	0.03500176	0.03500176	0	138648.45	138648.39	-2.4691359e-05	651286.25	200801.88	-0.000113808805	200802.14	651286	-5.4533382e-05
0	0.60823166	0.60823137	-1.3567067e-10	0.03464826	0.03464826	0	138556.69	138556.61	-2.7777778e-05	651451.56	200072.58	-7.587254e-05	200072.84	651451.25	-0.00010432473
0	0.60782576	0.60782546	-1.8089422e-11	0.034294635	0.03429464	0	138464.2	138464.12	-3.0864198e-06	651616.5	199339.28	-3.793627e-05	199339.52	651616.3	-1.0669575e-05
0	0.6074182	0.6074178	-1.628048e-10	0.03394113	0.03394113	0	138371.36	138371.28	-3.395062e-05	651781	198604.16	-0.00014226101	198604.4	651780.8	-0.00010432473
0	0.6070082	0.60700786	-9.949182e-11	0.0335875	0.0335875	0	138277.97	138277.9	-1.5432099e-05	651945.5	197865.73	9.484067e-06	197866	651945.4	-9.95827e-05
0	0.6065966	0.60659623	-1.1758124e-10	0.03323408	0.033234075	0	138184.22	138184.12	-2.4691359e-05	652109.9	197125.06	-5.6904402e-05	197125.33	652109.7	-9.0098634e-05
0	0.60618216	0.60618174	-2.0802834e-10	0.03288045	0.032880455	0	138089.78	138089.72	-4.3209875e-05	652274	196380.69	-0.00018968133	196380.94	652273.9	-0.00010432473
0	0.60576516	0.60576487	-1.4471538e-10	0.03252696	0.03252696	0	137994.8	137994.73	-3.7037036e-05	652437.8	195633.25	-0.00012329286	195633.53	652437.56	-0.00012329286
0	0.6053472	0.6053468	-1.628048e-10	0.032173336	0.032173336	0	137899.6	137899.5	-3.395062e-05	652601	194884.84	-0.00016597117	194885.1	652600.7	-3.3194232e-05
0	0.6049261	0.60492575	-6.331297e-11	0.031819817	0.031819817	0	137803.66	137803.58	-1.5432099e-05	652764.56	194131.75	-4.7420333e-05	194132.03	652764.25	-3.793627e-05
0	0.60450083	0.6045005	-1.5376009e-10	0.031466294	0.031466294	0	137706.78	137706.7	-3.7037036e-05	652927.94	193372.94	-0.000113808805	193373.19	652927.75	-9.95827e-05
0	0.60407746	0.6040771	-2.8038605e-10	0.031112673	0.031112673	0	137610.33	137610.25	-6.790124e-05	653090.1	192618.05	-0.00018968133	192618.3	653089.94	-0.00021102048
0	0.60364974	0.6036494	-1.8089422e-11	0.03075915	0.03075915	0	137512.89	137512.81	-9.259259e-06	653252.3	191856.97	-4.7420333e-05	191857.23	653252.2	-7.1130503e-06
0	0.6032176	0.60321724	-1.628048e-10	0.03040556	0.03040556	0	137414.47	137414.38	-3.395062e-05	653415.2	191089.28	-0.00014226101	191089.53	653414.9	-0.000113808805
0	0.6027879	0.60278755	-1.628048e-10	0.030052032	0.030052032	0	137316.58	137316.48	-2.7777778e-05	653576.25	190326.6	-6.6388464e-05	190326.89	653575.94	-0.00012210736
0	0.60235155	0.6023512	-2.9847547e-10	0.029698422	0.029698422	0	137217.17	137217.1	-7.407407e-05	653737.6	189554.33	-0.00024658573	189554.58	653737.4	-0.00019323787
0	0.60191596	0.60191554	-2.3516247e-10	0.029344985	0.029344983	0	137117.95	137117.86	-4.9382717e-05	653898.9	188783.11	-0.00015174507	188783.38	653898.7	-0.00016122914
0	0.6014766	0.6014762	-1.4471538e-10	0.028991388	0.028991388	0	137017.88	137017.78	-2.9320987e-05	654060.06	188006.89	-0.00015174507	188007.17	654059.9	-5.2162366e-05
0	0.601035	0.60103464	-3.6178845e-11	0.028637849	0.028637849	0	136917.25	136917.16	-1.2345679e-05	654220.4	187228.31	-5.6904402e-05	187228.58	654220.06	0
0	0.60059005	0.6005896	-1.5376009e-10	0.028284276	0.028284276	0	136815.89	136815.8	-3.395062e-05	654380.4	186445.38	-0.00010432473	186445.67	654380.06	-0.00010432473
0	0.6001441	0.6001436	-2.7134134e-10	0.027930731	0.027930733	0	136714.3	136714.2	-6.1728395e-05	654540.9	185660.52	-0.00022761761	185660.81	654540.56	-0.00015885812
0	0.5996954	0.5996949	-2.1707307e-10	0.027577182	0.027577182	0	136612.1	136611.98	-4.7839505e-05	654700.4	184872.9	-0.00015174507	184873.22	654700.06	-0.00013277693
0	0.5992443	0.5992439	-2.1707307e-10	0.02722359	0.027223594	0	136509.33	136509.23	-4.3209875e-05	654859.44	184082.38	-0.0001707132	184082.67	654859.06	-0.000113808805
0	0.59879076	0.59879035	-2.0802834e-10	0.026870038	0.026870038	0	136406.02	136405.92	-4.9382717e-05	655018.3	183288.42	-0.00022287556	183288.73	655018.06	-9.6026175e-05
0	0.5983335	0.598333	-1.628048e-10	0.02651648	0.02651648	0	136301.83	136301.73	-3.858025e-05	655177.06	182489.5	-0.000113808805	182489.8	655176.75	-9.95827e-05
0	0.59787595	0.5978755	-2.2611778e-10	0.026162917	0.026162917	0	136197.61	136197.53	-5.2469135e-05	655335.06	181690.97	-0.00020864946	181691.28	655334.75	-0.00014700304
0	0.59741366	0.5974133	-1.628048e-10	0.025809348	0.025809344	0	136092.31	136092.22	-3.858025e-05	655492.4	180886.52	-0.00013277693	180886.8	655492.06	-8.53566e-05
0	0.5969501	0.5969497	-1.3567067e-10	0.025455888	0.025455888	0	135986.7	135986.61	-2.6234567e-05	655650.3	180079.56	-0.00016122914	180079.89	655649.94	-4.7420333e-05
0	0.5964841	0.59648365	-1.718495e-10	0.025102329	0.025102329	0	135880.55	135880.45	-3.395062e-05	655807.4	179270.12	-0.000113808805	179270.42	655807.06	-0.000109066765
0	0.59601563	0.5960152	-9.044711e-11	0.024748757	0.024748757	0	135773.84	135773.73	-2.1604938e-05	655963.94	178457.72	-0.00013751897	178458.03	655963.6	2.133915e-05
0	0.5955432	0.59554285	6.331297e-11	0.024395216	0.024395216	0	135666.22	135666.12	1.5432099e-05	656119.56	177640.75	1.8968134e-05	177641.06	656119.25	7.587254e-05
0	0.59507024	0.5950698	-2.0802834e-10	0.024041649	0.024041649	0	135558.45	135558.38	-4.6296296e-05	656275.25	176822.73	-0.00013277693	176823.05	656275	-0.00015174507
0	0.5945945	0.594594	-1.2662595e-10	0.023688078	0.023688078	0	135450.1	135449.98	-2.6234567e-05	656431.2	176000.78	-4.7420333e-05	176001.1	656430.94	-0.00015174507
0	0.5941154	0.5941149	-9.044711e-11	0.023334505	0.023334505	0	135340.94	135340.86	-1.2345679e-05	656585.56	175175.66	-5.6904402e-05	175175.98	656585.25	-6.164643e-05
0	0.59363246	0.59363204	-1.718495e-10	0.022980941	0.022980941	0	135230.94	135230.84	-4.1666666e-05	656740.9	174344.36	-0.00012329286	174344.66	656740.44	-0.00013751897
0	0.5931498	0.59314936	-1.4471538e-10	0.022627406	0.022627404	0	135120.98	135120.88	-3.2407406e-05	656894.2	173515.17	-7.587254e-05	173515.52	656893.9	-0.00013277693
0	0.5926624	0.5926619	-1.2662595e-10	0.022273833	0.022273833	0	135009.95	135009.84	-2.4691359e-05	657048.06	172678.94	-0.00010432473	172679.28	657047.75	-9.95827e-05
0	0.59217346	0.59217304	-1.4471538e-10	0.021920273	0.021920273	0	134898.6	134898.47	-3.0864197e-05	657200.7	171841.78	-0.00018019727	171842.16	657200.4	-2.3710167e-05
0	0.59168065	0.59168017	-1.4471538e-10	0.021566799	0.021566799	0	134786.33	134786.22	-2.6234567e-05	657353.75	170998.89	-0.00010432473	170999.23	657353.4	-0.000109066765
0	0.59118533	0.5911849	-1.718495e-10	0.021213228	0.021213228	0	134673.47	134673.38	-3.5493827e-05	657506.06	170153.16	-0.00013277693	170153.5	657505.75	-0.000113808805
0	0.5906876	0.59068704	-1.1758124e-10	0.02085966	0.02085966	0	134560.08	134559.95	-2.4691359e-05	657657.8	169304.36	-8.53566e-05	169304.72	657657.5	-7.1130504e-05
0	0.59018713	0.59018654	-1.1305889e-10	0.020506123	0.020506125	0	134446.06	134445.95	-2.9320987e-05	657808.75	168452.7	-2.8452201e-05	168453.03	657808.5	-0.00012092185
0	0.58968335	0.5896828	-2.3516247e-10	0.020152563	0.020152563	0	134331.31	134331.19	-4.4753087e-05	657959.9	167596.42	-0.00016122914	167596.77	657959.44	-0.00016122914
0	0.5891777	0.5891772	-2.3516247e-10	0.019798992	0.01979899	0	134216.14	134216.02	-5.4012347e-05	658109.9	166738.52	-0.00018968133	166738.86	658109.56	-0.00014700304
0	0.58866817	0.58866763	-1.8089422e-10	0.019445423	0.019445423	0	134100.06	134099.94	-4.6296296e-05	658259.6	165875.4	-0.000113808805	165875.78	658259.3	-0.00014463202
0	0.5881568	0.58815634	-1.628048e-10	0.019091861	0.019091861	0	133983.6	133983.47	-3.7037036e-05	658408.6	165010.7	-0.00016122914	165011.08	658408.25	-9.0098634e-05
0	0.5876414	0.58764094	-9.044711e-11	0.01873829	0.01873829	0	133866.16	133866.05	-2.1604938e-05	658557.56	164140.03	-0.00014226101	164140.4	658557.25	-4.7420335e-06
0	0.5871252	0.58712465	-1.718495e-10	0.018384762	0.018384762	0	133748.58	133748.45	-4.0123457e-05	658705.2	163269.7	-0.00016122914	163270.08	658704.9	-9.484067e-05
0	0.5866042	0.58660364	9.044711e-12	0.0180312	0.0180312	0	133629.89	133629.77	-3.0864198e-06	658852.7	162392.78	-2.8452201e-05	162393.17	658852.3	2.3710167e-05
0	0.58608115	0.5860806	-1.4471538e-10	0.0176777	0.0176777	0	133510.72	133510.61	-2.7777778e-05	658999.7	161513.48	-0.00010432473	161513.88	658999.3	-8.53566e-05
0	0.5855544	0.5855538	-1.8089422e-11	0.01732413	0.01732413	0	133390.73	133390.61	6.1728397e-06	659146.5	160629.42	-9.484067e-06	160629.8	659146	4.7420333e-05
0	0.5850256	0.58502513	-1.8993893e-10	0.016970566	0.016970566	0	133270.27	133270.16	-4.3209875e-05	659292.25	159743.28	-0.00010432473	159743.67	659291.8	-0.0001707132
0	0.58449304	0.5844925	-7.235769e-11	0.016617037	0.016617037	0	133148.95	133148.83	-1.2345679e-05	659437.5	158852.27	-0.00010432473	158852.64	659437.2	-1.4226101e-05
0	0.5839585	0.58395797	-1.8993893e-10	0.01626348	0.01626348	0	133027.19	133027.08	-4.0123457e-05	659582	157959.5	-0.00016597117	157959.92	659581.7	-6.5202956e-05
0	0.583421	0.5834204	-2.3516247e-10	0.015909908	0.015909908	0	132904.75	132904.62	-4.3209875e-05	659725.75	157063.25	-0.00024658573	157063.66	659725.4	-5.3347874e-05
0	0.58287936	0.5828788	-9.044711e-11	0.015556336	0.015556336	0	132781.38	132781.25	-2.3148148e-05	659869.44	156161.4	-9.484067e-05	156161.81	659869	-1.8968134e-05
0	0.5823338	0.5823332	-1.5376009e-10	0.015202781	0.01520278	0	132657.06	132656.95	-3.5493827e-05	660012.6	155254.36	-7.587254e-05	155254.77	660012.1	-0.00016597117
0	0.5817859	0.5817853	-1.8993893e-10	0.014849211	0.014849211	0	132532.28	132532.14	-4.1666666e-05	660154.1	154345.77	-0.00019442337	154346.17	660153.6	-9.95827e-05
0	0.58123773	0.58123714	-2.532519e-10	0.014495694	0.014495694	0	132407.39	132407.27	-4.9382717e-05	660295.7	153436.66	-0.00023710167	153437.1	660295.4	-0.000109066765
0	0.5806838	0.5806832	-8.14024e-11	0.014142138	0.014142138	0	132281.2	132281.06	-1.3888889e-05	660436.8	152520.11	-0.000113808805	152520.53	660436.3	1.6597116e-05
0	0.5801256	0.580125	-6.331297e-11	0.013788591	0.013788591	0	132154.03	132153.9	-2.0061729e-05	660577.56	151597.77	-0.00013277693	151598.2	660577.1	2.3710167e-05
0	0.5795673	0.5795667	-2.0802834e-10	0.013435019	0.013435019	0	132026.86	132026.72	-5.4012347e-05	660716.6	150677.16	-0.00024658573	150677.6	660716.2	-9.95827e-05
0	0.57900506	0.5790045	-1.718495e-10	0.013081458	0.013081458	0	131898.78	131898.67	-4.0123457e-05	660854.9	149751.9	-0.00015174507	149752.34	660854.4	-0.00010432473
0	0.57843864	0.5784381	-1.628048e-10	0.012727944	0.012727944	0	131769.77	131769.62	-3.7037036e-05	660993.06	148820.64	-0.00014226101	148821.08	660992.6	-9.721168e-05
0	0.5778687	0.5778681	-2.4420718e-10	0.012374379	0.012374379	0	131639.92	131639.78	-5.8641974e-05	661130.5	147885.25	-0.0001991654	147885.69	661130.06	-0.0001564871
0	0.577296	0.5772954	-1.2662595e-10	0.0120208245	0.012020824	0	131509.45	131509.31	-2.6234567e-05	661267.44	146946.55	-0.000113808805	146946.98	661266.94	-6.5202956e-05
0	0.5767204	0.5767198	-1.2662595e-10	0.0116672525	0.0116672525	0	131378.36	131378.19	-2.7777778e-05	661402.94	146005.28	-0.00010432473	146005.72	661402.44	-9.0098634e-05
0	0.5761395	0.5761389	-2.0802834e-10	0.011313703	0.011313703	0	131246	131245.86	-4.7839505e-05	661538	145056.86	-0.00022761761	145057.33	661537.6	-9.0098634e-05
0	0.57555646	0.57555574	-5.4268267e-11	0.010960137	0.010960137	0	131113.17	131113.02	-1.0802469e-05	661672.6	144105.92	-6.6388464e-05	144106.38	661672.1	-2.3710167e-05
0	0.5749731	0.57497245	-1.3567067e-10	0.010606614	0.010606614	0	130980.3	130980.14	-3.0864197e-05	661806.25	143155.64	-0.00012329286	143156.11	661805.75	-5.2162366e-05
0	0.5743827	0.574382	-2.7134134e-10	0.0102530625	0.010253062	0	130845.78	130845.65	-6.1728395e-05	661938.6	142196.62	-0.00018968133	142197.08	661938.1	-0.00018968133
0	0.5737916	0.5737909	-9.949182e-11	0.009899495	0.009899496	0	130711.15	130710.984	-2.9320987e-05	662071.3	141236.38	-6.6388464e-05	141236.84	662070.94	-9.0098634e-05
0	0.5731946	0.57319397	-1.8089422e-10	0.009545931	0.009545931	0	130575.16	130574.99	-4.9382717e-05	662203.06	140268.9	-0.00020390743	140269.38	662202.6	-6.6388464e-05
0	0.572594	0.57259333	-1.4471538e-10	0.009192381	0.009192381	0	130438.336	130438.18	-3.0864197e-05	662333.94	139297.25	-1.8968134e-05	139297.72	662333.44	-0.00015174507
0	0.57199275	0.57199204	-1.8993893e-10	0.00883885	0.008838849	0	130301.34	130301.2	-3.858025e-05	662463.06	138326.3	-0.00013751897	138326.8	662462.56	-0.00010432473
0	0.5713858	0.57138515	-9.949182e-11	0.008485283	0.008485283	0	130163.1	130162.95	-2.7777778e-05	662591.7	137348.05	-0.00010432473	137348.53	662591.25	-4.26783e-05
0	0.5707757	0.570775	-7.235769e-11	0.00813174	0.00813174	0	130024.11	130023.95	-1.5432099e-05	662719.56	136365.88	-9.484067e-05	136366.39	662719.1	-2.8452201e-05
0	0.570162	0.57016134	-1.4471538e-10	0.007778168	0.007778168	0	129884.31	129884.15	-3.5493827e-05	662846.6	135379.69	-0.00016122914	135380.19	662846.1	-3.3194232e-05
0	0.56954587	0.5695451	-2.532519e-10	0.0074246055	0.0074246055	0	129743.945	129743.78	-5.8641974e-05	662973	134390.55	-0.00024658573	134391.06	662972.56	-0.00011143778