# t (s)	mx ()	my ()	mz ()	B_extx (T)	B_exty (T)	B_extz (T)	m_fullx (A/m)	m_fully (A/m)	m_fullz (A/m)	m_full.region1x (A/m)	m_full.region1y (A/m)	m_full.region1z (A/m)	m_full.region2x (A/m)	m_full.region2y (A/m)	m_full.region2z (A/m)
0	0.64704	0.6470378	-5.0562e-10	0.07071097	0.07071097	0	50644.78	50644.61	-4.6747737e-05	640149.1	265705.12	-0.00045565434	265706.78	640147.8	-0.0003804973
0	0.64693767	0.64693695	-1.4348296e-10	0.070569366	0.070569366	0	50636.77	50636.715	-1.5036526e-05	640239	265473.34	-0.00017203072	265473.7	640238.4	-9.6919546e-05
0	0.6468319	0.6468314	-1.485327e-10	0.07042761	0.07042761	0	50628.492	50628.46	-1.5335605e-05	640334.8	265229.72	-0.00018687196	265229.97	640334.25	-8.742778e-05
0	0.64672714	0.6467266	-2.4521302e-10	0.07028633	0.07028633	0	50620.29	50620.258	-1.50735195e-05	640430.2	264987.56	-0.000118130156	264987.78	640429.75	-0.0001514818
0	0.6466205	0.64661986	-2.7286723e-10	0.07014479	0.07014479	0	50611.945	50611.902	-2.2689157e-05	640527	264741.47	-0.00018096485	264741.7	640526.44	-0.0002248639
0	0.646516	0.6465155	-5.066998e-10	0.07000352	0.07000352	0	50603.766	50603.73	-4.5001747e-05	640620.7	264501.56	-0.00035366544	264501.72	640620.2	-0.0004512566
0	0.64640903	0.6464085	-2.8536187e-10	0.06986232	0.06986232	0	50595.395	50595.35	-2.891206e-05	640716.9	264255.5	-0.0002356394	264255.75	640716.4	-0.0002814951
0	0.64630306	0.6463025	-1.3018342e-10	0.0697207	0.0697207	0	50587.094	50587.055	-5.3471595e-06	640812.5	264011.53	-3.6939993e-05	264011.75	640811.94	-5.870178e-05
0	0.6461951	0.6461946	-2.1629912e-10	0.06957944	0.06957944	0	50578.65	50578.605	-1.9872043e-05	640909.94	263762.97	-0.00022623861	263763.16	640909.4	-0.00012920194
0	0.6460881	0.6460876	-5.078657e-10	0.0694377	0.0694377	0	50570.273	50570.234	-4.2866028e-05	641005.94	263517.2	-0.0003938489	263517.4	641005.44	-0.00037287272
0	0.6459822	0.6459817	-2.5454636e-10	0.069296405	0.069296405	0	50561.99	50561.945	-1.977663e-05	641100.2	263274.72	-0.00019157048	263274.88	641099.7	-0.00016216347
0	0.645875	0.64587456	-3.5028064e-10	0.06915487	0.06915487	0	50553.594	50553.55	-1.8640587e-05	641196.2	263028.66	-0.00025151635	263028.8	641195.6	-8.189782e-05
0	0.64576685	0.6457663	-4.725931e-10	0.0690136	0.0690136	0	50545.133	50545.086	-3.3472035e-05	641292.3	262781.06	-0.00035706273	262781.25	641291.8	-0.0002416336
0	0.6456578	0.6456572	-1.8308667e-10	0.06887232	0.06887232	0	50536.59	50536.55	-1.0018781e-05	641390.3	262530.25	-8.752242e-05	262530.5	641389.8	-9.1678136e-05
0	0.64555085	0.64555043	-3.738221e-10	0.06873079	0.06873079	0	50528.227	50528.188	-2.5146237e-05	641484.8	262286.25	-0.00026529402	262286.47	641484.3	-0.0001844832
0	0.645442	0.6454415	-4.8142257e-10	0.0685895	0.0685895	0	50519.71	50519.664	-3.0842675e-05	641581.7	262036.95	-0.00028021258	262037.19	641581.1	-0.0002714538
0	0.6453337	0.6453332	-1.9795916e-10	0.068447776	0.068447776	0	50511.227	50511.188	-1.9021074e-05	641677.75	261789.17	-0.00023074186	261789.4	641677.3	-0.000109477856
0	0.64522487	0.64522433	-4.8542337e-10	0.0683065	0.0683065	0	50502.71	50502.668	-3.3409055e-05	641773.75	261540.95	-0.00040774554	261541.17	641773.25	-0.00018982429
0	0.64511454	0.645114	-1.6511616e-10	0.06816496	0.06816496	0	50494.07	50494.03	-1.4904848e-05	641871.2	261288.92	-0.00015973998	261289.14	641870.56	-0.00010685504
0	0.645006	0.6450055	-1.6847759e-10	0.068023674	0.068023674	0	50485.58	50485.535	-7.524909e-06	641967.4	261040.8	-9.817489e-05	261041.08	641966.9	-3.6419115e-05
0	0.6448954	0.6448949	-4.158972e-10	0.067882404	0.067882404	0	50476.918	50476.875	-3.2440268e-05	642064.56	260788.88	-0.00026178645	260789.1	642063.94	-0.0003184552
0	0.6447862	0.6447855	-4.495058e-10	0.067740865	0.067740865	0	50468.367	50468.324	-4.0119678e-05	642161.06	260539.22	-0.0003876153	260539.47	642160.5	-0.0003299838
0	0.64467525	0.6446748	-3.1940822e-10	0.06759956	0.06759956	0	50459.688	50459.645	-2.6966733e-05	642258.6	260286.52	-0.00027687429	260286.75	642258.1	-0.00020546517
0	0.64456475	0.6445642	-2.5408156e-10	0.06745787	0.06745787	0	50451.043	50450.992	-1.8197312e-05	642355.25	260035.12	-0.00020696674	260035.38	642354.7	-0.000118518816
0	0.64445263	0.6444521	-2.510096e-10	0.067316584	0.067316584	0	50442.26	50442.22	-2.1390319e-05	642454.25	259779.22	-0.00018730338	259779.4	642453.75	-0.00019529376
0	0.64434296	0.64434236	-2.9905992e-10	0.067174956	0.067174956	0	50433.684	50433.64	-1.850674e-05	642549.44	259530.53	-0.0001623322	259530.77	642548.9	-0.00016868791
0	0.64423114	0.6442306	-3.3784633e-10	0.06703376	0.06703376	0	50424.93	50424.887	-2.5472395e-05	642647.25	259276.16	-0.00021546666	259276.4	642646.7	-0.00024014435
0	0.64412004	0.6441194	-6.03933e-11	0.06689248	0.06689248	0	50416.23	50416.184	-3.959576e-06	642744	259023.77	-0.00016922118	259024.02	642743.56	9.839837e-05
0	0.6440076	0.64400697	-5.3281496e-10	0.06675091	0.06675091	0	50407.43	50407.387	-3.514596e-05	642841.94	258768.44	-0.00028321485	258768.69	642841.4	-0.0003454221
0	0.6438959	0.6438953	-3.8869077e-10	0.06660963	0.06660963	0	50398.688	50398.645	-3.174807e-05	642939.1	258514.92	-0.00031057643	258515.17	642938.5	-0.00025728426
0	0.6437827	0.6437821	-3.5626738e-10	0.066467956	0.066467956	0	50389.82	50389.78	-3.187602e-05	643037.4	258258.11	-0.0002941164	258258.39	643036.8	-0.00027603292
0	0.64367056	0.64366996	5.1773533e-11	0.06632633	0.06632633	0	50381.043	50380.992	3.91792e-06	643134.3	258004.16	-5.8029884e-05	258004.38	643133.8	0.00012810761
0	0.6435565	0.6435559	-5.188029e-10	0.06618504	0.06618504	0	50372.12	50372.07	-3.8476534e-05	643232.5	257746.22	-0.00035030185	257746.47	643231.94	-0.00033790723
0	0.64344406	0.6434435	-3.0687444e-10	0.06604385	0.06604385	0	50363.32	50363.273	-2.4508927e-05	643330.06	257491.38	-0.00022872999	257491.64	643329.5	-0.00020964802
0	0.6433304	0.6433298	-1.8913399e-10	0.06590254	0.06590254	0	50354.418	50354.375	-1.48788895e-05	643428	257234.25	-0.00021395265	257234.5	643427.44	-5.2178064e-05
0	0.64321667	0.643216	-3.6237652e-10	0.065760985	0.065760985	0	50345.52	50345.477	-2.8266124e-05	643525.8	256977.22	-0.00024552687	256977.5	643525.2	-0.00026005408
0	0.64310145	0.64310086	-3.6894227e-10	0.0656197	0.0656197	0	50336.504	50336.46	-2.7083122e-05	643624.44	256717.28	-0.00026204772	256717.53	643623.94	-0.00022237354
0	0.6429854	0.64298475	-3.4921202e-10	0.06547804	0.06547804	0	50327.414	50327.37	-2.4050574e-05	643725.1	256454.1	-0.00026128732	256454.38	643724.56	-0.0001688924
0	0.642873	0.64287245	-3.5289816e-10	0.06533641	0.06533641	0	50318.625	50318.582	-2.800306e-05	643820.6	256201.39	-0.00026996384	256201.67	643820	-0.00023091183
0	0.64275616	0.6427556	-2.0174618e-10	0.06519513	0.06519513	0	50309.484	50309.438	-1.8079965e-05	643921.2	255937.28	-0.00016016122	255937.53	643920.7	-0.0001632254
0	0.6426421	0.6426415	-1.4135473e-10	0.06505393	0.06505393	0	50300.55	50300.508	-1.4818043e-05	644018.2	255680.5	-0.0001524529	255680.75	644017.6	-0.00011258948
0	0.64252734	0.64252675	-2.9499564e-10	0.06491261	0.06491261	0	50291.57	50291.523	-2.3998857e-05	644115.9	255422.05	-0.00020749363	255422.3	644115.44	-0.00022176103
0	0.6424102	0.64240956	-4.6128043e-10	0.064771056	0.064771056	0	50282.4	50282.363	-2.5241246e-05	644215.2	255158.86	-0.00025208713	255159.17	644214.6	-0.00019938945
0	0.6422941	0.64229345	-2.6656813e-10	0.06462978	0.06462978	0	50273.31	50273.266	-1.630365e-05	644313.7	254897.72	-0.00014445228	254898	644313.2	-0.00014716235
0	0.6421779	0.6421773	-1.6138145e-10	0.06448806	0.06448806	0	50264.22	50264.168	-9.209737e-06	644412.56	254636.22	-0.00012312339	254636.52	644411.94	-4.160623e-05
0	0.6420619	0.64206135	-1.9261723e-10	0.0643465	0.0643465	0	50255.145	50255.094	-1.940429e-05	644511.2	254375.27	-0.00017953101	254375.58	644510.56	-0.00016754308
0	0.6419448	0.6419442	-4.298976e-10	0.064205214	0.064205214	0	50245.977	50245.93	-3.212412e-05	644609.94	254112.53	-0.00030185434	254112.84	644609.4	-0.00027273252
0	0.64182734	0.6418268	-2.9466854e-10	0.06406398	0.06406398	0	50236.777	50236.734	-1.6607057e-05	644709.06	253848.98	-0.000109520384	253849.27	644708.44	-0.0001875211
0	0.6417097	0.641709	-1.1406907e-10	0.063922696	0.063922696	0	50227.566	50227.52	-1.0450967e-06	644808.4	253584.88	-8.2259015e-05	253585.16	644807.75	6.356593e-05
0	0.641592	0.6415914	-4.433023e-10	0.06378113	0.06378113	0	50218.363	50218.312	-3.153603e-05	644907.56	253321.06	-0.00027535122	253321.33	644907	-0.00028871678
0	0.6414739	0.6414732	-3.0886674e-10	0.06363943	0.06363943	0	50209.113	50209.062	-2.2747077e-05	645006.7	253056.42	-0.00028595008	253056.75	645006.06	-0.00012091466
0	0.64135385	0.64135313	-4.8269433e-10	0.06349815	0.06349815	0	50199.71	50199.664	-4.0440023e-05	645106.56	252788.45	-0.00045599823	252788.77	645106	-0.00026733073
0	0.6412358	0.6412352	-4.086528e-10	0.063356586	0.063356586	0	50190.48	50190.43	-3.7266407e-05	645206.25	252523.62	-0.0003943006	252523.94	645205.6	-0.0002722636
0	0.6411161	0.64111537	-1.4636935e-10	0.06321526	0.06321526	0	50181.1	50181.055	-6.6759285e-06	645307	252255.19	-9.7242686e-05	252255.5	645306.44	-2.2166056e-05
0	0.6409977	0.64099705	-1.7690195e-10	0.06307407	0.06307407	0	50171.84	50171.79	-1.4522181e-05	645405.06	251991.36	-0.00014714443	251991.67	645404.5	-0.00011260603
0	0.6408774	0.6408767	-5.773113e-10	0.062932774	0.062932774	0	50162.426	50162.38	-4.115125e-05	645505.06	251723.02	-0.00037945437	251723.31	645504.44	-0.0003565959
0	0.6407588	0.6407582	-3.0591668e-10	0.06279112	0.06279112	0	50153.145	50153.094	-1.8441193e-05	645603.9	251458.23	-0.00024195225	251458.55	645603.25	-8.789545e-05
0	0.6406374	0.64063674	-3.6054634e-10	0.06264953	0.06264953	0	50143.64	50143.594	-2.6275124e-05	645704.1	251187.95	-0.0002702155	251188.27	645703.5	-0.00019975354
0	0.6405169	0.6405163	-2.0643297e-10	0.06250824	0.06250824	0	50134.21	50134.156	-1.5696447e-05	645804.06	250919.4	-0.00013730711	250919.72	645803.4	-0.00014344677
0	0.6403959	0.64039516	-3.940805e-10	0.062366635	0.062366635	0	50124.727	50124.68	-2.9084913e-05	645904.5	250649.38	-0.00030892738	250649.69	645903.9	-0.00021129883
0	0.6402748	0.64027417	-1.9396229e-10	0.06222535	0.06222535	0	50115.26	50115.21	-1.13452115e-05	646004.5	250379.98	-0.0001075362	250380.3	646003.9	-9.538951e-05
0	0.64015394	0.6401533	-2.0800152e-10	0.06208415	0.06208415	0	50105.805	50105.754	-1.5301328e-05	646104.2	250110.94	-8.956419e-05	250111.27	646103.7	-0.00018412244
0	0.6400323	0.6400316	-4.1971454e-10	0.061942477	0.061942477	0	50096.277	50096.223	-2.7684615e-05	646204.56	249840.33	-0.00032739062	249840.66	646203.9	-0.00016778921
0	0.639909	0.6399083	-3.0918024e-10	0.061801177	0.061801177	0	50086.625	50086.58	-2.2815637e-05	646305.75	249566.52	-0.00022988387	249566.86	646305.2	-0.00017820716
0	0.63978803	0.63978744	-5.134953e-11	0.061659623	0.061659623	0	50077.16	50077.11	-1.2464288e-05	646405.4	249297.5	-0.00017415182	249297.86	646404.8	-4.879023e-05
0	0.63966304	0.6396624	-4.3730292e-10	0.06151831	0.06151831	0	50067.375	50067.32	-2.8797356e-05	646508.6	249019.33	-0.00032605586	249019.67	646508	-0.00018902699
0	0.6395404	0.6395397	-4.215358e-10	0.06137672	0.06137672	0	50057.777	50057.727	-3.913598e-05	646608.8	248747.44	-0.0003589753	248747.77	646608.25	-0.00034102894
0	0.63941866	0.6394179	-4.106747e-10	0.061235435	0.061235435	0	50048.242	50048.195	-3.3012526e-05	646707.56	248478.22	-0.00032268366	248478.55	646707	-0.00026779363
0	0.6392932	0.63929254	-3.1681854e-10	0.061094135	0.061094135	0	50038.426	50038.38	-2.2937504e-05	646810.5	248199.69	-0.00024725602	248200.02	646809.9	-0.0001630148
0	0.63917136	0.6391706	-7.542282e-11	0.06095255	0.06095255	0	50028.887	50028.83	-6.3785637e-06	646909	247930.44	6.537887e-05	247930.8	646908.4	-0.0001794688
0	0.63904613	0.6390454	-2.5956776e-10	0.06081125	0.06081125	0	50019.094	50019.04	-2.585008e-05	647010.44	247653.88	-0.00022182654	247654.23	647009.8	-0.00024053999
0	0.63892233	0.6389216	-3.8532777e-10	0.06066969	0.06066969	0	50009.4	50009.348	-3.2476513e-05	647111.3	247379.56	-0.0003413428	247379.92	647110.6	-0.00023954717
0	0.6387972	0.63879645	-3.621786e-10	0.060528405	0.060528405	0	49999.6	49999.543	-3.2799446e-05	647212.7	247102.9	-0.00022475087	247103.27	647212.1	-0.00036191524
0	0.6386724	0.63867176	-2.943248e-10	0.060386807	0.060386807	0	49989.84	49989.78	-2.3350902e-05	647313.44	246827.55	-0.0002302544	246827.94	647312.9	-0.00018741064
0	0.6385461	0.63854545	-2.6081107e-10	0.060245506	0.060245506	0	49979.95	49979.9	-2.5046302e-05	647415.25	246549.02	-0.00022527348	246549.4	647414.56	-0.00022271626
0	0.6384194	0.6384186	-5.319047e-10	0.06010422	0.06010422	0	49970.035	49969.977	-4.132436e-05	647518.4	246268.42	-0.00035624934	246268.77	647517.75	-0.00038289733
0	0.638295	0.6382943	-1.6294985e-10	0.05996261	0.05996261	0	49960.3	49960.242	-1.9424608e-05	647617.6	245995.1	-0.00012928016	245995.44	647616.94	-0.00021815737
0	0.6381676	0.63816696	-2.1621528e-10	0.059821296	0.059821296	0	49950.332	49950.273	-1.694926e-05	647719.6	245714.75	-0.0002596731	245715.11	647718.94	-4.3489214e-05
0	0.63804156	0.6380408	-4.983448e-10	0.059679788	0.059679788	0	49940.46	49940.4	-3.1362422e-05	647821.06	245436.73	-0.00030486	245437.1	647820.44	-0.0002561028
0	0.6379138	0.6379131	-1.6000161e-10	0.05953849	0.05953849	0	49930.465	49930.414	-1.46266375e-05	647923.2	245155.89	-0.0001971521	245156.25	647922.5	-6.4466716e-05
0	0.6377874	0.6377867	-2.394105e-10	0.059396796	0.059396796	0	49920.57	49920.508	-1.5217758e-05	648024.3	244877.69	-0.00019362535	244878.08	648023.6	-7.8566525e-05
0	0.63765824	0.63765746	-2.2616713e-10	0.059255593	0.059255593	0	49910.45	49910.4	-1.559206e-05	648127.06	244593.97	-0.00015325665	244594.39	648126.44	-0.00012563015
0	0.63753116	0.63753045	-4.0646422e-10	0.05911429	0.05911429	0	49900.508	49900.45	-3.085175e-05	648228.5	244314.69	-0.00021871399	244315.08	648227.94	-0.0003331147
0	0.637401	0.6374002	-6.4766836e-10	0.058972668	0.058972668	0	49890.32	49890.258	-5.476355e-05	648332.8	244028.11	-0.00045817782	244028.53	648332.1	-0.0005213483
0	0.63727415	0.63727343	-3.1157577e-10	0.058831364	0.058831364	0	49880.395	49880.336	-1.563277e-05	648432.7	243750.8	-0.0001451752	243751.19	648432	-0.00013443976
0	0.6371446	0.6371439	-2.7699532e-10	0.05868988	0.05868988	0	49870.258	49870.2	-2.2549691e-05	648535.2	243466.95	-0.00019255262	243467.34	648534.5	-0.0002107816
0	0.6370155	0.6370147	-1.9319338e-10	0.05854817	0.05854817	0	49860.15	49860.09	-1.270193e-05	648637.6	243183.62	-0.00018090566	243184.02	648637.06	-4.6286936e-05
0	0.6368862	0.63688546	-2.159139e-10	0.05840688	0.05840688	0	49850.023	49849.97	-1.6805945e-05	648739.5	242900.77	-0.00024074482	242901.19	648738.8	-5.98541e-05
0	0.6367551	0.63675433	-2.9690964e-10	0.05826568	0.05826568	0	49839.766	49839.703	-2.218909e-05	648842.4	242614.28	-0.00024318867	242614.69	648841.75	-0.00015369566
0	0.63662386	0.63662314	-2.8537386e-10	0.058124352	0.058124352	0	49829.5	49829.438	-2.9667048e-05	648946.8	242326.28	-0.0002154417	242326.69	648946.1	-0.00031519687
0	0.636495	0.63649416	-3.9330345e-10	0.057982735	0.057982735	0	49819.41	49819.344	-3.8899965e-05	649047.3	242045.2	-0.00033740947	242045.66	649046.6	-0.0003583733
0	0.6363631	0.6363624	-3.0180902e-10	0.05784144	0.05784144	0	49809.086	49809.023	-3.246906e-05	649150.6	241757.4	-0.00028961574	241757.81	649150.06	-0.00029114095
0	0.636232	0.63623124	-2.861603e-10	0.057699878	0.057699878	0	49798.824	49798.766	-1.8310988e-05	649253.2	241471.22	-0.00012745167	241471.64	649252.44	-0.00020006712
0	0.63609874	0.63609797	-2.2678906e-10	0.057558257	0.057558257	0	49788.39	49788.332	-1.8658986e-05	649358.3	241179.47	-0.00015304967	241179.89	649357.6	-0.00018069359
0	0.6359685	0.6359678	-4.8839627e-10	0.057416957	0.057416957	0	49778.195	49778.133	-3.937912e-05	649459.1	240896.31	-0.00040453585	240896.73	649458.5	-0.0002998173
0	0.63583493	0.6358342	-3.6436315e-10	0.05727573	0.05727573	0	49767.742	49767.68	-2.9100056e-05	649562.9	240605.56	-0.00021843197	240606.02	649562.25	-0.0003020651
0	0.63570327	0.63570255	-3.0875932e-10	0.05713443	0.05713443	0	49757.44	49757.383	-2.3675728e-05	649665.56	240318.61	-0.00027844863	240319.08	649664.8	-0.00014502638
0	0.63557	0.6355692	-2.7519814e-10	0.05699281	0.05699281	0	49747.004	49746.945	-2.6505726e-05	649769.25	240028.34	-0.0002438067	240028.78	649768.5	-0.00023028694
0	0.63543695	0.6354362	-3.672924e-10	0.056851286	0.056851286	0	49736.586	49736.53	-2.926039e-05	649872.1	239739.22	-0.00030981097	239739.64	649871.44	-0.00021355391
0	0.6353013	0.63530046	2.7107776e-11	0.056709964	0.056709964	0	49725.977	49725.914	4.432356e-06	649977.6	239443.73	6.561037e-05	239444.2	649976.9	1.3668802e-05
0	0.6351689	0.6351681	-3.2123879e-10	0.056568343	0.056568343	0	49715.613	49715.547	-2.2547809e-05	650079.25	239156.7	-0.00022144531	239157.16	650078.56	-0.00018185524
0	0.63503444	0.63503367	-3.9932768e-10	0.05642702	0.05642702	0	49705.09	49705.023	-3.5977868e-05	650182.75	238864.98	-0.00030135084	238865.44	650182.1	-0.00034216596
0	0.63490003	0.6348992	-2.3026629e-10	0.05628581	0.05628581	0	49694.57	49694.508	-2.2310165e-05	650286.25	238573.42	-0.00018693456	238573.89	650285.5	-0.00021211538
0	0.634764	0.6347631	-4.5988152e-10	0.056144506	0.056144506	0	49683.918	49683.85	-4.117388e-05	650390.44	238278.7	-0.0003918864	238279.16	650389.7	-0.00034456866
0	0.6346271	0.6346263	-1.2310276e-10	0.056002766	0.056002766	0	49673.207	49673.145	-2.3146935e-05	650496.25	237981.23	-0.000241449	237981.69	650495.56	-0.00017256779
0	0.63449156	0.6344908	-2.5882738e-10	0.055861373	0.055861373	0	49662.6	49662.54	-2.1763506e-05	650600.06	237687.73	-0.00024516362	237688.17	650599.4	-0.00014410852
0	0.6343573	0.6343563	-2.698821e-10	0.05572006	0.05572006	0	49652.086	49652.02	-2.384985e-05	650701.75	237397.9	-0.00022875183	237398.36	650701.1	-0.00019783765
0	0.6342199	0.63421905	-4.2778023e-10	0.05557843	0.05557843	0	49641.336	49641.273	-3.2404165e-05	650806.3	237101.14	-0.00034406202	237101.61	650805.6	-0.00023553382
0	0.6340833	0.6340824	-1.8433516e-10	0.055437095	0.055437095	0	49630.633	49630.57	-1.4746986e-05	650910.7	236805.31	-0.0002240232	236805.78	650910	-3.974823e-05
0	0.6339444	0.6339437	-6.1010147e-10	0.055295892	0.055295892	0	49619.773	49619.707	-4.82078e-05	651016.94	236504.77	-0.0004686911	236505.2	651016.25	-0.000393576
0	0.6338082	0.6338074	-2.5499866e-10	0.055154584	0.055154584	0	49609.113	49609.047	-2.4517145e-05	651119.8	236211.28	-0.00017208132	236211.7	651119.06	-0.0002664437
0	0.6336705	0.6336697	-1.413704e-10	0.05501284	0.05501284	0	49598.33	49598.258	-1.7363865e-05	651223.9	235914.34	-0.000119751276	235914.81	651223.2	-0.0001908269
0	0.63353264	0.6335318	-1.6155123e-10	0.054871462	0.054871462	0	49587.54	49587.477	-1.8046097e-05	651327.94	235617.23	-0.00014972352	235617.7	651327.25	-0.00017305733
0	0.6333931	0.6333923	-1.9047082e-10	0.05473016	0.05473016	0	49576.617	49576.547	-1.1109869e-05	651433.1	235316.7	-0.00016723543	235317.22	651432.44	-3.148083e-05
0	0.6332542	0.6332533	-1.7621696e-10	0.054588504	0.054588504	0	49565.742	49565.676	-1.4411833e-05	651537.94	235017.42	-0.00013459948	235017.89	651537.2	-0.00012317725
0	0.63311344	0.6331126	-2.1505864e-10	0.05444718	0.05444718	0	49554.727	49554.664	-1.5118809e-05	651644.56	234713.84	-0.0002376864	234714.36	651643.9	-3.27356e-05
0	0.63297516	0.6329743	-1.9425234e-10	0.054305978	0.054305978	0	49543.906	49543.844	-1.3726638e-05	651747.44	234417.34	-0.00013345886	234417.88	651746.7	-0.000112062145
0	0.6328348	0.63283396	-8.005e-11	0.054164223	0.054164223	0	49532.918	49532.85	-6.771536e-06	651852.44	234115.8	-1.9391855e-05	234116.27	651851.7	-0.00010172696
0	0.6326944	0.6326935	-3.8461176e-10	0.0540229	0.0540229	0	49521.93	49521.863	-2.3277029e-05	651957.56	233814.14	-0.00017058388	233814.61	651956.9	-0.00024575985
0	0.63255376	0.63255286	-2.4478963e-10	0.053881556	0.053881556	0	49510.918	49510.85	-1.5653397e-05	652062.4	233512.39	-0.00012751958	233512.88	652061.75	-0.00015246432
0	0.63241196	0.6324111	-4.370479e-10	0.053740222	0.053740222	0	49499.824	49499.76	-3.184309e-05	652168.06	233208.19	-0.00032395616	233208.73	652167.3	-0.00024560402
0	0.63226897	0.63226813	-2.392109e-10	0.053598575	0.053598575	0	49488.637	49488.566	-1.9679706e-05	652275.4	232900.67	-0.00020475905	232901.19	652274.7	-0.00014724127
0	0.6321287	0.63212776	-3.2945474e-10	0.053457268	0.053457268	0	49477.645	49477.58	-2.60766e-05	652378.9	232600.67	-0.00023128097	232601.19	652378.2	-0.00023513715
0	0.63198596	0.63198507	-3.6287967e-10	0.053315945	0.053315945	0	49466.477	49466.41	-3.4038017e-05	652484.44	232295.4	-0.00028667317	232295.94	652483.7	-0.0003221466
0	0.6318432	0.63184226	-4.096483e-10	0.0531743	0.0531743	0	49455.3	49455.227	-2.8981962e-05	652590.3	231989.58	-0.00037743297	231990.1	652589.7	-0.00014095182
0	0.6317005	0.63169956	-2.0131023e-10	0.053032976	0.053032976	0	49444.133	49444.066	-1.4655756e-05	652695.5	231684.67	-0.00012625771	231685.17	652694.7	-0.00013588193
0	0.63155645	0.63155556	-4.2314127e-10	0.052891634	0.052891634	0	49432.863	49432.79	-3.1109295e-05	652801.56	231376.9	-0.00032989302	231377.44	652800.8	-0.00022654221
0	0.631413	0.631412	-3.740676e-10	0.05275032	0.05275032	0	49421.633	49421.56	-2.2846712e-05	652907.1	231070.4	-0.00028027064	231070.92	652906.56	-0.00012837622
0	0.6312667	0.6312658	-3.348031e-11	0.05260866	0.05260866	0	49410.18	49410.113	-5.076567e-06	653015.56	230757.39	-7.049648e-05	230757.95	653014.75	-2.030535e-05
0	0.6311238	0.6311228	-1.7126627e-10	0.05246734	0.05246734	0	49398.992	49398.92	-1.1451433e-05	653119.6	230453.05	-6.840357e-05	230453.61	653118.9	-0.00013642207
0	0.6309784	0.6309774	-4.573905e-10	0.052326016	0.052326016	0	49387.605	49387.54	-2.6558608e-05	653225.75	230143.4	-0.00030322158	230143.97	653225	-0.00017181796
0	0.630833	0.6308322	-1.7856175e-10	0.052184362	0.052184362	0	49376.242	49376.176	-1.1228265e-05	653332	229833.72	-0.00016139931	229834.28	653331.3	-3.9434643e-05
0	0.63068706	0.6306861	-1.877985e-10	0.052043013	0.052043013	0	49364.812	49364.74	-1.7071832e-05	653438.2	229523.06	-0.00022370851	229523.64	653437.56	-8.164618e-05
0	0.6305398	0.6305388	-6.742761e-10	0.051901728	0.051901728	0	49353.28	49353.21	-4.6758993e-05	653546.5	229208.58	-0.00050943927	229209.16	653545.7	-0.00032691372
0	0.63039356	0.6303926	-3.8473433e-10	0.051760413	0.051760413	0	49341.84	49341.766	-3.0987896e-05	653651.5	228898.84	-0.00023147636	228899.4	653650.8	-0.00032278753
0	0.63024676	0.63024575	-4.3809734e-10	0.05161863	0.05161863	0	49330.35	49330.273	-3.8735958e-05	653757.94	228586.94	-0.00029668256	228587.5	653757.1	-0.00039616672
0	0.6301	0.6300992	-4.1384435e-10	0.051477425	0.051477425	0	49318.867	49318.8	-3.3453252e-05	653864.4	228275.27	-0.00027773963	228275.83	653863.56	-0.00032062072
0	0.6299508	0.62994987	-3.3473238e-10	0.0513361	0.0513361	0	49307.18	49307.113	-2.6385223e-05	653973.2	227957.31	-0.00030323875	227957.88	653972.44	-0.00016869957
0	0.62980443	0.6298034	-3.0131245e-10	0.0511944	0.0511944	0	49295.727	49295.65	-2.0988167e-05	654077.75	227647.86	-0.00032486932	227648.42	654077	-5.0534745e-05
0	0.6296559	0.6296549	-1.5767603e-10	0.051053077	0.051053077	0	49284.1	49284.023	-1.3463141e-05	654184.56	227333.03	-0.00015275675	227333.6	654183.9	-8.805121e-05
0	0.62950665	0.62950563	-4.520563e-10	0.050911825	0.050911825	0	49272.418	49272.34	-3.554924e-05	654291.8	227016.83	-0.00031832492	227017.42	654291.06	-0.00031752524
0	0.6293573	0.6293564	-2.067177e-10	0.050770037	0.050770037	0	49260.73	49260.652	-1.3643446e-05	654398.9	226700.69	-8.934786e-05	226701.28	654398.25	-0.00015468514
0	0.62920743	0.6292064	-2.9183203e-10	0.050628714	0.050628714	0	49249	49248.92	-2.5976618e-05	654506.3	226383.4	-0.00020236337	226383.98	654505.6	-0.00026226646
0	0.6290574	0.62905645	-3.3166273e-10	0.0504875	0.0504875	0	49237.258	49237.184	-3.0237406e-05	654613.44	226066.38	-0.00031716793	226066.97	654612.7	-0.00022367234
0	0.628905	0.6289041	-1.9050965e-10	0.050346155	0.050346155	0	49225.332	49225.258	-1.6256483e-05	654721.7	225744.86	-0.000119495235	225745.45	654720.9	-0.00017127574
0	0.6287555	0.62875444	-3.1428835e-10	0.050204474	0.050204474	0	49213.62	49213.55	-2.7336846e-05	654828.75	225428.31	-0.0002498079	225428.9	654828	-0.00023915159
0	0.6286048	0.6286039	-9.9338135e-11	0.05006314	0.05006314	0	49201.832	49201.76	-3.6690249e-06	654935.44	225110.78	-5.806795e-05	225111.38	654934.75	-7.5579273e-06
0	0.6284524	0.62845147	-2.5600932e-10	0.049921803	0.049921803	0	49189.9	49189.824	-2.0477073e-05	655043.44	224789.28	-0.00026428525	224789.89	655042.6	-0.000101977144
0	0.62830013	0.6282992	-2.1547726e-10	0.049780127	0.049780127	0	49177.99	49177.91	-2.0891699e-05	655151.2	224468.47	-0.00028388028	224469.08	655150.3	-8.979833e-05
0	0.628147	0.62814605	-6.898004e-11	0.049638797	0.049638797	0	49166	49165.926	-8.106768e-06	655259.4	224145.86	-5.5244825e-05	224146.48	655258.6	-8.975658e-05
0	0.627994	0.627993	-1.029912e-10	0.04949756	0.04949756	0	49154.02	49153.945	-1.1251756e-05	655367.3	223823.53	-0.00011437069	223824.19	655366.6	-8.6883425e-05
0	0.62783915	0.62783813	-2.1982442e-10	0.04935623	0.04935623	0	49141.906	49141.83	-1.7131064e-05	655477.3	223496.92	-0.000157799	223497.56	655476.56	-0.00014861513
0	0.6276872	0.62768614	-3.8543282e-10	0.04921455	0.04921455	0	49130.008	49129.926	-2.7634986e-05	655583.2	223178.19	-0.00028062784	223178.81	655582.44	-0.00021366433
0	0.627533	0.627532	-3.1571576e-10	0.049073216	0.049073216	0	49117.938	49117.863	-2.8325481e-05	655691.4	222854.27	-0.0002458397	222854.86	655690.5	-0.00026080295
0	0.6273781	0.6273772	-6.034422e-10	0.04893189	0.04893189	0	49105.82	49105.742	-3.7290338e-05	655799.8	222529.06	-0.0005108372	222529.7	655799	-0.000156155
0	0.6272233	0.6272223	-4.170681e-10	0.048790213	0.048790213	0	49093.7	49093.625	-3.245084e-05	655907.7	222204.36	-0.00032878193	222204.98	655907	-0.00025164883
0	0.6270671	0.627066	-4.611813e-10	0.048648853	0.048648853	0	49081.47	49081.39	-3.7259626e-05	656016.75	221876.4	-0.00033102275	221877.08	656016.06	-0.00033542016
0	0.62691164	0.6269106	-3.394548e-10	0.04850764	0.04850764	0	49069.305	49069.227	-2.2542865e-05	656125.06	221550.67	-0.00023144121	221551.31	656124.25	-0.00017177091
0	0.62675494	0.6267539	-1.4574167e-10	0.048366304	0.048366304	0	49057.04	49056.96	-1.0981278e-05	656233.5	221222.77	-0.00011542263	221223.45	656232.7	-8.09936e-05
0	0.6265978	0.6265968	-1.4482353e-10	0.048224516	0.048224516	0	49044.742	49044.664	-1.2433901e-05	656342.8	220893.53	-0.00017091178	220894.19	656342.06	-5.1486753e-05
0	0.6264409	0.62643987	-4.087005e-10	0.0480833	0.0480833	0	49032.46	49032.383	-3.2678927e-05	656451.3	220565.3	-0.00030646563	220565.97	656450.56	-0.00027804478
0	0.62628156	0.6262805	-3.7345552e-10	0.047941964	0.047941964	0	49019.984	49019.902	-2.4290677e-05	656562.25	220231.23	-0.00031326603	220231.9	656561.44	-0.00012120826
0	0.6261236	0.6261226	-3.6109005e-10	0.04780026	0.04780026	0	49007.625	49007.543	-2.517749e-05	656671.06	219901.3	-0.0002746178	219901.97	656670.44	-0.00017571845
0	0.62596655	0.6259655	-6.030915e-10	0.04765894	0.04765894	0	48995.332	48995.246	-3.975156e-05	656778.25	219574.31	-0.00038877537	219574.98	656777.44	-0.00032223947
0	0.62580675	0.6258058	-2.0887288e-10	0.047517724	0.047517724	0	48982.83	48982.742	-2.9435014e-05	656887.8	219241	-0.00031519658	219241.69	656887.06	-0.00021129176
0	0.62564754	0.6256466	-3.6769748e-10	0.047376387	0.047376387	0	48970.367	48970.28	-3.4960794e-05	656997.06	218908.92	-0.00031918468	218909.6	656996.25	-0.00030614028
0	0.62548804	0.625487	-9.968861e-11	0.047234587	0.047234587	0	48957.883	48957.8	-1.0518475e-05	657106.06	218576.55	-0.00012631773	218577.22	657105.3	-6.182058e-05
0	0.62532747	0.6253264	-4.3161144e-10	0.047093373	0.047093373	0	48945.305	48945.227	-3.6130234e-05	657215.75	218242.02	-0.00032174963	218242.69	657214.9	-0.0003244925
0	0.62516624	0.62516516	-2.3182188e-10	0.04695201	0.04695201	0	48932.688	48932.61	-1.905078e-05	657325.7	217906.39	-0.00018103268	217907.08	657324.9	-0.00015971837
0	0.6250042	0.62500304	-2.399657e-10	0.046810348	0.046810348	0	48919.996	48919.91	-1.9778376e-05	657436.94	217568.11	-0.00018207882	217568.81	657436.1	-0.00017168636
0	0.6248447	0.6248436	-1.2299119e-10	0.04666901	0.04666901	0	48907.51	48907.43	-7.498199e-06	657544.06	217237.66	-0.0001543025	217238.38	657543.2	2.0186246e-05
0	0.6246818	0.62468064	-2.4554345e-10	0.046527795	0.046527795	0	48894.77	48894.684	-2.4037432e-05	657654.44	216899.27	-0.00030175582	216899.98	657653.6	-0.00012818883
0	0.62451833	0.62451726	8.7144285e-11	0.046386022	0.046386022	0	48881.977	48881.89	3.9333404e-06	657764.8	216560.1	2.2107206e-05	216560.8	657764	4.8246344e-05
0	0.62435514	0.62435406	-5.261792e-10	0.046244673	0.046244673	0	48869.2	48869.117	-3.5994417e-05	657874.94	216221.55	-0.00039750495	216222.27	657874.1	-0.00024630784
0	0.6241932	0.6241921	-4.5345191e-10	0.046103455	0.046103455	0	48856.52	48856.44	-3.6015474e-05	657984.1	215885.55	-0.0003913437	215886.28	657983.4	-0.00025284573
0	0.62402725	0.6240262	-3.5032333e-10	0.045962088	0.045962088	0	48843.535	48843.45	-2.7155047e-05	658096.7	215540.77	-0.00032148045	215541.48	658095.9	-0.0001642273
0	0.62386286	0.62386173	-2.9677857e-10	0.045820434	0.045820434	0	48830.67	48830.59	-2.4435512e-05	658206.94	215200.38	-0.00026674534	215201.12	658206.06	-0.00017031957
0	0.6236998	0.6236987	-3.9530737e-10	0.045679096	0.045679096	0	48817.906	48817.824	-2.749679e-05	658315.4	214863.67	-0.00032566776	214864.39	658314.44	-0.00016615256
0	0.6235343	0.62353325	-2.7451166e-10	0.04553775	0.04553775	0	48804.96	48804.87	-2.128791e-05	658425.75	214521.62	-0.00011016427	214522.38	658424.94	-0.00027060113
0	0.6233674	0.6233663	-5.060643e-11	0.045396097	0.045396097	0	48791.895	48791.805	-8.093324e-06	658536.6	214177	-9.485244e-05	214177.73	658535.9	-4.9908504e-05
0	0.62320256	0.62320143	-4.005881e-10	0.04525476	0.04525476	0	48778.99	48778.906	-2.9130955e-05	658646.6	213836.16	-0.00027108972	213836.89	658645.9	-0.00024996002
0	0.6230353	0.6230342	-2.3610972e-10	0.04511351	0.04511351	0	48765.902	48765.812	-1.7456932e-05	658757.5	213491.27	-0.00039641868	213492.02	658756.6	8.417592e-05