# t (s)	mx ()	my ()	mz ()	B_extx (T)	B_exty (T)	B_extz (T)	m_fullx (A/m)	m_fully (A/m)	m_fullz (A/m)	m_full.region1x (A/m)	m_full.region1y (A/m)	m_full.region1z (A/m)	m_full.region2x (A/m)	m_full.region2y (A/m)	m_full.region2z (A/m)
0	0.6365695	0.63657135	-2.5757577e-10	0.07071087	0.07071087	0	131986.33	131986.7	-4.5625e-05	639345.44	251853.44	-0.00013082377	251851.89	639346.44	-0.0002152262
0	0.63647324	0.6364732	-1.6098486e-10	0.07056911	0.07056911	0	131966.36	131966.34	-2.875e-05	639409.4	251653.05	-8.440243e-06	251653.11	639409.4	-0.00016880487
0	0.63637114	0.63637084	-1.6098486e-10	0.07042788	0.07042789	0	131945.19	131945.14	-3e-05	639476.75	251442.7	-6.752194e-05	251442.89	639476.56	-0.00014770425
0	0.63626957	0.63626933	-2.5757577e-10	0.07028653	0.07028653	0	131924.12	131924.1	-4.8125e-05	639544.06	251233.16	-0.00012238353	251233.36	639543.94	-0.00020256583
0	0.6361675	0.6361672	-1.126894e-10	0.070144884	0.070144884	0	131902.95	131902.92	-2e-05	639611.1	251023.08	-5.486158e-05	251023.27	639611	-0.000101282916
0	0.6360654	0.6360652	-1.2878788e-10	0.07000352	0.07000352	0	131881.8	131881.77	-3.1875e-05	639678.56	250812.8	-0.000101282916	250812.97	639678.44	-0.000120273464
0	0.63596326	0.63596296	-4.8295458e-11	0.06986229	0.06986229	0	131860.62	131860.58	-1.25e-05	639745.9	250602.5	-2.954085e-05	250602.69	639745.7	-3.7981095e-05
0	0.6358607	0.63586044	-1.9318183e-10	0.069720544	0.069720544	0	131839.36	131839.3	-4.125e-05	639813.4	250391.33	-0.0001181634	250391.53	639813.3	-0.00021311613
0	0.6357589	0.6357586	-6.439394e-11	0.06957919	0.069579184	0	131818.23	131818.17	-1.5e-05	639880.3	250181.81	4.2201216e-05	250182.03	639880.2	-0.00015403444
0	0.6356554	0.63565516	-3.8636366e-10	0.069437966	0.069437966	0	131796.78	131796.75	-7e-05	639947.75	249969.62	-0.0002363268	249969.83	639947.56	-0.0002743079
0	0.63555187	0.63555163	-1.126894e-10	0.069296576	0.069296576	0	131775.33	131775.28	-2.8125e-05	640015.44	249757.02	-9.7062795e-05	249757.23	640015.25	-0.00010972316
0	0.6354489	0.63544863	-1.9318183e-10	0.06915496	0.06915496	0	131753.97	131753.92	-3.5e-05	640082.8	249545.33	-0.00013504388	249545.53	640082.75	-9.917286e-05
0	0.6353462	0.6353459	8.049243e-11	0.069013596	0.069013596	0	131732.66	131732.61	1.5e-05	640149.75	249334.6	3.7981095e-05	249334.8	640149.6	6.330182e-05
0	0.6352415	0.6352413	-1.6098486e-10	0.068872236	0.068872236	0	131710.98	131710.94	-4.375e-05	640217.5	249120.44	-0.00011394328	249120.62	640217.4	-0.00017513505
0	0.6351381	0.6351379	-1.126894e-10	0.06873064	0.06873064	0	131689.53	131689.48	-2.4375e-05	640284.94	248908.22	-8.440243e-05	248908.42	640284.8	-9.495273e-05
0	0.63503325	0.6350331	-1.2878788e-10	0.06858927	0.06858927	0	131667.8	131667.77	-2.5e-05	640352.2	248694.22	-7.596219e-05	248694.44	640352.06	-0.00014770425
0	0.63493	0.63492966	-2.253788e-10	0.068448015	0.068448015	0	131646.38	131646.34	-5.375e-05	640419.56	248482.2	-0.00013504388	248482.39	640419.4	-0.00020045578
0	0.6348247	0.63482445	-2.0928032e-10	0.06830665	0.06830665	0	131624.55	131624.52	-4.875e-05	640487.06	248267.33	-3.376097e-05	248267.56	640487	-0.00027008777
0	0.6347198	0.63471955	-2.253788e-10	0.06816504	0.068165034	0	131602.8	131602.75	-5.8125e-05	640554.94	248052.56	-0.00018568535	248052.72	640554.8	-0.00017302498
0	0.6346155	0.63461524	-1.2878788e-10	0.068023674	0.068023674	0	131581.16	131581.11	-2.3125e-05	640622.06	247839.33	8.440243e-06	247839.55	640622	-0.00017513505
0	0.6345107	0.6345105	-1.6098486e-10	0.06788232	0.06788232	0	131559.44	131559.4	-2.5e-05	640689.5	247625.3	-0.00012660364	247625.5	640689.44	-8.651249e-05
0	0.6344046	0.6344044	-1.4488638e-10	0.067740716	0.067740716	0	131537.47	131537.39	-3.5e-05	640757.2	247409.05	-8.018231e-05	247409.25	640757.1	-0.00014348413
0	0.634299	0.6342986	-3.8636366e-10	0.06759932	0.06759932	0	131515.53	131515.5	-7.6875e-05	640824.7	247193.66	-0.0005317353	247193.84	640824.5	-4.4311277e-05
0	0.6341943	0.6341941	-2.253788e-10	0.06745809	0.06745809	0	131493.83	131493.78	-4.8125e-05	640891.8	246979.94	-0.0001181634	246980.14	640891.7	-0.00016880487
0	0.63408756	0.6340874	-1.4488638e-10	0.067316726	0.067316726	0	131471.7	131471.67	-3.25e-05	640959.8	246762.6	-9.2842674e-05	246762.81	640959.7	-0.00015766111
0	0.63398236	0.6339821	-1.2878788e-10	0.067174986	0.067174986	0	131449.89	131449.86	-1.9375e-05	641027.3	246547.75	-7.596219e-05	246547.97	641027.2	-7.596219e-05
0	0.6338754	0.63387513	-1.126894e-10	0.06703377	0.06703377	0	131427.72	131427.67	-1.875e-05	641094.9	246330.53	-9.2842674e-05	246330.73	641094.75	-6.1191764e-05
0	0.6337696	0.63376933	-8.049243e-11	0.066892385	0.066892385	0	131405.8	131405.73	-1.625e-05	641162.44	246114.77	2.1100608e-05	246114.98	641162.3	-0.000101282916
0	0.6336625	0.6336623	-1.9318183e-10	0.066750765	0.066750765	0	131383.58	131383.55	-3e-05	641229.75	245897.56	0	245897.78	641229.56	-0.0002468771
0	0.63355523	0.633555	-1.9318183e-10	0.0666094	0.0666094	0	131361.33	131361.28	-3.3125e-05	641297.7	245679.47	-0.0001181634	245679.67	641297.5	-0.00014348413
0	0.633449	0.6334489	-1.2878788e-10	0.06646817	0.066468164	0	131339.33	131339.28	-2.5e-05	641365.2	245463.31	-5.90817e-05	245463.52	641365.06	-5.90817e-05
0	0.6333413	0.6333411	-2.5757577e-10	0.06632643	0.06632643	0	131316.98	131316.94	-4.875e-05	641432.56	245245.08	-0.00015192438	245245.28	641432.44	-0.00016247468
0	0.63323355	0.6332333	-1.4488638e-10	0.06618507	0.06618507	0	131294.64	131294.6	-2.8125e-05	641500.5	245026.19	-7.596219e-05	245026.39	641500.4	-0.00015403444
0	0.6331265	0.63312626	-1.4488638e-10	0.06604385	0.06604384	0	131272.45	131272.38	-4.25e-05	641568	244808.84	-8.018231e-05	244809.08	641567.9	-0.0001561445
0	0.6330177	0.6330174	-1.6098486e-10	0.065902434	0.065902434	0	131249.89	131249.83	-3.25e-05	641635.8	244588.69	-9.2842674e-05	244588.92	641635.7	-0.00012238353
0	0.6329106	0.6329104	-2.5757577e-10	0.06576085	0.06576085	0	131227.67	131227.62	-6e-05	641703.3	244371.28	-0.00021944632	244371.48	641703.25	-0.00020678596
0	0.6328014	0.63280123	-1.4488638e-10	0.065619476	0.06561948	0	131205.06	131205	-2.5e-05	641771.06	244150.77	-3.7981095e-05	244150.98	641770.94	-0.00013082377
0	0.6326935	0.6326933	-1.126894e-10	0.06547824	0.06547824	0	131182.69	131182.64	-1.8125e-05	641838.9	243931.92	-5.0641458e-05	243932.16	641838.7	-0.00012660364
0	0.63258445	0.6325842	-2.0928032e-10	0.065336525	0.065336525	0	131160.08	131160.02	-5e-05	641906.44	243711.55	-0.0001561445	243711.77	641906.3	-0.00016247468
0	0.6324757	0.6324755	-1.6098486e-10	0.06519514	0.06519514	0	131137.53	131137.47	-2.5e-05	641974.44	243491.4	-4.6421337e-05	243491.61	641974.25	-0.0001666948
0	0.6323665	0.63236624	-2.4147728e-10	0.06505392	0.065053925	0	131114.86	131114.8	-4.5625e-05	642042.1	243270.7	-8.018231e-05	243270.9	642042.06	-0.00025320728
0	0.63225716	0.63225687	-1.6098486e-10	0.06491251	0.064912505	0	131092.22	131092.16	-3e-05	642109.75	243050.14	-0.0001181634	243050.31	642109.6	-6.752194e-05
0	0.6321473	0.632147	-9.6590916e-11	0.06477093	0.06477093	0	131069.43	131069.36	-1.5e-05	642177.4	242828.62	-2.5320729e-05	242828.84	642177.3	-0.00012871371
0	0.6320382	0.63203794	-3.219697e-11	0.06462956	0.06462956	0	131046.79	131046.734	-8.75e-06	642245	242608.23	-7.174206e-05	242608.44	642244.75	-4.4311277e-05
0	0.6319271	0.6319269	-1.126894e-10	0.06448818	0.06448818	0	131023.75	131023.71	-2.125e-05	642313.06	242384.66	-0.000101282916	242384.89	642312.94	-6.9632006e-05
0	0.63181746	0.6318172	-1.2878788e-10	0.0643466	0.0643466	0	131001.04	131000.984	-2e-05	642380.9	242163.34	-6.752194e-05	242163.55	642380.8	-0.0001181634
0	0.6317076	0.6317073	1.6098485e-11	0.06420522	0.06420522	0	130978.25	130978.2	-5e-06	642448.4	241942.06	1.6880485e-05	241942.3	642448.2	-2.1100608e-05
0	0.6315962	0.6315959	-2.0928032e-10	0.064063966	0.064063966	0	130955.15	130955.1	-3.625e-05	642516	241718.44	-0.00015192438	241718.67	642515.9	-9.073261e-05
0	0.6314856	0.63148534	-1.9318183e-10	0.06392258	0.06392258	0	130932.23	130932.17	-3.375e-05	642583.9	241495.73	-0.00013082377	241495.95	642583.7	-0.00014770425
0	0.6313744	0.6313741	-9.6590916e-11	0.06378101	0.06378101	0	130909.17	130909.1	-2.625e-05	642651.75	241272.19	-0.00010972316	241272.39	642651.6	-5.90817e-05
0	0.6312632	0.6312629	-1.6098486e-10	0.06363963	0.06363963	0	130886.125	130886.06	-3.5e-05	642719.6	241048.61	-6.752194e-05	241048.84	642719.5	-0.00013346135
0	0.6311514	0.6311511	-1.4488638e-10	0.06349825	0.06349824	0	130862.92	130862.875	-2.5e-05	642787.56	240824.2	-4.2201216e-05	240824.4	642787.44	-0.00013504388
0	0.6310405	0.6310403	-1.9318183e-10	0.06335668	0.06335668	0	130839.93	130839.88	-3.75e-05	642855.2	240601.31	-8.440243e-05	240601.56	642854.94	-0.00020256583
0	0.63092744	0.63092715	-2.0928032e-10	0.06321527	0.06321527	0	130816.5	130816.44	-3.75e-05	642923.25	240374.94	-0.00020256583	240375.17	642923.1	-0.00010550304
0	0.63081664	0.63081634	-1.4488638e-10	0.06307404	0.06307404	0	130793.53	130793.46	-2.75e-05	642990.6	240152.4	-0.00014348413	240152.61	642990.5	-0.00010550304
0	0.6307032	0.630703	-8.049243e-11	0.062932655	0.062932655	0	130770.02	130769.96	-2.5e-05	643058.6	239925.69	-1.6880485e-05	239925.95	643058.5	-0.00013293383
0	0.6305907	0.6305903	-9.6590916e-11	0.062790945	0.062790945	0	130746.664	130746.62	-2.25e-05	643126.8	239699.83	-6.752194e-05	239700.06	643126.7	-6.330182e-05
0	0.63047886	0.63047856	-8.049243e-11	0.062649705	0.062649705	0	130723.484	130723.43	-7.5e-06	643194.3	239475.83	-0.00010550304	239476.02	643194.1	-3.376097e-05
0	0.63036495	0.6303648	-1.2878788e-10	0.06250833	0.06250833	0	130699.875	130699.83	-2.5625e-05	643262.56	239248.28	-0.00016880487	239248.55	643262.44	-7.596219e-05
0	0.63025177	0.63025147	-2.0928032e-10	0.06236674	0.06236674	0	130676.375	130676.33	-5e-05	643330.44	239021.7	-0.00024054693	239021.92	643330.3	-0.00012238353
0	0.63013905	0.6301388	-2.4147728e-10	0.062225346	0.062225346	0	130653.02	130652.97	-5e-05	643397.94	238796.5	-0.0001181634	238796.72	643397.8	-0.00021100607
0	0.63002425	0.630024	-8.049243e-11	0.06208412	0.06208412	0	130629.234	130629.18	-2.625e-05	643466.1	238567.58	-8.862255e-05	238567.8	643466.06	-7.385213e-05
0	0.62991023	0.62991	-1.2878788e-10	0.061942413	0.061942417	0	130605.586	130605.55	-3.5e-05	643534.1	238339.94	-9.2842674e-05	238340.19	643534	-0.0001181634
0	0.6297969	0.62979656	-1.4488638e-10	0.06180102	0.06180102	0	130582.08	130582.02	-2.625e-05	643602.06	238113.38	-0.00012238353	238113.61	643601.94	-0.00012660364
0	0.6296818	0.6296816	-1.4488638e-10	0.06165979	0.06165979	0	130558.24	130558.19	-3.625e-05	643669.8	237884.56	-0.00022788656	237884.83	643669.7	-7.174206e-05
0	0.62956786	0.6295676	-1.7708335e-10	0.061518367	0.061518367	0	130534.62	130534.55	-4.875e-05	643737.8	237656.94	-0.000101282916	237657.16	643737.7	-0.00021944632
0	0.6294534	0.6294531	-1.4488638e-10	0.061376818	0.061376818	0	130510.89	130510.83	-3.25e-05	643805.6	237429	-5.90817e-05	237429.23	643805.44	-0.00019412559
0	0.62933767	0.6293374	-1.2878788e-10	0.061235435	0.061235435	0	130486.88	130486.81	-1.875e-05	643873.5	237199.06	-3.376097e-05	237199.3	643873.4	-9.2842674e-05
0	0.62922287	0.62922263	1.6098485e-11	0.061094042	0.061094042	0	130463.08	130463.016	1.875e-06	643941.3	236970.44	6.752194e-05	236970.66	643941.25	-8.440243e-05
0	0.62910724	0.629107	-8.049243e-11	0.06095251	0.0609525	0	130439.086	130439.02	-2.25e-05	644009.75	236740.14	-5.0641458e-05	236740.34	644009.56	-0.00010972316
0	0.6289915	0.62899125	-2.253788e-10	0.060811102	0.060811102	0	130415.12	130415.055	-4.875e-05	644077.5	236510.45	-0.00014348413	236510.69	644077.3	-0.00018990546
0	0.6288763	0.62887603	-2.5757577e-10	0.06066984	0.06066984	0	130391.21	130391.16	-5.6875e-05	644145.25	236281.38	-0.00016880487	236281.61	644145.06	-0.0002152262
0	0.62875915	0.62875897	-1.6098486e-10	0.060528446	0.060528446	0	130366.945	130366.875	-3.25e-05	644213.5	236049.22	-0.00014348413	236049.44	644213.25	-0.0001181634
0	0.62864375	0.62864345	-1.9318183e-10	0.060386896	0.060386896	0	130342.99	130342.93	-4.0625e-05	644281.25	235819.78	-6.330182e-05	235820.02	644281.1	-0.00025531734
0	0.62852657	0.6285264	-1.6098486e-10	0.060245506	0.060245506	0	130318.7	130318.64	-4.4375e-05	644349.5	235587.53	-0.00015192438	235587.77	644349.3	-0.0001561445
0	0.62840974	0.62840945	-1.6098486e-10	0.060104124	0.060104124	0	130294.48	130294.414	-3e-05	644417.25	235356.19	-0.00012660364	235356.44	644417.1	-8.018231e-05
0	0.62829304	0.62829274	-1.6098486e-10	0.05996258	0.059962578	0	130270.266	130270.21	-3.25e-05	644485.25	235124.6	-5.0641458e-05	235124.83	644485.25	-0.00020889602
0	0.62817574	0.6281754	-1.2878788e-10	0.059821147	0.059821147	0	130245.96	130245.89	-2.6875e-05	644553.44	234892.31	-8.018231e-05	234892.55	644553.25	-0.00012449358
0	0.6280587	0.6280584	-8.049243e-11	0.05967991	0.059679918	0	130221.69	130221.63	-2.25e-05	644621.06	234660.86	-3.376097e-05	234661.08	644620.94	-0.00010550304
0	0.62794024	0.62794	-1.6098486e-10	0.05953851	0.05953851	0	130197.13	130197.09	-4.375e-05	644689.4	234426.75	-0.00010972316	234426.98	644689.25	-0.00013293383
0	0.62782216	0.62782186	-6.439394e-11	0.059396826	0.059396826	0	130172.64	130172.59	-1.625e-05	644757.4	234193.48	-0.000101282916	234193.7	644757.2	3.165091e-05
0	0.6277044	0.6277041	-9.6590916e-11	0.059255596	0.059255596	0	130148.23	130148.164	-2.25e-05	644825.25	233960.6	-9.2842674e-05	233960.88	644825.1	-8.440243e-05
0	0.62758577	0.6275855	-1.9318183e-10	0.059114188	0.059114188	0	130123.625	130123.58	-4.8125e-05	644892.94	233726.8	-0.00013504388	233727.03	644892.8	-0.00020256583
0	0.62746733	0.6274671	-1.6098486e-10	0.058972627	0.058972627	0	130099.08	130099.016	-3e-05	644961.2	233492.94	0	233493.17	644961	-0.00018990546
0	0.62734896	0.6273488	-2.0928032e-10	0.058831234	0.058831234	0	130074.54	130074.484	-4e-05	645028.9	233259.42	-0.00012238353	233259.64	645028.8	-0.00018146522
0	0.62722903	0.62722874	-2.5757577e-10	0.058689985	0.05868999	0	130049.67	130049.59	-4.4375e-05	645096.94	233023.55	-0.00020256583	233023.77	645096.7	-0.00016036462
0	0.62711	0.62710965	-2.4147728e-10	0.0585483	0.0585483	0	130024.99	130024.94	-4.25e-05	645165.44	232788.39	-0.0001561445	232788.62	645165.1	-0.00021100607
0	0.6269908	0.62699044	-2.0928032e-10	0.058406904	0.058406904	0	130000.25	130000.21	-4.25e-05	645233.1	232553.62	-8.862255e-05	232553.89	645233	-0.00018146522
0	0.6268707	0.62687045	-1.4488638e-10	0.058265664	0.058265664	0	129975.37	129975.33	-3.4375e-05	645301.1	232317.58	-0.00012238353	232317.81	645301	-7.385213e-05
0	0.6267509	0.62675065	-1.9318183e-10	0.05812423	0.05812423	0	129950.52	129950.48	-4.25e-05	645369.2	232081.83	-0.00017302498	232082.06	645369.06	-0.0001561445
0	0.62663096	0.62663066	-6.439394e-11	0.057982713	0.057982713	0	129925.664	129925.61	-1.125e-05	645436.8	231846.25	-3.376097e-05	231846.52	645436.75	-6.752194e-05
0	0.62650925	0.62650895	-1.2878788e-10	0.057841305	0.057841305	0	129900.42	129900.38	-2.625e-05	645505.25	231607.36	-8.440243e-05	231607.61	645505.1	-9.7062795e-05
0	0.6263892	0.6263889	-1.126894e-10	0.057699904	0.057699904	0	129875.54	129875.484	-3.25e-05	645573.4	231371.28	-0.00016036462	231371.52	645573.2	-7.807225e-05
0	0.6262681	0.62626773	-1.4488638e-10	0.057558388	0.057558395	0	129850.42	129850.336	-3.5e-05	645641.56	231133.5	-0.00012660364	231133.73	645641.25	-9.7062795e-05
0	0.62614733	0.6261471	-2.253788e-10	0.057416987	0.057416987	0	129825.38	129825.33	-4.25e-05	645709.2	230896.89	-0.00019412559	230897.14	645708.94	-0.00012238353
0	0.6260254	0.6260251	-4.8295458e-11	0.05727571	0.05727571	0	129800.1	129800.05	-6.875e-06	645777.25	230657.95	-5.0641458e-05	230658.23	645777.1	-2.1100608e-05
0	0.6259041	0.6259038	-1.6098486e-10	0.057134308	0.0571343	0	129774.94	129774.875	-4.25e-05	645845.3	230420.16	-0.0001181634	230420.39	645845	-0.00015403444
0	0.62578225	0.6257819	-9.6590916e-11	0.05699279	0.05699279	0	129749.69	129749.62	-1.5625e-05	645913.25	230181.58	-5.90817e-05	230181.84	645913.06	-4.6421337e-05
0	0.62565917	0.62565887	-8.049243e-11	0.056851387	0.056851387	0	129724.17	129724.11	-1.875e-05	645981.3	229941.23	-5.0641458e-05	229941.48	645981.2	-5.90817e-05
0	0.6255373	0.62553704	-6.439394e-11	0.05670998	0.056709986	0	129698.9	129698.84	-1.125e-05	646049.5	229702.48	0	229702.75	646049.25	-8.862255e-05
0	0.62541276	0.62541246	-9.6590916e-11	0.05656847	0.05656847	0	129673.09	129673.03	-3e-05	646117.5	229460.1	-4.2201214e-06	229460.34	646117.3	-0.00017935516
0	0.6252917	0.62529147	-1.2878788e-10	0.05642703	0.05642703	0	129647.984	129647.92	-2.875e-05	646185.5	229222.72	-9.2842674e-05	229222.97	646185.4	-9.917286e-05
0	0.6251685	0.62516814	-6.439394e-11	0.056285787	0.056285787	0	129622.42	129622.37	-5e-06	646253.5	228982.08	-7.596219e-05	228982.34	646253.3	-2.1100608e-05
0	0.6250452	0.6250449	-2.0928032e-10	0.056144364	0.056144364	0	129596.87	129596.805	-3.5e-05	646321.56	228741.52	-0.000101282916	228741.75	646321.44	-0.00014348413
0	0.62492174	0.62492144	-9.6590916e-11	0.056002706	0.0560027	0	129571.266	129571.195	-2.25e-05	646389.6	228500.55	4.2201214e-06	228500.8	646389.44	-0.00016458474
0	0.62479776	0.6247975	-1.126894e-10	0.055861466	0.055861466	0	129545.555	129545.5	-3.25e-05	646457.1	228259.48	-0.00012238353	228259.73	646456.94	-0.00010339298
0	0.62467355	0.62467325	-1.2878788e-10	0.055720054	0.055720054	0	129519.82	129519.76	-2.125e-05	646525.7	228017.08	-5.90817e-05	228017.31	646525.5	-0.00013082377
0	0.6245495	0.62454915	-1.9318183e-10	0.05557856	0.05557856	0	129494.08	129494.02	-4.3125e-05	646593.7	227775.3	-0.00014770425	227775.55	646593.5	-0.000120273464
0	0.6244251	0.6244248	-2.4147728e-10	0.05543711	0.055437103	0	129468.305	129468.24	-5.5e-05	646661.44	227533.44	-0.00014348413	227533.69	646661.3	-0.00021100607
0	0.62429935	0.62429905	-6.439394e-11	0.05529586	0.05529586	0	129442.24	129442.17	-1.25e-05	646729.44	227289.42	-4.2201216e-05	227289.66	646729.3	-7.385213e-05
0	0.6241744	0.6241741	-2.5757577e-10	0.055154447	0.055154447	0	129416.336	129416.27	-5e-05	646797.6	227046.38	-0.00026164754	227046.61	646797.4	-0.00010550304
0	0.62404966	0.6240493	-9.6590916e-11	0.05501279	0.05501279	0	129390.46	129390.39	-2e-05	646865.6	226803.61	-1.6880485e-05	226803.84	646865.44	-9.7062795e-05
0	0.62392396	0.62392354	-2.8977276e-10	0.054871544	0.054871544	0	129364.39	129364.33	-7e-05	646933.6	226559.66	-0.0002911884	226559.9	646933.4	-0.00018357529
0	0.6237983	0.6237981	0	0.054730132	0.05473013	0	129338.34	129338.29	0	647001.5	226315.89	3.7981095e-05	226316.14	647001.4	-1.4770425e-05
0	0.6236725	0.6236722	-9.6590916e-11	0.054588605	0.054588605	0	129312.26	129312.2	-2.75e-05	647069.4	226071.88	-0.000101282916	226072.12	647069.2	-9.2842674e-05
0	0.62354517	0.62354493	-2.253788e-10	0.05444718	0.05444719	0	129285.87	129285.8	-5.375e-05	647137.44	225825.55	-0.00018990546	225825.81	647137.3	-0.00020889602
0	0.62341917	0.6234189	-3.219697e-11	0.05430595	0.05430595	0	129259.73	129259.67	-1.375e-05	647205.7	225580.89	-3.376097e-05	225581.16	647205.56	-9.7062795e-05
0	0.6232922	0.62329197	-2.4147728e-10	0.05416429	0.05416429	0	129233.42	129233.36	-5e-05	647273.6	225335.27	-0.00013926401	225335.53	647273.5	-0.00019834572
0	0.6231644	0.6231641	-1.9318183e-10	0.05402286	0.05402286	0	129206.914	129206.86	-3.1875e-05	647341.6	225088.38	-0.0001181634	225088.61	647341.44	-0.000120273464
0	0.6230378	0.6230375	-2.0928032e-10	0.053881623	0.053881623	0	129180.67	129180.61	-4.125e-05	647409.75	224843	-0.00016880487	224843.25	647409.56	-0.00014348413
0	0.6229104	0.62291	-6.439394e-11	0.053740162	0.053740162	0	129154.234	129154.17	-1.25e-05	647477.6	224596.64	-7.596219e-05	224596.9	647477.44	-4.6421337e-05
0	0.62278247	0.6227821	-1.9318183e-10	0.053598683	0.053598683	0	129127.71	129127.65	-4e-05	647545.6	224349.56	-0.00017302498	224349.8	647545.44	-0.00010339298
0	0.62265426	0.62265396	-1.9318183e-10	0.053457264	0.053457264	0	129101.15	129101.06	-3.8125e-05	647613.2	224102.53	-0.0001772451	224102.8	647613	-0.00013504388
0	0.62252647	0.62252617	-1.4488638e-10	0.05331584	0.05331584	0	129074.64	129074.586	-2.25e-05	647681.3	223855.53	-9.2842674e-05	223855.78	647681.1	-0.00012449358
0	0.62239736	0.622397	-2.7367425e-10	0.053174376	0.053174376	0	129047.88	129047.8	-4.5e-05	647749.5	223606.62	-0.00018146522	223606.89	647749.25	-0.00019623565
0	0.6222691	0.62226886	-1.6098486e-10	0.053032946	0.053032946	0	129021.29	129021.23	-2.375e-05	647817.2	223359.39	-0.00013504388	223359.66	647817.06	-4.2201216e-05
0	0.6221394	0.62213916	-2.253788e-10	0.05289166	0.052891657	0	128994.4	128994.336	-5e-05	647884.8	223110.14	-0.00013504388	223110.4	647884.56	-0.00021944632
0	0.62201035	0.62201005	-9.6590916e-11	0.052750226	0.052750226	0	128967.64	128967.57	-2.375e-05	647953.25	222860.97	-7.174206e-05	222861.22	647953.06	-8.018231e-05
0	0.6218808	0.62188053	-2.253788e-10	0.05260877	0.052608766	0	128940.76	128940.69	-5.125e-05	648021.1	222611.69	-0.0002363268	222611.95	648021	-0.00013082377
0	0.62175006	0.62174976	-1.6098486e-10	0.052467342	0.052467342	0	128913.64	128913.59	-3.75e-05	648089.1	222360.73	-0.000101282916	222361.02	648089	-0.0001181634
0	0.62162095	0.6216206	-2.253788e-10	0.052325904	0.052325908	0	128886.875	128886.805	-3.875e-05	648156.8	222112.22	-0.00014348413	222112.48	648156.6	-0.00015825455
0	0.6214906	0.6214903	-2.8977276e-10	0.05218445	0.05218445	0	128859.86	128859.805	-5e-05	648224.75	221861.84	-0.0001561445	221862.08	648224.6	-0.00020256583
0	0.6213599	0.62135965	-3.219697e-11	0.052042983	0.052042987	0	128832.734	128832.68	-2.5e-06	648292.9	221610.62	1.6880485e-05	221610.9	648292.7	-5.697164e-05
0	0.62122864	0.62122834	-2.7367425e-10	0.051901728	0.051901728	0	128805.55	128805.48	-5.5e-05	648360.9	221359.06	-0.00016880487	221359.31	648360.56	-0.00019623565
0	0.62109745	0.621097	0	0.0517603	0.051760297	0	128778.34	128778.27	-6.25e-06	648428.44	221107.7	0.000101282916	221107.98	648428.25	-0.00010339298
0	0.6209665	0.62096614	-1.2878788e-10	0.051618665	0.051618673	0	128751.19	128751.125	-4e-05	648496.4	220856.4	-8.862255e-05	220856.66	648496.25	-0.000101282916
0	0.6208339	0.6208336	-2.253788e-10	0.05147742	0.05147743	0	128723.695	128723.63	-5e-05	648564.3	220602.83	-0.00018568535	220603.1	648564.2	-0.00014981431
0	0.62070274	0.6207023	-4.8295458e-11	0.051335983	0.051335983	0	128696.51	128696.43	-1.125e-05	648632.2	220351.4	-3.376097e-05	220351.69	648631.9	-3.7981095e-05
0	0.62057024	0.62057	-1.9318183e-10	0.051194493	0.051194493	0	128669.04	128668.97	-3.75e-05	648700	220098.08	-5.90817e-05	220098.36	648699.8	-0.00019834572
0	0.6204381	0.6204378	-1.126894e-10	0.051053066	0.051053066	0	128641.65	128641.586	-2.125e-05	648767.94	219845.22	-2.5320729e-05	219845.47	648767.7	-0.00012871371
0	0.62030375	0.62030345	9.6590916e-11	0.050911807	0.050911807	0	128613.77	128613.71	1.25e-05	648835.6	219589.3	0.00013504388	219589.56	648835.44	-2.743079e-05
0	0.62017214	0.6201718	-3.219697e-11	0.050770186	0.050770186	0	128586.484	128586.42	-1.25e-05	648903.7	219337.08	-5.0641458e-05	219337.33	648903.5	-2.3210669e-05
0	0.62003917	0.62003887	-2.5757577e-10	0.050628755	0.050628755	0	128558.93	128558.85	-3.875e-05	648971.3	219083.28	-0.000101282916	219083.52	648971.1	-0.00025531734
0	0.6199056	0.61990523	-1.4488638e-10	0.050487496	0.050487496	0	128531.22	128531.16	-1.75e-05	649039.25	218828.25	-4.2201216e-05	218828.48	649039.1	-0.00012238353
0	0.6197706	0.6197703	-1.6098486e-10	0.050346017	0.050346017	0	128503.234	128503.17	-4e-05	649107.06	218571.58	-0.0001181634	218571.84	649106.8	-0.00010339298
0	0.61963767	0.6196374	-2.0928032e-10	0.05020459	0.05020459	0	128475.68	128475.61	-3.5625e-05	649174.94	218317.53	-0.00019412559	218317.8	649174.8	-0.0001455942
0	0.61950356	0.6195032	-8.049243e-11	0.050063144	0.050063144	0	128447.875	128447.805	-1.4375e-05	649242.6	218062.08	0	218062.36	649242.44	-0.00010339298
0	0.61936784	0.6193676	-1.9318183e-10	0.049921695	0.049921695	0	128419.75	128419.68	-4.5e-05	649310.44	217804.42	-0.00014348413	217804.7	649310.25	-0.00015192438
0	0.61923397	0.61923367	-1.2878788e-10	0.04978028	0.04978028	0	128391.98	128391.91	-3e-05	649378.2	217549.06	-0.00012660364	217549.36	649378	-9.495273e-05
0	0.6190992	0.6190989	-9.6590916e-11	0.049638826	0.049638826	0	128364.03	128363.95	-2.875e-05	649445.75	217292.88	-5.486158e-05	217293.14	649445.5	-0.00014770425
0	0.6189633	0.618963	-1.126894e-10	0.04949753	0.04949753	0	128335.85	128335.79	-2.25e-05	649513.94	217034.44	-5.0641458e-05	217034.69	649513.75	-0.00013082377
0	0.61882776	0.6188274	-9.6590916e-11	0.049356084	0.049356084	0	128307.734	128307.67	-2.875e-05	649581.44	216777.19	-9.7062795e-05	216777.45	649581.2	-8.651249e-05
0	0.6186913	0.6186909	-1.4488638e-10	0.049214657	0.049214657	0	128279.46	128279.375	-3.1875e-05	649649.1	216518.52	-0.00012660364	216518.78	649648.8	-5.0641458e-05
0	0.6185556	0.6185553	-1.6098486e-10	0.04907321	0.049073208	0	128251.31	128251.26	-3.5e-05	649716.94	216260.64	-0.00015192438	216260.92	649716.75	-0.00010550304
0	0.61841905	0.6184187	0	0.048931774	0.048931774	0	128223.01	128222.92	1.125e-05	649784.44	216001.97	9.2842674e-05	216002.22	649784.2	0
0	0.6182824	0.618282	-1.9318183e-10	0.04879036	0.04879036	0	128194.67	128194.625	-4.375e-05	649852.25	215742.8	-0.00015192438	215743.11	649852.1	-0.0001561445
0	0.6181456	0.6181452	-1.9318183e-10	0.048648857	0.048648857	0	128166.3	128166.22	-3.5e-05	649919.9	215483.62	-0.00014348413	215483.86	649919.7	-0.00015192438
0	0.6180083	0.6180081	-6.439394e-11	0.04850761	0.04850761	0	128137.85	128137.79	-1.6875e-05	649987.5	215223.97	-1.6880485e-05	215224.25	649987.3	-9.917286e-05
0	0.6178702	0.6178699	-3.380682e-10	0.048366148	0.048366148	0	128109.23	128109.15	-7.375e-05	650055.4	214962.73	-0.0002363268	214963.02	650055.2	-0.00025742743
0	0.61773235	0.61773205	-1.126894e-10	0.048224546	0.04822455	0	128080.63	128080.555	-2.5e-05	650122.75	214702.33	-7.596219e-05	214702.61	650122.5	-8.018231e-05
0	0.6175946	0.61759424	-4.8295458e-11	0.048083294	0.048083294	0	128052.05	128051.98	-2.3125e-05	650190.56	214441.53	-8.862255e-05	214441.81	650190.4	-6.330182e-05
0	0.6174561	0.6174558	-1.2878788e-10	0.04794183	0.04794183	0	128023.34	128023.27	-2.75e-05	650258.25	214180.06	-5.90817e-05	214180.31	650258	-0.00013293383
0	0.6173174	0.61731714	-3.219697e-11	0.047800392	0.047800392	0	127994.6	127994.53	-5e-06	650325.44	213918.75	1.6880485e-05	213919.03	650325.2	-3.7981095e-05
0	0.6171783	0.61717796	-2.253788e-10	0.047658946	0.047658946	0	127965.76	127965.67	-4.0625e-05	650393.3	213656.05	-0.00013504388	213656.36	650393.06	-0.00017302498
0	0.6170392	0.61703885	-1.2878788e-10	0.047517676	0.047517676	0	127936.92	127936.836	-2.6875e-05	650460.8	213393.75	-9.2842674e-05	213394.02	650460.6	-0.00011394328
0	0.6168996	0.6168992	-1.2878788e-10	0.047376227	0.047376227	0	127907.98	127907.9	-2.25e-05	650528.4	213130.73	-6.330182e-05	213131.02	650528.2	-0.0001076131
0	0.6167601	0.61675984	-1.6098486e-10	0.047234632	0.047234632	0	127879.05	127878.98	-4.125e-05	650595.94	212867.95	-0.000101282916	212868.25	650595.7	-0.00013926401
0	0.6166198	0.6166195	-1.7708335e-10	0.047093365	0.047093365	0	127849.95	127849.89	-3.25e-05	650663.56	212603.94	-0.000101282916	212604.25	650663.44	-0.00013926401
0	0.6164798	0.6164795	-1.4488638e-10	0.046951856	0.046951856	0	127820.93	127820.86	-2.75e-05	650730.6	212340.95	-7.596219e-05	212341.23	650730.44	-0.00012449358
0	0.6163386	0.6163382	-1.126894e-10	0.046810478	0.046810478	0	127791.65	127791.58	-1.875e-05	650798.56	212075.23	-4.0091156e-05	212075.52	650798.25	-8.862255e-05
0	0.6161979	0.61619747	-1.4488638e-10	0.046669014	0.046669014	0	127762.45	127762.39	-2.5e-05	650866.1	211810.61	-1.26603645e-05	211810.9	650865.9	-0.00014348413
0	0.61605686	0.6160565	-1.6098486e-10	0.04652776	0.046527762	0	127733.23	127733.164	-3e-05	650933.3	211546.03	-8.018231e-05	211546.28	650933.06	-0.00014348413
0	0.61591524	0.6159149	-6.439394e-11	0.04638618	0.04638618	0	127703.86	127703.8	-1.625e-05	651000.9	211280.19	-0.00010550304	211280.47	651000.6	-4.4311277e-05
0	0.6157734	0.61577296	-1.6098486e-10	0.04624471	0.04624471	0	127674.43	127674.36	-3.5e-05	651068.4	211013.98	-5.486158e-05	211014.25	651068.2	-0.00018146522
0	0.6156314	0.61563104	-8.049243e-11	0.046103448	0.04610345	0	127645	127644.94	-1.5e-05	651135.7	210748.02	0	210748.3	651135.44	-0.00012871371
0	0.615489	0.6154887	-2.4147728e-10	0.045961928	0.045961935	0	127615.5	127615.43	-4.875e-05	651203.06	210481.27	-0.0001561445	210481.56	651202.9	-0.00019201553
0	0.61534613	0.61534584	-2.0928032e-10	0.04582056	0.04582056	0	127585.875	127585.805	-5.5e-05	651270.56	210213.8	-0.00016880487	210214.08	651270.3	-0.00014770425
0	0.61520314	0.6152028	-1.6098486e-10	0.045679096	0.045679096	0	127556.22	127556.15	-3.75e-05	651338	209946.14	-0.00020256583	209946.45	651337.7	-9.2842674e-05
0	0.61506015	0.6150599	-2.253788e-10	0.04553762	0.04553762	0	127526.586	127526.5	-3.8125e-05	651405.25	209678.77	-0.00013082377	209679.03	651405.06	-0.00016247468
0	0.61491674	0.6149163	-2.253788e-10	0.045396265	0.04539626	0	127496.82	127496.76	-4.375e-05	651472.6	209410.56	-0.00021944632	209410.83	651472.4	-0.00011394328
0	0.61477095	0.61477065	-1.4488638e-10	0.04525479	0.045254786	0	127466.62	127466.55	-3e-05	651540.25	209138.86	-9.073261e-05	209139.14	651540	-7.596219e-05
0	0.6146284	0.6146281	-1.126894e-10	0.04511347	0.045113478	0	127437.05	127436.98	-2.375e-05	651607	208872.44	-7.596219e-05	208872.73	651606.8	-0.00012660364
0	0.61448437	0.614484	-2.5757577e-10	0.044972	0.044972	0	127407.19	127407.12	-5.75e-05	651674.4	208603.4	-0.00018568535	208603.7	651674.1	-0.00018357529
0	0.6143388	0.61433846	-2.8977276e-10	0.04483065	0.04483065	0	127377.01	127376.93	-5.75e-05	651741.4	208332.64	-0.00022366644	208332.94	651741.25	-0.0002257765
0	0.61419475	0.61419445	-2.5757577e-10	0.044689175	0.044689175	0	127347.16	127347.08	-5.25e-05	651808.8	208063.53	-0.00019834572	208063.83	651808.7	-0.00017935516
0	0.6140495	0.6140492	-1.126894e-10	0.044547684	0.044547684	0	127317.02	127316.95	-1.8125e-05	651876.06	207792.94	-4.6421337e-05	207793.25	651875.8	-9.495273e-05