//mumax 3.10 [windows_amd64 go1.11.6(gc) CUDA-11.0]
//GPU info: NVIDIA GeForce RTX 3090(24575MB), CUDA Driver 12.0, cc=8.6, using cc=80 PTX
//(c) Arne Vansteenkiste, Dynamat LAB, Ghent University, Belgium
//This is free software without any warranty. See license.txt
//********************************************************************//
//  If you use mumax in any work or publication,                      //
//  we kindly ask you to cite the references in references.bib        //
//********************************************************************//
//output directory: r1;p0.8;a3.2e-07;l1.8000000000000002e-07;s2.out/
randSeed(2)
ThermSeed(2)
resolution := 2e-09
zResolution := 5e-09
a := 3.2e-07
gridSize := 320
gridDepth := 5
SetCellsize(resolution, resolution, zResolution)
SetGridsize(gridSize, gridSize, gridDepth)
SetPBC(16, 16, 0)
//resizing...
Msat = 700e3
Aex = 13e-12
alpha = 0.2
Bmax := 0.1
Bstep := Bmax / 500.0
TableAdd(B_ext)
TableAdd(m_full)
islandWidth := 8e-08
islandLength := 1.8000000000000002e-07
ellipseConstant := 7.200000000000001e-08
hIsland := rect(islandLength-2*ellipseConstant, islandWidth)
hIsland = hIsland.add(ellipse(ellipseConstant*2, islandWidth).transl(islandLength/2-ellipseConstant, 0, 0))
hIsland = hIsland.add(ellipse(ellipseConstant*2, islandWidth).transl(-islandLength/2+ellipseConstant, 0, 0))
hIsland = hIsland.add(rect(6.000000000000001e-09, 1.2108225897723807e-09).transl(3.059406935027798e-08, -3.938332282095904e-08, 0))
hIsland = hIsland.add(rect(6.000000000000001e-09, 4.912068540562427e-09).transl(5.6685385280156625e-08, -3.373572384721618e-08, 0))
hIsland = hIsland.sub(rect(6.000000000000001e-09, -3.607994924106527e-09).transl(-5.0202816075632846e-08, -3.5776132798618296e-08, 0))
hIsland = hIsland.sub(rect(6.000000000000001e-09, -9.392719885332282e-10).transl(-6.305571385943224e-08, -3.1200183248793955e-08, 0))
hIsland = hIsland.add(rect(6.000000000000001e-09, 3.5590808752273876e-10).transl(3.879888584283059e-08, -3.8294692068838885e-08, 0))
hIsland = hIsland.sub(rect(6.000000000000001e-09, -2.508661301753501e-09).transl(7.963369773881983e-08, -2.0677471063459002e-08, 0))
hIsland = hIsland.sub(rect(6.000000000000001e-09, -2.055005907860637e-09).transl(-7.613720017834934e-08, -2.359683199221211e-08, 0))
hIsland = hIsland.sub(rect(6.000000000000001e-09, -2.1616354764806902e-10).transl(-1.8378524080094035e-09, -4e-08, 0))
hIsland = hIsland.add(rect(6.000000000000001e-09, 3.8836391986155075e-09).transl(3.50236347311652e-09, -4e-08, 0))
hIsland = hIsland.add(rect(6.000000000000001e-09, 3.784165481720376e-09).transl(5.4716886985535284e-08, -3.4408001375700315e-08, 0))
hIsland = hIsland.sub(rect(6.000000000000001e-09, -1.451824268843641e-09).transl(3.927309794038174e-09, -4e-08, 0))
hIsland = hIsland.sub(rect(6.000000000000001e-09, -1.0061454148360793e-09).transl(-8.281779813080766e-08, -1.7415165144152604e-08, 0))
hIsland = hIsland.add(rect(6.000000000000001e-09, 1.0959859282930575e-09).transl(2.7054824078339572e-08, -3.9682420466853133e-08, 0))
hIsland = hIsland.sub(rect(6.000000000000001e-09, -2.075308356911363e-09).transl(-8.803032566979557e-08, -9.292129395260447e-09, 0))
hIsland = hIsland.add(rect(6.000000000000001e-09, 1.2199005821140398e-09).transl(1.9639680695330326e-08, -3.998962615177147e-08, 0))
hIsland = hIsland.sub(rect(6.000000000000001e-09, -2.8563050542497865e-09).transl(-4.728368425814301e-09, -4e-08, 0))
hIsland = hIsland.add(rect(6.000000000000001e-09, 1.1679985159915104e-09).transl(1.4723240770280568e-08, -4e-08, 0))
hIsland = hIsland.add(rect(6.000000000000001e-09, 4.70302443447401e-09).transl(-4.422704154015378e-08, -3.7251821945877504e-08, 0))
hIsland = hIsland.sub(rect(6.000000000000001e-09, -7.516336124826588e-10).transl(-8.516343417149637e-08, -1.4413140333992759e-08, 0))
hIsland = hIsland.add(rect(6.000000000000001e-09, 1.4628211023165289e-09).transl(8.465397865943025e-08, -1.512547447340897e-08, 0))
hIsland = hIsland.sub(rect(6.000000000000001e-09, -6.832057105569892e-10).transl(-7.251636656121656e-08, -2.612863346440064e-08, 0))
hIsland = hIsland.add(rect(6.000000000000001e-09, 2.1392015995926552e-09).transl(-1.6731708308289943e-08, -4e-08, 0))
hIsland = hIsland.add(rect(6.000000000000001e-09, 2.142225926256099e-09).transl(5.1914462239445314e-08, -3.5284597989062666e-08, 0))
hIsland = hIsland.sub(rect(6.000000000000001e-09, -1.4918657412524362e-09).transl(7.164149756378124e-08, -2.6681649373812207e-08, 0))
hIsland = hIsland.add(rect(6.000000000000001e-09, 9.15876702732751e-10).transl(-2.2152875464717953e-09, -4e-08, 0))
hIsland = hIsland.add(rect(6.000000000000001e-09, 2.089918115894481e-09).transl(-1.3081817287363811e-08, -4e-08, 0))
hIsland = hIsland.sub(rect(6.000000000000001e-09, -1.9114100499812724e-09).transl(4.4900809846915085e-08, -3.710323614708636e-08, 0))
hIsland = hIsland.add(rect(6.000000000000001e-09, 4.825863346958384e-10).transl(-2.6453450342024516e-08, -3.97233456613274e-08, 0))
hIsland = hIsland.sub(rect(6.000000000000001e-09, -4.270709424111522e-09).transl(-8.709430075579266e-08, -1.1248835372750013e-08, 0))
hIsland = hIsland.sub(rect(6.000000000000001e-09, -2.353839861924452e-09).transl(1.3541652782294813e-09, -4e-08, 0))
hIsland = hIsland.add(rect(6.000000000000001e-09, 6.977176128654823e-10).transl(4.4808809617138236e-08, -3.7123782462938325e-08, 0))
hIsland = hIsland.sub(rect(6.000000000000001e-09, -2.420948616403706e-10).transl(-6.369695067916692e-08, -3.0911006762673277e-08, 0))
hIsland = hIsland.add(rect(6.000000000000001e-09, 1.1256554977718017e-09).transl(2.2578078462047867e-08, -3.9919058528799506e-08, 0))
hIsland = hIsland.sub(rect(6.000000000000001e-09, -1.8643366192293585e-09).transl(-2.6532016448477616e-08, -3.971816100188008e-08, 0))
hIsland = hIsland.sub(rect(6.000000000000001e-09, -1.816660613348571e-09).transl(-1.554650429903937e-08, -4e-08, 0))
hIsland = hIsland.add(rect(6.000000000000001e-09, 2.117196956464879e-09).transl(1.207554852201228e-08, -4e-08, 0))
hIsland = hIsland.add(rect(6.000000000000001e-09, 1.8251601885216828e-09).transl(-6.749676348251045e-08, -2.9049077272039466e-08, 0))
hIsland = hIsland.add(rect(6.000000000000001e-09, 9.756652729206057e-11).transl(4.507215373031696e-08, -3.706475186735098e-08, 0))
hIsland = hIsland.add(rect(6.000000000000001e-09, 2.1291137602915788e-09).transl(2.897846016644315e-08, -3.9532270816610653e-08, 0))
hIsland = hIsland.add(rect(6.000000000000001e-09, 2.420995232762168e-09).transl(4.0067615723797586e-08, -3.8074895070771335e-08, 0))
hIsland = hIsland.sub(rect(6.000000000000001e-09, -2.8188106844085648e-09).transl(-4.0597534814910766e-09, -4e-08, 0))
hIsland = hIsland.add(rect(6.000000000000001e-09, 8.013324117818744e-10).transl(3.629096551094994e-08, -3.868773604079348e-08, 0))
hIsland = hIsland.sub(rect(6.000000000000001e-09, -3.124433301799822e-09).transl(-5.98848863152228e-08, -3.253514860202458e-08, 0))
hIsland = hIsland.add(rect(6.000000000000001e-09, 3.206526879177857e-09).transl(2.380979664426005e-08, -3.986956458156476e-08, 0))
hIsland = hIsland.add(rect(6.000000000000001e-09, 2.1055583948147576e-10).transl(-7.380184270239253e-08, -2.5277193833410454e-08, 0))
hIsland = hIsland.add(rect(6.000000000000001e-09, 2.5476547261136815e-09).transl(6.902003724929259e-08, -2.8223948979768792e-08, 0))
hIsland = hIsland.add(rect(6.000000000000001e-09, 2.8617162677521934e-09).transl(5.877230825646323e-08, -3.296846079565362e-08, 0))
hIsland = hIsland.add(rect(6.000000000000001e-09, 3.6910966649064857e-10).transl(-1.1611774237437509e-08, -4e-08, 0))
hIsland = hIsland.add(rect(6.000000000000001e-09, 3.515518647686926e-10).transl(6.086736454059721e-08, -3.2137767950026305e-08, 0))
hIsland = hIsland.add(rect(6.000000000000001e-09, 1.4116755796617418e-09).transl(4.46135478995028e-08, -3.7167119529714314e-08, 0))
hIsland = hIsland.sub(rect(6.000000000000001e-09, -3.589844022626956e-09).transl(1.2692861601273026e-08, -4e-08, 0))
hIsland = hIsland.sub(rect(6.000000000000001e-09, -1.739016266020836e-11).transl(2.8473233025358914e-08, -3.9574556102875876e-08, 0))
hIsland = hIsland.add(rect(6.000000000000001e-09, 1.0379720552482533e-09).transl(-8.26862247827393e-08, -1.7565506351419737e-08, 0))
hIsland = hIsland.sub(rect(6.000000000000001e-09, -3.96815715782251e-09).transl(7.734743801965523e-08, -2.2647878927360724e-08, 0))
hIsland = hIsland.add(rect(6.000000000000001e-09, 8.493251175984862e-11).transl(-3.088838430035594e-08, -3.935392410715335e-08, 0))
hIsland = hIsland.add(rect(6.000000000000001e-09, 1.0447176515098205e-09).transl(8.143043142363652e-09, -4e-08, 0))
hIsland = hIsland.sub(rect(6.000000000000001e-09, -4.0040003264095285e-09).transl(8.59918109578997e-08, -1.3159909689843029e-08, 0))
hIsland = hIsland.add(rect(6.000000000000001e-09, 1.2947234425694582e-09).transl(-2.1189906972645772e-08, -3.996072336151943e-08, 0))
hIsland = hIsland.add(rect(6.000000000000001e-09, 7.741821460385041e-10).transl(-5.0876721437531765e-08, -3.558645006525077e-08, 0))
hIsland = hIsland.sub(rect(6.000000000000001e-09, -1.5439815939255923e-09).transl(6.922514149870263e-09, -4e-08, 0))
hIsland = hIsland.sub(rect(6.000000000000001e-09, -2.1009554377902777e-09).transl(2.1773633571961816e-08, -3.994502274988791e-08, 0))
hIsland = hIsland.sub(rect(6.000000000000001e-09, -2.5087679123054043e-09).transl(-1.7699247597584154e-08, -4e-08, 0))
hIsland = hIsland.add(rect(6.000000000000001e-09, 1.1406175336770131e-09).transl(3.1728747995148954e-08, -3.926611283048747e-08, 0))
hIsland = hIsland.sub(rect(6.000000000000001e-09, -1.9805475014523748e-10).transl(4.1177827608265326e-08, -3.787075285791352e-08, 0))
hIsland = hIsland.sub(rect(6.000000000000001e-09, -3.082699417323325e-09).transl(4.513122012134267e-08, -3.705141945402083e-08, 0))
hIsland = hIsland.sub(rect(6.000000000000001e-09, -2.0634840758319477e-09).transl(1.1585872760664552e-08, -4e-08, 0))
hIsland = hIsland.add(rect(6.000000000000001e-09, 2.353812849958236e-09).transl(-2.5047988251849957e-08, -3.9807894641679055e-08, 0))
hIsland = hIsland.sub(rect(6.000000000000001e-09, -2.7108451244787026e-09).transl(-5.575502519284171e-08, -3.40594889548659e-08, 0))
hIsland = hIsland.sub(rect(6.000000000000001e-09, -2.2033392535628749e-10).transl(-4.1136176484237435e-08, -3.7878612722171344e-08, 0))
hIsland = hIsland.add(rect(6.000000000000001e-09, 1.2656450540460106e-09).transl(-8.552402294850596e-08, -1.3883402525833987e-08, 0))
hIsland = hIsland.sub(rect(6.000000000000001e-09, -3.5490153956521824e-09).transl(-8.027709338000134e-09, -4e-08, 0))
hIsland = hIsland.sub(rect(6.000000000000001e-09, -9.503481771658977e-10).transl(3.434313716605062e-08, -3.895590205355366e-08, 0))
hIsland = hIsland.add(rect(6.000000000000001e-09, 2.5287900635962973e-09).transl(6.697504290435352e-08, -2.932073157613032e-08, 0))
hIsland = hIsland.sub(rect(6.000000000000001e-09, -1.2106897040714576e-09).transl(-6.632693708638195e-09, -4e-08, 0))
hIsland = hIsland.add(rect(6.000000000000001e-09, 8.808444021301154e-10).transl(2.629778426251973e-09, -4e-08, 0))
hIsland = hIsland.sub(rect(6.000000000000001e-09, -1.548030039051576e-09).transl(7.50734599812882e-08, -2.438515642006333e-08, 0))
hIsland = hIsland.add(rect(6.000000000000001e-09, 2.3493953084929445e-09).transl(-6.337786393897106e-08, -3.105575166076143e-08, 0))
hIsland = hIsland.add(rect(6.000000000000001e-09, 5.0810375528559e-09).transl(6.392176016679033e-08, -3.0808007332469034e-08, 0))
hIsland = hIsland.add(rect(6.000000000000001e-09, 1.3178056895316833e-09).transl(-1.9637145217864645e-08, -3.9989658213770773e-08, 0))
hIsland = hIsland.add(rect(6.000000000000001e-09, 1.0044951919867214e-09).transl(8.9208781013477e-08, -5.9137187902754204e-09, 0))
hIsland = hIsland.sub(rect(6.000000000000001e-09, -6.385693156528139e-10).transl(-4.43836890767001e-08, -3.721766535416777e-08, 0))
hIsland = hIsland.add(rect(6.000000000000001e-09, 2.4214303925284817e-09).transl(-5.130234893533533e-08, -3.546409049484122e-08, 0))
hIsland = hIsland.add(rect(6.000000000000001e-09, 1.8211680374470388e-09).transl(3.646212749444562e-08, -3.8662634880713885e-08, 0))
hIsland = hIsland.sub(rect(6.000000000000001e-09, -4.904956878064735e-10).transl(-8.96291205829393e-09, -4e-08, 0))
hIsland = hIsland.sub(rect(6.000000000000001e-09, -2.331829425695339e-10).transl(-3.43365637292858e-08, -3.8956753030016015e-08, 0))
hIsland = hIsland.add(rect(6.000000000000001e-09, 4.04627066344466e-09).transl(3.3355702873573006e-08, -3.907970009669596e-08, 0))
hIsland = hIsland.sub(rect(6.000000000000001e-09, -4.05530882859985e-10).transl(5.7218127458074214e-08, -3.354533729021477e-08, 0))
hIsland = hIsland.sub(rect(6.000000000000001e-09, -2.7011702185180437e-09).transl(1.6541671210304002e-09, -4e-08, 0))
hIsland = hIsland.add(rect(6.000000000000001e-09, 1.1540067202897067e-09).transl(2.0034632127940325e-09, -4e-08, 0))
hIsland = hIsland.add(rect(6.000000000000001e-09, 2.505153431323533e-09).transl(4.7913496699014614e-08, -3.638436237851027e-08, 0))
hIsland = hIsland.sub(rect(6.000000000000001e-09, -1.4748667470838933e-09).transl(-5.2833386150940085e-08, -3.500720917490987e-08, 0))
hIsland = hIsland.sub(rect(6.000000000000001e-09, -6.354205321453961e-09).transl(3.739731821434832e-08, -3.852105423225051e-08, 0))
hIsland = hIsland.add(rect(6.000000000000001e-09, 2.2211875819203013e-09).transl(-7.834996069534752e-08, -2.1814893570748627e-08, 0))
hIsland = hIsland.sub(rect(6.000000000000001e-09, -9.787418074363215e-10).transl(-3.3939411056162287e-09, -4e-08, 0))
hIsland = hIsland.add(rect(6.000000000000001e-09, 3.595813662363288e-09).transl(-8.550523421253579e-08, -1.3911574294635068e-08, 0))
hIsland = hIsland.sub(rect(6.000000000000001e-09, -3.3192420055061244e-10).transl(5.5581358787234884e-08, -3.411871735547899e-08, 0))
hIsland = hIsland.sub(rect(6.000000000000001e-09, -1.160809007049322e-09).transl(2.01824251302021e-08, -3.998162008491559e-08, 0))
hIsland = hIsland.sub(rect(6.000000000000001e-09, -1.4208545458045458e-09).transl(8.289953241994663e-08, -1.7320959718730068e-08, 0))
hIsland = hIsland.sub(rect(6.000000000000001e-09, -4.022524803206132e-09).transl(-3.7991184627346805e-08, -3.842723015848112e-08, 0))
hIsland = hIsland.add(rect(6.000000000000001e-09, 1.2291688480283474e-09).transl(2.260571952837895e-08, -3.9918077171498697e-08, 0))
hIsland = hIsland.add(rect(6.000000000000001e-09, 3.171056356726495e-09).transl(-3.367186627652422e-08, 3.9040943241689824e-08, 0))
hIsland = hIsland.sub(rect(6.000000000000001e-09, -2.0131075013181312e-09).transl(-5.1610619662351335e-08, 3.5374217462499235e-08, 0))
hIsland = hIsland.sub(rect(6.000000000000001e-09, -3.5145761986202314e-09).transl(1.7750433904848868e-09, 4e-08, 0))
hIsland = hIsland.sub(rect(6.000000000000001e-09, -1.104822145074456e-09).transl(7.14960433982171e-08, 2.6771629888631173e-08, 0))
hIsland = hIsland.add(rect(6.000000000000001e-09, 3.4941185131933256e-10).transl(6.477709956275216e-08, 3.0408245696291674e-08, 0))
hIsland = hIsland.add(rect(6.000000000000001e-09, 1.7640848364345633e-09).transl(6.101520064746606e-09, 4e-08, 0))
hIsland = hIsland.sub(rect(6.000000000000001e-09, -1.7075328758079816e-09).transl(-5.079028991680443e-08, 3.561105428653776e-08, 0))
hIsland = hIsland.add(rect(6.000000000000001e-09, 1.6899793484116771e-09).transl(-3.6264518100221315e-08, 3.8691592295645246e-08, 0))
hIsland = hIsland.sub(rect(6.000000000000001e-09, -3.052097056106277e-10).transl(7.498980384374517e-08, 2.4445468778105104e-08, 0))
hIsland = hIsland.add(rect(6.000000000000001e-09, 3.5395727926678604e-09).transl(6.356405902795564e-08, 3.097149488382136e-08, 0))
hIsland = hIsland.sub(rect(6.000000000000001e-09, -9.466665622603322e-10).transl(6.670358662583336e-08, 2.9459957390299385e-08, 0))
hIsland = hIsland.sub(rect(6.000000000000001e-09, -3.58743463563918e-09).transl(4.020370150525077e-08, 3.8050468595392194e-08, 0))
hIsland = hIsland.add(rect(6.000000000000001e-09, 1.012123035636826e-09).transl(4.4592626685953037e-08, 3.71717410833437e-08, 0))
hIsland = hIsland.sub(rect(6.000000000000001e-09, -3.136714368614026e-09).transl(-1.9349029982271693e-08, 3.999297823440629e-08, 0))
hIsland = hIsland.add(rect(6.000000000000001e-09, 2.1639106668677083e-09).transl(1.3514809796329774e-08, 4e-08, 0))
hIsland = hIsland.sub(rect(6.000000000000001e-09, -6.866258015417661e-10).transl(-9.159655363844461e-10, 4e-08, 0))
hIsland = hIsland.sub(rect(6.000000000000001e-09, -3.915402232629434e-09).transl(2.1923270080755185e-08, 3.994057295360417e-08, 0))
hIsland = hIsland.sub(rect(6.000000000000001e-09, -5.907789698720213e-10).transl(1.3564998381432246e-08, 4e-08, 0))
hIsland = hIsland.sub(rect(6.000000000000001e-09, -1.6594646616958857e-09).transl(-5.7007693774526134e-09, 4e-08, 0))
hIsland = hIsland.add(rect(6.000000000000001e-09, 4.536691585326524e-09).transl(-2.6891265017399374e-08, 3.9693833703373904e-08, 0))
hIsland = hIsland.add(rect(6.000000000000001e-09, 2.5704994268727203e-11).transl(-8.191921083887265e-08, 1.841173878880217e-08, 0))
hIsland = hIsland.sub(rect(6.000000000000001e-09, -2.8026875399684164e-09).transl(-5.994596396437931e-08, 3.251085339714724e-08, 0))
hIsland = hIsland.sub(rect(6.000000000000001e-09, -5.508502984759481e-10).transl(-6.362898665493368e-09, 4e-08, 0))
hIsland = hIsland.sub(rect(6.000000000000001e-09, -1.6259357427750167e-09).transl(5.621653523930694e-08, 3.390025508072033e-08, 0))
hIsland = hIsland.sub(rect(6.000000000000001e-09, -1.978867914568801e-09).transl(2.7327255724374148e-08, 3.966294061496155e-08, 0))
hIsland = hIsland.add(rect(6.000000000000001e-09, 7.817670743909529e-10).transl(5.888707356061285e-08, 3.2924564058012915e-08, 0))
hIsland = hIsland.sub(rect(6.000000000000001e-09, -1.7992277477981613e-09).transl(8.972408329721293e-10, 4e-08, 0))
hIsland = hIsland.add(rect(6.000000000000001e-09, 2.834793151219248e-10).transl(4.8105222410855956e-08, 3.6335523139892446e-08, 0))
hIsland = hIsland.add(rect(6.000000000000001e-09, 2.219205875611073e-09).transl(6.580200227551584e-08, 2.9912261506127905e-08, 0))
hIsland = hIsland.sub(rect(6.000000000000001e-09, -1.2686620179808188e-09).transl(-2.8865243655687935e-08, 3.954192368219377e-08, 0))
hIsland = hIsland.add(rect(6.000000000000001e-09, 2.542576028932623e-10).transl(8.27089827606706e-08, 1.753961609444475e-08, 0))
hIsland = hIsland.add(rect(6.000000000000001e-09, 1.6629814322148463e-09).transl(-3.5715840473647644e-08, 3.877025156314076e-08, 0))
hIsland = hIsland.sub(rect(6.000000000000001e-09, -2.0674344060656376e-09).transl(1.915761108954235e-08, 3.999482966802705e-08, 0))
hIsland = hIsland.sub(rect(6.000000000000001e-09, -8.443492295951667e-10).transl(5.861454681607058e-08, 3.3028507079721135e-08, 0))
hIsland = hIsland.add(rect(6.000000000000001e-09, 2.5973014815232553e-09).transl(7.93675777231628e-08, 2.0920339830876912e-08, 0))
hIsland = hIsland.sub(rect(6.000000000000001e-09, -1.0586861361669135e-09).transl(8.179876138448478e-08, 1.854023024652912e-08, 0))
hIsland = hIsland.sub(rect(6.000000000000001e-09, -1.6236542323455003e-09).transl(2.1559739164572078e-08, 3.995108219103249e-08, 0))
hIsland = hIsland.sub(rect(6.000000000000001e-09, -7.175486265417367e-10).transl(-7.392599395743525e-08, 2.519236607789654e-08, 0))
hIsland = hIsland.add(rect(6.000000000000001e-09, 1.549583867225589e-09).transl(-6.258146079823276e-08, 3.140974407027828e-08, 0))
hIsland = hIsland.sub(rect(6.000000000000001e-09, -1.7357539748619445e-09).transl(-6.178343791219505e-08, 3.175431614771351e-08, 0))
hIsland = hIsland.add(rect(6.000000000000001e-09, 2.532166683513526e-09).transl(-4.9269074043156004e-08, 3.6030872429771976e-08, 0))
hIsland = hIsland.sub(rect(6.000000000000001e-09, -2.4863474496005627e-10).transl(5.190887162357912e-08, 3.528625630930281e-08, 0))
hIsland = hIsland.sub(rect(6.000000000000001e-09, -4.076290779700388e-09).transl(-4.317304151704993e-09, 4e-08, 0))
hIsland = hIsland.add(rect(6.000000000000001e-09, 2.1166949091016713e-09).transl(-5.64853251740377e-08, 3.3806273370670786e-08, 0))
hIsland = hIsland.add(rect(6.000000000000001e-09, 5.069329768990888e-12).transl(3.600321802720705e-08, 3.872937181191996e-08, 0))
hIsland = hIsland.add(rect(6.000000000000001e-09, 2.199465270979997e-09).transl(4.356944521387821e-09, 4e-08, 0))
hIsland = hIsland.sub(rect(6.000000000000001e-09, -3.8260301222445345e-10).transl(7.88689981411513e-09, 4e-08, 0))
hIsland = hIsland.add(rect(6.000000000000001e-09, 8.174327481024654e-10).transl(-3.6843355061158696e-08, 3.860582685678445e-08, 0))
hIsland = hIsland.add(rect(6.000000000000001e-09, 3.1928136661973455e-09).transl(6.562622135834239e-08, 2.999867815568421e-08, 0))
hIsland = hIsland.add(rect(6.000000000000001e-09, 7.318234627866887e-12).transl(-8.874748380946772e-08, 7.428538867121896e-09, 0))
hIsland = hIsland.sub(rect(6.000000000000001e-09, -2.219677167189094e-09).transl(-2.153402107498818e-08, 3.9951786896800855e-08, 0))
hIsland = hIsland.add(rect(6.000000000000001e-09, 2.3354099160086058e-09).transl(2.046393154271204e-08, 3.997657123029838e-08, 0))
hIsland = hIsland.sub(rect(6.000000000000001e-09, -1.9463342209992636e-09).transl(4.0263796685943424e-08, 3.803962909689464e-08, 0))
hIsland = hIsland.sub(rect(6.000000000000001e-09, -8.331831609975604e-10).transl(7.610127319538306e-08, 2.3624127478012076e-08, 0))
hIsland = hIsland.add(rect(6.000000000000001e-09, 3.1896406273672788e-09).transl(-2.4583855039299623e-08, 3.983241457495177e-08, 0))
hIsland = hIsland.add(rect(6.000000000000001e-09, 5.888969477377037e-11).transl(-8.70096136092128e-08, 1.1408157541420178e-08, 0))
hIsland = hIsland.sub(rect(6.000000000000001e-09, -2.646107644665742e-09).transl(2.6335033254553072e-08, 3.973106824828454e-08, 0))
hIsland = hIsland.sub(rect(6.000000000000001e-09, -1.2680682275064894e-10).transl(1.5416245497364617e-08, 4e-08, 0))
hIsland = hIsland.sub(rect(6.000000000000001e-09, -1.5276217936710448e-09).transl(8.431107565434208e-08, 1.5583717024035786e-08, 0))
hIsland = hIsland.add(rect(6.000000000000001e-09, 6.157574411125285e-10).transl(-2.037814091778265e-09, 4e-08, 0))
hIsland = hIsland.sub(rect(6.000000000000001e-09, -1.6131259359077079e-09).transl(-5.077451011843002e-08, 3.5615537454572606e-08, 0))
hIsland = hIsland.add(rect(6.000000000000001e-09, 1.8687152529116086e-09).transl(-3.409896796161645e-08, 3.8987269331530185e-08, 0))
hIsland = hIsland.sub(rect(6.000000000000001e-09, -4.5406747743857035e-09).transl(-1.842324470497932e-11, 4e-08, 0))
hIsland = hIsland.sub(rect(6.000000000000001e-09, -2.784783180337436e-10).transl(3.9246871507150696e-08, 3.821871128561127e-08, 0))
hIsland = hIsland.sub(rect(6.000000000000001e-09, -5.2999605962701245e-09).transl(8.679517411159468e-08, 1.1801130137283076e-08, 0))
hIsland = hIsland.add(rect(6.000000000000001e-09, 2.1939396779976983e-09).transl(3.302796995619026e-08, 3.911900219871934e-08, 0))
hIsland = hIsland.add(rect(6.000000000000001e-09, 1.849132273269981e-09).transl(-3.655112927464666e-08, 3.864948374048445e-08, 0))
hIsland = hIsland.sub(rect(6.000000000000001e-09, -1.0090621470119634e-09).transl(-3.7736488819414966e-08, 3.846784375036911e-08, 0))
hIsland = hIsland.add(rect(6.000000000000001e-09, 5.146520327733142e-11).transl(6.89727351194757e-08, 2.825031560208156e-08, 0))
hIsland = hIsland.add(rect(6.000000000000001e-09, 1.1231998575992706e-09).transl(1.3875042843884874e-08, 4e-08, 0))
hIsland = hIsland.sub(rect(6.000000000000001e-09, -1.5013211937300182e-09).transl(-9.51273166133322e-09, 4e-08, 0))
hIsland = hIsland.add(rect(6.000000000000001e-09, 1.4349971806993378e-10).transl(3.867910200736201e-08, 3.831470860014369e-08, 0))
hIsland = hIsland.add(rect(6.000000000000001e-09, 1.452766327902709e-09).transl(-2.2128274094140207e-08, 3.993419491822214e-08, 0))
hIsland = hIsland.add(rect(6.000000000000001e-09, 2.3268686506296973e-09).transl(6.348596868001891e-08, 3.100690212509412e-08, 0))
hIsland = hIsland.sub(rect(6.000000000000001e-09, -1.7203161135854307e-09).transl(-5.922348698724741e-10, 4e-08, 0))
hIsland = hIsland.add(rect(6.000000000000001e-09, 2.8999299413978315e-09).transl(-3.841175867748764e-08, 3.835892908627249e-08, 0))
hIsland = hIsland.add(rect(6.000000000000001e-09, 2.6769454011309082e-09).transl(3.05272796975333e-08, 3.938989680335481e-08, 0))
hIsland = hIsland.add(rect(6.000000000000001e-09, 2.0996456249359085e-09).transl(6.537819153087054e-08, 3.0119653192141185e-08, 0))
hIsland = hIsland.add(rect(6.000000000000001e-09, 1.6661011635465047e-09).transl(-3.825336023850671e-08, 3.838483416056043e-08, 0))
hIsland = hIsland.sub(rect(6.000000000000001e-09, -2.022326172427443e-09).transl(2.4779351111143087e-08, 3.982229197085845e-08, 0))
hIsland = hIsland.add(rect(6.000000000000001e-09, 4.056085389138034e-09).transl(-6.03764543486792e-08, 3.2338087264274365e-08, 0))
hIsland = hIsland.add(rect(6.000000000000001e-09, 1.3922753889565086e-09).transl(4.260490254504616e-08, 3.759185774538981e-08, 0))
hIsland = hIsland.add(rect(6.000000000000001e-09, 2.5037192787713686e-09).transl(8.58831164100122e-08, 1.3331973385098222e-08, 0))
hIsland = hIsland.add(rect(6.000000000000001e-09, 4.480766927109116e-09).transl(1.7511485707618937e-08, 4e-08, 0))
hIsland = hIsland.add(rect(6.000000000000001e-09, 2.649575839112956e-10).transl(7.194142469482292e-08, 2.6494366404982506e-08, 0))
hIsland = hIsland.add(rect(6.000000000000001e-09, 1.903544126988853e-09).transl(8.244510440353732e-08, 1.7836954620359325e-08, 0))
hIsland = hIsland.sub(rect(6.000000000000001e-09, -1.3056167032020012e-10).transl(-2.0094473736810273e-08, 3.9983071957237056e-08, 0))
hIsland = hIsland.add(rect(6.000000000000001e-09, 7.95306795142855e-10).transl(-1.4075842910690553e-08, 4e-08, 0))
hIsland = hIsland.add(rect(6.000000000000001e-09, 2.8386418432680342e-09).transl(-5.104477673338786e-08, 3.553837575681067e-08, 0))
hIsland = hIsland.sub(rect(6.000000000000001e-09, -3.606439623023787e-09).transl(-1.632984097407512e-08, 4e-08, 0))
hIsland = hIsland.add(rect(6.000000000000001e-09, 7.507926285800252e-10).transl(-6.085664546089658e-08, 3.2142179990134675e-08, 0))
hIsland = hIsland.sub(rect(6.000000000000001e-09, -2.6103195047349646e-09).transl(3.9205942242544855e-08, 3.8225726638467495e-08, 0))
hIsland = hIsland.add(rect(6.000000000000001e-09, 2.041335557250247e-09).transl(7.494040806980979e-08, 2.448096973717949e-08, 0))
hIsland = hIsland.sub(rect(6.000000000000001e-09, -2.701856027054779e-09).transl(-4.2258582466385374e-08, 3.766126303718508e-08, 0))
hIsland = hIsland.sub(rect(6.000000000000001e-09, -1.2471243173606325e-09).transl(5.253404500078175e-08, 3.509862531110904e-08, 0))
hIsland = hIsland.sub(rect(6.000000000000001e-09, -1.5191370930726288e-09).transl(-5.673803652865213e-08, 3.371707138909074e-08, 0))
hIsland = hIsland.add(rect(6.000000000000001e-09, 5.664386789290629e-10).transl(-6.261271638714654e-08, 3.139604410364518e-08, 0))
hIsland = hIsland.sub(rect(6.000000000000001e-09, -3.506539519695801e-10).transl(-6.957721593920428e-08, 2.7909635908250003e-08, 0))
hIsland = hIsland.add(rect(6.000000000000001e-09, 1.1909200053663068e-09).transl(5.277532468961045e-08, 3.5025021006735667e-08, 0))
hIsland = hIsland.sub(rect(6.000000000000001e-09, -5.881763076747798e-10).transl(-7.648578153980871e-08, 2.332945310116189e-08, 0))
vIsland := hIsland.rotz(pi / 2)
vIslands := Universe().Inverse()
hIslands := Universe().Inverse()
hIslands = hIslands.add(hIsland.transl(-a/2, a, 0))
hIslands = hIslands.add(hIsland.transl(-a/2, -a, 0))
hIslands = hIslands.add(hIsland.transl(a/2, a, 0))
hIslands = hIslands.add(hIsland.transl(a/2, -a, 0))
hIslands = hIslands.add(hIsland.transl(-a/2, 0, 0))
hIslands = hIslands.add(hIsland.transl(a/2, 0, 0))
vIslands = vIslands.add(vIsland.transl(-a, a/2, 0))
vIslands = vIslands.add(vIsland.transl(a, a/2, 0))
vIslands = vIslands.add(vIsland.transl(-a, -a/2, 0))
vIslands = vIslands.add(vIsland.transl(a, -a/2, 0))
vIslands = vIslands.add(vIsland.transl(0, a/2, 0))
vIslands = vIslands.add(vIsland.transl(0, -a/2, 0))
DefRegion(1, hIslands)
DefRegion(2, vIslands)
TableAdd(m_full.Region(1))
TableAdd(m_full.Region(2))
setgeom(hIslands.add(vIslands))
save(m)
r2o2 := sqrt(2) / 2
m = RandomMagSeed(4)
B_ext = vector(Bmax*r2o2, Bmax*r2o2, 0)
relax()
minimize()
for B := Bmax; B >= -Bmax; B -= Bstep {
	B_ext = vector(B*r2o2, B*r2o2, 0)
	minimize()
	tablesave()
}
//********************************************************************//
//Please cite the following references, relevant for your simulation. //
//See bibtex file in output folder for justification.                 //
//********************************************************************//
//   * Vansteenkiste et al., AIP Adv. 4, 107133 (2014).
//   * Exl et al., J. Appl. Phys. 115, 17D118 (2014).
