# t (s)	mx ()	my ()	mz ()	B_extx (T)	B_exty (T)	B_extz (T)	m_fullx (A/m)	m_fully (A/m)	m_fullz (A/m)	m_full.region1x (A/m)	m_full.region1y (A/m)	m_full.region1z (A/m)	m_full.region2x (A/m)	m_full.region2y (A/m)	m_full.region2z (A/m)
0	0.65519476	0.6552016	-1.03918436e-10	0.07071066	0.07071066	0	130945.77	130947.13	-2.4444444e-05	632477.94	284801.12	-0.00011674969	284794.75	632481.1	-9.339975e-05
0	0.6549727	0.65497214	-3.6000314e-10	0.0703572	0.0703572	0	130901.39	130901.27	-6.611111e-05	632709.94	284251.56	-0.00022571607	284251.8	632709.4	-0.00023349938
0	0.65474164	0.65474063	-4.834063e-10	0.07000352	0.07000352	0	130855.195	130855	-9.833333e-05	632947.06	283690.6	-0.00039500312	283691.12	632946.3	-0.00031522417
0	0.65450966	0.65450865	-3.0247688e-10	0.06965007	0.06965007	0	130808.85	130808.66	-5.4722223e-05	633184.5	283128.4	-0.00013231632	283129.03	633183.75	-0.00021014945
0	0.6542764	0.6542754	-1.5402196e-10	0.06929639	0.06929639	0	130762.23	130762.02	-2.7222222e-05	633421.94	282564.47	-5.448319e-05	282565.1	633421.1	-0.00015566625
0	0.65404165	0.65404063	-4.193851e-10	0.068942994	0.068942994	0	130715.33	130715.12	-8.694444e-05	633659.94	281997.9	-0.00017901619	281998.5	633659.1	-0.000373599
0	0.6538034	0.65380245	-3.4330197e-10	0.06858931	0.06858931	0	130667.69	130667.5	-6.777778e-05	633900.9	281423.3	-0.0002568493	281423.94	633900.06	-0.00021793276
0	0.6535666	0.6535655	-3.0340472e-10	0.068235844	0.068235844	0	130620.37	130620.16	-5.75e-05	634138.75	280853.75	-0.00015566625	280854.4	634138	-0.00020236612
0	0.6533258	0.65332466	-2.2917726e-10	0.06788218	0.06788218	0	130572.234	130572.03	-4.111111e-05	634380.56	280274.8	-0.00015031523	280275.44	634379.75	-0.0001517746
0	0.6530866	0.65308553	-1.8000157e-10	0.06752872	0.06752872	0	130524.44	130524.23	-3.7777776e-05	634619	279701.6	-0.00015566625	279702.22	634618.2	-8.561644e-05
0	0.6528431	0.6528421	-3.7484862e-10	0.067175046	0.067175046	0	130475.77	130475.56	-7.3333336e-05	634860.75	279118.94	-0.00019458281	279119.6	634859.94	-0.00021793276
0	0.65259963	0.65259856	-2.5330119e-10	0.066821575	0.066821575	0	130427.11	130426.9	-5.361111e-05	635102.1	278536.75	-0.00013912671	278537.4	635101.25	-0.00023933686
0	0.65235436	0.6523532	-2.8855923e-10	0.06646812	0.06646812	0	130378.1	130377.875	-5.3333333e-05	635344.6	277950.8	-0.00016344957	277951.47	635343.8	-0.00019555572
0	0.6521074	0.65210634	-4.5464316e-10	0.066114426	0.066114426	0	130328.74	130328.53	-9.166667e-05	635587.25	277362.5	-0.00022571607	277363.2	635586.3	-0.00036192403
0	0.6518561	0.65185505	-1.4288784e-10	0.06576098	0.06576098	0	130278.516	130278.305	-3.3333334e-05	635832.44	276765.5	-0.00010361535	276766.12	635831.6	-9.7291406e-05
0	0.651608	0.651607	-3.5536393e-10	0.06540731	0.06540731	0	130228.914	130228.7	-6.805555e-05	636075.1	276175.38	-0.00013231632	276176.06	636074.3	-0.00035803238
0	0.6513569	0.65135574	-3.0711608e-10	0.0650539	0.0650539	0	130178.734	130178.5	-5.777778e-05	636318.94	275579.88	-0.00016344957	275580.6	636318.1	-0.00022571607
0	0.6511034	0.6511023	-3.0340472e-10	0.06470023	0.06470023	0	130128.07	130127.85	-6.0833332e-05	636564.44	274979.72	-0.00028019925	274980.38	636563.56	-0.00016734122
0	0.6508465	0.65084535	-5.567059e-10	0.06434677	0.06434677	0	130076.73	130076.516	-0.00011055556	636811.44	274372.94	-0.00045921543	274373.6	636810.56	-0.00028798258
0	0.65059	0.65058887	6.680471e-11	0.06399311	0.063993104	0	130025.47	130025.24	1.4166667e-05	637057.44	273767.72	5.448319e-05	273768.4	637056.75	7.783313e-06
0	0.6503338	0.65033275	-1.6608392e-10	0.06363963	0.06363963	0	129974.28	129974.055	-3e-05	637302.9	273163.88	-4.3294676e-05	273164.6	637302	-0.00013620796
0	0.650074	0.6500729	-1.5216628e-10	0.06328596	0.06328596	0	129922.336	129922.12	-2.888889e-05	637550.3	272552.56	-0.00014788294	272553.28	637549.44	-7.004981e-05
0	0.64981014	0.649809	2.041255e-11	0.06293249	0.0629325	0	129869.625	129869.4	6.111111e-06	637799.9	271933.62	7.783313e-06	271934.34	637799	0
0	0.6495487	0.6495474	-1.03918436e-10	0.06257903	0.06257903	0	129817.35	129817.1	-1.0833333e-05	638047.44	271319.9	7.783313e-06	271320.66	638046.5	-0.00010896638
0	0.6492841	0.649283	-6.680471e-11	0.062225346	0.062225346	0	129764.484	129764.25	-1.05555555e-05	638296.25	270700.78	7.783313e-06	270701.5	638295.4	-8.561644e-05
0	0.6490171	0.64901596	-5.632008e-10	0.061871886	0.061871894	0	129711.13	129710.9	-0.00010666667	638545.94	270077.34	-0.0002568493	270078.12	638545.06	-0.0004358655
0	0.64874774	0.64874655	-3.6649805e-10	0.061518233	0.061518233	0	129657.266	129657.04	-7.944444e-05	638798.2	269447.94	-0.00024030978	269448.72	638797.25	-0.000249066
0	0.6484777	0.6484764	-2.560847e-10	0.061164822	0.061164822	0	129603.31	129603.06	-5.361111e-05	639049	268818.97	-0.00016344957	268819.78	639048.1	-0.00017901619
0	0.64820755	0.6482063	-5.6227295e-10	0.060811155	0.060811155	0	129549.305	129549.07	-0.000113333335	639298.3	268191.4	-0.00038138233	268192.2	639297.4	-0.00035803238
0	0.64793354	0.64793223	-3.3124e-10	0.060457677	0.060457677	0	129494.54	129494.305	-7.277778e-05	639550.56	267555.5	-0.00026317325	267556.3	639549.56	-0.0002558764
0	0.6476569	0.64765567	-3.4237413e-10	0.060104027	0.060104027	0	129439.27	129439.02	-5.777778e-05	639805.06	266913.75	-0.0002568493	266914.56	639804.2	-0.0001867995
0	0.647382	0.64738065	-3.5536393e-10	0.059750546	0.059750546	0	129384.33	129384.08	-7.111111e-05	640055.75	266278.28	-0.00022571607	266279.12	640054.7	-0.0002840909
0	0.64710313	0.6471019	-4.954682e-10	0.059396885	0.059396885	0	129328.586	129328.336	-9.444445e-05	640309.44	265634.1	-0.00028360446	265634.94	640308.5	-0.00033468244
0	0.64682245	0.64682114	-8.907294e-11	0.059043407	0.059043407	0	129272.5	129272.234	-1.3888889e-05	640563.6	264986.9	-0.00011674969	264987.75	640562.75	7.783313e-06
0	0.64654005	0.64653873	-5.288706e-10	0.058689922	0.058689922	0	129216.06	129215.805	-0.00010583334	640818.3	264336.9	-0.00035024906	264337.75	640817.44	-0.00035803238
0	0.6462543	0.646253	-1.633004e-10	0.05833626	0.05833626	0	129158.95	129158.69	-3.388889e-05	641074.6	263680.6	-0.00011285803	263681.44	641073.6	-7.783312e-05
0	0.645969	0.64596766	-4.4443688e-10	0.057982802	0.057982802	0	129101.945	129101.67	-8.888889e-05	641330.5	263025.3	-0.0002568493	263026.2	641329.5	-0.000373599
0	0.64568096	0.6456797	-3.4886902e-10	0.05762915	0.05762915	0	129044.37	129044.1	-6.222222e-05	641586.6	262365.84	-0.00028019925	262366.75	641585.6	-0.00015566625
0	0.6453886	0.6453873	-1.5773334e-10	0.057275664	0.057275664	0	128985.94	128985.67	-3.388889e-05	641846.6	261696.56	-0.00022522961	261697.42	641845.7	-2.7241595e-05
0	0.6450992	0.6450979	-1.503106e-10	0.056922078	0.056922078	0	128928.1	128927.836	-2.8333334e-05	642101.6	261036.44	-0.00015566625	261037.33	642100.7	-6.22665e-05
0	0.6448059	0.6448046	-4.8247845e-10	0.056568593	0.056568593	0	128869.484	128869.21	-9.388889e-05	642359.44	260367.95	-0.00035803238	260368.84	642358.44	-0.00031911582
0	0.64450914	0.6445077	-2.709302e-10	0.05621495	0.056214947	0	128810.17	128809.88	-5.5e-05	642618.94	259692.89	-0.00021890567	259693.8	642617.94	-0.0001867995
0	0.64421004	0.6442087	-3.1917805e-10	0.05586146	0.055861462	0	128750.39	128750.13	-6.5555556e-05	642879.56	259013.67	-0.00023349938	259014.61	642878.5	-0.00023349938
0	0.64391243	0.643911	-7.311404e-10	0.055507813	0.055507813	0	128690.914	128690.64	-0.00014027777	643137.94	258338.55	-0.000498132	258339.47	643137	-0.00048256537
0	0.64360934	0.64360803	-1.679396e-10	0.055154327	0.055154327	0	128630.336	128630.07	-3.361111e-05	643399.25	257652.88	-9.7291406e-05	257653.84	643398.25	-0.000124533
0	0.6433073	0.6433059	-1.8464079e-10	0.05480083	0.05480083	0	128569.984	128569.69	-4.2222222e-05	643659.56	256969.72	-0.000124533	256970.66	643658.56	-0.00015566625
0	0.6430001	0.64299875	-3.8969415e-11	0.05444718	0.05444718	0	128508.58	128508.305	-1.6111111e-05	643922.3	256276.92	-8.561644e-05	256277.89	643921.3	3.891656e-05
0	0.6426923	0.6426909	-3.460855e-10	0.054093707	0.054093707	0	128447.06	128446.78	-7.472222e-05	644185.9	255582.44	-0.0002977117	255583.4	644184.8	-0.00014009963
0	0.64238435	0.6423829	-2.9319844e-10	0.053740066	0.053740066	0	128385.51	128385.22	-5.3055555e-05	644446.7	254890.47	-0.00017123288	254891.45	644445.6	-0.00015663916
0	0.64207315	0.64207166	-3.804157e-10	0.05338656	0.05338656	0	128323.31	128323.03	-8.222222e-05	644709.44	254191.94	-0.0003113325	254192.94	644708.4	-0.0002568493
0	0.6417593	0.64175785	-3.3680705e-10	0.053032998	0.053032998	0	128260.59	128260.3	-5.777778e-05	644973.5	253488.58	-0.00015469333	253489.62	644972.4	-0.00024128269
0	0.64144236	0.6414408	-3.3031217e-10	0.05267951	0.05267951	0	128197.23	128196.94	-6.888889e-05	645238.8	252779.38	-0.0002568493	252780.44	645237.7	-0.00017123288
0	0.641125	0.6411234	-2.9319844e-10	0.05232586	0.05232586	0	128133.82	128133.51	-5.888889e-05	645503.25	252070.67	-0.00028019925	252071.69	645502.25	-0.000124533
0	0.64080405	0.6408026	-2.347443e-10	0.051972378	0.051972378	0	128069.69	128069.37	-5.111111e-05	645769.44	251355.3	-0.0001731787	251356.34	645768.3	-0.00014009963
0	0.640482	0.6404804	-6.0309806e-11	0.051618747	0.051618747	0	128005.29	128005	-1.3333333e-05	646035.4	250638.33	-7.783312e-05	250639.38	646034.2	2.3349938e-05
0	0.64015615	0.64015466	-2.4958982e-10	0.051265243	0.051265243	0	127940.195	127939.89	-5.5e-05	646304.25	249913.36	-0.0003113325	249914.4	646303.1	-4.6699875e-05
0	0.6398307	0.6398291	-2.3752786e-10	0.050911736	0.050911736	0	127875.15	127874.83	-4.638889e-05	646570	249191.89	-0.00018874533	249192.98	646568.94	-0.00015566625
0	0.63950056	0.639499	-4.2866355e-10	0.050558098	0.050558098	0	127809.164	127808.85	-8.4444444e-05	646838.56	248461.25	-0.0003035492	248462.36	646837.4	-0.00027241593
0	0.63916934	0.6391678	-1.6701177e-10	0.05020461	0.05020461	0	127742.96	127742.64	-2.888889e-05	647107.2	247728.75	-0.00016734122	247729.84	647106.1	-3.113325e-05
0	0.63883585	0.6388343	-6.123765e-10	0.04985098	0.049850978	0	127676.305	127675.984	-0.00012444444	647376.3	246992.77	-0.00042613636	246993.9	647375.2	-0.00039305727
0	0.63850045	0.6384989	-4.212408e-10	0.04949747	0.04949747	0	127609.29	127608.97	-9.555556e-05	647645.56	246253.95	-0.00028019925	246255.1	647644.56	-0.00031911582
0	0.63816285	0.6381613	-4.3701412e-10	0.049143925	0.049143925	0	127541.82	127541.49	-8.3611114e-05	647915.5	245511.39	-0.00035803238	245512.55	647914.3	-0.00025782222
0	0.63782275	0.6378211	-3.1917805e-10	0.048790425	0.048790425	0	127473.836	127473.51	-6.222222e-05	648186.44	244764.19	-0.00027338887	244765.33	648185.44	-0.00015566625
0	0.63747907	0.6374775	-2.3103294e-10	0.048436783	0.048436783	0	127405.14	127404.836	-4.388889e-05	648458.3	244011.22	-0.00021793276	244012.36	648457.25	-7.58873e-05
0	0.6371328	0.6371312	-3.2752864e-10	0.04808329	0.048083294	0	127335.95	127335.625	-6e-05	648732.2	243252.66	-0.00023349938	243253.84	648731.06	-0.00016344957
0	0.63678735	0.6367857	-3.3031217e-10	0.04772967	0.04772967	0	127266.91	127266.57	-6.666667e-05	649002.44	242498.7	-0.00032008873	242499.9	649001.25	-0.00010896638
0	0.6364371	0.63643545	-2.449506e-10	0.047376156	0.047376156	0	127196.9	127196.56	-4.972222e-05	649275.75	241735.03	-6.22665e-05	241736.25	649274.56	-0.00027436178
0	0.6360833	0.6360816	-5.743349e-10	0.047022633	0.047022633	0	127126.18	127125.84	-0.00011083333	649550.2	240965.11	-0.00038916562	240966.33	649548.94	-0.00040473224
0	0.6357297	0.635728	-2.1897098e-10	0.046669018	0.046669018	0	127055.516	127055.19	-4.2777778e-05	649823.8	240196.47	-0.00021987858	240197.7	649822.6	-0.00012064134
0	0.63537204	0.6353704	-3.9154982e-10	0.04631552	0.04631552	0	126984.05	126983.7	-7.7777775e-05	650099.1	239420.52	-0.00029382005	239421.73	650098	-0.00020236612
0	0.6350109	0.6350092	-2.8484784e-10	0.045961898	0.045961898	0	126911.88	126911.54	-6.222222e-05	650375.3	238638.8	-0.00021793276	238640.08	650374.06	-0.00015955791
0	0.634649	0.6346473	-5.6784e-10	0.045608375	0.045608375	0	126839.53	126839.195	-0.00011083333	650652.1	237855.17	-0.00038527398	237856.45	650651	-0.00036970736
0	0.6342857	0.6342839	-5.0660237e-10	0.045254853	0.045254853	0	126766.93	126766.57	-9.6111115e-05	650926.75	237071.86	-0.00031911582	237073.14	650925.56	-0.000373599
0	0.63391745	0.63391566	-4.1752943e-10	0.044901323	0.044901323	0	126693.32	126692.97	-8.111111e-05	651204.2	236278.89	-0.00031911582	236280.2	651202.94	-0.00017901619
0	0.633548	0.63354623	-2.579404e-10	0.044547718	0.044547718	0	126619.5	126619.15	-5.388889e-05	651481.7	235484.27	-0.00021793276	235485.58	651480.56	-0.00017901619
0	0.6331731	0.63317126	-2.5051766e-10	0.044194207	0.044194207	0	126544.555	126544.2	-5.3055555e-05	651762.5	234678.44	-0.00016344957	234679.77	651761.25	-0.00019458281
0	0.6328004	0.6327986	-4.7320002e-11	0.043840602	0.043840602	0	126470.086	126469.73	-3.0555555e-06	652038.7	233880.6	-5.448319e-05	233881.92	652037.5	-2.3349938e-05
0	0.6324221	0.6324203	-2.0505334e-10	0.043487065	0.043487065	0	126394.49	126394.11	-3.833333e-05	652318.2	233071.5	-0.00014788294	233072.88	652316.9	-9.339975e-05
0	0.63203925	0.6320375	-4.2680786e-11	0.043133542	0.043133542	0	126317.984	126317.62	-8.3333333e-07	652599.7	232254.08	-5.448319e-05	232255.42	652598.44	3.113325e-05
0	0.63165826	0.63165635	-1.7257883e-10	0.042779934	0.042779934	0	126241.805	126241.445	-3.111111e-05	652878.9	231441.27	-0.00023349938	231442.64	652877.6	3.891656e-05
0	0.6312724	0.63127047	-1.697953e-10	0.042426396	0.042426396	0	126164.695	126164.33	-3.527778e-05	653159.6	230620.27	-0.00014399129	230621.66	653158.44	-0.00010118306
0	0.63088346	0.63088155	-1.6515608e-10	0.042072818	0.042072818	0	126086.98	126086.586	-3.5e-05	653441.25	229794.22	-0.00010118306	229795.64	653439.94	-0.00014009963
0	0.6304899	0.630488	-4.2495216e-10	0.041719276	0.041719276	0	126008.31	126007.945	-8.666667e-05	653725.7	228958.8	-0.00034246576	228960.2	653724.4	-0.000249066
0	0.630097	0.63009506	-3.414463e-10	0.04136578	0.04136578	0	125929.79	125929.41	-6.666667e-05	654006.3	228128.12	-0.00022960771	228129.56	654005.06	-0.0002568493
0	0.62969977	0.62969786	-4.2402432e-10	0.04101223	0.04101223	0	125850.39	125850	-8e-05	654289.8	227288.34	-0.00053704856	227289.8	654288.6	-2.7241595e-05
0	0.6292978	0.6292958	-2.9412628e-10	0.040658645	0.040658645	0	125770.06	125769.68	-5.3333333e-05	654574.8	226440.73	-0.00023349938	226442.22	654573.44	-0.0001867995
0	0.6288949	0.62889296	-3.8319922e-10	0.040305123	0.040305123	0	125689.53	125689.15	-8.5e-05	654860.1	225591.28	-0.00021793276	225592.75	654858.9	-0.00035414073
0	0.62849027	0.6284883	6.958824e-11	0.039951537	0.039951537	0	125608.67	125608.28	1.6666667e-05	655143.25	224741.62	-7.783313e-06	224743.16	655142	3.891656e-05
0	0.6280796	0.6280777	-2.7000235e-10	0.03959798	0.03959798	0	125526.586	125526.19	-5.8333335e-05	655429.56	223880.38	-0.00026463263	223881.89	655428.3	-0.00010896638
0	0.62766844	0.62766653	2.7835295e-12	0.039244432	0.039244432	0	125444.42	125444.03	-4.4444446e-06	655715.3	223018.97	-9.7291406e-05	223020.48	655714.06	4.6699875e-05
0	0.62725264	0.6272506	-1.697953e-10	0.038890854	0.03889085	0	125361.31	125360.9	-3.6666668e-05	656002.4	222149.7	-0.00017901619	222151.28	656001.1	-8.9508096e-05
0	0.6268354	0.6268334	-1.6701177e-10	0.038537286	0.038537286	0	125277.945	125277.516	-3.3333334e-05	656289.1	221278.88	-7.783312e-05	221280.45	656287.8	-0.00011674969
0	0.62641495	0.6264129	-2.9598196e-10	0.038183734	0.038183734	0	125193.89	125193.49	-5.7222223e-05	656576.3	220403.05	-0.00018388077	220404.64	656575	-0.00019458281
0	0.6259902	0.6259882	-3.4794118e-10	0.037830178	0.037830178	0	125109.016	125108.59	-7.055556e-05	656865	219519.73	-0.0003113325	219521.3	656863.75	-0.00019458281
0	0.6255615	0.6255595	-1.4567138e-10	0.037476595	0.037476595	0	125023.336	125022.92	-2.75e-05	657154.6	218629.94	-0.00014788294	218631.56	657153.3	-2.3349938e-05
0	0.6251318	0.62512964	-4.7227217e-10	0.037123147	0.037123147	0	124937.445	124937.02	-9.111111e-05	657443.5	217739.34	-0.00036386985	217740.98	657442.2	-0.00027241593
0	0.6246968	0.6246947	-3.3773492e-10	0.036769584	0.036769584	0	124850.516	124850.086	-6.666667e-05	657733.94	216839.89	-0.00021793276	216841.55	657732.7	-0.00020236612
0	0.6242611	0.62425894	-6.838204e-10	0.03641604	0.03641604	0	124763.43	124762.99	-0.00013027778	658023.8	215940.02	-0.00045143213	215941.69	658022.5	-0.00045143213
0	0.6238203	0.62381816	-1.01134906e-10	0.036062464	0.036062468	0	124675.33	124674.914	-2.1666667e-05	658315.06	215031.61	-1.5566626e-05	215033.31	658313.75	-0.00011285803
0	0.62337697	0.62337476	-1.2711451e-10	0.0357089	0.0357089	0	124586.71	124586.3	-3.111111e-05	658606.44	214119.52	-0.00022571607	214121.19	658605.1	5.448319e-05
0	0.6229299	0.62292767	1.762902e-11	0.035355333	0.03535533	0	124497.38	124496.95	-1.1111111e-06	658898.4	213201.72	1.9458282e-06	213203.47	658897	2.3349938e-05
0	0.6224777	0.6224755	-6.884596e-10	0.03500176	0.03500176	0	124407.03	124406.59	-0.00013833333	659193.1	212274.08	-0.0005818026	212275.83	659191.75	-0.00032300747
0	0.6220252	0.622023	-3.098996e-10	0.034648195	0.034648195	0	124316.57	124316.15	-6.194445e-05	659484.56	211349.1	-0.00023349938	211350.84	659483.2	-0.00018096202
0	0.6215661	0.621564	-4.212408e-10	0.034294654	0.034294654	0	124224.836	124224.4	-8.277778e-05	659780.25	210410.64	-0.00039694895	210412.42	659778.9	-0.00015566625
0	0.6211064	0.6211042	8.3505884e-12	0.03394109	0.03394109	0	124132.96	124132.51	-1.1111111e-06	660072.8	209474.45	-4.0862393e-05	209476.22	660071.56	8.561644e-05
0	0.6206417	0.6206394	-2.430949e-10	0.033587523	0.033587523	0	124040.07	124039.625	-4.777778e-05	660367.7	208528.83	-0.00017901619	208530.66	660366.4	-9.339975e-05
0	0.62017435	0.620172	-1.9670275e-10	0.033234056	0.033234056	0	123946.664	123946.195	-3.4444445e-05	660662.9	207579.31	-0.00019458281	207581.14	660661.44	-6.22665e-05
0	0.61970216	0.6196999	-1.3360942e-10	0.03288049	0.03288049	0	123852.305	123851.84	-2.6944444e-05	660958.94	206622.31	-3.405199e-05	206624.17	660957.44	-0.00014399129
0	0.6192278	0.61922544	-1.2340313e-10	0.03252695	0.03252695	0	123757.484	123757.016	-2.1666667e-05	661254.7	205662.3	-0.00015566625	205664.17	661253.4	1.5566626e-05
0	0.61874616	0.61874384	-8.16502e-11	0.032173384	0.032173384	0	123661.23	123660.76	-1.4444445e-05	661554.2	204688.55	-0.000124533	204690.4	661552.75	-2.3349938e-05
0	0.6182656	0.6182633	-4.7134435e-10	0.031819817	0.031819817	0	123565.195	123564.734	-9.583333e-05	661849.1	203720.81	-0.00040278642	203722.72	661847.8	-0.00026852428
0	0.61777943	0.6177771	-1.3824863e-10	0.03146625	0.031466246	0	123468.04	123467.555	-2.8055556e-05	662147.06	202742.22	-0.00020236612	202744.12	662145.75	4.6699875e-05
0	0.61728895	0.6172865	-6.207271e-10	0.031112673	0.031112673	0	123369.984	123369.516	-0.00012333333	662445.56	201756.94	-0.00052926526	201758.84	662444.2	-0.0003113325
0	0.6167948	0.6167925	-1.3917648e-10	0.030759117	0.030759117	0	123271.25	123270.77	-2.2777778e-05	662744.56	200766.27	1.2647883e-05	200768.2	662743.1	-0.00020236612
0	0.61629695	0.6162946	-3.1917805e-10	0.030405577	0.030405577	0	123171.74	123171.27	-6.222222e-05	663043.75	199770.03	-0.00032689914	199771.98	663042.44	-0.00011674969
0	0.6157949	0.61579245	-5.5206667e-10	0.030052014	0.030052014	0	123071.38	123070.93	-0.00010833333	663343.8	198767.05	-0.00054483186	198768.98	663342.5	-0.00021014945
0	0.61528826	0.6152858	-5.2608706e-10	0.029698443	0.029698443	0	122970.14	122969.66	-0.00010666667	663644.75	197756.78	-0.00032981788	197758.77	663643.4	-0.00041251557
0	0.6147786	0.61477613	-8.16502e-11	0.029344961	0.029344961	0	122868.27	122867.78	-2.2222222e-05	663945.44	196742.48	-7.783313e-06	196744.5	663944.1	-0.000124533
0	0.6142626	0.61426014	-1.3175373e-10	0.028991401	0.028991401	0	122765.16	122764.664	-2.5555555e-05	664248.8	195716.77	-0.00015566625	195718.8	664247.44	1.5566626e-05
0	0.6137461	0.6137436	-3.850549e-10	0.028637832	0.028637832	0	122661.93	122661.44	-8.333333e-05	664548.8	194693.67	-0.0003463574	194695.7	664547.44	-0.00020236612
0	0.6132235	0.61322093	-4.1845727e-10	0.028284296	0.028284296	0	122557.484	122556.97	-7.7777775e-05	664851.3	193659.42	-0.00029187422	193661.48	664850	-0.00028798258
0	0.6126967	0.61269426	-9.139255e-10	0.02793073	0.02793073	0	122452.21	122451.71	-0.00018166666	665153.94	192619.38	-0.000622665	192621.47	665152.56	-0.000622665
0	0.612165	0.61216253	-3.9526118e-10	0.027577164	0.027577164	0	122345.93	122345.43	-8.111111e-05	665457.75	191571.16	-0.00017707037	191573.25	665456.4	-0.00036581568
0	0.6116305	0.6116279	-3.7856002e-10	0.02722359	0.02722359	0	122239.11	122238.59	-8.111111e-05	665761.3	190519.16	-0.000249066	190521.27	665760	-0.0003113325
0	0.61109036	0.61108786	-6.884596e-10	0.026870033	0.026870033	0	122131.17	122130.67	-0.00013444445	666066.06	189458.31	-0.00048256537	189460.47	666064.7	-0.00041251557
0	0.6105455	0.6105429	-4.871177e-10	0.026516499	0.026516499	0	122022.26	122021.76	-9.666667e-05	666371	188390.6	-0.00039305727	188392.75	666369.6	-0.00029187422
0	0.6099972	0.6099947	-1.1412471e-10	0.02616293	0.02616293	0	121912.69	121912.17	-2.1111111e-05	666676.2	187317.81	-0.0001867995	187319.98	666674.7	-7.783313e-06
0	0.60944295	0.6094403	2.449506e-10	0.025809374	0.025809374	0	121801.91	121801.41	4.6111112e-05	666983.5	186234.36	0.0001867995	186236.55	666982.06	0.00010118306
0	0.6088866	0.6088839	-2.0134197e-10	0.025455868	0.025455868	0	121690.72	121690.195	-4.4444445e-05	667287.8	185151.19	-0.0002763076	185153.42	667286.4	-4.6699875e-05
0	0.6083236	0.60832095	-5.121694e-10	0.025102306	0.025102304	0	121578.2	121577.69	-0.00010222222	667594.7	184056.1	-0.00039694895	184058.33	667593.3	-0.00026463263
0	0.60775685	0.60775423	3.0618823e-11	0.024748735	0.024748735	0	121464.93	121464.41	4.4444446e-06	667901.75	182955.62	-0.00010118306	182957.88	667900.3	0.00012258717
0	0.60718495	0.6071823	-5.32582e-10	0.024395213	0.024395213	0	121350.63	121350.12	-0.00010666667	668208.94	181847.75	-0.00025490348	181850.02	668207.5	-0.00044559463
0	0.6066079	0.60660523	-5.130973e-10	0.024041645	0.024041645	0	121235.305	121234.77	-0.00010333333	668516.9	180731.81	-0.00029965752	180734.12	668515.44	-0.00038138233
0	0.606026	0.6060233	-1.697953e-10	0.023688078	0.023688078	0	121118.99	121118.48	-2.8333334e-05	668825.8	179608.23	-0.000249066	179610.53	668824.4	7.783313e-06
0	0.6054394	0.60543674	-3.4701333e-10	0.023334509	0.023334509	0	121001.77	121001.25	-7.166667e-05	669134.1	178478.7	-0.0003385741	178481.03	669132.75	-0.00014788294
0	0.6048478	0.604845	-4.6392157e-12	0.022980949	0.022980949	0	120883.54	120883	-7.777778e-06	669443.4	177341.2	-0.00022571607	177343.53	669441.94	0.00021793276
0	0.6042502	0.6042475	1.697953e-10	0.022627426	0.022627426	0	120764.12	120763.56	3.3333334e-05	669753.56	176194.39	9.339975e-05	176196.75	669752.1	0.00014788294
0	0.6036484	0.6036457	-2.7556943e-10	0.022273859	0.022273859	0	120643.83	120643.28	-5.222222e-05	670063.3	175042.03	-0.00018485368	175044.4	670061.94	-0.00014788294
0	0.60304105	0.6030384	1.9113569e-10	0.021920301	0.021920301	0	120522.445	120521.91	3.4444445e-05	670373.7	173881.39	2.3349938e-05	173883.78	670372.3	0.0002568493
0	0.60242677	0.602424	2.4123922e-10	0.021566771	0.021566771	0	120399.664	120399.13	4.111111e-05	670686.25	172708.75	7.004981e-05	172711.14	670684.9	0.00022571607
0	0.60181034	0.6018076	-4.017561e-10	0.021213198	0.021213198	0	120276.484	120275.94	-8.0555554e-05	670995.94	171536.12	-0.00029965752	171538.55	670994.56	-0.00024128269
0	0.60118645	0.60118365	-9.278431e-12	0.020859638	0.020859638	0	120151.8	120151.234	-2.2222223e-06	671307.56	170351	-9.339975e-05	170353.47	671306.2	6.22665e-05
0	0.6005576	0.6005548	2.8763138e-11	0.020506116	0.020506116	0	120026.11	120025.555	1.1111111e-06	671619.75	169158.47	-9.339975e-05	169160.92	671618.3	0.00011674969
0	0.5999229	0.59992015	-5.38149e-10	0.020152561	0.020152561	0	119899.25	119898.71	-0.00011777778	671932.1	167957.55	-0.0005798568	167960.03	671930.6	-0.00020236612
0	0.59928244	0.59927964	-1.614447e-10	0.01979899	0.01979899	0	119771.24	119770.695	-3.388889e-05	672244.9	166747.97	-0.00010118306	166750.47	672243.56	-0.000124533
0	0.59863675	0.59863394	-3.7670433e-10	0.019445425	0.019445427	0	119642.21	119641.66	-7.944444e-05	672557.6	165531.36	-0.00039694895	165533.86	672556.25	-0.00014009963
0	0.5979834	0.5979806	2.041255e-11	0.019091867	0.019091867	0	119511.63	119511.086	4.4444446e-06	672871.8	164302.45	-1.9458282e-06	164304.97	672870.4	4.6699875e-05
0	0.59732693	0.59732413	9.4640004e-11	0.018738298	0.018738298	0	119380.44	119379.87	1.4444445e-05	673184.75	163070.44	3.891656e-05	163072.95	673183.4	7.004981e-05
0	0.59666294	0.59666026	-6.708306e-10	0.018384792	0.018384792	0	119247.74	119247.19	-0.00013111111	673498.75	161826.92	-0.00045921543	161829.47	673497.44	-0.0004436488
0	0.59599143	0.5959887	2.7649727e-10	0.018031234	0.018031234	0	119113.53	119112.96	5.6111112e-05	673814.56	160570.81	8.9508096e-05	160573.4	673813.3	0.00028019925
0	0.5953163	0.5953135	-3.0154904e-10	0.017677665	0.017677665	0	118978.586	118978.02	-5.777778e-05	674128.25	159311.95	-0.00021014945	159314.55	674126.8	-0.00020236612
0	0.5946342	0.5946313	6.773255e-11	0.017324097	0.017324097	0	118842.26	118841.69	1.6666667e-05	674442.9	158042.36	-6.22665e-05	158044.97	674441.56	0.00015566625
0	0.5939449	0.59394205	-1.5958902e-10	0.016970545	0.016970545	0	118704.5	118703.945	-3.3333334e-05	674758.5	156761.72	-0.0002840909	156764.31	674757.06	0.00010118306
0	0.5932499	0.59324706	-2.9319844e-10	0.01661703	0.01661703	0	118565.61	118565.03	-5.5555556e-05	675073.7	155473.56	-0.00021014945	155476.2	675072.3	-0.00017901619
0	0.59254795	0.59254515	-1.8835217e-10	0.016263476	0.016263476	0	118425.32	118424.75	-3.3333334e-05	675389.1	154175.39	-0.000124533	154178.03	675387.8	-0.00012258717
0	0.5918391	0.5918362	1.4010432e-10	0.015909908	0.015909908	0	118283.64	118283.08	2.6666667e-05	675705.4	152866.69	0.00012064134	152869.33	675704	9.339975e-05
0	0.5911234	0.5911205	-1.4103216e-10	0.015556336	0.015556336	0	118140.6	118140.04	-3.3333334e-05	676022	151548.08	-0.00020236612	151550.73	676020.6	-1.5566626e-05
0	0.59040135	0.5903985	-8.768118e-10	0.015202789	0.015202789	0	117996.305	117995.74	-0.00017111111	676338.25	150220.9	-0.0007004981	150223.61	676337	-0.0005136986
0	0.58967113	0.5896683	-2.9319844e-10	0.014849221	0.014849221	0	117850.35	117849.77	-6.1666666e-05	676655.25	148881.69	-0.00023739104	148884.38	676653.9	-0.0001517746
0	0.588936	0.5889331	-8.4155377e-10	0.014495701	0.014495701	0	117703.44	117702.87	-0.00017555556	676971.5	147536.17	-0.000622665	147538.86	676970.25	-0.00053704856
0	0.58819294	0.58819	-5.9010824e-10	0.014142148	0.014142148	0	117554.93	117554.35	-0.00012	677288.06	146179.25	-0.00035803238	146181.98	677286.8	-0.00046699875
0	0.58744127	0.58743834	-1.8742431e-10	0.013788582	0.013788582	0	117404.7	117404.14	-3.3333334e-05	677605.56	144809.45	-0.00022960771	144812.19	677604.25	7.783313e-06
0	0.5866828	0.58667994	-3.2474512e-10	0.013435016	0.013435016	0	117253.13	117252.56	-5.8333335e-05	677923.06	143430.2	-0.0002568493	143432.9	677921.75	-0.00015566625
0	0.5859167	0.58591384	-2.5237334e-10	0.013081465	0.013081465	0	117100.016	117099.45	-4.777778e-05	678240.7	142040.05	-0.00024128269	142042.8	678239.3	-8.561644e-05
0	0.5851432	0.5851404	-2.579404e-10	0.012727934	0.012727934	0	116945.445	116944.86	-5.3333333e-05	678557.8	140639.98	-0.00029965752	140642.77	678556.6	-5.059153e-05
0	0.58436173	0.5843588	-1.9020785e-10	0.012374368	0.012374368	0	116789.22	116788.65	-4.1666666e-05	678875.8	139227.86	-0.00019458281	139230.6	678874.5	-7.004981e-05
0	0.5835697	0.58356684	-3.358792e-10	0.012020823	0.012020824	0	116630.95	116630.375	-6.4444444e-05	679194.2	137800.67	-0.00033468244	137803.42	679192.94	-0.00010896638
0	0.5827749	0.5827721	-2.746416e-10	0.011667254	0.011667254	0	116472.09	116471.52	-5.4444445e-05	679511	136371.14	-0.00019263699	136373.9	679509.7	-0.00017512453
0	0.5819673	0.5819645	-1.8556863e-11	0.011313713	0.011313713	0	116310.695	116310.13	-5.555556e-07	679829.25	134922.23	-0.00017123288	134925	679828.1	0.00017123288
0	0.5811549	0.581152	-2.8577568e-10	0.0109601505	0.0109601505	0	116148.32	116147.76	-5.4444445e-05	680146.4	133467.73	-0.00035803238	133470.52	680145.1	-2.3349938e-05
0	0.5803302	0.58032733	-6.7546985e-10	0.010606599	0.010606599	0	115983.5	115982.93	-0.00013388888	680465.6	131993.8	-0.0006012609	131996.58	680464.44	-0.00031327832
0	0.5794986	0.5794957	-5.8825256e-10	0.010253058	0.010253058	0	115817.3	115816.72	-0.00011833333	680783.44	130511.73	-0.00046699875	130514.516	680782.25	-0.00034246576
0	0.57865834	0.5786555	-2.8948707e-10	0.009899495	0.009899495	0	115649.37	115648.8	-5.7222223e-05	681101	129017.86	-0.00039694895	129020.66	681099.8	-3.113325e-05
0	0.5778112	0.5778083	-3.4515765e-10	0.009545933	0.009545933	0	115480.04	115479.49	-6.8333335e-05	681416.8	127515.98	-0.00028214508	127518.76	681415.7	-0.00014788294
0	0.5769511	0.5769483	-3.5629177e-10	0.009192396	0.009192396	0	115308.14	115307.586	-7.5e-05	681734.94	125993.71	-0.00047478208	125996.49	681733.8	-4.6699875e-05
0	0.57608396	0.5760812	-4.899012e-10	0.008838832	0.008838832	0	115134.87	115134.31	-9.722222e-05	682052.1	124462.68	-0.00046699875	124465.45	682050.94	-0.00022571607
0	0.5752071	0.5752044	-1.9299137e-10	0.0084852725	0.0084852725	0	114959.625	114959.06	-3.111111e-05	682368.75	122918.48	-0.00014982876	122921.25	682367.56	-8.561644e-05
0	0.57431966	0.5743171	-1.9484707e-10	0.008131738	0.008131738	0	114782.266	114781.73	-3.7777776e-05	682685.75	121359.07	-0.00028798258	121361.83	682684.75	3.891656e-05
0	0.573421	0.57341826	-5.0103532e-11	0.007778168	0.007778168	0	114602.65	114602.1	-1.2777778e-05	683003.8	119782.92	-0.0002568493	119785.664	683002.6	0.00015955791
0	0.5725137	0.57251096	-7.237177e-11	0.0074246107	0.0074246107	0	114421.31	114420.79	-1.4444445e-05	683320.2	118196.32	-0.00010118306	118199.07	683319.1	-3.8916564e-06
0	0.57159644	0.57159376	-5.492832e-10	0.007071074	0.007071074	0	114237.984	114237.46	-0.00010611111	683636.2	116596.125	-0.0005059153	116598.86	683635.06	-0.00023349938