# t (s)	mx ()	my ()	mz ()	B_extx (T)	B_exty (T)	B_extz (T)	m_fullx (A/m)	m_fully (A/m)	m_fullz (A/m)	m_full.region1x (A/m)	m_full.region1y (A/m)	m_full.region1z (A/m)	m_full.region2x (A/m)	m_full.region2y (A/m)	m_full.region2z (A/m)
0	0.6403786	0.64037806	-1.8892123e-10	0.07071081	0.0707108	0	139681.6	139681.47	-4.1666666e-05	643580.4	252949.42	-0.00016838351	252949.7	643579.9	-9.1620444e-05
0	0.6402818	0.64028186	0	0.07056912	0.07056912	0	139660.48	139660.48	-1.5432099e-06	643651.9	252742.84	-4.9524566e-05	252742.69	643651.7	6.933439e-05
0	0.6401822	0.6401823	-1.7947516e-10	0.070427895	0.070427895	0	139638.77	139638.78	-3.5493827e-05	643728.1	252527.22	-7.9239304e-05	252527	643728	-0.00013866878
0	0.6400814	0.64008147	-1.8892122e-11	0.070286475	0.070286475	0	139616.78	139616.78	-4.6296295e-06	643804.06	252310.17	9.904913e-06	252309.92	643803.9	-2.2286054e-05
0	0.63998073	0.63998085	-1.7947516e-10	0.07014494	0.07014494	0	139594.83	139594.84	-3.858025e-05	643881	252092.33	-0.00012876387	252092.06	643880.9	-0.000116382726
0	0.6398806	0.6398807	-2.0781334e-10	0.07000352	0.07000352	0	139572.97	139572.98	-4.6296296e-05	643957	251876.1	-0.00017333597	251875.86	643956.9	-0.00012195424
0	0.6397786	0.6397786	-1.3224485e-10	0.069862284	0.069862284	0	139550.72	139550.73	-2.6234567e-05	644033.6	251656.55	-7.9239304e-05	251656.34	644033.56	-7.9239304e-05
0	0.6396785	0.6396785	-1.700291e-10	0.06972061	0.06972061	0	139528.88	139528.9	-2.7777778e-05	644109.7	251440.44	-0.00010895404	251440.2	644109.56	-0.00010647781
0	0.63957703	0.6395771	-2.455976e-10	0.06957921	0.06957921	0	139506.75	139506.77	-5.4012347e-05	644186.06	251222.05	-0.00018819334	251221.83	644185.9	-0.00016652634
0	0.63947463	0.63947475	-3.3061212e-10	0.06943796	0.06943796	0	139484.4	139484.44	-6.9444446e-05	644262.75	251002.02	-0.00018819334	251001.75	644262.56	-0.0002723851
0	0.6393732	0.63937324	-5.6676365e-11	0.06929652	0.06929652	0	139462.3	139462.3	-1.3888889e-05	644338.94	250783.81	-3.9619652e-05	250783.56	644338.75	-4.457211e-05
0	0.6392717	0.63927174	-1.4169091e-10	0.069155015	0.06915502	0	139440.14	139440.16	-3.395062e-05	644415.25	250565.39	-9.409667e-05	250565.17	644415.06	-0.00012133518
0	0.63916945	0.6391696	-3.2116607e-10	0.0690136	0.0690136	0	139417.86	139417.86	-6.790124e-05	644491.6	250345.88	-0.00026743265	250345.61	644491.4	-0.00018324089
0	0.6390666	0.6390666	3.7784244e-11	0.06887218	0.06887218	0	139395.4	139395.4	4.6296295e-06	644568.5	250124.94	4.9524566e-05	250124.7	644568.3	-2.4762282e-06
0	0.6389649	0.638965	-1.700291e-10	0.0687307	0.0687307	0	139373.25	139373.23	-3.858025e-05	644644.94	249906.22	-8.914422e-05	249906	644644.8	-0.00014609746
0	0.63886184	0.6388619	-1.7947516e-10	0.06858927	0.06858928	0	139350.75	139350.75	-4.0123457e-05	644721.75	249685.08	-9.904913e-05	249684.83	644721.56	-0.00016343106
0	0.6387589	0.6387589	-1.8892123e-10	0.068448	0.068448	0	139328.3	139328.31	-4.3209875e-05	644798.2	249464.47	-0.00011885895	249464.25	644798.06	-0.00016343106
0	0.6386555	0.63865554	-1.9836728e-10	0.06830659	0.06830659	0	139305.75	139305.75	-4.552469e-05	644874.5	249243.42	-0.00011885895	249243.19	644874.4	-0.00017581221
0	0.638552	0.63855207	-8.501455e-11	0.06816509	0.068165086	0	139283.17	139283.19	-1.697531e-05	644951.8	249021.27	1.4857369e-05	249021.03	644951.56	-0.00015352615
0	0.63844883	0.6384489	-2.172594e-10	0.06802368	0.06802368	0	139260.66	139260.67	-4.7839505e-05	645028.6	248800.02	-0.00015476426	248799.78	645028.44	-0.00013619255
0	0.6383441	0.63834417	-3.7784244e-11	0.06788226	0.06788226	0	139237.81	139237.83	-7.716049e-06	645105.6	248576.33	5.9429476e-05	248576.08	645105.5	-0.000104001585
0	0.63824123	0.63824123	4.7230306e-11	0.06774077	0.067740776	0	139215.38	139215.39	1.5432099e-05	645182.06	248355.92	8.914422e-05	248355.69	645181.94	-1.9809826e-05
0	0.63813657	0.6381367	-1.8892122e-11	0.06759932	0.06759932	0	139192.58	139192.58	-6.1728397e-06	645258.4	248133.08	-2.104794e-05	248132.81	645258.25	-2.0428883e-05
0	0.63803166	0.6380317	-1.0390667e-10	0.067458086	0.067458086	0	139169.67	139169.69	-2.4691359e-05	645335.6	247908.88	-8.914422e-05	247908.66	645335.5	-8.047742e-05
0	0.6379278	0.63792795	-2.7393576e-10	0.06731665	0.06731665	0	139147.02	139147.03	-5.7098765e-05	645412.7	247686.48	-0.00018819334	247686.25	645412.5	-0.00020800317
0	0.6378225	0.6378225	-1.3224485e-10	0.067175	0.067175	0	139124.05	139124.05	-3.2407406e-05	645489.4	247462.31	-9.1001384e-05	247462.1	645489.2	-0.00010895404
0	0.63771623	0.6377163	-2.0781334e-10	0.06703376	0.06703376	0	139100.88	139100.88	-4.7839505e-05	645567.5	247235.48	-0.00010895404	247235.27	645567.3	-0.00020800317
0	0.6376123	0.63761234	-3.9673456e-10	0.06689233	0.066892326	0	139078.2	139078.22	-8.487654e-05	645643.75	247013.7	-0.00036648178	247013.48	645643.6	-0.00023524168
0	0.6375065	0.63750654	-1.4169091e-10	0.06675082	0.06675082	0	139055.12	139055.12	-2.3148148e-05	645720.9	246788.5	-9.904913e-05	246788.3	645720.7	-7.366779e-05
0	0.6374011	0.63740116	-3.7784244e-11	0.0666094	0.0666094	0	139032.14	139032.14	-1.5432099e-06	645797.94	246563.89	9.904913e-06	246563.69	645797.75	-2.104794e-05
0	0.6372949	0.63729495	-3.7784244e-11	0.06646815	0.06646815	0	139008.95	139008.97	-1.0802469e-05	645874.6	246338.45	0	246338.23	645874.44	-5.2000792e-05
0	0.6371878	0.6371878	-2.172594e-10	0.06632651	0.06632651	0	138985.58	138985.6	-5.0925926e-05	645952.94	246110.08	-0.00010895404	246109.88	645952.75	-0.00020490789
0	0.63708246	0.63708246	-4.7230306e-11	0.06618508	0.06618509	0	138962.62	138962.62	-1.2345679e-05	646029.5	245886.19	-2.9714738e-05	245885.97	646029.3	-4.7048336e-05
0	0.63697606	0.63697606	-1.3224485e-10	0.06604384	0.06604384	0	138939.44	138939.44	-2.6234567e-05	646106.8	245659.94	-0.00010895404	245659.69	646106.6	-0.00010895404
0	0.63686955	0.63686955	-2.0781334e-10	0.06590237	0.06590237	0	138916.19	138916.19	-3.858025e-05	646183.75	245433.8	-0.00017952654	245433.55	646183.6	-0.000116382726
0	0.6367615	0.6367616	-2.644897e-10	0.0657609	0.0657609	0	138892.62	138892.62	-5.7098765e-05	646261.3	245205.02	-0.00015847861	245204.77	646261.2	-0.00020057449
0	0.6366545	0.63665456	-1.1335273e-10	0.06561947	0.06561947	0	138869.3	138869.31	-2.6234567e-05	646338.8	244977.7	-8.914422e-05	244977.47	646338.7	-7.676308e-05
0	0.6365478	0.63654786	-9.446061e-11	0.06547823	0.06547823	0	138846.02	138846.03	-2.4691359e-05	646415.75	244751.5	-0.00012443047	244751.25	646415.56	-1.9809826e-05
0	0.63643956	0.6364396	-2.928279e-10	0.065336585	0.065336585	0	138822.39	138822.42	-6.790124e-05	646492.8	244522.72	-0.000227813	244522.48	646492.75	-0.00020305072
0	0.6363318	0.63633186	-1.4169091e-10	0.06519516	0.06519516	0	138798.89	138798.9	-3.5493827e-05	646570.4	244294.39	-0.00019809826	244294.19	646570.2	-3.219097e-05
0	0.63622373	0.6362238	-2.2670546e-10	0.06505392	0.06505392	0	138775.34	138775.34	-4.1666666e-05	646647.4	244066.06	-0.00015600238	244065.86	646647.25	-0.00014919275
0	0.6361147	0.6361148	-1.4169091e-10	0.06491244	0.06491244	0	138751.56	138751.56	-2.6234567e-05	646725.7	243835.22	-8.914422e-05	243834.98	646725.56	-8.171553e-05
0	0.6360069	0.6360069	-1.9836728e-10	0.06477098	0.06477098	0	138728.02	138728.02	-4.4753087e-05	646803.25	243606.6	-9.904913e-05	243606.36	646803	-0.00019562202
0	0.6358989	0.6358989	-2.5504365e-10	0.06462956	0.06462956	0	138704.47	138704.47	-5.5555556e-05	646880.2	243378.48	-6.62391e-05	243378.27	646880	-0.00028229
0	0.635789	0.635789	-2.0781334e-10	0.06448813	0.06448813	0	138680.48	138680.5	-4.3209875e-05	646957.75	243147.03	-9.904913e-05	243146.81	646957.6	-0.00018324089
0	0.6356796	0.6356797	-3.0227396e-10	0.06434667	0.06434667	0	138656.62	138656.64	-6.790124e-05	647035.7	242915.95	-0.00025752775	242915.77	647035.56	-0.00025752775
0	0.6355705	0.6355706	-7.556849e-11	0.064205244	0.064205244	0	138632.84	138632.84	-2.1604938e-05	647113.25	242685.69	-7.9239304e-05	242685.47	647113.1	-4.3333992e-05
0	0.6354611	0.63546115	-1.4169091e-10	0.06406396	0.06406396	0	138608.97	138608.97	-3.0864197e-05	647191	242454.78	-8.914422e-05	242454.56	647190.8	-0.00010647781
0	0.6353507	0.63535064	-2.7393576e-10	0.06392251	0.06392251	0	138584.89	138584.89	-6.0185186e-05	647268.44	242222.73	-0.000227813	242222.52	647268.3	-0.00020057449
0	0.63524085	0.63524085	-9.446061e-11	0.06378106	0.06378107	0	138560.92	138560.92	-1.5432099e-05	647346.56	241990.84	-2.5071811e-05	241990.61	647346.4	-0.000115763665
0	0.6351299	0.63513	-2.455976e-10	0.06363963	0.06363963	0	138536.75	138536.75	-5.4012347e-05	647424.2	241758	-0.00019809826	241757.81	647423.94	-0.00018819334
0	0.6350189	0.6350189	-3.0227396e-10	0.0634982	0.0634982	0	138512.52	138512.52	-6.1728395e-05	647502.56	241524.08	-0.00014857369	241523.84	647502.3	-0.00026990887
0	0.6349093	0.63490933	-1.3224485e-10	0.06335675	0.06335675	0	138488.61	138488.61	-2.4691359e-05	647579.8	241293.38	-5.447702e-05	241293.14	647579.7	-9.904913e-05
0	0.63479763	0.63479763	-2.455976e-10	0.06321528	0.063215286	0	138464.25	138464.27	-5.2469135e-05	647657.56	241059.3	-0.00014857369	241059.1	647657.44	-0.00019066957
0	0.6346875	0.6346875	-1.9836728e-10	0.06307402	0.06307402	0	138440.22	138440.22	-4.6296296e-05	647735.2	240827.44	-9.44062e-05	240827.23	647735	-0.00022038432
0	0.63457495	0.63457495	-1.5113698e-10	0.06293259	0.06293259	0	138415.67	138415.69	-3.7037036e-05	647813.44	240591.69	-0.00012876387	240591.45	647813.25	-8.914422e-05
0	0.6344636	0.6344636	-2.0781334e-10	0.06279097	0.06279097	0	138391.39	138391.4	-4.6296296e-05	647891.6	240357.6	-0.00012876387	240357.36	647891.5	-0.00018076466
0	0.6343519	0.6343519	-1.227988e-10	0.06264971	0.06264971	0	138367.03	138367.05	-2.9320987e-05	647969.44	240123.5	-4.9524566e-05	240123.3	647969.2	-0.00013866878
0	0.6342398	0.6342398	-1.8892123e-10	0.06250826	0.06250826	0	138342.6	138342.6	-3.2407406e-05	648047.4	239888.58	-0.00016838351	239888.34	648047.2	-6.685816e-05
0	0.63412696	0.63412696	-2.5504365e-10	0.062366802	0.062366802	0	138317.97	138317.97	-5.5555556e-05	648125.56	239652.5	-0.00019809826	239652.27	648125.3	-0.00014609746
0	0.6340152	0.6340152	-1.3224485e-10	0.062225346	0.062225346	0	138293.58	138293.58	-3.0864197e-05	648203.1	239418.3	-9.409667e-05	239418.12	648203	-0.00010647781
0	0.6339013	0.63390136	-1.8892122e-11	0.062084105	0.062084105	0	138268.75	138268.73	-3.0864198e-06	648281.3	239180.7	5.7881833e-05	239180.52	648281.1	-6.500099e-05
0	0.63378865	0.6337887	-2.455976e-10	0.061942484	0.061942484	0	138244.16	138244.17	-5.5555556e-05	648359.5	238944.77	-0.00014362123	238944.53	648359.3	-0.0002247177
0	0.6336749	0.633675	-1.227988e-10	0.061801035	0.061801035	0	138219.34	138219.38	-2.4691359e-05	648437.94	238707.08	-4.457211e-05	238706.83	648437.75	-0.00012876387
0	0.633562	0.63356197	-1.3224485e-10	0.061659794	0.061659794	0	138194.73	138194.73	-3.0864197e-05	648515.9	238471.12	-8.419176e-05	238470.89	648515.7	-8.914422e-05
0	0.6334476	0.6334476	-1.5113698e-10	0.0615183	0.0615183	0	138169.78	138169.78	-2.7777778e-05	648594.44	238232.34	-6.933439e-05	238232.14	648594.3	-0.00013619255
0	0.6333343	0.6333342	-2.0781334e-10	0.06137688	0.061376873	0	138145.08	138145.08	-4.6296296e-05	648672.4	237995.81	-0.00011885895	237995.61	648672.2	-0.00014362123
0	0.6332199	0.63321984	-2.455976e-10	0.061235435	0.061235435	0	138120.11	138120.11	-5.4012347e-05	648750.7	237757.27	-6.438194e-05	237757.06	648750.56	-0.00028043284
0	0.633105	0.6331049	-2.3615152e-10	0.061093986	0.061093986	0	138095.03	138095.05	-5.2469135e-05	648829.2	237517.89	-0.00016343106	237517.69	648829.06	-0.00016343106
0	0.6329902	0.63299024	-2.928279e-10	0.06095258	0.06095258	0	138070.03	138070.03	-6.635802e-05	648907.6	237278.89	-0.00018819334	237278.72	648907.5	-0.00021295562
0	0.6328753	0.6328754	-1.7947516e-10	0.06081112	0.060811125	0	138044.95	138044.95	-3.858025e-05	648985.94	237039.75	-0.00013866878	237039.53	648985.75	-8.2953644e-05
0	0.63276047	0.63276047	-2.0781334e-10	0.06066982	0.06066982	0	138019.9	138019.9	-4.6296296e-05	649064	236800.83	-0.00014362123	236800.66	649063.9	-0.00014362123
0	0.6326445	0.6326444	-4.7230306e-11	0.06052838	0.060528375	0	137994.6	137994.6	-6.1728397e-06	649142.8	236559.64	-2.9714738e-05	236559.45	649142.56	-1.7333597e-05
0	0.63252753	0.6325275	-1.8892123e-10	0.060386952	0.060386952	0	137969.08	137969.06	-4.3209875e-05	649221.9	236316.78	-5.447702e-05	236316.58	649221.7	-0.00020800317
0	0.63241315	0.63241315	-1.6058303e-10	0.06024551	0.06024551	0	137944.16	137944.16	-4.0123457e-05	649299.3	236079.31	-0.00016838351	236079.14	649299.1	-0.00010152536
0	0.63229764	0.6322976	-3.2116607e-10	0.060104065	0.060104065	0	137918.94	137918.94	-7.0987655e-05	649377.56	235839.31	-0.00021295562	235839.11	649377.4	-0.0002624802
0	0.63218004	0.63218004	-2.0781334e-10	0.05996265	0.05996265	0	137893.3	137893.28	-4.9382717e-05	649456.3	235595.92	-0.00018324089	235595.75	649456.1	-0.000141145
0	0.63206375	0.63206375	-1.8892123e-10	0.059821162	0.059821155	0	137867.94	137867.92	-3.858025e-05	649535.2	235354.3	-0.000104001585	235354.1	649534.94	-0.00015414521
0	0.63194704	0.631947	-1.6058303e-10	0.059679903	0.059679903	0	137842.45	137842.45	-4.3209875e-05	649613.9	235112.08	-0.00015847861	235111.88	649613.7	-0.000104001585
0	0.6318299	0.6318299	-2.8338182e-10	0.059538443	0.059538443	0	137816.94	137816.92	-6.1728395e-05	649692.3	234869.8	-0.00021295562	234869.61	649692.1	-0.00021419374
0	0.63171273	0.6317127	-2.455976e-10	0.059396844	0.059396844	0	137791.36	137791.34	-5.5555556e-05	649770.75	234627.14	-0.00021790808	234626.98	649770.6	-0.0001312401
0	0.6315943	0.6315943	-1.700291e-10	0.059255593	0.059255593	0	137765.52	137765.52	-3.7037036e-05	649849.5	234382.69	-0.00015847861	234382.5	649849.25	-9.65729e-05
0	0.63147706	0.631477	-2.3615152e-10	0.059114125	0.059114125	0	137739.94	137739.95	-5.0925926e-05	649928.3	234139.66	-0.00015290709	234139.45	649928.1	-0.0001931458
0	0.63135886	0.63135886	-3.2116607e-10	0.058972694	0.058972694	0	137714.17	137714.17	-6.635802e-05	650007	233895.6	-0.00021790808	233895.39	650006.8	-0.0002333845
0	0.6312409	0.63124084	1.8892122e-11	0.058831237	0.058831237	0	137688.45	137688.44	7.716049e-06	650085.56	233651.9	-9.904913e-06	233651.73	650085.3	5.447702e-05
0	0.6311214	0.63112146	-1.8892123e-10	0.058689967	0.058689967	0	137662.38	137662.39	-3.7037036e-05	650164.3	233405.94	-0.000117001786	233405.69	650164.06	-0.00012504953
0	0.63100314	0.63100314	-2.2670546e-10	0.058548383	0.058548383	0	137636.58	137636.58	-4.3209875e-05	650243.4	233161.19	-0.00013371633	233160.98	650243.2	-0.000141145
0	0.6308841	0.63088405	-2.3615152e-10	0.058406927	0.05840693	0	137610.61	137610.61	-5.5555556e-05	650322.2	232915.7	-0.00015847861	232915.53	650321.94	-0.00016838351
0	0.63076425	0.63076437	-3.3061212e-10	0.05826566	0.05826566	0	137584.5	137584.48	-7.0987655e-05	650400.75	232669.52	-0.00011885895	232669.31	650400.56	-0.00037700575
0	0.63064474	0.63064474	-3.0227396e-10	0.058124155	0.058124155	0	137558.4	137558.4	-6.481481e-05	650479.94	232422.89	-0.00017333597	232422.69	650479.75	-0.00024143225
0	0.63052523	0.6305252	-2.0781334e-10	0.057982776	0.057982776	0	137532.33	137532.33	-4.4753087e-05	650558.6	232176.84	-0.00017333597	232176.67	650558.4	-0.00014857369
0	0.6304051	0.6304051	-2.172594e-10	0.05784131	0.05784131	0	137506.14	137506.14	-4.6296296e-05	650637.75	231929.66	-0.00017828844	231929.47	650637.5	-0.00013619255
0	0.63028497	0.6302849	-2.0781334e-10	0.05769984	0.057699844	0	137479.94	137479.92	-4.6296296e-05	650716.4	231682.77	-0.00015847861	231682.58	650716.1	-0.00015909766
0	0.63016415	0.63016415	-2.172594e-10	0.057558466	0.057558466	0	137453.6	137453.58	-4.6296296e-05	650795.75	231434.31	-0.00019809826	231434.11	650795.5	-0.0001238114
0	0.6300435	0.63004345	-1.5113698e-10	0.057416998	0.057416998	0	137427.27	137427.27	-3.7037036e-05	650874.7	231186.38	-9.409667e-05	231186.17	650874.5	-0.00012876387
0	0.62992257	0.62992257	-9.446061e-12	0.057275698	0.057275698	0	137400.89	137400.89	-1.5432099e-06	650953.5	230938.31	3.4667195e-05	230938.14	650953.25	-5.8191363e-05
0	0.6298005	0.62980044	-7.556849e-11	0.057134222	0.057134222	0	137374.27	137374.25	-9.259259e-06	651032.44	230688.42	-1.9809826e-05	230688.22	651032.2	-2.9714738e-05
0	0.62967944	0.62967944	-1.700291e-10	0.05699285	0.056992855	0	137347.88	137347.86	-3.858025e-05	651111.8	230439.61	-0.00012876387	230439.44	651111.6	-0.00011143027
0	0.6295574	0.6295574	-2.455976e-10	0.056851387	0.056851387	0	137321.25	137321.23	-5.0925926e-05	651191.06	230189.44	-0.00014362123	230189.28	651190.9	-0.00018819334
0	0.6294353	0.6294353	-1.5113698e-10	0.05670992	0.05670991	0	137294.61	137294.61	-2.6234567e-05	651270.1	229939.48	-9.904913e-05	229939.3	651269.94	-8.419176e-05
0	0.6293125	0.6293125	-7.556849e-11	0.05656855	0.05656855	0	137267.81	137267.81	-1.697531e-05	651349.5	229688.19	-0.00010895404	229688	651349.25	-1.23811415e-05
0	0.6291904	0.6291904	-1.6058303e-10	0.056427028	0.056427028	0	137241.19	137241.17	-3.0864197e-05	651428.44	229438.36	-4.457211e-05	229438.19	651428.1	-0.00017085974
0	0.62906724	0.6290672	-5.6676365e-11	0.056285765	0.056285765	0	137214.33	137214.31	-1.0802469e-05	651507.7	229186.61	-5.9429476e-05	229186.47	651507.5	2.2286054e-05
0	0.6289446	0.6289445	-9.446061e-11	0.05614429	0.05614429	0	137187.55	137187.55	-1.5432099e-05	651586.75	228935.75	-1.4857369e-05	228935.56	651586.56	-8.914422e-05
0	0.6288198	0.62881976	-6.612243e-11	0.056002725	0.056002725	0	137160.34	137160.34	-1.697531e-05	651666.75	228681.17	-8.914422e-05	228680.98	651666.44	-4.9524565e-06
0	0.6286973	0.6286972	-3.0227396e-10	0.055861466	0.055861466	0	137133.61	137133.61	-6.790124e-05	651745.44	228430.88	-0.00021790808	228430.69	651745.3	-0.00022286054
0	0.6285734	0.6285734	-9.446061e-11	0.05571998	0.05571998	0	137106.61	137106.6	-2.4691359e-05	651824.9	228178.11	-9.904913e-05	228177.95	651824.7	-3.714342e-05
0	0.6284493	0.6284493	-9.446061e-11	0.055578638	0.055578638	0	137079.55	137079.53	-1.8518518e-05	651904.1	227925.14	-6.933439e-05	227924.97	651903.9	-4.8905506e-05
0	0.62832475	0.6283246	-1.6058303e-10	0.055437114	0.055437114	0	137052.36	137052.34	-3.5493827e-05	651983.6	227671.12	-0.00015847861	227670.98	651983.44	-9.65729e-05
0	0.6282	0.6282	-2.7393576e-10	0.055295844	0.055295844	0	137025.17	137025.14	-6.0185186e-05	652063.1	227417.11	-0.0002476228	227416.9	652062.9	-0.00016962163
0	0.6280752	0.62807506	-2.644897e-10	0.05515437	0.05515437	0	136997.9	136997.9	-5.5555556e-05	652142.4	227162.95	-0.00017828844	227162.78	652142.1	-0.000184479
0	0.62795	0.6279499	-1.8892123e-10	0.055012804	0.055012804	0	136970.62	136970.62	-4.7839505e-05	652221.75	226908.45	-0.00019809826	226908.28	652221.44	-0.00011143027
0	0.6278244	0.6278243	-1.6058303e-10	0.05487153	0.05487153	0	136943.22	136943.22	-4.1666666e-05	652301.25	226653.06	-0.00013866878	226652.86	652301	-0.0001139065
0	0.6276985	0.6276984	-1.700291e-10	0.054730058	0.054730058	0	136915.77	136915.75	-3.7037036e-05	652380.75	226397.25	-0.00010895404	226397.06	652380.5	-0.0001139065
0	0.6275724	0.62757236	-4.7230306e-11	0.054588675	0.054588675	0	136888.27	136888.25	-1.5432099e-05	652460.25	226141.3	-3.9619652e-05	226141.12	652460	-3.714342e-05
0	0.6274463	0.6274462	-3.1172e-10	0.05444718	0.05444718	0	136860.75	136860.72	-6.635802e-05	652539.75	225885.06	-0.00018819334	225884.89	652539.56	-0.00023400357
0	0.62731975	0.6273197	-2.172594e-10	0.054305922	0.05430593	0	136833.16	136833.16	-4.4753087e-05	652619.4	225628.44	-0.00017333597	225628.28	652619.1	-0.00010276347
0	0.6271927	0.6271927	-2.644897e-10	0.054164376	0.05416437	0	136805.44	136805.42	-5.7098765e-05	652699.2	225370.75	-0.000141145	225370.6	652699	-0.00023028922
0	0.6270657	0.62706566	-1.9836728e-10	0.05402288	0.05402288	0	136777.73	136777.72	-4.6296296e-05	652778.7	225113.44	-0.00021295562	225113.3	652778.44	-8.419176e-05
0	0.62693775	0.62693775	-1.0390667e-10	0.05388161	0.05388161	0	136749.81	136749.81	-2.1604938e-05	652858.44	224854.53	-5.447702e-05	224854.39	652858.2	-0.000104001585
0	0.62681043	0.62681025	-1.6058303e-10	0.053740077	0.053740077	0	136722.05	136722.05	-3.395062e-05	652937.9	224596.86	-5.9429476e-05	224596.67	652937.56	-0.00015352615
0	0.62668324	0.6266831	-2.5504365e-10	0.053598743	0.053598747	0	136694.31	136694.3	-5.2469135e-05	653017.3	224339.3	-0.0001931458	224339.12	653017.06	-0.00018262184
0	0.62655455	0.6265545	-6.612243e-11	0.053457268	0.053457268	0	136666.22	136666.22	-1.5432099e-05	653097.1	224079.3	-6.438194e-05	224079.11	653096.9	-3.095285e-05
0	0.62642586	0.6264258	-1.9836728e-10	0.053315774	0.053315774	0	136638.17	136638.16	-4.4753087e-05	653177	223819.34	-0.00021790808	223819.17	653176.75	-6.685816e-05
0	0.6262977	0.62629765	-1.5113698e-10	0.053174455	0.053174455	0	136610.23	136610.22	-3.5493827e-05	653256.6	223560.34	-6.438194e-05	223560.17	653256.3	-0.00012752575
0	0.6261687	0.6261686	-2.3615152e-10	0.05303297	0.05303296	0	136582.06	136582.06	-5.5555556e-05	653336.44	223299.97	-0.000227813	223299.8	653336.2	-0.00012876387
0	0.62603927	0.6260392	-3.2116607e-10	0.052891646	0.052891638	0	136553.84	136553.83	-7.2530864e-05	653416.2	223038.94	-0.00020305072	223038.78	653415.94	-0.0002798138
0	0.62591004	0.6259099	-1.8892122e-11	0.05275014	0.05275014	0	136525.64	136525.64	-4.6296295e-06	653495.6	222778.62	1.9809826e-05	222778.42	653495.3	-3.714342e-05
0	0.6257799	0.6257798	-1.5113698e-10	0.052608833	0.052608833	0	136497.28	136497.28	-2.9320987e-05	653575.7	222516.34	-0.00012876387	222516.17	653575.4	-8.914422e-05
0	0.62565017	0.6256501	-5.6676365e-11	0.05246734	0.05246734	0	136468.95	136468.95	-9.259259e-06	653655.5	222254.88	-3.9619652e-05	222254.72	653655.25	0
0	0.6255195	0.6255194	-1.0390667e-10	0.05232584	0.052325834	0	136440.48	136440.47	-2.1604938e-05	653735.6	221991.84	-9.409667e-05	221991.67	653735.4	-6.19057e-05
0	0.6253882	0.62538815	2.8338182e-11	0.052184533	0.052184533	0	136411.84	136411.83	3.0864198e-06	653815.2	221728.48	4.457211e-05	221728.33	653814.94	-5.2000792e-05
0	0.62525773	0.6252577	-1.4169091e-10	0.052042995	0.052042995	0	136383.39	136383.36	-2.9320987e-05	653895.6	221465.44	-9.904913e-05	221465.25	653895.3	-0.0001139065
0	0.6251268	0.62512666	-2.7393576e-10	0.05190171	0.05190171	0	136354.81	136354.8	-5.7098765e-05	653975.44	221202.22	-0.00018571712	221202.05	653975.2	-0.00021171752
0	0.62499475	0.62499464	-1.227988e-10	0.051760204	0.05176021	0	136326	136326	-3.0864197e-05	654054.94	220937.8	-0.00012876387	220937.64	654054.75	-6.19057e-05
0	0.62486297	0.62486285	-1.700291e-10	0.051618695	0.051618688	0	136297.28	136297.25	-3.7037036e-05	654135.75	220672.62	-0.00010895404	220672.48	654135.5	-0.00014362123
0	0.6247314	0.6247313	-1.3224485e-10	0.051477417	0.051477417	0	136268.58	136268.56	-3.5493827e-05	654215	220409.19	-0.0001139065	220409.02	654214.75	-7.985836e-05
0	0.624597	0.62459695	-6.612243e-11	0.05133591	0.05133591	0	136239.27	136239.25	-1.3888889e-05	654296.5	220139.47	-7.428684e-05	220139.31	654296.25	-3.9619652e-05
0	0.6244665	0.62446636	-5.6676365e-11	0.051194564	0.05119457	0	136210.78	136210.77	-1.3888889e-05	654375.6	219877.61	-6.933439e-05	219877.42	654375.3	-2.2286054e-05
0	0.6243336	0.6243335	-1.1335273e-10	0.051053066	0.051053066	0	136181.81	136181.78	-1.697531e-05	654455.6	219611.62	-7.9239304e-05	219611.48	654455.4	-6.438194e-05
0	0.6242006	0.6242004	-6.612243e-11	0.050911784	0.050911777	0	136152.78	136152.77	-9.259259e-06	654535.1	219345.77	-2.9714738e-05	219345.61	654534.9	-4.209588e-05
0	0.62406725	0.6240672	-2.928279e-10	0.05077028	0.05077028	0	136123.7	136123.69	-6.635802e-05	654615.5	219078.73	-0.0002377179	219078.64	654615.25	-0.0002104794
0	0.62393326	0.6239332	-8.973758e-11	0.05062878	0.05062878	0	136094.48	136094.47	-1.697531e-05	654695.9	218810.83	-2.9714738e-05	218810.69	654695.56	-8.6667984e-05
0	0.6237995	0.62379944	-9.446061e-11	0.050487492	0.050487492	0	136065.3	136065.28	-1.3888889e-05	654775.8	218543.6	-7.9239304e-05	218543.47	654775.56	-7.4286845e-06
0	0.6236656	0.62366545	-3.0227396e-10	0.05034593	0.05034593	0	136036.08	136036.05	-6.481481e-05	654855.6	218276.23	-0.00017828844	218276.11	654855.3	-0.00025009905
0	0.6235305	0.62353045	-1.8892123e-10	0.050204657	0.050204657	0	136006.64	136006.62	-3.5493827e-05	654936.06	218006.78	-0.0001238114	218006.67	654935.8	-0.00011143027
0	0.6233954	0.6233953	-2.0781334e-10	0.050063137	0.05006314	0	135977.16	135977.14	-4.3209875e-05	655016.6	217737.05	-0.00014857369	217736.92	655016.4	-0.00015724049
0	0.62326044	0.62326026	-2.0781334e-10	0.049921636	0.049921636	0	135947.7	135947.67	-5.4012347e-05	655096.44	217468.19	-0.00010895404	217468.05	655096.2	-0.0002104794
0	0.6231249	0.6231247	-2.3615152e-10	0.049780358	0.049780358	0	135918.16	135918.14	-5.0925926e-05	655176.9	217198.06	-0.00012876387	217197.95	655176.56	-0.00021605092
0	0.62298906	0.62298894	-1.8892123e-10	0.04963884	0.04963884	0	135888.53	135888.48	-3.858025e-05	655257.2	216927.64	-0.00013866878	216927.48	655256.9	-0.0001312401
0	0.622853	0.6228528	-2.2670546e-10	0.049497515	0.049497515	0	135858.86	135858.81	-5.7098765e-05	655337.5	216656.78	-0.00018819334	216656.64	655337.2	-0.00017581221
0	0.6227167	0.62271655	-1.5113698e-10	0.049356006	0.049356006	0	135829.11	135829.1	-3.2407406e-05	655417.9	216385.62	-0.00011885895	216385.48	655417.56	-8.419176e-05
0	0.62258047	0.6225803	-1.7947516e-10	0.04921472	0.04921472	0	135799.4	135799.38	-4.1666666e-05	655497.75	216115.02	-0.00012876387	216114.86	655497.5	-0.00016095483
0	0.6224433	0.6224432	-1.700291e-10	0.049073216	0.049073216	0	135769.5	135769.45	-3.5493827e-05	655578.3	215842.42	-0.00010895404	215842.3	655578.06	-0.00012876387
0	0.6223061	0.622306	-2.8338182e-11	0.048931714	0.048931714	0	135739.56	135739.55	-7.716049e-06	655658.75	215570.02	-1.9809826e-05	215569.89	655658.44	-2.9714738e-05
0	0.6221685	0.6221684	-1.8892122e-11	0.048790433	0.048790433	0	135709.55	135709.53	-1.5432099e-06	655739.06	215297	-2.4762283e-05	215296.86	655738.8	9.904913e-06
0	0.6220308	0.6220307	-1.1335273e-10	0.048648864	0.048648864	0	135679.5	135679.48	-2.4691359e-05	655819.5	215023.7	-4.9524566e-05	215023.6	655819.2	-8.6667984e-05
0	0.62189263	0.6218926	-1.4169091e-10	0.048507594	0.048507594	0	135649.39	135649.36	-3.0864197e-05	655899.56	214750.31	-2.9714738e-05	214750.19	655899.25	-0.00017952654
0	0.62175405	0.621754	-1.6058303e-10	0.048366074	0.048366074	0	135619.16	135619.12	-3.2407406e-05	655980.3	214475.58	-4.9524566e-05	214475.5	655979.94	-0.00015600238
0	0.62161326	0.6216132	-2.644897e-10	0.048224572	0.048224576	0	135588.44	135588.4	-5.0925926e-05	656061.25	214197.53	-0.00017828844	214197.39	656060.9	-0.00016838351
0	0.62147653	0.6214764	-2.7393576e-10	0.048083298	0.048083298	0	135558.61	135558.6	-6.1728395e-05	656141.2	213926.16	-0.00015352615	213926	656140.8	-0.0002234796
0	0.6213352	0.6213351	0	0.04794178	0.047941785	0	135527.78	135527.77	1.5432099e-06	656221.7	213647.7	6.933439e-05	213647.58	656221.4	-2.9714738e-05
0	0.6211975	0.62119734	-2.3615152e-10	0.047800448	0.047800444	0	135497.75	135497.72	-5.2469135e-05	656302	213374.58	-0.00018324089	213374.42	656301.75	-0.00015104993
0	0.62105536	0.6210552	-2.455976e-10	0.047658946	0.047658946	0	135466.75	135466.7	-5.5555556e-05	656383.94	213093.7	-0.00023276545	213093.6	656383.6	-0.00013371633
0	0.6209178	0.6209176	-5.6676365e-11	0.047517657	0.047517657	0	135436.72	135436.69	-1.5432099e-05	656463.1	212821.84	-6.438194e-05	212821.72	656462.8	-3.714342e-05
0	0.62077665	0.62077653	-2.5504365e-10	0.047376156	0.047376156	0	135405.95	135405.94	-6.0185186e-05	656543.8	212543.7	-0.00020800317	212543.55	656543.5	-0.00020800317
0	0.62063617	0.62063605	-1.227988e-10	0.047234654	0.047234654	0	135375.3	135375.28	-2.6234567e-05	656624.25	212266.52	-5.9429476e-05	212266.39	656624	-7.862024e-05
0	0.6204947	0.6204946	-1.700291e-10	0.047093365	0.04709336	0	135344.44	135344.44	-3.395062e-05	656705.2	211987.53	-0.00012876387	211987.44	656704.9	-9.65729e-05
0	0.62035376	0.6203536	-1.0390667e-10	0.0469518	0.0469518	0	135313.7	135313.66	-2.6234567e-05	656785.4	211709.9	-6.933439e-05	211709.81	656785.1	-0.000104001585
0	0.6202112	0.62021106	-1.7947516e-10	0.046810526	0.046810526	0	135282.62	135282.6	-4.1666666e-05	656865.8	211430	-0.000104001585	211429.89	656865.5	-0.00019066957
0	0.6200676	0.62006754	-2.172594e-10	0.04666901	0.04666901	0	135251.28	135251.27	-4.6296296e-05	656946.94	211147.83	-0.00017828844	211147.72	656946.7	-0.00014362123
0	0.6199272	0.6199271	-2.3615152e-10	0.04652774	0.04652774	0	135220.69	135220.64	-4.9382717e-05	657027.5	210870.84	-0.00017302645	210870.73	657027.1	-0.00017581221
0	0.6197848	0.61978465	-2.3615152e-10	0.04638624	0.04638624	0	135189.61	135189.58	-5.4012347e-05	657108.1	210590.8	-0.0001931458	210590.67	657107.75	-0.00016714541
0	0.6196401	0.61964	-1.700291e-10	0.04624473	0.04624473	0	135158.05	135158.02	-3.7037036e-05	657189.6	210306.66	-0.0001238114	210306.56	657189.3	-0.00014176406
0	0.6194983	0.61949813	-3.2116607e-10	0.046103444	0.046103444	0	135127.11	135127.08	-7.407407e-05	657269.3	210028.4	-0.00027733756	210028.3	657269	-0.00022286054
0	0.6193553	0.61935514	-8.501455e-11	0.045961883	0.045961883	0	135095.94	135095.89	-1.3888889e-05	657349.8	209747.72	-5.9429476e-05	209747.64	657349.5	-3.714342e-05
0	0.6192105	0.61921036	-8.501455e-11	0.045820594	0.045820594	0	135064.34	135064.31	-1.0802469e-05	657430.8	209463.98	-7.428684e-05	209463.89	657430.5	-3.4667195e-05
0	0.619067	0.6190669	-3.1172e-10	0.045679096	0.045679096	0	135033.05	135033.02	-6.790124e-05	657511.3	209182.73	-0.0002377179	209182.62	657510.94	-0.00015104993
0	0.61892194	0.6189219	-2.455976e-10	0.0455376	0.0455376	0	135001.4	135001.36	-5.5555556e-05	657592.5	208898.39	-0.00016126437	208898.3	657592.25	-0.00020552694
0	0.6187772	0.6187771	-1.3224485e-10	0.0453963	0.0453963	0	134969.83	134969.8	-2.9320987e-05	657673.25	208615.02	-0.00011885895	208614.92	657672.94	-3.4667195e-05
0	0.6186324	0.6186322	-2.0781334e-10	0.04525481	0.04525481	0	134938.25	134938.19	-4.3209875e-05	657753.6	208331.78	-0.00015847861	208331.7	657753.3	-0.00012628763