# t (s)	mx ()	my ()	mz ()	B_extx (T)	B_exty (T)	B_extz (T)	m_fullx (A/m)	m_fully (A/m)	m_fullz (A/m)	m_full.region1x (A/m)	m_full.region1y (A/m)	m_full.region1z (A/m)	m_full.region2x (A/m)	m_full.region2y (A/m)	m_full.region2z (A/m)
0	0.65024596	0.65024585	-5.596069e-10	0.070710756	0.070710756	0	115415.29	115415.26	-9.8615914e-05	635323.5	275021	-0.00038209607	275020.88	635323.1	-0.00043668124
0	0.65015453	0.65015405	-2.0171878e-10	0.070569135	0.070569135	0	115399.05	115398.98	-3.9792387e-05	635407.4	274808.78	-0.00013646288	274808.9	635406.94	-0.0001228166
0	0.65005845	0.650058	-4.8152227e-10	0.07042789	0.07042789	0	115382.01	115381.92	-8.4775085e-05	635496.1	274585.62	-0.00021834062	274585.78	635495.6	-0.00041621178
0	0.6499626	0.6499621	-2.602823e-10	0.07028644	0.07028644	0	115364.984	115364.914	-3.9792387e-05	635584.6	274362.88	-0.00016375545	274363.03	635584.2	-0.00016375545
0	0.64986634	0.64986587	-2.2123994e-10	0.07014497	0.07014497	0	115347.91	115347.83	-3.9792387e-05	635674.06	274138.72	-8.1877726e-05	274138.84	635673.5	-0.0002319869
0	0.6497699	0.6497694	-2.2123994e-10	0.07000352	0.07000352	0	115330.8	115330.7	-4.3252596e-05	635763.06	273914.62	-0.00010917031	273914.8	635762.6	-0.0002456332
0	0.64967316	0.6496727	-2.4076113e-10	0.06986227	0.06986227	0	115313.62	115313.53	-4.1522493e-05	635852.1	273690.28	-0.00030021835	273690.4	635851.6	-4.0938863e-05
0	0.6495764	0.6495759	-6.051563e-10	0.069720656	0.069720656	0	115296.43	115296.34	-0.00010726644	635941.3	273465.5	-0.0004639738	273465.66	635940.75	-0.00042303494
0	0.64947885	0.6494784	-2.4726818e-10	0.06957922	0.06957922	0	115279.12	115279.05	-4.3252596e-05	636030.75	273239.44	-0.00016375545	273239.6	636030.3	-0.00019104804
0	0.64938176	0.6493813	-6.1817046e-10	0.06943796	0.06943796	0	115261.89	115261.805	-0.00011418685	636120.2	273014.12	-0.00054585154	273014.3	636119.7	-0.0003548035
0	0.6492842	0.6492837	-5.921422e-10	0.06929647	0.06929647	0	115244.57	115244.49	-0.00010726644	636209.6	272788	-0.00038209607	272788.12	636209.2	-0.0005049127
0	0.64918655	0.649186	-2.8631053e-10	0.069155045	0.06915505	0	115227.24	115227.16	-5.1903113e-05	636298.8	272562.2	-0.00027292577	272562.38	636298.3	-0.0002319869
0	0.6490875	0.6490871	-3.2535286e-10	0.0690136	0.0690136	0	115209.664	115209.58	-6.228374e-05	636388.8	272333.6	-0.00019104804	272333.78	636388.4	-0.00028657206
0	0.64899	0.6489895	-1.5616937e-10	0.06887216	0.06887216	0	115192.34	115192.26	-2.4221454e-05	636478.06	272107.75	-6.823144e-05	272107.88	636477.6	-0.00010917031
0	0.6488912	0.64889073	-1.6267643e-10	0.068730734	0.068730734	0	115174.82	115174.74	-3.2871973e-05	636567.94	271879.66	-5.4585154e-05	271879.8	636567.5	-0.00019104804
0	0.64879256	0.648792	-6.5070574e-11	0.068589285	0.068589285	0	115157.305	115157.23	-1.2975778e-05	636658.06	271651.3	-8.1877726e-05	271651.47	636657.6	2.7292577e-05
0	0.6486935	0.648693	-1.3014115e-10	0.06844799	0.06844799	0	115139.734	115139.65	-2.5951556e-05	636747.9	271422.88	-0.00010917031	271423.06	636747.4	-0.00016375545
0	0.64859444	0.648594	-2.602823e-10	0.06830654	0.06830654	0	115122.13	115122.05	-4.49827e-05	636837.7	271194.28	-0.00027292577	271194.44	636837.25	-8.870087e-05
0	0.6484952	0.6484948	-2.5377522e-10	0.06816512	0.06816512	0	115104.53	115104.45	-4.7577854e-05	636927.7	270965.47	-0.00016375545	270965.62	636927.2	-0.00017740174
0	0.64839494	0.64839447	-3.7090225e-10	0.068023674	0.06802368	0	115086.74	115086.66	-6.5743945e-05	637018.2	270734.6	-0.00030021835	270734.78	637017.6	-0.0002456332
0	0.648295	0.6482945	-5.8563515e-11	0.06788223	0.06788224	0	115069	115068.914	-1.0380623e-05	637108.6	270504.16	-5.4585154e-05	270504.3	637108.2	-8.1877726e-05
0	0.6481956	0.64819515	-3.1233874e-10	0.06774082	0.06774082	0	115051.35	115051.28	-5.536332e-05	637198.06	270275.6	-0.00021834062	270275.78	637197.7	-0.00020469433
0	0.6480944	0.6480939	1.1061997e-10	0.06759933	0.06759933	0	115033.4	115033.305	1.9031142e-05	637288.8	270043.16	0.00010917031	270043.34	637288.3	5.4585154e-05
0	0.6479946	0.64799416	-2.1473288e-10	0.06745807	0.06745807	0	115015.67	115015.586	-3.9792387e-05	637379.1	269813.2	-0.00016375545	269813.34	637378.5	-0.00013646288
0	0.6478928	0.6478923	-5.4008575e-10	0.067316614	0.067316614	0	114997.625	114997.52	-9.6885815e-05	637469.75	269579.97	-0.00040938865	269580.16	637469.3	-0.0003548035
0	0.6477921	0.6477915	-5.8563515e-10	0.06717501	0.06717501	0	114979.73	114979.64	-9.948097e-05	637560.6	269348.1	-0.0004912664	269348.28	637560.06	-0.0003548035
0	0.647691	0.6476904	-2.732964e-10	0.06703377	0.06703377	0	114961.8	114961.695	-4.584775e-05	637651.25	269115.9	-0.00019104804	269116.1	637650.75	-0.00015010918
0	0.6475879	0.64758736	-1.4966232e-10	0.0668923	0.0668923	0	114943.49	114943.4	-2.4221454e-05	637743.3	268879.5	-5.4585154e-05	268879.75	637742.8	-0.00013646288
0	0.64748794	0.6474874	-3.1233874e-10	0.066750854	0.066750854	0	114925.734	114925.64	-5.7093424e-05	637832.25	268650.53	-0.0002456332	268650.72	637831.75	-0.0002319869
0	0.647386	0.6473855	1.821976e-10	0.06660941	0.066609405	0	114907.66	114907.56	3.2871973e-05	637923.1	268417.06	5.4585154e-05	268417.25	637922.6	0.00020469433
0	0.64728385	0.6472833	-1.821976e-10	0.06646814	0.06646814	0	114889.52	114889.44	-2.9411765e-05	638013.9	268183.38	0	268183.53	638013.3	-0.00020469433
0	0.647181	0.64718044	1.9521171e-11	0.06632654	0.06632655	0	114871.27	114871.17	0	638104.8	267948.38	4.0938863e-05	267948.56	638104.25	-1.3646289e-05
0	0.6470779	0.6470773	-4.1645168e-10	0.066185094	0.0661851	0	114852.984	114852.875	-7.266436e-05	638196	267712.9	-0.00038209607	267713.12	638195.5	-0.0002797489
0	0.6469756	0.6469751	-4.8152227e-10	0.06604383	0.06604383	0	114834.82	114834.72	-8.650519e-05	638287.1	267478.6	-0.00040938865	267478.8	638286.56	-0.00031386464
0	0.64687026	0.64686984	-3.3185993e-10	0.06590232	0.06590232	0	114816.125	114816.02	-5.536332e-05	638380.3	267237.9	-0.0003275109	267238.12	638379.7	-0.0001228166
0	0.6467689	0.6467684	-2.732964e-10	0.06576094	0.06576094	0	114798.125	114798.02	-5.017301e-05	638469.5	267006.78	-0.0002456332	267006.97	638468.94	-0.00018422489
0	0.6466646	0.6466641	-1.4966232e-10	0.06561947	0.06561947	0	114779.62	114779.516	-2.5951556e-05	638561	266769.28	-5.4585154e-05	266769.5	638560.44	-0.00015010918
0	0.6465609	0.6465604	-4.099446e-10	0.06547822	0.06547822	0	114761.195	114761.11	-7.266436e-05	638652.56	266532.47	-0.00021834062	266532.66	638652.06	-0.00039574236
0	0.64645666	0.64645606	-3.1233874e-10	0.06533663	0.06533663	0	114742.7	114742.61	-5.7093424e-05	638744.3	266294.84	-0.00021834062	266295.03	638743.75	-0.00021834062
0	0.64635247	0.6463519	-5.140575e-10	0.06519517	0.06519517	0	114724.195	114724.11	-8.99654e-05	638835.6	266057.6	-0.0003548035	266057.78	638835.06	-0.00040938865
0	0.64624774	0.64624727	-1.6267643e-10	0.0650539	0.0650539	0	114705.63	114705.516	-2.768166e-05	638927.25	265819.47	-8.1877726e-05	265819.7	638926.6	-0.00017740174
0	0.6461429	0.64614224	-1.4315527e-10	0.06491239	0.06491239	0	114687	114686.91	-2.5951556e-05	639018.8	265580.88	-0.00010917031	265581.1	639018.4	-7.505459e-05
0	0.64603627	0.6460357	4.55494e-11	0.06477102	0.06477102	0	114668.086	114667.99	6.920415e-06	639111.1	265339.44	6.823144e-05	265339.66	639110.6	1.3646289e-05
0	0.6459325	0.6459319	-2.27747e-10	0.06462957	0.06462957	0	114649.68	114649.57	-3.8062284e-05	639202.4	265102.94	-0.00015010918	265103.2	639201.75	-0.00016375545
0	0.64582676	0.6458262	-3.513811e-10	0.06448808	0.06448808	0	114630.9	114630.79	-6.141869e-05	639294.2	264862.97	-0.00027292577	264863.2	639293.6	-0.0002661026
0	0.64572054	0.6457199	-6.5070574e-11	0.064346716	0.064346716	0	114612.02	114611.94	-1.5570935e-05	639386.3	264622.06	-8.1877726e-05	264622.3	639385.8	-1.3646289e-05
0	0.6456142	0.64561355	-5.596069e-10	0.064205244	0.064205244	0	114593.164	114593.07	-9.6885815e-05	639478.2	264381.38	-0.00027292577	264381.6	639477.7	-0.00043668124
0	0.645508	0.6455075	1.3014115e-11	0.064063944	0.064063944	0	114574.33	114574.22	5.1903116e-06	639570.56	264140.53	0	264140.75	639569.94	6.823144e-05
0	0.6454001	0.64539963	-3.3836697e-10	0.06392247	0.06392247	0	114555.19	114555.09	-6.228374e-05	639663.1	263896.88	-0.00016375545	263897.1	639662.6	-0.00030021835
0	0.6452941	0.6452935	-3.3836697e-10	0.063781105	0.063781105	0	114536.34	114536.234	-5.882353e-05	639755.25	263656.12	-0.00021834062	263656.38	639754.7	-0.0002456332
0	0.64518756	0.64518696	-2.4076113e-10	0.06363964	0.06363964	0	114517.445	114517.34	-4.1522493e-05	639847.2	263415.16	-0.0002456332	263415.4	639846.6	-6.823144e-05
0	0.6450792	0.6450785	-2.8631053e-10	0.063498154	0.063498154	0	114498.2	114498.09	-4.8442907e-05	639940.06	263170.5	-0.00027292577	263170.78	639939.44	-0.00010917031
0	0.64497226	0.64497167	-4.2946577e-10	0.063356794	0.063356794	0	114479.23	114479.125	-6.920415e-05	640032	262929	-0.0003548035	262929.22	640031.44	-0.00021834062
0	0.64486355	0.6448629	-2.602823e-10	0.06321528	0.06321528	0	114459.92	114459.81	-4.67128e-05	640124.9	262683.75	-0.00027292577	262684.03	640124.3	-9.552402e-05
0	0.6447555	0.64475495	-3.3185993e-10	0.06307401	0.063074015	0	114440.76	114440.66	-5.536332e-05	640217.25	262440.3	-0.0002456332	262440.5	640216.7	-0.0002456332
0	0.6446471	0.6446465	-3.8391637e-10	0.06293254	0.06293254	0	114421.52	114421.414	-7.266436e-05	640310.2	262195.62	-0.00038209607	262195.88	640309.56	-0.0002456332
0	0.6445384	0.6445378	-1.366482e-10	0.062790975	0.06279098	0	114402.22	114402.12	-2.5086505e-05	640402.75	261950.72	2.7292577e-05	261950.97	640402.1	-0.00017740174
0	0.64442885	0.64442825	-2.5377522e-10	0.06264971	0.06264971	0	114382.77	114382.664	-4.584775e-05	640496.44	261703.72	-0.00013646288	261703.94	640495.9	-0.00016375545
0	0.6443211	0.6443204	-1.9521172e-10	0.06250823	0.06250823	0	114363.64	114363.54	-3.3737026e-05	640588.7	261460.6	-0.00013646288	261460.84	640588	-0.00010917031
0	0.6442109	0.64421034	-2.4726818e-10	0.062366836	0.062366836	0	114344.1	114343.99	-4.4117645e-05	640681.56	261213.45	-0.00019104804	261213.69	640681	-0.00015010918
0	0.64410096	0.64410037	-2.2123994e-10	0.062225346	0.062225346	0	114324.58	114324.48	-3.719723e-05	640775.06	260966.06	-0.00010917031	260966.31	640774.44	-0.0002456332
0	0.6439919	0.6439913	-3.8391637e-10	0.062084086	0.062084086	0	114305.21	114305.1	-6.920415e-05	640867.75	260720.48	-0.0003275109	260720.77	640867.25	-0.00021834062
0	0.6438808	0.6438803	-2.4076113e-10	0.061942536	0.061942536	0	114285.5	114285.4	-4.49827e-05	640960.94	260471.89	-0.0002456332	260472.17	640960.44	-9.552402e-05
0	0.64376986	0.6437693	-4.685081e-10	0.061801046	0.061801046	0	114265.805	114265.72	-7.7854675e-05	641054.94	260222.58	-0.0002456332	260222.86	641054.44	-0.00042303494
0	0.6436599	0.6436593	-1.821976e-10	0.06165979	0.06165979	0	114246.28	114246.17	-2.9411765e-05	641147.7	259975.83	-0.00016375545	259976.11	641147.06	-4.0938863e-05
0	0.64354783	0.64354724	-4.0343756e-10	0.061518256	0.061518256	0	114226.4	114226.29	-7.00692e-05	641241.8	259724.89	-0.00027292577	259725.14	641241.25	-0.00028657206
0	0.64343756	0.64343697	-3.7740933e-10	0.061376907	0.061376907	0	114206.83	114206.72	-6.920415e-05	641334.9	259477.48	-0.00021834062	259477.75	641334.2	-0.00034798036
0	0.6433252	0.64332455	-3.3836697e-10	0.061235435	0.061235435	0	114186.875	114186.77	-6.228374e-05	641428.4	259226.58	-0.00017740174	259226.83	641427.8	-0.0003275109
0	0.6432119	0.64321125	-1.3014115e-11	0.061093953	0.061093953	0	114166.766	114166.66	-3.4602076e-06	641524.2	258972.14	0	258972.39	641523.6	-2.7292577e-05
0	0.6431017	0.64310104	-5.921422e-10	0.06095263	0.06095263	0	114147.21	114147.11	-0.00010207613	641616.06	258726.06	-0.00040938865	258726.34	641615.56	-0.0004503275
0	0.64298964	0.64298904	-2.5377522e-10	0.060811136	0.060811136	0	114127.336	114127.23	-4.3252596e-05	641709.44	258475.83	-0.00020469433	258476.1	641708.8	-0.00010917031
0	0.6428761	0.6428755	-2.27747e-10	0.060669806	0.060669806	0	114107.18	114107.07	-3.9792387e-05	641803.5	258222.78	-0.0002456332	258223.1	641802.94	-6.823144e-05
0	0.6427629	0.64276236	-1.6267643e-10	0.060528323	0.060528323	0	114087.086	114086.97	-2.9411765e-05	641897.75	257970.08	-5.4585154e-05	257970.36	641897.2	-0.00013646288
0	0.6426487	0.6426481	-2.3425406e-10	0.06038699	0.06038699	0	114066.805	114066.695	-4.7577854e-05	641993.56	257714.33	-8.1877726e-05	257714.61	641993	-0.00021834062
0	0.6425373	0.64253664	-4.0343756e-10	0.060245514	0.060245506	0	114047.02	114046.93	-7.00692e-05	642085.56	257466.36	-0.00021834062	257466.66	642084.9	-0.0003548035
0	0.64242274	0.6424221	-5.205646e-11	0.060104024	0.060104024	0	114026.71	114026.6	-5.1903116e-06	642180.25	257211.36	-2.7292577e-05	257211.64	642179.6	-1.3646289e-05
0	0.6423091	0.6423084	-3.9042342e-11	0.0599627	0.0599627	0	114006.53	114006.43	-7.7854675e-06	642274.6	256957.94	0	256958.22	642273.94	-0.00010917031
0	0.6421955	0.64219487	-2.602823e-10	0.05982116	0.05982116	0	113986.375	113986.26	-4.49827e-05	642368.1	256705.28	-0.00016375545	256705.6	642367.5	-0.00021834062
0	0.6420797	0.64207906	-1.9521172e-10	0.059679892	0.059679892	0	113965.81	113965.7	-3.2871973e-05	642462.7	256448.56	-0.00019104804	256448.86	642462.2	-5.4585154e-05
0	0.6419656	0.6419651	-1.821976e-10	0.059538387	0.059538387	0	113945.58	113945.46	-3.8062284e-05	642557.06	256194.6	-2.7292577e-05	256194.9	642556.44	-0.0002319869
0	0.6418505	0.6418499	-3.2535287e-11	0.059396863	0.059396863	0	113925.14	113925.01	-4.3252594e-06	642651.44	255938.98	0	255939.3	642650.75	-6.823144e-05
0	0.6417345	0.64173377	-2.0822584e-10	0.05925559	0.05925559	0	113904.53	113904.41	-3.9792387e-05	642746.5	255681.38	-8.1877726e-05	255681.67	642745.94	-0.0002319869
0	0.64161897	0.6416184	-3.8391637e-10	0.059114084	0.059114084	0	113884.05	113883.92	-7.093426e-05	642841.1	255425.23	-0.00021834062	255425.53	642840.5	-0.0003548035
0	0.6415038	0.64150316	-3.3185993e-10	0.05897273	0.05897273	0	113863.6	113863.48	-5.7093424e-05	642935.4	255169.6	-0.00021834062	255169.88	642934.75	-0.00025245635
0	0.641385	0.6413844	2.602823e-11	0.05883124	0.05883124	0	113842.51	113842.39	4.3252594e-06	643032.6	254906.11	5.4585154e-05	254906.38	643032.06	0
0	0.6412692	0.6412685	-3.4487405e-10	0.058689952	0.05868996	0	113821.945	113821.836	-6.5743945e-05	643127.25	254649.23	-0.00021834062	254649.55	643126.6	-0.0003275109
0	0.64115393	0.6411533	-5.0104343e-10	0.058548428	0.058548428	0	113801.5	113801.38	-8.564014e-05	643220.4	254394.86	-0.00040938865	254395.17	643219.75	-0.0003275109
0	0.6410366	0.6410359	-4.1645168e-10	0.058406938	0.058406938	0	113780.664	113780.54	-7.698962e-05	643315.75	254135.14	-0.00027292577	254135.45	643315.1	-0.00028657206
0	0.64091814	0.6409174	-4.1645168e-10	0.05826566	0.05826566	0	113759.64	113759.516	-7.179931e-05	643412.06	253872.97	-0.0003548035	253873.3	643411.44	-0.00021834062
0	0.6408018	0.64080113	-2.7980346e-10	0.058124106	0.058124106	0	113739	113738.875	-4.8442907e-05	643505.5	253616.66	-0.00021834062	253616.97	643504.94	-0.00015693232
0	0.640683	0.64068234	-4.55494e-10	0.057982814	0.057982814	0	113717.914	113717.79	-8.3044986e-05	643601.3	253354.56	-0.0003548035	253354.92	643600.7	-0.00028657206
0	0.6405656	0.64056486	-1.3014115e-10	0.057841312	0.057841312	0	113697.06	113696.945	-2.0761247e-05	643696.5	253094.9	-8.1877726e-05	253095.23	643695.9	-1.3646289e-05
0	0.6404468	0.6404461	-5.205646e-11	0.057699807	0.057699807	0	113675.99	113675.86	-6.920415e-06	643791.8	252833.38	-0.0001228166	252833.7	643791.1	2.7292577e-05
0	0.6403282	0.64032763	-2.6678934e-10	0.057558525	0.057558525	0	113654.945	113654.83	-4.67128e-05	643887.2	252572.06	-0.0002456332	252572.39	643886.5	-0.00019104804
0	0.6402077	0.6402071	-4.0343756e-10	0.05741701	0.05741701	0	113633.56	113633.43	-7.00692e-05	643984.5	252306.11	-0.00027292577	252306.45	643983.75	-0.0002456332
0	0.6400894	0.64008874	-2.5377522e-10	0.057275683	0.057275683	0	113612.555	113612.42	-4.584775e-05	644078.75	252046.08	-8.1877726e-05	252046.45	644078.1	-0.0002797489
0	0.6399702	0.6399695	-2.8631053e-10	0.057134178	0.057134178	0	113591.375	113591.25	-5.1903113e-05	644174	251783.88	-0.00027292577	251784.22	644173.4	-0.00010917031
0	0.63985	0.63984936	-3.2535286e-10	0.056992896	0.056992896	0	113570.07	113569.94	-5.882353e-05	644269.94	251519.8	-0.00016375545	251520.17	644269.25	-0.0003411572
0	0.6397298	0.63972914	-1.9521172e-10	0.056851387	0.056851387	0	113548.734	113548.59	-3.0276817e-05	644365.75	251255.61	-0.00010917031	251255.98	644365.1	-0.00013646288
0	0.63960946	0.6396088	-2.9932465e-10	0.056709882	0.056709882	0	113527.37	113527.24	-5.363322e-05	644461.44	250991.6	-0.00020469433	250991.9	644460.75	-0.00020469433
0	0.63948786	0.6394872	-4.2946577e-10	0.056568604	0.056568604	0	113505.78	113505.65	-7.179931e-05	644557.25	250725.39	-0.00030021835	250725.73	644556.56	-0.0003275109
0	0.63936514	0.6393644	-3.1233874e-10	0.05642703	0.056427035	0	113483.99	113483.86	-5.1903113e-05	644655.7	250455.14	-0.00010917031	250455.5	644654.94	-0.00030021835
0	0.63924617	0.6392454	-1.2363409e-10	0.056285758	0.056285758	0	113462.87	113462.75	-2.4221454e-05	644749.4	250194.92	-0.00013646288	250195.25	644748.75	-6.823144e-05
0	0.6391238	0.6391231	-1.1061997e-10	0.05614425	0.05614425	0	113441.164	113441.04	-2.0761247e-05	644845.75	249927.3	-0.00016375545	249927.62	644845.06	0
0	0.6390012	0.6390005	-1.3014115e-10	0.056002736	0.056002736	0	113419.4	113419.26	-2.249135e-05	644942.56	249658.75	-0.00021834062	249659.14	644941.94	6.823144e-05
0	0.6388781	0.63887733	2.0822584e-10	0.05586146	0.05586146	0	113397.54	113397.42	3.719723e-05	645039	249389.89	8.1877726e-05	249390.25	645038.4	0.00021834062
0	0.63875705	0.63875633	-4.0343756e-10	0.055719953	0.055719953	0	113376.06	113375.93	-7.5259515e-05	645134.6	249124.89	-0.0002319869	249125.22	645134	-0.0003548035
0	0.6386331	0.63863236	-4.2946577e-10	0.05557868	0.05557868	0	113354.06	113353.945	-7.871972e-05	645231.6	248854.4	-0.00027292577	248854.75	645231	-0.0004025655
0	0.63851124	0.6385105	-1.366482e-10	0.05543712	0.05543712	0	113332.44	113332.305	-1.9896193e-05	645327.7	248587.62	-0.00016375545	248587.98	645327.06	0
0	0.63838625	0.6383856	-1.1712703e-10	0.05529583	0.05529583	0	113310.26	113310.125	-1.6435986e-05	645424.8	248315.67	-8.1877726e-05	248316.03	645424.06	-6.823144e-05
0	0.6382616	0.6382609	-2.4076113e-10	0.055154327	0.055154327	0	113288.13	113288.01	-3.8062284e-05	645523.4	248042.53	-5.4585154e-05	248042.92	645522.75	-0.00021151747
0	0.63813925	0.6381385	-2.2123994e-10	0.055012815	0.055012815	0	113266.414	113266.27	-4.065744e-05	645618.25	247776.33	-0.00013646288	247776.7	645617.5	-0.00013646288
0	0.63801485	0.6380141	-3.513811e-10	0.054871533	0.054871533	0	113244.32	113244.19	-6.228374e-05	645715.1	247505.33	-0.0002456332	247505.69	645714.4	-0.00027292577
0	0.6378902	0.6378894	-1.0411292e-10	0.05473003	0.05473003	0	113222.195	113222.07	-1.5570935e-05	645811.7	247234.16	-8.1877726e-05	247234.52	645811.06	-0.00013646288
0	0.6377644	0.63776356	-3.643952e-10	0.054588694	0.054588694	0	113199.86	113199.73	-6.228374e-05	645909.06	246960.62	-0.0002456332	246960.98	645908.4	-0.00028657206
0	0.6376397	0.637639	-9.10988e-11	0.05444718	0.05444718	0	113177.734	113177.61	-1.2110727e-05	646006.06	246689.23	-5.4585154e-05	246689.6	646005.25	-5.4585154e-05
0	0.6375135	0.6375128	-2.732964e-10	0.054305915	0.05430591	0	113155.36	113155.22	-5.017301e-05	646102.94	246415.67	-0.00019104804	246416.06	646102.3	-0.00021151747
0	0.63738745	0.63738674	-2.9932465e-10	0.054164402	0.054164402	0	113132.98	113132.836	-5.536332e-05	646200.25	246141.84	-0.00016375545	246142.23	646199.6	-0.0002319869
0	0.63726133	0.63726056	-3.3185993e-10	0.054022882	0.054022882	0	113110.586	113110.445	-6.0553633e-05	646297.5	245867.97	-0.00010917031	245868.36	646296.8	-0.00036844978
0	0.63713497	0.6371343	-2.2123994e-10	0.053881615	0.053881615	0	113088.164	113088.02	-4.1522493e-05	646394.7	245593.98	-0.0002456332	245594.38	646393.94	-0.00010917031
0	0.63700736	0.6370065	-9.760586e-11	0.05374005	0.05374005	0	113065.5	113065.37	-1.816609e-05	646492.5	245317.36	-2.7292577e-05	245317.81	646491.8	-0.00010917031
0	0.6368798	0.63687897	-6.3118455e-10	0.053598765	0.053598765	0	113042.87	113042.73	-0.00011072664	646590.06	245041.25	-0.00054585154	245041.66	646589.44	-0.00038209607
0	0.6367537	0.6367528	-2.6678934e-10	0.053457264	0.053457264	0	113020.47	113020.33	-4.8442907e-05	646687.06	244767.58	-0.00016375545	244767.97	646686.44	-0.00014328603
0	0.6366249	0.6366241	-4.6200108e-10	0.05331577	0.05331577	0	112997.61	112997.46	-7.871972e-05	646785.3	244489.08	-0.00038209607	244489.5	646784.6	-0.00031386464
0	0.6364955	0.63649464	-2.0822584e-10	0.053174473	0.053174473	0	112974.64	112974.51	-3.8927337e-05	646884.75	244208.44	-0.00015010918	244208.83	646884.1	-0.00013646288
0	0.6363688	0.63636804	-4.0343756e-10	0.053032972	0.053032972	0	112952.164	112952.016	-7.093426e-05	646980.56	243935.36	-0.0002456332	243935.78	646979.9	-0.00027292577
0	0.63623965	0.6362389	-2.602823e-10	0.052891634	0.052891634	0	112929.234	112929.11	-4.7577854e-05	647078.3	243656.8	-0.00019104804	243657.25	647077.6	-0.00020469433
0	0.6361103	0.6361095	-2.602823e-11	0.05275012	0.05275012	0	112906.27	112906.13	-3.4602076e-06	647176.44	243377.61	2.7292577e-05	243378.03	647175.7	-9.552402e-05
0	0.6359808	0.63598	-4.6200108e-10	0.052608836	0.052608836	0	112883.28	112883.13	-8.217993e-05	647274.44	243098.22	-0.00027292577	243098.61	647273.6	-0.00039574236
0	0.6358512	0.63585037	-5.986493e-10	0.052467342	0.052467342	0	112860.3	112860.15	-0.00010726644	647372.2	242819.11	-0.00040938865	242819.52	647371.5	-0.0004639738
0	0.6357205	0.63571966	-1.821976e-10	0.052325826	0.052325826	0	112837.086	112836.94	-3.114187e-05	647471	242537.17	-9.552402e-05	242537.61	647470.3	-0.00016375545
0	0.6355888	0.63558805	-1.7569055e-10	0.05218455	0.05218455	0	112813.72	112813.58	-2.9411765e-05	647571.06	242252.89	-0.00019104804	242253.33	647570.3	-8.870087e-05
0	0.6354595	0.6354587	-3.5788816e-10	0.05204299	0.05204299	0	112790.76	112790.625	-6.228374e-05	647667.7	241975.11	-0.00019104804	241975.56	647667.06	-0.00028657206
0	0.6353291	0.63532823	-4.4247989e-10	0.051901694	0.051901694	0	112767.61	112767.47	-7.871972e-05	647765.5	241694.77	-0.0003411572	241695.19	647764.8	-0.00031386464
0	0.6351968	0.63519603	-4.2295872e-10	0.051760197	0.051760197	0	112744.14	112744	-7.00692e-05	647864.3	241410.94	-0.00030021835	241411.38	647863.5	-0.00028657206
0	0.63506556	0.6350647	-3.7090225e-10	0.051618703	0.051618703	0	112720.85	112720.695	-6.747405e-05	647962.7	241128.61	-0.00031386464	241129.06	647962.1	-0.00019104804
0	0.63493204	0.63493127	-4.0343756e-10	0.05147742	0.05147742	0	112697.15	112697	-6.920415e-05	648063	240841.39	-0.00030021835	240841.84	648062.4	-0.0002456332
0	0.6348012	0.63480043	-2.9932465e-10	0.051335912	0.051335912	0	112673.93	112673.78	-5.536332e-05	648159.44	240561.83	-0.0003275109	240562.25	648158.8	-8.1877726e-05
0	0.6346664	0.6346655	-3.3836697e-10	0.051194567	0.051194567	0	112649.99	112649.836	-6.228374e-05	648260.6	240271.77	-0.00021834062	240272.27	648260	-0.00028657206
0	0.63453555	0.63453484	-3.188458e-10	0.051053073	0.051053073	0	112626.78	112626.62	-5.7093424e-05	648357.06	239992.28	-0.00027292577	239992.77	648356.44	-0.00017740174
0	0.6344002	0.6343994	-6.441987e-10	0.05091177	0.05091177	0	112602.74	112602.59	-0.0001115917	648458.2	239701.62	-0.00051855895	239702.11	648457.5	-0.0003889192
0	0.6342665	0.63426554	-1.4315527e-10	0.050770275	0.050770275	0	112579	112578.84	-2.4221454e-05	648557.25	239415.31	-0.00016375545	239415.78	648556.56	-6.823144e-05
0	0.634134	0.6341331	-2.0822584e-10	0.05062879	0.05062879	0	112555.484	112555.336	-3.3737026e-05	648654.3	239132.78	-0.0002319869	239133.23	648653.56	-2.7292577e-05
0	0.6339995	0.63399863	-2.7980346e-10	0.05048749	0.05048749	0	112531.625	112531.48	-4.9307957e-05	648753.06	238845.8	-0.00013646288	238846.27	648752.4	-0.00023881004
0	0.633864	0.63386315	-1.366482e-10	0.05034593	0.05034593	0	112507.57	112507.42	-2.4221454e-05	648852.8	238556.31	-9.552402e-05	238556.78	648852.1	-0.00010917031
0	0.633728	0.63372725	-1.3014115e-10	0.050204646	0.050204642	0	112483.445	112483.29	-1.9896193e-05	648953.9	238265.02	-0.00010917031	238265.45	648953	-2.7292577e-05
0	0.6335943	0.63359344	-3.2535287e-11	0.050063137	0.050063137	0	112459.695	112459.55	-5.1903116e-06	649051.1	237980.45	-5.4585154e-05	237980.92	649050.44	-6.8231443e-06
0	0.633458	0.6334572	-2.0171878e-10	0.04992165	0.04992165	0	112435.516	112435.36	-4.065744e-05	649150.8	237689.98	-0.00019104804	237690.47	649150.1	-8.1877726e-05
0	0.6333203	0.6333194	-4.4247989e-10	0.04978036	0.04978036	0	112411.06	112410.9	-7.871972e-05	649250.75	237397.12	-0.00031386464	237397.62	649250	-0.0003411572
0	0.6331853	0.6331845	-4.0343756e-10	0.049638852	0.049638852	0	112387.12	112386.95	-7.093426e-05	649350.06	237108.9	-0.0003275109	237109.4	649349.25	-0.00017740174
0	0.63304865	0.6330478	-2.0171878e-10	0.049497508	0.049497508	0	112362.836	112362.69	-3.719723e-05	649449.1	236818.45	-0.00025927948	236818.95	649448.44	-2.7292577e-05
0	0.63291144	0.6329105	-4.880293e-10	0.04935601	0.04935601	0	112338.5	112338.34	-8.391003e-05	649548.7	236526.88	-0.00031386464	236527.4	649547.9	-0.0003548035
0	0.63277376	0.63277286	-3.3836697e-10	0.049214706	0.049214706	0	112314.055	112313.89	-6.228374e-05	649648.9	236233.89	-0.0003275109	236234.39	649648.06	-0.00016375545
0	0.63263464	0.6326337	-2.9281758e-10	0.049073216	0.049073216	0	112289.36	112289.195	-5.363322e-05	649750.5	235937.39	-0.00025927948	235937.92	649749.8	-0.00013646288
0	0.6324982	0.6324973	-1.1712703e-10	0.048931725	0.048931725	0	112265.15	112264.984	-2.0761247e-05	649848.3	235648.61	-0.00019104804	235649.12	649847.6	4.0938863e-05
0	0.63235927	0.63235843	-3.058317e-10	0.048790433	0.048790433	0	112240.51	112240.336	-5.7093424e-05	649948.44	235354.16	-0.00016375545	235354.69	649947.6	-0.00030021835
0	0.63221884	0.63221794	3.2535287e-11	0.048648868	0.048648868	0	112215.56	112215.4	4.3252594e-06	650050.5	235055.28	0	235055.81	650049.75	2.7292577e-05
0	0.63208073	0.6320798	-5.205646e-11	0.04850758	0.04850758	0	112191.03	112190.875	-6.0553634e-06	650148.44	234763.94	-0.00016375545	234764.44	650147.7	6.823144e-05
0	0.63193977	0.63193893	-1.366482e-10	0.04836608	0.04836608	0	112166.04	112165.87	-2.0761247e-05	650250.8	234464.45	-0.00013646288	234464.98	650249.94	-3.411572e-05
0	0.6318015	0.63180053	-3.4487405e-10	0.04822459	0.04822459	0	112141.48	112141.31	-5.6228375e-05	650349.4	234172.19	-0.00025927948	234172.7	650348.56	-0.0002456332
0	0.63165987	0.6316589	-2.3425406e-10	0.04808329	0.04808329	0	112116.336	112116.17	-4.065744e-05	650449.9	233873.3	-0.00020469433	233873.83	650449.2	-0.00013646288
0	0.63151866	0.6315177	-2.9932465e-10	0.047941796	0.047941796	0	112091.28	112091.12	-5.1038063e-05	650552	233573.62	-0.00016375545	233574.16	650551.25	-0.0002456332
0	0.63137954	0.63137853	-4.099446e-10	0.047800433	0.047800433	0	112066.586	112066.42	-7.352941e-05	650650.44	233280.33	-0.00021834062	233280.86	650649.6	-0.00039574236
0	0.6312379	0.631237	2.602823e-11	0.047658954	0.047658954	0	112041.46	112041.29	5.1903116e-06	650750.8	232981.72	6.823144e-05	232982.25	650750.1	5.4585154e-05
0	0.63109595	0.631095	-2.3425406e-10	0.047517646	0.047517646	0	112016.25	112016.09	-3.8062284e-05	650851.8	232681.92	-8.1877726e-05	232682.47	650851.06	-0.00023881004
0	0.6309543	0.63095343	-3.513811e-10	0.047376156	0.047376156	0	111991.125	111990.95	-6.487889e-05	650951.9	232383.69	-0.00025927948	232384.22	650951.1	-0.00025927948
0	0.6308111	0.63081014	-1.8870466e-10	0.04723467	0.04723467	0	111965.69	111965.53	-2.8546712e-05	651053.25	232081.73	-0.00017740174	232082.3	651052.44	-5.4585154e-05
0	0.6306683	0.6306673	-5.205646e-11	0.04709336	0.04709336	0	111940.34	111940.17	-8.650519e-06	651153.75	231781.28	-0.00013646288	231781.88	651152.94	5.4585154e-05
0	0.63052505	0.6305241	-3.3836697e-10	0.046951808	0.046951808	0	111914.92	111914.75	-6.0553633e-05	651255	231479.48	-0.00016375545	231480.06	651254.2	-0.0003275109
0	0.63038164	0.63038063	-2.1473288e-10	0.04681051	0.04681051	0	111889.46	111889.3	-3.719723e-05	651355.75	231177.97	-0.0002319869	231178.52	651355	-9.552402e-05
0	0.63023794	0.630237	-2.4726818e-10	0.046669018	0.046669018	0	111863.96	111863.8	-3.8927337e-05	651456.7	230875.92	-0.00030021835	230876.47	651455.8	-1.3646289e-05
0	0.6300914	0.6300904	-7.8084685e-11	0.04652772	0.04652772	0	111837.97	111837.8	-1.5570935e-05	651560	230567.47	-0.00010917031	230568.03	651559.25	2.7292577e-05
0	0.62994677	0.6299458	-5.5309984e-10	0.046386234	0.046386234	0	111812.29	111812.12	-9.515571e-05	651661.2	230263.73	-0.00043668124	230264.3	651660.44	-0.0003548035
0	0.6298024	0.62980145	-2.0822584e-10	0.04624474	0.04624474	0	111786.664	111786.484	-3.633218e-05	651760.94	229962	-0.00013646288	229962.58	651760	-8.1877726e-05
0	0.62965626	0.62965524	-3.643952e-10	0.046103436	0.046103436	0	111760.72	111760.54	-6.228374e-05	651862.44	229655.73	-0.0003548035	229656.33	651861.6	-0.0001228166
0	0.6295123	0.6295113	-3.5788816e-10	0.045961883	0.045961883	0	111735.17	111734.984	-6.487889e-05	651963.06	229353.56	-0.00027292577	229354.14	651962.3	-0.00021834062
0	0.629365	0.6293641	-2.602823e-11	0.045820575	0.045820575	0	111709.02	111708.84	-5.1903116e-06	652065.06	229045.38	-4.0938863e-05	229045.97	652064.25	-1.3646289e-05
0	0.629219	0.629218	-1.3014115e-10	0.0456791	0.0456791	0	111683.09	111682.92	-2.5951556e-05	652166.6	228739.39	-5.4585154e-05	228740.03	652165.75	-0.00017740174
0	0.62907016	0.6290692	-4.0018402e-10	0.045537613	0.045537613	0	111656.69	111656.516	-7.00692e-05	652270.25	228427.42	-0.0003411572	228428.02	652269.44	-0.0002456332
0	0.6289249	0.62892395	-3.6764874e-10	0.0453963	0.0453963	0	111630.91	111630.73	-6.920415e-05	652369.9	228124.44	-0.0002456332	228125.03	652369	-0.00030021835
0	0.62877685	0.62877584	-4.522405e-10	0.04525482	0.04525482	0	111604.63	111604.445	-7.7854675e-05	652471.44	227815.56	-0.00036844978	227816.14	652470.56	-0.00030021835